Title t= 4900.00000 step= 2450000
42785
    1SAPS     N    1   4.557   3.292   6.525
    1SAPS   HN1    2   4.661   3.292   6.518
    1SAPS   HN2    3   4.505   3.207   6.497
    1SAPS   HN3    4   4.523   3.377   6.475
    1SAPS   C12    5   4.526   3.313   6.670
    1SAPS  H12A    6   4.420   3.317   6.690
    1SAPS   C13    7   4.585   3.209   6.757
    1SAPS  O13A    8   4.635   3.101   6.708
    1SAPS  O13B    9   4.547   3.219   6.879
    1SAPS   C11   10   4.587   3.453   6.715
    1SAPS  H11A   11   4.696   3.461   6.694
    1SAPS  H11B   12   4.578   3.456   6.826
    1SAPS     P   13   4.453   3.677   6.743
    1SAPS   O13   14   4.356   3.627   6.845
    1SAPS   O14   15   4.561   3.759   6.797
    1SAPS   O12   16   4.517   3.557   6.664
    1SAPS   O11   17   4.384   3.755   6.630
    1SAPS    C1   18   4.272   3.712   6.560
    1SAPS    HA   19   4.199   3.647   6.612
    1SAPS    HB   20   4.229   3.806   6.519
    1SAPS    C2   21   4.303   3.636   6.430
    1SAPS    HS   22   4.318   3.536   6.476
    1SAPS   O21   23   4.407   3.703   6.354
    1SAPS   C21   24   4.514   3.630   6.351
    1SAPS   O22   25   4.527   3.516   6.395
    1SAPS   C22   26   4.615   3.697   6.260
    1SAPS   H2R   27   4.659   3.619   6.195
    1SAPS   H2S   28   4.560   3.780   6.210
    1SAPS    C3   29   4.178   3.614   6.346
    1SAPS    HX   30   4.121   3.709   6.350
    1SAPS    HY   31   4.115   3.543   6.404
    1SAPS   O31   32   4.224   3.556   6.225
    1SAPS   C31   33   4.230   3.633   6.121
    1SAPS   O32   34   4.184   3.748   6.118
    1SAPS   C32   35   4.315   3.572   6.014
    1SAPS   H2X   36   4.287   3.467   5.992
    1SAPS   H2Y   37   4.418   3.574   6.055
    1SAPS   C23   38   4.730   3.767   6.333
    1SAPS   H3R   39   4.786   3.690   6.390
    1SAPS   H3S   40   4.683   3.833   6.409
    1SAPS   C24   41   4.823   3.872   6.254
    1SAPS   H4R   42   4.881   3.932   6.328
    1SAPS   H4S   43   4.760   3.948   6.204
    1SAPS   C25   44   4.916   3.800   6.158
    1SAPS   H5R   45   5.011   3.762   6.200
    1SAPS   C26   46   4.891   3.795   6.028
    1SAPS   H6R   47   4.963   3.750   5.958
    1SAPS   C27   48   4.762   3.842   5.968
    1SAPS   H7R   49   4.790   3.938   5.920
    1SAPS   H7S   50   4.690   3.855   6.052
    1SAPS   C28   51   4.698   3.743   5.873
    1SAPS   H8R   52   4.657   3.649   5.914
    1SAPS   C29   53   4.697   3.752   5.736
    1SAPS   H9R   54   4.624   3.687   5.686
    1SAPS  C210   55   4.737   3.868   5.653
    1SAPS  H10R   56   4.848   3.866   5.652
    1SAPS  H10S   57   4.695   3.957   5.704
    1SAPS  C211   58   4.691   3.874   5.510
    1SAPS  H11R   59   4.598   3.931   5.491
    1SAPS  C212   60   4.757   3.824   5.406
    1SAPS  H12R   61   4.702   3.827   5.311
    1SAPS  C213   62   4.894   3.756   5.421
    1SAPS  H13R   63   4.891   3.708   5.521
    1SAPS  H13S   64   4.969   3.836   5.405
    1SAPS  C214   65   4.933   3.643   5.324
    1SAPS  H14R   66   4.937   3.544   5.372
    1SAPS  C215   67   4.950   3.650   5.186
    1SAPS  H15R   68   4.947   3.552   5.137
    1SAPS  C216   69   4.941   3.773   5.092
    1SAPS  H16R   70   5.044   3.771   5.051
    1SAPS  H16S   71   4.926   3.873   5.139
    1SAPS  C217   72   4.829   3.763   4.989
    1SAPS  H17R   73   4.737   3.802   5.037
    1SAPS  H17S   74   4.822   3.660   4.948
    1SAPS  C218   75   4.840   3.869   4.878
    1SAPS  H18R   76   4.937   3.842   4.830
    1SAPS  H18S   77   4.844   3.970   4.926
    1SAPS  C219   78   4.720   3.861   4.789
    1SAPS  H19R   79   4.684   3.762   4.755
    1SAPS  H19S   80   4.745   3.915   4.695
    1SAPS  C220   81   4.588   3.935   4.827
    1SAPS  H20R   82   4.563   3.893   4.927
    1SAPS  H20S   83   4.512   3.912   4.750
    1SAPS  H20T   84   4.601   4.045   4.840
    1SAPS   C33   85   4.313   3.659   5.882
    1SAPS   H3X   86   4.399   3.622   5.822
    1SAPS   H3Y   87   4.329   3.764   5.915
    1SAPS   C34   88   4.181   3.643   5.798
    1SAPS   H4X   89   4.095   3.682   5.857
    1SAPS   H4Y   90   4.166   3.539   5.763
    1SAPS   C35   91   4.193   3.711   5.659
    1SAPS   H5X   92   4.227   3.815   5.677
    1SAPS   H5Y   93   4.092   3.721   5.615
    1SAPS   C36   94   4.286   3.627   5.554
    1SAPS   H6X   95   4.237   3.531   5.527
    1SAPS   H6Y   96   4.379   3.600   5.607
    1SAPS   C37   97   4.324   3.694   5.418
    1SAPS   H7X   98   4.392   3.618   5.374
    1SAPS   H7Y   99   4.371   3.792   5.442
    1SAPS   C38  100   4.208   3.704   5.325
    1SAPS   H8X  101   4.151   3.789   5.367
    1SAPS   H8Y  102   4.127   3.628   5.316
    1SAPS   C39  103   4.243   3.740   5.176
    1SAPS   H9X  104   4.295   3.659   5.119
    1SAPS   H9Y  105   4.320   3.819   5.185
    1SAPS  C310  106   4.125   3.787   5.094
    1SAPS  H10X  107   4.070   3.862   5.154
    1SAPS  H10Y  108   4.061   3.698   5.076
    1SAPS  C311  109   4.170   3.860   4.970
    1SAPS  H11X  110   4.242   3.794   4.918
    1SAPS  H11Y  111   4.203   3.965   4.984
    1SAPS  C312  112   4.063   3.880   4.863
    1SAPS  H12X  113   3.976   3.914   4.923
    1SAPS  H12Y  114   4.034   3.787   4.809
    1SAPS  C313  115   4.113   3.988   4.757
    1SAPS  H13X  116   4.208   3.952   4.713
    1SAPS  H13Y  117   4.118   4.086   4.810
    1SAPS  C314  118   4.009   3.991   4.645
    1SAPS  H14X  119   3.909   4.007   4.689
    1SAPS  H14Y  120   4.004   3.887   4.605
    1SAPS  C315  121   4.046   4.080   4.530
    1SAPS  H15X  122   4.143   4.047   4.488
    1SAPS  H15Y  123   4.063   4.178   4.580
    1SAPS  C316  124   3.935   4.091   4.427
    1SAPS  H16X  125   3.971   4.177   4.367
    1SAPS  H16Y  126   3.833   4.119   4.463
    1SAPS  C317  127   3.935   3.968   4.332
    1SAPS  H17X  128   3.929   3.879   4.398
    1SAPS  H17Y  129   4.027   3.967   4.270
    1SAPS  C318  130   3.815   3.964   4.236
    1SAPS  H18X  131   3.837   3.885   4.161
    1SAPS  H18Y  132   3.796   4.061   4.186
    1SAPS  H18Z  133   3.720   3.936   4.287
    2SAPS     N  134   4.761   6.497   6.950
    2SAPS   HN1  135   4.829   6.575   6.935
    2SAPS   HN2  136   4.703   6.532   7.029
    2SAPS   HN3  137   4.811   6.415   6.987
    2SAPS   C12  138   4.676   6.462   6.833
    2SAPS  H12A  139   4.581   6.429   6.873
    2SAPS   C13  140   4.650   6.582   6.741
    2SAPS  O13A  141   4.652   6.706   6.779
    2SAPS  O13B  142   4.585   6.552   6.635
    2SAPS   C11  143   4.731   6.348   6.753
    2SAPS  H11A  144   4.837   6.378   6.736
    2SAPS  H11B  145   4.683   6.321   6.657
    2SAPS     P  146   4.851   6.131   6.857
    2SAPS   O13  147   4.960   6.201   6.925
    2SAPS   O14  148   4.791   6.013   6.926
    2SAPS   O12  149   4.732   6.234   6.839
    2SAPS   O11  150   4.891   6.090   6.706
    2SAPS    C1  151   4.795   6.025   6.620
    2SAPS    HA  152   4.719   5.964   6.673
    2SAPS    HB  153   4.739   6.101   6.561
    2SAPS    C2  154   4.875   5.934   6.522
    2SAPS    HS  155   4.942   5.877   6.590
    2SAPS   O21  156   4.948   6.019   6.427
    2SAPS   C21  157   5.043   5.952   6.364
    2SAPS   O22  158   5.077   5.836   6.391
    2SAPS   C22  159   5.102   6.048   6.260
    2SAPS   H2R  160   5.148   6.130   6.318
    2SAPS   H2S  161   5.181   5.981   6.220
    2SAPS    C3  162   4.779   5.838   6.434
    2SAPS    HX  163   4.709   5.794   6.508
    2SAPS    HY  164   4.848   5.764   6.388
    2SAPS   O31  165   4.705   5.920   6.335
    2SAPS   C31  166   4.692   5.870   6.220
    2SAPS   O32  167   4.727   5.762   6.180
    2SAPS   C32  168   4.601   5.967   6.130
    2SAPS   H2X  169   4.610   6.071   6.171
    2SAPS   H2Y  170   4.500   5.930   6.156
    2SAPS   C23  171   4.997   6.110   6.162
    2SAPS   H3R  172   4.920   6.172   6.212
    2SAPS   H3S  173   4.937   6.027   6.118
    2SAPS   C24  174   5.068   6.197   6.055
    2SAPS   H4R  175   5.131   6.134   5.989
    2SAPS   H4S  176   5.145   6.258   6.106
    2SAPS   C25  177   4.964   6.265   5.977
    2SAPS   H5R  178   4.903   6.328   6.043
    2SAPS   C26  179   4.941   6.254   5.843
    2SAPS   H6R  180   4.860   6.318   5.804
    2SAPS   C27  181   5.004   6.164   5.742
    2SAPS   H7R  182   4.925   6.115   5.681
    2SAPS   H7S  183   5.055   6.081   5.794
    2SAPS   C28  184   5.098   6.236   5.641
    2SAPS   H8R  185   5.155   6.323   5.679
    2SAPS   C29  186   5.124   6.192   5.515
    2SAPS   H9R  187   5.189   6.252   5.449
    2SAPS  C210  188   5.061   6.069   5.459
    2SAPS  H10R  189   4.952   6.083   5.479
    2SAPS  H10S  190   5.084   5.988   5.531
    2SAPS  C211  191   5.108   6.043   5.317
    2SAPS  H11R  192   5.217   6.030   5.310
    2SAPS  C212  193   5.028   6.010   5.214
    2SAPS  H12R  194   5.076   5.997   5.116
    2SAPS  C213  195   4.875   5.995   5.218
    2SAPS  H13R  196   4.838   6.097   5.196
    2SAPS  H13S  197   4.830   5.964   5.315
    2SAPS  C214  198   4.842   5.891   5.120
    2SAPS  H14R  199   4.855   5.785   5.147
    2SAPS  C215  200   4.802   5.913   4.994
    2SAPS  H15R  201   4.772   5.826   4.934
    2SAPS  C216  202   4.790   6.045   4.922
    2SAPS  H16R  203   4.882   6.072   4.865
    2SAPS  H16S  204   4.788   6.126   4.999
    2SAPS  C217  205   4.658   6.028   4.843
    2SAPS  H17R  206   4.575   5.993   4.907
    2SAPS  H17S  207   4.686   5.955   4.764
    2SAPS  C218  208   4.598   6.152   4.773
    2SAPS  H18R  209   4.683   6.212   4.732
    2SAPS  H18S  210   4.544   6.219   4.844
    2SAPS  C219  211   4.509   6.124   4.645
    2SAPS  H19R  212   4.421   6.070   4.686
    2SAPS  H19S  213   4.563   6.059   4.573
    2SAPS  C220  214   4.462   6.244   4.567
    2SAPS  H20R  215   4.550   6.295   4.523
    2SAPS  H20S  216   4.410   6.328   4.618
    2SAPS  H20T  217   4.398   6.209   4.483
    2SAPS   C33  218   4.620   5.946   5.984
    2SAPS   H3X  219   4.622   5.839   5.953
    2SAPS   H3Y  220   4.721   5.981   5.953
    2SAPS   C34  221   4.514   6.011   5.889
    2SAPS   H4X  222   4.493   6.114   5.923
    2SAPS   H4Y  223   4.414   5.964   5.904
    2SAPS   C35  224   4.548   6.001   5.739
    2SAPS   H5X  225   4.525   5.896   5.710
    2SAPS   H5Y  226   4.657   6.021   5.734
    2SAPS   C36  227   4.458   6.085   5.646
    2SAPS   H6X  228   4.475   6.193   5.666
    2SAPS   H6Y  229   4.353   6.075   5.682
    2SAPS   C37  230   4.458   6.063   5.491
    2SAPS   H7X  231   4.431   5.957   5.474
    2SAPS   H7Y  232   4.555   6.079   5.440
    2SAPS   C38  233   4.347   6.141   5.421
    2SAPS   H8X  234   4.355   6.249   5.448
    2SAPS   H8Y  235   4.253   6.106   5.468
    2SAPS   C39  236   4.346   6.117   5.276
    2SAPS   H9X  237   4.265   6.042   5.261
    2SAPS   H9Y  238   4.435   6.067   5.234
    2SAPS  C310  239   4.308   6.240   5.190
    2SAPS  H10X  240   4.395   6.307   5.167
    2SAPS  H10Y  241   4.231   6.286   5.255
    2SAPS  C311  242   4.270   6.204   5.048
    2SAPS  H11X  243   4.180   6.139   5.061
    2SAPS  H11Y  244   4.343   6.134   5.003
    2SAPS  C312  245   4.236   6.326   4.959
    2SAPS  H12X  246   4.320   6.398   4.949
    2SAPS  H12Y  247   4.160   6.389   5.011
    2SAPS  C313  248   4.193   6.284   4.817
    2SAPS  H13X  249   4.266   6.207   4.783
    2SAPS  H13Y  250   4.207   6.375   4.755
    2SAPS  C314  251   4.047   6.238   4.807
    2SAPS  H14X  252   4.010   6.185   4.897
    2SAPS  H14Y  253   4.023   6.178   4.717
    2SAPS  C315  254   3.945   6.359   4.798
    2SAPS  H15X  255   3.973   6.419   4.709
    2SAPS  H15Y  256   3.943   6.414   4.895
    2SAPS  C316  257   3.808   6.301   4.765
    2SAPS  H16X  258   3.772   6.235   4.846
    2SAPS  H16Y  259   3.810   6.246   4.668
    2SAPS  C317  260   3.708   6.418   4.738
    2SAPS  H17X  261   3.633   6.373   4.669
    2SAPS  H17Y  262   3.763   6.495   4.681
    2SAPS  C318  263   3.642   6.471   4.864
    2SAPS  H18X  264   3.555   6.536   4.838
    2SAPS  H18Y  265   3.716   6.519   4.931
    2SAPS  H18Z  266   3.602   6.390   4.928
    3SAPS     N  267   4.540   4.027   6.789
    3SAPS   HN1  268   4.522   3.926   6.807
    3SAPS   HN2  269   4.641   4.032   6.762
    3SAPS   HN3  270   4.528   4.071   6.883
    3SAPS   C12  271   4.435   4.081   6.703
    3SAPS  H12A  272   4.439   4.041   6.603
    3SAPS   C13  273   4.285   4.056   6.739
    3SAPS  O13A  274   4.253   4.019   6.855
    3SAPS  O13B  275   4.194   4.120   6.669
    3SAPS   C11  276   4.449   4.231   6.709
    3SAPS  H11A  277   4.423   4.266   6.811
    3SAPS  H11B  278   4.388   4.295   6.642
    3SAPS     P  279   4.666   4.388   6.742
    3SAPS   O13  280   4.560   4.485   6.785
    3SAPS   O14  281   4.763   4.343   6.845
    3SAPS   O12  282   4.594   4.265   6.675
    3SAPS   O11  283   4.751   4.459   6.625
    3SAPS    C1  284   4.680   4.512   6.513
    3SAPS    HA  285   4.611   4.440   6.464
    3SAPS    HB  286   4.623   4.600   6.549
    3SAPS    C2  287   4.784   4.569   6.410
    3SAPS    HS  288   4.719   4.631   6.344
    3SAPS   O21  289   4.859   4.469   6.339
    3SAPS   C21  290   4.785   4.402   6.250
    3SAPS   O22  291   4.664   4.406   6.229
    3SAPS   C22  292   4.876   4.298   6.180
    3SAPS   H2R  293   4.973   4.282   6.230
    3SAPS   H2S  294   4.824   4.200   6.188
    3SAPS    C3  295   4.889   4.672   6.473
    3SAPS    HX  296   4.950   4.616   6.547
    3SAPS    HY  297   4.821   4.735   6.534
    3SAPS   O31  298   4.976   4.738   6.376
    3SAPS   C31  299   4.910   4.830   6.305
    3SAPS   O32  300   4.790   4.861   6.326
    3SAPS   C32  301   4.993   4.892   6.192
    3SAPS   H2X  302   5.098   4.888   6.225
    3SAPS   H2Y  303   4.945   4.990   6.167
    3SAPS   C23  304   4.890   4.343   6.035
    3SAPS   H3R  305   4.993   4.331   5.995
    3SAPS   H3S  306   4.873   4.452   6.025
    3SAPS   C24  307   4.790   4.284   5.932
    3SAPS   H4R  308   4.684   4.292   5.963
    3SAPS   H4S  309   4.821   4.178   5.918
    3SAPS   C25  310   4.794   4.361   5.800
    3SAPS   H5R  311   4.760   4.465   5.813
    3SAPS   C26  312   4.835   4.331   5.674
    3SAPS   H6R  313   4.837   4.406   5.593
    3SAPS   C27  314   4.891   4.195   5.640
    3SAPS   H7R  315   4.825   4.151   5.563
    3SAPS   H7S  316   4.888   4.126   5.727
    3SAPS   C28  317   5.032   4.215   5.583
    3SAPS   H8R  318   5.105   4.217   5.665
    3SAPS   C29  319   5.065   4.239   5.452
    3SAPS   H9R  320   5.170   4.219   5.428
    3SAPS  C210  321   4.965   4.239   5.334
    3SAPS  H10R  322   4.857   4.249   5.357
    3SAPS  H10S  323   4.977   4.143   5.280
    3SAPS  C211  324   5.023   4.354   5.250
    3SAPS  H11R  325   5.023   4.458   5.286
    3SAPS  C212  326   5.064   4.336   5.125
    3SAPS  H12R  327   5.105   4.427   5.078
    3SAPS  C213  328   5.068   4.219   5.033
    3SAPS  H13R  329   4.995   4.229   4.950
    3SAPS  H13S  330   5.049   4.126   5.091
    3SAPS  C214  331   5.205   4.189   4.985
    3SAPS  H14R  332   5.290   4.163   5.050
    3SAPS  C215  333   5.245   4.188   4.852
    3SAPS  H15R  334   5.353   4.175   4.834
    3SAPS  C216  335   5.169   4.230   4.730
    3SAPS  H16R  336   5.071   4.272   4.762
    3SAPS  H16S  337   5.151   4.138   4.670
    3SAPS  C217  338   5.238   4.341   4.646
    3SAPS  H17R  339   5.339   4.305   4.616
    3SAPS  H17S  340   5.268   4.431   4.704
    3SAPS  C218  341   5.148   4.383   4.525
    3SAPS  H18R  342   5.062   4.418   4.586
    3SAPS  H18S  343   5.122   4.288   4.472
    3SAPS  C219  344   5.209   4.478   4.427
    3SAPS  H19R  345   5.252   4.567   4.478
    3SAPS  H19S  346   5.293   4.430   4.373
    3SAPS  C220  347   5.105   4.531   4.331
    3SAPS  H20R  348   5.016   4.561   4.389
    3SAPS  H20S  349   5.079   4.450   4.259
    3SAPS  H20T  350   5.148   4.621   4.281
    3SAPS   C33  351   5.000   4.799   6.066
    3SAPS   H3X  352   5.015   4.691   6.090
    3SAPS   H3Y  353   5.086   4.832   6.004
    3SAPS   C34  354   4.871   4.826   5.981
    3SAPS   H4X  355   4.853   4.934   5.966
    3SAPS   H4Y  356   4.788   4.799   6.049
    3SAPS   C35  357   4.850   4.735   5.856
    3SAPS   H5X  358   4.890   4.633   5.878
    3SAPS   H5Y  359   4.742   4.714   5.844
    3SAPS   C36  360   4.914   4.811   5.736
    3SAPS   H6X  361   5.025   4.816   5.735
    3SAPS   H6Y  362   4.865   4.910   5.729
    3SAPS   C37  363   4.876   4.729   5.604
    3SAPS   H7X  364   4.770   4.697   5.595
    3SAPS   H7Y  365   4.941   4.640   5.591
    3SAPS   C38  366   4.899   4.816   5.469
    3SAPS   H8X  367   4.970   4.896   5.495
    3SAPS   H8Y  368   4.810   4.867   5.426
    3SAPS   C39  369   4.956   4.733   5.358
    3SAPS   H9X  370   4.877   4.664   5.322
    3SAPS   H9Y  371   5.042   4.673   5.394
    3SAPS  C310  372   4.995   4.813   5.234
    3SAPS  H10X  373   5.051   4.908   5.246
    3SAPS  H10Y  374   4.898   4.853   5.197
    3SAPS  C311  375   5.062   4.724   5.122
    3SAPS  H11X  376   5.038   4.760   5.020
    3SAPS  H11Y  377   5.015   4.624   5.127
    3SAPS  C312  378   5.217   4.711   5.124
    3SAPS  H12X  379   5.227   4.649   5.216
    3SAPS  H12Y  380   5.270   4.809   5.129
    3SAPS  C313  381   5.270   4.635   5.004
    3SAPS  H13X  382   5.203   4.653   4.917
    3SAPS  H13Y  383   5.256   4.525   5.017
    3SAPS  C314  384   5.411   4.680   4.973
    3SAPS  H14X  385   5.474   4.639   5.055
    3SAPS  H14Y  386   5.411   4.791   4.978
    3SAPS  C315  387   5.466   4.626   4.838
    3SAPS  H15X  388   5.402   4.662   4.754
    3SAPS  H15Y  389   5.463   4.515   4.836
    3SAPS  C316  390   5.610   4.664   4.815
    3SAPS  H16X  391   5.690   4.621   4.879
    3SAPS  H16Y  392   5.624   4.770   4.844
    3SAPS  C317  393   5.651   4.620   4.680
    3SAPS  H17X  394   5.629   4.512   4.664
    3SAPS  H17Y  395   5.762   4.625   4.676
    3SAPS  C318  396   5.605   4.699   4.555
    3SAPS  H18X  397   5.619   4.809   4.564
    3SAPS  H18Y  398   5.495   4.685   4.544
    3SAPS  H18Z  399   5.669   4.667   4.471
    4SAPS     N  400   2.080   2.300   7.240
    4SAPS   HN1  401   2.039   2.334   7.151
    4SAPS   HN2  402   2.003   2.271   7.304
    4SAPS   HN3  403   2.127   2.378   7.289
    4SAPS   C12  404   2.187   2.194   7.203
    4SAPS  H12A  405   2.281   2.248   7.201
    4SAPS   C13  406   2.197   2.076   7.294
    4SAPS  O13A  407   2.109   2.056   7.383
    4SAPS  O13B  408   2.299   2.009   7.275
    4SAPS   C11  409   2.162   2.142   7.054
    4SAPS  H11A  410   2.057   2.107   7.051
    4SAPS  H11B  411   2.219   2.052   7.022
    4SAPS     P  412   2.081   2.320   6.880
    4SAPS   O13  413   2.009   2.393   6.990
    4SAPS   O14  414   2.141   2.394   6.769
    4SAPS   O12  415   2.196   2.241   6.949
    4SAPS   O11  416   1.981   2.221   6.809
    4SAPS    C1  417   2.023   2.120   6.712
    4SAPS    HA  418   2.132   2.097   6.701
    4SAPS    HB  419   1.969   2.025   6.734
    4SAPS    C2  420   1.982   2.157   6.566
    4SAPS    HS  421   2.014   2.073   6.501
    4SAPS   O21  422   2.050   2.279   6.525
    4SAPS   C21  423   2.169   2.273   6.495
    4SAPS   O22  424   2.246   2.177   6.499
    4SAPS   C22  425   2.207   2.405   6.426
    4SAPS   H2R  426   2.138   2.441   6.347
    4SAPS   H2S  427   2.221   2.483   6.504
    4SAPS    C3  428   1.829   2.172   6.540
    4SAPS    HX  429   1.785   2.254   6.601
    4SAPS    HY  430   1.787   2.079   6.583
    4SAPS   O31  431   1.789   2.184   6.402
    4SAPS   C31  432   1.776   2.300   6.347
    4SAPS   O32  433   1.783   2.410   6.401
    4SAPS   C32  434   1.753   2.275   6.201
    4SAPS   H2X  435   1.671   2.345   6.172
    4SAPS   H2Y  436   1.706   2.179   6.173
    4SAPS   C23  437   2.352   2.386   6.371
    4SAPS   H3R  438   2.346   2.289   6.319
    4SAPS   H3S  439   2.437   2.379   6.443
    4SAPS   C24  440   2.380   2.480   6.256
    4SAPS   H4R  441   2.490   2.484   6.242
    4SAPS   H4S  442   2.340   2.580   6.281
    4SAPS   C25  443   2.308   2.454   6.126
    4SAPS   H5R  444   2.316   2.350   6.093
    4SAPS   C26  445   2.217   2.529   6.065
    4SAPS   H6R  446   2.174   2.480   5.977
    4SAPS   C27  447   2.188   2.675   6.088
    4SAPS   H7R  448   2.221   2.739   6.003
    4SAPS   H7S  449   2.255   2.721   6.163
    4SAPS   C28  450   2.037   2.701   6.109
    4SAPS   H8R  451   1.990   2.659   6.199
    4SAPS   C29  452   1.957   2.748   6.007
    4SAPS   H9R  453   1.850   2.769   6.026
    4SAPS  C210  454   2.018   2.796   5.870
    4SAPS  H10R  455   1.942   2.787   5.790
    4SAPS  H10S  456   2.091   2.717   5.842
    4SAPS  C211  457   2.079   2.930   5.858
    4SAPS  H11R  458   2.101   2.971   5.957
    4SAPS  C212  459   2.105   3.007   5.744
    4SAPS  H12R  460   2.163   3.098   5.764
    4SAPS  C213  461   2.086   2.966   5.594
    4SAPS  H13R  462   2.052   2.861   5.582
    4SAPS  H13S  463   2.183   2.980   5.542
    4SAPS  C214  464   1.977   3.050   5.525
    4SAPS  H14R  465   1.905   3.099   5.592
    4SAPS  C215  466   1.949   3.050   5.387
    4SAPS  H15R  467   1.872   3.123   5.359
    4SAPS  C216  468   2.037   2.982   5.285
    4SAPS  H16R  469   1.992   2.916   5.208
    4SAPS  H16S  470   2.110   2.917   5.338
    4SAPS  C217  471   2.107   3.095   5.200
    4SAPS  H17R  472   2.165   3.162   5.266
    4SAPS  H17S  473   2.034   3.165   5.152
    4SAPS  C218  474   2.191   3.049   5.078
    4SAPS  H18R  475   2.127   2.988   5.011
    4SAPS  H18S  476   2.271   2.985   5.121
    4SAPS  C219  477   2.237   3.161   4.999
    4SAPS  H19R  478   2.304   3.217   5.068
    4SAPS  H19S  479   2.152   3.224   4.966
    4SAPS  C220  480   2.303   3.122   4.863
    4SAPS  H20R  481   2.386   3.056   4.896
    4SAPS  H20S  482   2.335   3.216   4.812
    4SAPS  H20T  483   2.230   3.062   4.805
    4SAPS   C33  484   1.876   2.300   6.100
    4SAPS   H3X  485   1.941   2.210   6.107
    4SAPS   H3Y  486   1.949   2.378   6.130
    4SAPS   C34  487   1.821   2.328   5.965
    4SAPS   H4X  488   1.755   2.417   5.976
    4SAPS   H4Y  489   1.754   2.245   5.936
    4SAPS   C35  490   1.929   2.343   5.858
    4SAPS   H5X  491   1.996   2.254   5.863
    4SAPS   H5Y  492   1.992   2.432   5.881
    4SAPS   C36  493   1.873   2.360   5.718
    4SAPS   H6X  494   1.799   2.280   5.697
    4SAPS   H6Y  495   1.959   2.336   5.653
    4SAPS   C37  496   1.810   2.497   5.690
    4SAPS   H7X  497   1.846   2.566   5.769
    4SAPS   H7Y  498   1.700   2.510   5.699
    4SAPS   C38  499   1.849   2.554   5.550
    4SAPS   H8X  500   1.957   2.531   5.537
    4SAPS   H8Y  501   1.839   2.663   5.530
    4SAPS   C39  502   1.776   2.464   5.447
    4SAPS   H9X  503   1.678   2.510   5.423
    4SAPS   H9Y  504   1.760   2.368   5.500
    4SAPS  C310  505   1.851   2.466   5.305
    4SAPS  H10X  506   1.961   2.451   5.310
    4SAPS  H10Y  507   1.839   2.563   5.253
    4SAPS  C311  508   1.792   2.378   5.199
    4SAPS  H11X  509   1.687   2.407   5.179
    4SAPS  H11Y  510   1.798   2.272   5.232
    4SAPS  C312  511   1.872   2.404   5.065
    4SAPS  H12X  512   1.977   2.377   5.089
    4SAPS  H12Y  513   1.866   2.514   5.049
    4SAPS  C313  514   1.825   2.332   4.943
    4SAPS  H13X  515   1.716   2.352   4.932
    4SAPS  H13Y  516   1.849   2.223   4.944
    4SAPS  C314  517   1.900   2.386   4.821
    4SAPS  H14X  518   2.009   2.387   4.842
    4SAPS  H14Y  519   1.875   2.493   4.802
    4SAPS  C315  520   1.876   2.298   4.702
    4SAPS  H15X  521   1.766   2.293   4.693
    4SAPS  H15Y  522   1.905   2.193   4.721
    4SAPS  C316  523   1.949   2.348   4.581
    4SAPS  H16X  524   2.059   2.332   4.585
    4SAPS  H16Y  525   1.932   2.457   4.567
    4SAPS  C317  526   1.887   2.291   4.452
    4SAPS  H17X  527   1.783   2.329   4.448
    4SAPS  H17Y  528   1.893   2.181   4.458
    4SAPS  C318  529   1.982   2.338   4.335
    4SAPS  H18X  530   1.946   2.309   4.235
    4SAPS  H18Y  531   2.076   2.287   4.365
    4SAPS  H18Z  532   2.000   2.448   4.335
    5SAPS     N  533   5.144   4.632   6.923
    5SAPS   HN1  534   5.061   4.573   6.945
    5SAPS   HN2  535   5.213   4.558   6.901
    5SAPS   HN3  536   5.171   4.705   6.992
    5SAPS   C12  537   5.114   4.695   6.787
    5SAPS  H12A  538   5.063   4.622   6.726
    5SAPS   C13  539   5.023   4.819   6.806
    5SAPS  O13A  540   4.982   4.855   6.919
    5SAPS  O13B  541   4.995   4.882   6.706
    5SAPS   C11  542   5.240   4.743   6.716
    5SAPS  H11A  543   5.270   4.832   6.776
    5SAPS  H11B  544   5.210   4.766   6.612
    5SAPS     P  545   5.481   4.671   6.653
    5SAPS   O13  546   5.516   4.821   6.653
    5SAPS   O14  547   5.575   4.575   6.720
    5SAPS   O12  548   5.342   4.645   6.724
    5SAPS   O11  549   5.464   4.635   6.497
    5SAPS    C1  550   5.336   4.596   6.443
    5SAPS    HA  551   5.289   4.517   6.505
    5SAPS    HB  552   5.271   4.685   6.426
    5SAPS    C2  553   5.350   4.511   6.309
    5SAPS    HS  554   5.428   4.435   6.334
    5SAPS   O21  555   5.402   4.603   6.212
    5SAPS   C21  556   5.474   4.551   6.110
    5SAPS   O22  557   5.540   4.448   6.111
    5SAPS   C22  558   5.454   4.659   6.001
    5SAPS   H2R  559   5.350   4.694   5.985
    5SAPS   H2S  560   5.505   4.751   6.036
    5SAPS    C3  561   5.216   4.461   6.262
    5SAPS    HX  562   5.156   4.555   6.263
    5SAPS    HY  563   5.161   4.408   6.343
    5SAPS   O31  564   5.216   4.390   6.135
    5SAPS   C31  565   5.253   4.264   6.157
    5SAPS   O32  566   5.293   4.217   6.265
    5SAPS   C32  567   5.255   4.197   6.022
    5SAPS   H2X  568   5.356   4.199   5.975
    5SAPS   H2Y  569   5.189   4.250   5.950
    5SAPS   C23  570   5.528   4.615   5.868
    5SAPS   H3R  571   5.620   4.557   5.890
    5SAPS   H3S  572   5.554   4.708   5.811
    5SAPS   C24  573   5.444   4.537   5.765
    5SAPS   H4R  574   5.431   4.429   5.788
    5SAPS   H4S  575   5.506   4.524   5.673
    5SAPS   C25  576   5.311   4.597   5.726
    5SAPS   H5R  577   5.235   4.621   5.802
    5SAPS   C26  578   5.267   4.620   5.605
    5SAPS   H6R  579   5.165   4.661   5.601
    5SAPS   C27  580   5.343   4.599   5.478
    5SAPS   H7R  581   5.274   4.582   5.393
    5SAPS   H7S  582   5.412   4.512   5.476
    5SAPS   C28  583   5.440   4.712   5.435
    5SAPS   H8R  584   5.413   4.810   5.476
    5SAPS   C29  585   5.549   4.703   5.356
    5SAPS   H9R  586   5.605   4.798   5.353
    5SAPS  C210  587   5.605   4.575   5.305
    5SAPS  H10R  588   5.544   4.544   5.218
    5SAPS  H10S  589   5.590   4.488   5.372
    5SAPS  C211  590   5.752   4.602   5.260
    5SAPS  H11R  591   5.765   4.599   5.151
    5SAPS  C212  592   5.856   4.634   5.336
    5SAPS  H12R  593   5.961   4.651   5.306
    5SAPS  C213  594   5.837   4.645   5.485
    5SAPS  H13R  595   5.738   4.619   5.528
    5SAPS  H13S  596   5.869   4.748   5.509
    5SAPS  C214  597   5.937   4.549   5.552
    5SAPS  H14R  598   5.930   4.441   5.535
    5SAPS  C215  599   6.028   4.575   5.648
    5SAPS  H15R  600   6.091   4.492   5.682
    5SAPS  C216  601   6.056   4.707   5.706
    5SAPS  H16R  602   6.052   4.785   5.627
    5SAPS  H16S  603   6.155   4.707   5.758
    5SAPS  C217  604   5.949   4.718   5.815
    5SAPS  H17R  605   5.978   4.643   5.891
    5SAPS  H17S  606   5.850   4.691   5.772
    5SAPS  C218  607   5.939   4.858   5.883
    5SAPS  H18R  608   5.829   4.873   5.887
    5SAPS  H18S  609   5.971   4.946   5.822
    5SAPS  C219  610   5.996   4.864   6.029
    5SAPS  H19R  611   6.104   4.891   6.028
    5SAPS  H19S  612   5.985   4.760   6.065
    5SAPS  C220  613   5.927   4.974   6.111
    5SAPS  H20R  614   5.935   5.075   6.063
    5SAPS  H20S  615   5.964   4.972   6.215
    5SAPS  H20T  616   5.818   4.957   6.112
    5SAPS   C33  617   5.214   4.053   6.040
    5SAPS   H3X  618   5.112   4.054   6.084
    5SAPS   H3Y  619   5.286   4.004   6.109
    5SAPS   C34  620   5.192   3.973   5.905
    5SAPS   H4X  621   5.206   4.034   5.813
    5SAPS   H4Y  622   5.094   3.920   5.898
    5SAPS   C35  623   5.284   3.850   5.901
    5SAPS   H5X  624   5.266   3.777   5.983
    5SAPS   H5Y  625   5.385   3.895   5.915
    5SAPS   C36  626   5.286   3.770   5.768
    5SAPS   H6X  627   5.308   3.847   5.691
    5SAPS   H6Y  628   5.182   3.731   5.755
    5SAPS   C37  629   5.380   3.643   5.753
    5SAPS   H7X  630   5.318   3.551   5.760
    5SAPS   H7Y  631   5.443   3.655   5.843
    5SAPS   C38  632   5.458   3.651   5.625
    5SAPS   H8X  633   5.524   3.561   5.627
    5SAPS   H8Y  634   5.524   3.740   5.635
    5SAPS   C39  635   5.372   3.644   5.505
    5SAPS   H9X  636   5.276   3.695   5.531
    5SAPS   H9Y  637   5.347   3.538   5.485
    5SAPS  C310  638   5.440   3.704   5.382
    5SAPS  H10X  639   5.540   3.655   5.380
    5SAPS  H10Y  640   5.456   3.814   5.380
    5SAPS  C311  641   5.379   3.680   5.246
    5SAPS  H11X  642   5.299   3.754   5.227
    5SAPS  H11Y  643   5.323   3.586   5.263
    5SAPS  C312  644   5.481   3.673   5.129
    5SAPS  H12X  645   5.522   3.570   5.122
    5SAPS  H12Y  646   5.569   3.742   5.132
    5SAPS  C313  647   5.411   3.721   5.001
    5SAPS  H13X  648   5.378   3.823   5.029
    5SAPS  H13Y  649   5.323   3.656   4.982
    5SAPS  C314  650   5.495   3.734   4.879
    5SAPS  H14X  651   5.549   3.645   4.842
    5SAPS  H14Y  652   5.578   3.807   4.891
    5SAPS  C315  653   5.412   3.795   4.759
    5SAPS  H15X  654   5.352   3.871   4.814
    5SAPS  H15Y  655   5.337   3.735   4.703
    5SAPS  C316  656   5.505   3.857   4.650
    5SAPS  H16X  657   5.581   3.778   4.634
    5SAPS  H16Y  658   5.558   3.945   4.693
    5SAPS  C317  659   5.460   3.885   4.507
    5SAPS  H17X  660   5.383   3.965   4.512
    5SAPS  H17Y  661   5.413   3.796   4.462
    5SAPS  C318  662   5.571   3.927   4.411
    5SAPS  H18X  663   5.520   3.933   4.313
    5SAPS  H18Y  664   5.635   3.837   4.403
    5SAPS  H18Z  665   5.630   4.019   4.431
    6SAPS     N  666   2.948   4.337   6.867
    6SAPS   HN1  667   2.908   4.246   6.898
    6SAPS   HN2  668   2.937   4.410   6.941
    6SAPS   HN3  669   2.894   4.366   6.784
    6SAPS   C12  670   3.086   4.305   6.832
    6SAPS  H12A  671   3.137   4.390   6.789
    6SAPS   C13  672   3.176   4.256   6.946
    6SAPS  O13A  673   3.130   4.239   7.064
    6SAPS  O13B  674   3.302   4.257   6.927
    6SAPS   C11  675   3.082   4.195   6.726
    6SAPS  H11A  676   3.182   4.156   6.697
    6SAPS  H11B  677   3.047   4.254   6.639
    6SAPS     P  678   2.991   3.949   6.699
    6SAPS   O13  679   3.078   3.859   6.782
    6SAPS   O14  680   2.850   3.904   6.687
    6SAPS   O12  681   2.989   4.094   6.760
    6SAPS   O11  682   3.053   3.967   6.558
    6SAPS    C1  683   3.185   3.920   6.528
    6SAPS    HA  684   3.262   3.949   6.603
    6SAPS    HB  685   3.182   3.810   6.511
    6SAPS    C2  686   3.227   3.995   6.395
    6SAPS    HS  687   3.320   3.954   6.350
    6SAPS   O21  688   3.252   4.130   6.417
    6SAPS   C21  689   3.356   4.195   6.349
    6SAPS   O22  690   3.436   4.138   6.279
    6SAPS   C22  691   3.344   4.350   6.362
    6SAPS   H2R  692   3.433   4.378   6.422
    6SAPS   H2S  693   3.350   4.384   6.256
    6SAPS    C3  694   3.118   3.996   6.276
    6SAPS    HX  695   3.035   4.041   6.335
    6SAPS    HY  696   3.094   3.892   6.245
    6SAPS   O31  697   3.148   4.082   6.165
    6SAPS   C31  698   3.222   4.017   6.079
    6SAPS   O32  699   3.247   3.899   6.077
    6SAPS   C32  700   3.261   4.112   5.968
    6SAPS   H2X  701   3.369   4.104   5.943
    6SAPS   H2Y  702   3.266   4.210   6.019
    6SAPS   C23  703   3.221   4.406   6.438
    6SAPS   H3R  704   3.236   4.375   6.544
    6SAPS   H3S  705   3.122   4.359   6.423
    6SAPS   C24  706   3.218   4.562   6.447
    6SAPS   H4R  707   3.207   4.605   6.345
    6SAPS   H4S  708   3.318   4.601   6.475
    6SAPS   C25  709   3.116   4.619   6.546
    6SAPS   H5R  710   3.131   4.608   6.654
    6SAPS   C26  711   3.001   4.674   6.508
    6SAPS   H6R  712   2.935   4.718   6.585
    6SAPS   C27  713   2.947   4.674   6.367
    6SAPS   H7R  714   2.848   4.623   6.365
    6SAPS   H7S  715   3.017   4.617   6.303
    6SAPS   C28  716   2.919   4.806   6.292
    6SAPS   H8R  717   2.889   4.886   6.361
    6SAPS   C29  718   2.918   4.835   6.161
    6SAPS   H9R  719   2.910   4.937   6.121
    6SAPS  C210  720   2.941   4.734   6.044
    6SAPS  H10R  721   2.974   4.636   6.085
    6SAPS  H10S  722   3.024   4.768   5.980
    6SAPS  C211  723   2.816   4.723   5.965
    6SAPS  H11R  724   2.749   4.641   5.996
    6SAPS  C212  725   2.794   4.799   5.859
    6SAPS  H12R  726   2.708   4.775   5.794
    6SAPS  C213  727   2.886   4.900   5.796
    6SAPS  H13R  728   2.963   4.852   5.732
    6SAPS  H13S  729   2.946   4.952   5.874
    6SAPS  C214  730   2.817   5.011   5.724
    6SAPS  H14R  731   2.787   5.092   5.792
    6SAPS  C215  732   2.824   5.045   5.591
    6SAPS  H15R  733   2.758   5.124   5.551
    6SAPS  C216  734   2.895   4.958   5.488
    6SAPS  H16R  735   2.829   4.923   5.406
    6SAPS  H16S  736   2.935   4.865   5.532
    6SAPS  C217  737   3.015   5.037   5.426
    6SAPS  H17R  738   3.090   5.057   5.505
    6SAPS  H17S  739   2.985   5.139   5.393
    6SAPS  C218  740   3.086   4.971   5.320
    6SAPS  H18R  741   3.127   4.874   5.356
    6SAPS  H18S  742   3.170   5.037   5.292
    6SAPS  C219  743   2.997   4.938   5.194
    6SAPS  H19R  744   2.918   5.016   5.181
    6SAPS  H19S  745   2.939   4.844   5.204
    6SAPS  C220  746   3.071   4.934   5.066
    6SAPS  H20R  747   3.155   4.863   5.083
    6SAPS  H20S  748   3.131   5.025   5.041
    6SAPS  H20T  749   3.010   4.889   4.985
    6SAPS   C33  750   3.167   4.099   5.851
    6SAPS   H3X  751   3.198   4.176   5.776
    6SAPS   H3Y  752   3.062   4.104   5.887
    6SAPS   C34  753   3.189   3.955   5.778
    6SAPS   H4X  754   3.113   3.883   5.818
    6SAPS   H4Y  755   3.288   3.912   5.805
    6SAPS   C35  756   3.194   3.962   5.625
    6SAPS   H5X  757   3.265   4.036   5.583
    6SAPS   H5Y  758   3.090   3.994   5.601
    6SAPS   C36  759   3.212   3.814   5.573
    6SAPS   H6X  760   3.162   3.752   5.650
    6SAPS   H6Y  761   3.318   3.782   5.576
    6SAPS   C37  762   3.153   3.778   5.438
    6SAPS   H7X  763   3.050   3.818   5.436
    6SAPS   H7Y  764   3.139   3.669   5.428
    6SAPS   C38  765   3.218   3.849   5.318
    6SAPS   H8X  766   3.312   3.791   5.305
    6SAPS   H8Y  767   3.240   3.956   5.338
    6SAPS   C39  768   3.136   3.852   5.184
    6SAPS   H9X  769   3.042   3.908   5.199
    6SAPS   H9Y  770   3.112   3.746   5.161
    6SAPS  C310  771   3.210   3.921   5.058
    6SAPS  H10X  772   3.296   3.857   5.029
    6SAPS  H10Y  773   3.255   4.017   5.089
    6SAPS  C311  774   3.102   3.948   4.951
    6SAPS  H11X  775   3.033   4.030   4.982
    6SAPS  H11Y  776   3.049   3.851   4.961
    6SAPS  C312  777   3.168   3.971   4.815
    6SAPS  H12X  778   3.247   3.895   4.798
    6SAPS  H12Y  779   3.209   4.073   4.828
    6SAPS  C313  780   3.076   3.980   4.687
    6SAPS  H13X  781   3.025   3.882   4.678
    6SAPS  H13Y  782   3.145   4.008   4.604
    6SAPS  C314  783   2.972   4.090   4.707
    6SAPS  H14X  784   3.030   4.181   4.732
    6SAPS  H14Y  785   2.891   4.062   4.778
    6SAPS  C315  786   2.903   4.121   4.571
    6SAPS  H15X  787   2.843   4.032   4.545
    6SAPS  H15Y  788   2.982   4.135   4.494
    6SAPS  C316  789   2.813   4.243   4.570
    6SAPS  H16X  790   2.874   4.334   4.588
    6SAPS  H16Y  791   2.735   4.228   4.647
    6SAPS  C317  792   2.747   4.255   4.436
    6SAPS  H17X  793   2.664   4.182   4.423
    6SAPS  H17Y  794   2.816   4.232   4.352
    6SAPS  C318  795   2.685   4.394   4.411
    6SAPS  H18X  796   2.666   4.404   4.301
    6SAPS  H18Y  797   2.744   4.481   4.446
    6SAPS  H18Z  798   2.587   4.403   4.462
    7SAPS     N  799   2.821   0.633   6.563
    7SAPS   HN1  800   2.725   0.601   6.539
    7SAPS   HN2  801   2.810   0.713   6.628
    7SAPS   HN3  802   2.876   0.662   6.479
    7SAPS   C12  803   2.881   0.515   6.624
    7SAPS  H12A  804   2.985   0.540   6.640
    7SAPS   C13  805   2.828   0.493   6.770
    7SAPS  O13A  806   2.736   0.560   6.819
    7SAPS  O13B  807   2.893   0.413   6.838
    7SAPS   C11  808   2.860   0.395   6.534
    7SAPS  H11A  809   2.754   0.373   6.511
    7SAPS  H11B  810   2.902   0.300   6.573
    7SAPS     P  811   3.060   0.367   6.349
    7SAPS   O13  812   3.163   0.420   6.441
    7SAPS   O14  813   3.058   0.219   6.325
    7SAPS   O12  814   2.918   0.421   6.405
    7SAPS   O11  815   3.080   0.445   6.213
    7SAPS    C1  816   2.976   0.425   6.113
    7SAPS    HA  817   2.873   0.418   6.154
    7SAPS    HB  818   2.966   0.523   6.061
    7SAPS    C2  819   3.012   0.308   6.015
    7SAPS    HS  820   3.042   0.217   6.071
    7SAPS   O21  821   3.111   0.350   5.918
    7SAPS   C21  822   3.178   0.250   5.867
    7SAPS   O22  823   3.161   0.128   5.884
    7SAPS   C22  824   3.297   0.314   5.800
    7SAPS   H2R  825   3.257   0.409   5.759
    7SAPS   H2S  826   3.378   0.320   5.875
    7SAPS    C3  827   2.877   0.264   5.938
    7SAPS    HX  828   2.800   0.237   6.013
    7SAPS    HY  829   2.888   0.166   5.887
    7SAPS   O31  830   2.822   0.364   5.850
    7SAPS   C31  831   2.876   0.358   5.723
    7SAPS   O32  832   2.962   0.284   5.692
    7SAPS   C32  833   2.815   0.462   5.630
    7SAPS   H2X  834   2.868   0.558   5.651
    7SAPS   H2Y  835   2.708   0.484   5.650
    7SAPS   C23  836   3.351   0.226   5.682
    7SAPS   H3R  837   3.381   0.123   5.709
    7SAPS   H3S  838   3.438   0.284   5.644
    7SAPS   C24  839   3.255   0.203   5.566
    7SAPS   H4R  840   3.166   0.149   5.604
    7SAPS   H4S  841   3.308   0.136   5.496
    7SAPS   C25  842   3.219   0.328   5.490
    7SAPS   H5R  843   3.126   0.373   5.528
    7SAPS   C26  844   3.277   0.372   5.375
    7SAPS   H6R  845   3.227   0.460   5.333
    7SAPS   C27  846   3.385   0.318   5.294
    7SAPS   H7R  847   3.417   0.214   5.318
    7SAPS   H7S  848   3.464   0.391   5.322
    7SAPS   C28  849   3.372   0.315   5.145
    7SAPS   H8R  850   3.292   0.254   5.100
    7SAPS   C29  851   3.439   0.382   5.055
    7SAPS   H9R  852   3.427   0.352   4.950
    7SAPS  C210  853   3.548   0.482   5.088
    7SAPS  H10R  854   3.547   0.516   5.194
    7SAPS  H10S  855   3.535   0.573   5.026
    7SAPS  C211  856   3.693   0.433   5.065
    7SAPS  H11R  857   3.725   0.353   5.133
    7SAPS  C212  858   3.761   0.448   4.950
    7SAPS  H12R  859   3.860   0.407   4.927
    7SAPS  C213  860   3.722   0.547   4.840
    7SAPS  H13R  861   3.817   0.573   4.789
    7SAPS  H13S  862   3.685   0.634   4.897
    7SAPS  C214  863   3.615   0.495   4.745
    7SAPS  H14R  864   3.569   0.399   4.769
    7SAPS  C215  865   3.550   0.569   4.648
    7SAPS  H15R  866   3.485   0.523   4.573
    7SAPS  C216  867   3.591   0.708   4.605
    7SAPS  H16R  868   3.652   0.763   4.679
    7SAPS  H16S  869   3.500   0.770   4.589
    7SAPS  C217  870   3.680   0.724   4.483
    7SAPS  H17R  871   3.770   0.660   4.479
    7SAPS  H17S  872   3.721   0.827   4.482
    7SAPS  C218  873   3.611   0.709   4.355
    7SAPS  H18R  874   3.523   0.774   4.341
    7SAPS  H18S  875   3.579   0.603   4.349
    7SAPS  C219  876   3.716   0.727   4.241
    7SAPS  H19R  877   3.798   0.658   4.270
    7SAPS  H19S  878   3.763   0.827   4.255
    7SAPS  C220  879   3.667   0.690   4.100
    7SAPS  H20R  880   3.587   0.762   4.072
    7SAPS  H20S  881   3.631   0.585   4.093
    7SAPS  H20T  882   3.754   0.707   4.033
    7SAPS   C33  883   2.834   0.432   5.477
    7SAPS   H3X  884   2.736   0.402   5.434
    7SAPS   H3Y  885   2.908   0.351   5.464
    7SAPS   C34  886   2.871   0.557   5.393
    7SAPS   H4X  887   2.951   0.608   5.451
    7SAPS   H4Y  888   2.790   0.633   5.394
    7SAPS   C35  889   2.909   0.532   5.248
    7SAPS   H5X  890   3.014   0.497   5.247
    7SAPS   H5Y  891   2.897   0.627   5.192
    7SAPS   C36  892   2.822   0.424   5.179
    7SAPS   H6X  893   2.713   0.436   5.200
    7SAPS   H6Y  894   2.855   0.321   5.203
    7SAPS   C37  895   2.843   0.425   5.027
    7SAPS   H7X  896   2.796   0.515   4.982
    7SAPS   H7Y  897   2.791   0.337   4.982
    7SAPS   C38  898   2.994   0.430   4.988
    7SAPS   H8X  899   3.036   0.347   5.049
    7SAPS   H8Y  900   3.039   0.527   5.016
    7SAPS   C39  901   3.027   0.384   4.844
    7SAPS   H9X  902   2.959   0.423   4.765
    7SAPS   H9Y  903   3.016   0.274   4.838
    7SAPS  C310  904   3.170   0.423   4.803
    7SAPS  H10X  905   3.235   0.411   4.893
    7SAPS  H10Y  906   3.171   0.530   4.772
    7SAPS  C311  907   3.219   0.336   4.688
    7SAPS  H11X  908   3.172   0.235   4.689
    7SAPS  H11Y  909   3.327   0.318   4.707
    7SAPS  C312  910   3.205   0.391   4.548
    7SAPS  H12X  911   3.258   0.488   4.534
    7SAPS  H12Y  912   3.096   0.414   4.541
    7SAPS  C313  913   3.246   0.286   4.442
    7SAPS  H13X  914   3.226   0.185   4.484
    7SAPS  H13Y  915   3.356   0.288   4.427
    7SAPS  C314  916   3.187   0.320   4.302
    7SAPS  H14X  917   3.080   0.345   4.319
    7SAPS  H14Y  918   3.205   0.233   4.236
    7SAPS  C315  919   3.259   0.429   4.227
    7SAPS  H15X  920   3.367   0.404   4.218
    7SAPS  H15Y  921   3.252   0.523   4.285
    7SAPS  C316  922   3.198   0.455   4.086
    7SAPS  H16X  923   3.092   0.487   4.093
    7SAPS  H16Y  924   3.192   0.360   4.028
    7SAPS  C317  925   3.289   0.545   4.005
    7SAPS  H17X  926   3.397   0.530   4.030
    7SAPS  H17Y  927   3.273   0.653   4.026
    7SAPS  C318  928   3.268   0.538   3.843
    7SAPS  H18X  929   3.160   0.527   3.818
    7SAPS  H18Y  930   3.326   0.450   3.810
    7SAPS  H18Z  931   3.298   0.635   3.799
    8SAPS     N  932   1.904   1.366   6.936
    8SAPS   HN1  933   1.824   1.306   6.909
    8SAPS   HN2  934   1.886   1.468   6.929
    8SAPS   HN3  935   1.983   1.349   6.870
    8SAPS   C12  936   1.957   1.335   7.075
    8SAPS  H12A  937   2.015   1.421   7.105
    8SAPS   C13  938   1.854   1.303   7.182
    8SAPS  O13A  939   1.734   1.308   7.153
    8SAPS  O13B  940   1.889   1.316   7.300
    8SAPS   C11  941   2.053   1.226   7.038
    8SAPS  H11A  942   1.992   1.151   6.983
    8SAPS  H11B  943   2.089   1.171   7.128
    8SAPS     P  944   2.273   1.189   6.891
    8SAPS   O13  945   2.371   1.155   6.993
    8SAPS   O14  946   2.205   1.078   6.816
    8SAPS   O12  947   2.160   1.281   6.960
    8SAPS   O11  948   2.340   1.285   6.788
    8SAPS    C1  949   2.424   1.395   6.832
    8SAPS    HA  950   2.354   1.476   6.863
    8SAPS    HB  951   2.487   1.365   6.918
    8SAPS    C2  952   2.518   1.450   6.724
    8SAPS    HS  953   2.457   1.495   6.643
    8SAPS   O21  954   2.607   1.344   6.683
    8SAPS   C21  955   2.625   1.345   6.554
    8SAPS   O22  956   2.592   1.430   6.472
    8SAPS   C22  957   2.703   1.222   6.513
    8SAPS   H2R  958   2.780   1.207   6.592
    8SAPS   H2S  959   2.639   1.132   6.525
    8SAPS    C3  960   2.598   1.571   6.784
    8SAPS    HX  961   2.659   1.523   6.863
    8SAPS    HY  962   2.532   1.647   6.831
    8SAPS   O31  963   2.679   1.632   6.675
    8SAPS   C31  964   2.803   1.610   6.675
    8SAPS   O32  965   2.867   1.529   6.742
    8SAPS   C32  966   2.865   1.693   6.564
    8SAPS   H2X  967   2.971   1.711   6.594
    8SAPS   H2Y  968   2.813   1.791   6.554
    8SAPS   C23  969   2.757   1.226   6.367
    8SAPS   H3R  970   2.830   1.310   6.364
    8SAPS   H3S  971   2.671   1.241   6.297
    8SAPS   C24  972   2.821   1.099   6.317
    8SAPS   H4R  973   2.910   1.061   6.372
    8SAPS   H4S  974   2.868   1.130   6.221
    8SAPS   C25  975   2.725   0.985   6.294
    8SAPS   H5R  976   2.657   0.965   6.378
    8SAPS   C26  977   2.727   0.901   6.189
    8SAPS   H6R  978   2.645   0.832   6.165
    8SAPS   C27  979   2.816   0.924   6.064
    8SAPS   H7R  980   2.916   0.957   6.097
    8SAPS   H7S  981   2.762   1.006   6.011
    8SAPS   C28  982   2.831   0.800   5.977
    8SAPS   H8R  983   2.806   0.706   6.029
    8SAPS   C29  984   2.891   0.796   5.860
    8SAPS   H9R  985   2.885   0.707   5.797
    8SAPS  C210  986   2.944   0.923   5.792
    8SAPS  H10R  987   3.029   0.900   5.724
    8SAPS  H10S  988   2.991   0.994   5.863
    8SAPS  C211  989   2.827   0.991   5.721
    8SAPS  H11R  990   2.774   1.076   5.768
    8SAPS  C212  991   2.791   0.981   5.591
    8SAPS  H12R  992   2.718   1.054   5.554
    8SAPS  C213  993   2.852   0.893   5.484
    8SAPS  H13R  994   2.768   0.851   5.424
    8SAPS  H13S  995   2.913   0.808   5.522
    8SAPS  C214  996   2.950   0.964   5.396
    8SAPS  H14R  997   3.053   0.965   5.434
    8SAPS  C215  998   2.927   1.014   5.268
    8SAPS  H15R  999   3.017   1.046   5.212
    8SAPS  C216 1000   2.809   0.995   5.176
    8SAPS  H16R 1001   2.714   0.965   5.226
    8SAPS  H16S 1002   2.830   0.924   5.093
    8SAPS  C217 1003   2.794   1.124   5.089
    8SAPS  H17R 1004   2.892   1.173   5.069
    8SAPS  H17S 1005   2.743   1.204   5.148
    8SAPS  C218 1006   2.715   1.102   4.963
    8SAPS  H18R 1007   2.609   1.078   4.987
    8SAPS  H18S 1008   2.757   1.019   4.902
    8SAPS  C219 1009   2.700   1.228   4.878
    8SAPS  H19R 1010   2.802   1.268   4.857
    8SAPS  H19S 1011   2.652   1.306   4.941
    8SAPS  C220 1012   2.602   1.221   4.759
    8SAPS  H20R 1013   2.575   1.320   4.718
    8SAPS  H20S 1014   2.508   1.167   4.784
    8SAPS  H20T 1015   2.648   1.156   4.680
    8SAPS   C33 1016   2.866   1.625   6.422
    8SAPS   H3X 1017   2.763   1.606   6.385
    8SAPS   H3Y 1018   2.904   1.521   6.424
    8SAPS   C34 1019   2.959   1.697   6.316
    8SAPS   H4X 1020   3.058   1.711   6.365
    8SAPS   H4Y 1021   2.916   1.798   6.303
    8SAPS   C35 1022   2.971   1.613   6.194
    8SAPS   H5X 1023   2.992   1.504   6.204
    8SAPS   H5Y 1024   3.064   1.647   6.144
    8SAPS   C36 1025   2.855   1.626   6.092
    8SAPS   H6X 1026   2.834   1.734   6.073
    8SAPS   H6Y 1027   2.756   1.596   6.133
    8SAPS   C37 1028   2.892   1.571   5.955
    8SAPS   H7X 1029   2.906   1.462   5.976
    8SAPS   H7Y 1030   2.981   1.627   5.919
    8SAPS   C38 1031   2.770   1.595   5.863
    8SAPS   H8X 1032   2.769   1.704   5.840
    8SAPS   H8Y 1033   2.691   1.560   5.932
    8SAPS   C39 1034   2.777   1.514   5.734
    8SAPS   H9X 1035   2.680   1.526   5.682
    8SAPS   H9Y 1036   2.791   1.410   5.771
    8SAPS  C310 1037   2.890   1.547   5.648
    8SAPS  H10X 1038   2.888   1.463   5.576
    8SAPS  H10Y 1039   2.988   1.554   5.699
    8SAPS  C311 1040   2.876   1.678   5.566
    8SAPS  H11X 1041   2.966   1.672   5.500
    8SAPS  H11Y 1042   2.889   1.757   5.643
    8SAPS  C312 1043   2.747   1.699   5.485
    8SAPS  H12X 1044   2.758   1.804   5.451
    8SAPS  H12Y 1045   2.650   1.701   5.540
    8SAPS  C313 1046   2.733   1.606   5.361
    8SAPS  H13X 1047   2.640   1.631   5.306
    8SAPS  H13Y 1048   2.720   1.503   5.401
    8SAPS  C314 1049   2.850   1.613   5.269
    8SAPS  H14X 1050   2.936   1.552   5.305
    8SAPS  H14Y 1051   2.889   1.716   5.254
    8SAPS  C315 1052   2.825   1.546   5.135
    8SAPS  H15X 1053   2.716   1.536   5.113
    8SAPS  H15Y 1054   2.885   1.455   5.113
    8SAPS  C316 1055   2.855   1.659   5.028
    8SAPS  H16X 1056   2.960   1.693   5.045
    8SAPS  H16Y 1057   2.793   1.746   5.055
    8SAPS  C317 1058   2.813   1.610   4.884
    8SAPS  H17X 1059   2.703   1.597   4.871
    8SAPS  H17Y 1060   2.860   1.510   4.872
    8SAPS  C318 1061   2.858   1.705   4.769
    8SAPS  H18X 1062   2.969   1.703   4.772
    8SAPS  H18Y 1063   2.808   1.801   4.794
    8SAPS  H18Z 1064   2.820   1.679   4.668
    9SAPS     N 1065   1.390   4.702   6.913
    9SAPS   HN1 1066   1.480   4.732   6.871
    9SAPS   HN2 1067   1.322   4.780   6.899
    9SAPS   HN3 1068   1.410   4.684   7.014
    9SAPS   C12 1069   1.329   4.581   6.859
    9SAPS  H12A 1070   1.375   4.491   6.897
    9SAPS   C13 1071   1.176   4.569   6.892
    9SAPS  O13A 1072   1.126   4.655   6.959
    9SAPS  O13B 1073   1.108   4.478   6.844
    9SAPS   C11 1074   1.351   4.589   6.707
    9SAPS  H11A 1075   1.287   4.667   6.663
    9SAPS  H11B 1076   1.321   4.495   6.656
    9SAPS     P 1077   1.532   4.732   6.587
    9SAPS   O13 1078   1.490   4.848   6.667
    9SAPS   O14 1079   1.679   4.720   6.545
    9SAPS   O12 1080   1.485   4.609   6.671
    9SAPS   O11 1081   1.451   4.715   6.459
    9SAPS    C1 1082   1.447   4.597   6.377
    9SAPS    HA 1083   1.467   4.506   6.439
    9SAPS    HB 1084   1.339   4.577   6.355
    9SAPS    C2 1085   1.518   4.621   6.245
    9SAPS    HS 1086   1.625   4.640   6.268
    9SAPS   O21 1087   1.445   4.716   6.170
    9SAPS   C21 1088   1.518   4.826   6.158
    9SAPS   O22 1089   1.619   4.857   6.220
    9SAPS   C22 1090   1.456   4.920   6.059
    9SAPS   H2R 1091   1.346   4.925   6.073
    9SAPS   H2S 1092   1.498   5.022   6.075
    9SAPS    C3 1093   1.520   4.487   6.167
    9SAPS    HX 1094   1.419   4.446   6.149
    9SAPS    HY 1095   1.580   4.408   6.216
    9SAPS   O31 1096   1.571   4.503   6.032
    9SAPS   C31 1097   1.704   4.517   6.025
    9SAPS   O32 1098   1.779   4.502   6.116
    9SAPS   C32 1099   1.737   4.544   5.874
    9SAPS   H2X 1100   1.752   4.653   5.863
    9SAPS   H2Y 1101   1.657   4.501   5.809
    9SAPS   C23 1102   1.492   4.885   5.919
    9SAPS   H3R 1103   1.464   4.778   5.902
    9SAPS   H3S 1104   1.602   4.888   5.909
    9SAPS   C24 1105   1.422   4.972   5.810
    9SAPS   H4R 1106   1.313   4.960   5.821
    9SAPS   H4S 1107   1.434   4.910   5.718
    9SAPS   C25 1108   1.469   5.115   5.795
    9SAPS   H5R 1109   1.440   5.182   5.877
    9SAPS   C26 1110   1.546   5.166   5.698
    9SAPS   H6R 1111   1.566   5.275   5.702
    9SAPS   C27 1112   1.604   5.096   5.584
    9SAPS   H7R 1113   1.548   5.140   5.499
    9SAPS   H7S 1114   1.573   4.990   5.596
    9SAPS   C28 1115   1.753   5.099   5.573
    9SAPS   H8R 1116   1.799   5.068   5.668
    9SAPS   C29 1117   1.829   5.124   5.463
    9SAPS   H9R 1118   1.935   5.098   5.474
    9SAPS  C210 1119   1.786   5.176   5.333
    9SAPS  H10R 1120   1.736   5.088   5.287
    9SAPS  H10S 1121   1.877   5.182   5.270
    9SAPS  C211 1122   1.706   5.303   5.326
    9SAPS  H11R 1123   1.756   5.383   5.382
    9SAPS  C212 1124   1.585   5.325   5.272
    9SAPS  H12R 1125   1.536   5.423   5.283
    9SAPS  C213 1126   1.506   5.221   5.192
    9SAPS  H13R 1127   1.471   5.144   5.264
    9SAPS  H13S 1128   1.578   5.167   5.127
    9SAPS  C214 1129   1.385   5.269   5.115
    9SAPS  H14R 1130   1.332   5.360   5.147
    9SAPS  C215 1131   1.345   5.207   5.003
    9SAPS  H15R 1132   1.248   5.234   4.958
    9SAPS  C216 1133   1.404   5.082   4.936
    9SAPS  H16R 1134   1.512   5.106   4.952
    9SAPS  H16S 1135   1.377   5.090   4.828
    9SAPS  C217 1136   1.347   4.958   4.998
    9SAPS  H17R 1137   1.353   4.962   5.109
    9SAPS  H17S 1138   1.416   4.882   4.956
    9SAPS  C218 1139   1.200   4.925   4.953
    9SAPS  H18R 1140   1.198   4.889   4.848
    9SAPS  H18S 1141   1.140   5.017   4.942
    9SAPS  C219 1142   1.147   4.815   5.046
    9SAPS  H19R 1143   1.040   4.801   5.020
    9SAPS  H19S 1144   1.155   4.851   5.152
    9SAPS  C220 1145   1.213   4.680   5.036
    9SAPS  H20R 1146   1.313   4.691   4.989
    9SAPS  H20S 1147   1.150   4.609   4.978
    9SAPS  H20T 1148   1.220   4.640   5.140
    9SAPS   C33 1149   1.877   4.498   5.823
    9SAPS   H3X 1150   1.897   4.394   5.857
    9SAPS   H3Y 1151   1.959   4.555   5.871
    9SAPS   C34 1152   1.900   4.514   5.675
    9SAPS   H4X 1153   1.833   4.598   5.646
    9SAPS   H4Y 1154   1.876   4.422   5.619
    9SAPS   C35 1155   2.043   4.547   5.645
    9SAPS   H5X 1156   2.097   4.460   5.690
    9SAPS   H5Y 1157   2.087   4.640   5.687
    9SAPS   C36 1158   2.079   4.563   5.494
    9SAPS   H6X 1159   2.016   4.480   5.455
    9SAPS   H6Y 1160   2.186   4.538   5.476
    9SAPS   C37 1161   2.042   4.700   5.454
    9SAPS   H7X 1162   2.093   4.783   5.508
    9SAPS   H7Y 1163   1.934   4.725   5.466
    9SAPS   C38 1164   2.071   4.713   5.301
    9SAPS   H8X 1165   2.011   4.640   5.243
    9SAPS   H8Y 1166   2.180   4.693   5.287
    9SAPS   C39 1167   2.038   4.854   5.247
    9SAPS   H9X 1168   2.113   4.924   5.289
    9SAPS   H9Y 1169   1.939   4.887   5.285
    9SAPS  C310 1170   2.027   4.860   5.091
    9SAPS  H10X 1171   1.962   4.777   5.057
    9SAPS  H10Y 1172   2.130   4.839   5.055
    9SAPS  C311 1173   1.984   5.004   5.048
    9SAPS  H11X 1174   2.042   5.065   5.120
    9SAPS  H11Y 1175   1.873   5.006   5.051
    9SAPS  C312 1176   2.022   5.049   4.905
    9SAPS  H12X 1177   1.995   4.971   4.830
    9SAPS  H12Y 1178   2.129   5.079   4.903
    9SAPS  C313 1179   1.949   5.172   4.846
    9SAPS  H13X 1180   1.988   5.210   4.749
    9SAPS  H13Y 1181   1.953   5.256   4.919
    9SAPS  C314 1182   1.802   5.148   4.821
    9SAPS  H14X 1183   1.761   5.244   4.783
    9SAPS  H14Y 1184   1.755   5.122   4.919
    9SAPS  C315 1185   1.765   5.048   4.711
    9SAPS  H15X 1186   1.849   5.037   4.640
    9SAPS  H15Y 1187   1.682   5.093   4.651
    9SAPS  C316 1188   1.719   4.914   4.769
    9SAPS  H16X 1189   1.654   4.933   4.856
    9SAPS  H16Y 1190   1.797   4.854   4.820
    9SAPS  C317 1191   1.672   4.823   4.647
    9SAPS  H17X 1192   1.698   4.720   4.678
    9SAPS  H17Y 1193   1.735   4.839   4.557
    9SAPS  C318 1194   1.527   4.837   4.605
    9SAPS  H18X 1195   1.502   4.751   4.539
    9SAPS  H18Y 1196   1.513   4.930   4.544
    9SAPS  H18Z 1197   1.458   4.848   4.691
   10SAPS     N 1198   2.268   4.204   6.907
   10SAPS   HN1 1199   2.208   4.283   6.938
   10SAPS   HN2 1200   2.311   4.236   6.817
   10SAPS   HN3 1201   2.224   4.113   6.885
   10SAPS   C12 1202   2.382   4.175   7.004
   10SAPS  H12A 1203   2.349   4.159   7.106
   10SAPS   C13 1204   2.474   4.056   6.957
   10SAPS  O13A 1205   2.444   3.987   6.854
   10SAPS  O13B 1206   2.575   4.020   7.034
   10SAPS   C11 1207   2.473   4.308   6.999
   10SAPS  H11A 1208   2.502   4.314   6.892
   10SAPS  H11B 1209   2.564   4.286   7.059
   10SAPS     P 1210   2.512   4.563   7.043
   10SAPS   O13 1211   2.427   4.679   7.018
   10SAPS   O14 1212   2.594   4.556   7.163
   10SAPS   O12 1213   2.412   4.435   7.041
   10SAPS   O11 1214   2.606   4.534   6.923
   10SAPS    C1 1215   2.607   4.618   6.809
   10SAPS    HA 1216   2.581   4.726   6.821
   10SAPS    HB 1217   2.715   4.621   6.783
   10SAPS    C2 1218   2.533   4.550   6.688
   10SAPS    HS 1219   2.425   4.559   6.713
   10SAPS   O21 1220   2.546   4.404   6.664
   10SAPS   C21 1221   2.662   4.352   6.664
   10SAPS   O22 1222   2.773   4.409   6.673
   10SAPS   C22 1223   2.638   4.206   6.657
   10SAPS   H2R 1224   2.735   4.163   6.688
   10SAPS   H2S 1225   2.550   4.184   6.721
   10SAPS    C3 1226   2.569   4.606   6.546
   10SAPS    HX 1227   2.676   4.588   6.523
   10SAPS    HY 1228   2.557   4.715   6.562
   10SAPS   O31 1229   2.486   4.557   6.439
   10SAPS   C31 1230   2.359   4.596   6.427
   10SAPS   O32 1231   2.297   4.673   6.502
   10SAPS   C32 1232   2.298   4.549   6.294
   10SAPS   H2X 1233   2.198   4.596   6.286
   10SAPS   H2Y 1234   2.277   4.440   6.305
   10SAPS   C23 1235   2.605   4.148   6.515
   10SAPS   H3R 1236   2.509   4.185   6.474
   10SAPS   H3S 1237   2.596   4.040   6.540
   10SAPS   C24 1238   2.723   4.177   6.419
   10SAPS   H4R 1239   2.809   4.137   6.476
   10SAPS   H4S 1240   2.714   4.287   6.409
   10SAPS   C25 1241   2.720   4.123   6.277
   10SAPS   H5R 1242   2.655   4.034   6.270
   10SAPS   C26 1243   2.757   4.184   6.161
   10SAPS   H6R 1244   2.743   4.124   6.070
   10SAPS   C27 1245   2.823   4.315   6.150
   10SAPS   H7R 1246   2.879   4.345   6.242
   10SAPS   H7S 1247   2.752   4.399   6.135
   10SAPS   C28 1248   2.927   4.314   6.038
   10SAPS   H8R 1249   3.026   4.304   6.085
   10SAPS   C29 1250   2.909   4.320   5.904
   10SAPS   H9R 1251   2.997   4.323   5.839
   10SAPS  C210 1252   2.779   4.321   5.827
   10SAPS  H10R 1253   2.692   4.362   5.881
   10SAPS  H10S 1254   2.754   4.213   5.812
   10SAPS  C211 1255   2.799   4.405   5.701
   10SAPS  H11R 1256   2.818   4.512   5.714
   10SAPS  C212 1257   2.783   4.364   5.576
   10SAPS  H12R 1258   2.813   4.431   5.494
   10SAPS  C213 1259   2.750   4.225   5.534
   10SAPS  H13R 1260   2.674   4.228   5.454
   10SAPS  H13S 1261   2.697   4.177   5.619
   10SAPS  C214 1262   2.873   4.149   5.501
   10SAPS  H14R 1263   2.920   4.104   5.590
   10SAPS  C215 1264   2.922   4.113   5.382
   10SAPS  H15R 1265   3.016   4.057   5.375
   10SAPS  C216 1266   2.863   4.143   5.242
   10SAPS  H16R 1267   2.754   4.165   5.251
   10SAPS  H16S 1268   2.856   4.054   5.176
   10SAPS  C217 1269   2.935   4.259   5.180
   10SAPS  H17R 1270   3.040   4.247   5.148
   10SAPS  H17S 1271   2.923   4.342   5.253
   10SAPS  C218 1272   2.855   4.307   5.056
   10SAPS  H18R 1273   2.747   4.285   5.074
   10SAPS  H18S 1274   2.890   4.232   4.982
   10SAPS  C219 1275   2.883   4.453   5.014
   10SAPS  H19R 1276   2.990   4.479   4.995
   10SAPS  H19S 1277   2.853   4.518   5.099
   10SAPS  C220 1278   2.793   4.499   4.895
   10SAPS  H20R 1279   2.792   4.609   4.880
   10SAPS  H20S 1280   2.688   4.471   4.921
   10SAPS  H20T 1281   2.834   4.452   4.803
   10SAPS   C33 1282   2.386   4.583   6.172
   10SAPS   H3X 1283   2.487   4.537   6.171
   10SAPS   H3Y 1284   2.419   4.688   6.190
   10SAPS   C34 1285   2.334   4.553   6.037
   10SAPS   H4X 1286   2.228   4.589   6.035
   10SAPS   H4Y 1287   2.333   4.443   6.019
   10SAPS   C35 1288   2.413   4.628   5.930
   10SAPS   H5X 1289   2.523   4.611   5.935
   10SAPS   H5Y 1290   2.402   4.737   5.947
   10SAPS   C36 1291   2.389   4.593   5.785
   10SAPS   H6X 1292   2.282   4.613   5.760
   10SAPS   H6Y 1293   2.400   4.482   5.775
   10SAPS   C37 1294   2.492   4.657   5.686
   10SAPS   H7X 1295   2.597   4.633   5.710
   10SAPS   H7Y 1296   2.481   4.767   5.704
   10SAPS   C38 1297   2.474   4.610   5.542
   10SAPS   H8X 1298   2.370   4.628   5.508
   10SAPS   H8Y 1299   2.500   4.502   5.544
   10SAPS   C39 1300   2.572   4.682   5.447
   10SAPS   H9X 1301   2.676   4.650   5.473
   10SAPS   H9Y 1302   2.555   4.791   5.456
   10SAPS  C310 1303   2.539   4.659   5.295
   10SAPS  H10X 1304   2.435   4.693   5.276
   10SAPS  H10Y 1305   2.549   4.552   5.266
   10SAPS  C311 1306   2.615   4.755   5.210
   10SAPS  H11X 1307   2.721   4.735   5.235
   10SAPS  H11Y 1308   2.591   4.861   5.231
   10SAPS  C312 1309   2.602   4.724   5.059
   10SAPS  H12X 1310   2.621   4.615   5.047
   10SAPS  H12Y 1311   2.684   4.758   4.992
   10SAPS  C313 1312   2.462   4.754   5.005
   10SAPS  H13X 1313   2.420   4.857   5.003
   10SAPS  H13Y 1314   2.390   4.696   5.067
   10SAPS  C314 1315   2.442   4.704   4.857
   10SAPS  H14X 1316   2.483   4.604   4.829
   10SAPS  H14Y 1317   2.502   4.772   4.793
   10SAPS  C315 1318   2.291   4.711   4.817
   10SAPS  H15X 1319   2.250   4.803   4.864
   10SAPS  H15Y 1320   2.239   4.628   4.870
   10SAPS  C316 1321   2.266   4.708   4.659
   10SAPS  H16X 1322   2.303   4.606   4.634
   10SAPS  H16Y 1323   2.327   4.789   4.615
   10SAPS  C317 1324   2.120   4.731   4.623
   10SAPS  H17X 1325   2.112   4.720   4.513
   10SAPS  H17Y 1326   2.099   4.834   4.661
   10SAPS  C318 1327   2.021   4.639   4.698
   10SAPS  H18X 1328   1.916   4.664   4.672
   10SAPS  H18Y 1329   2.024   4.646   4.809
   10SAPS  H18Z 1330   2.050   4.535   4.673
   11SAPS     N 1331   3.299   2.432   1.727
   11SAPS   HN1 1332   3.288   2.415   1.625
   11SAPS   HN2 1333   3.363   2.368   1.779
   11SAPS   HN3 1334   3.209   2.418   1.777
   11SAPS   C12 1335   3.341   2.576   1.739
   11SAPS  H12A 1336   3.444   2.592   1.711
   11SAPS   C13 1337   3.264   2.672   1.647
   11SAPS  O13A 1338   3.167   2.630   1.583
   11SAPS  O13B 1339   3.303   2.789   1.617
   11SAPS   C11 1340   3.326   2.611   1.892
   11SAPS  H11A 1341   3.225   2.596   1.935
   11SAPS  H11B 1342   3.337   2.722   1.897
   11SAPS     P 1343   3.582   2.603   1.985
   11SAPS   O13 1344   3.662   2.490   1.931
   11SAPS   O14 1345   3.590   2.731   1.909
   11SAPS   O12 1346   3.432   2.549   1.975
   11SAPS   O11 1347   3.613   2.632   2.140
   11SAPS    C1 1348   3.594   2.540   2.245
   11SAPS    HA 1349   3.493   2.496   2.230
   11SAPS    HB 1350   3.673   2.461   2.242
   11SAPS    C2 1351   3.597   2.613   2.381
   11SAPS    HS 1352   3.510   2.682   2.378
   11SAPS   O21 1353   3.728   2.669   2.406
   11SAPS   C21 1354   3.723   2.786   2.463
   11SAPS   O22 1355   3.626   2.858   2.475
   11SAPS   C22 1356   3.858   2.822   2.515
   11SAPS   H2R 1357   3.922   2.732   2.515
   11SAPS   H2S 1358   3.909   2.888   2.441
   11SAPS    C3 1359   3.566   2.509   2.497
   11SAPS    HX 1360   3.585   2.551   2.598
   11SAPS    HY 1361   3.630   2.418   2.488
   11SAPS   O31 1362   3.435   2.451   2.483
   11SAPS   C31 1363   3.349   2.483   2.572
   11SAPS   O32 1364   3.360   2.578   2.647
   11SAPS   C32 1365   3.235   2.382   2.568
   11SAPS   H2X 1366   3.244   2.325   2.473
   11SAPS   H2Y 1367   3.141   2.441   2.575
   11SAPS   C23 1368   3.845   2.886   2.654
   11SAPS   H3R 1369   3.798   2.808   2.717
   11SAPS   H3S 1370   3.785   2.979   2.662
   11SAPS   C24 1371   3.990   2.902   2.697
   11SAPS   H4R 1372   4.036   2.979   2.631
   11SAPS   H4S 1373   4.059   2.818   2.674
   11SAPS   C25 1374   4.020   2.934   2.843
   11SAPS   H5R 1375   4.032   2.840   2.899
   11SAPS   C26 1376   4.034   3.056   2.902
   11SAPS   H6R 1377   4.037   3.066   3.011
   11SAPS   C27 1378   4.033   3.197   2.846
   11SAPS   H7R 1379   3.938   3.246   2.875
   11SAPS   H7S 1380   4.020   3.194   2.736
   11SAPS   C28 1381   4.152   3.286   2.886
   11SAPS   H8R 1382   4.219   3.304   2.801
   11SAPS   C29 1383   4.169   3.353   3.000
   11SAPS   H9R 1384   4.265   3.401   3.023
   11SAPS  C210 1385   4.077   3.327   3.122
   11SAPS  H10R 1386   4.095   3.232   3.177
   11SAPS  H10S 1387   3.970   3.323   3.095
   11SAPS  C211 1388   4.093   3.437   3.218
   11SAPS  H11R 1389   4.116   3.536   3.177
   11SAPS  C212 1390   4.075   3.429   3.349
   11SAPS  H12R 1391   4.094   3.519   3.409
   11SAPS  C213 1392   4.036   3.314   3.439
   11SAPS  H13R 1393   3.971   3.248   3.379
   11SAPS  H13S 1394   3.966   3.358   3.513
   11SAPS  C214 1395   4.157   3.248   3.490
   11SAPS  H14R 1396   4.216   3.201   3.410
   11SAPS  C215 1397   4.199   3.243   3.613
   11SAPS  H15R 1398   4.283   3.183   3.651
   11SAPS  C216 1399   4.135   3.312   3.732
   11SAPS  H16R 1400   4.165   3.263   3.827
   11SAPS  H16S 1401   4.025   3.314   3.715
   11SAPS  C217 1402   4.174   3.462   3.736
   11SAPS  H17R 1403   4.161   3.511   3.637
   11SAPS  H17S 1404   4.280   3.457   3.767
   11SAPS  C218 1405   4.087   3.530   3.842
   11SAPS  H18R 1406   4.083   3.463   3.931
   11SAPS  H18S 1407   3.983   3.546   3.806
   11SAPS  C219 1408   4.144   3.666   3.890
   11SAPS  H19R 1409   4.244   3.648   3.936
   11SAPS  H19S 1410   4.082   3.700   3.976
   11SAPS  C220 1411   4.148   3.779   3.787
   11SAPS  H20R 1412   4.043   3.794   3.754
   11SAPS  H20S 1413   4.210   3.762   3.697
   11SAPS  H20T 1414   4.183   3.874   3.834
   11SAPS   C33 1415   3.235   2.295   2.694
   11SAPS   H3X 1416   3.136   2.245   2.703
   11SAPS   H3Y 1417   3.262   2.355   2.783
   11SAPS   C34 1418   3.332   2.174   2.669
   11SAPS   H4X 1419   3.435   2.211   2.654
   11SAPS   H4Y 1420   3.295   2.124   2.576
   11SAPS   C35 1421   3.327   2.076   2.787
   11SAPS   H5X 1422   3.378   1.980   2.767
   11SAPS   H5Y 1423   3.220   2.058   2.809
   11SAPS   C36 1424   3.397   2.139   2.907
   11SAPS   H6X 1425   3.370   2.247   2.913
   11SAPS   H6Y 1426   3.508   2.136   2.898
   11SAPS   C37 1427   3.354   2.068   3.037
   11SAPS   H7X 1428   3.389   1.963   3.022
   11SAPS   H7Y 1429   3.245   2.089   3.046
   11SAPS   C38 1430   3.434   2.117   3.161
   11SAPS   H8X 1431   3.400   2.220   3.182
   11SAPS   H8Y 1432   3.543   2.130   3.143
   11SAPS   C39 1433   3.399   2.029   3.285
   11SAPS   H9X 1434   3.429   1.922   3.275
   11SAPS   H9Y 1435   3.290   2.017   3.299
   11SAPS  C310 1436   3.453   2.072   3.419
   11SAPS  H10X 1437   3.425   2.177   3.441
   11SAPS  H10Y 1438   3.564   2.076   3.423
   11SAPS  C311 1439   3.410   1.997   3.543
   11SAPS  H11X 1440   3.463   1.899   3.538
   11SAPS  H11Y 1441   3.300   1.983   3.540
   11SAPS  C312 1442   3.445   2.076   3.671
   11SAPS  H12X 1443   3.457   2.181   3.639
   11SAPS  H12Y 1444   3.536   2.028   3.713
   11SAPS  C313 1445   3.344   2.050   3.785
   11SAPS  H13X 1446   3.340   1.940   3.802
   11SAPS  H13Y 1447   3.258   2.094   3.731
   11SAPS  C314 1448   3.368   2.120   3.918
   11SAPS  H14X 1449   3.269   2.117   3.968
   11SAPS  H14Y 1450   3.371   2.228   3.894
   11SAPS  C315 1451   3.483   2.077   4.012
   11SAPS  H15X 1452   3.581   2.113   3.973
   11SAPS  H15Y 1453   3.495   1.968   4.032
   11SAPS  C316 1454   3.474   2.132   4.165
   11SAPS  H16X 1455   3.448   2.239   4.180
   11SAPS  H16Y 1456   3.575   2.131   4.210
   11SAPS  C317 1457   3.370   2.063   4.258
   11SAPS  H17X 1458   3.411   1.961   4.265
   11SAPS  H17Y 1459   3.272   2.046   4.207
   11SAPS  C318 1460   3.357   2.114   4.402
   11SAPS  H18X 1461   3.282   2.060   4.463
   11SAPS  H18Y 1462   3.329   2.221   4.403
   11SAPS  H18Z 1463   3.452   2.095   4.457
   12SAPS     N 1464   2.987   2.284   2.077
   12SAPS   HN1 1465   2.996   2.211   2.151
   12SAPS   HN2 1466   3.085   2.303   2.048
   12SAPS   HN3 1467   2.951   2.376   2.108
   12SAPS   C12 1468   2.904   2.248   1.958
   12SAPS  H12A 1469   2.801   2.278   1.972
   12SAPS   C13 1470   2.953   2.339   1.840
   12SAPS  O13A 1471   3.052   2.412   1.843
   12SAPS  O13B 1472   2.896   2.318   1.729
   12SAPS   C11 1473   2.920   2.096   1.926
   12SAPS  H11A 1474   3.025   2.073   1.895
   12SAPS  H11B 1475   2.851   2.077   1.841
   12SAPS     P 1476   2.956   1.904   2.098
   12SAPS   O13 1477   2.955   1.797   1.998
   12SAPS   O14 1478   3.081   1.946   2.156
   12SAPS   O12 1479   2.878   2.022   2.040
   12SAPS   O11 1480   2.856   1.860   2.217
   12SAPS    C1 1481   2.771   1.952   2.284
   12SAPS    HA 1482   2.830   2.043   2.307
   12SAPS    HB 1483   2.681   1.981   2.226
   12SAPS    C2 1484   2.722   1.898   2.426
   12SAPS    HS 1485   2.702   1.984   2.494
   12SAPS   O21 1486   2.815   1.806   2.489
   12SAPS   C21 1487   2.933   1.862   2.523
   12SAPS   O22 1488   2.955   1.984   2.507
   12SAPS   C22 1489   3.016   1.755   2.602
   12SAPS   H2R 1490   3.033   1.679   2.523
   12SAPS   H2S 1491   3.109   1.794   2.650
   12SAPS    C3 1492   2.585   1.821   2.416
   12SAPS    HX 1493   2.597   1.737   2.345
   12SAPS    HY 1494   2.516   1.895   2.368
   12SAPS   O31 1495   2.543   1.773   2.546
   12SAPS   C31 1496   2.511   1.647   2.559
   12SAPS   O32 1497   2.534   1.562   2.476
   12SAPS   C32 1498   2.446   1.617   2.697
   12SAPS   H2X 1499   2.378   1.531   2.677
   12SAPS   H2Y 1500   2.375   1.698   2.723
   12SAPS   C23 1501   2.925   1.692   2.715
   12SAPS   H3R 1502   2.979   1.615   2.773
   12SAPS   H3S 1503   2.840   1.637   2.667
   12SAPS   C24 1504   2.866   1.786   2.824
   12SAPS   H4R 1505   2.805   1.724   2.894
   12SAPS   H4S 1506   2.793   1.855   2.776
   12SAPS   C25 1507   2.962   1.869   2.908
   12SAPS   H5R 1508   3.045   1.908   2.846
   12SAPS   C26 1509   2.971   1.878   3.044
   12SAPS   H6R 1510   3.051   1.937   3.091
   12SAPS   C27 1511   2.876   1.809   3.140
   12SAPS   H7R 1512   2.798   1.759   3.080
   12SAPS   H7S 1513   2.833   1.875   3.218
   12SAPS   C28 1514   2.957   1.694   3.206
   12SAPS   H8R 1515   2.984   1.622   3.128
   12SAPS   C29 1516   2.982   1.654   3.338
   12SAPS   H9R 1517   3.047   1.566   3.348
   12SAPS  C210 1518   2.939   1.720   3.468
   12SAPS  H10R 1519   2.874   1.646   3.519
   12SAPS  H10S 1520   2.871   1.803   3.439
   12SAPS  C211 1521   3.059   1.757   3.550
   12SAPS  H11R 1522   3.157   1.741   3.502
   12SAPS  C212 1523   3.062   1.787   3.680
   12SAPS  H12R 1524   3.161   1.810   3.721
   12SAPS  C213 1525   2.945   1.801   3.777
   12SAPS  H13R 1526   2.951   1.709   3.839
   12SAPS  H13S 1527   2.845   1.800   3.729
   12SAPS  C214 1528   2.961   1.921   3.867
   12SAPS  H14R 1529   2.930   2.017   3.822
   12SAPS  C215 1530   2.985   1.910   3.999
   12SAPS  H15R 1531   2.988   2.009   4.048
   12SAPS  C216 1532   3.005   1.789   4.092
   12SAPS  H16R 1533   3.112   1.768   4.114
   12SAPS  H16S 1534   2.979   1.697   4.037
   12SAPS  C217 1535   2.916   1.804   4.223
   12SAPS  H17R 1536   2.938   1.712   4.280
   12SAPS  H17S 1537   2.811   1.792   4.190
   12SAPS  C218 1538   2.933   1.918   4.308
   12SAPS  H18R 1539   2.886   2.009   4.266
   12SAPS  H18S 1540   3.039   1.941   4.332
   12SAPS  C219 1541   2.864   1.885   4.438
   12SAPS  H19R 1542   2.919   1.801   4.486
   12SAPS  H19S 1543   2.760   1.857   4.412
   12SAPS  C220 1544   2.858   2.001   4.534
   12SAPS  H20R 1545   2.832   2.095   4.482
   12SAPS  H20S 1546   2.957   2.014   4.584
   12SAPS  H20T 1547   2.781   1.970   4.608
   12SAPS   C33 1548   2.548   1.597   2.813
   12SAPS   H3X 1549   2.600   1.689   2.848
   12SAPS   H3Y 1550   2.627   1.527   2.780
   12SAPS   C34 1551   2.486   1.543   2.944
   12SAPS   H4X 1552   2.466   1.434   2.935
   12SAPS   H4Y 1553   2.387   1.592   2.955
   12SAPS   C35 1554   2.575   1.586   3.063
   12SAPS   H5X 1555   2.582   1.697   3.071
   12SAPS   H5Y 1556   2.676   1.543   3.056
   12SAPS   C36 1557   2.520   1.524   3.191
   12SAPS   H6X 1558   2.543   1.415   3.196
   12SAPS   H6Y 1559   2.409   1.531   3.190
   12SAPS   C37 1560   2.586   1.586   3.309
   12SAPS   H7X 1561   2.542   1.687   3.324
   12SAPS   H7Y 1562   2.696   1.602   3.310
   12SAPS   C38 1563   2.529   1.521   3.445
   12SAPS   H8X 1564   2.576   1.420   3.449
   12SAPS   H8Y 1565   2.420   1.529   3.425
   12SAPS   C39 1566   2.566   1.604   3.565
   12SAPS   H9X 1567   2.521   1.705   3.557
   12SAPS   H9Y 1568   2.676   1.620   3.567
   12SAPS  C310 1569   2.514   1.546   3.698
   12SAPS  H10X 1570   2.553   1.444   3.720
   12SAPS  H10Y 1571   2.403   1.537   3.696
   12SAPS  C311 1572   2.552   1.631   3.817
   12SAPS  H11X 1573   2.490   1.723   3.816
   12SAPS  H11Y 1574   2.658   1.657   3.797
   12SAPS  C312 1575   2.537   1.556   3.945
   12SAPS  H12X 1576   2.617   1.480   3.953
   12SAPS  H12Y 1577   2.438   1.507   3.940
   12SAPS  C313 1578   2.524   1.646   4.069
   12SAPS  H13X 1579   2.480   1.746   4.046
   12SAPS  H13Y 1580   2.632   1.658   4.092
   12SAPS  C314 1581   2.474   1.596   4.204
   12SAPS  H14X 1582   2.506   1.491   4.221
   12SAPS  H14Y 1583   2.363   1.586   4.203
   12SAPS  C315 1584   2.526   1.672   4.324
   12SAPS  H15X 1585   2.480   1.770   4.297
   12SAPS  H15Y 1586   2.636   1.685   4.331
   12SAPS  C316 1587   2.478   1.627   4.464
   12SAPS  H16X 1588   2.526   1.532   4.495
   12SAPS  H16Y 1589   2.367   1.625   4.467
   12SAPS  C317 1590   2.518   1.720   4.583
   12SAPS  H17X 1591   2.491   1.820   4.545
   12SAPS  H17Y 1592   2.629   1.718   4.580
   12SAPS  C318 1593   2.464   1.677   4.714
   12SAPS  H18X 1594   2.353   1.674   4.708
   12SAPS  H18Y 1595   2.486   1.752   4.792
   12SAPS  H18Z 1596   2.500   1.577   4.749
   13SAPS     N 1597   5.296   0.920   1.814
   13SAPS   HN1 1598   5.293   0.821   1.781
   13SAPS   HN2 1599   5.355   0.975   1.749
   13SAPS   HN3 1600   5.332   0.917   1.912
   13SAPS   C12 1601   5.160   0.969   1.813
   13SAPS  H12A 1602   5.151   1.057   1.874
   13SAPS   C13 1603   5.095   1.009   1.678
   13SAPS  O13A 1604   5.165   1.018   1.570
   13SAPS  O13B 1605   4.972   1.036   1.685
   13SAPS   C11 1606   5.074   0.875   1.902
   13SAPS  H11A 1607   5.084   0.771   1.864
   13SAPS  H11B 1608   4.974   0.920   1.888
   13SAPS     P 1609   5.025   0.834   2.159
   13SAPS   O13 1610   4.926   0.738   2.105
   13SAPS   O14 1611   5.103   0.787   2.275
   13SAPS   O12 1612   5.121   0.878   2.039
   13SAPS   O11 1613   4.959   0.969   2.197
   13SAPS    C1 1614   4.996   1.040   2.320
   13SAPS    HA 1615   5.106   1.034   2.332
   13SAPS    HB 1616   4.960   1.143   2.300
   13SAPS    C2 1617   4.935   0.983   2.451
   13SAPS    HS 1618   4.991   0.890   2.474
   13SAPS   O21 1619   4.796   0.949   2.424
   13SAPS   C21 1620   4.747   0.860   2.517
   13SAPS   O22 1621   4.821   0.778   2.576
   13SAPS   C22 1622   4.597   0.864   2.523
   13SAPS   H2R 1623   4.571   0.913   2.427
   13SAPS   H2S 1624   4.550   0.765   2.545
   13SAPS    C3 1625   4.951   1.081   2.573
   13SAPS    HX 1626   4.872   1.151   2.539
   13SAPS    HY 1627   5.045   1.140   2.576
   13SAPS   O31 1628   4.917   1.027   2.703
   13SAPS   C31 1629   5.014   0.943   2.741
   13SAPS   O32 1630   5.129   0.957   2.711
   13SAPS   C32 1631   4.964   0.839   2.840
   13SAPS   H2X 1632   4.859   0.815   2.816
   13SAPS   H2Y 1633   4.955   0.896   2.936
   13SAPS   C23 1634   4.538   0.950   2.639
   13SAPS   H3R 1635   4.429   0.932   2.627
   13SAPS   H3S 1636   4.545   1.059   2.617
   13SAPS   C24 1637   4.564   0.906   2.788
   13SAPS   H4R 1638   4.674   0.907   2.807
   13SAPS   H4S 1639   4.545   0.796   2.787
   13SAPS   C25 1640   4.485   0.981   2.900
   13SAPS   H5R 1641   4.390   1.033   2.880
   13SAPS   C26 1642   4.529   1.004   3.019
   13SAPS   H6R 1643   4.460   1.053   3.088
   13SAPS   C27 1644   4.655   0.941   3.072
   13SAPS   H7R 1645   4.701   0.871   2.999
   13SAPS   H7S 1646   4.625   0.875   3.156
   13SAPS   C28 1647   4.758   1.040   3.100
   13SAPS   H8R 1648   4.807   1.084   3.011
   13SAPS   C29 1649   4.821   1.054   3.220
   13SAPS   H9R 1650   4.899   1.131   3.218
   13SAPS  C210 1651   4.801   0.967   3.341
   13SAPS  H10R 1652   4.889   0.968   3.408
   13SAPS  H10S 1653   4.800   0.860   3.311
   13SAPS  C211 1654   4.686   1.004   3.434
   13SAPS  H11R 1655   4.593   1.037   3.385
   13SAPS  C212 1656   4.681   1.016   3.570
   13SAPS  H12R 1657   4.587   1.055   3.610
   13SAPS  C213 1658   4.798   1.011   3.665
   13SAPS  H13R 1659   4.894   1.038   3.616
   13SAPS  H13S 1660   4.804   0.905   3.700
   13SAPS  C214 1661   4.778   1.106   3.782
   13SAPS  H14R 1662   4.736   1.203   3.752
   13SAPS  C215 1663   4.800   1.082   3.915
   13SAPS  H15R 1664   4.749   1.154   3.981
   13SAPS  C216 1665   4.858   0.948   3.968
   13SAPS  H16R 1666   4.870   0.874   3.887
   13SAPS  H16S 1667   4.776   0.911   4.033
   13SAPS  C217 1668   4.996   0.961   4.026
   13SAPS  H17R 1669   4.986   1.045   4.097
   13SAPS  H17S 1670   5.072   0.990   3.950
   13SAPS  C218 1671   5.030   0.832   4.102
   13SAPS  H18R 1672   5.039   0.742   4.037
   13SAPS  H18S 1673   4.949   0.814   4.177
   13SAPS  C219 1674   5.168   0.842   4.175
   13SAPS  H19R 1675   5.174   0.930   4.243
   13SAPS  H19S 1676   5.242   0.872   4.097
   13SAPS  C220 1677   5.215   0.710   4.237
   13SAPS  H20R 1678   5.294   0.725   4.313
   13SAPS  H20S 1679   5.230   0.642   4.151
   13SAPS  H20T 1680   5.123   0.667   4.282
   13SAPS   C33 1681   5.067   0.726   2.867
   13SAPS   H3X 1682   5.160   0.773   2.905
   13SAPS   H3Y 1683   5.096   0.682   2.769
   13SAPS   C34 1684   4.993   0.628   2.957
   13SAPS   H4X 1685   5.057   0.537   2.967
   13SAPS   H4Y 1686   4.909   0.590   2.896
   13SAPS   C35 1687   4.954   0.674   3.100
   13SAPS   H5X 1688   4.918   0.584   3.154
   13SAPS   H5Y 1689   4.861   0.734   3.105
   13SAPS   C36 1690   5.064   0.751   3.175
   13SAPS   H6X 1691   5.018   0.777   3.273
   13SAPS   H6Y 1692   5.086   0.845   3.122
   13SAPS   C37 1693   5.194   0.667   3.203
   13SAPS   H7X 1694   5.245   0.657   3.104
   13SAPS   H7Y 1695   5.162   0.564   3.230
   13SAPS   C38 1696   5.284   0.725   3.314
   13SAPS   H8X 1697   5.312   0.831   3.293
   13SAPS   H8Y 1698   5.375   0.661   3.308
   13SAPS   C39 1699   5.235   0.726   3.463
   13SAPS   H9X 1700   5.225   0.619   3.492
   13SAPS   H9Y 1701   5.136   0.774   3.474
   13SAPS  C310 1702   5.331   0.800   3.570
   13SAPS  H10X 1703   5.357   0.904   3.542
   13SAPS  H10Y 1704   5.426   0.746   3.588
   13SAPS  C311 1705   5.253   0.808   3.709
   13SAPS  H11X 1706   5.216   0.708   3.739
   13SAPS  H11Y 1707   5.158   0.862   3.688
   13SAPS  C312 1708   5.330   0.866   3.834
   13SAPS  H12X 1709   5.265   0.924   3.902
   13SAPS  H12Y 1710   5.407   0.930   3.786
   13SAPS  C313 1711   5.425   0.761   3.906
   13SAPS  H13X 1712   5.486   0.710   3.829
   13SAPS  H13Y 1713   5.355   0.688   3.951
   13SAPS  C314 1714   5.511   0.827   4.018
   13SAPS  H14X 1715   5.456   0.910   4.066
   13SAPS  H14Y 1716   5.597   0.863   3.958
   13SAPS  C315 1717   5.556   0.732   4.129
   13SAPS  H15X 1718   5.621   0.661   4.074
   13SAPS  H15Y 1719   5.476   0.670   4.174
   13SAPS  C316 1720   5.635   0.805   4.238
   13SAPS  H16X 1721   5.694   0.888   4.194
   13SAPS  H16Y 1722   5.705   0.740   4.295
   13SAPS  C317 1723   5.547   0.856   4.354
   13SAPS  H17X 1724   5.489   0.777   4.406
   13SAPS  H17Y 1725   5.468   0.914   4.304
   13SAPS  C318 1726   5.620   0.945   4.462
   13SAPS  H18X 1727   5.541   0.976   4.534
   13SAPS  H18Y 1728   5.671   1.022   4.401
   13SAPS  H18Z 1729   5.700   0.888   4.515
   14SAPS     N 1730   5.570   2.909   1.991
   14SAPS   HN1 1731   5.479   2.953   2.014
   14SAPS   HN2 1732   5.619   2.958   1.914
   14SAPS   HN3 1733   5.554   2.812   1.956
   14SAPS   C12 1734   5.667   2.906   2.112
   14SAPS  H12A 1735   5.632   2.841   2.191
   14SAPS   C13 1736   5.813   2.864   2.081
   14SAPS  O13A 1737   5.836   2.821   1.967
   14SAPS  O13B 1738   5.889   2.846   2.181
   14SAPS   C11 1739   5.676   3.047   2.168
   14SAPS  H11A 1740   5.732   3.116   2.102
   14SAPS  H11B 1741   5.727   3.029   2.265
   14SAPS     P 1742   5.547   3.247   2.269
   14SAPS   O13 1743   5.676   3.318   2.250
   14SAPS   O14 1744   5.428   3.312   2.208
   14SAPS   O12 1745   5.551   3.099   2.206
   14SAPS   O11 1746   5.521   3.218   2.419
   14SAPS    C1 1747   5.596   3.118   2.489
   14SAPS    HA 1748   5.569   3.011   2.472
   14SAPS    HB 1749   5.702   3.134   2.462
   14SAPS    C2 1750   5.585   3.131   2.646
   14SAPS    HS 1751   5.612   3.032   2.687
   14SAPS   O21 1752   5.446   3.169   2.679
   14SAPS   C21 1753   5.354   3.081   2.659
   14SAPS   O22 1754   5.366   2.963   2.637
   14SAPS   C22 1755   5.214   3.148   2.664
   14SAPS   H2R 1756   5.223   3.215   2.752
   14SAPS   H2S 1757   5.204   3.206   2.570
   14SAPS    C3 1758   5.679   3.245   2.692
   14SAPS    HX 1759   5.648   3.346   2.658
   14SAPS    HY 1760   5.782   3.223   2.654
   14SAPS   O31 1761   5.673   3.246   2.839
   14SAPS   C31 1762   5.769   3.330   2.885
   14SAPS   O32 1763   5.833   3.400   2.815
   14SAPS   C32 1764   5.783   3.318   3.040
   14SAPS   H2X 1765   5.802   3.208   3.048
   14SAPS   H2Y 1766   5.682   3.344   3.078
   14SAPS   C23 1767   5.100   3.044   2.692
   14SAPS   H3R 1768   5.136   2.971   2.767
   14SAPS   H3S 1769   5.095   2.995   2.592
   14SAPS   C24 1770   4.971   3.118   2.741
   14SAPS   H4R 1771   4.884   3.055   2.713
   14SAPS   H4S 1772   4.960   3.209   2.679
   14SAPS   C25 1773   4.964   3.164   2.885
   14SAPS   H5R 1774   5.046   3.233   2.907
   14SAPS   C26 1775   4.896   3.121   2.993
   14SAPS   H6R 1776   4.922   3.179   3.083
   14SAPS   C27 1777   4.798   3.013   3.018
   14SAPS   H7R 1778   4.785   2.957   2.923
   14SAPS   H7S 1779   4.705   3.068   3.043
   14SAPS   C28 1780   4.833   2.923   3.131
   14SAPS   H8R 1781   4.891   2.833   3.106
   14SAPS   C29 1782   4.772   2.907   3.254
   14SAPS   H9R 1783   4.815   2.839   3.328
   14SAPS  C210 1784   4.669   3.009   3.315
   14SAPS  H10R 1785   4.600   2.963   3.388
   14SAPS  H10S 1786   4.605   3.042   3.231
   14SAPS  C211 1787   4.734   3.127   3.385
   14SAPS  H11R 1788   4.812   3.169   3.321
   14SAPS  C212 1789   4.688   3.188   3.494
   14SAPS  H12R 1790   4.750   3.268   3.538
   14SAPS  C213 1791   4.562   3.153   3.572
   14SAPS  H13R 1792   4.497   3.105   3.496
   14SAPS  H13S 1793   4.507   3.245   3.603
   14SAPS  C214 1794   4.582   3.054   3.684
   14SAPS  H14R 1795   4.566   2.948   3.659
   14SAPS  C215 1796   4.612   3.075   3.813
   14SAPS  H15R 1797   4.649   2.987   3.866
   14SAPS  C216 1798   4.631   3.212   3.869
   14SAPS  H16R 1799   4.681   3.274   3.791
   14SAPS  H16S 1800   4.704   3.211   3.953
   14SAPS  C217 1801   4.503   3.282   3.916
   14SAPS  H17R 1802   4.420   3.253   3.849
   14SAPS  H17S 1803   4.526   3.390   3.931
   14SAPS  C218 1804   4.475   3.246   4.063
   14SAPS  H18R 1805   4.565   3.274   4.122
   14SAPS  H18S 1806   4.465   3.137   4.082
   14SAPS  C219 1807   4.352   3.311   4.121
   14SAPS  H19R 1808   4.323   3.403   4.065
   14SAPS  H19S 1809   4.369   3.342   4.226
   14SAPS  C220 1810   4.234   3.216   4.119
   14SAPS  H20R 1811   4.259   3.128   4.182
   14SAPS  H20S 1812   4.200   3.170   4.024
   14SAPS  H20T 1813   4.147   3.268   4.163
   14SAPS   C33 1814   5.905   3.404   3.094
   14SAPS   H3X 1815   5.900   3.500   3.039
   14SAPS   H3Y 1816   6.000   3.350   3.072
   14SAPS   C34 1817   5.889   3.424   3.246
   14SAPS   H4X 1818   5.880   3.325   3.296
   14SAPS   H4Y 1819   5.798   3.486   3.263
   14SAPS   C35 1820   6.006   3.490   3.320
   14SAPS   H5X 1821   6.032   3.580   3.261
   14SAPS   H5Y 1822   6.097   3.426   3.319
   14SAPS   C36 1823   5.981   3.517   3.466
   14SAPS   H6X 1824   6.078   3.526   3.518
   14SAPS   H6Y 1825   5.920   3.430   3.499
   14SAPS   C37 1826   5.896   3.642   3.495
   14SAPS   H7X 1827   5.800   3.647   3.439
   14SAPS   H7Y 1828   5.947   3.738   3.471
   14SAPS   C38 1829   5.871   3.655   3.645
   14SAPS   H8X 1830   5.806   3.743   3.665
   14SAPS   H8Y 1831   5.967   3.670   3.699
   14SAPS   C39 1832   5.806   3.537   3.713
   14SAPS   H9X 1833   5.892   3.472   3.738
   14SAPS   H9Y 1834   5.740   3.483   3.642
   14SAPS  C310 1835   5.722   3.574   3.838
   14SAPS  H10X 1836   5.718   3.685   3.846
   14SAPS  H10Y 1837   5.751   3.520   3.930
   14SAPS  C311 1838   5.576   3.538   3.802
   14SAPS  H11X 1839   5.568   3.430   3.778
   14SAPS  H11Y 1840   5.547   3.594   3.711
   14SAPS  C312 1841   5.478   3.584   3.911
   14SAPS  H12X 1842   5.373   3.575   3.876
   14SAPS  H12Y 1843   5.501   3.692   3.926
   14SAPS  C313 1844   5.491   3.503   4.042
   14SAPS  H13X 1845   5.454   3.570   4.122
   14SAPS  H13Y 1846   5.600   3.483   4.057
   14SAPS  C314 1847   5.427   3.362   4.048
   14SAPS  H14X 1848   5.461   3.330   4.149
   14SAPS  H14Y 1849   5.475   3.297   3.972
   14SAPS  C315 1850   5.277   3.357   4.040
   14SAPS  H15X 1851   5.236   3.416   3.955
   14SAPS  H15Y 1852   5.234   3.411   4.127
   14SAPS  C316 1853   5.231   3.204   4.024
   14SAPS  H16X 1854   5.273   3.144   4.107
   14SAPS  H16Y 1855   5.274   3.175   3.926
   14SAPS  C317 1856   5.075   3.190   4.025
   14SAPS  H17X 1857   5.028   3.244   3.940
   14SAPS  H17Y 1858   5.022   3.235   4.112
   14SAPS  C318 1859   5.029   3.048   4.008
   14SAPS  H18X 1860   5.070   3.009   3.912
   14SAPS  H18Y 1861   4.918   3.039   4.012
   14SAPS  H18Z 1862   5.068   2.988   4.093
   15SAPS     N 1863   4.388   3.225   2.084
   15SAPS   HN1 1864   4.410   3.304   2.148
   15SAPS   HN2 1865   4.350   3.141   2.133
   15SAPS   HN3 1866   4.478   3.190   2.045
   15SAPS   C12 1867   4.299   3.262   1.970
   15SAPS  H12A 1868   4.338   3.343   1.911
   15SAPS   C13 1869   4.264   3.144   1.876
   15SAPS  O13A 1870   4.299   3.026   1.913
   15SAPS  O13B 1871   4.195   3.165   1.773
   15SAPS   C11 1872   4.167   3.321   2.020
   15SAPS  H11A 1873   4.107   3.245   2.075
   15SAPS  H11B 1874   4.108   3.357   1.933
   15SAPS     P 1875   4.061   3.511   2.153
   15SAPS   O13 1876   4.104   3.639   2.214
   15SAPS   O14 1877   3.968   3.527   2.041
   15SAPS   O12 1878   4.191   3.436   2.098
   15SAPS   O11 1879   3.987   3.415   2.258
   15SAPS    C1 1880   4.070   3.321   2.330
   15SAPS    HA 1881   4.007   3.244   2.381
   15SAPS    HB 1882   4.147   3.265   2.273
   15SAPS    C2 1883   4.148   3.382   2.452
   15SAPS    HS 1884   4.224   3.450   2.410
   15SAPS   O21 1885   4.199   3.278   2.535
   15SAPS   C21 1886   4.311   3.227   2.499
   15SAPS   O22 1887   4.380   3.253   2.403
   15SAPS   C22 1888   4.351   3.124   2.609
   15SAPS   H2R 1889   4.382   3.188   2.695
   15SAPS   H2S 1890   4.268   3.054   2.628
   15SAPS    C3 1891   4.055   3.467   2.535
   15SAPS    HX 1892   3.965   3.411   2.567
   15SAPS    HY 1893   4.016   3.549   2.471
   15SAPS   O31 1894   4.124   3.522   2.655
   15SAPS   C31 1895   4.056   3.618   2.711
   15SAPS   O32 1896   3.945   3.653   2.691
   15SAPS   C32 1897   4.142   3.675   2.822
   15SAPS   H2X 1898   4.189   3.773   2.798
   15SAPS   H2Y 1899   4.225   3.602   2.837
   15SAPS   C23 1900   4.480   3.043   2.563
   15SAPS   H3R 1901   4.565   3.114   2.548
   15SAPS   H3S 1902   4.447   2.990   2.471
   15SAPS   C24 1903   4.528   2.938   2.670
   15SAPS   H4R 1904   4.590   2.996   2.741
   15SAPS   H4S 1905   4.606   2.879   2.618
   15SAPS   C25 1906   4.416   2.852   2.732
   15SAPS   H5R 1907   4.356   2.790   2.664
   15SAPS   C26 1908   4.382   2.842   2.862
   15SAPS   H6R 1909   4.292   2.783   2.884
   15SAPS   C27 1910   4.450   2.916   2.974
   15SAPS   H7R 1911   4.528   2.980   2.928
   15SAPS   H7S 1912   4.496   2.836   3.036
   15SAPS   C28 1913   4.355   3.009   3.051
   15SAPS   H8R 1914   4.324   3.099   2.995
   15SAPS   C29 1915   4.309   2.991   3.175
   15SAPS   H9R 1916   4.241   3.066   3.218
   15SAPS  C210 1917   4.343   2.878   3.267
   15SAPS  H10R 1918   4.382   2.917   3.363
   15SAPS  H10S 1919   4.430   2.818   3.232
   15SAPS  C211 1920   4.234   2.777   3.291
   15SAPS  H11R 1921   4.195   2.743   3.194
   15SAPS  C212 1922   4.208   2.710   3.406
   15SAPS  H12R 1923   4.164   2.609   3.399
   15SAPS  C213 1924   4.256   2.761   3.544
   15SAPS  H13R 1925   4.341   2.831   3.534
   15SAPS  H13S 1926   4.290   2.675   3.606
   15SAPS  C214 1927   4.144   2.851   3.601
   15SAPS  H14R 1928   4.064   2.882   3.532
   15SAPS  C215 1929   4.144   2.908   3.720
   15SAPS  H15R 1930   4.052   2.961   3.744
   15SAPS  C216 1931   4.258   2.903   3.814
   15SAPS  H16R 1932   4.266   2.999   3.869
   15SAPS  H16S 1933   4.358   2.885   3.769
   15SAPS  C217 1934   4.230   2.799   3.921
   15SAPS  H17R 1935   4.235   2.695   3.882
   15SAPS  H17S 1936   4.133   2.813   3.973
   15SAPS  C218 1937   4.330   2.803   4.039
   15SAPS  H18R 1938   4.322   2.900   4.092
   15SAPS  H18S 1939   4.432   2.793   3.998
   15SAPS  C219 1940   4.297   2.696   4.147
   15SAPS  H19R 1941   4.264   2.602   4.098
   15SAPS  H19S 1942   4.210   2.724   4.210
   15SAPS  C220 1943   4.420   2.671   4.231
   15SAPS  H20R 1944   4.494   2.620   4.166
   15SAPS  H20S 1945   4.400   2.599   4.313
   15SAPS  H20T 1946   4.466   2.761   4.278
   15SAPS   C33 1947   4.050   3.701   2.943
   15SAPS   H3X 1948   4.014   3.603   2.981
   15SAPS   H3Y 1949   3.959   3.753   2.908
   15SAPS   C34 1950   4.111   3.782   3.064
   15SAPS   H4X 1951   4.140   3.885   3.034
   15SAPS   H4Y 1952   4.203   3.742   3.112
   15SAPS   C35 1953   4.005   3.812   3.174
   15SAPS   H5X 1954   3.944   3.719   3.187
   15SAPS   H5Y 1955   3.935   3.891   3.141
   15SAPS   C36 1956   4.063   3.861   3.307
   15SAPS   H6X 1957   4.171   3.880   3.291
   15SAPS   H6Y 1958   4.048   3.791   3.392
   15SAPS   C37 1959   3.996   3.990   3.359
   15SAPS   H7X 1960   3.885   3.995   3.347
   15SAPS   H7Y 1961   4.026   4.064   3.282
   15SAPS   C38 1962   4.046   4.032   3.497
   15SAPS   H8X 1963   4.146   3.991   3.520
   15SAPS   H8Y 1964   3.972   3.992   3.570
   15SAPS   C39 1965   4.051   4.185   3.515
   15SAPS   H9X 1966   3.952   4.235   3.515
   15SAPS   H9Y 1967   4.109   4.230   3.431
   15SAPS  C310 1968   4.129   4.219   3.644
   15SAPS  H10X 1969   4.179   4.318   3.633
   15SAPS  H10Y 1970   4.207   4.142   3.663
   15SAPS  C311 1971   4.044   4.206   3.772
   15SAPS  H11X 1972   3.992   4.108   3.772
   15SAPS  H11Y 1973   3.953   4.269   3.761
   15SAPS  C312 1974   4.117   4.221   3.910
   15SAPS  H12X 1975   4.167   4.319   3.922
   15SAPS  H12Y 1976   4.185   4.136   3.930
   15SAPS  C313 1977   4.017   4.208   4.022
   15SAPS  H13X 1978   4.063   4.192   4.122
   15SAPS  H13Y 1979   3.964   4.111   4.006
   15SAPS  C314 1980   3.919   4.328   4.031
   15SAPS  H14X 1981   3.852   4.304   4.116
   15SAPS  H14Y 1982   3.862   4.338   3.936
   15SAPS  C315 1983   3.999   4.453   4.073
   15SAPS  H15X 1984   3.922   4.531   4.053
   15SAPS  H15Y 1985   4.087   4.475   4.009
   15SAPS  C316 1986   4.039   4.440   4.218
   15SAPS  H16X 1987   4.134   4.382   4.220
   15SAPS  H16Y 1988   3.968   4.387   4.286
   15SAPS  C317 1989   4.069   4.578   4.282
   15SAPS  H17X 1990   4.128   4.641   4.213
   15SAPS  H17Y 1991   4.137   4.559   4.367
   15SAPS  C318 1992   3.959   4.658   4.350
   15SAPS  H18X 1993   3.987   4.754   4.400
   15SAPS  H18Y 1994   3.914   4.584   4.420
   15SAPS  H18Z 1995   3.891   4.692   4.269
   16SAPS     N 1996   5.981   4.137   1.997
   16SAPS   HN1 1997   5.982   4.223   1.938
   16SAPS   HN2 1998   5.885   4.107   2.023
   16SAPS   HN3 1999   6.046   4.157   2.075
   16SAPS   C12 2000   6.027   4.022   1.914
   16SAPS  H12A 2001   5.936   3.997   1.862
   16SAPS   C13 2002   6.152   4.042   1.815
   16SAPS  O13A 2003   6.215   4.149   1.820
   16SAPS  O13B 2004   6.185   3.949   1.737
   16SAPS   C11 2005   6.068   3.908   2.010
   16SAPS  H11A 2006   6.156   3.925   2.076
   16SAPS  H11B 2007   6.100   3.822   1.947
   16SAPS     P 2008   5.975   3.756   2.195
   16SAPS   O13 2009   5.915   3.628   2.147
   16SAPS   O14 2010   6.119   3.757   2.245
   16SAPS   O12 2011   5.957   3.867   2.083
   16SAPS   O11 2012   5.896   3.814   2.323
   16SAPS    C1 2013   5.913   3.954   2.362
   16SAPS    HA 2014   6.017   3.992   2.356
   16SAPS    HB 2015   5.849   4.024   2.306
   16SAPS    C2 2016   5.880   3.984   2.514
   16SAPS    HS 2017   5.866   4.094   2.518
   16SAPS   O21 2018   5.986   3.940   2.603
   16SAPS   C21 2019   6.033   4.023   2.697
   16SAPS   O22 2020   5.996   4.138   2.714
   16SAPS   C22 2021   6.132   3.943   2.764
   16SAPS   H2R 2022   6.191   3.884   2.691
   16SAPS   H2S 2023   6.204   4.013   2.812
   16SAPS    C3 2024   5.748   3.919   2.550
   16SAPS    HX 2025   5.771   3.812   2.568
   16SAPS    HY 2026   5.673   3.941   2.471
   16SAPS   O31 2027   5.702   3.954   2.679
   16SAPS   C31 2028   5.669   4.086   2.703
   16SAPS   O32 2029   5.670   4.167   2.612
   16SAPS   C32 2030   5.645   4.111   2.846
   16SAPS   H2X 2031   5.722   4.062   2.909
   16SAPS   H2Y 2032   5.551   4.060   2.875
   16SAPS   C23 2033   6.078   3.853   2.873
   16SAPS   H3R 2034   6.002   3.784   2.831
   16SAPS   H3S 2035   6.034   3.923   2.947
   16SAPS   C24 2036   6.189   3.769   2.935
   16SAPS   H4R 2037   6.232   3.715   2.848
   16SAPS   H4S 2038   6.144   3.696   3.006
   16SAPS   C25 2039   6.297   3.847   3.004
   16SAPS   H5R 2040   6.355   3.893   2.923
   16SAPS   C26 2041   6.299   3.889   3.129
   16SAPS   H6R 2042   6.383   3.954   3.159
   16SAPS   C27 2043   6.209   3.841   3.248
   16SAPS   H7R 2044   6.262   3.769   3.313
   16SAPS   H7S 2045   6.127   3.780   3.205
   16SAPS   C28 2046   6.168   3.953   3.339
   16SAPS   H8R 2047   6.098   4.024   3.293
   16SAPS   C29 2048   6.189   3.977   3.472
   16SAPS   H9R 2049   6.148   4.068   3.518
   16SAPS  C210 2050   6.263   3.889   3.568
   16SAPS  H10R 2051   6.372   3.909   3.560
   16SAPS  H10S 2052   6.254   3.780   3.547
   16SAPS  C211 2053   6.234   3.912   3.713
   16SAPS  H11R 2054   6.186   4.007   3.742
   16SAPS  C212 2055   6.278   3.830   3.807
   16SAPS  H12R 2056   6.253   3.859   3.910
   16SAPS  C213 2057   6.369   3.717   3.790
   16SAPS  H13R 2058   6.473   3.740   3.822
   16SAPS  H13S 2059   6.385   3.698   3.682
   16SAPS  C214 2060   6.321   3.587   3.841
   16SAPS  H14R 2061   6.213   3.571   3.834
   16SAPS  C215 2062   6.402   3.482   3.861
   16SAPS  H15R 2063   6.358   3.381   3.868
   16SAPS  C216 2064   6.555   3.485   3.859
   16SAPS  H16R 2065   6.591   3.533   3.766
   16SAPS  H16S 2066   6.600   3.384   3.851
   16SAPS  C217 2067   6.622   3.542   3.981
   16SAPS  H17R 2068   6.601   3.482   4.073
   16SAPS  H17S 2069   6.589   3.643   4.013
   16SAPS  C218 2070   6.776   3.545   3.962
   16SAPS  H18R 2071   6.813   3.580   3.864
   16SAPS  H18S 2072   6.818   3.442   3.969
   16SAPS  C219 2073   6.837   3.621   4.080
   16SAPS  H19R 2074   6.795   3.586   4.177
   16SAPS  H19S 2075   6.815   3.729   4.067
   16SAPS  C220 2076   0.135   3.610   4.085
   16SAPS  H20R 2077   0.191   3.677   4.154
   16SAPS  H20S 2078   0.178   3.627   3.984
   16SAPS  H20T 2079   0.149   3.504   4.115
   16SAPS   C33 2080   5.619   4.258   2.880
   16SAPS   H3X 2081   5.567   4.260   2.978
   16SAPS   H3Y 2082   5.558   4.310   2.803
   16SAPS   C34 2083   5.750   4.341   2.887
   16SAPS   H4X 2084   5.800   4.359   2.790
   16SAPS   H4Y 2085   5.818   4.273   2.942
   16SAPS   C35 2086   5.733   4.476   2.963
   16SAPS   H5X 2087   5.658   4.533   2.904
   16SAPS   H5Y 2088   5.830   4.531   2.963
   16SAPS   C36 2089   5.698   4.455   3.114
   16SAPS   H6X 2090   5.774   4.388   3.159
   16SAPS   H6Y 2091   5.594   4.414   3.120
   16SAPS   C37 2092   5.709   4.592   3.178
   16SAPS   H7X 2093   5.643   4.665   3.126
   16SAPS   H7Y 2094   5.806   4.634   3.143
   16SAPS   C38 2095   5.697   4.604   3.332
   16SAPS   H8X 2096   5.695   4.711   3.363
   16SAPS   H8Y 2097   5.791   4.559   3.371
   16SAPS   C39 2098   5.562   4.534   3.382
   16SAPS   H9X 2099   5.574   4.428   3.351
   16SAPS   H9Y 2100   5.481   4.586   3.326
   16SAPS  C310 2101   5.548   4.537   3.538
   16SAPS  H10X 2102   5.530   4.636   3.586
   16SAPS  H10Y 2103   5.645   4.496   3.573
   16SAPS  C311 2104   5.444   4.441   3.592
   16SAPS  H11X 2105   5.484   4.337   3.582
   16SAPS  H11Y 2106   5.347   4.444   3.539
   16SAPS  C312 2107   5.438   4.442   3.745
   16SAPS  H12X 2108   5.384   4.538   3.761
   16SAPS  H12Y 2109   5.538   4.447   3.794
   16SAPS  C313 2110   5.337   4.335   3.792
   16SAPS  H13X 2111   5.365   4.232   3.761
   16SAPS  H13Y 2112   5.244   4.340   3.732
   16SAPS  C314 2113   5.327   4.325   3.942
   16SAPS  H14X 2114   5.244   4.256   3.967
   16SAPS  H14Y 2115   5.301   4.426   3.980
   16SAPS  C315 2116   5.455   4.287   4.025
   16SAPS  H15X 2117   5.519   4.229   3.956
   16SAPS  H15Y 2118   5.419   4.226   4.111
   16SAPS  C316 2119   5.515   4.414   4.088
   16SAPS  H16X 2120   5.446   4.464   4.159
   16SAPS  H16Y 2121   5.550   4.480   4.007
   16SAPS  C317 2122   5.629   4.392   4.193
   16SAPS  H17X 2123   5.678   4.492   4.192
   16SAPS  H17Y 2124   5.696   4.315   4.148
   16SAPS  C318 2125   5.572   4.361   4.329
   16SAPS  H18X 2126   5.526   4.452   4.375
   16SAPS  H18Y 2127   5.650   4.329   4.401
   16SAPS  H18Z 2128   5.489   4.288   4.334
   17SAPS     N 2129   1.781   1.971   2.229
   17SAPS   HN1 2130   1.841   2.051   2.258
   17SAPS   HN2 2131   1.734   1.925   2.309
   17SAPS   HN3 2132   1.844   1.900   2.188
   17SAPS   C12 2133   1.688   2.023   2.117
   17SAPS  H12A 2134   1.634   2.105   2.163
   17SAPS   C13 2135   1.777   2.080   2.001
   17SAPS  O13A 2136   1.897   2.048   2.001
   17SAPS  O13B 2137   1.722   2.131   1.900
   17SAPS   C11 2138   1.594   1.910   2.066
   17SAPS  H11A 2139   1.650   1.824   2.024
   17SAPS  H11B 2140   1.542   1.941   1.972
   17SAPS     P 2141   1.362   1.932   2.187
   17SAPS   O13 2142   1.344   2.039   2.083
   17SAPS   O14 2143   1.271   1.813   2.181
   17SAPS   O12 2144   1.511   1.866   2.171
   17SAPS   O11 2145   1.349   2.005   2.327
   17SAPS    C1 2146   1.460   2.042   2.409
   17SAPS    HA 2147   1.555   2.019   2.356
   17SAPS    HB 2148   1.451   2.151   2.430
   17SAPS    C2 2149   1.468   1.956   2.541
   17SAPS    HS 2150   1.562   1.987   2.591
   17SAPS   O21 2151   1.467   1.817   2.526
   17SAPS   C21 2152   1.568   1.766   2.459
   17SAPS   O22 2153   1.671   1.828   2.432
   17SAPS   C22 2154   1.544   1.617   2.424
   17SAPS   H2R 2155   1.460   1.607   2.352
   17SAPS   H2S 2156   1.633   1.578   2.371
   17SAPS    C3 2157   1.357   1.990   2.638
   17SAPS    HX 2158   1.263   1.967   2.584
   17SAPS    HY 2159   1.356   2.097   2.671
   17SAPS   O31 2160   1.370   1.902   2.753
   17SAPS   C31 2161   1.307   1.788   2.761
   17SAPS   O32 2162   1.216   1.738   2.697
   17SAPS   C32 2163   1.376   1.714   2.882
   17SAPS   H2X 2164   1.383   1.791   2.962
   17SAPS   H2Y 2165   1.470   1.680   2.834
   17SAPS   C23 2166   1.526   1.530   2.557
   17SAPS   H3R 2167   1.476   1.440   2.516
   17SAPS   H3S 2168   1.457   1.572   2.633
   17SAPS   C24 2169   1.659   1.470   2.623
   17SAPS   H4R 2170   1.726   1.552   2.655
   17SAPS   H4S 2171   1.717   1.423   2.541
   17SAPS   C25 2172   1.647   1.361   2.725
   17SAPS   H5R 2173   1.608   1.272   2.673
   17SAPS   C26 2174   1.691   1.360   2.854
   17SAPS   H6R 2175   1.685   1.266   2.911
   17SAPS   C27 2176   1.764   1.473   2.922
   17SAPS   H7R 2177   1.694   1.560   2.925
   17SAPS   H7S 2178   1.842   1.493   2.846
   17SAPS   C28 2179   1.820   1.436   3.058
   17SAPS   H8R 2180   1.896   1.356   3.058
   17SAPS   C29 2181   1.790   1.481   3.180
   17SAPS   H9R 2182   1.851   1.448   3.266
   17SAPS  C210 2183   1.686   1.584   3.224
   17SAPS  H10R 2184   1.641   1.636   3.138
   17SAPS  H10S 2185   1.738   1.668   3.274
   17SAPS  C211 2186   1.580   1.530   3.321
   17SAPS  H11R 2187   1.488   1.490   3.276
   17SAPS  C212 2188   1.597   1.540   3.455
   17SAPS  H12R 2189   1.516   1.516   3.526
   17SAPS  C213 2190   1.717   1.591   3.530
   17SAPS  H13R 2191   1.684   1.665   3.606
   17SAPS  H13S 2192   1.796   1.634   3.465
   17SAPS  C214 2193   1.778   1.469   3.594
   17SAPS  H14R 2194   1.832   1.407   3.520
   17SAPS  C215 2195   1.780   1.440   3.724
   17SAPS  H15R 2196   1.823   1.345   3.759
   17SAPS  C216 2197   1.709   1.524   3.823
   17SAPS  H16R 2198   1.600   1.518   3.803
   17SAPS  H16S 2199   1.745   1.629   3.817
   17SAPS  C217 2200   1.733   1.473   3.969
   17SAPS  H17R 2201   1.843   1.461   3.983
   17SAPS  H17S 2202   1.693   1.371   3.984
   17SAPS  C218 2203   1.675   1.567   4.074
   17SAPS  H18R 2204   1.709   1.671   4.055
   17SAPS  H18S 2205   1.721   1.554   4.174
   17SAPS  C219 2206   1.521   1.558   4.084
   17SAPS  H19R 2207   1.498   1.453   4.114
   17SAPS  H19S 2208   1.467   1.575   3.988
   17SAPS  C220 2209   1.478   1.662   4.182
   17SAPS  H20R 2210   1.550   1.672   4.267
   17SAPS  H20S 2211   1.381   1.639   4.231
   17SAPS  H20T 2212   1.468   1.766   4.144
   17SAPS   C33 2213   1.300   1.581   2.915
   17SAPS   H3X 2214   1.366   1.528   2.987
   17SAPS   H3Y 2215   1.274   1.522   2.824
   17SAPS   C34 2216   1.165   1.599   2.979
   17SAPS   H4X 2217   1.130   1.501   3.020
   17SAPS   H4Y 2218   1.091   1.621   2.899
   17SAPS   C35 2219   1.147   1.703   3.095
   17SAPS   H5X 2220   1.040   1.717   3.119
   17SAPS   H5Y 2221   1.174   1.800   3.047
   17SAPS   C36 2222   1.239   1.680   3.211
   17SAPS   H6X 2223   1.348   1.695   3.193
   17SAPS   H6Y 2224   1.215   1.577   3.245
   17SAPS   C37 2225   1.197   1.768   3.322
   17SAPS   H7X 2226   1.086   1.768   3.328
   17SAPS   H7Y 2227   1.229   1.872   3.299
   17SAPS   C38 2228   1.265   1.734   3.452
   17SAPS   H8X 2229   1.375   1.750   3.445
   17SAPS   H8Y 2230   1.238   1.627   3.468
   17SAPS   C39 2231   1.213   1.799   3.582
   17SAPS   H9X 2232   1.113   1.756   3.602
   17SAPS   H9Y 2233   1.215   1.908   3.560
   17SAPS  C310 2234   1.311   1.768   3.700
   17SAPS  H10X 2235   1.409   1.812   3.672
   17SAPS  H10Y 2236   1.315   1.659   3.719
   17SAPS  C311 2237   1.270   1.830   3.837
   17SAPS  H11X 2238   1.256   1.940   3.831
   17SAPS  H11Y 2239   1.347   1.795   3.910
   17SAPS  C312 2240   1.142   1.772   3.895
   17SAPS  H12X 2241   1.150   1.662   3.879
   17SAPS  H12Y 2242   1.053   1.808   3.840
   17SAPS  C313 2243   1.125   1.789   4.045
   17SAPS  H13X 2244   1.198   1.723   4.096
   17SAPS  H13Y 2245   1.025   1.746   4.070
   17SAPS  C314 2246   1.139   1.933   4.091
   17SAPS  H14X 2247   1.068   1.996   4.032
   17SAPS  H14Y 2248   1.239   1.980   4.076
   17SAPS  C315 2249   1.090   1.949   4.236
   17SAPS  H15X 2250   1.132   1.873   4.306
   17SAPS  H15Y 2251   0.982   1.929   4.223
   17SAPS  C316 2252   1.125   2.085   4.305
   17SAPS  H16X 2253   1.234   2.105   4.305
   17SAPS  H16Y 2254   1.103   2.079   4.414
   17SAPS  C317 2255   1.053   2.204   4.243
   17SAPS  H17X 2256   0.946   2.181   4.257
   17SAPS  H17Y 2257   1.059   2.207   4.132
   17SAPS  C318 2258   1.096   2.339   4.306
   17SAPS  H18X 2259   1.054   2.426   4.249
   17SAPS  H18Y 2260   1.206   2.352   4.309
   17SAPS  H18Z 2261   1.056   2.360   4.407
   18SAPS     N 2262   4.358   2.218   2.031
   18SAPS   HN1 2263   4.272   2.226   1.972
   18SAPS   HN2 2264   4.450   2.220   1.982
   18SAPS   HN3 2265   4.354   2.118   2.059
   18SAPS   C12 2266   4.338   2.297   2.155
   18SAPS  H12A 2267   4.416   2.268   2.224
   18SAPS   C13 2268   4.339   2.452   2.129
   18SAPS  O13A 2269   4.314   2.495   2.013
   18SAPS  O13B 2270   4.324   2.528   2.229
   18SAPS   C11 2271   4.194   2.253   2.215
   18SAPS  H11A 2272   4.122   2.273   2.133
   18SAPS  H11B 2273   4.165   2.318   2.300
   18SAPS     P 2274   4.079   2.051   2.323
   18SAPS   O13 2275   3.961   2.133   2.304
   18SAPS   O14 2276   4.076   1.905   2.276
   18SAPS   O12 2277   4.202   2.110   2.247
   18SAPS   O11 2278   4.130   2.053   2.473
   18SAPS    C1 2279   4.254   2.055   2.531
   18SAPS    HA 2280   4.278   1.949   2.552
   18SAPS    HB 2281   4.327   2.101   2.461
   18SAPS    C2 2282   4.258   2.147   2.655
   18SAPS    HS 2283   4.360   2.134   2.698
   18SAPS   O21 2284   4.160   2.102   2.756
   18SAPS   C21 2285   4.197   2.004   2.834
   18SAPS   O22 2286   4.298   1.937   2.836
   18SAPS   C22 2287   4.079   1.992   2.940
   18SAPS   H2R 2288   4.032   2.092   2.952
   18SAPS   H2S 2289   3.999   1.933   2.890
   18SAPS    C3 2290   4.256   2.303   2.625
   18SAPS    HX 2291   4.160   2.339   2.583
   18SAPS    HY 2292   4.335   2.319   2.548
   18SAPS   O31 2293   4.292   2.379   2.741
   18SAPS   C31 2294   4.420   2.400   2.751
   18SAPS   O32 2295   4.508   2.349   2.683
   18SAPS   C32 2296   4.443   2.482   2.867
   18SAPS   H2X 2297   4.355   2.548   2.886
   18SAPS   H2Y 2298   4.533   2.543   2.843
   18SAPS   C23 2299   4.121   1.932   3.077
   18SAPS   H3R 2300   4.174   1.837   3.057
   18SAPS   H3S 2301   4.027   1.917   3.134
   18SAPS   C24 2302   4.211   2.022   3.164
   18SAPS   H4R 2303   4.162   2.115   3.198
   18SAPS   H4S 2304   4.304   2.051   3.111
   18SAPS   C25 2305   4.254   1.926   3.270
   18SAPS   H5R 2306   4.289   1.829   3.233
   18SAPS   C26 2307   4.239   1.931   3.403
   18SAPS   H6R 2308   4.283   1.849   3.461
   18SAPS   C27 2309   4.175   2.043   3.485
   18SAPS   H7R 2310   4.075   2.051   3.436
   18SAPS   H7S 2311   4.221   2.143   3.468
   18SAPS   C28 2312   4.156   2.016   3.631
   18SAPS   H8R 2313   4.113   1.916   3.651
   18SAPS   C29 2314   4.188   2.104   3.732
   18SAPS   H9R 2315   4.171   2.074   3.837
   18SAPS  C210 2316   4.260   2.237   3.705
   18SAPS  H10R 2317   4.213   2.293   3.622
   18SAPS  H10S 2318   4.361   2.224   3.662
   18SAPS  C211 2319   4.270   2.340   3.816
   18SAPS  H11R 2320   4.220   2.433   3.786
   18SAPS  C212 2321   4.322   2.322   3.940
   18SAPS  H12R 2322   4.329   2.405   4.012
   18SAPS  C213 2323   4.406   2.201   3.983
   18SAPS  H13R 2324   4.427   2.132   3.899
   18SAPS  H13S 2325   4.340   2.149   4.055
   18SAPS  C214 2326   4.536   2.237   4.049
   18SAPS  H14R 2327   4.623   2.255   3.985
   18SAPS  C215 2328   4.553   2.252   4.182
   18SAPS  H15R 2329   4.655   2.269   4.219
   18SAPS  C216 2330   4.440   2.251   4.287
   18SAPS  H16R 2331   4.370   2.175   4.248
   18SAPS  H16S 2332   4.395   2.352   4.304
   18SAPS  C217 2333   4.473   2.196   4.425
   18SAPS  H17R 2334   4.473   2.086   4.406
   18SAPS  H17S 2335   4.384   2.205   4.491
   18SAPS  C218 2336   4.594   2.260   4.487
   18SAPS  H18R 2337   4.590   2.371   4.482
   18SAPS  H18S 2338   4.693   2.225   4.449
   18SAPS  C219 2339   4.607   2.225   4.637
   18SAPS  H19R 2340   4.536   2.285   4.697
   18SAPS  H19S 2341   4.710   2.257   4.666
   18SAPS  C220 2342   4.589   2.079   4.667
   18SAPS  H20R 2343   4.562   2.067   4.774
   18SAPS  H20S 2344   4.682   2.023   4.642
   18SAPS  H20T 2345   4.507   2.031   4.610
   18SAPS   C33 2346   4.456   2.389   2.983
   18SAPS   H3X 2347   4.550   2.332   2.987
   18SAPS   H3Y 2348   4.377   2.312   2.995
   18SAPS   C34 2349   4.454   2.464   3.124
   18SAPS   H4X 2350   4.352   2.496   3.153
   18SAPS   H4Y 2351   4.513   2.557   3.109
   18SAPS   C35 2352   4.515   2.393   3.243
   18SAPS   H5X 2353   4.619   2.358   3.222
   18SAPS   H5Y 2354   4.458   2.298   3.255
   18SAPS   C36 2355   4.522   2.469   3.374
   18SAPS   H6X 2356   4.549   2.393   3.451
   18SAPS   H6Y 2357   4.417   2.496   3.399
   18SAPS   C37 2358   4.594   2.601   3.385
   18SAPS   H7X 2359   4.547   2.676   3.318
   18SAPS   H7Y 2360   4.702   2.590   3.360
   18SAPS   C38 2361   4.583   2.662   3.528
   18SAPS   H8X 2362   4.485   2.628   3.567
   18SAPS   H8Y 2363   4.586   2.773   3.520
   18SAPS   C39 2364   4.693   2.614   3.610
   18SAPS   H9X 2365   4.788   2.663   3.578
   18SAPS   H9Y 2366   4.711   2.504   3.609
   18SAPS  C310 2367   4.666   2.648   3.761
   18SAPS  H10X 2368   4.570   2.599   3.790
   18SAPS  H10Y 2369   4.648   2.758   3.767
   18SAPS  C311 2370   4.773   2.609   3.869
   18SAPS  H11X 2371   4.785   2.499   3.862
   18SAPS  H11Y 2372   4.736   2.652   3.965
   18SAPS  C312 2373   4.911   2.676   3.848
   18SAPS  H12X 2374   4.909   2.786   3.864
   18SAPS  H12Y 2375   4.937   2.664   3.741
   18SAPS  C313 2376   5.023   2.628   3.943
   18SAPS  H13X 2377   5.013   2.518   3.949
   18SAPS  H13Y 2378   4.995   2.674   4.040
   18SAPS  C314 2379   5.156   2.683   3.895
   18SAPS  H14X 2380   5.152   2.787   3.858
   18SAPS  H14Y 2381   5.185   2.620   3.809
   18SAPS  C315 2382   5.274   2.676   4.003
   18SAPS  H15X 2383   5.368   2.671   3.945
   18SAPS  H15Y 2384   5.258   2.579   4.056
   18SAPS  C316 2385   5.272   2.796   4.097
   18SAPS  H16X 2386   5.175   2.798   4.151
   18SAPS  H16Y 2387   5.289   2.896   4.051
   18SAPS  C317 2388   5.385   2.785   4.210
   18SAPS  H17X 2389   5.369   2.875   4.274
   18SAPS  H17Y 2390   5.484   2.796   4.160
   18SAPS  C318 2391   5.381   2.659   4.298
   18SAPS  H18X 2392   5.424   2.574   4.241
   18SAPS  H18Y 2393   5.279   2.619   4.317
   18SAPS  H18Z 2394   5.434   2.656   4.396
   19SAPS     N 2395   4.495   4.290   1.950
   19SAPS   HN1 2396   4.537   4.196   1.964
   19SAPS   HN2 2397   4.559   4.339   1.884
   19SAPS   HN3 2398   4.507   4.333   2.045
   19SAPS   C12 2399   4.344   4.290   1.918
   19SAPS  H12A 2400   4.324   4.384   1.868
   19SAPS   C13 2401   4.293   4.185   1.820
   19SAPS  O13A 2402   4.374   4.105   1.770
   19SAPS  O13B 2403   4.175   4.189   1.770
   19SAPS   C11 2404   4.274   4.287   2.056
   19SAPS  H11A 2405   4.290   4.187   2.103
   19SAPS  H11B 2406   4.168   4.300   2.027
   19SAPS     P 2407   4.283   4.544   2.134
   19SAPS   O13 2408   4.393   4.630   2.155
   19SAPS   O14 2409   4.204   4.560   2.004
   19SAPS   O12 2410   4.321   4.391   2.144
   19SAPS   O11 2411   4.187   4.571   2.262
   19SAPS    C1 2412   4.141   4.473   2.352
   19SAPS    HA 2413   4.032   4.485   2.369
   19SAPS    HB 2414   4.160   4.370   2.315
   19SAPS    C2 2415   4.222   4.473   2.488
   19SAPS    HS 2416   4.164   4.407   2.556
   19SAPS   O21 2417   4.229   4.610   2.540
   19SAPS   C21 2418   4.144   4.643   2.641
   19SAPS   O22 2419   4.066   4.572   2.697
   19SAPS   C22 2420   4.168   4.785   2.675
   19SAPS   H2R 2421   4.228   4.793   2.768
   19SAPS   H2S 2422   4.235   4.817   2.593
   19SAPS    C3 2423   4.368   4.415   2.479
   19SAPS    HX 2424   4.401   4.496   2.410
   19SAPS    HY 2425   4.369   4.322   2.418
   19SAPS   O31 2426   4.438   4.402   2.600
   19SAPS   C31 2427   4.564   4.427   2.592
   19SAPS   O32 2428   4.615   4.491   2.501
   19SAPS   C32 2429   4.641   4.377   2.721
   19SAPS   H2X 2430   4.749   4.368   2.696
   19SAPS   H2Y 2431   4.602   4.275   2.741
   19SAPS   C23 2432   4.034   4.869   2.694
   19SAPS   H3R 2433   3.980   4.859   2.598
   19SAPS   H3S 2434   4.052   4.979   2.703
   19SAPS   C24 2435   3.939   4.843   2.820
   19SAPS   H4R 2436   3.996   4.869   2.911
   19SAPS   H4S 2437   3.910   4.735   2.823
   19SAPS   C25 2438   3.819   4.937   2.800
   19SAPS   H5R 2439   3.795   4.961   2.696
   19SAPS   C26 2440   3.745   4.999   2.895
   19SAPS   H6R 2441   3.667   5.068   2.858
   19SAPS   C27 2442   3.739   4.995   3.049
   19SAPS   H7R 2443   3.727   4.891   3.084
   19SAPS   H7S 2444   3.654   5.056   3.087
   19SAPS   C28 2445   3.856   5.063   3.114
   19SAPS   H8R 2446   3.924   5.106   3.040
   19SAPS   C29 2447   3.873   5.084   3.247
   19SAPS   H9R 2448   3.976   5.119   3.267
   19SAPS  C210 2449   3.791   5.034   3.356
   19SAPS  H10R 2450   3.849   4.989   3.440
   19SAPS  H10S 2451   3.728   4.952   3.315
   19SAPS  C211 2452   3.686   5.125   3.420
   19SAPS  H11R 2453   3.595   5.139   3.360
   19SAPS  C212 2454   3.706   5.187   3.538
   19SAPS  H12R 2455   3.614   5.238   3.571
   19SAPS  C213 2456   3.830   5.176   3.626
   19SAPS  H13R 2457   3.919   5.201   3.565
   19SAPS  H13S 2458   3.842   5.071   3.659
   19SAPS  C214 2459   3.835   5.263   3.754
   19SAPS  H14R 2460   3.915   5.339   3.751
   19SAPS  C215 2461   3.756   5.243   3.861
   19SAPS  H15R 2462   3.768   5.318   3.941
   19SAPS  C216 2463   3.649   5.143   3.871
   19SAPS  H16R 2464   3.685   5.042   3.844
   19SAPS  H16S 2465   3.570   5.164   3.795
   19SAPS  C217 2466   3.578   5.142   4.009
   19SAPS  H17R 2467   3.487   5.081   3.991
   19SAPS  H17S 2468   3.566   5.249   4.036
   19SAPS  C218 2469   3.668   5.067   4.107
   19SAPS  H18R 2470   3.759   5.022   4.062
   19SAPS  H18S 2471   3.616   4.972   4.133
   19SAPS  C219 2472   3.675   5.156   4.235
   19SAPS  H19R 2473   3.579   5.211   4.233
   19SAPS  H19S 2474   3.757   5.230   4.226
   19SAPS  C220 2475   3.704   5.095   4.368
   19SAPS  H20R 2476   3.806   5.051   4.363
   19SAPS  H20S 2477   3.626   5.023   4.400
   19SAPS  H20T 2478   3.702   5.171   4.450
   19SAPS   C33 2479   4.626   4.456   2.849
   19SAPS   H3X 2480   4.650   4.560   2.820
   19SAPS   H3Y 2481   4.700   4.414   2.921
   19SAPS   C34 2482   4.480   4.460   2.910
   19SAPS   H4X 2483   4.447   4.354   2.921
   19SAPS   H4Y 2484   4.426   4.503   2.823
   19SAPS   C35 2485   4.468   4.547   3.032
   19SAPS   H5X 2486   4.363   4.537   3.066
   19SAPS   H5Y 2487   4.481   4.656   3.014
   19SAPS   C36 2488   4.545   4.512   3.165
   19SAPS   H6X 2489   4.655   4.513   3.150
   19SAPS   H6Y 2490   4.521   4.407   3.194
   19SAPS   C37 2491   4.500   4.596   3.286
   19SAPS   H7X 2492   4.391   4.581   3.299
   19SAPS   H7Y 2493   4.521   4.701   3.255
   19SAPS   C38 2494   4.554   4.569   3.425
   19SAPS   H8X 2495   4.665   4.569   3.415
   19SAPS   H8Y 2496   4.535   4.467   3.465
   19SAPS   C39 2497   4.509   4.664   3.536
   19SAPS   H9X 2498   4.398   4.658   3.532
   19SAPS   H9Y 2499   4.535   4.771   3.522
   19SAPS  C310 2500   4.572   4.611   3.666
   19SAPS  H10X 2501   4.683   4.607   3.656
   19SAPS  H10Y 2502   4.529   4.510   3.684
   19SAPS  C311 2503   4.551   4.711   3.781
   19SAPS  H11X 2504   4.441   4.725   3.788
   19SAPS  H11Y 2505   4.607   4.802   3.748
   19SAPS  C312 2506   4.602   4.667   3.914
   19SAPS  H12X 2507   4.593   4.747   3.990
   19SAPS  H12Y 2508   4.712   4.647   3.921
   19SAPS  C313 2509   4.514   4.551   3.972
   19SAPS  H13X 2510   4.519   4.474   3.893
   19SAPS  H13Y 2511   4.412   4.591   3.990
   19SAPS  C314 2512   4.563   4.492   4.106
   19SAPS  H14X 2513   4.650   4.423   4.108
   19SAPS  H14Y 2514   4.472   4.434   4.134
   19SAPS  C315 2515   4.584   4.593   4.220
   19SAPS  H15X 2516   4.500   4.666   4.228
   19SAPS  H15Y 2517   4.679   4.649   4.211
   19SAPS  C316 2518   4.600   4.535   4.368
   19SAPS  H16X 2519   4.513   4.475   4.400
   19SAPS  H16Y 2520   4.603   4.624   4.435
   19SAPS  C317 2521   4.724   4.459   4.385
   19SAPS  H17X 2522   4.798   4.537   4.414
   19SAPS  H17Y 2523   4.764   4.406   4.295
   19SAPS  C318 2524   4.731   4.359   4.506
   19SAPS  H18X 2525   4.660   4.275   4.490
   19SAPS  H18Y 2526   4.704   4.414   4.598
   19SAPS  H18Z 2527   4.833   4.318   4.526
   20SAPS     N 2528   5.014   5.439   2.192
   20SAPS   HN1 2529   5.085   5.366   2.173
   20SAPS   HN2 2530   5.054   5.515   2.251
   20SAPS   HN3 2531   4.929   5.397   2.235
   20SAPS   C12 2532   4.960   5.488   2.059
   20SAPS  H12A 2533   5.040   5.534   2.004
   20SAPS   C13 2534   4.902   5.375   1.965
   20SAPS  O13A 2535   4.924   5.258   2.003
   20SAPS  O13B 2536   4.854   5.391   1.849
   20SAPS   C11 2537   4.843   5.595   2.096
   20SAPS  H11A 2538   4.760   5.545   2.150
   20SAPS  H11B 2539   4.805   5.623   1.995
   20SAPS     P 2540   4.828   5.837   2.207
   20SAPS   O13 2541   4.918   5.918   2.289
   20SAPS   O14 2542   4.784   5.900   2.081
   20SAPS   O12 2543   4.901   5.701   2.167
   20SAPS   O11 2544   4.700   5.794   2.282
   20SAPS    C1 2545   4.698   5.687   2.379
   20SAPS    HA 2546   4.600   5.635   2.371
   20SAPS    HB 2547   4.787   5.622   2.364
   20SAPS    C2 2548   4.687   5.739   2.530
   20SAPS    HS 2549   4.586   5.783   2.546
   20SAPS   O21 2550   4.787   5.839   2.547
   20SAPS   C21 2551   4.746   5.959   2.591
   20SAPS   O22 2552   4.630   5.986   2.616
   20SAPS   C22 2553   4.858   6.064   2.590
   20SAPS   H2R 2554   4.956   6.018   2.568
   20SAPS   H2S 2555   4.844   6.133   2.505
   20SAPS    C3 2556   4.707   5.625   2.630
   20SAPS    HX 2557   4.693   5.663   2.733
   20SAPS    HY 2558   4.810   5.590   2.610
   20SAPS   O31 2559   4.634   5.500   2.606
   20SAPS   C31 2560   4.503   5.515   2.625
   20SAPS   O32 2561   4.447   5.602   2.689
   20SAPS   C32 2562   4.420   5.400   2.562
   20SAPS   H2X 2563   4.484   5.314   2.592
   20SAPS   H2Y 2564   4.421   5.398   2.451
   20SAPS   C23 2565   4.868   6.140   2.722
   20SAPS   H3R 2566   4.770   6.191   2.731
   20SAPS   H3S 2567   4.945   6.219   2.709
   20SAPS   C24 2568   4.892   6.054   2.849
   20SAPS   H4R 2569   4.989   6.002   2.847
   20SAPS   H4S 2570   4.808   5.981   2.854
   20SAPS   C25 2571   4.895   6.152   2.963
   20SAPS   H5R 2572   4.888   6.258   2.934
   20SAPS   C26 2573   4.917   6.130   3.089
   20SAPS   H6R 2574   4.925   6.216   3.156
   20SAPS   C27 2575   4.954   5.995   3.152
   20SAPS   H7R 2576   5.009   5.930   3.080
   20SAPS   H7S 2577   4.867   5.936   3.187
   20SAPS   C28 2578   5.042   6.012   3.274
   20SAPS   H8R 2579   5.149   6.014   3.249
   20SAPS   C29 2580   5.005   6.025   3.405
   20SAPS   H9R 2581   5.089   6.033   3.475
   20SAPS  C210 2582   4.863   6.033   3.458
   20SAPS  H10R 2583   4.824   5.936   3.497
   20SAPS  H10S 2584   4.796   6.042   3.370
   20SAPS  C211 2585   4.826   6.149   3.544
   20SAPS  H11R 2586   4.784   6.236   3.491
   20SAPS  C212 2587   4.837   6.149   3.679
   20SAPS  H12R 2588   4.799   6.226   3.748
   20SAPS  C213 2589   4.886   6.028   3.760
   20SAPS  H13R 2590   4.913   6.060   3.863
   20SAPS  H13S 2591   4.979   5.987   3.716
   20SAPS  C214 2592   4.794   5.910   3.780
   20SAPS  H14R 2593   4.711   5.908   3.707
   20SAPS  C215 2594   4.795   5.814   3.869
   20SAPS  H15R 2595   4.726   5.732   3.844
   20SAPS  C216 2596   4.875   5.806   3.991
   20SAPS  H16R 2597   4.938   5.897   3.998
   20SAPS  H16S 2598   4.955   5.729   3.983
   20SAPS  C217 2599   4.792   5.767   4.116
   20SAPS  H17R 2600   4.864   5.747   4.198
   20SAPS  H17S 2601   4.749   5.665   4.117
   20SAPS  C218 2602   4.682   5.868   4.155
   20SAPS  H18R 2603   4.614   5.882   4.069
   20SAPS  H18S 2604   4.728   5.968   4.176
   20SAPS  C219 2605   4.608   5.824   4.284
   20SAPS  H19R 2606   4.680   5.813   4.368
   20SAPS  H19S 2607   4.555   5.727   4.271
   20SAPS  C220 2608   4.503   5.926   4.333
   20SAPS  H20R 2609   4.555   6.022   4.355
   20SAPS  H20S 2610   4.456   5.889   4.427
   20SAPS  H20T 2611   4.424   5.944   4.257
   20SAPS   C33 2612   4.270   5.391   2.614
   20SAPS   H3X 2613   4.200   5.357   2.534
   20SAPS   H3Y 2614   4.246   5.499   2.607
   20SAPS   C34 2615   4.254   5.311   2.737
   20SAPS   H4X 2616   4.318   5.348   2.819
   20SAPS   H4Y 2617   4.276   5.203   2.724
   20SAPS   C35 2618   4.108   5.322   2.784
   20SAPS   H5X 2619   4.079   5.234   2.844
   20SAPS   H5Y 2620   4.035   5.324   2.700
   20SAPS   C36 2621   4.078   5.445   2.862
   20SAPS   H6X 2622   3.968   5.451   2.856
   20SAPS   H6Y 2623   4.108   5.540   2.813
   20SAPS   C37 2624   4.102   5.432   3.012
   20SAPS   H7X 2625   4.192   5.494   3.031
   20SAPS   H7Y 2626   4.122   5.326   3.040
   20SAPS   C38 2627   3.976   5.459   3.099
   20SAPS   H8X 2628   3.894   5.388   3.075
   20SAPS   H8Y 2629   3.939   5.561   3.077
   20SAPS   C39 2630   4.002   5.468   3.256
   20SAPS   H9X 2631   4.084   5.539   3.280
   20SAPS   H9Y 2632   4.027   5.364   3.286
   20SAPS  C310 2633   3.880   5.527   3.336
   20SAPS  H10X 2634   3.806   5.446   3.319
   20SAPS  H10Y 2635   3.856   5.627   3.294
   20SAPS  C311 2636   3.900   5.547   3.483
   20SAPS  H11X 2637   3.976   5.628   3.494
   20SAPS  H11Y 2638   3.946   5.462   3.536
   20SAPS  C312 2639   3.772   5.591   3.563
   20SAPS  H12X 2640   3.702   5.506   3.576
   20SAPS  H12Y 2641   3.714   5.670   3.510
   20SAPS  C313 2642   3.814   5.637   3.705
   20SAPS  H13X 2643   3.842   5.745   3.706
   20SAPS  H13Y 2644   3.901   5.578   3.738
   20SAPS  C314 2645   3.706   5.614   3.809
   20SAPS  H14X 2646   3.681   5.507   3.823
   20SAPS  H14Y 2647   3.614   5.663   3.771
   20SAPS  C315 2648   3.743   5.664   3.951
   20SAPS  H15X 2649   3.788   5.766   3.947
   20SAPS  H15Y 2650   3.817   5.590   3.990
   20SAPS  C316 2651   3.613   5.670   4.042
   20SAPS  H16X 2652   3.582   5.564   4.047
   20SAPS  H16Y 2653   3.539   5.730   3.985
   20SAPS  C317 2654   3.634   5.731   4.182
   20SAPS  H17X 2655   3.533   5.758   4.218
   20SAPS  H17Y 2656   3.686   5.828   4.170
   20SAPS  C318 2657   3.703   5.643   4.286
   20SAPS  H18X 2658   3.812   5.629   4.269
   20SAPS  H18Y 2659   3.648   5.547   4.298
   20SAPS  H18Z 2660   3.703   5.696   4.384
   21CHL1    C3 2661   1.948   3.804   6.150
   21CHL1    H3 2662   2.045   3.835   6.106
   21CHL1    O3 2663   1.954   3.771   6.289
   21CHL1   H3' 2664   1.868   3.734   6.310
   21CHL1    C4 2665   1.839   3.905   6.128
   21CHL1   H4A 2666   1.747   3.878   6.184
   21CHL1   H4B 2667   1.877   3.998   6.177
   21CHL1    C5 2668   1.811   3.939   5.980
   21CHL1    C6 2669   1.807   4.063   5.943
   21CHL1    H6 2670   1.805   4.140   6.022
   21CHL1    C7 2671   1.786   4.120   5.802
   21CHL1   H7A 2672   1.708   4.199   5.795
   21CHL1   H7B 2673   1.880   4.161   5.762
   21CHL1    C8 2674   1.746   4.002   5.706
   21CHL1    H8 2675   1.637   3.982   5.712
   21CHL1   C14 2676   1.782   4.046   5.561
   21CHL1   H14 2677   1.893   4.043   5.558
   21CHL1   C15 2678   1.725   4.171   5.502
   21CHL1  H15A 2679   1.619   4.185   5.531
   21CHL1  H15B 2680   1.786   4.260   5.526
   21CHL1   C16 2681   1.736   4.153   5.347
   21CHL1  H16A 2682   1.637   4.161   5.299
   21CHL1  H16B 2683   1.794   4.236   5.302
   21CHL1   C17 2684   1.799   4.014   5.332
   21CHL1   H17 2685   1.909   4.029   5.345
   21CHL1   C13 2686   1.750   3.938   5.460
   21CHL1   C18 2687   1.593   3.925   5.446
   21CHL1  H18A 2688   1.536   4.018   5.424
   21CHL1  H18B 2689   1.567   3.849   5.369
   21CHL1  H18C 2690   1.553   3.889   5.543
   21CHL1   C12 2691   1.816   3.801   5.496
   21CHL1  H12A 2692   1.788   3.717   5.429
   21CHL1  H12B 2693   1.924   3.822   5.505
   21CHL1   C11 2694   1.781   3.752   5.641
   21CHL1  H11A 2695   1.674   3.722   5.633
   21CHL1  H11B 2696   1.848   3.665   5.659
   21CHL1    C9 2697   1.814   3.870   5.733
   21CHL1    H9 2698   1.924   3.889   5.724
   21CHL1   C10 2699   1.803   3.821   5.882
   21CHL1   C19 2700   1.661   3.761   5.900
   21CHL1  H19A 2701   1.632   3.664   5.854
   21CHL1  H19B 2702   1.655   3.737   6.008
   21CHL1  H19C 2703   1.577   3.830   5.876
   21CHL1    C1 2704   1.909   3.714   5.921
   21CHL1   H1A 2705   1.889   3.617   5.870
   21CHL1   H1B 2706   2.006   3.757   5.888
   21CHL1    C2 2707   1.916   3.679   6.068
   21CHL1   H2A 2708   1.995   3.601   6.076
   21CHL1   H2B 2709   1.816   3.641   6.099
   21CHL1   C20 2710   1.775   3.954   5.190
   21CHL1   H20 2711   1.664   3.954   5.182
   21CHL1   C21 2712   1.813   3.804   5.178
   21CHL1  H21A 2713   1.738   3.745   5.235
   21CHL1  H21B 2714   1.913   3.786   5.224
   21CHL1  H21C 2715   1.819   3.775   5.071
   21CHL1   C22 2716   1.834   4.041   5.074
   21CHL1  H22A 2717   1.845   4.147   5.107
   21CHL1  H22B 2718   1.934   4.002   5.047
   21CHL1   C23 2719   1.757   4.031   4.942
   21CHL1  H23A 2720   1.756   3.924   4.911
   21CHL1  H23B 2721   1.652   4.067   4.948
   21CHL1   C24 2722   1.836   4.105   4.831
   21CHL1  H24A 2723   1.843   4.209   4.871
   21CHL1  H24B 2724   1.939   4.064   4.822
   21CHL1   C25 2725   1.774   4.106   4.693
   21CHL1   H25 2726   1.848   4.157   4.628
   21CHL1   C26 2727   1.775   3.963   4.632
   21CHL1  H26A 2728   1.866   3.910   4.667
   21CHL1  H26B 2729   1.688   3.903   4.665
   21CHL1  H26C 2730   1.778   3.961   4.521
   21CHL1   C27 2731   1.637   4.169   4.687
   21CHL1  H27A 2732   1.569   4.097   4.736
   21CHL1  H27B 2733   1.645   4.268   4.738
   21CHL1  H27C 2734   1.608   4.185   4.581
   22CHL1    C3 2735   2.481   1.751   6.312
   22CHL1    H3 2736   2.572   1.808   6.283
   22CHL1    O3 2737   2.492   1.697   6.442
   22CHL1   H3' 2738   2.536   1.612   6.428
   22CHL1    C4 2739   2.354   1.832   6.297
   22CHL1   H4A 2740   2.270   1.768   6.331
   22CHL1   H4B 2741   2.370   1.923   6.358
   22CHL1    C5 2742   2.319   1.869   6.160
   22CHL1    C6 2743   2.284   1.998   6.132
   22CHL1    H6 2744   2.270   2.068   6.216
   22CHL1    C7 2745   2.255   2.056   5.996
   22CHL1   H7A 2746   2.147   2.083   6.002
   22CHL1   H7B 2747   2.330   2.135   5.972
   22CHL1    C8 2748   2.258   1.941   5.878
   22CHL1    H8 2749   2.162   1.886   5.873
   22CHL1   C14 2750   2.285   2.011   5.752
   22CHL1   H14 2751   2.377   2.071   5.767
   22CHL1   C15 2752   2.190   2.127   5.710
   22CHL1  H15A 2753   2.088   2.085   5.718
   22CHL1  H15B 2754   2.208   2.216   5.774
   22CHL1   C16 2755   2.215   2.147   5.562
   22CHL1  H16A 2756   2.120   2.142   5.505
   22CHL1  H16B 2757   2.262   2.246   5.543
   22CHL1   C17 2758   2.311   2.033   5.518
   22CHL1   H17 2759   2.413   2.072   5.535
   22CHL1   C13 2760   2.294   1.921   5.630
   22CHL1   C18 2761   2.159   1.842   5.603
   22CHL1  H18A 2762   2.071   1.906   5.582
   22CHL1  H18B 2763   2.171   1.760   5.528
   22CHL1  H18C 2764   2.131   1.791   5.698
   22CHL1   C12 2765   2.407   1.821   5.653
   22CHL1  H12A 2766   2.433   1.746   5.575
   22CHL1  H12B 2767   2.497   1.885   5.661
   22CHL1   C11 2768   2.389   1.744   5.789
   22CHL1  H11A 2769   2.300   1.680   5.769
   22CHL1  H11B 2770   2.485   1.690   5.802
   22CHL1    C9 2771   2.372   1.839   5.911
   22CHL1    H9 2772   2.460   1.907   5.916
   22CHL1   C10 2773   2.351   1.769   6.046
   22CHL1   C19 2774   2.233   1.663   6.044
   22CHL1  H19A 2775   2.269   1.572   5.993
   22CHL1  H19B 2776   2.200   1.647   6.149
   22CHL1  H19C 2777   2.144   1.701   5.987
   22CHL1    C1 2778   2.484   1.689   6.073
   22CHL1   H1A 2779   2.483   1.598   6.010
   22CHL1   H1B 2780   2.571   1.755   6.056
   22CHL1    C2 2781   2.491   1.633   6.214
   22CHL1   H2A 2782   2.589   1.581   6.223
   22CHL1   H2B 2783   2.408   1.561   6.233
   22CHL1   C20 2784   2.298   2.001   5.369
   22CHL1   H20 2785   2.196   1.962   5.345
   22CHL1   C21 2786   2.400   1.887   5.332
   22CHL1  H21A 2787   2.421   1.893   5.223
   22CHL1  H21B 2788   2.361   1.784   5.341
   22CHL1  H21C 2789   2.494   1.891   5.390
   22CHL1   C22 2790   2.320   2.124   5.282
   22CHL1  H22A 2791   2.265   2.217   5.308
   22CHL1  H22B 2792   2.427   2.150   5.274
   22CHL1   C23 2793   2.267   2.112   5.137
   22CHL1  H23A 2794   2.271   2.011   5.089
   22CHL1  H23B 2795   2.159   2.137   5.139
   22CHL1   C24 2796   2.336   2.215   5.040
   22CHL1  H24A 2797   2.296   2.313   5.074
   22CHL1  H24B 2798   2.446   2.201   5.043
   22CHL1   C25 2799   2.289   2.194   4.894
   22CHL1   H25 2800   2.184   2.161   4.882
   22CHL1   C26 2801   2.317   2.318   4.811
   22CHL1  H26A 2802   2.250   2.406   4.825
   22CHL1  H26B 2803   2.422   2.350   4.825
   22CHL1  H26C 2804   2.307   2.299   4.702
   22CHL1   C27 2805   2.371   2.085   4.818
   22CHL1  H27A 2806   2.472   2.123   4.792
   22CHL1  H27B 2807   2.389   1.994   4.878
   22CHL1  H27C 2808   2.335   2.064   4.715
   23CHL1    C3 2809   1.086   3.644   5.921
   23CHL1    H3 2810   1.111   3.752   5.932
   23CHL1    O3 2811   1.050   3.579   6.042
   23CHL1   H3' 2812   1.135   3.569   6.086
   23CHL1    C4 2813   0.979   3.625   5.813
   23CHL1   H4A 2814   0.960   3.515   5.808
   23CHL1   H4B 2815   0.886   3.670   5.855
   23CHL1    C5 2816   1.018   3.671   5.674
   23CHL1    C6 2817   0.947   3.767   5.616
   23CHL1    H6 2818   0.858   3.805   5.669
   23CHL1    C7 2819   0.962   3.824   5.478
   23CHL1   H7A 2820   0.872   3.844   5.416
   23CHL1   H7B 2821   1.003   3.927   5.486
   23CHL1    C8 2822   1.063   3.736   5.397
   23CHL1    H8 2823   1.004   3.644   5.373
   23CHL1   C14 2824   1.112   3.814   5.272
   23CHL1   H14 2825   1.167   3.899   5.318
   23CHL1   C15 2826   1.004   3.880   5.179
   23CHL1  H15A 2827   0.926   3.802   5.163
   23CHL1  H15B 2828   0.954   3.976   5.204
   23CHL1   C16 2829   1.077   3.904   5.053
   23CHL1  H16A 2830   1.032   3.861   4.960
   23CHL1  H16B 2831   1.072   4.012   5.026
   23CHL1   C17 2832   1.223   3.846   5.071
   23CHL1   H17 2833   1.284   3.926   5.118
   23CHL1   C13 2834   1.206   3.736   5.186
   23CHL1   C18 2835   1.119   3.620   5.121
   23CHL1  H18A 2836   1.184   3.551   5.063
   23CHL1  H18B 2837   1.081   3.561   5.206
   23CHL1  H18C 2838   1.038   3.650   5.051
   23CHL1   C12 2839   1.325   3.688   5.270
   23CHL1  H12A 2840   1.385   3.631   5.196
   23CHL1  H12B 2841   1.385   3.775   5.303
   23CHL1   C11 2842   1.289   3.610   5.397
   23CHL1  H11A 2843   1.257   3.512   5.357
   23CHL1  H11B 2844   1.378   3.604   5.464
   23CHL1    C9 2845   1.184   3.685   5.482
   23CHL1    H9 2846   1.231   3.783   5.507
   23CHL1   C10 2847   1.142   3.617   5.616
   23CHL1   C19 2848   1.118   3.463   5.588
   23CHL1  H19A 2849   1.040   3.428   5.517
   23CHL1  H19B 2850   1.217   3.419   5.567
   23CHL1  H19C 2851   1.079   3.408   5.677
   23CHL1    C1 2852   1.249   3.640   5.726
   23CHL1   H1A 2853   1.334   3.578   5.690
   23CHL1   H1B 2854   1.283   3.745   5.737
   23CHL1    C2 2855   1.220   3.592   5.870
   23CHL1   H2A 2856   1.302   3.614   5.941
   23CHL1   H2B 2857   1.203   3.482   5.861
   23CHL1   C20 2858   1.304   3.802   4.946
   23CHL1   H20 2859   1.265   3.709   4.901
   23CHL1   C21 2860   1.451   3.804   4.983
   23CHL1  H21A 2861   1.522   3.755   4.913
   23CHL1  H21B 2862   1.486   3.764   5.080
   23CHL1  H21C 2863   1.493   3.906   4.986
   23CHL1   C22 2864   1.275   3.898   4.835
   23CHL1  H22A 2865   1.172   3.899   4.794
   23CHL1  H22B 2866   1.303   4.000   4.870
   23CHL1   C23 2867   1.348   3.867   4.705
   23CHL1  H23A 2868   1.358   3.952   4.634
   23CHL1  H23B 2869   1.453   3.842   4.730
   23CHL1   C24 2870   1.291   3.752   4.624
   23CHL1  H24A 2871   1.278   3.658   4.682
   23CHL1  H24B 2872   1.190   3.773   4.584
   23CHL1   C25 2873   1.378   3.713   4.504
   23CHL1   H25 2874   1.389   3.802   4.438
   23CHL1   C26 2875   1.512   3.653   4.546
   23CHL1  H26A 2876   1.571   3.729   4.602
   23CHL1  H26B 2877   1.510   3.562   4.609
   23CHL1  H26C 2878   1.562   3.627   4.451
   23CHL1   C27 2879   1.317   3.609   4.411
   23CHL1  H27A 2880   1.286   3.516   4.464
   23CHL1  H27B 2881   1.219   3.638   4.367
   23CHL1  H27C 2882   1.382   3.583   4.325
   24CHL1    C3 2883   3.487   4.571   6.069
   24CHL1    H3 2884   3.475   4.681   6.062
   24CHL1    O3 2885   3.516   4.540   6.202
   24CHL1   H3' 2886   3.554   4.452   6.203
   24CHL1    C4 2887   3.356   4.506   6.021
   24CHL1   H4A 2888   3.352   4.399   6.052
   24CHL1   H4B 2889   3.271   4.554   6.074
   24CHL1    C5 2890   3.334   4.525   5.876
   24CHL1    C6 2891   3.221   4.585   5.828
   24CHL1    H6 2892   3.143   4.598   5.904
   24CHL1    C7 2893   3.196   4.610   5.680
   24CHL1   H7A 2894   3.092   4.588   5.648
   24CHL1   H7B 2895   3.196   4.720   5.662
   24CHL1    C8 2896   3.293   4.534   5.583
   24CHL1    H8 2897   3.271   4.425   5.594
   24CHL1   C14 2898   3.268   4.579   5.442
   24CHL1   H14 2899   3.280   4.689   5.440
   24CHL1   C15 2900   3.130   4.557   5.388
   24CHL1  H15A 2901   3.085   4.459   5.410
   24CHL1  H15B 2902   3.058   4.630   5.431
   24CHL1   C16 2903   3.155   4.569   5.236
   24CHL1  H16A 2904   3.121   4.478   5.182
   24CHL1  H16B 2905   3.101   4.658   5.198
   24CHL1   C17 2906   3.311   4.576   5.218
   24CHL1   H17 2907   3.339   4.684   5.226
   24CHL1   C13 2908   3.365   4.518   5.353
   24CHL1   C18 2909   3.367   4.361   5.352
   24CHL1  H18A 2910   3.381   4.332   5.459
   24CHL1  H18B 2911   3.283   4.320   5.292
   24CHL1  H18C 2912   3.452   4.333   5.287
   24CHL1   C12 2913   3.512   4.568   5.396
   24CHL1  H12A 2914   3.593   4.524   5.333
   24CHL1  H12B 2915   3.514   4.679   5.400
   24CHL1   C11 2916   3.547   4.518   5.538
   24CHL1  H11A 2917   3.566   4.409   5.543
   24CHL1  H11B 2918   3.633   4.578   5.576
   24CHL1    C9 2919   3.435   4.553   5.643
   24CHL1    H9 2920   3.451   4.662   5.659
   24CHL1   C10 2921   3.454   4.497   5.784
   24CHL1   C19 2922   3.471   4.341   5.762
   24CHL1  H19A 2923   3.397   4.290   5.697
   24CHL1  H19B 2924   3.575   4.318   5.730
   24CHL1  H19C 2925   3.457   4.281   5.854
   24CHL1    C1 2926   3.584   4.556   5.843
   24CHL1   H1A 2927   3.667   4.505   5.790
   24CHL1   H1B 2928   3.583   4.665   5.821
   24CHL1    C2 2929   3.610   4.523   5.988
   24CHL1   H2A 2930   3.708   4.564   6.021
   24CHL1   H2B 2931   3.613   4.413   6.007
   24CHL1   C20 2932   3.363   4.526   5.078
   24CHL1   H20 2933   3.350   4.417   5.067
   24CHL1   C21 2934   3.518   4.548   5.054
   24CHL1  H21A 2935   3.540   4.517   4.950
   24CHL1  H21B 2936   3.572   4.482   5.125
   24CHL1  H21C 2937   3.535   4.657   5.071
   24CHL1   C22 2938   3.290   4.607   4.961
   24CHL1  H22A 2939   3.183   4.592   4.986
   24CHL1  H22B 2940   3.317   4.715   4.972
   24CHL1   C23 2941   3.316   4.560   4.817
   24CHL1  H23A 2942   3.420   4.580   4.785
   24CHL1  H23B 2943   3.301   4.450   4.811
   24CHL1   C24 2944   3.226   4.622   4.712
   24CHL1  H24A 2945   3.123   4.602   4.748
   24CHL1  H24B 2946   3.228   4.733   4.708
   24CHL1   C25 2947   3.255   4.551   4.584
   24CHL1   H25 2948   3.362   4.524   4.590
   24CHL1   C26 2949   3.180   4.414   4.566
   24CHL1  H26A 2950   3.193   4.374   4.463
   24CHL1  H26B 2951   3.228   4.344   4.637
   24CHL1  H26C 2952   3.071   4.428   4.585
   24CHL1   C27 2953   3.211   4.640   4.467
   24CHL1  H27A 2954   3.100   4.642   4.458
   24CHL1  H27B 2955   3.248   4.744   4.471
   24CHL1  H27C 2956   3.231   4.592   4.369
   25CHL1    C3 2957   6.402   5.860   5.974
   25CHL1    H3 2958   6.463   5.953   5.970
   25CHL1    O3 2959   6.371   5.850   6.112
   25CHL1   H3' 2960   6.276   5.861   6.122
   25CHL1    C4 2961   6.282   5.877   5.881
   25CHL1   H4A 2962   6.212   5.793   5.900
   25CHL1   H4B 2963   6.238   5.976   5.904
   25CHL1    C5 2964   6.318   5.875   5.736
   25CHL1    C6 2965   6.280   5.970   5.651
   25CHL1    H6 2966   6.228   6.059   5.690
   25CHL1    C7 2967   6.309   5.981   5.502
   25CHL1   H7A 2968   6.217   6.009   5.447
   25CHL1   H7B 2969   6.395   6.051   5.489
   25CHL1    C8 2970   6.351   5.835   5.449
   25CHL1    H8 2971   6.262   5.769   5.445
   25CHL1   C14 2972   6.410   5.852   5.312
   25CHL1   H14 2973   6.501   5.914   5.330
   25CHL1   C15 2974   6.327   5.919   5.202
   25CHL1  H15A 2975   6.224   5.878   5.200
   25CHL1  H15B 2976   6.317   6.028   5.219
   25CHL1   C16 2977   6.394   5.882   5.071
   25CHL1  H16A 2978   6.314   5.829   5.015
   25CHL1  H16B 2979   6.443   5.967   5.020
   25CHL1   C17 2980   6.500   5.763   5.108
   25CHL1   H17 2981   6.597   5.814   5.122
   25CHL1   C13 2982   6.456   5.717   5.252
   25CHL1   C18 2983   6.334   5.630   5.235
   25CHL1  H18A 2984   6.361   5.534   5.186
   25CHL1  H18B 2985   6.280   5.604   5.328
   25CHL1  H18C 2986   6.260   5.675   5.165
   25CHL1   C12 2987   6.562   5.659   5.348
   25CHL1  H12A 2988   6.596   5.557   5.321
   25CHL1  H12B 2989   6.652   5.723   5.335
   25CHL1   C11 2990   6.506   5.644   5.484
   25CHL1  H11A 2991   6.430   5.564   5.469
   25CHL1  H11B 2992   6.580   5.611   5.561
   25CHL1    C9 2993   6.449   5.769   5.546
   25CHL1    H9 2994   6.531   5.844   5.554
   25CHL1   C10 2995   6.398   5.749   5.698
   25CHL1   C19 2996   6.325   5.617   5.711
   25CHL1  H19A 2997   6.405   5.541   5.726
   25CHL1  H19B 2998   6.264   5.598   5.802
   25CHL1  H19C 2999   6.275   5.581   5.618
   25CHL1    C1 3000   6.518   5.747   5.783
   25CHL1   H1A 3001   6.577   5.657   5.754
   25CHL1   H1B 3002   6.586   5.833   5.769
   25CHL1    C2 3003   6.482   5.746   5.931
   25CHL1   H2A 3004   6.578   5.745   5.988
   25CHL1   H2B 3005   6.441   5.650   5.970
   25CHL1   C20 3006   6.519   5.660   5.005
   25CHL1   H20 3007   6.423   5.606   4.991
   25CHL1   C21 3008   6.625   5.557   5.044
   25CHL1  H21A 3009   6.572   5.489   5.115
   25CHL1  H21B 3010   6.715   5.599   5.092
   25CHL1  H21C 3011   6.641   5.493   4.955
   25CHL1   C22 3012   6.557   5.714   4.864
   25CHL1  H22A 3013   6.565   5.625   4.798
   25CHL1  H22B 3014   6.471   5.775   4.829
   25CHL1   C23 3015   6.681   5.797   4.839
   25CHL1  H23A 3016   6.655   5.902   4.861
   25CHL1  H23B 3017   6.758   5.772   4.915
   25CHL1   C24 3018   6.724   5.798   4.694
   25CHL1  H24A 3019   6.710   5.696   4.653
   25CHL1  H24B 3020   6.657   5.870   4.643
   25CHL1   C25 3021   0.019   5.833   4.670
   25CHL1   H25 3022   0.075   5.764   4.737
   25CHL1   C26 3023   0.054   5.804   4.523
   25CHL1  H26A 3024   0.052   5.695   4.499
   25CHL1  H26B 3025   6.846   5.862   4.451
   25CHL1  H26C 3026   0.158   5.838   4.503
   25CHL1   C27 3027   0.065   5.978   4.706
   25CHL1  H27A 3028   0.019   6.046   4.631
   25CHL1  H27B 3029   0.028   6.014   4.805
   25CHL1  H27C 3030   0.175   5.993   4.708
   26CHL1    C3 3031   4.290   3.079   6.051
   26CHL1    H3 3032   4.366   3.155   6.022
   26CHL1    O3 3033   4.280   3.072   6.189
   26CHL1   H3' 3034   4.203   3.016   6.204
   26CHL1    C4 3035   4.154   3.130   5.986
   26CHL1   H4A 3036   4.062   3.075   6.015
   26CHL1   H4B 3037   4.128   3.229   6.028
   26CHL1    C5 3038   4.174   3.138   5.834
   26CHL1    C6 3039   4.150   3.254   5.770
   26CHL1    H6 3040   4.115   3.343   5.824
   26CHL1    C7 3041   4.175   3.259   5.625
   26CHL1   H7A 3042   4.095   3.326   5.588
   26CHL1   H7B 3043   4.277   3.302   5.616
   26CHL1    C8 3044   4.178   3.124   5.556
   26CHL1    H8 3045   4.073   3.087   5.550
   26CHL1   C14 3046   4.234   3.143   5.410
   26CHL1   H14 3047   4.344   3.143   5.424
   26CHL1   C15 3048   4.203   3.276   5.326
   26CHL1  H15A 3049   4.096   3.299   5.345
   26CHL1  H15B 3050   4.276   3.356   5.351
   26CHL1   C16 3051   4.208   3.232   5.182
   26CHL1  H16A 3052   4.105   3.214   5.146
   26CHL1  H16B 3053   4.260   3.300   5.111
   26CHL1   C17 3054   4.276   3.081   5.183
   26CHL1   H17 3055   4.384   3.101   5.201
   26CHL1   C13 3056   4.229   3.024   5.316
   26CHL1   C18 3057   4.075   2.986   5.310
   26CHL1  H18A 3058   4.062   2.902   5.239
   26CHL1  H18B 3059   4.040   2.951   5.410
   26CHL1  H18C 3060   4.013   3.068   5.270
   26CHL1   C12 3061   4.315   2.918   5.391
   26CHL1  H12A 3062   4.306   2.818   5.343
   26CHL1  H12B 3063   4.424   2.939   5.388
   26CHL1   C11 3064   4.277   2.889   5.541
   26CHL1  H11A 3065   4.180   2.836   5.539
   26CHL1  H11B 3066   4.353   2.824   5.589
   26CHL1    C9 3067   4.262   3.022   5.627
   26CHL1    H9 3068   4.362   3.070   5.629
   26CHL1   C10 3069   4.221   3.005   5.774
   26CHL1   C19 3070   4.103   2.911   5.776
   26CHL1  H19A 3071   4.058   2.887   5.874
   26CHL1  H19B 3072   4.018   2.953   5.716
   26CHL1  H19C 3073   4.124   2.812   5.730
   26CHL1    C1 3074   4.333   2.932   5.848
   26CHL1   H1A 3075   4.338   2.826   5.815
   26CHL1   H1B 3076   4.430   2.972   5.812
   26CHL1    C2 3077   4.335   2.941   5.997
   26CHL1   H2A 3078   4.433   2.930   6.048
   26CHL1   H2B 3079   4.261   2.871   6.043
   26CHL1   C20 3080   4.257   2.993   5.053
   26CHL1   H20 3081   4.152   2.993   5.016
   26CHL1   C21 3082   4.306   2.845   5.073
   26CHL1  H21A 3083   4.392   2.836   5.143
   26CHL1  H21B 3084   4.321   2.778   4.986
   26CHL1  H21C 3085   4.222   2.789   5.119
   26CHL1   C22 3086   4.343   3.046   4.934
   26CHL1  H22A 3087   4.339   3.156   4.916
   26CHL1  H22B 3088   4.450   3.029   4.959
   26CHL1   C23 3089   4.310   2.982   4.792
   26CHL1  H23A 3090   4.361   2.883   4.803
   26CHL1  H23B 3091   4.202   2.959   4.779
   26CHL1   C24 3092   4.363   3.052   4.664
   26CHL1  H24A 3093   4.291   3.135   4.647
   26CHL1  H24B 3094   4.469   3.083   4.676
   26CHL1   C25 3095   4.342   2.983   4.531
   26CHL1   H25 3096   4.361   2.874   4.545
   26CHL1   C26 3097   4.190   2.991   4.485
   26CHL1  H26A 3098   4.159   3.095   4.462
   26CHL1  H26B 3099   4.167   2.916   4.407
   26CHL1  H26C 3100   4.131   2.962   4.574
   26CHL1   C27 3101   4.431   3.042   4.424
   26CHL1  H27A 3102   4.538   3.021   4.442
   26CHL1  H27B 3103   4.394   2.994   4.331
   26CHL1  H27C 3104   4.425   3.153   4.416
   27CHL1    C3 3105   0.881   2.234   6.099
   27CHL1    H3 3106   0.832   2.333   6.109
   27CHL1    O3 3107   0.889   2.176   6.229
   27CHL1   H3' 3108   0.805   2.136   6.251
   27CHL1    C4 3109   0.803   2.138   6.015
   27CHL1   H4A 3110   0.862   2.044   6.005
   27CHL1   H4B 3111   0.713   2.108   6.073
   27CHL1    C5 3112   0.781   2.190   5.874
   27CHL1    C6 3113   0.662   2.226   5.815
   27CHL1    H6 3114   0.563   2.212   5.861
   27CHL1    C7 3115   0.643   2.280   5.681
   27CHL1   H7A 3116   0.561   2.229   5.626
   27CHL1   H7B 3117   0.618   2.386   5.700
   27CHL1    C8 3118   0.770   2.275   5.588
   27CHL1    H8 3119   0.787   2.170   5.553
   27CHL1   C14 3120   0.761   2.366   5.471
   27CHL1   H14 3121   0.740   2.468   5.511
   27CHL1   C15 3122   0.642   2.350   5.380
   27CHL1  H15A 3123   0.636   2.243   5.351
   27CHL1  H15B 3124   0.546   2.381   5.426
   27CHL1   C16 3125   0.681   2.428   5.254
   27CHL1  H16A 3126   0.676   2.357   5.168
   27CHL1  H16B 3127   0.613   2.513   5.232
   27CHL1   C17 3128   0.827   2.481   5.281
   27CHL1   H17 3129   0.814   2.580   5.329
   27CHL1   C13 3130   0.891   2.383   5.381
   27CHL1   C18 3131   0.921   2.250   5.307
   27CHL1  H18A 3132   1.011   2.269   5.245
   27CHL1  H18B 3133   0.947   2.168   5.377
   27CHL1  H18C 3134   0.839   2.214   5.240
   27CHL1   C12 3135   1.008   2.427   5.473
   27CHL1  H12A 3136   1.107   2.430   5.422
   27CHL1  H12B 3137   0.968   2.522   5.514
   27CHL1   C11 3138   1.025   2.329   5.595
   27CHL1  H11A 3139   1.056   2.230   5.553
   27CHL1  H11B 3140   1.104   2.375   5.659
   27CHL1    C9 3141   0.893   2.312   5.676
   27CHL1    H9 3142   0.872   2.415   5.711
   27CHL1   C10 3143   0.919   2.225   5.805
   27CHL1   C19 3144   0.979   2.086   5.763
   27CHL1  H19A 3145   1.011   2.029   5.853
   27CHL1  H19B 3146   0.910   2.024   5.701
   27CHL1  H19C 3147   1.080   2.093   5.716
   27CHL1    C1 3148   1.019   2.294   5.898
   27CHL1   H1A 3149   1.118   2.312   5.850
   27CHL1   H1B 3150   0.978   2.397   5.904
   27CHL1    C2 3151   1.026   2.233   6.035
   27CHL1   H2A 3152   1.097   2.287   6.101
   27CHL1   H2B 3153   1.068   2.131   6.022
   27CHL1   C20 3154   0.908   2.502   5.149
   27CHL1   H20 3155   0.929   2.401   5.109
   27CHL1   C21 3156   1.032   2.584   5.190
   27CHL1  H21A 3157   1.113   2.518   5.229
   27CHL1  H21B 3158   1.000   2.659   5.266
   27CHL1  H21C 3159   1.082   2.635   5.105
   27CHL1   C22 3160   0.835   2.586   5.044
   27CHL1  H22A 3161   0.727   2.573   5.066
   27CHL1  H22B 3162   0.833   2.692   5.079
   27CHL1   C23 3163   0.890   2.589   4.901
   27CHL1  H23A 3164   0.992   2.630   4.916
   27CHL1  H23B 3165   0.877   2.486   4.860
   27CHL1   C24 3166   0.803   2.676   4.808
   27CHL1  H24A 3167   0.706   2.625   4.792
   27CHL1  H24B 3168   0.786   2.774   4.856
   27CHL1   C25 3169   0.877   2.706   4.679
   27CHL1   H25 3170   0.908   2.610   4.631
   27CHL1   C26 3171   0.800   2.794   4.585
   27CHL1  H26A 3172   0.719   2.746   4.526
   27CHL1  H26B 3173   0.753   2.869   4.652
   27CHL1  H26C 3174   0.864   2.840   4.507
   27CHL1   C27 3175   1.006   2.779   4.719
   27CHL1  H27A 3176   1.046   2.819   4.624
   27CHL1  H27B 3177   1.082   2.711   4.764
   27CHL1  H27C 3178   0.996   2.860   4.795
   28CHL1    C3 3179   5.497   1.918   6.021
   28CHL1    H3 3180   5.470   2.025   6.037
   28CHL1    O3 3181   5.497   1.859   6.147
   28CHL1   H3' 3182   5.526   1.771   6.121
   28CHL1    C4 3183   5.391   1.857   5.938
   28CHL1   H4A 3184   5.402   1.748   5.921
   28CHL1   H4B 3185   5.291   1.858   5.986
   28CHL1    C5 3186   5.382   1.928   5.800
   28CHL1    C6 3187   5.276   2.000   5.763
   28CHL1    H6 3188   5.184   2.005   5.823
   28CHL1    C7 3189   5.284   2.088   5.640
   28CHL1   H7A 3190   5.184   2.091   5.592
   28CHL1   H7B 3191   5.306   2.196   5.653
   28CHL1    C8 3192   5.378   2.030   5.533
   28CHL1    H8 3193   5.339   1.929   5.509
   28CHL1   C14 3194   5.385   2.113   5.409
   28CHL1   H14 3195   5.415   2.211   5.451
   28CHL1   C15 3196   5.252   2.140   5.338
   28CHL1  H15A 3197   5.198   2.044   5.324
   28CHL1  H15B 3198   5.184   2.208   5.394
   28CHL1   C16 3199   5.300   2.209   5.206
   28CHL1  H16A 3200   5.252   2.166   5.116
   28CHL1  H16B 3201   5.281   2.319   5.208
   28CHL1   C17 3202   5.458   2.185   5.194
   28CHL1   H17 3203   5.503   2.275   5.242
   28CHL1   C13 3204   5.490   2.077   5.298
   28CHL1   C18 3205   5.467   1.935   5.244
   28CHL1  H18A 3206   5.366   1.936   5.199
   28CHL1  H18B 3207   5.546   1.901   5.174
   28CHL1  H18C 3208   5.471   1.866   5.331
   28CHL1   C12 3209   5.626   2.086   5.367
   28CHL1  H12A 3210   5.696   2.047   5.289
   28CHL1  H12B 3211   5.654   2.183   5.414
   28CHL1   C11 3212   5.627   1.985   5.489
   28CHL1  H11A 3213   5.620   1.880   5.452
   28CHL1  H11B 3214   5.726   1.992   5.539
   28CHL1    C9 3215   5.519   2.018   5.596
   28CHL1    H9 3216   5.534   2.118   5.644
   28CHL1   C10 3217   5.510   1.915   5.719
   28CHL1   C19 3218   5.527   1.772   5.672
   28CHL1  H19A 3219   5.625   1.767   5.621
   28CHL1  H19B 3220   5.528   1.690   5.747
   28CHL1  H19C 3221   5.449   1.740   5.599
   28CHL1    C1 3222   5.626   1.955   5.803
   28CHL1   H1A 3223   5.721   1.949   5.745
   28CHL1   H1B 3224   5.614   2.064   5.823
   28CHL1    C2 3225   5.631   1.899   5.942
   28CHL1   H2A 3226   5.712   1.945   6.003
   28CHL1   H2B 3227   5.661   1.793   5.951
   28CHL1   C20 3228   5.515   2.172   5.057
   28CHL1   H20 3229   5.613   2.120   5.066
   28CHL1   C21 3230   5.547   2.313   5.014
   28CHL1  H21A 3231   5.450   2.367   5.013
   28CHL1  H21B 3232   5.584   2.327   4.910
   28CHL1  H21C 3233   5.624   2.356   5.081
   28CHL1   C22 3234   5.444   2.085   4.948
   28CHL1  H22A 3235   5.387   1.998   4.986
   28CHL1  H22B 3236   5.367   2.160   4.918
   28CHL1   C23 3237   5.540   2.044   4.832
   28CHL1  H23A 3238   5.593   2.140   4.812
   28CHL1  H23B 3239   5.612   1.973   4.877
   28CHL1   C24 3240   5.466   1.983   4.712
   28CHL1  H24A 3241   5.406   1.899   4.755
   28CHL1  H24B 3242   5.403   2.053   4.654
   28CHL1   C25 3243   5.547   1.907   4.610
   28CHL1   H25 3244   5.479   1.882   4.526
   28CHL1   C26 3245   5.665   2.003   4.566
   28CHL1  H26A 3246   5.722   2.027   4.658
   28CHL1  H26B 3247   5.726   1.950   4.490
   28CHL1  H26C 3248   5.630   2.099   4.521
   28CHL1   C27 3249   5.605   1.779   4.660
   28CHL1  H27A 3250   5.656   1.726   4.577
   28CHL1  H27B 3251   5.685   1.783   4.737
   28CHL1  H27C 3252   5.536   1.700   4.696
   29CHL1    C3 3253   2.660   3.781   6.050
   29CHL1    H3 3254   2.576   3.853   6.039
   29CHL1    O3 3255   2.701   3.763   6.187
   29CHL1   H3' 3256   2.791   3.732   6.178
   29CHL1    C4 3257   2.621   3.646   5.988
   29CHL1   H4A 3258   2.709   3.583   6.016
   29CHL1   H4B 3259   2.535   3.610   6.048
   29CHL1    C5 3260   2.605   3.653   5.839
   29CHL1    C6 3261   2.496   3.615   5.774
   29CHL1    H6 3262   2.418   3.561   5.829
   29CHL1    C7 3263   2.468   3.605   5.622
   29CHL1   H7A 3264   2.440   3.500   5.597
   29CHL1   H7B 3265   2.395   3.676   5.579
   29CHL1    C8 3266   2.598   3.622   5.543
   29CHL1    H8 3267   2.665   3.534   5.556
   29CHL1   C14 3268   2.571   3.652   5.394
   29CHL1   H14 3269   2.512   3.746   5.397
   29CHL1   C15 3270   2.495   3.544   5.306
   29CHL1  H15A 3271   2.529   3.439   5.323
   29CHL1  H15B 3272   2.386   3.538   5.330
   29CHL1   C16 3273   2.513   3.597   5.161
   29CHL1  H16A 3274   2.543   3.515   5.092
   29CHL1  H16B 3275   2.421   3.645   5.123
   29CHL1   C17 3276   2.619   3.712   5.174
   29CHL1   H17 3277   2.561   3.806   5.192
   29CHL1   C13 3278   2.697   3.685   5.305
   29CHL1   C18 3279   2.792   3.566   5.288
   29CHL1  H18A 3280   2.885   3.607   5.241
   29CHL1  H18B 3281   2.819   3.530   5.389
   29CHL1  H18C 3282   2.748   3.487   5.224
   29CHL1   C12 3283   2.761   3.807   5.371
   29CHL1  H12A 3284   2.847   3.833   5.307
   29CHL1  H12B 3285   2.678   3.881   5.367
   29CHL1   C11 3286   2.799   3.780   5.516
   29CHL1  H11A 3287   2.868   3.693   5.521
   29CHL1  H11B 3288   2.849   3.864   5.569
   29CHL1    C9 3289   2.677   3.740   5.606
   29CHL1    H9 3290   2.613   3.831   5.611
   29CHL1   C10 3291   2.724   3.708   5.761
   29CHL1   C19 3292   2.840   3.604   5.762
   29CHL1  H19A 3293   2.938   3.633   5.717
   29CHL1  H19B 3294   2.857   3.593   5.871
   29CHL1  H19C 3295   2.813   3.505   5.721
   29CHL1    C1 3296   2.758   3.848   5.829
   29CHL1   H1A 3297   2.844   3.902   5.784
   29CHL1   H1B 3298   2.675   3.921   5.824
   29CHL1    C2 3299   2.783   3.839   5.975
   29CHL1   H2A 3300   2.822   3.939   6.005
   29CHL1   H2B 3301   2.870   3.771   5.986
   29CHL1   C20 3302   2.711   3.738   5.044
   29CHL1   H20 3303   2.808   3.773   5.086
   29CHL1   C21 3304   2.663   3.845   4.942
   29CHL1  H21A 3305   2.632   3.935   4.999
   29CHL1  H21B 3306   2.576   3.801   4.889
   29CHL1  H21C 3307   2.737   3.870   4.863
   29CHL1   C22 3308   2.733   3.612   4.949
   29CHL1  H22A 3309   2.765   3.523   5.007
   29CHL1  H22B 3310   2.652   3.595   4.875
   29CHL1   C23 3311   2.854   3.630   4.847
   29CHL1  H23A 3312   2.834   3.718   4.781
   29CHL1  H23B 3313   2.946   3.655   4.904
   29CHL1   C24 3314   2.884   3.508   4.754
   29CHL1  H24A 3315   2.915   3.431   4.828
   29CHL1  H24B 3316   2.792   3.466   4.708
   29CHL1   C25 3317   2.998   3.527   4.661
   29CHL1   H25 3318   3.082   3.576   4.715
   29CHL1   C26 3319   3.048   3.388   4.608
   29CHL1  H26A 3320   3.150   3.396   4.564
   29CHL1  H26B 3321   3.041   3.306   4.682
   29CHL1  H26C 3322   2.971   3.356   4.535
   29CHL1   C27 3323   2.941   3.612   4.547
   29CHL1  H27A 3324   2.922   3.717   4.580
   29CHL1  H27B 3325   3.012   3.605   4.462
   29CHL1  H27C 3326   2.844   3.568   4.518
   30CHL1    C3 3327   3.191   3.470   5.995
   30CHL1    H3 3328   3.115   3.549   5.979
   30CHL1    O3 3329   3.203   3.457   6.134
   30CHL1   H3' 3330   3.283   3.405   6.141
   30CHL1    C4 3331   3.149   3.332   5.952
   30CHL1   H4A 3332   3.215   3.256   5.999
   30CHL1   H4B 3333   3.059   3.296   6.006
   30CHL1    C5 3334   3.142   3.331   5.795
   30CHL1    C6 3335   3.028   3.294   5.727
   30CHL1    H6 3336   2.940   3.269   5.789
   30CHL1    C7 3337   3.007   3.298   5.573
   30CHL1   H7A 3338   2.941   3.219   5.532
   30CHL1   H7B 3339   2.953   3.391   5.546
   30CHL1    C8 3340   3.144   3.295   5.498
   30CHL1    H8 3341   3.186   3.193   5.506
   30CHL1   C14 3342   3.125   3.343   5.355
   30CHL1   H14 3343   3.087   3.447   5.362
   30CHL1   C15 3344   3.022   3.271   5.270
   30CHL1  H15A 3345   3.040   3.161   5.269
   30CHL1  H15B 3346   2.928   3.307   5.317
   30CHL1   C16 3347   3.047   3.317   5.126
   30CHL1  H16A 3348   3.058   3.227   5.062
   30CHL1  H16B 3349   2.969   3.379   5.077
   30CHL1   C17 3350   3.176   3.397   5.136
   30CHL1   H17 3351   3.140   3.501   5.153
   30CHL1   C13 3352   3.249   3.351   5.267
   30CHL1   C18 3353   3.313   3.210   5.243
   30CHL1  H18A 3354   3.397   3.224   5.171
   30CHL1  H18B 3355   3.342   3.151   5.333
   30CHL1  H18C 3356   3.238   3.144   5.195
   30CHL1   C12 3357   3.354   3.447   5.333
   30CHL1  H12A 3358   3.443   3.434   5.268
   30CHL1  H12B 3359   3.312   3.547   5.312
   30CHL1   C11 3360   3.371   3.410   5.480
   30CHL1  H11A 3361   3.431   3.316   5.483
   30CHL1  H11B 3362   3.442   3.486   5.520
   30CHL1    C9 3363   3.242   3.399   5.563
   30CHL1    H9 3364   3.185   3.494   5.568
   30CHL1   C10 3365   3.268   3.370   5.714
   30CHL1   C19 3366   3.358   3.241   5.729
   30CHL1  H19A 3367   3.331   3.157   5.662
   30CHL1  H19B 3368   3.464   3.265   5.703
   30CHL1  H19C 3369   3.361   3.201   5.832
   30CHL1    C1 3370   3.327   3.488   5.783
   30CHL1   H1A 3371   3.432   3.500   5.750
   30CHL1   H1B 3372   3.267   3.569   5.735
   30CHL1    C2 3373   3.324   3.494   5.939
   30CHL1   H2A 3374   3.364   3.587   5.984
   30CHL1   H2B 3375   3.387   3.411   5.979
   30CHL1   C20 3376   3.275   3.405   5.011
   30CHL1   H20 3377   3.376   3.393   5.056
   30CHL1   C21 3378   3.268   3.547   4.956
   30CHL1  H21A 3379   3.268   3.623   5.037
   30CHL1  H21B 3380   3.176   3.566   4.896
   30CHL1  H21C 3381   3.351   3.570   4.887
   30CHL1   C22 3382   3.249   3.298   4.903
   30CHL1  H22A 3383   3.223   3.201   4.951
   30CHL1  H22B 3384   3.162   3.338   4.846
   30CHL1   C23 3385   3.367   3.286   4.803
   30CHL1  H23A 3386   3.389   3.382   4.752
   30CHL1  H23B 3387   3.455   3.263   4.868
   30CHL1   C24 3388   3.358   3.186   4.694
   30CHL1  H24A 3389   3.344   3.083   4.733
   30CHL1  H24B 3390   3.268   3.218   4.638
   30CHL1   C25 3391   3.483   3.188   4.593
   30CHL1   H25 3392   3.574   3.233   4.638
   30CHL1   C26 3393   3.523   3.049   4.552
   30CHL1  H26A 3394   3.566   2.988   4.634
   30CHL1  H26B 3395   3.446   2.986   4.502
   30CHL1  H26C 3396   3.612   3.058   4.487
   30CHL1   C27 3397   3.445   3.278   4.469
   30CHL1  H27A 3398   3.404   3.200   4.401
   30CHL1  H27B 3399   3.373   3.362   4.484
   30CHL1  H27C 3400   3.539   3.319   4.427
   31CHL1    C3 3401   2.206   4.020   5.928
   31CHL1    H3 3402   2.096   4.020   5.910
   31CHL1    O3 3403   2.235   3.984   6.061
   31CHL1   H3' 3404   2.311   4.040   6.079
   31CHL1    C4 3405   2.270   3.926   5.834
   31CHL1   H4A 3406   2.375   3.909   5.866
   31CHL1   H4B 3407   2.219   3.832   5.862
   31CHL1    C5 3408   2.270   3.961   5.685
   31CHL1    C6 3409   2.207   3.885   5.598
   31CHL1    H6 3410   2.156   3.796   5.640
   31CHL1    C7 3411   2.196   3.894   5.455
   31CHL1   H7A 3412   2.229   3.802   5.402
   31CHL1   H7B 3413   2.089   3.910   5.430
   31CHL1    C8 3414   2.289   4.013   5.411
   31CHL1    H8 3415   2.396   3.984   5.412
   31CHL1   C14 3416   2.254   4.048   5.268
   31CHL1   H14 3417   2.148   4.083   5.266
   31CHL1   C15 3418   2.261   3.937   5.159
   31CHL1  H15A 3419   2.347   3.867   5.168
   31CHL1  H15B 3420   2.170   3.876   5.174
   31CHL1   C16 3421   2.256   4.005   5.019
   31CHL1  H16A 3422   2.339   3.957   4.963
   31CHL1  H16B 3423   2.162   3.993   4.962
   31CHL1   C17 3424   2.282   4.153   5.055
   31CHL1   H17 3425   2.181   4.198   5.059
   31CHL1   C13 3426   2.328   4.163   5.208
   31CHL1   C18 3427   2.475   4.145   5.205
   31CHL1  H18A 3428   2.511   4.074   5.128
   31CHL1  H18B 3429   2.525   4.241   5.177
   31CHL1  H18C 3430   2.515   4.128   5.307
   31CHL1   C12 3431   2.290   4.292   5.294
   31CHL1  H12A 3432   2.350   4.378   5.256
   31CHL1  H12B 3433   2.182   4.308   5.272
   31CHL1   C11 3434   2.319   4.274   5.451
   31CHL1  H11A 3435   2.429   4.292   5.455
   31CHL1  H11B 3436   2.274   4.358   5.509
   31CHL1    C9 3437   2.271   4.140   5.508
   31CHL1    H9 3438   2.162   4.158   5.513
   31CHL1   C10 3439   2.307   4.104   5.652
   31CHL1   C19 3440   2.458   4.130   5.674
   31CHL1  H19A 3441   2.519   4.082   5.596
   31CHL1  H19B 3442   2.487   4.237   5.658
   31CHL1  H19C 3443   2.486   4.086   5.772
   31CHL1    C1 3444   2.228   4.199   5.749
   31CHL1   H1A 3445   2.264   4.300   5.718
   31CHL1   H1B 3446   2.120   4.187   5.728
   31CHL1    C2 3447   2.252   4.161   5.894
   31CHL1   H2A 3448   2.199   4.232   5.962
   31CHL1   H2B 3449   2.361   4.175   5.912
   31CHL1   C20 3450   2.342   4.228   4.934
   31CHL1   H20 3451   2.443   4.187   4.912
   31CHL1   C21 3452   2.357   4.371   4.962
   31CHL1  H21A 3453   2.418   4.419   4.882
   31CHL1  H21B 3454   2.418   4.404   5.048
   31CHL1  H21C 3455   2.256   4.417   4.972
   31CHL1   C22 3456   2.266   4.224   4.801
   31CHL1  H22A 3457   2.156   4.211   4.812
   31CHL1  H22B 3458   2.279   4.317   4.742
   31CHL1   C23 3459   2.314   4.113   4.706
   31CHL1  H23A 3460   2.425   4.113   4.693
   31CHL1  H23B 3461   2.288   4.015   4.752
   31CHL1   C24 3462   2.249   4.125   4.567
   31CHL1  H24A 3463   2.140   4.141   4.581
   31CHL1  H24B 3464   2.294   4.212   4.515
   31CHL1   C25 3465   2.263   3.998   4.494
   31CHL1   H25 3466   2.267   3.913   4.565
   31CHL1   C26 3467   2.143   3.982   4.404
   31CHL1  H26A 3468   2.052   4.009   4.462
   31CHL1  H26B 3469   2.133   4.043   4.312
   31CHL1  H26C 3470   2.132   3.874   4.381
   31CHL1   C27 3471   2.390   3.994   4.407
   31CHL1  H27A 3472   2.427   3.897   4.368
   31CHL1  H27B 3473   2.391   4.074   4.331
   31CHL1  H27C 3474   2.462   4.034   4.482
   32CHL1    C3 3475   2.879   2.230   6.682
   32CHL1    H3 3476   2.985   2.262   6.668
   32CHL1    O3 3477   2.848   2.237   6.822
   32CHL1   H3' 3478   2.760   2.199   6.818
   32CHL1    C4 3479   2.781   2.325   6.611
   32CHL1   H4A 3480   2.686   2.281   6.648
   32CHL1   H4B 3481   2.810   2.424   6.650
   32CHL1    C5 3482   2.795   2.328   6.454
   32CHL1    C6 3483   2.814   2.450   6.384
   32CHL1    H6 3484   2.824   2.546   6.436
   32CHL1    C7 3485   2.818   2.445   6.235
   32CHL1   H7A 3486   2.745   2.516   6.192
   32CHL1   H7B 3487   2.916   2.485   6.200
   32CHL1    C8 3488   2.784   2.310   6.166
   32CHL1    H8 3489   2.674   2.294   6.171
   32CHL1   C14 3490   2.828   2.315   6.025
   32CHL1   H14 3491   2.939   2.327   6.023
   32CHL1   C15 3492   2.771   2.433   5.942
   32CHL1  H15A 3493   2.671   2.464   5.978
   32CHL1  H15B 3494   2.831   2.525   5.954
   32CHL1   C16 3495   2.786   2.388   5.795
   32CHL1  H16A 3496   2.685   2.403   5.750
   32CHL1  H16B 3497   2.867   2.448   5.749
   32CHL1   C17 3498   2.834   2.240   5.796
   32CHL1   H17 3499   2.944   2.244   5.803
   32CHL1   C13 3500   2.795   2.184   5.942
   32CHL1   C18 3501   2.639   2.173   5.937
   32CHL1  H18A 3502   2.586   2.247   5.875
   32CHL1  H18B 3503   2.622   2.072   5.893
   32CHL1  H18C 3504   2.587   2.171   6.035
   32CHL1   C12 3505   2.867   2.065   6.005
   32CHL1  H12A 3506   2.860   1.965   5.957
   32CHL1  H12B 3507   2.976   2.075   5.988
   32CHL1   C11 3508   2.848   2.061   6.163
   32CHL1  H11A 3509   2.755   2.003   6.180
   32CHL1  H11B 3510   2.928   2.003   6.213
   32CHL1    C9 3511   2.846   2.192   6.247
   32CHL1    H9 3512   2.952   2.224   6.241
   32CHL1   C10 3513   2.799   2.187   6.396
   32CHL1   C19 3514   2.654   2.130   6.397
   32CHL1  H19A 3515   2.613   2.130   6.500
   32CHL1  H19B 3516   2.588   2.200   6.342
   32CHL1  H19C 3517   2.642   2.029   6.352
   32CHL1    C1 3518   2.889   2.093   6.473
   32CHL1   H1A 3519   2.866   1.988   6.446
   32CHL1   H1B 3520   2.994   2.120   6.446
   32CHL1    C2 3521   2.870   2.088   6.627
   32CHL1   H2A 3522   2.947   2.026   6.679
   32CHL1   H2B 3523   2.768   2.047   6.643
   32CHL1   C20 3524   2.789   2.162   5.671
   32CHL1   H20 3525   2.678   2.172   5.668
   32CHL1   C21 3526   2.832   2.013   5.682
   32CHL1  H21A 3527   2.787   1.968   5.772
   32CHL1  H21B 3528   2.943   2.003   5.686
   32CHL1  H21C 3529   2.786   1.960   5.596
   32CHL1   C22 3530   2.837   2.231   5.543
   32CHL1  H22A 3531   2.769   2.317   5.527
   32CHL1  H22B 3532   2.941   2.270   5.551
   32CHL1   C23 3533   2.831   2.143   5.414
   32CHL1  H23A 3534   2.912   2.069   5.432
   32CHL1  H23B 3535   2.731   2.095   5.413
   32CHL1   C24 3536   2.850   2.222   5.285
   32CHL1  H24A 3537   2.756   2.280   5.275
   32CHL1  H24B 3538   2.938   2.289   5.299
   32CHL1   C25 3539   2.866   2.136   5.159
   32CHL1   H25 3540   2.959   2.078   5.174
   32CHL1   C26 3541   2.757   2.030   5.151
   32CHL1  H26A 3542   2.773   1.968   5.061
   32CHL1  H26B 3543   2.740   1.970   5.243
   32CHL1  H26C 3544   2.663   2.088   5.141
   32CHL1   C27 3545   2.868   2.217   5.027
   32CHL1  H27A 3546   2.868   2.156   4.934
   32CHL1  H27B 3547   2.772   2.274   5.028
   32CHL1  H27C 3548   2.949   2.293   5.031
   33CHL1    C3 3549   0.910   1.474   5.737
   33CHL1    H3 3550   0.897   1.573   5.688
   33CHL1    O3 3551   0.942   1.495   5.878
   33CHL1   H3' 3552   0.971   1.410   5.911
   33CHL1    C4 3553   0.781   1.394   5.727
   33CHL1   H4A 3554   0.785   1.299   5.784
   33CHL1   H4B 3555   0.706   1.453   5.783
   33CHL1    C5 3556   0.749   1.372   5.577
   33CHL1    C6 3557   0.629   1.424   5.535
   33CHL1    H6 3558   0.563   1.473   5.608
   33CHL1    C7 3559   0.572   1.412   5.395
   33CHL1   H7A 3560   0.469   1.371   5.399
   33CHL1   H7B 3561   0.581   1.514   5.351
   33CHL1    C8 3562   0.665   1.316   5.310
   33CHL1    H8 3563   0.628   1.213   5.328
   33CHL1   C14 3564   0.635   1.330   5.161
   33CHL1   H14 3565   0.653   1.435   5.132
   33CHL1   C15 3566   0.493   1.300   5.106
   33CHL1  H15A 3567   0.450   1.214   5.160
   33CHL1  H15B 3568   0.421   1.384   5.111
   33CHL1   C16 3569   0.516   1.261   4.956
   33CHL1  H16A 3570   0.477   1.159   4.940
   33CHL1  H16B 3571   0.469   1.334   4.886
   33CHL1   C17 3572   0.666   1.247   4.934
   33CHL1   H17 3573   0.713   1.339   4.894
   33CHL1   C13 3574   0.726   1.241   5.075
   33CHL1   C18 3575   0.712   1.092   5.110
   33CHL1  H18A 3576   0.787   1.033   5.053
   33CHL1  H18B 3577   0.744   1.083   5.216
   33CHL1  H18C 3578   0.610   1.049   5.099
   33CHL1   C12 3579   0.867   1.301   5.091
   33CHL1  H12A 3580   0.942   1.265   5.018
   33CHL1  H12B 3581   0.862   1.409   5.064
   33CHL1   C11 3582   0.914   1.284   5.243
   33CHL1  H11A 3583   0.932   1.175   5.254
   33CHL1  H11B 3584   1.014   1.333   5.242
   33CHL1    C9 3585   0.818   1.339   5.346
   33CHL1    H9 3586   0.820   1.448   5.325
   33CHL1   C10 3587   0.857   1.318   5.494
   33CHL1   C19 3588   0.874   1.163   5.515
   33CHL1  H19A 3589   0.965   1.121   5.467
   33CHL1  H19B 3590   0.883   1.136   5.622
   33CHL1  H19C 3591   0.780   1.117   5.476
   33CHL1    C1 3592   0.995   1.389   5.520
   33CHL1   H1A 3593   1.061   1.326   5.457
   33CHL1   H1B 3594   0.984   1.488   5.473
   33CHL1    C2 3595   1.026   1.394   5.670
   33CHL1   H2A 3596   1.127   1.441   5.668
   33CHL1   H2B 3597   1.034   1.289   5.707
   33CHL1   C20 3598   0.710   1.154   4.816
   33CHL1   H20 3599   0.686   1.047   4.834
   33CHL1   C21 3600   0.867   1.159   4.790
   33CHL1  H21A 3601   0.903   1.258   4.755
   33CHL1  H21B 3602   0.890   1.080   4.715
   33CHL1  H21C 3603   0.910   1.115   4.882
   33CHL1   C22 3604   0.642   1.194   4.681
   33CHL1  H22A 3605   0.538   1.222   4.709
   33CHL1  H22B 3606   0.689   1.287   4.645
   33CHL1   C23 3607   0.631   1.084   4.570
   33CHL1  H23A 3608   0.733   1.074   4.527
   33CHL1  H23B 3609   0.578   0.999   4.618
   33CHL1   C24 3610   0.543   1.139   4.455
   33CHL1  H24A 3611   0.442   1.174   4.487
   33CHL1  H24B 3612   0.587   1.235   4.421
   33CHL1   C25 3613   0.547   1.038   4.336
   33CHL1   H25 3614   0.654   1.007   4.329
   33CHL1   C26 3615   0.447   0.921   4.352
   33CHL1  H26A 3616   0.418   0.869   4.258
   33CHL1  H26B 3617   0.499   0.846   4.416
   33CHL1  H26C 3618   0.361   0.954   4.414
   33CHL1   C27 3619   0.512   1.117   4.205
   33CHL1  H27A 3620   0.571   1.211   4.204
   33CHL1  H27B 3621   0.547   1.071   4.110
   33CHL1  H27C 3622   0.402   1.135   4.206
   34CHL1    C3 3623   3.164   2.835   6.199
   34CHL1    H3 3624   3.219   2.739   6.188
   34CHL1    O3 3625   3.190   2.876   6.330
   34CHL1   H3' 3626   3.134   2.823   6.387
   34CHL1    C4 3627   3.213   2.942   6.096
   34CHL1   H4A 3628   3.163   3.037   6.124
   34CHL1   H4B 3629   3.321   2.935   6.121
   34CHL1    C5 3630   3.184   2.907   5.953
   34CHL1    C6 3631   3.277   2.904   5.860
   34CHL1    H6 3632   3.379   2.940   5.882
   34CHL1    C7 3633   3.258   2.874   5.709
   34CHL1   H7A 3634   3.320   2.945   5.649
   34CHL1   H7B 3635   3.286   2.770   5.683
   34CHL1    C8 3636   3.112   2.876   5.676
   34CHL1    H8 3637   3.079   2.982   5.673
   34CHL1   C14 3638   3.088   2.818   5.540
   34CHL1   H14 3639   3.137   2.719   5.541
   34CHL1   C15 3640   3.166   2.884   5.421
   34CHL1  H15A 3641   3.135   2.991   5.416
   34CHL1  H15B 3642   3.276   2.867   5.423
   34CHL1   C16 3643   3.092   2.827   5.303
   34CHL1  H16A 3644   3.060   2.913   5.241
   34CHL1  H16B 3645   3.153   2.754   5.245
   34CHL1   C17 3646   2.968   2.744   5.359
   34CHL1   H17 3647   3.001   2.638   5.364
   34CHL1   C13 3648   2.946   2.795   5.502
   34CHL1   C18 3649   2.869   2.928   5.493
   34CHL1  H18A 3650   2.760   2.917   5.471
   34CHL1  H18B 3651   2.874   2.977   5.593
   34CHL1  H18C 3652   2.908   3.003   5.421
   34CHL1   C12 3653   2.875   2.699   5.599
   34CHL1  H12A 3654   2.773   2.661   5.579
   34CHL1  H12B 3655   2.929   2.602   5.590
   34CHL1   C11 3656   2.880   2.757   5.742
   34CHL1  H11A 3657   2.808   2.841   5.751
   34CHL1  H11B 3658   2.839   2.685   5.815
   34CHL1    C9 3659   3.022   2.803   5.784
   34CHL1    H9 3660   3.063   2.701   5.802
   34CHL1   C10 3661   3.031   2.867   5.924
   34CHL1   C19 3662   2.937   2.984   5.918
   34CHL1  H19A 3663   2.928   3.024   6.021
   34CHL1  H19B 3664   2.981   3.053   5.843
   34CHL1  H19C 3665   2.832   2.971   5.884
   34CHL1    C1 3666   2.974   2.775   6.037
   34CHL1   H1A 3667   2.863   2.773   6.033
   34CHL1   H1B 3668   3.019   2.676   6.013
   34CHL1    C2 3669   3.008   2.817   6.182
   34CHL1   H2A 3670   2.979   2.740   6.256
   34CHL1   H2B 3671   2.955   2.911   6.210
   34CHL1   C20 3672   2.849   2.732   5.262
   34CHL1   H20 3673   2.787   2.824   5.270
   34CHL1   C21 3674   2.751   2.613   5.296
   34CHL1  H21A 3675   2.807   2.518   5.288
   34CHL1  H21B 3676   2.649   2.612   5.251
   34CHL1  H21C 3677   2.721   2.632   5.401
   34CHL1   C22 3678   2.884   2.718   5.110
   34CHL1  H22A 3679   2.929   2.817   5.086
   34CHL1  H22B 3680   2.970   2.648   5.106
   34CHL1   C23 3681   2.777   2.682   5.007
   34CHL1  H23A 3682   2.706   2.600   5.032
   34CHL1  H23B 3683   2.720   2.776   4.990
   34CHL1   C24 3684   2.849   2.639   4.872
   34CHL1  H24A 3685   2.893   2.735   4.836
   34CHL1  H24B 3686   2.927   2.563   4.891
   34CHL1   C25 3687   2.743   2.588   4.769
   34CHL1   H25 3688   2.651   2.650   4.769
   34CHL1   C26 3689   2.802   2.592   4.625
   34CHL1  H26A 3690   2.893   2.529   4.621
   34CHL1  H26B 3691   2.721   2.557   4.558
   34CHL1  H26C 3692   2.836   2.690   4.584
   34CHL1   C27 3693   2.713   2.439   4.790
   34CHL1  H27A 3694   2.659   2.421   4.886
   34CHL1  H27B 3695   2.639   2.407   4.714
   34CHL1  H27C 3696   2.807   2.380   4.783
   35CHL1    C3 3697   4.661   5.198   5.942
   35CHL1    H3 3698   4.736   5.119   5.923
   35CHL1    O3 3699   4.662   5.256   6.076
   35CHL1   H3' 3700   4.716   5.335   6.072
   35CHL1    C4 3701   4.684   5.306   5.839
   35CHL1   H4A 3702   4.604   5.380   5.858
   35CHL1   H4B 3703   4.788   5.345   5.848
   35CHL1    C5 3704   4.677   5.260   5.691
   35CHL1    C6 3705   4.785   5.253   5.605
   35CHL1    H6 3706   4.886   5.285   5.636
   35CHL1    C7 3707   4.780   5.185   5.471
   35CHL1   H7A 3708   4.843   5.230   5.391
   35CHL1   H7B 3709   4.815   5.080   5.480
   35CHL1    C8 3710   4.636   5.186   5.412
   35CHL1    H8 3711   4.607   5.290   5.389
   35CHL1   C14 3712   4.636   5.102   5.285
   35CHL1   H14 3713   4.652   4.998   5.319
   35CHL1   C15 3714   4.738   5.127   5.169
   35CHL1  H15A 3715   4.751   5.237   5.162
   35CHL1  H15B 3716   4.837   5.078   5.186
   35CHL1   C16 3717   4.665   5.074   5.036
   35CHL1  H16A 3718   4.672   5.165   4.973
   35CHL1  H16B 3719   4.715   4.989   4.984
   35CHL1   C17 3720   4.524   5.036   5.084
   35CHL1   H17 3721   4.530   4.930   5.116
   35CHL1   C13 3722   4.498   5.097   5.224
   35CHL1   C18 3723   4.447   5.242   5.186
   35CHL1  H18A 3724   4.509   5.292   5.108
   35CHL1  H18B 3725   4.338   5.233   5.166
   35CHL1  H18C 3726   4.447   5.310   5.274
   35CHL1   C12 3727   4.400   5.026   5.330
   35CHL1  H12A 3728   4.299   5.018   5.284
   35CHL1  H12B 3729   4.437   4.923   5.350
   35CHL1   C11 3730   4.395   5.112   5.460
   35CHL1  H11A 3731   4.347   5.209   5.434
   35CHL1  H11B 3732   4.337   5.063   5.541
   35CHL1    C9 3733   4.542   5.125   5.526
   35CHL1    H9 3734   4.593   5.027   5.536
   35CHL1   C10 3735   4.539   5.202   5.663
   35CHL1   C19 3736   4.430   5.316   5.652
   35CHL1  H19A 3737   4.439   5.380   5.562
   35CHL1  H19B 3738   4.330   5.272   5.636
   35CHL1  H19C 3739   4.421   5.368   5.750
   35CHL1    C1 3740   4.493   5.100   5.777
   35CHL1   H1A 3741   4.392   5.056   5.764
   35CHL1   H1B 3742   4.566   5.017   5.760
   35CHL1    C2 3743   4.516   5.152   5.918
   35CHL1   H2A 3744   4.483   5.079   5.995
   35CHL1   H2B 3745   4.459   5.246   5.937
   35CHL1   C20 3746   4.418   5.039   4.971
   35CHL1   H20 3747   4.395   5.147   4.956
   35CHL1   C21 3748   4.295   4.961   5.010
   35CHL1  H21A 3749   4.323   4.854   5.025
   35CHL1  H21B 3750   4.218   4.969   4.930
   35CHL1  H21C 3751   4.245   4.993   5.103
   35CHL1   C22 3752   4.474   4.991   4.830
   35CHL1  H22A 3753   4.561   5.052   4.799
   35CHL1  H22B 3754   4.510   4.886   4.837
   35CHL1   C23 3755   4.367   4.991   4.715
   35CHL1  H23A 3756   4.277   4.930   4.736
   35CHL1  H23B 3757   4.327   5.094   4.705
   35CHL1   C24 3758   4.429   4.937   4.583
   35CHL1  H24A 3759   4.525   4.982   4.550
   35CHL1  H24B 3760   4.454   4.829   4.596
   35CHL1   C25 3761   4.329   4.943   4.462
   35CHL1   H25 3762   4.225   4.930   4.497
   35CHL1   C26 3763   4.321   5.085   4.408
   35CHL1  H26A 3764   4.416   5.128   4.369
   35CHL1  H26B 3765   4.247   5.093   4.325
   35CHL1  H26C 3766   4.292   5.160   4.484
   35CHL1   C27 3767   4.366   4.833   4.355
   35CHL1  H27A 3768   4.457   4.862   4.297
   35CHL1  H27B 3769   4.371   4.730   4.394
   35CHL1  H27C 3770   4.288   4.831   4.276
   36CHL1    C3 3771   0.379   3.603   6.118
   36CHL1    H3 3772   0.442   3.523   6.072
   36CHL1    O3 3773   0.385   3.574   6.255
   36CHL1   H3' 3774   0.337   3.650   6.289
   36CHL1    C4 3775   0.451   3.741   6.094
   36CHL1   H4A 3776   0.393   3.814   6.155
   36CHL1   H4B 3777   0.550   3.740   6.144
   36CHL1    C5 3778   0.449   3.770   5.950
   36CHL1    C6 3779   0.559   3.810   5.883
   36CHL1    H6 3780   0.654   3.819   5.937
   36CHL1    C7 3781   0.563   3.835   5.737
   36CHL1   H7A 3782   0.641   3.911   5.718
   36CHL1   H7B 3783   0.598   3.740   5.691
   36CHL1    C8 3784   0.432   3.868   5.674
   36CHL1    H8 3785   0.390   3.968   5.699
   36CHL1   C14 3786   0.443   3.846   5.527
   36CHL1   H14 3787   0.454   3.737   5.507
   36CHL1   C15 3788   0.559   3.915   5.447
   36CHL1  H15A 3789   0.563   4.015   5.496
   36CHL1  H15B 3790   0.660   3.870   5.442
   36CHL1   C16 3791   0.496   3.929   5.301
   36CHL1  H16A 3792   0.491   4.035   5.269
   36CHL1  H16B 3793   0.561   3.871   5.232
   36CHL1   C17 3794   0.345   3.878   5.301
   36CHL1   H17 3795   0.346   3.771   5.270
   36CHL1   C13 3796   0.316   3.889   5.455
   36CHL1   C18 3797   0.275   4.040   5.481
   36CHL1  H18A 3798   0.359   4.109   5.459
   36CHL1  H18B 3799   0.199   4.070   5.407
   36CHL1  H18C 3800   0.228   4.045   5.582
   36CHL1   C12 3801   0.207   3.794   5.498
   36CHL1  H12A 3802   0.114   3.841   5.459
   36CHL1  H12B 3803   0.233   3.695   5.455
   36CHL1   C11 3804   0.192   3.788   5.650
   36CHL1  H11A 3805   0.133   3.877   5.678
   36CHL1  H11B 3806   0.129   3.703   5.684
   36CHL1    C9 3807   0.327   3.774   5.720
   36CHL1    H9 3808   0.369   3.674   5.695
   36CHL1   C10 3809   0.312   3.759   5.874
   36CHL1   C19 3810   0.231   3.883   5.925
   36CHL1  H19A 3811   0.208   3.876   6.033
   36CHL1  H19B 3812   0.280   3.977   5.891
   36CHL1  H19C 3813   0.133   3.884   5.871
   36CHL1    C1 3814   0.233   3.626   5.912
   36CHL1   H1A 3815   0.128   3.629   5.877
   36CHL1   H1B 3816   0.273   3.530   5.873
   36CHL1    C2 3817   0.235   3.596   6.066
   36CHL1   H2A 3818   0.190   3.497   6.087
   36CHL1   H2B 3819   0.175   3.671   6.121
   36CHL1   C20 3820   0.273   3.952   5.195
   36CHL1   H20 3821   0.279   4.057   5.232
   36CHL1   C21 3822   0.128   3.899   5.184
   36CHL1  H21A 3823   0.053   3.947   5.118
   36CHL1  H21B 3824   0.083   3.905   5.286
   36CHL1  H21C 3825   0.138   3.791   5.161
   36CHL1   C22 3826   0.345   3.953   5.060
   36CHL1  H22A 3827   0.276   4.010   4.994
   36CHL1  H22B 3828   0.442   4.007   5.072
   36CHL1   C23 3829   0.371   3.812   4.997
   36CHL1  H23A 3830   0.423   3.746   5.070
   36CHL1  H23B 3831   0.272   3.768   4.971
   36CHL1   C24 3832   0.464   3.826   4.869
   36CHL1  H24A 3833   0.401   3.889   4.803
   36CHL1  H24B 3834   0.556   3.883   4.892
   36CHL1   C25 3835   0.527   3.701   4.813
   36CHL1   H25 3836   0.575   3.657   4.902
   36CHL1   C26 3837   0.416   3.596   4.768
   36CHL1  H26A 3838   0.334   3.576   4.841
   36CHL1  H26B 3839   0.373   3.625   4.670
   36CHL1  H26C 3840   0.457   3.495   4.748
   36CHL1   C27 3841   0.618   3.717   4.697
   36CHL1  H27A 3842   0.660   3.618   4.668
   36CHL1  H27B 3843   0.570   3.767   4.610
   36CHL1  H27C 3844   0.702   3.782   4.728
   37CHL1    C3 3845   1.208   0.379   5.909
   37CHL1    H3 3846   1.305   0.432   5.904
   37CHL1    O3 3847   1.150   0.408   6.032
   37CHL1   H3' 3848   1.196   0.484   6.069
   37CHL1    C4 3849   1.124   0.444   5.791
   37CHL1   H4A 3850   1.017   0.427   5.817
   37CHL1   H4B 3851   1.127   0.554   5.798
   37CHL1    C5 3852   1.149   0.395   5.652
   37CHL1    C6 3853   1.173   0.472   5.544
   37CHL1    H6 3854   1.166   0.581   5.556
   37CHL1    C7 3855   1.196   0.425   5.407
   37CHL1   H7A 3856   1.155   0.496   5.331
   37CHL1   H7B 3857   1.304   0.428   5.380
   37CHL1    C8 3858   1.164   0.277   5.383
   37CHL1    H8 3859   1.055   0.263   5.368
   37CHL1   C14 3860   1.228   0.221   5.260
   37CHL1   H14 3861   1.338   0.228   5.274
   37CHL1   C15 3862   1.212   0.300   5.134
   37CHL1  H15A 3863   1.109   0.338   5.117
   37CHL1  H15B 3864   1.275   0.392   5.136
   37CHL1   C16 3865   1.257   0.201   5.019
   37CHL1  H16A 3866   1.181   0.187   4.938
   37CHL1  H16B 3867   1.356   0.230   4.977
   37CHL1   C17 3868   1.288   0.065   5.090
   37CHL1   H17 3869   1.388   0.068   5.139
   37CHL1   C13 3870   1.201   0.077   5.218
   37CHL1   C18 3871   1.047   0.064   5.190
   37CHL1  H18A 3872   1.021   6.810   5.179
   37CHL1  H18B 3873   0.993   0.101   5.280
   37CHL1  H18C 3874   1.011   0.124   5.104
   37CHL1   C12 3875   1.255   6.849   5.337
   37CHL1  H12A 3876   1.228   6.742   5.324
   37CHL1  H12B 3877   1.365   0.008   5.344
   37CHL1   C11 3878   1.186   0.042   5.475
   37CHL1  H11A 3879   1.078   0.020   5.458
   37CHL1  H11B 3880   1.246   6.850   5.556
   37CHL1    C9 3881   1.217   0.193   5.495
   37CHL1    H9 3882   1.327   0.208   5.499
   37CHL1   C10 3883   1.159   0.239   5.632
   37CHL1   C19 3884   1.026   0.172   5.658
   37CHL1  H19A 3885   0.952   0.185   5.576
   37CHL1  H19B 3886   1.046   0.064   5.677
   37CHL1  H19C 3887   0.974   0.198   5.753
   37CHL1    C1 3888   1.261   0.197   5.743
   37CHL1   H1A 3889   1.260   0.086   5.752
   37CHL1   H1B 3890   1.362   0.236   5.718
   37CHL1    C2 3891   1.223   0.232   5.888
   37CHL1   H2A 3892   1.303   0.190   5.953
   37CHL1   H2B 3893   1.122   0.187   5.899
   37CHL1   C20 3894   1.281   6.787   5.009
   37CHL1   H20 3895   1.276   6.709   5.088
   37CHL1   C21 3896   1.416   6.772   4.947
   37CHL1  H21A 3897   1.485   6.750   5.032
   37CHL1  H21B 3898   1.431   0.014   4.893
   37CHL1  H21C 3899   1.422   6.684   4.879
   37CHL1   C22 3900   1.158   6.768   4.913
   37CHL1  H22A 3901   1.060   6.775   4.964
   37CHL1  H22B 3902   1.164   6.846   4.833
   37CHL1   C23 3903   1.148   6.636   4.828
   37CHL1  H23A 3904   1.231   6.628   4.755
   37CHL1  H23B 3905   1.156   6.549   4.896
   37CHL1   C24 3906   1.011   6.626   4.760
   37CHL1  H24A 3907   0.924   6.639   4.828
   37CHL1  H24B 3908   1.013   6.704   4.681
   37CHL1   C25 3909   0.977   6.491   4.701
   37CHL1   H25 3910   1.066   6.449   4.649
   37CHL1   C26 3911   0.930   6.386   4.799
   37CHL1  H26A 3912   0.960   6.286   4.762
   37CHL1  H26B 3913   0.980   6.406   4.896
   37CHL1  H26C 3914   0.821   6.396   4.818
   37CHL1   C27 3915   0.872   6.508   4.584
   37CHL1  H27A 3916   0.865   6.409   4.533
   37CHL1  H27B 3917   0.776   6.546   4.624
   37CHL1  H27C 3918   0.911   6.574   4.503
   38CHL1    C3 3919   1.921   0.905   5.905
   38CHL1    H3 3920   1.832   0.840   5.915
   38CHL1    O3 3921   1.979   0.911   6.034
   38CHL1   H3' 3922   1.988   0.820   6.061
   38CHL1    C4 3923   2.026   0.842   5.814
   38CHL1   H4A 3924   2.101   0.924   5.805
   38CHL1   H4B 3925   2.069   0.748   5.854
   38CHL1    C5 3926   1.966   0.823   5.677
   38CHL1    C6 3927   1.962   0.698   5.629
   38CHL1    H6 3928   1.993   0.617   5.697
   38CHL1    C7 3929   1.929   0.671   5.487
   38CHL1   H7A 3930   2.005   0.602   5.444
   38CHL1   H7B 3931   1.826   0.633   5.470
   38CHL1    C8 3932   1.935   0.802   5.401
   38CHL1    H8 3933   2.038   0.841   5.387
   38CHL1   C14 3934   1.877   0.774   5.264
   38CHL1   H14 3935   1.773   0.741   5.283
   38CHL1   C15 3936   1.944   0.666   5.180
   38CHL1  H15A 3937   2.055   0.669   5.189
   38CHL1  H15B 3938   1.921   0.562   5.210
   38CHL1   C16 3939   1.888   0.687   5.041
   38CHL1  H16A 3940   1.968   0.695   4.963
   38CHL1  H16B 3941   1.826   0.601   5.010
   38CHL1   C17 3942   1.812   0.829   5.037
   38CHL1   H17 3943   1.706   0.798   5.048
   38CHL1   C13 3944   1.862   0.896   5.169
   38CHL1   C18 3945   2.001   0.964   5.138
   38CHL1  H18A 3946   1.970   1.067   5.109
   38CHL1  H18B 3947   2.052   0.977   5.236
   38CHL1  H18C 3948   2.062   0.910   5.063
   38CHL1   C12 3949   1.766   0.990   5.242
   38CHL1  H12A 3950   1.740   1.084   5.188
   38CHL1  H12B 3951   1.674   0.928   5.249
   38CHL1   C11 3952   1.810   1.032   5.386
   38CHL1  H11A 3953   1.896   1.098   5.364
   38CHL1  H11B 3954   1.729   1.097   5.427
   38CHL1    C9 3955   1.848   0.909   5.476
   38CHL1    H9 3956   1.752   0.856   5.494
   38CHL1   C10 3957   1.921   0.949   5.607
   38CHL1   C19 3958   2.040   1.039   5.574
   38CHL1  H19A 3959   2.103   1.057   5.664
   38CHL1  H19B 3960   2.112   0.991   5.505
   38CHL1  H19C 3961   2.030   1.144   5.538
   38CHL1    C1 3962   1.820   1.015   5.702
   38CHL1   H1A 3963   1.798   1.117   5.665
   38CHL1   H1B 3964   1.725   0.958   5.693
   38CHL1    C2 3965   1.878   1.041   5.846
   38CHL1   H2A 3966   1.807   1.103   5.906
   38CHL1   H2B 3967   1.970   1.102   5.833
   38CHL1   C20 3968   1.832   0.904   4.907
   38CHL1   H20 3969   1.938   0.930   4.887
   38CHL1   C21 3970   1.762   1.041   4.921
   38CHL1  H21A 3971   1.825   1.107   4.984
   38CHL1  H21B 3972   1.662   1.029   4.967
   38CHL1  H21C 3973   1.747   1.092   4.824
   38CHL1   C22 3974   1.791   0.835   4.778
   38CHL1  H22A 3975   1.832   0.732   4.773
   38CHL1  H22B 3976   1.680   0.825   4.775
   38CHL1   C23 3977   1.827   0.907   4.645
   38CHL1  H23A 3978   1.771   0.861   4.561
   38CHL1  H23B 3979   1.801   1.015   4.647
   38CHL1   C24 3980   1.983   0.913   4.617
   38CHL1  H24A 3981   2.010   0.973   4.528
   38CHL1  H24B 3982   2.032   0.947   4.711
   38CHL1   C25 3983   2.034   0.778   4.585
   38CHL1   H25 3984   2.014   0.703   4.664
   38CHL1   C26 3985   1.966   0.728   4.449
   38CHL1  H26A 3986   1.962   0.798   4.362
   38CHL1  H26B 3987   2.016   0.633   4.421
   38CHL1  H26C 3988   1.861   0.700   4.472
   38CHL1   C27 3989   2.186   0.769   4.573
   38CHL1  H27A 3990   2.213   0.844   4.495
   38CHL1  H27B 3991   2.246   0.778   4.666
   38CHL1  H27C 3992   2.217   0.672   4.531
   39CHL1    C3 3993   3.589   1.420   6.453
   39CHL1    H3 3994   3.594   1.310   6.439
   39CHL1    O3 3995   3.572   1.451   6.592
   39CHL1   H3' 3996   3.573   1.547   6.603
   39CHL1    C4 3997   3.722   1.485   6.397
   39CHL1   H4A 3998   3.726   1.588   6.438
   39CHL1   H4B 3999   3.800   1.430   6.453
   39CHL1    C5 4000   3.748   1.500   6.249
   39CHL1    C6 4001   3.864   1.453   6.191
   39CHL1    H6 4002   3.951   1.417   6.249
   39CHL1    C7 4003   3.896   1.464   6.049
   39CHL1   H7A 4004   3.998   1.507   6.036
   39CHL1   H7B 4005   3.900   1.363   6.001
   39CHL1    C8 4006   3.796   1.548   5.965
   39CHL1    H8 4007   3.819   1.656   5.977
   39CHL1   C14 4008   3.807   1.531   5.811
   39CHL1   H14 4009   3.779   1.425   5.790
   39CHL1   C15 4010   3.945   1.540   5.758
   39CHL1  H15A 4011   3.979   1.640   5.791
   39CHL1  H15B 4012   4.009   1.450   5.772
   39CHL1   C16 4013   3.915   1.553   5.607
   39CHL1  H16A 4014   3.968   1.648   5.587
   39CHL1  H16B 4015   3.941   1.467   5.541
   39CHL1   C17 4016   3.762   1.577   5.594
   39CHL1   H17 4017   3.724   1.475   5.573
   39CHL1   C13 4018   3.712   1.622   5.733
   39CHL1   C18 4019   3.742   1.774   5.745
   39CHL1  H18A 4020   3.667   1.838   5.694
   39CHL1  H18B 4021   3.732   1.803   5.851
   39CHL1  H18C 4022   3.841   1.804   5.705
   39CHL1   C12 4023   3.566   1.585   5.769
   39CHL1  H12A 4024   3.495   1.652   5.716
   39CHL1  H12B 4025   3.541   1.479   5.743
   39CHL1   C11 4026   3.556   1.604   5.923
   39CHL1  H11A 4027   3.559   1.714   5.942
   39CHL1  H11B 4028   3.451   1.572   5.945
   39CHL1    C9 4029   3.652   1.526   6.011
   39CHL1    H9 4030   3.632   1.418   5.995
   39CHL1   C10 4031   3.630   1.555   6.166
   39CHL1   C19 4032   3.630   1.707   6.193
   39CHL1  H19A 4033   3.716   1.767   6.155
   39CHL1  H19B 4034   3.544   1.750   6.137
   39CHL1  H19C 4035   3.631   1.730   6.301
   39CHL1    C1 4036   3.504   1.480   6.216
   39CHL1   H1A 4037   3.407   1.506   6.169
   39CHL1   H1B 4038   3.517   1.376   6.178
   39CHL1    C2 4039   3.471   1.465   6.369
   39CHL1   H2A 4040   3.384   1.397   6.384
   39CHL1   H2B 4041   3.449   1.569   6.402
   39CHL1   C20 4042   3.723   1.653   5.465
   39CHL1   H20 4043   3.724   1.759   5.497
   39CHL1   C21 4044   3.578   1.605   5.434
   39CHL1  H21A 4045   3.515   1.598   5.526
   39CHL1  H21B 4046   3.570   1.500   5.399
   39CHL1  H21C 4047   3.539   1.668   5.351
   39CHL1   C22 4048   3.818   1.616   5.354
   39CHL1  H22A 4049   3.910   1.678   5.356
   39CHL1  H22B 4050   3.845   1.509   5.348
   39CHL1   C23 4051   3.761   1.647   5.216
   39CHL1  H23A 4052   3.697   1.562   5.186
   39CHL1  H23B 4053   3.707   1.744   5.210
   39CHL1   C24 4054   3.882   1.651   5.110
   39CHL1  H24A 4055   3.942   1.732   5.158
   39CHL1  H24B 4056   3.946   1.562   5.122
   39CHL1   C25 4057   3.839   1.686   4.968
   39CHL1   H25 4058   3.772   1.773   4.978
   39CHL1   C26 4059   3.956   1.716   4.871
   39CHL1  H26A 4060   3.917   1.754   4.774
   39CHL1  H26B 4061   4.016   1.799   4.914
   39CHL1  H26C 4062   4.027   1.632   4.861
   39CHL1   C27 4063   3.750   1.571   4.913
   39CHL1  H27A 4064   3.815   1.481   4.914
   39CHL1  H27B 4065   3.661   1.561   4.979
   39CHL1  H27C 4066   3.721   1.587   4.807
   40CHL1    C3 4067   3.736   4.109   5.940
   40CHL1    H3 4068   3.651   4.180   5.936
   40CHL1    O3 4069   3.764   4.072   6.077
   40CHL1   H3' 4070   3.846   4.022   6.071
   40CHL1    C4 4071   3.716   3.978   5.864
   40CHL1   H4A 4072   3.807   3.917   5.884
   40CHL1   H4B 4073   3.629   3.924   5.907
   40CHL1    C5 4074   3.689   4.010   5.718
   40CHL1    C6 4075   3.575   3.978   5.658
   40CHL1    H6 4076   3.487   3.936   5.708
   40CHL1    C7 4077   3.542   4.013   5.510
   40CHL1   H7A 4078   3.482   3.931   5.465
   40CHL1   H7B 4079   3.483   4.106   5.497
   40CHL1    C8 4080   3.670   4.033   5.430
   40CHL1    H8 4081   3.730   3.939   5.429
   40CHL1   C14 4082   3.638   4.077   5.291
   40CHL1   H14 4083   3.570   4.159   5.320
   40CHL1   C15 4084   3.542   3.987   5.204
   40CHL1  H15A 4085   3.574   3.881   5.211
   40CHL1  H15B 4086   3.438   3.994   5.240
   40CHL1   C16 4087   3.571   4.048   5.064
   40CHL1  H16A 4088   3.607   3.963   5.001
   40CHL1  H16B 4089   3.476   4.091   5.026
   40CHL1   C17 4090   3.678   4.161   5.079
   40CHL1   H17 4091   3.616   4.246   5.114
   40CHL1   C13 4092   3.752   4.124   5.205
   40CHL1   C18 4093   3.851   4.004   5.170
   40CHL1  H18A 4094   3.877   3.947   5.262
   40CHL1  H18B 4095   3.798   3.946   5.092
   40CHL1  H18C 4096   3.937   4.053   5.120
   40CHL1   C12 4097   3.825   4.233   5.278
   40CHL1  H12A 4098   3.910   4.271   5.217
   40CHL1  H12B 4099   3.762   4.325   5.273
   40CHL1   C11 4100   3.877   4.196   5.423
   40CHL1  H11A 4101   3.967   4.131   5.411
   40CHL1  H11B 4102   3.912   4.293   5.463
   40CHL1    C9 4103   3.765   4.134   5.511
   40CHL1    H9 4104   3.700   4.220   5.536
   40CHL1   C10 4105   3.810   4.089   5.653
   40CHL1   C19 4106   3.929   3.984   5.636
   40CHL1  H19A 4107   3.891   3.896   5.579
   40CHL1  H19B 4108   4.019   4.021   5.582
   40CHL1  H19C 4109   3.965   3.937   5.730
   40CHL1    C1 4110   3.855   4.215   5.734
   40CHL1   H1A 4111   3.956   4.248   5.702
   40CHL1   H1B 4112   3.783   4.298   5.718
   40CHL1    C2 4113   3.863   4.181   5.888
   40CHL1   H2A 4114   3.883   4.275   5.943
   40CHL1   H2B 4115   3.952   4.117   5.904
   40CHL1   C20 4116   3.737   4.200   4.943
   40CHL1   H20 4117   3.808   4.121   4.909
   40CHL1   C21 4118   3.834   4.317   4.962
   40CHL1  H21A 4119   3.861   4.366   4.866
   40CHL1  H21B 4120   3.926   4.286   5.016
   40CHL1  H21C 4121   3.782   4.393   5.025
   40CHL1   C22 4122   3.634   4.242   4.839
   40CHL1  H22A 4123   3.551   4.169   4.831
   40CHL1  H22B 4124   3.585   4.340   4.862
   40CHL1   C23 4125   3.685   4.240   4.694
   40CHL1  H23A 4126   3.782   4.289   4.675
   40CHL1  H23B 4127   3.702   4.132   4.675
   40CHL1   C24 4128   3.579   4.298   4.604
   40CHL1  H24A 4129   3.489   4.237   4.629
   40CHL1  H24B 4130   3.572   4.406   4.628
   40CHL1   C25 4131   3.609   4.282   4.451
   40CHL1   H25 4132   3.717   4.294   4.424
   40CHL1   C26 4133   3.564   4.147   4.397
   40CHL1  H26A 4134   3.456   4.135   4.416
   40CHL1  H26B 4135   3.580   4.129   4.288
   40CHL1  H26C 4136   3.629   4.065   4.432
   40CHL1   C27 4137   3.539   4.392   4.367
   40CHL1  H27A 4138   3.430   4.381   4.385
   40CHL1  H27B 4139   3.576   4.495   4.386
   40CHL1  H27C 4140   3.558   4.373   4.259
   41CHL1    C3 4141   0.704   4.691   5.902
   41CHL1    H3 4142   0.636   4.683   5.815
   41CHL1    O3 4143   0.661   4.584   5.988
   41CHL1   H3' 4144   0.731   4.569   6.052
   41CHL1    C4 4145   0.845   4.668   5.848
   41CHL1   H4A 4146   0.914   4.651   5.933
   41CHL1   H4B 4147   0.851   4.574   5.789
   41CHL1    C5 4148   0.898   4.794   5.770
   41CHL1    C6 4149   0.943   4.774   5.642
   41CHL1    H6 4150   0.960   4.674   5.598
   41CHL1    C7 4151   1.008   4.883   5.562
   41CHL1   H7A 4152   1.108   4.839   5.542
   41CHL1   H7B 4153   0.954   4.911   5.469
   41CHL1    C8 4154   1.030   5.017   5.645
   41CHL1    H8 4155   1.127   5.011   5.699
   41CHL1   C14 4156   1.047   5.137   5.552
   41CHL1   H14 4157   0.959   5.138   5.485
   41CHL1   C15 4158   1.164   5.117   5.451
   41CHL1  H15A 4159   1.258   5.088   5.502
   41CHL1  H15B 4160   1.143   5.049   5.365
   41CHL1   C16 4161   1.167   5.262   5.397
   41CHL1  H16A 4162   1.273   5.294   5.405
   41CHL1  H16B 4163   1.133   5.250   5.292
   41CHL1   C17 4164   1.076   5.358   5.483
   41CHL1   H17 4165   0.979   5.347   5.428
   41CHL1   C13 4166   1.054   5.283   5.613
   41CHL1   C18 4167   1.185   5.298   5.696
   41CHL1  H18A 4168   1.168   5.388   5.758
   41CHL1  H18B 4169   1.191   5.210   5.763
   41CHL1  H18C 4170   1.275   5.321   5.634
   41CHL1   C12 4171   0.925   5.302   5.695
   41CHL1  H12A 4172   0.936   5.396   5.754
   41CHL1  H12B 4173   0.842   5.314   5.623
   41CHL1   C11 4174   0.904   5.190   5.794
   41CHL1  H11A 4175   0.979   5.202   5.876
   41CHL1  H11B 4176   0.816   5.220   5.856
   41CHL1    C9 4177   0.914   5.045   5.736
   41CHL1    H9 4178   0.832   5.045   5.661
   41CHL1   C10 4179   0.882   4.928   5.837
   41CHL1   C19 4180   0.980   4.944   5.957
   41CHL1  H19A 4181   0.973   5.046   6.001
   41CHL1  H19B 4182   0.990   4.869   6.039
   41CHL1  H19C 4183   1.082   4.941   5.914
   41CHL1    C1 4184   0.737   4.950   5.901
   41CHL1   H1A 4185   0.743   5.034   5.973
   41CHL1   H1B 4186   0.665   4.980   5.822
   41CHL1    C2 4187   0.681   4.826   5.975
   41CHL1   H2A 4188   0.571   4.838   5.986
   41CHL1   H2B 4189   0.727   4.821   6.076
   41CHL1   C20 4190   1.112   5.510   5.476
   41CHL1   H20 4191   1.213   5.516   5.521
   41CHL1   C21 4192   1.003   5.598   5.545
   41CHL1  H21A 4193   0.988   5.577   5.653
   41CHL1  H21B 4194   0.901   5.581   5.503
   41CHL1  H21C 4195   1.039   5.702   5.529
   41CHL1   C22 4196   1.145   5.559   5.329
   41CHL1  H22A 4197   1.180   5.664   5.340
   41CHL1  H22B 4198   1.228   5.499   5.287
   41CHL1   C23 4199   1.029   5.546   5.228
   41CHL1  H23A 4200   1.023   5.447   5.178
   41CHL1  H23B 4201   0.937   5.547   5.291
   41CHL1   C24 4202   1.030   5.644   5.112
   41CHL1  H24A 4203   0.939   5.633   5.049
   41CHL1  H24B 4204   1.023   5.751   5.141
   41CHL1   C25 4205   1.153   5.621   5.026
   41CHL1   H25 4206   1.239   5.611   5.095
   41CHL1   C26 4207   1.144   5.498   4.939
   41CHL1  H26A 4208   1.246   5.475   4.900
   41CHL1  H26B 4209   1.112   5.411   5.000
   41CHL1  H26C 4210   1.082   5.505   4.847
   41CHL1   C27 4211   1.180   5.740   4.927
   41CHL1  H27A 4212   1.162   5.836   4.978
   41CHL1  H27B 4213   1.277   5.734   4.873
   41CHL1  H27C 4214   1.110   5.723   4.843
   42CHL1    C3 4215   5.840   3.593   5.770
   42CHL1    H3 4216   5.755   3.522   5.771
   42CHL1    O3 4217   5.860   3.616   5.906
   42CHL1   H3' 4218   5.885   3.535   5.950
   42CHL1    C4 4219   5.965   3.524   5.722
   42CHL1   H4A 4220   6.055   3.583   5.749
   42CHL1   H4B 4221   5.991   3.423   5.760
   42CHL1    C5 4222   5.966   3.521   5.571
   42CHL1    C6 4223   5.976   3.415   5.493
   42CHL1    H6 4224   5.999   3.318   5.540
   42CHL1    C7 4225   5.968   3.408   5.345
   42CHL1   H7A 4226   6.047   3.338   5.310
   42CHL1   H7B 4227   5.875   3.362   5.304
   42CHL1    C8 4228   6.004   3.545   5.282
   42CHL1    H8 4229   6.110   3.571   5.297
   42CHL1   C14 4230   5.976   3.542   5.131
   42CHL1   H14 4231   5.870   3.511   5.121
   42CHL1   C15 4232   6.050   3.439   5.043
   42CHL1  H15A 4233   6.150   3.440   5.090
   42CHL1  H15B 4234   6.011   3.335   5.051
   42CHL1   C16 4235   6.052   3.502   4.898
   42CHL1  H16A 4236   6.158   3.526   4.874
   42CHL1  H16B 4237   6.004   3.438   4.821
   42CHL1   C17 4238   5.954   3.625   4.908
   42CHL1   H17 4239   5.851   3.584   4.899
   42CHL1   C13 4240   5.979   3.675   5.053
   42CHL1   C18 4241   6.121   3.734   5.073
   42CHL1  H18A 4242   6.194   3.674   5.015
   42CHL1  H18B 4243   6.116   3.841   5.040
   42CHL1  H18C 4244   6.152   3.724   5.179
   42CHL1   C12 4245   5.870   3.772   5.122
   42CHL1  H12A 4246   5.872   3.876   5.082
   42CHL1  H12B 4247   5.772   3.725   5.100
   42CHL1   C11 4248   5.892   3.778   5.271
   42CHL1  H11A 4249   5.987   3.834   5.284
   42CHL1  H11B 4250   5.812   3.839   5.317
   42CHL1    C9 4251   5.899   3.639   5.343
   42CHL1    H9 4252   5.800   3.591   5.334
   42CHL1   C10 4253   5.925   3.655   5.496
   42CHL1   C19 4254   6.040   3.752   5.525
   42CHL1  H19A 4255   6.003   3.856   5.515
   42CHL1  H19B 4256   6.086   3.747   5.626
   42CHL1  H19C 4257   6.128   3.733   5.460
   42CHL1    C1 4258   5.799   3.714   5.560
   42CHL1   H1A 4259   5.774   3.817   5.529
   42CHL1   H1B 4260   5.710   3.654   5.533
   42CHL1    C2 4261   5.813   3.722   5.711
   42CHL1   H2A 4262   5.720   3.766   5.751
   42CHL1   H2B 4263   5.883   3.804   5.737
   42CHL1   C20 4264   5.991   3.723   4.799
   42CHL1   H20 4265   6.080   3.783   4.829
   42CHL1   C21 4266   5.879   3.821   4.790
   42CHL1  H21A 4267   5.882   3.869   4.690
   42CHL1  H21B 4268   5.898   3.908   4.857
   42CHL1  H21C 4269   5.775   3.786   4.805
   42CHL1   C22 4270   6.026   3.663   4.658
   42CHL1  H22A 4271   6.062   3.749   4.597
   42CHL1  H22B 4272   6.113   3.594   4.658
   42CHL1   C23 4273   5.907   3.595   4.587
   42CHL1  H23A 4274   5.916   3.488   4.615
   42CHL1  H23B 4275   5.811   3.645   4.612
   42CHL1   C24 4276   5.924   3.595   4.429
   42CHL1  H24A 4277   5.885   3.692   4.391
   42CHL1  H24B 4278   6.029   3.566   4.407
   42CHL1   C25 4279   5.839   3.490   4.363
   42CHL1   H25 4280   5.864   3.398   4.420
   42CHL1   C26 4281   5.694   3.523   4.381
   42CHL1  H26A 4282   5.623   3.447   4.341
   42CHL1  H26B 4283   5.682   3.537   4.491
   42CHL1  H26C 4284   5.663   3.619   4.335
   42CHL1   C27 4285   5.880   3.483   4.208
   42CHL1  H27A 4286   5.866   3.588   4.173
   42CHL1  H27B 4287   5.984   3.445   4.197
   42CHL1  H27C 4288   5.820   3.412   4.149
   43CHL1    C3 4289   6.462   1.712   6.000
   43CHL1    H3 4290   6.371   1.772   6.024
   43CHL1    O3 4291   6.480   1.630   6.111
   43CHL1   H3' 4292   6.551   1.572   6.082
   43CHL1    C4 4293   6.421   1.622   5.886
   43CHL1   H4A 4294   6.497   1.542   5.870
   43CHL1   H4B 4295   6.330   1.569   5.920
   43CHL1    C5 4296   6.411   1.693   5.748
   43CHL1    C6 4297   6.299   1.687   5.673
   43CHL1    H6 4298   6.213   1.622   5.698
   43CHL1    C7 4299   6.280   1.754   5.540
   43CHL1   H7A 4300   6.242   1.674   5.473
   43CHL1   H7B 4301   6.202   1.831   5.554
   43CHL1    C8 4302   6.411   1.812   5.492
   43CHL1    H8 4303   6.470   1.725   5.455
   43CHL1   C14 4304   6.382   1.913   5.383
   43CHL1   H14 4305   6.324   1.996   5.428
   43CHL1   C15 4306   6.296   1.854   5.267
   43CHL1  H15A 4307   6.316   1.747   5.248
   43CHL1  H15B 4308   6.190   1.882   5.285
   43CHL1   C16 4309   6.336   1.941   5.145
   43CHL1  H16A 4310   6.381   1.877   5.066
   43CHL1  H16B 4311   6.252   2.007   5.113
   43CHL1   C17 4312   6.448   2.036   5.204
   43CHL1   H17 4313   6.384   2.118   5.243
   43CHL1   C13 4314   6.507   1.971   5.327
   43CHL1   C18 4315   6.595   1.852   5.274
   43CHL1  H18A 4316   6.542   1.792   5.197
   43CHL1  H18B 4317   6.695   1.870   5.229
   43CHL1  H18C 4318   6.615   1.785   5.360
   43CHL1   C12 4319   6.570   2.059   5.439
   43CHL1  H12A 4320   6.659   2.107   5.393
   43CHL1  H12B 4321   6.510   2.139   5.487
   43CHL1   C11 4322   6.606   1.965   5.556
   43CHL1  H11A 4323   6.696   1.908   5.526
   43CHL1  H11B 4324   6.650   2.031   5.634
   43CHL1    C9 4325   6.488   1.883   5.603
   43CHL1    H9 4326   6.415   1.959   5.640
   43CHL1   C10 4327   6.525   1.789   5.720
   43CHL1   C19 4328   6.639   1.705   5.683
   43CHL1  H19A 4329   6.674   1.642   5.768
   43CHL1  H19B 4330   6.619   1.636   5.599
   43CHL1  H19C 4331   6.730   1.766   5.664
   43CHL1    C1 4332   6.558   1.884   5.837
   43CHL1   H1A 4333   6.651   1.944   5.831
   43CHL1   H1B 4334   6.464   1.941   5.855
   43CHL1    C2 4335   6.586   1.801   5.968
   43CHL1   H2A 4336   6.608   1.867   6.055
   43CHL1   H2B 4337   6.674   1.736   5.945
   43CHL1   C20 4338   6.550   2.102   5.100
   43CHL1   H20 4339   6.645   2.118   5.155
   43CHL1   C21 4340   6.484   2.237   5.051
   43CHL1  H21A 4341   6.430   2.287   5.135
   43CHL1  H21B 4342   6.409   2.206   4.975
   43CHL1  H21C 4343   6.555   2.309   5.006
   43CHL1   C22 4344   6.597   2.020   4.975
   43CHL1  H22A 4345   6.603   1.923   5.028
   43CHL1  H22B 4346   6.525   2.020   4.891
   43CHL1   C23 4347   6.735   2.056   4.917
   43CHL1  H23A 4348   6.719   2.160   4.881
   43CHL1  H23B 4349   6.803   2.052   5.005
   43CHL1   C24 4350   6.766   1.955   4.805
   43CHL1  H24A 4351   6.688   1.938   4.728
   43CHL1  H24B 4352   0.001   2.001   4.757
   43CHL1   C25 4353   6.796   1.811   4.853
   43CHL1   H25 4354   6.705   1.769   4.901
   43CHL1   C26 4355   6.833   1.731   4.728
   43CHL1  H26A 4356   0.066   1.771   4.671
   43CHL1  H26B 4357   6.842   1.621   4.745
   43CHL1  H26C 4358   6.749   1.759   4.661
   43CHL1   C27 4359   0.058   1.806   4.956
   43CHL1  H27A 4360   0.151   1.844   4.909
   43CHL1  H27B 4361   0.034   1.868   5.045
   43CHL1  H27C 4362   0.078   1.702   4.989
   44CHL1    C3 4363   0.244   2.791   5.767
   44CHL1    H3 4364   0.142   2.766   5.730
   44CHL1    O3 4365   0.224   2.781   5.912
   44CHL1   H3' 4366   0.314   2.786   5.945
   44CHL1    C4 4367   0.333   2.683   5.702
   44CHL1   H4A 4368   0.428   2.679   5.759
   44CHL1   H4B 4369   0.277   2.590   5.725
   44CHL1    C5 4370   0.354   2.708   5.551
   44CHL1    C6 4371   0.329   2.611   5.466
   44CHL1    H6 4372   0.301   2.512   5.505
   44CHL1    C7 4373   0.342   2.622   5.317
   44CHL1   H7A 4374   0.401   2.538   5.275
   44CHL1   H7B 4375   0.244   2.608   5.267
   44CHL1    C8 4376   0.412   2.758   5.262
   44CHL1    H8 4377   0.518   2.757   5.293
   44CHL1   C14 4378   0.379   2.787   5.119
   44CHL1   H14 4379   0.268   2.788   5.104
   44CHL1   C15 4380   0.424   2.684   5.009
   44CHL1  H15A 4381   0.528   2.649   5.029
   44CHL1  H15B 4382   0.358   2.595   5.003
   44CHL1   C16 4383   0.414   2.761   4.878
   44CHL1  H16A 4384   0.498   2.742   4.807
   44CHL1  H16B 4385   0.320   2.718   4.839
   44CHL1   C17 4386   0.410   2.912   4.913
   44CHL1   H17 4387   0.303   2.939   4.908
   44CHL1   C13 4388   0.442   2.920   5.065
   44CHL1   C18 4389   0.596   2.922   5.084
   44CHL1  H18A 4390   0.640   3.015   5.043
   44CHL1  H18B 4391   0.618   2.905   5.192
   44CHL1  H18C 4392   0.631   2.841   5.016
   44CHL1   C12 4393   0.375   3.038   5.146
   44CHL1  H12A 4394   0.404   3.143   5.120
   44CHL1  H12B 4395   0.264   3.037   5.139
   44CHL1   C11 4396   0.402   3.017   5.294
   44CHL1  H11A 4397   0.508   3.042   5.315
   44CHL1  H11B 4398   0.354   3.099   5.352
   44CHL1    C9 4399   0.355   2.878   5.345
   44CHL1    H9 4400   0.245   2.873   5.329
   44CHL1   C10 4401   0.377   2.856   5.504
   44CHL1   C19 4402   0.521   2.897   5.545
   44CHL1  H19A 4403   0.596   2.856   5.475
   44CHL1  H19B 4404   0.520   3.008   5.549
   44CHL1  H19C 4405   0.537   2.861   5.649
   44CHL1    C1 4406   0.274   2.949   5.579
   44CHL1   H1A 4407   0.305   3.054   5.562
   44CHL1   H1B 4408   0.169   2.942   5.546
   44CHL1    C2 4409   0.274   2.934   5.732
   44CHL1   H2A 4410   0.210   3.005   5.788
   44CHL1   H2B 4411   0.378   2.949   5.770
   44CHL1   C20 4412   0.483   3.004   4.816
   44CHL1   H20 4413   0.592   2.992   4.836
   44CHL1   C21 4414   0.439   3.150   4.845
   44CHL1  H21A 4415   0.484   3.209   4.928
   44CHL1  H21B 4416   0.329   3.159   4.840
   44CHL1  H21C 4417   0.465   3.206   4.753
   44CHL1   C22 4418   0.441   2.967   4.668
   44CHL1  H22A 4419   0.498   3.031   4.597
   44CHL1  H22B 4420   0.486   2.868   4.648
   44CHL1   C23 4421   0.291   2.991   4.629
   44CHL1  H23A 4422   0.230   2.917   4.685
   44CHL1  H23B 4423   0.251   3.093   4.646
   44CHL1   C24 4424   0.265   2.968   4.478
   44CHL1  H24A 4425   0.163   2.993   4.443
   44CHL1  H24B 4426   0.332   3.033   4.417
   44CHL1   C25 4427   0.275   2.821   4.427
   44CHL1   H25 4428   0.381   2.792   4.409
   44CHL1   C26 4429   0.196   2.722   4.515
   44CHL1  H26A 4430   0.236   2.716   4.619
   44CHL1  H26B 4431   0.094   2.767   4.522
   44CHL1  H26C 4432   0.184   2.621   4.469
   44CHL1   C27 4433   0.213   2.805   4.281
   44CHL1  H27A 4434   0.105   2.825   4.292
   44CHL1  H27B 4435   0.267   2.872   4.210
   44CHL1  H27C 4436   0.218   2.697   4.253
   45CHL1    C3 4437   6.704   4.260   6.078
   45CHL1    H3 4438   6.697   4.370   6.092
   45CHL1    O3 4439   6.681   4.196   6.206
   45CHL1   H3' 4440   6.664   4.267   6.269
   45CHL1    C4 4441   6.594   4.217   5.985
   45CHL1   H4A 4442   6.590   4.106   5.985
   45CHL1   H4B 4443   6.499   4.257   6.026
   45CHL1    C5 4444   6.615   4.263   5.837
   45CHL1    C6 4445   6.504   4.328   5.776
   45CHL1    H6 4446   6.413   4.349   5.835
   45CHL1    C7 4447   6.511   4.373   5.635
   45CHL1   H7A 4448   6.420   4.345   5.578
   45CHL1   H7B 4449   6.520   4.484   5.627
   45CHL1    C8 4450   6.639   4.323   5.563
   45CHL1    H8 4451   6.613   4.217   5.537
   45CHL1   C14 4452   6.672   4.407   5.438
   45CHL1   H14 4453   6.695   4.509   5.475
   45CHL1   C15 4454   6.555   4.419   5.334
   45CHL1  H15A 4455   6.502   4.323   5.317
   45CHL1  H15B 4456   6.472   4.485   5.368
   45CHL1   C16 4457   6.623   4.467   5.209
   45CHL1  H16A 4458   6.601   4.389   5.133
   45CHL1  H16B 4459   6.584   4.569   5.185
   45CHL1   C17 4460   6.775   4.478   5.248
   45CHL1   H17 4461   6.794   4.576   5.295
   45CHL1   C13 4462   6.800   4.372   5.366
   45CHL1   C18 4463   6.775   4.224   5.326
   45CHL1  H18A 4464   0.010   4.185   5.272
   45CHL1  H18B 4465   6.769   4.151   5.409
   45CHL1  H18C 4466   6.685   4.211   5.262
   45CHL1   C12 4467   0.069   4.384   5.448
   45CHL1  H12A 4468   0.155   4.340   5.394
   45CHL1  H12B 4469   0.080   4.491   5.472
   45CHL1   C11 4470   0.055   4.309   5.586
   45CHL1  H11A 4471   0.074   4.201   5.567
   45CHL1  H11B 4472   0.134   4.352   5.651
   45CHL1    C9 4473   6.765   4.331   5.650
   45CHL1    H9 4474   6.772   4.437   5.681
   45CHL1   C10 4475   6.751   4.244   5.778
   45CHL1   C19 4476   6.781   4.093   5.751
   45CHL1  H19A 4477   0.032   4.077   5.720
   45CHL1  H19B 4478   6.755   4.038   5.844
   45CHL1  H19C 4479   6.713   4.053   5.673
   45CHL1    C1 4480   0.003   4.301   5.883
   45CHL1   H1A 4481   0.106   4.286   5.843
   45CHL1   H1B 4482   6.846   4.407   5.915
   45CHL1    C2 4483   6.847   4.233   6.013
   45CHL1   H2A 4484   0.077   4.266   6.077
   45CHL1   H2B 4485   0.003   4.122   6.013
   45CHL1   C20 4486   0.022   4.487   5.127
   45CHL1   H20 4487   0.126   4.503   5.163
   45CHL1   C21 4488   6.843   4.616   5.055
   45CHL1  H21A 4489   6.736   4.626   5.029
   45CHL1  H21B 4490   0.029   4.627   4.952
   45CHL1  H21C 4491   0.026   4.703   5.114
   45CHL1   C22 4492   0.024   4.366   5.035
   45CHL1  H22A 4493   0.050   4.275   5.093
   45CHL1  H22B 4494   6.782   4.346   4.984
   45CHL1   C23 4495   0.126   4.380   4.925
   45CHL1  H23A 4496   0.134   4.485   4.890
   45CHL1  H23B 4497   0.221   4.356   4.977
   45CHL1   C24 4498   0.111   4.281   4.802
   45CHL1  H24A 4499   0.120   4.180   4.848
   45CHL1  H24B 4500   0.008   4.289   4.762
   45CHL1   C25 4501   0.210   4.295   4.684
   45CHL1   H25 4502   0.317   4.289   4.715
   45CHL1   C26 4503   0.186   4.177   4.598
   45CHL1  H26A 4504   0.270   4.165   4.526
   45CHL1  H26B 4505   0.175   4.083   4.655
   45CHL1  H26C 4506   0.083   4.198   4.560
   45CHL1   C27 4507   0.208   4.434   4.615
   45CHL1  H27A 4508   0.105   4.454   4.580
   45CHL1  H27B 4509   0.232   4.511   4.691
   45CHL1  H27C 4510   0.282   4.446   4.533
   46CHL1    C3 4511   2.576   6.080   5.969
   46CHL1    H3 4512   2.657   6.005   5.957
   46CHL1    O3 4513   2.535   6.068   6.110
   46CHL1   H3' 4514   2.462   6.129   6.117
   46CHL1    C4 4515   2.625   6.222   5.944
   46CHL1   H4A 4516   2.551   6.302   5.967
   46CHL1   H4B 4517   2.715   6.234   6.007
   46CHL1    C5 4518   2.666   6.238   5.796
   46CHL1    C6 4519   2.788   6.276   5.763
   46CHL1    H6 4520   2.859   6.316   5.837
   46CHL1    C7 4521   2.812   6.313   5.617
   46CHL1   H7A 4522   2.868   6.409   5.605
   46CHL1   H7B 4523   2.867   6.225   5.578
   46CHL1    C8 4524   2.699   6.312   5.514
   46CHL1    H8 4525   2.634   6.401   5.527
   46CHL1   C14 4526   2.753   6.289   5.373
   46CHL1   H14 4527   2.802   6.190   5.373
   46CHL1   C15 4528   2.860   6.380   5.304
   46CHL1  H15A 4529   2.827   6.486   5.304
   46CHL1  H15B 4530   2.958   6.365   5.353
   46CHL1   C16 4531   2.866   6.330   5.160
   46CHL1  H16A 4532   2.861   6.418   5.092
   46CHL1  H16B 4533   2.957   6.279   5.121
   46CHL1   C17 4534   2.736   6.243   5.144
   46CHL1   H17 4535   2.781   6.142   5.160
   46CHL1   C13 4536   2.636   6.271   5.266
   46CHL1   C18 4537   2.561   6.401   5.226
   46CHL1  H18A 4538   2.497   6.381   5.138
   46CHL1  H18B 4539   2.483   6.433   5.299
   46CHL1  H18C 4540   2.636   6.481   5.206
   46CHL1   C12 4541   2.549   6.155   5.310
   46CHL1  H12A 4542   2.469   6.146   5.233
   46CHL1  H12B 4543   2.607   6.060   5.310
   46CHL1   C11 4544   2.485   6.186   5.445
   46CHL1  H11A 4545   2.433   6.284   5.445
   46CHL1  H11B 4546   2.404   6.116   5.476
   46CHL1    C9 4547   2.604   6.192   5.549
   46CHL1    H9 4548   2.657   6.095   5.542
   46CHL1   C10 4549   2.551   6.197   5.693
   46CHL1   C19 4550   2.446   6.302   5.692
   46CHL1  H19A 4551   2.477   6.397   5.643
   46CHL1  H19B 4552   2.354   6.264   5.644
   46CHL1  H19C 4553   2.410   6.340   5.790
   46CHL1    C1 4554   2.494   6.061   5.741
   46CHL1   H1A 4555   2.400   6.039   5.686
   46CHL1   H1B 4556   2.570   5.985   5.714
   46CHL1    C2 4557   2.455   6.052   5.886
   46CHL1   H2A 4558   2.412   5.953   5.913
   46CHL1   H2B 4559   2.383   6.133   5.906
   46CHL1   C20 4560   2.682   6.234   5.000
   46CHL1   H20 4561   2.586   6.180   5.008
   46CHL1   C21 4562   2.786   6.146   4.932
   46CHL1  H21A 4563   2.872   6.205   4.894
   46CHL1  H21B 4564   2.747   6.098   4.840
   46CHL1  H21C 4565   2.837   6.065   4.988
   46CHL1   C22 4566   2.665   6.363   4.926
   46CHL1  H22A 4567   2.597   6.431   4.982
   46CHL1  H22B 4568   2.765   6.410   4.915
   46CHL1   C23 4569   2.592   6.357   4.789
   46CHL1  H23A 4570   2.525   6.269   4.785
   46CHL1  H23B 4571   2.526   6.446   4.781
   46CHL1   C24 4572   2.683   6.345   4.660
   46CHL1  H24A 4573   2.729   6.446   4.666
   46CHL1  H24B 4574   2.761   6.268   4.680
   46CHL1   C25 4575   2.635   6.329   4.513
   46CHL1   H25 4576   2.719   6.300   4.446
   46CHL1   C26 4577   2.540   6.208   4.511
   46CHL1  H26A 4578   2.449   6.236   4.568
   46CHL1  H26B 4579   2.507   6.180   4.409
   46CHL1  H26C 4580   2.588   6.113   4.543
   46CHL1   C27 4581   2.560   6.445   4.446
   46CHL1  H27A 4582   2.614   6.541   4.431
   46CHL1  H27B 4583   2.517   6.415   4.348
   46CHL1  H27C 4584   2.468   6.464   4.505
   47CHL1    C3 4585   3.822   4.769   6.220
   47CHL1    H3 4586   3.737   4.707   6.185
   47CHL1    O3 4587   3.822   4.772   6.364
   47CHL1   H3' 4588   3.903   4.817   6.388
   47CHL1    C4 4589   3.959   4.711   6.175
   47CHL1   H4A 4590   4.035   4.785   6.208
   47CHL1   H4B 4591   3.967   4.611   6.223
   47CHL1    C5 4592   3.967   4.700   6.022
   47CHL1    C6 4593   3.996   4.584   5.963
   47CHL1    H6 4594   4.018   4.494   6.021
   47CHL1    C7 4595   3.999   4.556   5.815
   47CHL1   H7A 4596   4.087   4.495   5.787
   47CHL1   H7B 4597   3.907   4.501   5.788
   47CHL1    C8 4598   4.010   4.693   5.742
   47CHL1    H8 4599   4.111   4.739   5.749
   47CHL1   C14 4600   3.980   4.665   5.592
   47CHL1   H14 4601   3.873   4.635   5.595
   47CHL1   C15 4602   4.067   4.555   5.525
   47CHL1  H15A 4603   4.173   4.580   5.543
   47CHL1  H15B 4604   4.037   4.457   5.568
   47CHL1   C16 4605   4.036   4.575   5.374
   47CHL1  H16A 4606   4.125   4.593   5.311
   47CHL1  H16B 4607   3.971   4.491   5.342
   47CHL1   C17 4608   3.956   4.712   5.367
   47CHL1   H17 4609   3.846   4.694   5.360
   47CHL1   C13 4610   3.985   4.786   5.499
   47CHL1   C18 4611   4.132   4.841   5.486
   47CHL1  H18A 4612   4.200   4.766   5.440
   47CHL1  H18B 4613   4.141   4.928   5.417
   47CHL1  H18C 4614   4.174   4.884   5.580
   47CHL1   C12 4615   3.901   4.903   5.551
   47CHL1  H12A 4616   3.929   4.997   5.499
   47CHL1  H12B 4617   3.793   4.888   5.531
   47CHL1   C11 4618   3.914   4.922   5.704
   47CHL1  H11A 4619   4.018   4.959   5.715
   47CHL1  H11B 4620   3.840   4.996   5.742
   47CHL1    C9 4621   3.910   4.798   5.796
   47CHL1    H9 4622   3.808   4.755   5.793
   47CHL1   C10 4623   3.936   4.833   5.945
   47CHL1   C19 4624   4.063   4.916   5.969
   47CHL1  H19A 4625   4.153   4.868   5.924
   47CHL1  H19B 4626   4.047   5.007   5.908
   47CHL1  H19C 4627   4.082   4.946   6.074
   47CHL1    C1 4628   3.811   4.913   5.998
   47CHL1   H1A 4629   3.808   5.012   5.949
   47CHL1   H1B 4630   3.717   4.864   5.965
   47CHL1    C2 4631   3.803   4.911   6.160
   47CHL1   H2A 4632   3.707   4.961   6.187
   47CHL1   H2B 4633   3.873   4.987   6.201
   47CHL1   C20 4634   4.000   4.785   5.241
   47CHL1   H20 4635   4.110   4.792   5.226
   47CHL1   C21 4636   3.930   4.918   5.232
   47CHL1  H21A 4637   3.963   4.999   5.301
   47CHL1  H21B 4638   3.824   4.898   5.260
   47CHL1  H21C 4639   3.934   4.954   5.127
   47CHL1   C22 4640   3.961   4.705   5.109
   47CHL1  H22A 4641   3.996   4.600   5.121
   47CHL1  H22B 4642   3.850   4.706   5.113
   47CHL1   C23 4643   4.014   4.753   4.984
   47CHL1  H23A 4644   4.016   4.864   4.977
   47CHL1  H23B 4645   4.123   4.736   4.974
   47CHL1   C24 4646   3.944   4.693   4.863
   47CHL1  H24A 4647   4.018   4.686   4.780
   47CHL1  H24B 4648   3.917   4.588   4.886
   47CHL1   C25 4649   3.815   4.771   4.834
   47CHL1   H25 4650   3.772   4.803   4.932
   47CHL1   C26 4651   3.837   4.893   4.755
   47CHL1  H26A 4652   3.749   4.950   4.717
   47CHL1  H26B 4653   3.908   4.961   4.806
   47CHL1  H26C 4654   3.904   4.867   4.670
   47CHL1   C27 4655   3.718   4.679   4.755
   47CHL1  H27A 4656   3.759   4.651   4.656
   47CHL1  H27B 4657   3.691   4.581   4.799
   47CHL1  H27C 4658   3.620   4.731   4.742
   48CHL1    C3 4659   1.444   5.716   5.924
   48CHL1    H3 4660   1.450   5.822   5.959
   48CHL1    O3 4661   1.409   5.647   6.042
   48CHL1   H3' 4662   1.470   5.573   6.043
   48CHL1    C4 4663   1.339   5.693   5.808
   48CHL1   H4A 4664   1.311   5.586   5.798
   48CHL1   H4B 4665   1.243   5.738   5.842
   48CHL1    C5 4666   1.381   5.770   5.687
   48CHL1    C6 4667   1.316   5.871   5.628
   48CHL1    H6 4668   1.225   5.916   5.671
   48CHL1    C7 4669   1.354   5.917   5.487
   48CHL1   H7A 4670   1.258   5.907   5.431
   48CHL1   H7B 4671   1.378   6.025   5.495
   48CHL1    C8 4672   1.458   5.836   5.410
   48CHL1    H8 4673   1.411   5.744   5.370
   48CHL1   C14 4674   1.528   5.912   5.292
   48CHL1   H14 4675   1.561   6.008   5.338
   48CHL1   C15 4676   1.431   5.969   5.185
   48CHL1  H15A 4677   1.376   5.886   5.135
   48CHL1  H15B 4678   1.367   6.050   5.227
   48CHL1   C16 4679   1.533   6.022   5.076
   48CHL1  H16A 4680   1.497   5.967   4.986
   48CHL1  H16B 4681   1.544   6.132   5.066
   48CHL1   C17 4682   1.666   5.955   5.112
   48CHL1   H17 4683   1.732   6.031   5.161
   48CHL1   C13 4684   1.640   5.847   5.222
   48CHL1   C18 4685   1.585   5.715   5.152
   48CHL1  H18A 4686   1.667   5.652   5.112
   48CHL1  H18B 4687   1.523   5.658   5.224
   48CHL1  H18C 4688   1.517   5.747   5.070
   48CHL1   C12 4689   1.748   5.812   5.331
   48CHL1  H12A 4690   1.834   5.753   5.292
   48CHL1  H12B 4691   1.790   5.903   5.379
   48CHL1   C11 4692   1.690   5.721   5.445
   48CHL1  H11A 4693   1.660   5.629   5.391
   48CHL1  H11B 4694   1.770   5.689   5.515
   48CHL1    C9 4695   1.570   5.797   5.512
   48CHL1    H9 4696   1.610   5.894   5.549
   48CHL1   C10 4697   1.515   5.722   5.637
   48CHL1   C19 4698   1.497   5.572   5.591
   48CHL1  H19A 4699   1.599   5.530   5.574
   48CHL1  H19B 4700   1.453   5.501   5.663
   48CHL1  H19C 4701   1.438   5.571   5.497
   48CHL1    C1 4702   1.623   5.725   5.746
   48CHL1   H1A 4703   1.716   5.672   5.715
   48CHL1   H1B 4704   1.663   5.827   5.764
   48CHL1    C2 4705   1.580   5.654   5.882
   48CHL1   H2A 4706   1.661   5.657   5.958
   48CHL1   H2B 4707   1.568   5.546   5.858
   48CHL1   C20 4708   1.750   5.907   4.989
   48CHL1   H20 4709   1.687   5.839   4.928
   48CHL1   C21 4710   1.885   5.852   5.040
   48CHL1  H21A 4711   1.933   5.933   5.099
   48CHL1  H21B 4712   1.877   5.756   5.095
   48CHL1  H21C 4713   1.950   5.825   4.953
   48CHL1   C22 4714   1.781   6.038   4.907
   48CHL1  H22A 4715   1.687   6.093   4.889
   48CHL1  H22B 4716   1.851   6.109   4.955
   48CHL1   C23 4717   1.844   6.016   4.761
   48CHL1  H23A 4718   1.943   5.966   4.773
   48CHL1  H23B 4719   1.773   5.957   4.699
   48CHL1   C24 4720   1.851   6.160   4.699
   48CHL1  H24A 4721   1.750   6.204   4.683
   48CHL1  H24B 4722   1.899   6.221   4.779
   48CHL1   C25 4723   1.939   6.162   4.570
   48CHL1   H25 4724   2.033   6.108   4.596
   48CHL1   C26 4725   1.879   6.073   4.458
   48CHL1  H26A 4726   1.777   6.113   4.440
   48CHL1  H26B 4727   1.958   6.074   4.380
   48CHL1  H26C 4728   1.876   5.969   4.498
   48CHL1   C27 4729   1.978   6.308   4.530
   48CHL1  H27A 4730   2.018   6.323   4.428
   48CHL1  H27B 4731   1.898   6.386   4.535
   48CHL1  H27C 4732   2.055   6.353   4.597
   49CHL1    C3 4733   4.481   3.917   2.928
   49CHL1    H3 4734   4.420   3.841   2.982
   49CHL1    O3 4735   4.441   3.901   2.795
   49CHL1   H3' 4736   4.488   3.972   2.751
   49CHL1    C4 4737   4.448   4.060   2.969
   49CHL1   H4A 4738   4.504   4.128   2.901
   49CHL1   H4B 4739   4.339   4.076   2.957
   49CHL1    C5 4740   4.486   4.084   3.111
   49CHL1    C6 4741   4.394   4.115   3.199
   49CHL1    H6 4742   4.289   4.127   3.167
   49CHL1    C7 4743   4.435   4.119   3.340
   49CHL1   H7A 4744   4.381   4.196   3.399
   49CHL1   H7B 4745   4.406   4.019   3.380
   49CHL1    C8 4746   4.591   4.144   3.371
   49CHL1    H8 4747   4.613   4.252   3.360
   49CHL1   C14 4748   4.618   4.120   3.517
   49CHL1   H14 4749   4.605   4.010   3.531
   49CHL1   C15 4750   4.525   4.181   3.624
   49CHL1  H15A 4751   4.490   4.284   3.604
   49CHL1  H15B 4752   4.442   4.109   3.644
   49CHL1   C16 4753   4.607   4.175   3.754
   49CHL1  H16A 4754   4.615   4.276   3.800
   49CHL1  H16B 4755   4.563   4.107   3.830
   49CHL1   C17 4756   4.751   4.117   3.716
   49CHL1   H17 4757   4.748   4.007   3.732
   49CHL1   C13 4758   4.764   4.140   3.563
   49CHL1   C18 4759   4.793   4.290   3.541
   49CHL1  H18A 4760   4.793   4.320   3.434
   49CHL1  H18B 4761   4.709   4.344   3.589
   49CHL1  H18C 4762   4.888   4.325   3.587
   49CHL1   C12 4763   4.854   4.047   3.482
   49CHL1  H12A 4764   4.961   4.064   3.508
   49CHL1  H12B 4765   4.832   3.944   3.517
   49CHL1   C11 4766   4.826   4.061   3.329
   49CHL1  H11A 4767   4.871   4.155   3.292
   49CHL1  H11B 4768   4.880   3.976   3.282
   49CHL1    C9 4769   4.675   4.052   3.282
   49CHL1    H9 4770   4.643   3.953   3.321
   49CHL1   C10 4771   4.637   4.050   3.130
   49CHL1   C19 4772   4.722   4.167   3.073
   49CHL1  H19A 4773   4.830   4.140   3.070
   49CHL1  H19B 4774   4.689   4.179   2.967
   49CHL1  H19C 4775   4.707   4.257   3.136
   49CHL1    C1 4776   4.685   3.913   3.081
   49CHL1   H1A 4777   4.796   3.908   3.077
   49CHL1   H1B 4778   4.647   3.829   3.144
   49CHL1    C2 4779   4.627   3.883   2.947
   49CHL1   H2A 4780   4.626   3.775   2.923
   49CHL1   H2B 4781   4.680   3.935   2.864
   49CHL1   C20 4782   4.855   4.169   3.811
   49CHL1   H20 4783   4.849   4.279   3.819
   49CHL1   C21 4784   5.004   4.142   3.762
   49CHL1  H21A 4785   5.071   4.166   3.847
   49CHL1  H21B 4786   5.035   4.204   3.675
   49CHL1  H21C 4787   5.003   4.037   3.724
   49CHL1   C22 4788   4.838   4.111   3.948
   49CHL1  H22A 4789   4.731   4.107   3.977
   49CHL1  H22B 4790   4.876   4.007   3.957
   49CHL1   C23 4791   4.896   4.192   4.064
   49CHL1  H23A 4792   5.002   4.225   4.049
   49CHL1  H23B 4793   4.847   4.291   4.058
   49CHL1   C24 4794   4.873   4.150   4.211
   49CHL1  H24A 4795   4.913   4.222   4.285
   49CHL1  H24B 4796   4.767   4.166   4.239
   49CHL1   C25 4797   4.920   4.010   4.254
   49CHL1   H25 4798   4.896   3.924   4.187
   49CHL1   C26 4799   5.070   3.996   4.260
   49CHL1  H26A 4800   5.102   4.092   4.305
   49CHL1  H26B 4801   5.109   3.910   4.319
   49CHL1  H26C 4802   5.109   3.970   4.159
   49CHL1   C27 4803   4.853   3.978   4.387
   49CHL1  H27A 4804   4.742   3.980   4.381
   49CHL1  H27B 4805   4.891   3.875   4.402
   49CHL1  H27C 4806   4.888   4.036   4.475
   50CHL1    C3 4807   3.779   1.228   2.584
   50CHL1    H3 4808   3.888   1.225   2.603
   50CHL1    O3 4809   3.760   1.249   2.449
   50CHL1   H3' 4810   3.669   1.241   2.419
   50CHL1    C4 4811   3.700   1.097   2.639
   50CHL1   H4A 4812   3.592   1.113   2.618
   50CHL1   H4B 4813   3.741   1.016   2.575
   50CHL1    C5 4814   3.717   1.074   2.787
   50CHL1    C6 4815   3.774   0.967   2.833
   50CHL1    H6 4816   3.809   0.895   2.757
   50CHL1    C7 4817   3.795   0.931   2.981
   50CHL1   H7A 4818   3.762   0.829   3.010
   50CHL1   H7B 4819   3.901   0.957   3.002
   50CHL1    C8 4820   3.712   1.031   3.065
   50CHL1    H8 4821   3.604   1.006   3.057
   50CHL1   C14 4822   3.759   1.015   3.211
   50CHL1   H14 4823   3.863   1.054   3.209
   50CHL1   C15 4824   3.766   0.876   3.274
   50CHL1  H15A 4825   3.674   0.818   3.251
   50CHL1  H15B 4826   3.850   0.820   3.230
   50CHL1   C16 4827   3.780   0.892   3.423
   50CHL1  H16A 4828   3.691   0.850   3.475
   50CHL1  H16B 4829   3.874   0.862   3.473
   50CHL1   C17 4830   3.767   1.052   3.435
   50CHL1   H17 4831   3.871   1.093   3.429
   50CHL1   C13 4832   3.690   1.105   3.316
   50CHL1   C18 4833   3.540   1.074   3.322
   50CHL1  H18A 4834   3.487   1.103   3.229
   50CHL1  H18B 4835   3.519   0.967   3.342
   50CHL1  H18C 4836   3.494   1.127   3.408
   50CHL1   C12 4837   3.713   1.258   3.276
   50CHL1  H12A 4838   3.655   1.326   3.343
   50CHL1  H12B 4839   3.823   1.266   3.263
   50CHL1   C11 4840   3.660   1.278   3.130
   50CHL1  H11A 4841   3.549   1.274   3.132
   50CHL1  H11B 4842   3.675   1.386   3.107
   50CHL1    C9 4843   3.720   1.179   3.025
   50CHL1    H9 4844   3.829   1.200   3.022
   50CHL1   C10 4845   3.674   1.201   2.872
   50CHL1   C19 4846   3.520   1.212   2.863
   50CHL1  H19A 4847   3.484   1.306   2.910
   50CHL1  H19B 4848   3.485   1.211   2.757
   50CHL1  H19C 4849   3.478   1.127   2.922
   50CHL1    C1 4850   3.744   1.328   2.820
   50CHL1   H1A 4851   3.694   1.420   2.856
   50CHL1   H1B 4852   3.851   1.328   2.849
   50CHL1    C2 4853   3.736   1.356   2.670
   50CHL1   H2A 4854   3.790   1.447   2.636
   50CHL1   H2B 4855   3.631   1.375   2.637
   50CHL1   C20 4856   3.725   1.097   3.578
   50CHL1   H20 4857   3.616   1.078   3.585
   50CHL1   C21 4858   3.733   1.250   3.595
   50CHL1  H21A 4859   3.829   1.291   3.559
   50CHL1  H21B 4860   3.727   1.282   3.701
   50CHL1  H21C 4861   3.642   1.283   3.541
   50CHL1   C22 4862   3.792   1.026   3.703
   50CHL1  H22A 4863   3.727   1.064   3.784
   50CHL1  H22B 4864   3.760   0.920   3.694
   50CHL1   C23 4865   3.941   1.049   3.716
   50CHL1  H23A 4866   4.003   1.027   3.627
   50CHL1  H23B 4867   3.960   1.158   3.728
   50CHL1   C24 4868   3.997   0.987   3.836
   50CHL1  H24A 4869   3.963   0.881   3.841
   50CHL1  H24B 4870   4.107   0.998   3.841
   50CHL1   C25 4871   3.956   1.061   3.966
   50CHL1   H25 4872   3.848   1.087   3.955
   50CHL1   C26 4873   3.996   0.965   4.093
   50CHL1  H26A 4874   3.934   0.873   4.103
   50CHL1  H26B 4875   4.104   0.938   4.086
   50CHL1  H26C 4876   3.982   1.026   4.185
   50CHL1   C27 4877   4.040   1.189   3.980
   50CHL1  H27A 4878   3.996   1.239   4.068
   50CHL1  H27B 4879   4.145   1.169   4.008
   50CHL1  H27C 4880   4.037   1.251   3.887
   51CHL1    C3 4881   3.888   2.449   2.844
   51CHL1    H3 4882   3.986   2.399   2.854
   51CHL1    O3 4883   3.857   2.479   2.711
   51CHL1   H3' 4884   3.849   2.391   2.675
   51CHL1    C4 4885   3.784   2.351   2.901
   51CHL1   H4A 4886   3.682   2.391   2.879
   51CHL1   H4B 4887   3.790   2.257   2.843
   51CHL1    C5 4888   3.807   2.326   3.052
   51CHL1    C6 4889   3.820   2.204   3.110
   51CHL1    H6 4890   3.826   2.117   3.043
   51CHL1    C7 4891   3.835   2.182   3.257
   51CHL1   H7A 4892   3.759   2.106   3.286
   51CHL1   H7B 4893   3.936   2.144   3.285
   51CHL1    C8 4894   3.795   2.304   3.348
   51CHL1    H8 4895   3.684   2.313   3.339
   51CHL1   C14 4896   3.833   2.288   3.496
   51CHL1   H14 4897   3.938   2.253   3.495
   51CHL1   C15 4898   3.760   2.177   3.578
   51CHL1  H15A 4899   3.652   2.199   3.568
   51CHL1  H15B 4900   3.777   2.072   3.544
   51CHL1   C16 4901   3.816   2.205   3.725
   51CHL1  H16A 4902   3.735   2.201   3.801
   51CHL1  H16B 4903   3.898   2.137   3.755
   51CHL1   C17 4904   3.878   2.351   3.713
   51CHL1   H17 4905   3.987   2.336   3.698
   51CHL1   C13 4906   3.824   2.408   3.582
   51CHL1   C18 4907   3.683   2.461   3.602
   51CHL1  H18A 4908   3.626   2.480   3.508
   51CHL1  H18B 4909   3.626   2.401   3.676
   51CHL1  H18C 4910   3.693   2.561   3.649
   51CHL1   C12 4911   3.911   2.513   3.520
   51CHL1  H12A 4912   3.906   2.603   3.584
   51CHL1  H12B 4913   4.016   2.478   3.515
   51CHL1   C11 4914   3.858   2.552   3.382
   51CHL1  H11A 4915   3.750   2.579   3.387
   51CHL1  H11B 4916   3.902   2.644   3.339
   51CHL1    C9 4917   3.863   2.430   3.284
   51CHL1    H9 4918   3.972   2.408   3.283
   51CHL1   C10 4919   3.822   2.454   3.136
   51CHL1   C19 4920   3.677   2.516   3.136
   51CHL1  H19A 4921   3.653   2.556   3.036
   51CHL1  H19B 4922   3.599   2.445   3.172
   51CHL1  H19C 4923   3.672   2.606   3.201
   51CHL1    C1 4924   3.930   2.535   3.068
   51CHL1   H1A 4925   3.938   2.630   3.124
   51CHL1   H1B 4926   4.029   2.486   3.061
   51CHL1    C2 4927   3.889   2.585   2.922
   51CHL1   H2A 4928   3.975   2.641   2.881
   51CHL1   H2B 4929   3.798   2.649   2.925
   51CHL1   C20 4930   3.849   2.427   3.848
   51CHL1   H20 4931   3.741   2.430   3.873
   51CHL1   C21 4932   3.914   2.570   3.839
   51CHL1  H21A 4933   3.916   2.621   3.938
   51CHL1  H21B 4934   3.838   2.635   3.792
   51CHL1  H21C 4935   4.013   2.571   3.787
   51CHL1   C22 4936   3.921   2.357   3.967
   51CHL1  H22A 4937   3.925   2.247   3.953
   51CHL1  H22B 4938   4.025   2.394   3.972
   51CHL1   C23 4939   3.844   2.387   4.100
   51CHL1  H23A 4940   3.849   2.496   4.116
   51CHL1  H23B 4941   3.737   2.364   4.082
   51CHL1   C24 4942   3.900   2.315   4.222
   51CHL1  H24A 4943   3.841   2.343   4.312
   51CHL1  H24B 4944   3.894   2.206   4.204
   51CHL1   C25 4945   4.046   2.335   4.263
   51CHL1   H25 4946   4.118   2.306   4.184
   51CHL1   C26 4947   4.083   2.480   4.295
   51CHL1  H26A 4948   4.189   2.484   4.326
   51CHL1  H26B 4949   4.077   2.550   4.209
   51CHL1  H26C 4950   4.019   2.511   4.380
   51CHL1   C27 4951   4.072   2.244   4.389
   51CHL1  H27A 4952   4.006   2.274   4.473
   51CHL1  H27B 4953   4.041   2.140   4.366
   51CHL1  H27C 4954   4.180   2.240   4.412
   52CHL1    C3 4955   3.222   3.911   2.468
   52CHL1    H3 4956   3.134   3.874   2.524
   52CHL1    O3 4957   3.194   3.897   2.329
   52CHL1   H3' 4958   3.231   3.812   2.306
   52CHL1    C4 4959   3.252   4.063   2.507
   52CHL1   H4A 4960   3.321   4.104   2.430
   52CHL1   H4B 4961   3.164   4.127   2.487
   52CHL1    C5 4962   3.302   4.076   2.654
   52CHL1    C6 4963   3.234   4.161   2.729
   52CHL1    H6 4964   3.150   4.214   2.683
   52CHL1    C7 4965   3.262   4.180   2.877
   52CHL1   H7A 4966   3.281   4.287   2.897
   52CHL1   H7B 4967   3.183   4.138   2.943
   52CHL1    C8 4968   3.397   4.102   2.922
   52CHL1    H8 4969   3.481   4.171   2.898
   52CHL1   C14 4970   3.389   4.080   3.071
   52CHL1   H14 4971   3.298   4.016   3.079
   52CHL1   C15 4972   3.366   4.208   3.155
   52CHL1  H15A 4973   3.423   4.290   3.107
   52CHL1  H15B 4974   3.259   4.240   3.152
   52CHL1   C16 4975   3.400   4.169   3.294
   52CHL1  H16A 4976   3.473   4.241   3.338
   52CHL1  H16B 4977   3.315   4.157   3.365
   52CHL1   C17 4978   3.459   4.021   3.285
   52CHL1   H17 4979   3.376   3.948   3.300
   52CHL1   C13 4980   3.502   4.010   3.134
   52CHL1   C18 4981   3.633   4.085   3.107
   52CHL1  H18A 4982   3.624   4.185   3.154
   52CHL1  H18B 4983   3.718   4.032   3.157
   52CHL1  H18C 4984   3.644   4.104   2.998
   52CHL1   C12 4985   3.512   3.874   3.072
   52CHL1  H12A 4986   3.605   3.827   3.111
   52CHL1  H12B 4987   3.430   3.804   3.099
   52CHL1   C11 4988   3.516   3.878   2.921
   52CHL1  H11A 4989   3.621   3.907   2.897
   52CHL1  H11B 4990   3.513   3.774   2.880
   52CHL1    C9 4991   3.408   3.970   2.858
   52CHL1    H9 4992   3.313   3.920   2.882
   52CHL1   C10 4993   3.405   3.969   2.705
   52CHL1   C19 4994   3.545   4.009   2.644
   52CHL1  H19A 4995   3.627   3.943   2.679
   52CHL1  H19B 4996   3.540   3.992   2.535
   52CHL1  H19C 4997   3.582   4.110   2.668
   52CHL1    C1 4998   3.368   3.826   2.651
   52CHL1   H1A 4999   3.459   3.763   2.662
   52CHL1   H1B 5000   3.285   3.790   2.715
   52CHL1    C2 5001   3.341   3.817   2.503
   52CHL1   H2A 5002   3.330   3.710   2.477
   52CHL1   H2B 5003   3.432   3.846   2.446
   52CHL1   C20 5004   3.574   4.004   3.391
   52CHL1   H20 5005   3.652   4.082   3.378
   52CHL1   C21 5006   3.617   3.862   3.396
   52CHL1  H21A 5007   3.671   3.833   3.304
   52CHL1  H21B 5008   3.529   3.796   3.413
   52CHL1  H21C 5009   3.688   3.847   3.481
   52CHL1   C22 5010   3.505   4.046   3.527
   52CHL1  H22A 5011   3.478   4.154   3.530
   52CHL1  H22B 5012   3.411   3.987   3.536
   52CHL1   C23 5013   3.583   4.017   3.662
   52CHL1  H23A 5014   3.534   3.921   3.688
   52CHL1  H23B 5015   3.692   4.019   3.638
   52CHL1   C24 5016   3.562   4.123   3.767
   52CHL1  H24A 5017   3.608   4.216   3.729
   52CHL1  H24B 5018   3.454   4.146   3.779
   52CHL1   C25 5019   3.613   4.087   3.907
   52CHL1   H25 5020   3.720   4.059   3.896
   52CHL1   C26 5021   3.610   4.212   4.001
   52CHL1  H26A 5022   3.651   4.308   3.964
   52CHL1  H26B 5023   3.506   4.241   4.029
   52CHL1  H26C 5024   3.655   4.190   4.100
   52CHL1   C27 5025   3.533   3.975   3.976
   52CHL1  H27A 5026   3.424   3.992   3.979
   52CHL1  H27B 5027   3.549   3.888   3.908
   52CHL1  H27C 5028   3.581   3.935   4.068
   53CHL1    C3 5029   3.399   3.053   2.754
   53CHL1    H3 5030   3.438   3.157   2.746
   53CHL1    O3 5031   3.350   3.009   2.631
   53CHL1   H3' 5032   3.291   2.934   2.643
   53CHL1    C4 5033   3.497   2.945   2.804
   53CHL1   H4A 5034   3.469   2.839   2.791
   53CHL1   H4B 5035   3.574   2.955   2.725
   53CHL1    C5 5036   3.551   2.977   2.940
   53CHL1    C6 5037   3.678   3.008   2.961
   53CHL1    H6 5038   3.751   3.005   2.878
   53CHL1    C7 5039   3.735   3.017   3.100
   53CHL1   H7A 5040   3.828   2.956   3.100
   53CHL1   H7B 5041   3.765   3.122   3.117
   53CHL1    C8 5042   3.640   2.975   3.217
   53CHL1    H8 5043   3.638   2.865   3.224
   53CHL1   C14 5044   3.680   3.025   3.346
   53CHL1   H14 5045   3.677   3.135   3.334
   53CHL1   C15 5046   3.825   2.998   3.389
   53CHL1  H15A 5047   3.852   2.896   3.354
   53CHL1  H15B 5048   3.896   3.067   3.339
   53CHL1   C16 5049   3.818   3.026   3.539
   53CHL1  H16A 5050   3.865   2.946   3.600
   53CHL1  H16B 5051   3.884   3.115   3.549
   53CHL1   C17 5052   3.673   3.049   3.586
   53CHL1   H17 5053   3.661   3.160   3.588
   53CHL1   C13 5054   3.584   2.996   3.469
   53CHL1   C18 5055   3.566   2.837   3.474
   53CHL1  H18A 5056   3.665   2.787   3.484
   53CHL1  H18B 5057   3.509   2.814   3.567
   53CHL1  H18C 5058   3.525   2.795   3.380
   53CHL1   C12 5059   3.445   3.062   3.446
   53CHL1  H12A 5060   3.369   3.057   3.527
   53CHL1  H12B 5061   3.470   3.171   3.445
   53CHL1   C11 5062   3.389   3.015   3.305
   53CHL1  H11A 5063   3.350   2.911   3.312
   53CHL1  H11B 5064   3.311   3.084   3.266
   53CHL1    C9 5065   3.496   3.026   3.188
   53CHL1    H9 5066   3.513   3.134   3.167
   53CHL1   C10 5067   3.444   2.978   3.048
   53CHL1   C19 5068   3.386   2.828   3.055
   53CHL1  H19A 5069   3.314   2.813   3.137
   53CHL1  H19B 5070   3.329   2.814   2.961
   53CHL1  H19C 5071   3.471   2.757   3.059
   53CHL1    C1 5072   3.331   3.068   3.003
   53CHL1   H1A 5073   3.247   3.053   3.075
   53CHL1   H1B 5074   3.366   3.173   3.011
   53CHL1    C2 5075   3.289   3.051   2.858
   53CHL1   H2A 5076   3.220   3.135   2.834
   53CHL1   H2B 5077   3.235   2.954   2.851
   53CHL1   C20 5078   3.643   3.000   3.728
   53CHL1   H20 5079   3.648   2.889   3.729
   53CHL1   C21 5080   3.505   3.041   3.772
   53CHL1  H21A 5081   3.481   3.147   3.751
   53CHL1  H21B 5082   3.489   3.036   3.881
   53CHL1  H21C 5083   3.439   2.969   3.718
   53CHL1   C22 5084   3.748   3.043   3.833
   53CHL1  H22A 5085   3.849   3.011   3.797
   53CHL1  H22B 5086   3.742   3.154   3.831
   53CHL1   C23 5087   3.728   2.991   3.979
   53CHL1  H23A 5088   3.632   3.028   4.021
   53CHL1  H23B 5089   3.730   2.880   3.970
   53CHL1   C24 5090   3.843   3.020   4.081
   53CHL1  H24A 5091   3.940   2.975   4.051
   53CHL1  H24B 5092   3.871   3.128   4.081
   53CHL1   C25 5093   3.822   2.974   4.227
   53CHL1   H25 5094   3.724   3.013   4.264
   53CHL1   C26 5095   3.818   2.819   4.250
   53CHL1  H26A 5096   3.908   2.767   4.213
   53CHL1  H26B 5097   3.802   2.796   4.358
   53CHL1  H26C 5098   3.736   2.781   4.185
   53CHL1   C27 5099   3.939   3.028   4.317
   53CHL1  H27A 5100   3.928   3.137   4.334
   53CHL1  H27B 5101   3.937   2.986   4.420
   53CHL1  H27C 5102   4.036   3.007   4.267
   54CHL1    C3 5103   2.762   3.109   2.821
   54CHL1    H3 5104   2.676   3.174   2.847
   54CHL1    O3 5105   2.757   3.113   2.682
   54CHL1   H3' 5106   2.797   3.029   2.659
   54CHL1    C4 5107   2.898   3.145   2.863
   54CHL1   H4A 5108   2.977   3.080   2.820
   54CHL1   H4B 5109   2.922   3.248   2.829
   54CHL1    C5 5110   2.922   3.126   3.012
   54CHL1    C6 5111   2.957   3.234   3.082
   54CHL1    H6 5112   2.988   3.323   3.026
   54CHL1    C7 5113   2.974   3.237   3.227
   54CHL1   H7A 5114   3.074   3.281   3.246
   54CHL1   H7B 5115   2.911   3.311   3.280
   54CHL1    C8 5116   2.971   3.094   3.291
   54CHL1    H8 5117   3.065   3.038   3.272
   54CHL1   C14 5118   2.938   3.110   3.434
   54CHL1   H14 5119   2.840   3.162   3.432
   54CHL1   C15 5120   3.036   3.201   3.512
   54CHL1  H15A 5121   3.140   3.167   3.492
   54CHL1  H15B 5122   3.019   3.307   3.487
   54CHL1   C16 5123   3.009   3.169   3.661
   54CHL1  H16A 5124   3.102   3.145   3.718
   54CHL1  H16B 5125   2.970   3.262   3.708
   54CHL1   C17 5126   2.914   3.053   3.660
   54CHL1   H17 5127   2.808   3.084   3.661
   54CHL1   C13 5128   2.921   2.978   3.523
   54CHL1   C18 5129   3.049   2.885   3.520
   54CHL1  H18A 5130   3.036   2.789   3.574
   54CHL1  H18B 5131   3.073   2.866   3.413
   54CHL1  H18C 5132   3.137   2.939   3.561
   54CHL1   C12 5133   2.799   2.900   3.469
   54CHL1  H12A 5134   2.786   2.802   3.519
   54CHL1  H12B 5135   2.701   2.953   3.477
   54CHL1   C11 5136   2.819   2.880   3.315
   54CHL1  H11A 5137   2.901   2.806   3.310
   54CHL1  H11B 5138   2.733   2.828   3.269
   54CHL1    C9 5139   2.859   3.009   3.235
   54CHL1    H9 5140   2.779   3.077   3.271
   54CHL1   C10 5141   2.867   2.992   3.081
   54CHL1   C19 5142   2.985   2.892   3.051
   54CHL1  H19A 5143   2.991   2.865   2.944
   54CHL1  H19B 5144   3.079   2.939   3.087
   54CHL1  H19C 5145   2.971   2.799   3.110
   54CHL1    C1 5146   2.726   2.957   3.015
   54CHL1   H1A 5147   2.715   2.850   3.043
   54CHL1   H1B 5148   2.639   3.010   3.060
   54CHL1    C2 5149   2.728   2.969   2.862
   54CHL1   H2A 5150   2.621   2.948   2.839
   54CHL1   H2B 5151   2.794   2.887   2.827
   54CHL1   C20 5152   2.940   2.958   3.780
   54CHL1   H20 5153   3.045   2.922   3.783
   54CHL1   C21 5154   2.846   2.839   3.775
   54CHL1  H21A 5155   2.740   2.871   3.771
   54CHL1  H21B 5156   2.847   2.790   3.874
   54CHL1  H21C 5157   2.869   2.761   3.699
   54CHL1   C22 5158   2.918   3.036   3.918
   54CHL1  H22A 5159   2.928   2.959   3.997
   54CHL1  H22B 5160   3.003   3.105   3.934
   54CHL1   C23 5161   2.777   3.109   3.918
   54CHL1  H23A 5162   2.784   3.207   3.866
   54CHL1  H23B 5163   2.699   3.055   3.861
   54CHL1   C24 5164   2.723   3.158   4.053
   54CHL1  H24A 5165   2.633   3.217   4.028
   54CHL1  H24B 5166   2.687   3.080   4.124
   54CHL1   C25 5167   2.806   3.249   4.144
   54CHL1   H25 5168   2.897   3.198   4.183
   54CHL1   C26 5169   2.847   3.372   4.058
   54CHL1  H26A 5170   2.763   3.424   4.008
   54CHL1  H26B 5171   2.912   3.446   4.109
   54CHL1  H26C 5172   2.925   3.326   3.994
   54CHL1   C27 5173   2.723   3.298   4.264
   54CHL1  H27A 5174   2.622   3.329   4.229
   54CHL1  H27B 5175   2.713   3.214   4.336
   54CHL1  H27C 5176   2.781   3.381   4.310
   55CHL1    C3 5177   3.804   5.923   2.445
   55CHL1    H3 5178   3.742   6.014   2.428
   55CHL1    O3 5179   3.868   5.881   2.321
   55CHL1   H3' 5180   3.845   5.790   2.304
   55CHL1    C4 5181   3.917   5.968   2.542
   55CHL1   H4A 5182   3.985   5.880   2.540
   55CHL1   H4B 5183   3.982   6.045   2.495
   55CHL1    C5 5184   3.863   5.999   2.678
   55CHL1    C6 5185   3.880   6.125   2.728
   55CHL1    H6 5186   3.939   6.193   2.665
   55CHL1    C7 5187   3.845   6.162   2.873
   55CHL1   H7A 5188   3.935   6.197   2.927
   55CHL1   H7B 5189   3.765   6.239   2.870
   55CHL1    C8 5190   3.785   6.041   2.953
   55CHL1    H8 5191   3.872   5.977   2.981
   55CHL1   C14 5192   3.710   6.092   3.079
   55CHL1   H14 5193   3.629   6.156   3.037
   55CHL1   C15 5194   3.790   6.180   3.175
   55CHL1  H15A 5195   3.897   6.152   3.174
   55CHL1  H15B 5196   3.771   6.285   3.144
   55CHL1   C16 5197   3.721   6.160   3.309
   55CHL1  H16A 5198   3.796   6.118   3.380
   55CHL1  H16B 5199   3.690   6.256   3.357
   55CHL1   C17 5200   3.605   6.057   3.279
   55CHL1   H17 5201   3.520   6.118   3.242
   55CHL1   C13 5202   3.646   5.979   3.157
   55CHL1   C18 5203   3.746   5.871   3.201
   55CHL1  H18A 5204   3.692   5.782   3.241
   55CHL1  H18B 5205   3.809   5.835   3.117
   55CHL1  H18C 5206   3.820   5.910   3.273
   55CHL1   C12 5207   3.536   5.913   3.065
   55CHL1  H12A 5208   3.477   5.827   3.104
   55CHL1  H12B 5209   3.458   5.987   3.034
   55CHL1   C11 5210   3.608   5.858   2.941
   55CHL1  H11A 5211   3.671   5.769   2.964
   55CHL1  H11B 5212   3.529   5.820   2.874
   55CHL1    C9 5213   3.693   5.953   2.860
   55CHL1    H9 5214   3.626   6.025   2.810
   55CHL1   C10 5215   3.770   5.894   2.738
   55CHL1   C19 5216   3.857   5.776   2.776
   55CHL1  H19A 5217   3.916   5.810   2.865
   55CHL1  H19B 5218   3.800   5.683   2.795
   55CHL1  H19C 5219   3.925   5.746   2.694
   55CHL1    C1 5220   3.660   5.847   2.629
   55CHL1   H1A 5221   3.592   5.774   2.678
   55CHL1   H1B 5222   3.611   5.944   2.607
   55CHL1    C2 5223   3.716   5.810   2.491
   55CHL1   H2A 5224   3.622   5.809   2.432
   55CHL1   H2B 5225   3.766   5.711   2.496
   55CHL1   C20 5226   3.562   5.976   3.407
   55CHL1   H20 5227   3.650   5.926   3.452
   55CHL1   C21 5228   3.463   5.871   3.363
   55CHL1  H21A 5229   3.507   5.782   3.315
   55CHL1  H21B 5230   3.387   5.916   3.296
   55CHL1  H21C 5231   3.406   5.827   3.448
   55CHL1   C22 5232   3.502   6.062   3.518
   55CHL1  H22A 5233   3.448   6.147   3.470
   55CHL1  H22B 5234   3.425   6.002   3.570
   55CHL1   C23 5235   3.583   6.143   3.623
   55CHL1  H23A 5236   3.668   6.191   3.568
   55CHL1  H23B 5237   3.522   6.221   3.673
   55CHL1   C24 5238   3.657   6.066   3.730
   55CHL1  H24A 5239   3.575   6.015   3.786
   55CHL1  H24B 5240   3.736   5.998   3.690
   55CHL1   C25 5241   3.739   6.160   3.829
   55CHL1   H25 5242   3.676   6.245   3.862
   55CHL1   C26 5243   3.786   6.083   3.949
   55CHL1  H26A 5244   3.822   6.143   4.035
   55CHL1  H26B 5245   3.701   6.024   3.988
   55CHL1  H26C 5246   3.869   6.014   3.921
   55CHL1   C27 5247   3.863   6.228   3.766
   55CHL1  H27A 5248   3.918   6.149   3.709
   55CHL1  H27B 5249   3.821   6.307   3.700
   55CHL1  H27C 5250   3.924   6.278   3.844
   56CHL1    C3 5251   5.659   1.555   2.818
   56CHL1    H3 5252   5.567   1.610   2.848
   56CHL1    O3 5253   5.683   1.539   2.681
   56CHL1   H3' 5254   5.707   1.446   2.675
   56CHL1    C4 5255   5.776   1.627   2.884
   56CHL1   H4A 5256   5.874   1.593   2.845
   56CHL1   H4B 5257   5.769   1.735   2.858
   56CHL1    C5 5258   5.781   1.606   3.032
   56CHL1    C6 5259   5.793   1.713   3.110
   56CHL1    H6 5260   5.795   1.812   3.062
   56CHL1    C7 5261   5.794   1.708   3.258
   56CHL1   H7A 5262   5.883   1.758   3.301
   56CHL1   H7B 5263   5.704   1.747   3.310
   56CHL1    C8 5264   5.813   1.561   3.318
   56CHL1    H8 5265   5.923   1.545   3.326
   56CHL1   C14 5266   5.770   1.552   3.463
   56CHL1   H14 5267   5.662   1.578   3.463
   56CHL1   C15 5268   5.829   1.658   3.561
   56CHL1  H15A 5269   5.937   1.677   3.544
   56CHL1  H15B 5270   5.777   1.755   3.546
   56CHL1   C16 5271   5.827   1.588   3.699
   56CHL1  H16A 5272   5.915   1.567   3.763
   56CHL1  H16B 5273   5.755   1.623   3.776
   56CHL1   C17 5274   5.745   1.449   3.680
   56CHL1   H17 5275   5.636   1.470   3.689
   56CHL1   C13 5276   5.783   1.418   3.535
   56CHL1   C18 5277   5.933   1.371   3.526
   56CHL1  H18A 5278   5.958   1.280   3.586
   56CHL1  H18B 5279   5.976   1.360   3.424
   56CHL1  H18C 5280   5.995   1.451   3.573
   56CHL1   C12 5281   5.694   1.317   3.454
   56CHL1  H12A 5282   5.708   1.212   3.485
   56CHL1  H12B 5283   5.589   1.351   3.469
   56CHL1   C11 5284   5.736   1.321   3.298
   56CHL1  H11A 5285   5.837   1.277   3.286
   56CHL1  H11B 5286   5.667   1.258   3.237
   56CHL1    C9 5287   5.735   1.462   3.232
   56CHL1    H9 5288   5.628   1.488   3.245
   56CHL1   C10 5289   5.756   1.463   3.084
   56CHL1   C19 5290   5.890   1.391   3.062
   56CHL1  H19A 5291   5.939   1.411   2.964
   56CHL1  H19B 5292   5.966   1.421   3.137
   56CHL1  H19C 5293   5.873   1.282   3.072
   56CHL1    C1 5294   5.643   1.388   3.009
   56CHL1   H1A 5295   5.661   1.279   3.021
   56CHL1   H1B 5296   5.541   1.400   3.051
   56CHL1    C2 5297   5.655   1.409   2.862
   56CHL1   H2A 5298   5.570   1.356   2.814
   56CHL1   H2B 5299   5.750   1.356   2.840
   56CHL1   C20 5300   5.789   1.346   3.788
   56CHL1   H20 5301   5.899   1.332   3.783
   56CHL1   C21 5302   5.730   1.209   3.756
   56CHL1  H21A 5303   5.721   1.143   3.845
   56CHL1  H21B 5304   5.813   1.161   3.699
   56CHL1  H21C 5305   5.636   1.224   3.699
   56CHL1   C22 5306   5.758   1.385   3.941
   56CHL1  H22A 5307   5.795   1.490   3.937
   56CHL1  H22B 5308   5.650   1.373   3.963
   56CHL1   C23 5309   5.830   1.307   4.046
   56CHL1  H23A 5310   5.804   1.199   4.043
   56CHL1  H23B 5311   5.938   1.326   4.032
   56CHL1   C24 5312   5.790   1.342   4.188
   56CHL1  H24A 5313   5.780   1.453   4.186
   56CHL1  H24B 5314   5.690   1.296   4.200
   56CHL1   C25 5315   5.869   1.293   4.305
   56CHL1   H25 5316   5.892   1.185   4.291
   56CHL1   C26 5317   6.000   1.371   4.321
   56CHL1  H26A 5318   6.056   1.355   4.226
   56CHL1  H26B 5319   5.983   1.480   4.331
   56CHL1  H26C 5320   6.054   1.324   4.406
   56CHL1   C27 5321   5.797   1.304   4.437
   56CHL1  H27A 5322   5.721   1.223   4.437
   56CHL1  H27B 5323   5.870   1.277   4.516
   56CHL1  H27C 5324   5.736   1.396   4.452
   57CHL1    C3 5325   4.611   6.633   2.599
   57CHL1    H3 5326   4.644   6.738   2.612
   57CHL1    O3 5327   4.607   6.610   2.460
   57CHL1   H3' 5328   4.603   6.514   2.450
   57CHL1    C4 5329   4.718   6.549   2.667
   57CHL1   H4A 5330   4.698   6.440   2.653
   57CHL1   H4B 5331   4.819   6.566   2.624
   57CHL1    C5 5332   4.724   6.584   2.814
   57CHL1    C6 5333   4.836   6.629   2.878
   57CHL1    H6 5334   4.927   6.643   2.818
   57CHL1    C7 5335   4.854   6.651   3.027
   57CHL1   H7A 5336   4.954   6.609   3.048
   57CHL1   H7B 5337   4.859   6.760   3.051
   57CHL1    C8 5338   4.744   6.582   3.104
   57CHL1    H8 5339   4.755   6.472   3.109
   57CHL1   C14 5340   4.740   6.633   3.248
   57CHL1   H14 5341   4.719   6.742   3.240
   57CHL1   C15 5342   4.867   6.613   3.334
   57CHL1  H15A 5343   4.907   6.511   3.313
   57CHL1  H15B 5344   4.950   6.682   3.306
   57CHL1   C16 5345   4.809   6.625   3.481
   57CHL1  H16A 5346   4.846   6.538   3.538
   57CHL1  H16B 5347   4.862   6.710   3.528
   57CHL1   C17 5348   4.657   6.641   3.474
   57CHL1   H17 5349   4.646   6.747   3.441
   57CHL1   C13 5350   4.625   6.583   3.333
   57CHL1   C18 5351   4.630   6.427   3.336
   57CHL1  H18A 5352   4.538   6.392   3.387
   57CHL1  H18B 5353   4.629   6.374   3.238
   57CHL1  H18C 5354   4.711   6.387   3.401
   57CHL1   C12 5355   4.501   6.635   3.269
   57CHL1  H12A 5356   4.412   6.602   3.327
   57CHL1  H12B 5357   4.499   6.746   3.265
   57CHL1   C11 5358   4.484   6.582   3.123
   57CHL1  H11A 5359   4.460   6.474   3.135
   57CHL1  H11B 5360   4.396   6.619   3.066
   57CHL1    C9 5361   4.606   6.611   3.037
   57CHL1    H9 5362   4.611   6.722   3.034
   57CHL1   C10 5363   4.588   6.561   2.889
   57CHL1   C19 5364   4.540   6.407   2.885
   57CHL1  H19A 5365   4.450   6.393   2.949
   57CHL1  H19B 5366   4.518   6.370   2.783
   57CHL1  H19C 5367   4.613   6.344   2.940
   57CHL1    C1 5368   4.476   6.650   2.808
   57CHL1   H1A 5369   4.374   6.620   2.842
   57CHL1   H1B 5370   4.496   6.755   2.837
   57CHL1    C2 5371   4.470   6.620   2.656
   57CHL1   H2A 5372   4.416   6.706   2.610
   57CHL1   H2B 5373   4.427   6.520   2.635
   57CHL1   C20 5374   4.582   6.622   3.593
   57CHL1   H20 5375   4.480   6.585   3.570
   57CHL1   C21 5376   4.567   6.756   3.657
   57CHL1  H21A 5377   4.501   6.756   3.747
   57CHL1  H21B 5378   4.511   6.827   3.593
   57CHL1  H21C 5379   4.662   6.806   3.683
   57CHL1   C22 5380   4.626   6.517   3.702
   57CHL1  H22A 5381   4.676   6.433   3.651
   57CHL1  H22B 5382   4.698   6.566   3.771
   57CHL1   C23 5383   4.514   6.457   3.791
   57CHL1  H23A 5384   4.454   6.540   3.834
   57CHL1  H23B 5385   4.450   6.397   3.724
   57CHL1   C24 5386   4.562   6.385   3.918
   57CHL1  H24A 5387   4.623   6.294   3.904
   57CHL1  H24B 5388   4.622   6.462   3.972
   57CHL1   C25 5389   4.453   6.339   4.017
   57CHL1   H25 5390   4.377   6.280   3.960
   57CHL1   C26 5391   4.525   6.257   4.126
   57CHL1  H26A 5392   4.444   6.207   4.184
   57CHL1  H26B 5393   4.600   6.186   4.085
   57CHL1  H26C 5394   4.579   6.323   4.196
   57CHL1   C27 5395   4.373   6.454   4.081
   57CHL1  H27A 5396   4.434   6.526   4.140
   57CHL1  H27B 5397   4.334   6.511   3.994
   57CHL1  H27C 5398   4.294   6.415   4.148
   58CHL1    C3 5399   4.629   0.354   2.394
   58CHL1    H3 5400   4.720   0.298   2.423
   58CHL1    O3 5401   4.610   0.368   2.256
   58CHL1   H3' 5402   4.683   0.427   2.238
   58CHL1    C4 5403   4.499   0.293   2.462
   58CHL1   H4A 5404   4.399   0.331   2.434
   58CHL1   H4B 5405   4.490   0.191   2.419
   58CHL1    C5 5406   4.513   0.287   2.610
   58CHL1    C6 5407   4.501   0.170   2.672
   58CHL1    H6 5408   4.474   0.088   2.605
   58CHL1    C7 5409   4.509   0.156   2.818
   58CHL1   H7A 5410   4.416   0.102   2.848
   58CHL1   H7B 5411   4.600   0.098   2.845
   58CHL1    C8 5412   4.508   0.291   2.892
   58CHL1    H8 5413   4.402   0.324   2.905
   58CHL1   C14 5414   4.564   0.267   3.036
   58CHL1   H14 5415   4.663   0.218   3.021
   58CHL1   C15 5416   4.487   0.158   3.123
   58CHL1  H15A 5417   4.376   0.167   3.126
   58CHL1  H15B 5418   4.511   0.052   3.098
   58CHL1   C16 5419   4.527   0.193   3.269
   58CHL1  H16A 5420   4.435   0.219   3.325
   58CHL1  H16B 5421   4.589   0.118   3.322
   58CHL1   C17 5422   4.612   0.320   3.259
   58CHL1   H17 5423   4.722   0.304   3.263
   58CHL1   C13 5424   4.575   0.383   3.118
   58CHL1   C18 5425   4.433   0.444   3.137
   58CHL1  H18A 5426   4.436   0.549   3.174
   58CHL1  H18B 5427   4.376   0.465   3.044
   58CHL1  H18C 5428   4.372   0.373   3.196
   58CHL1   C12 5429   4.667   0.485   3.049
   58CHL1  H12A 5430   4.675   0.582   3.102
   58CHL1  H12B 5431   4.770   0.443   3.055
   58CHL1   C11 5432   4.628   0.529   2.901
   58CHL1  H11A 5433   4.539   0.596   2.894
   58CHL1  H11B 5434   4.707   0.580   2.841
   58CHL1    C9 5435   4.596   0.400   2.821
   58CHL1    H9 5436   4.696   0.351   2.818
   58CHL1   C10 5437   4.552   0.424   2.674
   58CHL1   C19 5438   4.427   0.515   2.672
   58CHL1  H19A 5439   4.428   0.616   2.718
   58CHL1  H19B 5440   4.390   0.536   2.569
   58CHL1  H19C 5441   4.345   0.458   2.721
   58CHL1    C1 5442   4.670   0.491   2.598
   58CHL1   H1A 5443   4.675   0.595   2.636
   58CHL1   H1B 5444   4.770   0.449   2.622
   58CHL1    C2 5445   4.648   0.499   2.449
   58CHL1   H2A 5446   4.735   0.558   2.411
   58CHL1   H2B 5447   4.554   0.553   2.428
   58CHL1   C20 5448   4.591   0.412   3.389
   58CHL1   H20 5449   4.482   0.431   3.402
   58CHL1   C21 5450   4.671   0.546   3.376
   58CHL1  H21A 5451   4.602   0.610   3.318
   58CHL1  H21B 5452   4.763   0.534   3.315
   58CHL1  H21C 5453   4.696   0.603   3.468
   58CHL1   C22 5454   4.627   0.332   3.517
   58CHL1  H22A 5455   4.590   0.228   3.515
   58CHL1  H22B 5456   4.736   0.325   3.501
   58CHL1   C23 5457   4.590   0.405   3.643
   58CHL1  H23A 5458   4.679   0.467   3.668
   58CHL1  H23B 5459   4.502   0.469   3.621
   58CHL1   C24 5460   4.556   0.307   3.761
   58CHL1  H24A 5461   4.460   0.254   3.740
   58CHL1  H24B 5462   4.643   0.239   3.774
   58CHL1   C25 5463   4.538   0.386   3.896
   58CHL1   H25 5464   4.459   0.463   3.890
   58CHL1   C26 5465   4.482   0.287   4.000
   58CHL1  H26A 5466   4.388   0.254   3.952
   58CHL1  H26B 5467   4.549   0.200   4.019
   58CHL1  H26C 5468   4.469   0.337   4.098
   58CHL1   C27 5469   4.671   0.446   3.951
   58CHL1  H27A 5470   4.704   0.537   3.896
   58CHL1  H27B 5471   4.654   0.471   4.058
   58CHL1  H27C 5472   4.743   0.362   3.958
   59CHL1    C3 5473   2.904   4.649   2.615
   59CHL1    H3 5474   2.947   4.551   2.587
   59CHL1    O3 5475   2.867   4.721   2.499
   59CHL1   H3' 5476   2.951   4.730   2.454
   59CHL1    C4 5477   2.779   4.636   2.710
   59CHL1   H4A 5478   2.719   4.728   2.727
   59CHL1   H4B 5479   2.706   4.576   2.651
   59CHL1    C5 5480   2.819   4.565   2.840
   59CHL1    C6 5481   2.766   4.456   2.881
   59CHL1    H6 5482   2.688   4.421   2.812
   59CHL1    C7 5483   2.795   4.397   3.016
   59CHL1   H7A 5484   2.707   4.357   3.071
   59CHL1   H7B 5485   2.859   4.307   3.004
   59CHL1    C8 5486   2.885   4.480   3.110
   59CHL1    H8 5487   2.819   4.558   3.153
   59CHL1   C14 5488   2.942   4.393   3.220
   59CHL1   H14 5489   3.014   4.320   3.178
   59CHL1   C15 5490   2.846   4.316   3.309
   59CHL1  H15A 5491   2.755   4.379   3.322
   59CHL1  H15B 5492   2.809   4.223   3.259
   59CHL1   C16 5493   2.914   4.288   3.437
   59CHL1  H16A 5494   2.854   4.325   3.522
   59CHL1  H16B 5495   2.922   4.178   3.451
   59CHL1   C17 5496   3.055   4.357   3.425
   59CHL1   H17 5497   3.127   4.293   3.370
   59CHL1   C13 5498   3.028   4.469   3.318
   59CHL1   C18 5499   2.952   4.586   3.398
   59CHL1  H18A 5500   2.908   4.652   3.320
   59CHL1  H18B 5501   2.881   4.542   3.470
   59CHL1  H18C 5502   3.029   4.645   3.453
   59CHL1   C12 5503   3.152   4.530   3.241
   59CHL1  H12A 5504   3.212   4.596   3.308
   59CHL1  H12B 5505   3.212   4.446   3.201
   59CHL1   C11 5506   3.104   4.613   3.125
   59CHL1  H11A 5507   3.050   4.703   3.162
   59CHL1  H11B 5508   3.188   4.648   3.060
   59CHL1    C9 5509   3.001   4.541   3.036
   59CHL1    H9 5510   3.042   4.453   2.982
   59CHL1   C10 5511   2.942   4.628   2.919
   59CHL1   C19 5512   2.890   4.769   2.974
   59CHL1  H19A 5513   2.828   4.747   3.063
   59CHL1  H19B 5514   2.970   4.842   3.001
   59CHL1  H19C 5515   2.834   4.828   2.898
   59CHL1    C1 5516   3.056   4.662   2.822
   59CHL1   H1A 5517   3.134   4.723   2.873
   59CHL1   H1B 5518   3.112   4.571   2.794
   59CHL1    C2 5519   3.010   4.730   2.693
   59CHL1   H2A 5520   3.106   4.746   2.639
   59CHL1   H2B 5521   2.980   4.830   2.729
   59CHL1   C20 5522   3.112   4.388   3.564
   59CHL1   H20 5523   3.038   4.457   3.610
   59CHL1   C21 5524   3.258   4.453   3.554
   59CHL1  H21A 5525   3.304   4.450   3.655
   59CHL1  H21B 5526   3.244   4.557   3.518
   59CHL1  H21C 5527   3.313   4.395   3.477
   59CHL1   C22 5528   3.123   4.260   3.656
   59CHL1  H22A 5529   3.037   4.193   3.637
   59CHL1  H22B 5530   3.212   4.201   3.627
   59CHL1   C23 5531   3.129   4.302   3.801
   59CHL1  H23A 5532   3.217   4.369   3.811
   59CHL1  H23B 5533   3.041   4.366   3.825
   59CHL1   C24 5534   3.129   4.179   3.891
   59CHL1  H24A 5535   3.041   4.119   3.859
   59CHL1  H24B 5536   3.222   4.119   3.876
   59CHL1   C25 5537   3.110   4.225   4.036
   59CHL1   H25 5538   3.011   4.275   4.024
   59CHL1   C26 5539   3.112   4.105   4.132
   59CHL1  H26A 5540   3.106   4.135   4.239
   59CHL1  H26B 5541   3.039   4.027   4.101
   59CHL1  H26C 5542   3.200   4.037   4.132
   59CHL1   C27 5543   3.218   4.326   4.093
   59CHL1  H27A 5544   3.179   4.365   4.189
   59CHL1  H27B 5545   3.314   4.274   4.113
   59CHL1  H27C 5546   3.237   4.409   4.021
   60CHL1    C3 5547   5.415   5.598   2.885
   60CHL1    H3 5548   5.324   5.535   2.880
   60CHL1    O3 5549   5.466   5.627   2.752
   60CHL1   H3' 5550   5.543   5.679   2.775
   60CHL1    C4 5551   5.399   5.723   2.981
   60CHL1   H4A 5552   5.484   5.794   2.979
   60CHL1   H4B 5553   5.311   5.778   2.940
   60CHL1    C5 5554   5.356   5.686   3.122
   60CHL1    C6 5555   5.243   5.737   3.173
   60CHL1    H6 5556   5.186   5.816   3.123
   60CHL1    C7 5557   5.195   5.692   3.314
   60CHL1   H7A 5558   5.148   5.775   3.371
   60CHL1   H7B 5559   5.113   5.618   3.301
   60CHL1    C8 5560   5.296   5.629   3.400
   60CHL1    H8 5561   5.369   5.702   3.441
   60CHL1   C14 5562   5.231   5.562   3.518
   60CHL1   H14 5563   5.148   5.497   3.482
   60CHL1   C15 5564   5.151   5.665   3.610
   60CHL1  H15A 5565   5.208   5.758   3.633
   60CHL1  H15B 5566   5.054   5.691   3.563
   60CHL1   C16 5567   5.131   5.584   3.740
   60CHL1  H16A 5568   5.162   5.651   3.823
   60CHL1  H16B 5569   5.027   5.547   3.754
   60CHL1   C17 5570   5.225   5.461   3.720
   60CHL1   H17 5571   5.160   5.375   3.694
   60CHL1   C13 5572   5.323   5.484   3.606
   60CHL1   C18 5573   5.430   5.589   3.652
   60CHL1  H18A 5574   5.403   5.686   3.699
   60CHL1  H18B 5575   5.493   5.545   3.733
   60CHL1  H18C 5576   5.497   5.617   3.569
   60CHL1   C12 5577   5.380   5.359   3.533
   60CHL1  H12A 5578   5.449   5.300   3.597
   60CHL1  H12B 5579   5.292   5.296   3.508
   60CHL1   C11 5580   5.450   5.417   3.402
   60CHL1  H11A 5581   5.546   5.465   3.429
   60CHL1  H11B 5582   5.476   5.329   3.339
   60CHL1    C9 5583   5.366   5.518   3.317
   60CHL1    H9 5584   5.286   5.453   3.275
   60CHL1   C10 5585   5.439   5.576   3.191
   60CHL1   C19 5586   5.569   5.660   3.232
   60CHL1  H19A 5587   5.651   5.605   3.283
   60CHL1  H19B 5588   5.628   5.702   3.147
   60CHL1  H19C 5589   5.546   5.744   3.301
   60CHL1    C1 5590   5.471   5.465   3.085
   60CHL1   H1A 5591   5.542   5.398   3.139
   60CHL1   H1B 5592   5.384   5.396   3.091
   60CHL1    C2 5593   5.522   5.512   2.946
   60CHL1   H2A 5594   5.525   5.423   2.878
   60CHL1   H2B 5595   5.620   5.564   2.945
   60CHL1   C20 5596   5.285   5.420   3.863
   60CHL1   H20 5597   5.332   5.512   3.904
   60CHL1   C21 5598   5.392   5.307   3.872
   60CHL1  H21A 5599   5.353   5.205   3.852
   60CHL1  H21B 5600   5.435   5.294   3.974
   60CHL1  H21C 5601   5.476   5.326   3.802
   60CHL1   C22 5602   5.163   5.386   3.960
   60CHL1  H22A 5603   5.071   5.448   3.967
   60CHL1  H22B 5604   5.125   5.287   3.927
   60CHL1   C23 5605   5.198   5.375   4.113
   60CHL1  H23A 5606   5.264   5.288   4.133
   60CHL1  H23B 5607   5.265   5.461   4.135
   60CHL1   C24 5608   5.079   5.392   4.209
   60CHL1  H24A 5609   5.035   5.494   4.199
   60CHL1  H24B 5610   5.010   5.313   4.171
   60CHL1   C25 5611   5.125   5.388   4.356
   60CHL1   H25 5612   5.199   5.468   4.377
   60CHL1   C26 5613   5.004   5.423   4.440
   60CHL1  H26A 5614   4.950   5.514   4.405
   60CHL1  H26B 5615   4.921   5.349   4.436
   60CHL1  H26C 5616   5.039   5.436   4.545
   60CHL1   C27 5617   5.180   5.245   4.394
   60CHL1  H27A 5618   5.198   5.238   4.503
   60CHL1  H27B 5619   5.114   5.157   4.374
   60CHL1  H27C 5620   5.270   5.226   4.331
   61CHL1    C3 5621   5.405   2.210   2.763
   61CHL1    H3 5622   5.510   2.234   2.788
   61CHL1    O3 5623   5.396   2.258   2.633
   61CHL1   H3' 5624   5.491   2.272   2.621
   61CHL1    C4 5625   5.379   2.059   2.773
   61CHL1   H4A 5626   5.288   2.028   2.717
   61CHL1   H4B 5627   5.472   2.025   2.723
   61CHL1    C5 5628   5.380   2.004   2.917
   61CHL1    C6 5629   5.445   1.886   2.940
   61CHL1    H6 5630   5.503   1.835   2.862
   61CHL1    C7 5631   5.443   1.814   3.074
   61CHL1   H7A 5632   5.424   1.705   3.071
   61CHL1   H7B 5633   5.545   1.837   3.112
   61CHL1    C8 5634   5.342   1.869   3.177
   61CHL1    H8 5635   5.241   1.835   3.144
   61CHL1   C14 5636   5.382   1.830   3.318
   61CHL1   H14 5637   5.485   1.870   3.334
   61CHL1   C15 5638   5.400   1.682   3.346
   61CHL1  H15A 5639   5.307   1.633   3.308
   61CHL1  H15B 5640   5.491   1.635   3.304
   61CHL1   C16 5641   5.386   1.665   3.502
   61CHL1  H16A 5642   5.310   1.589   3.527
   61CHL1  H16B 5643   5.477   1.633   3.558
   61CHL1   C17 5644   5.357   1.810   3.551
   61CHL1   H17 5645   5.453   1.865   3.563
   61CHL1   C13 5646   5.293   1.883   3.430
   61CHL1   C18 5647   5.151   1.834   3.411
   61CHL1  H18A 5648   5.148   1.723   3.406
   61CHL1  H18B 5649   5.085   1.879   3.488
   61CHL1  H18C 5650   5.121   1.869   3.310
   61CHL1   C12 5651   5.309   2.033   3.430
   61CHL1  H12A 5652   5.253   2.083   3.512
   61CHL1  H12B 5653   5.418   2.055   3.432
   61CHL1   C11 5654   5.252   2.079   3.293
   61CHL1  H11A 5655   5.142   2.069   3.289
   61CHL1  H11B 5656   5.266   2.189   3.284
   61CHL1    C9 5657   5.336   2.023   3.176
   61CHL1    H9 5658   5.440   2.059   3.189
   61CHL1   C10 5659   5.299   2.077   3.030
   61CHL1   C19 5660   5.145   2.063   3.015
   61CHL1  H19A 5661   5.101   2.066   2.912
   61CHL1  H19B 5662   5.103   1.970   3.059
   61CHL1  H19C 5663   5.099   2.148   3.071
   61CHL1    C1 5664   5.341   2.231   3.007
   61CHL1   H1A 5665   5.277   2.295   3.072
   61CHL1   H1B 5666   5.444   2.239   3.047
   61CHL1    C2 5667   5.322   2.291   2.863
   61CHL1   H2A 5668   5.362   2.394   2.852
   61CHL1   H2B 5669   5.219   2.300   2.822
   61CHL1   C20 5670   5.299   1.803   3.691
   61CHL1   H20 5671   5.208   1.740   3.685
   61CHL1   C21 5672   5.243   1.939   3.738
   61CHL1  H21A 5673   5.310   2.022   3.708
   61CHL1  H21B 5674   5.216   1.936   3.846
   61CHL1  H21C 5675   5.151   1.962   3.681
   61CHL1   C22 5676   5.397   1.738   3.785
   61CHL1  H22A 5677   5.403   1.629   3.761
   61CHL1  H22B 5678   5.501   1.777   3.779
   61CHL1   C23 5679   5.352   1.754   3.931
   61CHL1  H23A 5680   5.361   1.862   3.953
   61CHL1  H23B 5681   5.248   1.717   3.947
   61CHL1   C24 5682   5.442   1.672   4.029
   61CHL1  H24A 5683   5.434   1.562   4.014
   61CHL1  H24B 5684   5.547   1.696   4.002
   61CHL1   C25 5685   5.403   1.681   4.181
   61CHL1   H25 5686   5.414   1.789   4.203
   61CHL1   C26 5687   5.258   1.641   4.219
   61CHL1  H26A 5688   5.229   1.537   4.193
   61CHL1  H26B 5689   5.238   1.642   4.328
   61CHL1  H26C 5690   5.196   1.721   4.175
   61CHL1   C27 5691   5.505   1.609   4.272
   61CHL1  H27A 5692   5.497   1.643   4.377
   61CHL1  H27B 5693   5.498   1.498   4.271
   61CHL1  H27C 5694   5.600   1.653   4.235
   62CHL1    C3 5695   1.629   0.461   2.998
   62CHL1    H3 5696   1.594   0.566   3.008
   62CHL1    O3 5697   1.643   0.433   2.862
   62CHL1   H3' 5698   1.640   0.338   2.848
   62CHL1    C4 5699   1.753   0.424   3.071
   62CHL1   H4A 5700   1.775   0.316   3.065
   62CHL1   H4B 5701   1.841   0.478   3.030
   62CHL1    C5 5702   1.734   0.463   3.215
   62CHL1    C6 5703   1.811   0.550   3.282
   62CHL1    H6 5704   1.880   0.616   3.227
   62CHL1    C7 5705   1.798   0.571   3.430
   62CHL1   H7A 5706   1.898   0.571   3.479
   62CHL1   H7B 5707   1.760   0.672   3.455
   62CHL1    C8 5708   1.719   0.454   3.501
   62CHL1    H8 5709   1.783   0.364   3.493
   62CHL1   C14 5710   1.709   0.490   3.646
   62CHL1   H14 5711   1.657   0.588   3.646
   62CHL1   C15 5712   1.837   0.512   3.728
   62CHL1  H15A 5713   1.907   0.427   3.715
   62CHL1  H15B 5714   1.896   0.597   3.688
   62CHL1   C16 5715   1.780   0.517   3.876
   62CHL1  H16A 5716   1.845   0.462   3.948
   62CHL1  H16B 5717   1.778   0.625   3.900
   62CHL1   C17 5718   1.640   0.449   3.865
   62CHL1   H17 5719   1.562   0.528   3.868
   62CHL1   C13 5720   1.621   0.389   3.722
   62CHL1   C18 5721   1.688   0.242   3.717
   62CHL1  H18A 5722   1.701   0.209   3.611
   62CHL1  H18B 5723   1.780   0.255   3.779
   62CHL1  H18C 5724   1.624   0.170   3.770
   62CHL1   C12 5725   1.484   0.390   3.660
   62CHL1  H12A 5726   1.414   0.319   3.709
   62CHL1  H12B 5727   1.436   0.488   3.676
   62CHL1   C11 5728   1.481   0.355   3.509
   62CHL1  H11A 5729   1.505   0.247   3.500
   62CHL1  H11B 5730   1.378   0.380   3.475
   62CHL1    C9 5731   1.587   0.436   3.425
   62CHL1    H9 5732   1.545   0.538   3.409
   62CHL1   C10 5733   1.621   0.377   3.279
   62CHL1   C19 5734   1.673   0.233   3.292
   62CHL1  H19A 5735   1.680   0.192   3.189
   62CHL1  H19B 5736   1.778   0.230   3.328
   62CHL1  H19C 5737   1.603   0.169   3.350
   62CHL1    C1 5738   1.487   0.390   3.198
   62CHL1   H1A 5739   1.410   0.315   3.227
   62CHL1   H1B 5740   1.445   0.492   3.212
   62CHL1    C2 5741   1.518   0.368   3.048
   62CHL1   H2A 5742   1.431   0.388   2.981
   62CHL1   H2B 5743   1.540   0.260   3.038
   62CHL1   C20 5744   1.620   0.360   3.991
   62CHL1   H20 5745   1.703   0.288   4.000
   62CHL1   C21 5746   1.478   0.295   3.990
   62CHL1  H21A 5747   1.457   0.255   4.092
   62CHL1  H21B 5748   1.471   0.208   3.921
   62CHL1  H21C 5749   1.395   0.361   3.956
   62CHL1   C22 5750   1.643   0.433   4.126
   62CHL1  H22A 5751   1.711   0.521   4.123
   62CHL1  H22B 5752   1.547   0.477   4.159
   62CHL1   C23 5753   1.705   0.344   4.230
   62CHL1  H23A 5754   1.633   0.260   4.237
   62CHL1  H23B 5755   1.803   0.307   4.194
   62CHL1   C24 5756   1.707   0.411   4.366
   62CHL1  H24A 5757   1.774   0.500   4.367
   62CHL1  H24B 5758   1.602   0.444   4.385
   62CHL1   C25 5759   1.746   0.310   4.475
   62CHL1   H25 5760   1.695   0.214   4.453
   62CHL1   C26 5761   1.898   0.290   4.468
   62CHL1  H26A 5762   1.927   0.270   4.363
   62CHL1  H26B 5763   1.964   0.376   4.494
   62CHL1  H26C 5764   1.932   0.197   4.519
   62CHL1   C27 5765   1.706   0.342   4.620
   62CHL1  H27A 5766   1.737   0.273   4.701
   62CHL1  H27B 5767   1.769   0.431   4.640
   62CHL1  H27C 5768   1.599   0.368   4.634
   63CHL1    C3 5769   4.719   5.043   2.805
   63CHL1    H3 5770   4.820   5.063   2.847
   63CHL1    O3 5771   4.741   4.987   2.674
   63CHL1   H3' 5772   4.654   5.006   2.639
   63CHL1    C4 5773   4.649   4.937   2.885
   63CHL1   H4A 5774   4.559   4.921   2.822
   63CHL1   H4B 5775   4.706   4.842   2.881
   63CHL1    C5 5776   4.619   4.989   3.026
   63CHL1    C6 5777   4.664   4.923   3.134
   63CHL1    H6 5778   4.732   4.837   3.123
   63CHL1    C7 5779   4.627   4.966   3.273
   63CHL1   H7A 5780   4.608   4.874   3.331
   63CHL1   H7B 5781   4.708   5.020   3.326
   63CHL1    C8 5782   4.506   5.066   3.276
   63CHL1    H8 5783   4.411   5.013   3.255
   63CHL1   C14 5784   4.498   5.134   3.408
   63CHL1   H14 5785   4.592   5.189   3.430
   63CHL1   C15 5786   4.487   5.045   3.537
   63CHL1  H15A 5787   4.417   4.960   3.521
   63CHL1  H15B 5788   4.583   4.996   3.563
   63CHL1   C16 5789   4.427   5.134   3.648
   63CHL1  H16A 5790   4.344   5.075   3.692
   63CHL1  H16B 5791   4.503   5.168   3.721
   63CHL1   C17 5792   4.397   5.273   3.576
   63CHL1   H17 5793   4.484   5.340   3.593
   63CHL1   C13 5794   4.387   5.233   3.425
   63CHL1   C18 5795   4.242   5.163   3.409
   63CHL1  H18A 5796   4.166   5.244   3.414
   63CHL1  H18B 5797   4.243   5.121   3.306
   63CHL1  H18C 5798   4.219   5.083   3.481
   63CHL1   C12 5799   4.407   5.348   3.328
   63CHL1  H12A 5800   4.308   5.398   3.327
   63CHL1  H12B 5801   4.494   5.409   3.362
   63CHL1   C11 5802   4.428   5.297   3.185
   63CHL1  H11A 5803   4.324   5.271   3.153
   63CHL1  H11B 5804   4.460   5.377   3.115
   63CHL1    C9 5805   4.528   5.174   3.170
   63CHL1    H9 5806   4.627   5.218   3.195
   63CHL1   C10 5807   4.532   5.112   3.027
   63CHL1   C19 5808   4.388   5.079   2.991
   63CHL1  H19A 5809   4.370   5.038   2.889
   63CHL1  H19B 5810   4.345   5.008   3.065
   63CHL1  H19C 5811   4.329   5.173   2.995
   63CHL1    C1 5812   4.599   5.219   2.931
   63CHL1   H1A 5813   4.548   5.317   2.926
   63CHL1   H1B 5814   4.698   5.248   2.974
   63CHL1    C2 5815   4.641   5.169   2.792
   63CHL1   H2A 5816   4.702   5.254   2.752
   63CHL1   H2B 5817   4.553   5.149   2.727
   63CHL1   C20 5818   4.275   5.350   3.646
   63CHL1   H20 5819   4.189   5.281   3.656
   63CHL1   C21 5820   4.232   5.469   3.562
   63CHL1  H21A 5821   4.174   5.439   3.472
   63CHL1  H21B 5822   4.325   5.527   3.543
   63CHL1  H21C 5823   4.161   5.538   3.611
   63CHL1   C22 5824   4.318   5.395   3.788
   63CHL1  H22A 5825   4.329   5.311   3.860
   63CHL1  H22B 5826   4.421   5.434   3.777
   63CHL1   C23 5827   4.233   5.505   3.855
   63CHL1  H23A 5828   4.253   5.590   3.786
   63CHL1  H23B 5829   4.127   5.472   3.865
   63CHL1   C24 5830   4.278   5.555   3.984
   63CHL1  H24A 5831   4.384   5.588   3.976
   63CHL1  H24B 5832   4.227   5.651   4.005
   63CHL1   C25 5833   4.246   5.467   4.114
   63CHL1   H25 5834   4.297   5.370   4.096
   63CHL1   C26 5835   4.320   5.528   4.237
   63CHL1  H26A 5836   4.316   5.450   4.316
   63CHL1  H26B 5837   4.426   5.547   4.211
   63CHL1  H26C 5838   4.271   5.624   4.265
   63CHL1   C27 5839   4.092   5.459   4.143
   63CHL1  H27A 5840   4.035   5.396   4.071
   63CHL1  H27B 5841   4.078   5.403   4.238
   63CHL1  H27C 5842   4.053   5.561   4.168
   64CHL1    C3 5843   2.709   2.546   2.801
   64CHL1    H3 5844   2.725   2.656   2.813
   64CHL1    O3 5845   2.650   2.527   2.676
   64CHL1   H3' 5846   2.623   2.436   2.682
   64CHL1    C4 5847   2.843   2.471   2.792
   64CHL1   H4A 5848   2.831   2.365   2.759
   64CHL1   H4B 5849   2.890   2.526   2.709
   64CHL1    C5 5850   2.922   2.484   2.918
   64CHL1    C6 5851   3.048   2.528   2.914
   64CHL1    H6 5852   3.091   2.546   2.814
   64CHL1    C7 5853   3.136   2.548   3.030
   64CHL1   H7A 5854   3.234   2.501   3.010
   64CHL1   H7B 5855   3.140   2.656   3.055
   64CHL1    C8 5856   3.083   2.470   3.158
   64CHL1    H8 5857   3.106   2.362   3.141
   64CHL1   C14 5858   3.149   2.523   3.288
   64CHL1   H14 5859   3.133   2.631   3.304
   64CHL1   C15 5860   3.301   2.507   3.300
   64CHL1  H15A 5861   3.343   2.409   3.269
   64CHL1  H15B 5862   3.335   2.593   3.238
   64CHL1   C16 5863   3.328   2.504   3.454
   64CHL1  H16A 5864   3.389   2.414   3.478
   64CHL1  H16B 5865   3.383   2.596   3.483
   64CHL1   C17 5866   3.187   2.511   3.523
   64CHL1   H17 5867   3.153   2.614   3.546
   64CHL1   C13 5868   3.094   2.454   3.412
   64CHL1   C18 5869   3.112   2.302   3.415
   64CHL1  H18A 5870   3.215   2.261   3.422
   64CHL1  H18B 5871   3.042   2.261   3.492
   64CHL1  H18C 5872   3.069   2.267   3.319
   64CHL1   C12 5873   2.949   2.497   3.424
   64CHL1  H12A 5874   2.904   2.468   3.522
   64CHL1  H12B 5875   2.945   2.608   3.424
   64CHL1   C11 5876   2.870   2.452   3.306
   64CHL1  H11A 5877   2.860   2.341   3.313
   64CHL1  H11B 5878   2.766   2.490   3.318
   64CHL1    C9 5879   2.932   2.497   3.167
   64CHL1    H9 5880   2.931   2.608   3.173
   64CHL1   C10 5881   2.849   2.453   3.049
   64CHL1   C19 5882   2.822   2.291   3.055
   64CHL1  H19A 5883   2.760   2.264   3.143
   64CHL1  H19B 5884   2.769   2.261   2.962
   64CHL1  H19C 5885   2.917   2.236   3.064
   64CHL1    C1 5886   2.710   2.519   3.051
   64CHL1   H1A 5887   2.657   2.472   3.136
   64CHL1   H1B 5888   2.704   2.629   3.063
   64CHL1    C2 5889   2.622   2.499   2.918
   64CHL1   H2A 5890   2.532   2.565   2.916
   64CHL1   H2B 5891   2.593   2.394   2.897
   64CHL1   C20 5892   3.203   2.438   3.653
   64CHL1   H20 5893   3.247   2.337   3.633
   64CHL1   C21 5894   3.071   2.412   3.718
   64CHL1  H21A 5895   3.018   2.330   3.665
   64CHL1  H21B 5896   3.009   2.504   3.717
   64CHL1  H21C 5897   3.090   2.377   3.822
   64CHL1   C22 5898   3.300   2.494   3.755
   64CHL1  H22A 5899   3.292   2.439   3.852
   64CHL1  H22B 5900   3.406   2.497   3.725
   64CHL1   C23 5901   3.273   2.639   3.786
   64CHL1  H23A 5902   3.299   2.705   3.700
   64CHL1  H23B 5903   3.167   2.657   3.813
   64CHL1   C24 5904   3.360   2.698   3.902
   64CHL1  H24A 5905   3.463   2.656   3.893
   64CHL1  H24B 5906   3.373   2.808   3.894
   64CHL1   C25 5907   3.315   2.670   4.043
   64CHL1   H25 5908   3.303   2.560   4.049
   64CHL1   C26 5909   3.424   2.717   4.140
   64CHL1  H26A 5910   3.386   2.704   4.244
   64CHL1  H26B 5911   3.515   2.654   4.127
   64CHL1  H26C 5912   3.451   2.825   4.133
   64CHL1   C27 5913   3.181   2.750   4.075
   64CHL1  H27A 5914   3.181   2.851   4.029
   64CHL1  H27B 5915   3.096   2.694   4.030
   64CHL1  H27C 5916   3.168   2.755   4.186
   65CHL1    C3 5917   0.913   0.127   2.777
   65CHL1    H3 5918   0.812   0.171   2.766
   65CHL1    O3 5919   0.951   0.075   2.648
   65CHL1   H3' 5920   0.913   6.842   2.637
   65CHL1    C4 5921   1.011   0.233   2.821
   65CHL1   H4A 5922   1.113   0.192   2.808
   65CHL1   H4B 5923   1.020   0.316   2.749
   65CHL1    C5 5924   0.980   0.289   2.959
   65CHL1    C6 5925   0.946   0.417   2.985
   65CHL1    H6 5926   0.944   0.493   2.906
   65CHL1    C7 5927   0.907   0.467   3.119
   65CHL1   H7A 5928   0.944   0.569   3.141
   65CHL1   H7B 5929   0.798   0.457   3.134
   65CHL1    C8 5930   0.968   0.370   3.225
   65CHL1    H8 5931   1.076   0.396   3.216
   65CHL1   C14 5932   0.911   0.413   3.361
   65CHL1   H14 5933   0.801   0.398   3.361
   65CHL1   C15 5934   0.930   0.555   3.414
   65CHL1  H15A 5935   1.031   0.594   3.390
   65CHL1  H15B 5936   0.845   0.614   3.373
   65CHL1   C16 5937   0.915   0.537   3.572
   65CHL1  H16A 5938   1.015   0.554   3.618
   65CHL1  H16B 5939   0.837   0.602   3.617
   65CHL1   C17 5940   0.873   0.390   3.590
   65CHL1   H17 5941   0.765   0.395   3.561
   65CHL1   C13 5942   0.952   0.317   3.480
   65CHL1   C18 5943   1.100   0.323   3.508
   65CHL1  H18A 5944   1.164   0.282   3.428
   65CHL1  H18B 5945   1.149   0.421   3.522
   65CHL1  H18C 5946   1.127   0.265   3.599
   65CHL1   C12 5947   0.894   0.178   3.445
   65CHL1  H12A 5948   0.934   0.108   3.522
   65CHL1  H12B 5949   0.783   0.169   3.447
   65CHL1   C11 5950   0.950   0.131   3.308
   65CHL1  H11A 5951   1.060   0.129   3.321
   65CHL1  H11B 5952   0.914   0.028   3.283
   65CHL1    C9 5953   0.923   0.222   3.194
   65CHL1    H9 5954   0.814   0.232   3.176
   65CHL1   C10 5955   0.979   0.171   3.058
   65CHL1   C19 5956   1.123   0.118   3.078
   65CHL1  H19A 5957   1.111   0.024   3.135
   65CHL1  H19B 5958   1.180   0.097   2.985
   65CHL1  H19C 5959   1.190   0.188   3.134
   65CHL1    C1 5960   0.880   0.059   3.011
   65CHL1   H1A 5961   0.875   6.819   3.071
   65CHL1   H1B 5962   0.780   0.104   3.022
   65CHL1    C2 5963   0.917   0.011   2.866
   65CHL1   H2A 5964   0.852   6.782   2.833
   65CHL1   H2B 5965   1.019   6.820   2.866
   65CHL1   C20 5966   0.870   0.330   3.732
   65CHL1   H20 5967   0.866   0.220   3.713
   65CHL1   C21 5968   0.740   0.374   3.797
   65CHL1  H21A 5969   0.753   0.478   3.833
   65CHL1  H21B 5970   0.711   0.309   3.882
   65CHL1  H21C 5971   0.654   0.366   3.727
   65CHL1   C22 5972   0.983   0.378   3.834
   65CHL1  H22A 5973   1.078   0.364   3.778
   65CHL1  H22B 5974   0.969   0.488   3.846
   65CHL1   C23 5975   0.987   0.300   3.959
   65CHL1  H23A 5976   0.890   0.310   4.012
   65CHL1  H23B 5977   1.001   0.195   3.926
   65CHL1   C24 5978   1.110   0.336   4.052
   65CHL1  H24A 5979   1.199   0.319   3.987
   65CHL1  H24B 5980   1.089   0.445   4.062
   65CHL1   C25 5981   1.106   0.248   4.177
   65CHL1   H25 5982   1.005   0.232   4.219
   65CHL1   C26 5983   1.151   0.108   4.155
   65CHL1  H26A 5984   1.109   0.059   4.064
   65CHL1  H26B 5985   1.261   0.120   4.141
   65CHL1  H26C 5986   1.141   0.044   4.245
   65CHL1   C27 5987   1.198   0.305   4.292
   65CHL1  H27A 5988   1.217   0.222   4.365
   65CHL1  H27B 5989   1.296   0.338   4.252
   65CHL1  H27C 5990   1.152   0.385   4.353
   66CHL1    C3 5991   4.290   1.281   2.619
   66CHL1    H3 5992   4.383   1.227   2.649
   66CHL1    O3 5993   4.268   1.279   2.483
   66CHL1   H3' 5994   4.191   1.334   2.466
   66CHL1    C4 5995   4.160   1.242   2.692
   66CHL1   H4A 5996   4.079   1.311   2.660
   66CHL1   H4B 5997   4.125   1.142   2.659
   66CHL1    C5 5998   4.165   1.254   2.845
   66CHL1    C6 5999   4.142   1.155   2.929
   66CHL1    H6 6000   4.111   1.058   2.889
   66CHL1    C7 6001   4.155   1.163   3.076
   66CHL1   H7A 6002   4.075   1.108   3.131
   66CHL1   H7B 6003   4.245   1.109   3.112
   66CHL1    C8 6004   4.172   1.299   3.145
   66CHL1    H8 6005   4.070   1.344   3.150
   66CHL1   C14 6006   4.239   1.290   3.279
   66CHL1   H14 6007   4.339   1.249   3.253
   66CHL1   C15 6008   4.183   1.190   3.379
   66CHL1  H15A 6009   4.074   1.207   3.396
   66CHL1  H15B 6010   4.201   1.085   3.345
   66CHL1   C16 6011   4.248   1.219   3.517
   66CHL1  H16A 6012   4.163   1.237   3.586
   66CHL1  H16B 6013   4.316   1.139   3.555
   66CHL1   C17 6014   4.330   1.352   3.496
   66CHL1   H17 6015   4.428   1.320   3.455
   66CHL1   C13 6016   4.264   1.415   3.366
   66CHL1   C18 6017   4.129   1.471   3.405
   66CHL1  H18A 6018   4.148   1.566   3.459
   66CHL1  H18B 6019   4.069   1.490   3.313
   66CHL1  H18C 6020   4.072   1.404   3.474
   66CHL1   C12 6021   4.342   1.514   3.274
   66CHL1  H12A 6022   4.321   1.610   3.327
   66CHL1  H12B 6023   4.450   1.494   3.291
   66CHL1   C11 6024   4.282   1.523   3.132
   66CHL1  H11A 6025   4.184   1.572   3.151
   66CHL1  H11B 6026   4.342   1.592   3.069
   66CHL1    C9 6027   4.249   1.388   3.055
   66CHL1    H9 6028   4.344   1.332   3.053
   66CHL1   C10 6029   4.210   1.390   2.904
   66CHL1   C19 6030   4.096   1.503   2.898
   66CHL1  H19A 6031   4.143   1.604   2.891
   66CHL1  H19B 6032   4.032   1.487   2.809
   66CHL1  H19C 6033   4.031   1.494   2.988
   66CHL1    C1 6034   4.335   1.436   2.819
   66CHL1   H1A 6035   4.373   1.538   2.842
   66CHL1   H1B 6036   4.414   1.363   2.845
   66CHL1    C2 6037   4.314   1.432   2.664
   66CHL1   H2A 6038   4.405   1.460   2.607
   66CHL1   H2B 6039   4.229   1.495   2.630
   66CHL1   C20 6040   4.358   1.433   3.627
   66CHL1   H20 6041   4.269   1.495   3.649
   66CHL1   C21 6042   4.484   1.522   3.593
   66CHL1  H21A 6043   4.460   1.596   3.514
   66CHL1  H21B 6044   4.573   1.461   3.567
   66CHL1  H21C 6045   4.511   1.582   3.683
   66CHL1   C22 6046   4.376   1.352   3.761
   66CHL1  H22A 6047   4.306   1.265   3.761
   66CHL1  H22B 6048   4.476   1.303   3.757
   66CHL1   C23 6049   4.365   1.438   3.888
   66CHL1  H23A 6050   4.429   1.529   3.884
   66CHL1  H23B 6051   4.266   1.481   3.911
   66CHL1   C24 6052   4.415   1.359   4.022
   66CHL1  H24A 6053   4.370   1.258   4.017
   66CHL1  H24B 6054   4.517   1.317   4.006
   66CHL1   C25 6055   4.399   1.438   4.147
   66CHL1   H25 6056   4.439   1.542   4.143
   66CHL1   C26 6057   4.250   1.440   4.191
   66CHL1  H26A 6058   4.254   1.495   4.287
   66CHL1  H26B 6059   4.194   1.495   4.113
   66CHL1  H26C 6060   4.208   1.339   4.210
   66CHL1   C27 6061   4.486   1.366   4.255
   66CHL1  H27A 6062   4.474   1.412   4.355
   66CHL1  H27B 6063   4.590   1.356   4.218
   66CHL1  H27C 6064   4.452   1.260   4.266
   67CHL1    C3 6065   4.347   6.077   2.853
   67CHL1    H3 6066   4.325   6.183   2.876
   67CHL1    O3 6067   4.380   6.072   2.717
   67CHL1   H3' 6068   4.455   6.012   2.711
   67CHL1    C4 6069   4.469   6.021   2.931
   67CHL1   H4A 6070   4.479   5.917   2.894
   67CHL1   H4B 6071   4.561   6.078   2.907
   67CHL1    C5 6072   4.432   6.033   3.079
   67CHL1    C6 6073   4.497   6.120   3.158
   67CHL1    H6 6074   4.577   6.178   3.108
   67CHL1    C7 6075   4.474   6.123   3.300
   67CHL1   H7A 6076   4.576   6.138   3.343
   67CHL1   H7B 6077   4.416   6.215   3.323
   67CHL1    C8 6078   4.392   5.999   3.352
   67CHL1    H8 6079   4.460   5.911   3.354
   67CHL1   C14 6080   4.344   6.041   3.485
   67CHL1   H14 6081   4.286   6.134   3.467
   67CHL1   C15 6082   4.460   6.075   3.581
   67CHL1  H15A 6083   4.553   6.014   3.583
   67CHL1  H15B 6084   4.488   6.180   3.556
   67CHL1   C16 6085   4.384   6.075   3.720
   67CHL1  H16A 6086   4.444   6.020   3.796
   67CHL1  H16B 6087   4.360   6.179   3.748
   67CHL1   C17 6088   4.247   6.000   3.704
   67CHL1   H17 6089   4.166   6.075   3.700
   67CHL1   C13 6090   4.257   5.935   3.560
   67CHL1   C18 6091   4.339   5.804   3.570
   67CHL1  H18A 6092   4.447   5.810   3.592
   67CHL1  H18B 6093   4.292   5.736   3.644
   67CHL1  H18C 6094   4.336   5.742   3.477
   67CHL1   C12 6095   4.132   5.921   3.476
   67CHL1  H12A 6096   4.070   5.836   3.510
   67CHL1  H12B 6097   4.085   6.021   3.465
   67CHL1   C11 6098   4.170   5.884   3.331
   67CHL1  H11A 6099   4.218   5.785   3.347
   67CHL1  H11B 6100   4.079   5.889   3.267
   67CHL1    C9 6101   4.277   5.977   3.264
   67CHL1    H9 6102   4.221   6.073   3.270
   67CHL1   C10 6103   4.309   5.947   3.119
   67CHL1   C19 6104   4.348   5.798   3.102
   67CHL1  H19A 6105   4.368   5.768   2.997
   67CHL1  H19B 6106   4.436   5.773   3.166
   67CHL1  H19C 6107   4.259   5.736   3.125
   67CHL1    C1 6108   4.183   5.976   3.026
   67CHL1   H1A 6109   4.110   5.894   3.045
   67CHL1   H1B 6110   4.139   6.074   3.054
   67CHL1    C2 6111   4.217   5.988   2.876
   67CHL1   H2A 6112   4.130   6.006   2.809
   67CHL1   H2B 6113   4.239   5.885   2.842
   67CHL1   C20 6114   4.213   5.920   3.832
   67CHL1   H20 6115   4.302   5.858   3.854
   67CHL1   C21 6116   4.084   5.828   3.822
   67CHL1  H21A 6117   4.088   5.758   3.736
   67CHL1  H21B 6118   3.997   5.893   3.800
   67CHL1  H21C 6119   4.060   5.764   3.910
   67CHL1   C22 6120   4.197   6.014   3.949
   67CHL1  H22A 6121   4.299   6.047   3.979
   67CHL1  H22B 6122   4.151   6.113   3.927
   67CHL1   C23 6123   4.126   5.958   4.077
   67CHL1  H23A 6124   4.020   5.943   4.047
   67CHL1  H23B 6125   4.166   5.856   4.099
   67CHL1   C24 6126   4.151   6.045   4.202
   67CHL1  H24A 6127   4.244   6.105   4.196
   67CHL1  H24B 6128   4.065   6.115   4.205
   67CHL1   C25 6129   4.126   5.973   4.339
   67CHL1   H25 6130   4.219   5.922   4.371
   67CHL1   C26 6131   4.103   6.072   4.455
   67CHL1  H26A 6132   4.183   6.149   4.444
   67CHL1  H26B 6133   4.005   6.123   4.448
   67CHL1  H26C 6134   4.113   6.013   4.549
   67CHL1   C27 6135   4.009   5.881   4.339
   67CHL1  H27A 6136   4.000   5.834   4.440
   67CHL1  H27B 6137   3.918   5.944   4.331
   67CHL1  H27C 6138   4.002   5.798   4.266
   68CHL1    C3 6139   2.120   5.126   2.946
   68CHL1    H3 6140   2.225   5.158   2.960
   68CHL1    O3 6141   2.086   5.104   2.807
   68CHL1   H3' 6142   2.141   5.033   2.773
   68CHL1    C4 6143   2.096   5.001   3.018
   68CHL1   H4A 6144   2.005   4.948   2.983
   68CHL1   H4B 6145   2.174   4.929   2.985
   68CHL1    C5 6146   2.096   5.010   3.166
   68CHL1    C6 6147   2.173   4.933   3.245
   68CHL1    H6 6148   2.230   4.859   3.186
   68CHL1    C7 6149   2.189   4.944   3.395
   68CHL1   H7A 6150   2.176   4.844   3.441
   68CHL1   H7B 6151   2.292   4.979   3.415
   68CHL1    C8 6152   2.097   5.048   3.465
   68CHL1    H8 6153   2.003   4.990   3.477
   68CHL1   C14 6154   2.148   5.100   3.590
   68CHL1   H14 6155   2.235   5.162   3.560
   68CHL1   C15 6156   2.205   5.004   3.699
   68CHL1  H15A 6157   2.137   4.917   3.707
   68CHL1  H15B 6158   2.307   4.964   3.677
   68CHL1   C16 6159   2.222   5.080   3.824
   68CHL1  H16A 6160   2.182   5.022   3.910
   68CHL1  H16B 6161   2.324   5.116   3.849
   68CHL1   C17 6162   2.142   5.210   3.802
   68CHL1   H17 6163   2.222   5.283   3.779
   68CHL1   C13 6164   2.057   5.194   3.670
   68CHL1   C18 6165   1.927   5.117   3.709
   68CHL1  H18A 6166   1.961   5.025   3.760
   68CHL1  H18B 6167   1.861   5.170   3.782
   68CHL1  H18C 6168   1.869   5.095   3.617
   68CHL1   C12 6169   2.013   5.309   3.591
   68CHL1  H12A 6170   1.944   5.383   3.636
   68CHL1  H12B 6171   2.107   5.364   3.570
   68CHL1   C11 6172   1.961   5.266   3.446
   68CHL1  H11A 6173   1.868   5.205   3.453
   68CHL1  H11B 6174   1.940   5.353   3.380
   68CHL1    C9 6175   2.055   5.172   3.376
   68CHL1    H9 6176   2.139   5.242   3.360
   68CHL1   C10 6177   2.014   5.135   3.230
   68CHL1   C19 6178   1.863   5.087   3.233
   68CHL1  H19A 6179   1.851   5.017   3.319
   68CHL1  H19B 6180   1.797   5.176   3.226
   68CHL1  H19C 6181   1.842   5.035   3.137
   68CHL1    C1 6182   2.041   5.255   3.137
   68CHL1   H1A 6183   1.968   5.329   3.174
   68CHL1   H1B 6184   2.144   5.284   3.164
   68CHL1    C2 6185   2.030   5.241   2.989
   68CHL1   H2A 6186   2.066   5.336   2.944
   68CHL1   H2B 6187   1.924   5.219   2.964
   68CHL1   C20 6188   2.082   5.272   3.927
   68CHL1   H20 6189   1.998   5.209   3.965
   68CHL1   C21 6190   2.043   5.412   3.903
   68CHL1  H21A 6191   2.113   5.469   3.839
   68CHL1  H21B 6192   2.015   5.469   3.994
   68CHL1  H21C 6193   1.948   5.415   3.844
   68CHL1   C22 6194   2.187   5.276   4.042
   68CHL1  H22A 6195   2.246   5.182   4.039
   68CHL1  H22B 6196   2.246   5.370   4.039
   68CHL1   C23 6197   2.131   5.265   4.186
   68CHL1  H23A 6198   2.204   5.311   4.255
   68CHL1  H23B 6199   2.043   5.333   4.185
   68CHL1   C24 6200   2.093   5.120   4.214
   68CHL1  H24A 6201   2.003   5.095   4.153
   68CHL1  H24B 6202   2.182   5.057   4.194
   68CHL1   C25 6203   2.058   5.096   4.369
   68CHL1   H25 6204   1.989   5.179   4.399
   68CHL1   C26 6205   1.967   4.972   4.381
   68CHL1  H26A 6206   1.962   4.946   4.489
   68CHL1  H26B 6207   1.875   4.997   4.326
   68CHL1  H26C 6208   2.022   4.888   4.333
   68CHL1   C27 6209   2.180   5.082   4.462
   68CHL1  H27A 6210   2.251   5.005   4.426
   68CHL1  H27B 6211   2.238   5.177   4.458
   68CHL1  H27C 6212   2.155   5.048   4.565
   69CHL1    C3 6213   0.922   2.566   2.721
   69CHL1    H3 6214   0.964   2.465   2.738
   69CHL1    O3 6215   0.947   2.597   2.584
   69CHL1   H3' 6216   1.030   2.646   2.590
   69CHL1    C4 6217   0.773   2.573   2.752
   69CHL1   H4A 6218   0.735   2.676   2.732
   69CHL1   H4B 6219   0.716   2.505   2.685
   69CHL1    C5 6220   0.740   2.533   2.897
   69CHL1    C6 6221   0.662   2.427   2.932
   69CHL1    H6 6222   0.609   2.370   2.855
   69CHL1    C7 6223   0.637   2.382   3.081
   69CHL1   H7A 6224   0.531   2.368   3.109
   69CHL1   H7B 6225   0.679   2.280   3.092
   69CHL1    C8 6226   0.692   2.491   3.185
   69CHL1    H8 6227   0.619   2.571   3.165
   69CHL1   C14 6228   0.692   2.436   3.326
   69CHL1   H14 6229   0.767   2.356   3.345
   69CHL1   C15 6230   0.562   2.369   3.378
   69CHL1  H15A 6231   0.468   2.416   3.342
   69CHL1  H15B 6232   0.556   2.264   3.343
   69CHL1   C16 6233   0.584   2.377   3.527
   69CHL1  H16A 6234   0.503   2.442   3.567
   69CHL1  H16B 6235   0.567   2.274   3.565
   69CHL1   C17 6236   0.711   2.460   3.557
   69CHL1   H17 6237   0.791   2.383   3.563
   69CHL1   C13 6238   0.730   2.536   3.431
   69CHL1   C18 6239   0.625   2.651   3.423
   69CHL1  H18A 6240   0.622   2.716   3.333
   69CHL1  H18B 6241   0.524   2.617   3.456
   69CHL1  H18C 6242   0.638   2.722   3.508
   69CHL1   C12 6243   0.875   2.582   3.399
   69CHL1  H12A 6244   0.902   2.667   3.465
   69CHL1  H12B 6245   0.941   2.495   3.417
   69CHL1   C11 6246   0.877   2.637   3.258
   69CHL1  H11A 6247   0.825   2.735   3.262
   69CHL1  H11B 6248   0.979   2.644   3.215
   69CHL1    C9 6249   0.823   2.541   3.149
   69CHL1    H9 6250   0.884   2.448   3.155
   69CHL1   C10 6251   0.831   2.609   3.005
   69CHL1   C19 6252   0.767   2.757   3.007
   69CHL1  H19A 6253   0.677   2.767   3.072
   69CHL1  H19B 6254   0.850   2.824   3.036
   69CHL1  H19C 6255   0.729   2.788   2.907
   69CHL1    C1 6256   0.978   2.611   2.953
   69CHL1   H1A 6257   1.040   2.682   3.013
   69CHL1   H1B 6258   1.019   2.509   2.967
   69CHL1    C2 6259   0.998   2.662   2.817
   69CHL1   H2A 6260   1.101   2.651   2.776
   69CHL1   H2B 6261   0.969   2.768   2.804
   69CHL1   C20 6262   0.700   2.530   3.697
   69CHL1   H20 6263   0.611   2.596   3.701
   69CHL1   C21 6264   0.830   2.602   3.718
   69CHL1  H21A 6265   0.903   2.545   3.657
   69CHL1  H21B 6266   0.867   2.592   3.822
   69CHL1  H21C 6267   0.836   2.706   3.680
   69CHL1   C22 6268   0.679   2.429   3.814
   69CHL1  H22A 6269   0.597   2.358   3.788
   69CHL1  H22B 6270   0.769   2.365   3.824
   69CHL1   C23 6271   0.625   2.491   3.946
   69CHL1  H23A 6272   0.681   2.587   3.955
   69CHL1  H23B 6273   0.523   2.529   3.924
   69CHL1   C24 6274   0.632   2.400   4.072
   69CHL1  H24A 6275   0.574   2.306   4.058
   69CHL1  H24B 6276   0.737   2.365   4.087
   69CHL1   C25 6277   0.594   2.465   4.212
   69CHL1   H25 6278   0.646   2.561   4.231
   69CHL1   C26 6279   0.449   2.499   4.214
   69CHL1  H26A 6280   0.413   2.529   4.315
   69CHL1  H26B 6281   0.425   2.574   4.135
   69CHL1  H26C 6282   0.395   2.405   4.191
   69CHL1   C27 6283   0.624   2.368   4.325
   69CHL1  H27A 6284   0.546   2.290   4.320
   69CHL1  H27B 6285   0.725   2.324   4.319
   69CHL1  H27C 6286   0.614   2.425   4.420
   70CHL1    C3 6287   2.644   0.046   2.623
   70CHL1    H3 6288   2.708   6.816   2.656
   70CHL1    O3 6289   2.619   0.024   2.485
   70CHL1   H3' 6290   2.570   0.100   2.454
   70CHL1    C4 6291   2.510   0.040   2.709
   70CHL1   H4A 6292   2.447   0.126   2.676
   70CHL1   H4B 6293   2.457   6.800   2.684
   70CHL1    C5 6294   2.543   0.064   2.854
   70CHL1    C6 6295   2.519   6.833   2.952
   70CHL1    H6 6296   2.471   6.738   2.927
   70CHL1    C7 6297   2.543   0.003   3.106
   70CHL1   H7A 6298   2.453   6.832   3.166
   70CHL1   H7B 6299   2.627   6.795   3.143
   70CHL1    C8 6300   2.585   0.145   3.142
   70CHL1    H8 6301   2.491   0.202   3.154
   70CHL1   C14 6302   2.665   0.139   3.268
   70CHL1   H14 6303   2.758   0.085   3.239
   70CHL1   C15 6304   2.606   0.048   3.383
   70CHL1  H15A 6305   2.496   0.062   3.375
   70CHL1  H15B 6306   2.641   6.797   3.372
   70CHL1   C16 6307   2.683   0.102   3.503
   70CHL1  H16A 6308   2.617   0.120   3.591
   70CHL1  H16B 6309   2.752   0.030   3.551
   70CHL1   C17 6310   2.770   0.226   3.455
   70CHL1   H17 6311   2.867   0.178   3.434
   70CHL1   C13 6312   2.706   0.277   3.321
   70CHL1   C18 6313   2.578   0.358   3.362
   70CHL1  H18A 6314   2.604   0.460   3.398
   70CHL1  H18B 6315   2.521   0.367   3.267
   70CHL1  H18C 6316   2.513   0.307   3.436
   70CHL1   C12 6317   2.785   0.343   3.208
   70CHL1  H12A 6318   2.806   0.449   3.232
   70CHL1  H12B 6319   2.888   0.302   3.198
   70CHL1   C11 6320   2.719   0.351   3.071
   70CHL1  H11A 6321   2.646   0.431   3.095
   70CHL1  H11B 6322   2.797   0.394   3.004
   70CHL1    C9 6323   2.671   0.208   3.029
   70CHL1    H9 6324   2.769   0.156   3.026
   70CHL1   C10 6325   2.612   0.197   2.882
   70CHL1   C19 6326   2.510   0.312   2.864
   70CHL1  H19A 6327   2.564   0.408   2.880
   70CHL1  H19B 6328   2.461   0.309   2.765
   70CHL1  H19C 6329   2.430   0.307   2.941
   70CHL1    C1 6330   2.734   0.207   2.783
   70CHL1   H1A 6331   2.759   0.315   2.774
   70CHL1   H1B 6332   2.824   0.152   2.818
   70CHL1    C2 6333   2.709   0.178   2.635
   70CHL1   H2A 6334   2.806   0.176   2.581
   70CHL1   H2B 6335   2.647   0.255   2.583
   70CHL1   C20 6336   2.789   0.323   3.574
   70CHL1   H20 6337   2.686   0.360   3.597
   70CHL1   C21 6338   2.877   0.441   3.527
   70CHL1  H21A 6339   2.872   0.534   3.589
   70CHL1  H21B 6340   2.837   0.466   3.427
   70CHL1  H21C 6341   2.984   0.411   3.529
   70CHL1   C22 6342   2.839   0.262   3.708
   70CHL1  H22A 6343   2.832   0.345   3.781
   70CHL1  H22B 6344   2.768   0.189   3.752
   70CHL1   C23 6345   2.984   0.213   3.700
   70CHL1  H23A 6346   2.995   0.153   3.607
   70CHL1  H23B 6347   3.056   0.297   3.706
   70CHL1   C24 6348   3.015   0.130   3.831
   70CHL1  H24A 6349   3.010   0.198   3.920
   70CHL1  H24B 6350   2.943   0.047   3.845
   70CHL1   C25 6351   3.162   0.070   3.828
   70CHL1   H25 6352   3.218   0.157   3.787
   70CHL1   C26 6353   3.219   0.047   3.971
   70CHL1  H26A 6354   3.147   6.836   4.025
   70CHL1  H26B 6355   3.319   6.853   3.960
   70CHL1  H26C 6356   3.230   0.139   4.032
   70CHL1   C27 6357   3.164   6.796   3.748
   70CHL1  H27A 6358   3.091   6.719   3.780
   70CHL1  H27B 6359   3.161   6.807   3.637
   70CHL1  H27C 6360   3.270   6.765   3.764
   71CHL1    C3 6361   6.184   5.800   2.738
   71CHL1    H3 6362   6.101   5.731   2.716
   71CHL1    O3 6363   6.235   5.854   2.619
   71CHL1   H3' 6364   6.160   5.901   2.581
   71CHL1    C4 6365   6.122   5.911   2.820
   71CHL1   H4A 6366   6.191   5.998   2.821
   71CHL1   H4B 6367   6.030   5.951   2.771
   71CHL1    C5 6368   6.073   5.875   2.957
   71CHL1    C6 6369   5.951   5.902   3.006
   71CHL1    H6 6370   5.881   5.966   2.951
   71CHL1    C7 6371   5.907   5.852   3.146
   71CHL1   H7A 6372   5.830   5.916   3.195
   71CHL1   H7B 6373   5.861   5.753   3.125
   71CHL1    C8 6374   6.032   5.830   3.244
   71CHL1    H8 6375   6.079   5.929   3.260
   71CHL1   C14 6376   5.984   5.768   3.368
   71CHL1   H14 6377   5.950   5.667   3.335
   71CHL1   C15 6378   5.869   5.841   3.445
   71CHL1  H15A 6379   5.894   5.948   3.429
   71CHL1  H15B 6380   5.763   5.821   3.421
   71CHL1   C16 6381   5.885   5.783   3.588
   71CHL1  H16A 6382   5.904   5.873   3.651
   71CHL1  H16B 6383   5.792   5.738   3.626
   71CHL1   C17 6384   6.006   5.683   3.586
   71CHL1   H17 6385   5.969   5.580   3.565
   71CHL1   C13 6386   6.090   5.737   3.480
   71CHL1   C18 6387   6.169   5.864   3.535
   71CHL1  H18A 6388   6.103   5.933   3.591
   71CHL1  H18B 6389   6.254   5.823   3.593
   71CHL1  H18C 6390   6.208   5.919   3.447
   71CHL1   C12 6391   6.193   5.641   3.416
   71CHL1  H12A 6392   6.279   5.620   3.483
   71CHL1  H12B 6393   6.143   5.543   3.402
   71CHL1   C11 6394   6.245   5.694   3.277
   71CHL1  H11A 6395   6.301   5.788   3.299
   71CHL1  H11B 6396   6.311   5.620   3.228
   71CHL1    C9 6397   6.135   5.741   3.174
   71CHL1    H9 6398   6.082   5.648   3.145
   71CHL1   C10 6399   6.183   5.803   3.045
   71CHL1   C19 6400   6.301   5.910   3.074
   71CHL1  H19A 6401   6.378   5.863   3.139
   71CHL1  H19B 6402   6.345   5.933   2.975
   71CHL1  H19C 6403   6.264   6.007   3.113
   71CHL1    C1 6404   6.238   5.686   2.958
   71CHL1   H1A 6405   6.330   5.646   3.007
   71CHL1   H1B 6406   6.159   5.610   2.947
   71CHL1    C2 6407   6.288   5.728   2.815
   71CHL1   H2A 6408   6.323   5.636   2.762
   71CHL1   H2B 6409   6.373   5.799   2.824
   71CHL1   C20 6410   6.051   5.654   3.736
   71CHL1   H20 6411   6.095   5.744   3.785
   71CHL1   C21 6412   6.165   5.551   3.745
   71CHL1  H21A 6413   6.250   5.595   3.688
   71CHL1  H21B 6414   6.142   5.451   3.702
   71CHL1  H21C 6415   6.200   5.549   3.851
   71CHL1   C22 6416   5.929   5.622   3.821
   71CHL1  H22A 6417   5.847   5.581   3.758
   71CHL1  H22B 6418   5.962   5.529   3.872
   71CHL1   C23 6419   5.876   5.726   3.909
   71CHL1  H23A 6420   5.953   5.777   3.971
   71CHL1  H23B 6421   5.825   5.803   3.848
   71CHL1   C24 6422   5.779   5.673   4.012
   71CHL1  H24A 6423   5.703   5.623   3.949
   71CHL1  H24B 6424   5.828   5.595   4.074
   71CHL1   C25 6425   5.718   5.781   4.102
   71CHL1   H25 6426   5.669   5.857   4.038
   71CHL1   C26 6427   5.614   5.715   4.191
   71CHL1  H26A 6428   5.562   5.792   4.250
   71CHL1  H26B 6429   5.545   5.674   4.115
   71CHL1  H26C 6430   5.649   5.630   4.255
   71CHL1   C27 6431   5.821   5.850   4.181
   71CHL1  H27A 6432   5.881   5.912   4.111
   71CHL1  H27B 6433   5.764   5.914   4.251
   71CHL1  H27C 6434   5.890   5.775   4.226
   72CHL1    C3 6435   0.207   4.656   2.788
   72CHL1    H3 6436   0.196   4.754   2.839
   72CHL1    O3 6437   0.189   4.652   2.651
   72CHL1   H3' 6438   0.280   4.652   2.621
   72CHL1    C4 6439   0.351   4.593   2.837
   72CHL1   H4A 6440   0.366   4.502   2.775
   72CHL1   H4B 6441   0.416   4.669   2.788
   72CHL1    C5 6442   0.368   4.570   2.986
   72CHL1    C6 6443   0.468   4.627   3.061
   72CHL1    H6 6444   0.538   4.697   3.012
   72CHL1    C7 6445   0.497   4.601   3.204
   72CHL1   H7A 6446   0.604   4.570   3.213
   72CHL1   H7B 6447   0.478   4.687   3.272
   72CHL1    C8 6448   0.408   4.484   3.255
   72CHL1    H8 6449   0.452   4.391   3.214
   72CHL1   C14 6450   0.401   4.484   3.401
   72CHL1   H14 6451   0.341   4.575   3.423
   72CHL1   C15 6452   0.533   4.501   3.480
   72CHL1  H15A 6453   0.613   4.438   3.435
   72CHL1  H15B 6454   0.575   4.604   3.478
   72CHL1   C16 6455   0.501   4.447   3.618
   72CHL1  H16A 6456   0.580   4.371   3.637
   72CHL1  H16B 6457   0.502   4.529   3.693
   72CHL1   C17 6458   0.353   4.397   3.618
   72CHL1   H17 6459   0.295   4.491   3.629
   72CHL1   C13 6460   0.333   4.368   3.462
   72CHL1   C18 6461   0.398   4.226   3.426
   72CHL1  H18A 6462   0.345   4.144   3.480
   72CHL1  H18B 6463   0.381   4.205   3.318
   72CHL1  H18C 6464   0.506   4.233   3.449
   72CHL1   C12 6465   0.184   4.373   3.415
   72CHL1  H12A 6466   0.134   4.282   3.454
   72CHL1  H12B 6467   0.128   4.463   3.446
   72CHL1   C11 6468   0.180   4.373   3.264
   72CHL1  H11A 6469   0.215   4.271   3.238
   72CHL1  H11B 6470   0.080   4.377   3.216
   72CHL1    C9 6471   0.263   4.484   3.201
   72CHL1    H9 6472   0.224   4.584   3.228
   72CHL1   C10 6473   0.256   4.481   3.050
   72CHL1   C19 6474   0.293   4.335   2.997
   72CHL1  H19A 6475   0.313   4.341   2.888
   72CHL1  H19B 6476   0.369   4.277   3.054
   72CHL1  H19C 6477   0.204   4.269   3.008
   72CHL1    C1 6478   0.117   4.536   3.000
   72CHL1   H1A 6479   0.040   4.461   3.029
   72CHL1   H1B 6480   0.083   4.623   3.060
   72CHL1    C2 6481   0.103   4.553   2.847
   72CHL1   H2A 6482   0.001   4.589   2.824
   72CHL1   H2B 6483   0.115   4.457   2.792
   72CHL1   C20 6484   0.319   4.303   3.734
   72CHL1   H20 6485   0.370   4.205   3.723
   72CHL1   C21 6486   0.173   4.270   3.739
   72CHL1  H21A 6487   0.135   4.258   3.843
   72CHL1  H21B 6488   0.141   4.184   3.676
   72CHL1  H21C 6489   0.112   4.358   3.712
   72CHL1   C22 6490   0.355   4.358   3.873
   72CHL1  H22A 6491   0.344   4.284   3.955
   72CHL1  H22B 6492   0.463   4.381   3.889
   72CHL1   C23 6493   0.279   4.485   3.932
   72CHL1  H23A 6494   0.270   4.556   3.848
   72CHL1  H23B 6495   0.174   4.458   3.957
   72CHL1   C24 6496   0.341   4.554   4.054
   72CHL1  H24A 6497   0.438   4.599   4.024
   72CHL1  H24B 6498   0.285   4.647   4.080
   72CHL1   C25 6499   0.374   4.462   4.178
   72CHL1   H25 6500   0.454   4.393   4.143
   72CHL1   C26 6501   0.432   4.544   4.293
   72CHL1  H26A 6502   0.432   4.478   4.382
   72CHL1  H26B 6503   0.529   4.585   4.257
   72CHL1  H26C 6504   0.363   4.630   4.310
   72CHL1   C27 6505   0.250   4.385   4.226
   72CHL1  H27A 6506   0.179   4.453   4.277
   72CHL1  H27B 6507   0.185   4.335   4.152
   72CHL1  H27C 6508   0.285   4.303   4.292
   73CHL1    C3 6509   1.336   4.892   2.934
   73CHL1    H3 6510   1.403   4.977   2.909
   73CHL1    O3 6511   1.302   4.830   2.813
   73CHL1   H3' 6512   1.227   4.882   2.783
   73CHL1    C4 6513   1.407   4.796   3.025
   73CHL1   H4A 6514   1.356   4.697   3.028
   73CHL1   H4B 6515   1.504   4.779   2.973
   73CHL1    C5 6516   1.429   4.834   3.173
   73CHL1    C6 6517   1.547   4.838   3.234
   73CHL1    H6 6518   1.642   4.815   3.184
   73CHL1    C7 6519   1.554   4.890   3.377
   73CHL1   H7A 6520   1.612   4.813   3.432
   73CHL1   H7B 6521   1.618   4.980   3.379
   73CHL1    C8 6522   1.422   4.895   3.452
   73CHL1    H8 6523   1.395   4.788   3.469
   73CHL1   C14 6524   1.420   4.975   3.588
   73CHL1   H14 6525   1.417   5.084   3.569
   73CHL1   C15 6526   1.525   4.925   3.689
   73CHL1  H15A 6527   1.536   4.815   3.685
   73CHL1  H15B 6528   1.625   4.969   3.669
   73CHL1   C16 6529   1.481   4.975   3.820
   73CHL1  H16A 6530   1.457   4.888   3.884
   73CHL1  H16B 6531   1.557   5.044   3.863
   73CHL1   C17 6532   1.344   5.047   3.796
   73CHL1   H17 6533   1.360   5.154   3.773
   73CHL1   C13 6534   1.294   4.973   3.666
   73CHL1   C18 6535   1.238   4.839   3.704
   73CHL1  H18A 6536   1.293   4.793   3.788
   73CHL1  H18B 6537   1.135   4.860   3.740
   73CHL1  H18C 6538   1.229   4.765   3.621
   73CHL1   C12 6539   1.191   5.048   3.584
   73CHL1  H12A 6540   1.091   5.059   3.632
   73CHL1  H12B 6541   1.227   5.153   3.582
   73CHL1   C11 6542   1.178   4.989   3.442
   73CHL1  H11A 6543   1.143   4.884   3.454
   73CHL1  H11B 6544   1.099   5.043   3.386
   73CHL1    C9 6545   1.315   4.966   3.371
   73CHL1    H9 6546   1.348   5.068   3.342
   73CHL1   C10 6547   1.293   4.885   3.235
   73CHL1   C19 6548   1.201   4.756   3.263
   73CHL1  H19A 6549   1.263   4.681   3.316
   73CHL1  H19B 6550   1.107   4.773   3.320
   73CHL1  H19C 6551   1.177   4.705   3.167
   73CHL1    C1 6552   1.212   4.976   3.140
   73CHL1   H1A 6553   1.113   4.993   3.188
   73CHL1   H1B 6554   1.263   5.075   3.141
   73CHL1    C2 6555   1.197   4.930   2.995
   73CHL1   H2A 6556   1.155   5.008   2.927
   73CHL1   H2B 6557   1.133   4.840   3.005
   73CHL1   C20 6558   1.248   5.047   3.921
   73CHL1   H20 6559   1.202   4.946   3.925
   73CHL1   C21 6560   1.141   5.157   3.892
   73CHL1  H21A 6561   1.086   5.187   3.984
   73CHL1  H21B 6562   1.076   5.118   3.811
   73CHL1  H21C 6563   1.188   5.253   3.863
   73CHL1   C22 6564   1.311   5.075   4.056
   73CHL1  H22A 6565   1.392   5.003   4.082
   73CHL1  H22B 6566   1.345   5.180   4.043
   73CHL1   C23 6567   1.211   5.070   4.177
   73CHL1  H23A 6568   1.131   5.147   4.178
   73CHL1  H23B 6569   1.165   4.970   4.166
   73CHL1   C24 6570   1.279   5.079   4.316
   73CHL1  H24A 6571   1.342   4.990   4.339
   73CHL1  H24B 6572   1.342   5.170   4.316
   73CHL1   C25 6573   1.174   5.095   4.429
   73CHL1   H25 6574   1.103   5.177   4.404
   73CHL1   C26 6575   1.100   4.962   4.438
   73CHL1  H26A 6576   1.033   4.964   4.527
   73CHL1  H26B 6577   1.049   4.943   4.341
   73CHL1  H26C 6578   1.172   4.884   4.471
   73CHL1   C27 6579   1.236   5.149   4.557
   73CHL1  H27A 6580   1.260   5.258   4.558
   73CHL1  H27B 6581   1.155   5.138   4.632
   73CHL1  H27C 6582   1.325   5.086   4.581
   74CHL1    C3 6583   1.187   4.051   2.874
   74CHL1    H3 6584   1.118   4.138   2.869
   74CHL1    O3 6585   1.172   3.994   2.749
   74CHL1   H3' 6586   1.176   3.900   2.769
   74CHL1    C4 6587   1.330   4.099   2.891
   74CHL1   H4A 6588   1.393   4.012   2.865
   74CHL1   H4B 6589   1.347   4.177   2.814
   74CHL1    C5 6590   1.345   4.149   3.032
   74CHL1    C6 6591   1.389   4.274   3.053
   74CHL1    H6 6592   1.407   4.336   2.964
   74CHL1    C7 6593   1.415   4.332   3.190
   74CHL1   H7A 6594   1.499   4.404   3.196
   74CHL1   H7B 6595   1.326   4.386   3.228
   74CHL1    C8 6596   1.438   4.216   3.292
   74CHL1    H8 6597   1.536   4.164   3.283
   74CHL1   C14 6598   1.428   4.281   3.427
   74CHL1   H14 6599   1.326   4.325   3.435
   74CHL1   C15 6600   1.527   4.392   3.457
   74CHL1  H15A 6601   1.629   4.366   3.420
   74CHL1  H15B 6602   1.495   4.480   3.397
   74CHL1   C16 6603   1.514   4.408   3.613
   74CHL1  H16A 6604   1.616   4.407   3.659
   74CHL1  H16B 6605   1.474   4.510   3.627
   74CHL1   C17 6606   1.421   4.294   3.655
   74CHL1   H17 6607   1.315   4.329   3.661
   74CHL1   C13 6608   1.419   4.189   3.548
   74CHL1   C18 6609   1.548   4.106   3.566
   74CHL1  H18A 6610   1.591   4.071   3.470
   74CHL1  H18B 6611   1.629   4.172   3.605
   74CHL1  H18C 6612   1.530   4.026   3.641
   74CHL1   C12 6613   1.295   4.097   3.540
   74CHL1  H12A 6614   1.288   4.022   3.622
   74CHL1  H12B 6615   1.201   4.157   3.537
   74CHL1   C11 6616   1.314   4.019   3.412
   74CHL1  H11A 6617   1.404   3.954   3.409
   74CHL1  H11B 6618   1.221   3.960   3.397
   74CHL1    C9 6619   1.323   4.121   3.289
   74CHL1    H9 6620   1.230   4.177   3.313
   74CHL1   C10 6621   1.310   4.051   3.151
   74CHL1   C19 6622   1.415   3.934   3.143
   74CHL1  H19A 6623   1.380   3.842   3.194
   74CHL1  H19B 6624   1.427   3.898   3.039
   74CHL1  H19C 6625   1.511   3.962   3.191
   74CHL1    C1 6626   1.168   4.003   3.125
   74CHL1   H1A 6627   1.135   3.927   3.199
   74CHL1   H1B 6628   1.105   4.094   3.127
   74CHL1    C2 6629   1.150   3.944   2.981
   74CHL1   H2A 6630   1.045   3.910   2.966
   74CHL1   H2B 6631   1.223   3.862   2.964
   74CHL1   C20 6632   1.457   4.252   3.801
   74CHL1   H20 6633   1.563   4.219   3.808
   74CHL1   C21 6634   1.362   4.140   3.851
   74CHL1  H21A 6635   1.363   4.140   3.962
   74CHL1  H21B 6636   1.384   4.034   3.827
   74CHL1  H21C 6637   1.255   4.157   3.827
   74CHL1   C22 6638   1.451   4.383   3.890
   74CHL1  H22A 6639   1.505   4.361   3.985
   74CHL1  H22B 6640   1.506   4.472   3.851
   74CHL1   C23 6641   1.312   4.426   3.921
   74CHL1  H23A 6642   1.262   4.461   3.828
   74CHL1  H23B 6643   1.251   4.351   3.976
   74CHL1   C24 6644   1.309   4.555   4.001
   74CHL1  H24A 6645   1.412   4.576   4.038
   74CHL1  H24B 6646   1.292   4.640   3.932
   74CHL1   C25 6647   1.211   4.565   4.121
   74CHL1   H25 6648   1.106   4.569   4.084
   74CHL1   C26 6649   1.219   4.450   4.223
   74CHL1  H26A 6650   1.137   4.459   4.298
   74CHL1  H26B 6651   1.211   4.345   4.186
   74CHL1  H26C 6652   1.314   4.448   4.281
   74CHL1   C27 6653   1.249   4.688   4.200
   74CHL1  H27A 6654   1.257   4.774   4.131
   74CHL1  H27B 6655   1.163   4.710   4.267
   74CHL1  H27C 6656   1.339   4.676   4.264
   75CHL1    C3 6657   1.316   3.060   2.779
   75CHL1    H3 6658   1.291   2.953   2.763
   75CHL1    O3 6659   1.343   3.129   2.658
   75CHL1   H3' 6660   1.309   3.217   2.676
   75CHL1    C4 6661   1.206   3.129   2.859
   75CHL1   H4A 6662   1.242   3.234   2.859
   75CHL1   H4B 6663   1.115   3.109   2.799
   75CHL1    C5 6664   1.198   3.075   3.003
   75CHL1    C6 6665   1.079   3.033   3.047
   75CHL1    H6 6666   0.988   3.041   2.985
   75CHL1    C7 6667   1.060   2.979   3.187
   75CHL1   H7A 6668   0.965   3.015   3.233
   75CHL1   H7B 6669   1.072   2.869   3.185
   75CHL1    C8 6670   1.168   3.029   3.290
   75CHL1    H8 6671   1.154   3.138   3.308
   75CHL1   C14 6672   1.153   2.960   3.424
   75CHL1   H14 6673   1.162   2.850   3.408
   75CHL1   C15 6674   1.014   2.969   3.500
   75CHL1  H15A 6675   0.978   3.071   3.477
   75CHL1  H15B 6676   0.944   2.894   3.459
   75CHL1   C16 6677   1.058   2.933   3.640
   75CHL1  H16A 6678   1.035   3.022   3.702
   75CHL1  H16B 6679   1.007   2.846   3.685
   75CHL1   C17 6680   1.209   2.905   3.641
   75CHL1   H17 6681   1.218   2.796   3.622
   75CHL1   C13 6682   1.262   2.989   3.527
   75CHL1   C18 6683   1.261   3.141   3.561
   75CHL1  H18A 6684   1.347   3.151   3.631
   75CHL1  H18B 6685   1.290   3.212   3.481
   75CHL1  H18C 6686   1.164   3.170   3.607
   75CHL1   C12 6687   1.403   2.944   3.468
   75CHL1  H12A 6688   1.493   2.961   3.532
   75CHL1  H12B 6689   1.409   2.836   3.444
   75CHL1   C11 6690   1.419   3.019   3.332
   75CHL1  H11A 6691   1.442   3.124   3.359
   75CHL1  H11B 6692   1.505   2.974   3.278
   75CHL1    C9 6693   1.309   3.001   3.222
   75CHL1    H9 6694   1.310   2.890   3.211
   75CHL1   C10 6695   1.332   3.072   3.090
   75CHL1   C19 6696   1.377   3.224   3.113
   75CHL1  H19A 6697   1.479   3.231   3.156
   75CHL1  H19B 6698   1.388   3.270   3.013
   75CHL1  H19C 6699   1.301   3.285   3.167
   75CHL1    C1 6700   1.438   3.003   3.000
   75CHL1   H1A 6701   1.539   3.021   3.043
   75CHL1   H1B 6702   1.414   2.896   2.986
   75CHL1    C2 6703   1.448   3.056   2.859
   75CHL1   H2A 6704   1.520   2.993   2.803
   75CHL1   H2B 6705   1.501   3.152   2.873
   75CHL1   C20 6706   1.255   2.922   3.784
   75CHL1   H20 6707   1.248   3.030   3.810
   75CHL1   C21 6708   1.409   2.885   3.801
   75CHL1  H21A 6709   1.447   2.917   3.901
   75CHL1  H21B 6710   1.460   2.945   3.722
   75CHL1  H21C 6711   1.417   2.776   3.782
   75CHL1   C22 6712   1.171   2.844   3.885
   75CHL1  H22A 6713   1.062   2.867   3.878
   75CHL1  H22B 6714   1.186   2.739   3.855
   75CHL1   C23 6715   1.220   2.861   4.036
   75CHL1  H23A 6716   1.327   2.835   4.049
   75CHL1  H23B 6717   1.215   2.966   4.072
   75CHL1   C24 6718   1.134   2.777   4.130
   75CHL1  H24A 6719   1.030   2.768   4.093
   75CHL1  H24B 6720   1.159   2.669   4.117
   75CHL1   C25 6721   1.145   2.827   4.274
   75CHL1   H25 6722   1.251   2.860   4.282
   75CHL1   C26 6723   1.064   2.948   4.326
   75CHL1  H26A 6724   1.084   3.028   4.251
   75CHL1  H26B 6725   0.955   2.924   4.320
   75CHL1  H26C 6726   1.088   2.989   4.426
   75CHL1   C27 6727   1.144   2.714   4.374
   75CHL1  H27A 6728   1.173   2.747   4.476
   75CHL1  H27B 6729   1.047   2.661   4.378
   75CHL1  H27C 6730   1.223   2.638   4.355
   76CHL1    C3 6731   6.608   4.798   2.663
   76CHL1    H3 6732   6.706   4.746   2.662
   76CHL1    O3 6733   6.563   4.808   2.526
   76CHL1   H3' 6734   6.469   4.792   2.531
   76CHL1    C4 6735   6.501   4.726   2.742
   76CHL1   H4A 6736   6.404   4.777   2.724
   76CHL1   H4B 6737   6.491   4.623   2.700
   76CHL1    C5 6738   6.536   4.710   2.885
   76CHL1    C6 6739   6.552   4.586   2.942
   76CHL1    H6 6740   6.522   4.508   2.871
   76CHL1    C7 6741   6.593   4.563   3.079
   76CHL1   H7A 6742   6.522   4.489   3.123
   76CHL1   H7B 6743   6.693   4.517   3.071
   76CHL1    C8 6744   6.585   4.697   3.164
   76CHL1    H8 6745   6.476   4.712   3.181
   76CHL1   C14 6746   6.659   4.680   3.300
   76CHL1   H14 6747   6.764   4.669   3.265
   76CHL1   C15 6748   6.637   4.558   3.379
   76CHL1  H15A 6749   6.533   4.521   3.367
   76CHL1  H15B 6750   6.703   4.473   3.348
   76CHL1   C16 6751   6.665   4.596   3.528
   76CHL1  H16A 6752   6.572   4.597   3.588
   76CHL1  H16B 6753   6.737   4.520   3.564
   76CHL1   C17 6754   6.723   4.737   3.514
   76CHL1   H17 6755   6.832   4.726   3.493
   76CHL1   C13 6756   6.652   4.797   3.390
   76CHL1   C18 6757   6.503   4.835   3.425
   76CHL1  H18A 6758   6.491   4.935   3.472
   76CHL1  H18B 6759   6.441   4.849   3.333
   76CHL1  H18C 6760   6.456   4.765   3.497
   76CHL1   C12 6761   6.728   4.906   3.322
   76CHL1  H12A 6762   6.734   4.997   3.386
   76CHL1  H12B 6763   6.832   4.880   3.292
   76CHL1   C11 6764   6.663   4.942   3.182
   76CHL1  H11A 6765   6.564   4.990   3.199
   76CHL1  H11B 6766   6.722   5.022   3.132
   76CHL1    C9 6767   6.639   4.812   3.096
   76CHL1    H9 6768   6.746   4.784   3.082
   76CHL1   C10 6769   6.572   4.842   2.957
   76CHL1   C19 6770   6.438   4.927   2.989
   76CHL1  H19A 6771   6.463   5.032   3.013
   76CHL1  H19B 6772   6.387   4.938   2.891
   76CHL1  H19C 6773   6.373   4.886   3.069
   76CHL1    C1 6774   6.669   4.922   2.868
   76CHL1   H1A 6775   6.675   5.020   2.919
   76CHL1   H1B 6776   6.768   4.871   2.867
   76CHL1    C2 6777   6.623   4.938   2.722
   76CHL1   H2A 6778   6.681   5.011   2.662
   76CHL1   H2B 6779   6.528   4.996   2.730
   76CHL1   C20 6780   6.707   4.805   3.657
   76CHL1   H20 6781   6.602   4.830   3.683
   76CHL1   C21 6782   6.790   4.939   3.666
   76CHL1  H21A 6783   6.779   5.006   3.578
   76CHL1  H21B 6784   0.045   4.924   3.679
   76CHL1  H21C 6785   6.761   4.988   3.761
   76CHL1   C22 6786   6.747   4.718   3.775
   76CHL1  H22A 6787   6.706   4.616   3.759
   76CHL1  H22B 6788   0.003   4.703   3.768
   76CHL1   C23 6789   6.699   4.761   3.910
   76CHL1  H23A 6790   6.752   4.851   3.947
   76CHL1  H23B 6791   6.593   4.793   3.909
   76CHL1   C24 6792   6.714   4.645   4.013
   76CHL1  H24A 6793   6.641   4.568   3.979
   76CHL1  H24B 6794   6.818   4.606   4.006
   76CHL1   C25 6795   6.681   4.670   4.159
   76CHL1   H25 6796   6.572   4.688   4.165
   76CHL1   C26 6797   6.723   4.557   4.256
   76CHL1  H26A 6798   6.711   4.571   4.365
   76CHL1  H26B 6799   6.670   4.468   4.215
   76CHL1  H26C 6800   6.829   4.543   4.226
   76CHL1   C27 6801   6.750   4.804   4.204
   76CHL1  H27A 6802   6.742   4.817   4.314
   76CHL1  H27B 6803   0.004   4.791   4.182
   76CHL1  H27C 6804   6.702   4.891   4.153
   77SOPE     N 6805   3.792   2.712   6.709
   77SOPE   HN1 6806   3.858   2.772   6.764
   77SOPE   HN2 6807   3.703   2.762   6.728
   77SOPE   HN3 6808   3.797   2.614   6.744
   77SOPE   C12 6809   3.849   2.721   6.571
   77SOPE  H12A 6810   3.823   2.628   6.515
   77SOPE  H12B 6811   3.959   2.712   6.584
   77SOPE   C11 6812   3.818   2.854   6.496
   77SOPE  H11A 6813   3.709   2.872   6.483
   77SOPE  H11B 6814   3.858   2.858   6.392
   77SOPE     P 6815   4.001   3.037   6.545
   77SOPE   O13 6816   4.107   2.933   6.520
   77SOPE   O14 6817   4.031   3.141   6.647
   77SOPE   O12 6818   3.867   2.963   6.583
   77SOPE   O11 6819   3.962   3.093   6.402
   77SOPE    C1 6820   3.835   3.159   6.390
   77SOPE    HA 6821   3.828   3.237   6.468
   77SOPE    HB 6822   3.743   3.096   6.391
   77SOPE    C2 6823   3.836   3.256   6.262
   77SOPE    HS 6824   3.738   3.307   6.272
   77SOPE   O21 6825   3.854   3.182   6.143
   77SOPE   C21 6826   3.747   3.185   6.056
   77SOPE   O22 6827   3.644   3.240   6.079
   77SOPE   C22 6828   3.798   3.129   5.924
   77SOPE   H2R 6829   3.802   3.019   5.938
   77SOPE   H2S 6830   3.894   3.181   5.905
   77SOPE    C3 6831   3.947   3.361   6.261
   77SOPE    HX 6832   4.040   3.328   6.210
   77SOPE    HY 6833   3.983   3.382   6.364
   77SOPE   O31 6834   3.871   3.479   6.210
   77SOPE   C31 6835   3.893   3.501   6.080
   77SOPE   O32 6836   3.976   3.442   6.013
   77SOPE   C32 6837   3.822   3.616   6.024
   77SOPE   H2X 6838   3.894   3.696   5.996
   77SOPE   H2Y 6839   3.761   3.657   6.107
   77SOPE   C23 6840   3.706   3.167   5.812
   77SOPE   H3R 6841   3.682   3.276   5.815
   77SOPE   H3S 6842   3.615   3.104   5.806
   77SOPE   C24 6843   3.774   3.142   5.672
   77SOPE   H4R 6844   3.866   3.203   5.661
   77SOPE   H4S 6845   3.795   3.037   5.646
   77SOPE   C25 6846   3.677   3.175   5.558
   77SOPE   H5R 6847   3.576   3.128   5.567
   77SOPE   H5S 6848   3.650   3.281   5.576
   77SOPE   C26 6849   3.740   3.134   5.425
   77SOPE   H6R 6850   3.851   3.145   5.434
   77SOPE   H6S 6851   3.713   3.027   5.412
   77SOPE   C27 6852   3.695   3.208   5.298
   77SOPE   H7R 6853   3.585   3.193   5.285
   77SOPE   H7S 6854   3.714   3.316   5.309
   77SOPE   C28 6855   3.763   3.161   5.164
   77SOPE   H8R 6856   3.871   3.181   5.180
   77SOPE   H8S 6857   3.740   3.053   5.154
   77SOPE   C29 6858   3.704   3.227   5.039
   77SOPE   H91 6859   3.608   3.276   5.060
   77SOPE  C210 6860   3.757   3.219   4.915
   77SOPE  H101 6861   3.709   3.269   4.830
   77SOPE  C211 6862   3.885   3.151   4.888
   77SOPE  H11R 6863   3.884   3.075   4.808
   77SOPE  H11S 6864   3.913   3.085   4.973
   77SOPE  C212 6865   4.008   3.242   4.860
   77SOPE  H12R 6866   4.090   3.177   4.823
   77SOPE  H12S 6867   4.036   3.290   4.956
   77SOPE  C213 6868   3.983   3.355   4.753
   77SOPE  H13R 6869   4.077   3.407   4.726
   77SOPE  H13S 6870   3.914   3.425   4.803
   77SOPE  C214 6871   3.913   3.305   4.629
   77SOPE  H14R 6872   3.819   3.248   4.648
   77SOPE  H14S 6873   3.976   3.228   4.579
   77SOPE  C215 6874   3.865   3.402   4.521
   77SOPE  H15R 6875   3.770   3.444   4.560
   77SOPE  H15S 6876   3.840   3.341   4.432
   77SOPE  C216 6877   3.962   3.508   4.482
   77SOPE  H16R 6878   4.061   3.458   4.487
   77SOPE  H16S 6879   3.959   3.595   4.551
   77SOPE  C217 6880   3.941   3.553   4.334
   77SOPE  H17R 6881   3.863   3.629   4.319
   77SOPE  H17S 6882   3.920   3.457   4.281
   77SOPE  C218 6883   4.072   3.607   4.261
   77SOPE  H18R 6884   4.105   3.708   4.293
   77SOPE  H18S 6885   4.029   3.628   4.160
   77SOPE  H18T 6886   4.157   3.536   4.249
   77SOPE   C33 6887   3.736   3.579   5.902
   77SOPE   H3X 6888   3.646   3.643   5.897
   77SOPE   H3Y 6889   3.713   3.472   5.920
   77SOPE   C34 6890   3.803   3.597   5.763
   77SOPE   H4X 6891   3.883   3.525   5.735
   77SOPE   H4Y 6892   3.851   3.697   5.760
   77SOPE   C35 6893   3.696   3.594   5.654
   77SOPE   H5X 6894   3.612   3.662   5.682
   77SOPE   H5Y 6895   3.645   3.496   5.649
   77SOPE   C36 6896   3.763   3.624   5.517
   77SOPE   H6X 6897   3.850   3.556   5.506
   77SOPE   H6Y 6898   3.778   3.734   5.525
   77SOPE   C37 6899   3.677   3.590   5.392
   77SOPE   H7X 6900   3.588   3.657   5.390
   77SOPE   H7Y 6901   3.647   3.485   5.411
   77SOPE   C38 6902   3.745   3.607   5.261
   77SOPE   H8X 6903   3.835   3.543   5.249
   77SOPE   H8Y 6904   3.796   3.706   5.270
   77SOPE   C39 6905   3.654   3.600   5.141
   77SOPE   H9X 6906   3.564   3.665   5.146
   77SOPE   H9Y 6907   3.618   3.495   5.134
   77SOPE  C310 6908   3.734   3.636   5.013
   77SOPE  H10X 6909   3.823   3.570   5.022
   77SOPE  H10Y 6910   3.770   3.741   5.027
   77SOPE  C311 6911   3.650   3.627   4.890
   77SOPE  H11X 6912   3.553   3.678   4.908
   77SOPE  H11Y 6913   3.631   3.518   4.874
   77SOPE  C312 6914   3.704   3.688   4.758
   77SOPE  H12X 6915   3.797   3.635   4.728
   77SOPE  H12Y 6916   3.722   3.793   4.789
   77SOPE  C313 6917   3.591   3.685   4.664
   77SOPE  H13X 6918   3.513   3.753   4.704
   77SOPE  H13Y 6919   3.555   3.580   4.654
   77SOPE  C314 6920   3.622   3.747   4.529
   77SOPE  H14X 6921   3.685   3.673   4.474
   77SOPE  H14Y 6922   3.676   3.843   4.540
   77SOPE  C315 6923   3.496   3.780   4.443
   77SOPE  H15X 6924   3.536   3.793   4.341
   77SOPE  H15Y 6925   3.446   3.871   4.483
   77SOPE  C316 6926   3.402   3.659   4.442
   77SOPE  H16X 6927   3.345   3.644   4.536
   77SOPE  H16Y 6928   3.449   3.561   4.420
   77SOPE  C317 6929   3.285   3.687   4.345
   77SOPE  H17X 6930   3.212   3.604   4.356
   77SOPE  H17Y 6931   3.312   3.688   4.237
   77SOPE  C318 6932   3.197   3.815   4.374
   77SOPE  H18X 6933   3.261   3.904   4.358
   77SOPE  H18Y 6934   3.154   3.805   4.477
   77SOPE  H18Z 6935   3.117   3.815   4.297
   78SOPE     N 6936   2.684   3.808   6.892
   78SOPE   HN1 6937   2.785   3.785   6.901
   78SOPE   HN2 6938   2.661   3.825   6.792
   78SOPE   HN3 6939   2.669   3.903   6.932
   78SOPE   C12 6940   2.590   3.711   6.954
   78SOPE  H12A 6941   2.486   3.747   6.933
   78SOPE  H12B 6942   2.599   3.711   7.064
   78SOPE   C11 6943   2.599   3.574   6.895
   78SOPE  H11A 6944   2.568   3.591   6.790
   78SOPE  H11B 6945   2.537   3.495   6.941
   78SOPE     P 6946   2.767   3.385   6.869
   78SOPE   O13 6947   2.716   3.317   6.990
   78SOPE   O14 6948   2.909   3.375   6.851
   78SOPE   O12 6949   2.735   3.538   6.884
   78SOPE   O11 6950   2.685   3.332   6.746
   78SOPE    C1 6951   2.698   3.369   6.609
   78SOPE    HA 6952   2.806   3.381   6.588
   78SOPE    HB 6953   2.660   3.469   6.578
   78SOPE    C2 6954   2.646   3.249   6.525
   78SOPE    HS 6955   2.707   3.157   6.541
   78SOPE   O21 6956   2.632   3.275   6.380
   78SOPE   C21 6957   2.746   3.278   6.312
   78SOPE   O22 6958   2.855   3.255   6.364
   78SOPE   C22 6959   2.725   3.326   6.169
   78SOPE   H2R 6960   2.820   3.364   6.125
   78SOPE   H2S 6961   2.653   3.411   6.166
   78SOPE    C3 6962   2.503   3.217   6.571
   78SOPE    HX 6963   2.440   3.301   6.535
   78SOPE    HY 6964   2.500   3.209   6.682
   78SOPE   O31 6965   2.448   3.098   6.510
   78SOPE   C31 6966   2.486   2.976   6.548
   78SOPE   O32 6967   2.554   2.944   6.643
   78SOPE   C32 6968   2.427   2.875   6.447
   78SOPE   H2X 6969   2.411   2.930   6.351
   78SOPE   H2Y 6970   2.339   2.835   6.502
   78SOPE   C23 6971   2.671   3.216   6.084
   78SOPE   H3R 6972   2.579   3.168   6.123
   78SOPE   H3S 6973   2.755   3.144   6.077
   78SOPE   C24 6974   2.643   3.267   5.940
   78SOPE   H4R 6975   2.578   3.357   5.942
   78SOPE   H4S 6976   2.742   3.296   5.898
   78SOPE   C25 6977   2.589   3.163   5.850
   78SOPE   H5R 6978   2.655   3.074   5.849
   78SOPE   H5S 6979   2.486   3.139   5.885
   78SOPE   C26 6980   2.578   3.215   5.704
   78SOPE   H6R 6981   2.499   3.293   5.715
   78SOPE   H6S 6982   2.678   3.258   5.683
   78SOPE   C27 6983   2.545   3.119   5.595
   78SOPE   H7R 6984   2.619   3.037   5.603
   78SOPE   H7S 6985   2.442   3.080   5.604
   78SOPE   C28 6986   2.557   3.183   5.451
   78SOPE   H8R 6987   2.480   3.263   5.447
   78SOPE   H8S 6988   2.657   3.226   5.431
   78SOPE   C29 6989   2.516   3.078   5.349
   78SOPE   H91 6990   2.424   3.023   5.374
   78SOPE  C210 6991   2.584   3.052   5.230
   78SOPE  H101 6992   2.535   2.994   5.150
   78SOPE  C211 6993   2.710   3.121   5.179
   78SOPE  H11R 6994   2.791   3.107   5.254
   78SOPE  H11S 6995   2.689   3.230   5.177
   78SOPE  C212 6996   2.775   3.082   5.046
   78SOPE  H12R 6997   2.749   2.978   5.018
   78SOPE  H12S 6998   2.885   3.095   5.049
   78SOPE  C213 6999   2.733   3.176   4.929
   78SOPE  H13R 7000   2.751   3.283   4.952
   78SOPE  H13S 7001   2.623   3.161   4.927
   78SOPE  C214 7002   2.788   3.146   4.788
   78SOPE  H14R 7003   2.896   3.166   4.802
   78SOPE  H14S 7004   2.739   3.210   4.711
   78SOPE  C215 7005   2.793   3.008   4.745
   78SOPE  H15R 7006   2.691   2.981   4.711
   78SOPE  H15S 7007   2.818   2.926   4.816
   78SOPE  C216 7008   2.868   2.988   4.606
   78SOPE  H16R 7009   2.846   3.074   4.540
   78SOPE  H16S 7010   2.856   2.902   4.537
   78SOPE  C217 7011   3.018   2.986   4.620
   78SOPE  H17R 7012   3.052   2.909   4.692
   78SOPE  H17S 7013   3.048   3.078   4.675
   78SOPE  C218 7014   3.092   2.976   4.489
   78SOPE  H18R 7015   3.116   2.871   4.461
   78SOPE  H18S 7016   3.193   3.022   4.500
   78SOPE  H18T 7017   3.028   3.028   4.414
   78SOPE   C33 7018   2.535   2.768   6.420
   78SOPE   H3X 7019   2.479   2.681   6.379
   78SOPE   H3Y 7020   2.586   2.738   6.514
   78SOPE   C34 7021   2.639   2.830   6.324
   78SOPE   H4X 7022   2.724   2.759   6.320
   78SOPE   H4Y 7023   2.677   2.922   6.373
   78SOPE   C35 7024   2.599   2.866   6.182
   78SOPE   H5X 7025   2.685   2.923   6.142
   78SOPE   H5Y 7026   2.509   2.932   6.178
   78SOPE   C36 7027   2.580   2.748   6.082
   78SOPE   H6X 7028   2.494   2.692   6.127
   78SOPE   H6Y 7029   2.662   2.673   6.083
   78SOPE   C37 7030   2.539   2.806   5.949
   78SOPE   H7X 7031   2.620   2.868   5.904
   78SOPE   H7Y 7032   2.454   2.877   5.953
   78SOPE   C38 7033   2.507   2.699   5.842
   78SOPE   H8X 7034   2.421   2.642   5.883
   78SOPE   H8Y 7035   2.592   2.628   5.844
   78SOPE   C39 7036   2.480   2.759   5.694
   78SOPE   H9X 7037   2.571   2.816   5.664
   78SOPE   H9Y 7038   2.401   2.837   5.694
   78SOPE  C310 7039   2.433   2.653   5.592
   78SOPE  H10X 7040   2.362   2.579   5.634
   78SOPE  H10Y 7041   2.515   2.585   5.560
   78SOPE  C311 7042   2.380   2.727   5.480
   78SOPE  H11X 7043   2.461   2.780   5.425
   78SOPE  H11Y 7044   2.304   2.803   5.507
   78SOPE  C312 7045   2.309   2.636   5.386
   78SOPE  H12X 7046   2.212   2.609   5.431
   78SOPE  H12Y 7047   2.367   2.542   5.375
   78SOPE  C313 7048   2.285   2.695   5.243
   78SOPE  H13X 7049   2.370   2.753   5.200
   78SOPE  H13Y 7050   2.199   2.759   5.271
   78SOPE  C314 7051   2.258   2.577   5.142
   78SOPE  H14X 7052   2.195   2.505   5.198
   78SOPE  H14Y 7053   2.355   2.527   5.119
   78SOPE  C315 7054   2.197   2.629   5.018
   78SOPE  H15X 7055   2.143   2.719   5.055
   78SOPE  H15Y 7056   2.129   2.554   4.970
   78SOPE  C316 7057   2.300   2.675   4.914
   78SOPE  H16X 7058   2.371   2.591   4.895
   78SOPE  H16Y 7059   2.358   2.757   4.961
   78SOPE  C317 7060   2.240   2.721   4.780
   78SOPE  H17X 7061   2.146   2.775   4.806
   78SOPE  H17Y 7062   2.200   2.627   4.737
   78SOPE  C318 7063   2.329   2.785   4.675
   78SOPE  H18X 7064   2.398   2.707   4.635
   78SOPE  H18Y 7065   2.385   2.876   4.708
   78SOPE  H18Z 7066   2.267   2.813   4.587
   79SOPE     N 7067   5.181   1.063   6.647
   79SOPE   HN1 7068   5.222   1.136   6.585
   79SOPE   HN2 7069   5.078   1.067   6.631
   79SOPE   HN3 7070   5.196   1.094   6.746
   79SOPE   C12 7071   5.233   0.921   6.623
   79SOPE  H12A 7072   5.343   0.916   6.636
   79SOPE  H12B 7073   5.209   0.912   6.515
   79SOPE   C11 7074   5.163   0.812   6.707
   79SOPE  H11A 7075   5.194   0.834   6.811
   79SOPE  H11B 7076   5.210   0.715   6.679
   79SOPE     P 7077   4.954   0.673   6.655
   79SOPE   O13 7078   4.807   0.687   6.652
   79SOPE   O14 7079   5.006   0.552   6.730
   79SOPE   O12 7080   5.022   0.804   6.707
   79SOPE   O11 7081   5.014   0.667   6.513
   79SOPE    C1 7082   4.984   0.773   6.423
   79SOPE    HA 7083   5.078   0.789   6.365
   79SOPE    HB 7084   4.963   0.870   6.472
   79SOPE    C2 7085   4.867   0.735   6.327
   79SOPE    HS 7086   4.777   0.744   6.391
   79SOPE   O21 7087   4.883   0.607   6.263
   79SOPE   C21 7088   4.769   0.530   6.260
   79SOPE   O22 7089   4.660   0.566   6.303
   79SOPE   C22 7090   4.794   0.390   6.198
   79SOPE   H2R 7091   4.737   0.312   6.252
   79SOPE   H2S 7092   4.903   0.369   6.199
   79SOPE    C3 7093   4.863   0.845   6.218
   79SOPE    HX 7094   4.956   0.849   6.159
   79SOPE    HY 7095   4.857   0.946   6.265
   79SOPE   O31 7096   4.762   0.818   6.122
   79SOPE   C31 7097   4.641   0.853   6.158
   79SOPE   O32 7098   4.609   0.882   6.274
   79SOPE   C32 7099   4.549   0.866   6.037
   79SOPE   H2X 7100   4.453   0.822   6.071
   79SOPE   H2Y 7101   4.597   0.810   5.954
   79SOPE   C23 7102   4.733   0.390   6.055
   79SOPE   H3R 7103   4.631   0.434   6.061
   79SOPE   H3S 7104   4.701   0.286   6.030
   79SOPE   C24 7105   4.822   0.460   5.952
   79SOPE   H4R 7106   4.833   0.568   5.978
   79SOPE   H4S 7107   4.913   0.397   5.949
   79SOPE   C25 7108   4.769   0.451   5.810
   79SOPE   H5R 7109   4.745   0.346   5.782
   79SOPE   H5S 7110   4.672   0.505   5.809
   79SOPE   C26 7111   4.871   0.515   5.709
   79SOPE   H6R 7112   4.897   0.618   5.738
   79SOPE   H6S 7113   4.967   0.459   5.699
   79SOPE   C27 7114   4.816   0.495   5.569
   79SOPE   H7R 7115   4.803   0.388   5.542
   79SOPE   H7S 7116   4.714   0.538   5.562
   79SOPE   C28 7117   4.900   0.576   5.465
   79SOPE   H8R 7118   4.899   0.685   5.486
   79SOPE   H8S 7119   5.006   0.549   5.484
   79SOPE   C29 7120   4.888   0.553   5.318
   79SOPE   H91 7121   4.860   0.448   5.297
   79SOPE  C210 7122   4.910   0.634   5.214
   79SOPE  H101 7123   4.905   0.579   5.118
   79SOPE  C211 7124   4.949   0.778   5.208
   79SOPE  H11R 7125   5.048   0.784   5.158
   79SOPE  H11S 7126   4.963   0.806   5.315
   79SOPE  C212 7127   4.847   0.872   5.142
   79SOPE  H12R 7128   4.899   0.967   5.118
   79SOPE  H12S 7129   4.776   0.895   5.224
   79SOPE  C213 7130   4.777   0.824   5.015
   79SOPE  H13R 7131   4.684   0.771   5.044
   79SOPE  H13S 7132   4.842   0.748   4.966
   79SOPE  C214 7133   4.735   0.936   4.914
   79SOPE  H14R 7134   4.833   0.969   4.874
   79SOPE  H14S 7135   4.691   1.017   4.976
   79SOPE  C215 7136   4.624   0.882   4.814
   79SOPE  H15R 7137   4.527   0.853   4.859
   79SOPE  H15S 7138   4.670   0.797   4.759
   79SOPE  C216 7139   4.598   0.976   4.701
   79SOPE  H16R 7140   4.694   0.993   4.647
   79SOPE  H16S 7141   4.563   1.076   4.735
   79SOPE  C217 7142   4.484   0.930   4.617
   79SOPE  H17R 7143   4.391   0.945   4.676
   79SOPE  H17S 7144   4.502   0.822   4.598
   79SOPE  C218 7145   4.458   1.012   4.489
   79SOPE  H18R 7146   4.371   0.969   4.437
   79SOPE  H18S 7147   4.554   0.998   4.435
   79SOPE  H18T 7148   4.440   1.117   4.521
   79SOPE   C33 7149   4.523   1.011   5.979
   79SOPE   H3X 7150   4.511   1.087   6.059
   79SOPE   H3Y 7151   4.427   0.996   5.925
   79SOPE   C34 7152   4.625   1.055   5.870
   79SOPE   H4X 7153   4.637   0.968   5.803
   79SOPE   H4Y 7154   4.722   1.084   5.916
   79SOPE   C35 7155   4.561   1.171   5.794
   79SOPE   H5X 7156   4.548   1.247   5.875
   79SOPE   H5Y 7157   4.462   1.158   5.745
   79SOPE   C36 7158   4.668   1.220   5.697
   79SOPE   H6X 7159   4.766   1.238   5.745
   79SOPE   H6Y 7160   4.630   1.320   5.666
   79SOPE   C37 7161   4.669   1.138   5.572
   79SOPE   H7X 7162   4.566   1.102   5.550
   79SOPE   H7Y 7163   4.730   1.045   5.580
   79SOPE   C38 7164   4.701   1.228   5.454
   79SOPE   H8X 7165   4.806   1.265   5.461
   79SOPE   H8Y 7166   4.638   1.320   5.451
   79SOPE   C39 7167   4.662   1.167   5.315
   79SOPE   H9X 7168   4.556   1.135   5.315
   79SOPE   H9Y 7169   4.724   1.076   5.303
   79SOPE  C310 7170   4.683   1.261   5.191
   79SOPE  H10X 7171   4.661   1.365   5.223
   79SOPE  H10Y 7172   4.618   1.222   5.110
   79SOPE  C311 7173   4.826   1.274   5.144
   79SOPE  H11X 7174   4.860   1.175   5.105
   79SOPE  H11Y 7175   4.888   1.309   5.230
   79SOPE  C312 7176   4.831   1.371   5.031
   79SOPE  H12X 7177   4.812   1.472   5.074
   79SOPE  H12Y 7178   4.751   1.336   4.962
   79SOPE  C313 7179   4.968   1.378   4.963
   79SOPE  H13X 7180   5.029   1.435   5.037
   79SOPE  H13Y 7181   4.956   1.439   4.871
   79SOPE  C314 7182   5.038   1.243   4.934
   79SOPE  H14X 7183   4.978   1.178   4.868
   79SOPE  H14Y 7184   5.053   1.182   5.026
   79SOPE  C315 7185   5.174   1.264   4.871
   79SOPE  H15X 7186   5.235   1.172   4.889
   79SOPE  H15Y 7187   5.221   1.353   4.917
   79SOPE  C316 7188   5.167   1.281   4.718
   79SOPE  H16X 7189   5.129   1.383   4.694
   79SOPE  H16Y 7190   5.087   1.210   4.686
   79SOPE  C317 7191   5.298   1.242   4.643
   79SOPE  H17X 7192   5.339   1.146   4.681
   79SOPE  H17Y 7193   5.381   1.314   4.658
   79SOPE  C318 7194   5.273   1.223   4.496
   79SOPE  H18X 7195   5.197   1.144   4.474
   79SOPE  H18Y 7196   5.364   1.192   4.440
   79SOPE  H18Z 7197   5.243   1.318   4.447
   80SOPE     N 7198   1.879   2.606   6.874
   80SOPE   HN1 7199   1.778   2.588   6.891
   80SOPE   HN2 7200   1.932   2.526   6.913
   80SOPE   HN3 7201   1.915   2.694   6.915
   80SOPE   C12 7202   1.915   2.599   6.730
   80SOPE  H12A 7203   1.891   2.496   6.695
   80SOPE  H12B 7204   2.024   2.604   6.714
   80SOPE   C11 7205   1.832   2.709   6.651
   80SOPE  H11A 7206   1.726   2.677   6.660
   80SOPE  H11B 7207   1.861   2.707   6.544
   80SOPE     P 7208   1.982   2.923   6.666
   80SOPE   O13 7209   2.096   2.847   6.719
   80SOPE   O14 7210   1.970   3.066   6.705
   80SOPE   O12 7211   1.847   2.844   6.699
   80SOPE   O11 7212   1.994   2.907   6.513
   80SOPE    C1 7213   1.902   2.968   6.416
   80SOPE    HA 7214   1.814   3.013   6.466
   80SOPE    HB 7215   1.869   2.878   6.359
   80SOPE    C2 7216   1.971   3.067   6.330
   80SOPE    HS 7217   1.963   3.175   6.358
   80SOPE   O21 7218   1.906   3.063   6.197
   80SOPE   C21 7219   1.893   3.176   6.126
   80SOPE   O22 7220   1.920   3.290   6.157
   80SOPE   C22 7221   1.811   3.135   6.005
   80SOPE   H2R 7222   1.718   3.076   6.019
   80SOPE   H2S 7223   1.885   3.074   5.949
   80SOPE    C3 7224   2.123   3.040   6.318
   80SOPE    HX 7225   2.135   2.934   6.288
   80SOPE    HY 7226   2.163   3.045   6.422
   80SOPE   O31 7227   2.194   3.131   6.233
   80SOPE   C31 7228   2.232   3.246   6.287
   80SOPE   O32 7229   2.192   3.287   6.397
   80SOPE   C32 7230   2.325   3.328   6.198
   80SOPE   H2X 7231   2.383   3.253   6.139
   80SOPE   H2Y 7232   2.402   3.383   6.257
   80SOPE   C23 7233   1.777   3.262   5.923
   80SOPE   H3R 7234   1.868   3.317   5.892
   80SOPE   H3S 7235   1.707   3.329   5.978
   80SOPE   C24 7236   1.718   3.241   5.780
   80SOPE   H4R 7237   1.808   3.186   5.744
   80SOPE   H4S 7238   1.637   3.166   5.786
   80SOPE   C25 7239   1.684   3.359   5.697
   80SOPE   H5R 7240   1.595   3.410   5.741
   80SOPE   H5S 7241   1.760   3.439   5.684
   80SOPE   C26 7242   1.639   3.295   5.556
   80SOPE   H6R 7243   1.729   3.239   5.523
   80SOPE   H6S 7244   1.562   3.216   5.569
   80SOPE   C27 7245   1.599   3.402   5.456
   80SOPE   H7R 7246   1.561   3.493   5.507
   80SOPE   H7S 7247   1.695   3.439   5.413
   80SOPE   C28 7248   1.514   3.354   5.330
   80SOPE   H8R 7249   1.419   3.302   5.355
   80SOPE   H8S 7250   1.478   3.436   5.265
   80SOPE   C29 7251   1.587   3.257   5.241
   80SOPE   H91 7252   1.584   3.154   5.281
   80SOPE  C210 7253   1.658   3.289   5.128
   80SOPE  H101 7254   1.705   3.208   5.070
   80SOPE  C211 7255   1.658   3.425   5.060
   80SOPE  H11R 7256   1.756   3.449   5.014
   80SOPE  H11S 7257   1.628   3.503   5.133
   80SOPE  C212 7258   1.549   3.445   4.951
   80SOPE  H12R 7259   1.533   3.553   4.927
   80SOPE  H12S 7260   1.454   3.410   4.994
   80SOPE  C213 7261   1.581   3.362   4.825
   80SOPE  H13R 7262   1.499   3.360   4.750
   80SOPE  H13S 7263   1.604   3.256   4.849
   80SOPE  C214 7264   1.711   3.400   4.760
   80SOPE  H14R 7265   1.800   3.371   4.819
   80SOPE  H14S 7266   1.710   3.511   4.756
   80SOPE  C215 7267   1.738   3.343   4.628
   80SOPE  H15R 7268   1.656   3.381   4.564
   80SOPE  H15S 7269   1.732   3.232   4.617
   80SOPE  C216 7270   1.871   3.392   4.572
   80SOPE  H16R 7271   1.951   3.397   4.648
   80SOPE  H16S 7272   1.848   3.499   4.551
   80SOPE  C217 7273   1.912   3.322   4.444
   80SOPE  H17R 7274   1.929   3.212   4.448
   80SOPE  H17S 7275   2.007   3.371   4.413
   80SOPE  C218 7276   1.824   3.354   4.326
   80SOPE  H18R 7277   1.721   3.315   4.337
   80SOPE  H18S 7278   1.869   3.306   4.237
   80SOPE  H18T 7279   1.811   3.462   4.303
   80SOPE   C33 7280   2.268   3.421   6.093
   80SOPE   H3X 7281   2.353   3.485   6.063
   80SOPE   H3Y 7282   2.192   3.489   6.139
   80SOPE   C34 7283   2.214   3.338   5.974
   80SOPE   H4X 7284   2.136   3.271   6.016
   80SOPE   H4Y 7285   2.288   3.269   5.928
   80SOPE   C35 7286   2.150   3.427   5.865
   80SOPE   H5X 7287   2.204   3.522   5.847
   80SOPE   H5Y 7288   2.046   3.449   5.897
   80SOPE   C36 7289   2.133   3.354   5.728
   80SOPE   H6X 7290   2.062   3.269   5.732
   80SOPE   H6Y 7291   2.228   3.305   5.697
   80SOPE   C37 7292   2.098   3.451   5.609
   80SOPE   H7X 7293   2.183   3.523   5.604
   80SOPE   H7Y 7294   1.999   3.498   5.624
   80SOPE   C38 7295   2.095   3.400   5.461
   80SOPE   H8X 7296   2.013   3.325   5.459
   80SOPE   H8Y 7297   2.184   3.340   5.432
   80SOPE   C39 7298   2.079   3.508   5.355
   80SOPE   H9X 7299   2.154   3.590   5.350
   80SOPE   H9Y 7300   1.975   3.545   5.368
   80SOPE  C310 7301   2.088   3.445   5.216
   80SOPE  H10X 7302   2.010   3.367   5.207
   80SOPE  H10Y 7303   2.185   3.391   5.208
   80SOPE  C311 7304   2.058   3.550   5.119
   80SOPE  H11X 7305   2.100   3.644   5.161
   80SOPE  H11Y 7306   1.949   3.560   5.103
   80SOPE  C312 7307   2.116   3.519   4.976
   80SOPE  H12X 7308   2.044   3.452   4.924
   80SOPE  H12Y 7309   2.222   3.486   4.972
   80SOPE  C313 7310   2.126   3.652   4.890
   80SOPE  H13X 7311   2.182   3.727   4.949
   80SOPE  H13Y 7312   2.022   3.689   4.877
   80SOPE  C314 7313   2.186   3.626   4.752
   80SOPE  H14X 7314   2.154   3.702   4.677
   80SOPE  H14Y 7315   2.153   3.529   4.709
   80SOPE  C315 7316   2.338   3.645   4.755
   80SOPE  H15X 7317   2.383   3.588   4.839
   80SOPE  H15Y 7318   2.354   3.751   4.783
   80SOPE  C316 7319   2.417   3.632   4.632
   80SOPE  H16X 7320   2.525   3.644   4.655
   80SOPE  H16Y 7321   2.398   3.707   4.552
   80SOPE  C317 7322   2.410   3.495   4.559
   80SOPE  H17X 7323   2.404   3.511   4.449
   80SOPE  H17Y 7324   2.315   3.448   4.593
   80SOPE  C318 7325   2.532   3.411   4.578
   80SOPE  H18X 7326   2.626   3.465   4.555
   80SOPE  H18Y 7327   2.524   3.322   4.512
   80SOPE  H18Z 7328   2.539   3.379   4.685
   81SOPE     N 7329   4.821   6.805   6.589
   81SOPE   HN1 7330   4.786   6.787   6.686
   81SOPE   HN2 7331   4.885   0.032   6.582
   81SOPE   HN3 7332   4.746   6.822   6.519
   81SOPE   C12 7333   4.918   6.700   6.540
   81SOPE  H12A 7334   4.858   6.609   6.516
   81SOPE  H12B 7335   4.988   6.684   6.624
   81SOPE   C11 7336   4.997   6.745   6.408
   81SOPE  H11A 7337   4.931   6.775   6.325
   81SOPE  H11B 7338   5.047   6.653   6.372
   81SOPE     P 7339   5.065   0.141   6.425
   81SOPE   O13 7340   5.173   0.221   6.477
   81SOPE   O14 7341   4.933   0.168   6.484
   81SOPE   O12 7342   5.097   6.841   6.433
   81SOPE   O11 7343   5.061   0.173   6.273
   81SOPE    C1 7344   5.178   0.134   6.198
   81SOPE    HA 7345   5.184   0.024   6.195
   81SOPE    HB 7346   5.265   0.189   6.240
   81SOPE    C2 7347   5.149   0.186   6.048
   81SOPE    HS 7348   5.243   0.155   5.998
   81SOPE   O21 7349   5.125   0.328   6.045
   81SOPE   C21 7350   5.240   0.397   6.064
   81SOPE   O22 7351   5.353   0.346   6.073
   81SOPE   C22 7352   5.197   0.546   6.089
   81SOPE   H2R 7353   5.266   0.594   6.161
   81SOPE   H2S 7354   5.090   0.551   6.121
   81SOPE    C3 7355   5.031   0.099   5.988
   81SOPE    HX 7356   4.942   0.107   6.054
   81SOPE    HY 7357   5.069   6.849   6.000
   81SOPE   O31 7358   4.986   0.118   5.848
   81SOPE   C31 7359   5.086   0.124   5.759
   81SOPE   O32 7360   5.207   0.111   5.786
   81SOPE   C32 7361   5.027   0.148   5.624
   81SOPE   H2X 7362   5.107   0.189   5.559
   81SOPE   H2Y 7363   4.934   0.208   5.637
   81SOPE   C23 7364   5.213   0.627   5.959
   81SOPE   H3R 7365   5.168   0.566   5.877
   81SOPE   H3S 7366   5.320   0.649   5.942
   81SOPE   C24 7367   5.139   0.757   5.958
   81SOPE   H4R 7368   5.036   0.726   5.985
   81SOPE   H4S 7369   5.169   0.826   6.040
   81SOPE   C25 7370   5.145   0.827   5.828
   81SOPE   H5R 7371   5.245   0.870   5.808
   81SOPE   H5S 7372   5.120   0.758   5.744
   81SOPE   C26 7373   5.045   0.946   5.811
   81SOPE   H6R 7374   4.948   0.900   5.839
   81SOPE   H6S 7375   5.058   1.031   5.881
   81SOPE   C27 7376   5.022   0.987   5.667
   81SOPE   H7R 7377   5.011   0.901   5.597
   81SOPE   H7S 7378   4.924   1.037   5.656
   81SOPE   C28 7379   5.126   1.078   5.621
   81SOPE   H8R 7380   5.129   1.165   5.690
   81SOPE   H8S 7381   5.225   1.029   5.627
   81SOPE   C29 7382   5.114   1.115   5.469
   81SOPE   H91 7383   5.047   1.202   5.462
   81SOPE  C210 7384   5.181   1.072   5.368
   81SOPE  H101 7385   5.153   1.100   5.266
   81SOPE  C211 7386   5.292   0.971   5.375
   81SOPE  H11R 7387   5.275   0.894   5.453
   81SOPE  H11S 7388   5.387   1.009   5.418
   81SOPE  C212 7389   5.326   0.907   5.238
   81SOPE  H12R 7390   5.234   0.868   5.191
   81SOPE  H12S 7391   5.399   0.824   5.253
   81SOPE  C213 7392   5.387   0.998   5.131
   81SOPE  H13R 7393   5.483   1.043   5.166
   81SOPE  H13S 7394   5.320   1.083   5.111
   81SOPE  C214 7395   5.398   0.937   4.990
   81SOPE  H14R 7396   5.426   1.023   4.927
   81SOPE  H14S 7397   5.299   0.898   4.959
   81SOPE  C215 7398   5.506   0.836   4.977
   81SOPE  H15R 7399   5.467   0.758   5.046
   81SOPE  H15S 7400   5.600   0.879   5.016
   81SOPE  C216 7401   5.523   0.785   4.834
   81SOPE  H16R 7402   5.565   0.867   4.772
   81SOPE  H16S 7403   5.419   0.776   4.799
   81SOPE  C217 7404   5.613   0.663   4.814
   81SOPE  H17R 7405   5.607   0.627   4.710
   81SOPE  H17S 7406   5.572   0.582   4.878
   81SOPE  C218 7407   5.757   0.696   4.856
   81SOPE  H18R 7408   5.811   0.762   4.784
   81SOPE  H18S 7409   5.818   0.606   4.879
   81SOPE  H18T 7410   5.755   0.745   4.955
   81SOPE   C33 7411   4.988   0.013   5.546
   81SOPE   H3X 7412   4.910   0.044   5.473
   81SOPE   H3Y 7413   4.933   6.803   5.618
   81SOPE   C34 7414   5.097   6.802   5.471
   81SOPE   H4X 7415   5.171   6.762   5.543
   81SOPE   H4Y 7416   5.147   0.025   5.409
   81SOPE   C35 7417   5.048   6.678   5.406
   81SOPE   H5X 7418   4.955   6.691   5.347
   81SOPE   H5Y 7419   5.031   6.603   5.486
   81SOPE   C36 7420   5.150   6.631   5.299
   81SOPE   H6X 7421   5.114   6.532   5.265
   81SOPE   H6Y 7422   5.240   6.606   5.359
   81SOPE   C37 7423   5.175   6.717   5.176
   81SOPE   H7X 7424   5.265   6.676   5.124
   81SOPE   H7Y 7425   5.192   6.823   5.204
   81SOPE   C38 7426   5.054   6.734   5.082
   81SOPE   H8X 7427   4.967   6.780   5.133
   81SOPE   H8Y 7428   5.029   6.636   5.037
   81SOPE   C39 7429   5.075   6.831   4.963
   81SOPE   H9X 7430   5.180   6.820   4.926
   81SOPE   H9Y 7431   5.064   0.075   5.014
   81SOPE  C310 7432   4.984   6.805   4.841
   81SOPE  H10X 7433   4.985   0.037   4.771
   81SOPE  H10Y 7434   4.879   6.804   4.877
   81SOPE  C311 7435   5.020   6.678   4.757
   81SOPE  H11X 7436   5.024   6.593   4.828
   81SOPE  H11Y 7437   5.123   6.697   4.720
   81SOPE  C312 7438   4.909   6.658   4.648
   81SOPE  H12X 7439   4.809   6.644   4.693
   81SOPE  H12Y 7440   4.936   6.564   4.595
   81SOPE  C313 7441   4.908   6.770   4.547
   81SOPE  H13X 7442   4.857   0.008   4.583
   81SOPE  H13Y 7443   4.837   6.728   4.473
   81SOPE  C314 7444   5.038   6.805   4.478
   81SOPE  H14X 7445   5.080   6.715   4.427
   81SOPE  H14Y 7446   5.108   6.837   4.558
   81SOPE  C315 7447   5.013   0.063   4.379
   81SOPE  H15X 7448   4.973   0.153   4.430
   81SOPE  H15Y 7449   4.939   0.020   4.309
   81SOPE  C316 7450   5.133   0.096   4.289
   81SOPE  H16X 7451   5.162   0.018   4.216
   81SOPE  H16Y 7452   5.224   0.116   4.351
   81SOPE  C317 7453   5.112   0.225   4.206
   81SOPE  H17X 7454   5.085   0.315   4.265
   81SOPE  H17Y 7455   5.018   0.205   4.151
   81SOPE  C318 7456   5.217   0.257   4.108
   81SOPE  H18X 7457   5.217   0.176   4.032
   81SOPE  H18Y 7458   5.321   0.261   4.149
   81SOPE  H18Z 7459   5.199   0.353   4.056
   82SOPE     N 7460   2.589   0.787   6.904
   82SOPE   HN1 7461   2.619   0.819   6.999
   82SOPE   HN2 7462   2.506   0.725   6.907
   82SOPE   HN3 7463   2.659   0.726   6.857
   82SOPE   C12 7464   2.567   0.913   6.818
   82SOPE  H12A 7465   2.671   0.938   6.788
   82SOPE  H12B 7466   2.523   0.988   6.888
   82SOPE   C11 7467   2.483   0.884   6.694
   82SOPE  H11A 7468   2.489   0.977   6.633
   82SOPE  H11B 7469   2.378   0.869   6.725
   82SOPE     P 7470   2.469   0.663   6.557
   82SOPE   O13 7471   2.389   0.579   6.644
   82SOPE   O14 7472   2.563   0.592   6.466
   82SOPE   O12 7473   2.543   0.773   6.635
   82SOPE   O11 7474   2.369   0.748   6.469
   82SOPE    C1 7475   2.390   0.768   6.328
   82SOPE    HA 7476   2.497   0.786   6.304
   82SOPE    HB 7477   2.327   0.857   6.306
   82SOPE    C2 7478   2.319   0.655   6.240
   82SOPE    HS 7479   2.392   0.571   6.247
   82SOPE   O21 7480   2.315   0.702   6.103
   82SOPE   C21 7481   2.435   0.691   6.044
   82SOPE   O22 7482   2.532   0.627   6.086
   82SOPE   C22 7483   2.433   0.777   5.916
   82SOPE   H2R 7484   2.535   0.816   5.895
   82SOPE   H2S 7485   2.364   0.864   5.919
   82SOPE    C3 7486   2.185   0.599   6.295
   82SOPE    HX 7487   2.121   0.689   6.302
   82SOPE    HY 7488   2.204   0.554   6.395
   82SOPE   O31 7489   2.124   0.501   6.209
   82SOPE   C31 7490   2.027   0.542   6.129
   82SOPE   O32 7491   1.995   0.660   6.121
   82SOPE   C32 7492   1.956   0.425   6.060
   82SOPE   H2X 7493   1.926   0.350   6.135
   82SOPE   H2Y 7494   2.022   0.371   5.989
   82SOPE   C23 7495   2.388   0.696   5.797
   82SOPE   H3R 7496   2.287   0.659   5.822
   82SOPE   H3S 7497   2.445   0.601   5.793
   82SOPE   C24 7498   2.405   0.777   5.667
   82SOPE   H4R 7499   2.334   0.861   5.657
   82SOPE   H4S 7500   2.506   0.820   5.650
   82SOPE   C25 7501   2.382   0.675   5.555
   82SOPE   H5R 7502   2.425   0.575   5.578
   82SOPE   H5S 7503   2.273   0.669   5.536
   82SOPE   C26 7504   2.443   0.729   5.425
   82SOPE   H6R 7505   2.546   0.769   5.436
   82SOPE   H6S 7506   2.432   0.652   5.346
   82SOPE   C27 7507   2.361   0.850   5.365
   82SOPE   H7R 7508   2.256   0.816   5.372
   82SOPE   H7S 7509   2.375   0.938   5.433
   82SOPE   C28 7510   2.404   0.897   5.221
   82SOPE   H8R 7511   2.364   0.999   5.203
   82SOPE   H8S 7512   2.515   0.899   5.221
   82SOPE   C29 7513   2.353   0.797   5.125
   82SOPE   H91 7514   2.246   0.773   5.133
   82SOPE  C210 7515   2.416   0.722   5.033
   82SOPE  H101 7516   2.357   0.645   4.981
   82SOPE  C211 7517   2.566   0.744   5.002
   82SOPE  H11R 7518   2.625   0.652   5.025
   82SOPE  H11S 7519   2.613   0.832   5.050
   82SOPE  C212 7520   2.603   0.756   4.850
   82SOPE  H12R 7521   2.544   0.839   4.806
   82SOPE  H12S 7522   2.564   0.663   4.803
   82SOPE  C213 7523   2.755   0.765   4.823
   82SOPE  H13R 7524   2.813   0.750   4.917
   82SOPE  H13S 7525   2.777   0.866   4.783
   82SOPE  C214 7526   2.807   0.674   4.708
   82SOPE  H14R 7527   2.772   0.571   4.730
   82SOPE  H14S 7528   2.917   0.686   4.698
   82SOPE  C215 7529   2.750   0.724   4.576
   82SOPE  H15R 7530   2.797   0.821   4.549
   82SOPE  H15S 7531   2.640   0.734   4.589
   82SOPE  C216 7532   2.751   0.634   4.453
   82SOPE  H16R 7533   2.849   0.585   4.436
   82SOPE  H16S 7534   2.737   0.693   4.361
   82SOPE  C217 7535   2.640   0.521   4.458
   82SOPE  H17R 7536   2.652   0.445   4.538
   82SOPE  H17S 7537   2.645   0.464   4.363
   82SOPE  C218 7538   2.490   0.558   4.474
   82SOPE  H18R 7539   2.473   0.644   4.405
   82SOPE  H18S 7540   2.470   0.581   4.581
   82SOPE  H18T 7541   2.427   0.469   4.456
   82SOPE   C33 7542   1.831   0.483   5.982
   82SOPE   H3X 7543   1.856   0.559   5.905
   82SOPE   H3Y 7544   1.773   0.546   6.053
   82SOPE   C34 7545   1.746   0.380   5.915
   82SOPE   H4X 7546   1.713   0.309   5.994
   82SOPE   H4Y 7547   1.813   0.323   5.847
   82SOPE   C35 7548   1.614   0.434   5.856
   82SOPE   H5X 7549   1.571   0.487   5.943
   82SOPE   H5Y 7550   1.551   0.354   5.812
   82SOPE   C36 7551   1.636   0.546   5.756
   82SOPE   H6X 7552   1.709   0.514   5.679
   82SOPE   H6Y 7553   1.670   0.632   5.817
   82SOPE   C37 7554   1.510   0.581   5.689
   82SOPE   H7X 7555   1.426   0.590   5.761
   82SOPE   H7Y 7556   1.496   0.499   5.615
   82SOPE   C38 7557   1.522   0.714   5.626
   82SOPE   H8X 7558   1.604   0.720   5.552
   82SOPE   H8Y 7559   1.547   0.784   5.708
   82SOPE   C39 7560   1.392   0.759   5.553
   82SOPE   H9X 7561   1.306   0.767   5.624
   82SOPE   H9Y 7562   1.355   0.694   5.471
   82SOPE  C310 7563   1.424   0.892   5.483
   82SOPE  H10X 7564   1.499   0.880   5.402
   82SOPE  H10Y 7565   1.457   0.971   5.554
   82SOPE  C311 7566   1.291   0.948   5.421
   82SOPE  H11X 7567   1.302   1.058   5.431
   82SOPE  H11Y 7568   1.207   0.918   5.488
   82SOPE  C312 7569   1.256   0.899   5.283
   82SOPE  H12X 7570   1.219   0.795   5.294
   82SOPE  H12Y 7571   1.348   0.908   5.221
   82SOPE  C313 7572   1.142   0.981   5.218
   82SOPE  H13X 7573   1.092   1.043   5.296
   82SOPE  H13Y 7574   1.060   0.910   5.193
   82SOPE  C314 7575   1.183   1.068   5.099
   82SOPE  H14X 7576   1.267   1.133   5.133
   82SOPE  H14Y 7577   1.100   1.134   5.065
   82SOPE  C315 7578   1.228   0.976   4.980
   82SOPE  H15X 7579   1.143   0.928   4.927
   82SOPE  H15Y 7580   1.291   0.896   5.023
   82SOPE  C316 7581   1.310   1.053   4.874
   82SOPE  H16X 7582   1.396   1.110   4.915
   82SOPE  H16Y 7583   1.239   1.130   4.838
   82SOPE  C317 7584   1.361   0.977   4.753
   82SOPE  H17X 7585   1.431   0.897   4.786
   82SOPE  H17Y 7586   1.413   1.043   4.681
   82SOPE  C318 7587   1.242   0.914   4.677
   82SOPE  H18X 7588   1.160   0.987   4.658
   82SOPE  H18Y 7589   1.211   0.825   4.735
   82SOPE  H18Z 7590   1.265   0.874   4.575
   83SOPE     N 7591   1.180   2.493   2.098
   83SOPE   HN1 7592   1.162   2.393   2.117
   83SOPE   HN2 7593   1.109   2.552   2.146
   83SOPE   HN3 7594   1.177   2.505   1.995
   83SOPE   C12 7595   1.318   2.520   2.149
   83SOPE  H12A 7596   1.357   2.619   2.117
   83SOPE  H12B 7597   1.385   2.449   2.097
   83SOPE   C11 7598   1.310   2.512   2.298
   83SOPE  H11A 7599   1.413   2.498   2.337
   83SOPE  H11B 7600   1.264   2.417   2.331
   83SOPE     P 7601   1.292   2.707   2.477
   83SOPE   O13 7602   1.172   2.738   2.560
   83SOPE   O14 7603   1.368   2.824   2.437
   83SOPE   O12 7604   1.243   2.628   2.347
   83SOPE   O11 7605   1.382   2.608   2.550
   83SOPE    C1 7606   1.351   2.495   2.629
   83SOPE    HA 7607   1.373   2.399   2.577
   83SOPE    HB 7608   1.244   2.504   2.657
   83SOPE    C2 7609   1.441   2.502   2.755
   83SOPE    HS 7610   1.540   2.544   2.726
   83SOPE   O21 7611   1.460   2.371   2.809
   83SOPE   C21 7612   1.581   2.336   2.854
   83SOPE   O22 7613   1.676   2.405   2.862
   83SOPE   C22 7614   1.571   2.183   2.889
   83SOPE   H2R 7615   1.533   2.124   2.803
   83SOPE   H2S 7616   1.489   2.183   2.964
   83SOPE    C3 7617   1.393   2.607   2.860
   83SOPE    HX 7618   1.289   2.576   2.882
   83SOPE    HY 7619   1.387   2.709   2.816
   83SOPE   O31 7620   1.471   2.607   2.982
   83SOPE   C31 7621   1.584   2.676   2.974
   83SOPE   O32 7622   1.620   2.743   2.881
   83SOPE   C32 7623   1.639   2.669   3.115
   83SOPE   H2X 7624   1.630   2.565   3.151
   83SOPE   H2Y 7625   1.587   2.742   3.180
   83SOPE   C23 7626   1.704   2.118   2.930
   83SOPE   H3R 7627   1.756   2.190   2.998
   83SOPE   H3S 7628   1.752   2.128   2.830
   83SOPE   C24 7629   1.683   1.980   2.995
   83SOPE   H4R 7630   1.653   1.923   2.904
   83SOPE   H4S 7631   1.780   1.946   3.038
   83SOPE   C25 7632   1.565   1.959   3.094
   83SOPE   H5R 7633   1.471   2.000   3.051
   83SOPE   H5S 7634   1.557   1.849   3.108
   83SOPE   C26 7635   1.597   2.023   3.236
   83SOPE   H6R 7636   1.703   2.002   3.260
   83SOPE   H6S 7637   1.589   2.131   3.212
   83SOPE   C27 7638   1.507   1.991   3.348
   83SOPE   H7R 7639   1.403   2.020   3.321
   83SOPE   H7S 7640   1.503   1.880   3.355
   83SOPE   C28 7641   1.546   2.040   3.490
   83SOPE   H8R 7642   1.531   2.150   3.486
   83SOPE   H8S 7643   1.477   1.999   3.566
   83SOPE   C29 7644   1.691   2.010   3.521
   83SOPE   H91 7645   1.765   2.033   3.443
   83SOPE  C210 7646   1.733   1.966   3.640
   83SOPE  H101 7647   1.842   1.955   3.647
   83SOPE  C211 7648   1.659   1.941   3.771
   83SOPE  H11R 7649   1.680   1.839   3.811
   83SOPE  H11S 7650   1.550   1.958   3.757
   83SOPE  C212 7651   1.678   2.054   3.878
   83SOPE  H12R 7652   1.651   2.151   3.831
   83SOPE  H12S 7653   1.787   2.055   3.901
   83SOPE  C213 7654   1.611   2.011   4.007
   83SOPE  H13R 7655   1.656   1.928   4.064
   83SOPE  H13S 7656   1.518   1.957   3.979
   83SOPE  C214 7657   1.585   2.133   4.101
   83SOPE  H14R 7658   1.542   2.214   4.038
   83SOPE  H14S 7659   1.682   2.173   4.139
   83SOPE  C215 7660   1.485   2.103   4.213
   83SOPE  H15R 7661   1.407   2.028   4.186
   83SOPE  H15S 7662   1.442   2.199   4.247
   83SOPE  C216 7663   1.552   2.064   4.343
   83SOPE  H16R 7664   1.626   2.141   4.373
   83SOPE  H16S 7665   1.600   1.965   4.331
   83SOPE  C217 7666   1.455   2.033   4.460
   83SOPE  H17R 7667   1.384   2.119   4.456
   83SOPE  H17S 7668   1.517   2.041   4.551
   83SOPE  C218 7669   1.382   1.889   4.455
   83SOPE  H18R 7670   1.342   1.870   4.353
   83SOPE  H18S 7671   1.307   1.892   4.537
   83SOPE  H18T 7672   1.447   1.804   4.483
   83SOPE   C33 7673   1.797   2.696   3.115
   83SOPE   H3X 7674   1.818   2.801   3.084
   83SOPE   H3Y 7675   1.849   2.627   3.045
   83SOPE   C34 7676   1.873   2.653   3.244
   83SOPE   H4X 7677   1.982   2.640   3.224
   83SOPE   H4Y 7678   1.837   2.555   3.282
   83SOPE   C35 7679   1.851   2.754   3.363
   83SOPE   H5X 7680   1.742   2.738   3.381
   83SOPE   H5Y 7681   1.870   2.859   3.333
   83SOPE   C36 7682   1.937   2.713   3.492
   83SOPE   H6X 7683   2.042   2.746   3.478
   83SOPE   H6Y 7684   1.935   2.603   3.505
   83SOPE   C37 7685   1.888   2.791   3.610
   83SOPE   H7X 7686   1.778   2.773   3.614
   83SOPE   H7Y 7687   1.924   2.895   3.595
   83SOPE   C38 7688   1.953   2.736   3.737
   83SOPE   H8X 7689   2.063   2.727   3.737
   83SOPE   H8Y 7690   1.906   2.637   3.760
   83SOPE   C39 7691   1.916   2.837   3.856
   83SOPE   H9X 7692   1.807   2.859   3.856
   83SOPE   H9Y 7693   1.968   2.933   3.831
   83SOPE  C310 7694   1.972   2.791   3.988
   83SOPE  H10X 7695   2.082   2.799   3.982
   83SOPE  H10Y 7696   1.946   2.686   4.013
   83SOPE  C311 7697   1.918   2.871   4.101
   83SOPE  H11X 7698   1.807   2.862   4.108
   83SOPE  H11Y 7699   1.932   2.979   4.084
   83SOPE  C312 7700   1.975   2.839   4.242
   83SOPE  H12X 7701   2.085   2.855   4.234
   83SOPE  H12Y 7702   1.953   2.731   4.250
   83SOPE  C313 7703   1.922   2.909   4.366
   83SOPE  H13X 7704   1.820   2.875   4.393
   83SOPE  H13Y 7705   1.914   3.019   4.348
   83SOPE  C314 7706   2.011   2.887   4.489
   83SOPE  H14X 7707   2.116   2.894   4.452
   83SOPE  H14Y 7708   1.996   2.780   4.515
   83SOPE  C315 7709   1.975   2.965   4.619
   83SOPE  H15X 7710   1.988   3.074   4.605
   83SOPE  H15Y 7711   2.041   2.924   4.699
   83SOPE  C316 7712   1.834   2.943   4.682
   83SOPE  H16X 7713   1.785   2.844   4.675
   83SOPE  H16Y 7714   1.781   3.005   4.607
   83SOPE  C317 7715   1.822   3.007   4.815
   83SOPE  H17X 7716   1.719   3.049   4.812
   83SOPE  H17Y 7717   1.901   3.085   4.822
   83SOPE  C318 7718   1.838   2.922   4.938
   83SOPE  H18X 7719   1.845   2.979   5.034
   83SOPE  H18Y 7720   1.930   2.861   4.935
   83SOPE  H18Z 7721   1.753   2.850   4.946
   84SOPE     N 7722   6.819   0.567   2.204
   84SOPE   HN1 7723   6.842   0.556   2.305
   84SOPE   HN2 7724   0.012   0.652   2.165
   84SOPE   HN3 7725   6.717   0.585   2.199
   84SOPE   C12 7726   6.849   0.451   2.112
   84SOPE  H12A 7727   0.078   0.486   2.047
   84SOPE  H12B 7728   6.761   0.434   2.048
   84SOPE   C11 7729   0.042   0.323   2.174
   84SOPE  H11A 7730   0.078   0.262   2.089
   84SOPE  H11B 7731   6.820   0.265   2.230
   84SOPE     P 7732   0.294   0.314   2.264
   84SOPE   O13 7733   0.355   0.360   2.140
   84SOPE   O14 7734   0.291   0.173   2.292
   84SOPE   O12 7735   0.146   0.357   2.270
   84SOPE   O11 7736   0.364   0.397   2.374
   84SOPE    C1 7737   0.305   0.462   2.489
   84SOPE    HA 7738   0.196   0.446   2.506
   84SOPE    HB 7739   0.316   0.573   2.487
   84SOPE    C2 7740   0.353   0.403   2.626
   84SOPE    HS 7741   0.305   0.460   2.708
   84SOPE   O21 7742   0.498   0.411   2.647
   84SOPE   C21 7743   0.543   0.535   2.662
   84SOPE   O22 7744   0.478   0.636   2.651
   84SOPE   C22 7745   0.689   0.523   2.714
   84SOPE   H2R 7746   0.743   0.498   2.620
   84SOPE   H2S 7747   0.700   0.436   2.783
   84SOPE    C3 7748   0.299   0.255   2.646
   84SOPE    HX 7749   0.331   0.191   2.561
   84SOPE    HY 7750   0.189   0.256   2.634
   84SOPE   O31 7751   0.340   0.199   2.770
   84SOPE   C31 7752   0.461   0.135   2.771
   84SOPE   O32 7753   0.532   0.102   2.674
   84SOPE   C32 7754   0.487   0.125   2.914
   84SOPE   H2X 7755   0.448   0.219   2.957
   84SOPE   H2Y 7756   0.596   0.112   2.933
   84SOPE   C23 7757   0.745   0.658   2.769
   84SOPE   H3R 7758   0.712   0.736   2.698
   84SOPE   H3S 7759   0.854   0.640   2.780
   84SOPE   C24 7760   0.692   0.699   2.911
   84SOPE   H4R 7761   0.582   0.695   2.898
   84SOPE   H4S 7762   0.738   0.636   2.990
   84SOPE   C25 7763   0.726   0.847   2.937
   84SOPE   H5R 7764   0.836   0.864   2.939
   84SOPE   H5S 7765   0.685   0.912   2.856
   84SOPE   C26 7766   0.681   0.899   3.078
   84SOPE   H6R 7767   0.708   1.005   3.099
   84SOPE   H6S 7768   0.571   0.886   3.068
   84SOPE   C27 7769   0.740   0.823   3.196
   84SOPE   H7R 7770   0.681   0.729   3.204
   84SOPE   H7S 7771   0.836   0.775   3.166
   84SOPE   C28 7772   0.744   0.907   3.321
   84SOPE   H8R 7773   0.641   0.943   3.345
   84SOPE   H8S 7774   0.761   0.830   3.399
   84SOPE   C29 7775   0.840   1.026   3.314
   84SOPE   H91 7776   0.910   1.025   3.230
   84SOPE  C210 7777   0.860   1.110   3.417
   84SOPE  H101 7778   0.935   1.190   3.407
   84SOPE  C211 7779   0.788   1.108   3.553
   84SOPE  H11R 7780   0.680   1.103   3.528
   84SOPE  H11S 7781   0.798   1.204   3.607
   84SOPE  C212 7782   0.842   0.993   3.652
   84SOPE  H12R 7783   0.946   1.018   3.684
   84SOPE  H12S 7784   0.852   0.889   3.613
   84SOPE  C213 7785   0.764   0.971   3.787
   84SOPE  H13R 7786   0.675   0.907   3.766
   84SOPE  H13S 7787   0.728   1.073   3.815
   84SOPE  C214 7788   0.867   0.922   3.901
   84SOPE  H14R 7789   0.825   0.946   4.001
   84SOPE  H14S 7790   0.968   0.968   3.889
   84SOPE  C215 7791   0.865   0.766   3.909
   84SOPE  H15R 7792   0.913   0.735   3.813
   84SOPE  H15S 7793   0.763   0.724   3.920
   84SOPE  C216 7794   0.948   0.718   4.041
   84SOPE  H16R 7795   0.979   0.816   4.083
   84SOPE  H16S 7796   1.032   0.661   3.997
   84SOPE  C217 7797   0.874   0.646   4.150
   84SOPE  H17R 7798   0.947   0.593   4.214
   84SOPE  H17S 7799   0.819   0.564   4.098
   84SOPE  C218 7800   0.784   0.737   4.233
   84SOPE  H18R 7801   0.714   0.785   4.162
   84SOPE  H18S 7802   0.841   0.807   4.298
   84SOPE  H18T 7803   0.733   0.675   4.309
   84SOPE   C33 7804   0.430   6.848   2.972
   84SOPE   H3X 7805   0.477   6.767   2.915
   84SOPE   H3Y 7806   0.319   6.854   2.965
   84SOPE   C34 7807   0.462   6.821   3.118
   84SOPE   H4X 7808   0.571   6.803   3.129
   84SOPE   H4Y 7809   0.407   6.732   3.155
   84SOPE   C35 7810   0.424   0.085   3.209
   84SOPE   H5X 7811   0.329   0.128   3.171
   84SOPE   H5Y 7812   0.505   0.160   3.194
   84SOPE   C36 7813   0.412   0.057   3.355
   84SOPE   H6X 7814   0.506   0.009   3.390
   84SOPE   H6Y 7815   0.321   6.851   3.376
   84SOPE   C37 7816   0.390   0.189   3.436
   84SOPE   H7X 7817   0.286   0.220   3.411
   84SOPE   H7Y 7818   0.471   0.261   3.411
   84SOPE   C38 7819   0.379   0.171   3.590
   84SOPE   H8X 7820   0.479   0.145   3.630
   84SOPE   H8Y 7821   0.315   0.084   3.618
   84SOPE   C39 7822   0.324   0.302   3.654
   84SOPE   H9X 7823   0.285   0.373   3.579
   84SOPE   H9Y 7824   0.412   0.345   3.707
   84SOPE  C310 7825   0.233   0.273   3.770
   84SOPE  H10X 7826   0.285   0.202   3.838
   84SOPE  H10Y 7827   0.148   0.222   3.721
   84SOPE  C311 7828   0.177   0.399   3.843
   84SOPE  H11X 7829   0.110   0.453   3.774
   84SOPE  H11Y 7830   0.267   0.460   3.864
   84SOPE  C312 7831   0.116   0.368   3.971
   84SOPE  H12X 7832   0.175   0.295   4.031
   84SOPE  H12Y 7833   0.013   0.332   3.950
   84SOPE  C313 7834   0.099   0.490   4.064
   84SOPE  H13X 7835   0.101   0.589   4.014
   84SOPE  H13Y 7836   0.184   0.486   4.136
   84SOPE  C314 7837   6.832   0.485   4.158
   84SOPE  H14X 7838   6.839   0.382   4.199
   84SOPE  H14Y 7839   6.743   0.493   4.092
   84SOPE  C315 7840   6.828   0.587   4.271
   84SOPE  H15X 7841   0.046   0.556   4.350
   84SOPE  H15Y 7842   6.728   0.587   4.319
   84SOPE  C316 7843   0.004   0.733   4.225
   84SOPE  H16X 7844   6.802   0.747   4.130
   84SOPE  H16Y 7845   0.109   0.765   4.204
   84SOPE  C317 7846   6.791   0.835   4.316
   84SOPE  H17X 7847   6.825   0.809   4.418
   84SOPE  H17Y 7848   6.681   0.820   4.310
   84SOPE  C318 7849   6.830   0.981   4.283
   84SOPE  H18X 7850   0.080   0.989   4.320
   84SOPE  H18Y 7851   6.765   1.050   4.340
   84SOPE  H18Z 7852   6.810   0.999   4.175
   85SOPE     N 7853   5.315   4.351   1.987
   85SOPE   HN1 7854   5.399   4.328   2.044
   85SOPE   HN2 7855   5.319   4.448   1.949
   85SOPE   HN3 7856   5.228   4.350   2.044
   85SOPE   C12 7857   5.309   4.230   1.898
   85SOPE  H12A 7858   5.387   4.246   1.821
   85SOPE  H12B 7859   5.207   4.229   1.855
   85SOPE   C11 7860   5.335   4.102   1.980
   85SOPE  H11A 7861   5.317   4.015   1.914
   85SOPE  H11B 7862   5.270   4.093   2.070
   85SOPE     P 7863   5.582   4.037   1.941
   85SOPE   O13 7864   5.713   4.082   1.993
   85SOPE   O14 7865   5.562   4.062   1.800
   85SOPE   O12 7866   5.470   4.114   2.026
   85SOPE   O11 7867   5.548   3.890   1.980
   85SOPE    C1 7868   5.605   3.816   2.089
   85SOPE    HA 7869   5.687   3.868   2.143
   85SOPE    HB 7870   5.639   3.723   2.040
   85SOPE    C2 7871   5.495   3.778   2.196
   85SOPE    HS 7872   5.405   3.750   2.138
   85SOPE   O21 7873   5.474   3.892   2.273
   85SOPE   C21 7874   5.357   3.917   2.321
   85SOPE   O22 7875   5.247   3.863   2.294
   85SOPE   C22 7876   5.377   4.032   2.429
   85SOPE   H2R 7877   5.336   4.126   2.386
   85SOPE   H2S 7878   5.486   4.048   2.445
   85SOPE    C3 7879   5.553   3.670   2.291
   85SOPE    HX 7880   5.653   3.698   2.329
   85SOPE    HY 7881   5.577   3.579   2.232
   85SOPE   O31 7882   5.454   3.631   2.385
   85SOPE   C31 7883   5.510   3.575   2.496
   85SOPE   O32 7884   5.628   3.543   2.503
   85SOPE   C32 7885   5.412   3.546   2.605
   85SOPE   H2X 7886   5.445   3.450   2.651
   85SOPE   H2Y 7887   5.311   3.528   2.561
   85SOPE   C23 7888   5.297   4.008   2.560
   85SOPE   H3R 7889   5.358   3.938   2.621
   85SOPE   H3S 7890   5.204   3.955   2.531
   85SOPE   C24 7891   5.251   4.128   2.634
   85SOPE   H4R 7892   5.332   4.196   2.665
   85SOPE   H4S 7893   5.203   4.187   2.553
   85SOPE   C25 7894   5.148   4.113   2.746
   85SOPE   H5R 7895   5.057   4.063   2.708
   85SOPE   H5S 7896   5.203   4.051   2.820
   85SOPE   C26 7897   5.110   4.255   2.788
   85SOPE   H6R 7898   5.175   4.325   2.731
   85SOPE   H6S 7899   5.005   4.273   2.756
   85SOPE   C27 7900   5.137   4.282   2.939
   85SOPE   H7R 7901   5.081   4.370   2.977
   85SOPE   H7S 7902   5.084   4.204   2.999
   85SOPE   C28 7903   5.286   4.280   2.981
   85SOPE   H8R 7904   5.324   4.177   2.967
   85SOPE   H8S 7905   5.342   4.340   2.907
   85SOPE   C29 7906   5.314   4.325   3.124
   85SOPE   H91 7907   5.357   4.426   3.128
   85SOPE  C210 7908   5.296   4.264   3.236
   85SOPE  H101 7909   5.350   4.310   3.320
   85SOPE  C211 7910   5.244   4.128   3.258
   85SOPE  H11R 7911   5.216   4.072   3.166
   85SOPE  H11S 7912   5.149   4.141   3.315
   85SOPE  C212 7913   5.338   4.035   3.328
   85SOPE  H12R 7914   5.389   4.083   3.415
   85SOPE  H12S 7915   5.422   4.014   3.258
   85SOPE  C213 7916   5.269   3.905   3.377
   85SOPE  H13R 7917   5.214   3.871   3.286
   85SOPE  H13S 7918   5.191   3.931   3.451
   85SOPE  C214 7919   5.364   3.796   3.428
   85SOPE  H14R 7920   5.436   3.765   3.349
   85SOPE  H14S 7921   5.299   3.712   3.458
   85SOPE  C215 7922   5.442   3.845   3.554
   85SOPE  H15R 7923   5.486   3.944   3.530
   85SOPE  H15S 7924   5.531   3.783   3.582
   85SOPE  C216 7925   5.352   3.857   3.674
   85SOPE  H16R 7926   5.337   3.752   3.707
   85SOPE  H16S 7927   5.249   3.889   3.647
   85SOPE  C217 7928   5.409   3.936   3.781
   85SOPE  H17R 7929   5.430   4.038   3.744
   85SOPE  H17S 7930   5.502   3.879   3.803
   85SOPE  C218 7931   5.304   3.941   3.900
   85SOPE  H18R 7932   5.279   3.836   3.924
   85SOPE  H18S 7933   5.210   3.999   3.885
   85SOPE  H18T 7934   5.360   3.988   3.984
   85SOPE   C33 7935   5.397   3.646   2.722
   85SOPE   H3X 7936   5.323   3.596   2.788
   85SOPE   H3Y 7937   5.357   3.746   2.693
   85SOPE   C34 7938   5.529   3.657   2.802
   85SOPE   H4X 7939   5.607   3.699   2.734
   85SOPE   H4Y 7940   5.578   3.562   2.832
   85SOPE   C35 7941   5.522   3.737   2.933
   85SOPE   H5X 7942   5.451   3.691   3.006
   85SOPE   H5Y 7943   5.483   3.839   2.911
   85SOPE   C36 7944   5.661   3.750   2.994
   85SOPE   H6X 7945   5.711   3.801   2.909
   85SOPE   H6Y 7946   5.710   3.654   3.020
   85SOPE   C37 7947   5.663   3.845   3.112
   85SOPE   H7X 7948   5.590   3.818   3.190
   85SOPE   H7Y 7949   5.636   3.943   3.067
   85SOPE   C38 7950   5.799   3.844   3.183
   85SOPE   H8X 7951   5.881   3.872   3.113
   85SOPE   H8Y 7952   5.817   3.738   3.210
   85SOPE   C39 7953   5.789   3.933   3.313
   85SOPE   H9X 7954   5.860   3.894   3.389
   85SOPE   H9Y 7955   5.692   3.923   3.366
   85SOPE  C310 7956   5.812   4.080   3.293
   85SOPE  H10X 7957   5.763   4.106   3.197
   85SOPE  H10Y 7958   5.919   4.103   3.273
   85SOPE  C311 7959   5.753   4.169   3.408
   85SOPE  H11X 7960   5.643   4.187   3.407
   85SOPE  H11Y 7961   5.787   4.272   3.384
   85SOPE  C312 7962   5.798   4.117   3.549
   85SOPE  H12X 7963   5.908   4.132   3.556
   85SOPE  H12Y 7964   5.783   4.008   3.563
   85SOPE  C313 7965   5.757   4.204   3.668
   85SOPE  H13X 7966   5.649   4.191   3.693
   85SOPE  H13Y 7967   5.765   4.312   3.641
   85SOPE  C314 7968   5.837   4.170   3.799
   85SOPE  H14X 7969   5.821   4.262   3.860
   85SOPE  H14Y 7970   5.945   4.170   3.775
   85SOPE  C315 7971   5.814   4.032   3.853
   85SOPE  H15X 7972   5.859   3.943   3.804
   85SOPE  H15Y 7973   5.707   4.003   3.859
   85SOPE  C316 7974   5.869   4.020   3.995
   85SOPE  H16X 7975   5.827   4.104   4.054
   85SOPE  H16Y 7976   5.979   4.035   4.000
   85SOPE  C317 7977   5.855   3.882   4.048
   85SOPE  H17X 7978   5.932   3.855   4.125
   85SOPE  H17Y 7979   5.889   3.822   3.961
   85SOPE  C318 7980   5.711   3.860   4.084
   85SOPE  H18X 7981   5.698   3.913   4.181
   85SOPE  H18Y 7982   5.715   3.755   4.120
   85SOPE  H18Z 7983   5.632   3.878   4.008
   86SOPE     N 7984   5.358   0.810   2.243
   86SOPE   HN1 7985   5.261   0.777   2.257
   86SOPE   HN2 7986   5.380   0.841   2.147
   86SOPE   HN3 7987   5.421   0.727   2.254
   86SOPE   C12 7988   5.407   0.912   2.350
   86SOPE  H12A 7989   5.374   0.867   2.446
   86SOPE  H12B 7990   5.349   1.001   2.320
   86SOPE   C11 7991   5.565   0.922   2.355
   86SOPE  H11A 7992   5.585   1.006   2.426
   86SOPE  H11B 7993   5.601   0.962   2.258
   86SOPE     P 7994   5.763   0.805   2.474
   86SOPE   O13 7995   5.771   0.932   2.549
   86SOPE   O14 7996   5.868   0.795   2.373
   86SOPE   O12 7997   5.628   0.792   2.393
   86SOPE   O11 7998   5.765   0.683   2.590
   86SOPE    C1 7999   5.643   0.632   2.653
   86SOPE    HA 8000   5.664   0.550   2.725
   86SOPE    HB 8001   5.582   0.589   2.571
   86SOPE    C2 8002   5.567   0.744   2.733
   86SOPE    HS 8003   5.558   0.822   2.655
   86SOPE   O21 8004   5.642   0.790   2.844
   86SOPE   C21 8005   5.593   0.899   2.909
   86SOPE   O22 8006   5.494   0.963   2.873
   86SOPE   C22 8007   5.677   0.940   3.026
   86SOPE   H2R 8008   5.654   1.044   3.058
   86SOPE   H2S 8009   5.782   0.943   2.992
   86SOPE    C3 8010   5.432   0.693   2.780
   86SOPE    HX 8011   5.380   0.640   2.697
   86SOPE    HY 8012   5.367   0.780   2.803
   86SOPE   O31 8013   5.440   0.614   2.903
   86SOPE   C31 8014   5.438   0.483   2.884
   86SOPE   O32 8015   5.463   0.430   2.776
   86SOPE   C32 8016   5.413   0.402   3.008
   86SOPE   H2X 8017   5.403   0.293   2.990
   86SOPE   H2Y 8018   5.323   0.450   3.052
   86SOPE   C23 8019   5.650   0.848   3.148
   86SOPE   H3R 8020   5.690   0.750   3.115
   86SOPE   H3S 8021   5.542   0.828   3.163
   86SOPE   C24 8022   5.704   0.911   3.277
   86SOPE   H4R 8023   5.809   0.935   3.249
   86SOPE   H4S 8024   5.645   1.003   3.294
   86SOPE   C25 8025   5.699   0.812   3.396
   86SOPE   H5R 8026   5.593   0.782   3.404
   86SOPE   H5S 8027   5.762   0.723   3.374
   86SOPE   C26 8028   5.741   0.884   3.524
   86SOPE   H6R 8029   5.843   0.925   3.506
   86SOPE   H6S 8030   5.662   0.961   3.539
   86SOPE   C27 8031   5.744   0.782   3.640
   86SOPE   H7R 8032   5.640   0.757   3.670
   86SOPE   H7S 8033   5.797   0.692   3.601
   86SOPE   C28 8034   5.812   0.834   3.764
   86SOPE   H8R 8035   5.762   0.931   3.784
   86SOPE   H8S 8036   5.785   0.771   3.851
   86SOPE   C29 8037   5.961   0.844   3.754
   86SOPE   H91 8038   6.013   0.848   3.657
   86SOPE  C210 8039   6.042   0.839   3.862
   86SOPE  H101 8040   6.151   0.827   3.851
   86SOPE  C211 8041   5.994   0.842   4.005
   86SOPE  H11R 8042   6.017   0.740   4.043
   86SOPE  H11S 8043   5.885   0.853   4.020
   86SOPE  C212 8044   6.063   0.950   4.085
   86SOPE  H12R 8045   6.017   1.047   4.056
   86SOPE  H12S 8046   6.173   0.946   4.066
   86SOPE  C213 8047   6.044   0.935   4.239
   86SOPE  H13R 8048   5.935   0.934   4.258
   86SOPE  H13S 8049   6.098   1.024   4.279
   86SOPE  C214 8050   6.109   0.819   4.322
   86SOPE  H14R 8051   6.220   0.827   4.312
   86SOPE  H14S 8052   6.076   0.733   4.260
   86SOPE  C215 8053   6.076   0.831   4.470
   86SOPE  H15R 8054   5.970   0.798   4.479
   86SOPE  H15S 8055   6.079   0.934   4.511
   86SOPE  C216 8056   6.164   0.742   4.549
   86SOPE  H16R 8057   6.260   0.797   4.560
   86SOPE  H16S 8058   6.180   0.653   4.485
   86SOPE  C217 8059   6.097   0.678   4.680
   86SOPE  H17R 8060   5.990   0.650   4.668
   86SOPE  H17S 8061   6.092   0.755   4.761
   86SOPE  C218 8062   6.170   0.554   4.738
   86SOPE  H18R 8063   6.278   0.578   4.751
   86SOPE  H18S 8064   6.143   0.471   4.669
   86SOPE  H18T 8065   6.137   0.540   4.842
   86SOPE   C33 8066   5.532   0.432   3.102
   86SOPE   H3X 8067   5.547   0.542   3.110
   86SOPE   H3Y 8068   5.626   0.393   3.057
   86SOPE   C34 8069   5.497   0.366   3.238
   86SOPE   H4X 8070   5.492   0.257   3.218
   86SOPE   H4Y 8071   5.397   0.406   3.268
   86SOPE   C35 8072   5.592   0.384   3.356
   86SOPE   H5X 8073   5.614   0.493   3.352
   86SOPE   H5Y 8074   5.685   0.327   3.339
   86SOPE   C36 8075   5.542   0.341   3.494
   86SOPE   H6X 8076   5.456   0.406   3.522
   86SOPE   H6Y 8077   5.612   0.358   3.578
   86SOPE   C37 8078   5.486   0.199   3.499
   86SOPE   H7X 8079   5.545   0.124   3.442
   86SOPE   H7Y 8080   5.386   0.204   3.452
   86SOPE   C38 8081   5.469   0.148   3.643
   86SOPE   H8X 8082   5.400   0.220   3.692
   86SOPE   H8Y 8083   5.568   0.145   3.693
   86SOPE   C39 8084   5.426   6.852   3.654
   86SOPE   H9X 8085   5.517   6.788   3.647
   86SOPE   H9Y 8086   5.353   6.822   3.576
   86SOPE  C310 8087   5.386   6.809   3.795
   86SOPE  H10X 8088   5.377   6.699   3.796
   86SOPE  H10Y 8089   5.282   6.844   3.814
   86SOPE  C311 8090   5.477   6.844   3.916
   86SOPE  H11X 8091   5.463   0.099   3.933
   86SOPE  H11Y 8092   5.586   6.833   3.901
   86SOPE  C312 8093   5.424   6.761   4.033
   86SOPE  H12X 8094   5.449   6.652   4.027
   86SOPE  H12Y 8095   5.315   6.746   4.044
   86SOPE  C313 8096   5.493   6.796   4.164
   86SOPE  H13X 8097   5.496   0.052   4.181
   86SOPE  H13Y 8098   5.598   6.759   4.170
   86SOPE  C314 8099   5.425   6.737   4.288
   86SOPE  H14X 8100   5.445   6.629   4.272
   86SOPE  H14Y 8101   5.315   6.748   4.295
   86SOPE  C315 8102   5.492   6.793   4.413
   86SOPE  H15X 8103   5.482   0.049   4.426
   86SOPE  H15Y 8104   5.601   6.770   4.414
   86SOPE  C316 8105   5.416   6.740   4.540
   86SOPE  H16X 8106   5.415   6.630   4.523
   86SOPE  H16Y 8107   5.312   6.778   4.541
   86SOPE  C317 8108   5.499   6.764   4.666
   86SOPE  H17X 8109   5.526   0.017   4.671
   86SOPE  H17Y 8110   5.601   6.719   4.663
   86SOPE  C318 8111   5.433   6.722   4.804
   86SOPE  H18X 8112   5.413   6.613   4.801
   86SOPE  H18Y 8113   5.327   6.758   4.809
   86SOPE  H18Z 8114   5.488   6.758   4.893
   87SOPE     N 8115   6.446   0.367   1.828
   87SOPE   HN1 8116   6.451   0.348   1.726
   87SOPE   HN2 8117   6.354   0.410   1.852
   87SOPE   HN3 8118   6.521   0.437   1.845
   87SOPE   C12 8119   6.460   0.249   1.921
   87SOPE  H12A 8120   6.564   0.215   1.943
   87SOPE  H12B 8121   6.405   0.161   1.880
   87SOPE   C11 8122   6.401   0.287   2.054
   87SOPE  H11A 8123   6.389   0.204   2.125
   87SOPE  H11B 8124   6.304   0.337   2.029
   87SOPE     P 8125   6.479   0.440   2.241
   87SOPE   O13 8126   6.334   0.439   2.282
   87SOPE   O14 8127   6.552   0.568   2.238
   87SOPE   O12 8128   6.489   0.386   2.096
   87SOPE   O11 8129   6.553   0.348   2.340
   87SOPE    C1 8130   6.492   0.225   2.377
   87SOPE    HA 8131   6.493   0.151   2.294
   87SOPE    HB 8132   6.389   0.241   2.414
   87SOPE    C2 8133   6.557   0.170   2.499
   87SOPE    HS 8134   6.529   0.063   2.506
   87SOPE   O21 8135   6.502   0.239   2.613
   87SOPE   C21 8136   6.492   0.168   2.727
   87SOPE   O22 8137   6.509   0.050   2.732
   87SOPE   C22 8138   6.463   0.270   2.832
   87SOPE   H2R 8139   6.374   0.332   2.809
   87SOPE   H2S 8140   6.546   0.344   2.840
   87SOPE    C3 8141   6.718   0.178   2.490
   87SOPE    HX 8142   6.748   0.280   2.455
   87SOPE    HY 8143   6.742   0.112   2.404
   87SOPE   O31 8144   6.788   0.129   2.610
   87SOPE   C31 8145   6.777   6.853   2.635
   87SOPE   O32 8146   6.721   6.772   2.567
   87SOPE   C32 8147   6.852   6.821   2.763
   87SOPE   H2X 8148   0.005   0.058   2.825
   87SOPE   H2Y 8149   0.101   6.789   2.737
   87SOPE   C23 8150   6.429   0.212   2.971
   87SOPE   H3R 8151   6.496   0.127   2.993
   87SOPE   H3S 8152   6.324   0.176   2.970
   87SOPE   C24 8153   6.436   0.331   3.076
   87SOPE   H4R 8154   6.502   0.416   3.047
   87SOPE   H4S 8155   6.339   0.381   3.098
   87SOPE   C25 8156   6.481   0.290   3.216
   87SOPE   H5R 8157   6.403   0.237   3.274
   87SOPE   H5S 8158   6.575   0.230   3.213
   87SOPE   C26 8159   6.511   0.410   3.311
   87SOPE   H6R 8160   6.589   0.475   3.267
   87SOPE   H6S 8161   6.425   0.472   3.343
   87SOPE   C27 8162   6.581   0.362   3.443
   87SOPE   H7R 8163   6.511   0.308   3.511
   87SOPE   H7S 8164   6.668   0.300   3.412
   87SOPE   C28 8165   6.626   0.490   3.517
   87SOPE   H8R 8166   6.681   0.563   3.453
   87SOPE   H8S 8167   6.532   0.546   3.530
   87SOPE   C29 8168   6.696   0.467   3.645
   87SOPE   H91 8169   6.805   0.462   3.633
   87SOPE  C210 8170   6.635   0.461   3.765
   87SOPE  H101 8171   6.691   0.460   3.859
   87SOPE  C211 8172   6.485   0.482   3.789
   87SOPE  H11R 8173   6.450   0.402   3.858
   87SOPE  H11S 8174   6.416   0.457   3.706
   87SOPE  C212 8175   6.442   0.616   3.843
   87SOPE  H12R 8176   6.335   0.611   3.874
   87SOPE  H12S 8177   6.457   0.699   3.771
   87SOPE  C213 8178   6.504   0.649   3.984
   87SOPE  H13R 8179   6.467   0.748   4.019
   87SOPE  H13S 8180   6.614   0.659   3.975
   87SOPE  C214 8181   6.490   0.550   4.097
   87SOPE  H14R 8182   6.553   0.573   4.186
   87SOPE  H14S 8183   6.523   0.451   4.058
   87SOPE  C215 8184   6.351   0.532   4.164
   87SOPE  H15R 8185   6.275   0.493   4.092
   87SOPE  H15S 8186   6.326   0.637   4.191
   87SOPE  C216 8187   6.351   0.442   4.286
   87SOPE  H16R 8188   6.387   0.507   4.368
   87SOPE  H16S 8189   6.425   0.363   4.262
   87SOPE  C217 8190   6.212   0.384   4.315
   87SOPE  H17R 8191   6.135   0.463   4.323
   87SOPE  H17S 8192   6.230   0.330   4.410
   87SOPE  C218 8193   6.165   0.290   4.206
   87SOPE  H18R 8194   6.121   0.342   4.119
   87SOPE  H18S 8195   6.066   0.253   4.240
   87SOPE  H18T 8196   6.235   0.209   4.178
   87SOPE   C33 8197   6.780   6.708   2.847
   87SOPE   H3X 8198   6.793   6.616   2.787
   87SOPE   H3Y 8199   6.676   6.747   2.852
   87SOPE   C34 8200   6.837   6.683   2.991
   87SOPE   H4X 8201   0.092   6.670   2.982
   87SOPE   H4Y 8202   6.803   6.581   3.018
   87SOPE   C35 8203   6.791   6.790   3.091
   87SOPE   H5X 8204   6.681   6.804   3.083
   87SOPE   H5Y 8205   6.840   0.032   3.069
   87SOPE   C36 8206   6.831   6.754   3.231
   87SOPE   H6X 8207   0.086   6.742   3.247
   87SOPE   H6Y 8208   6.774   6.662   3.256
   87SOPE   C37 8209   6.797   0.008   3.333
   87SOPE   H7X 8210   6.694   0.050   3.325
   87SOPE   H7Y 8211   0.011   0.094   3.315
   87SOPE   C38 8212   6.812   6.811   3.475
   87SOPE   H8X 8213   0.067   6.795   3.490
   87SOPE   H8Y 8214   6.756   6.716   3.491
   87SOPE   C39 8215   6.752   0.053   3.581
   87SOPE   H9X 8216   6.648   0.089   3.569
   87SOPE   H9Y 8217   6.822   0.139   3.584
   87SOPE  C310 8218   6.752   6.843   3.720
   87SOPE  H10X 8219   0.001   6.814   3.750
   87SOPE  H10Y 8220   6.704   6.744   3.702
   87SOPE  C311 8221   6.688   0.079   3.819
   87SOPE  H11X 8222   6.578   0.071   3.802
   87SOPE  H11Y 8223   6.731   0.181   3.810
   87SOPE  C312 8224   6.708   0.037   3.962
   87SOPE  H12X 8225   6.807   0.084   3.985
   87SOPE  H12Y 8226   6.715   6.780   3.961
   87SOPE  C313 8227   6.607   0.094   4.059
   87SOPE  H13X 8228   6.512   0.038   4.048
   87SOPE  H13Y 8229   6.586   0.202   4.039
   87SOPE  C314 8230   6.654   0.094   4.207
   87SOPE  H14X 8231   6.568   0.118   4.274
   87SOPE  H14Y 8232   6.728   0.177   4.211
   87SOPE  C315 8233   6.735   6.829   4.254
   87SOPE  H15X 8234   6.829   6.828   4.196
   87SOPE  H15Y 8235   6.679   6.736   4.233
   87SOPE  C316 8236   6.785   6.825   4.397
   87SOPE  H16X 8237   6.700   6.829   4.468
   87SOPE  H16Y 8238   6.839   0.065   4.421
   87SOPE  C317 8239   0.007   6.701   4.439
   87SOPE  H17X 8240   0.106   6.712   4.390
   87SOPE  H17Y 8241   6.811   6.608   4.406
   87SOPE  C318 8242   0.031   6.679   4.589
   87SOPE  H18X 8243   0.084   6.767   4.632
   87SOPE  H18Y 8244   0.088   6.587   4.611
   87SOPE  H18Z 8245   6.786   6.677   4.639
   88SOPE     N 8246   1.130   5.263   2.201
   88SOPE   HN1 8247   1.072   5.339   2.159
   88SOPE   HN2 8248   1.192   5.236   2.122
   88SOPE   HN3 8249   1.062   5.187   2.218
   88SOPE   C12 8250   1.184   5.303   2.335
   88SOPE  H12A 8251   1.276   5.242   2.350
   88SOPE  H12B 8252   1.108   5.260   2.403
   88SOPE   C11 8253   1.190   5.459   2.355
   88SOPE  H11A 8254   1.252   5.500   2.272
   88SOPE  H11B 8255   1.231   5.481   2.456
   88SOPE     P 8256   1.022   5.638   2.263
   88SOPE   O13 8257   0.891   5.703   2.292
   88SOPE   O14 8258   1.048   5.611   2.120
   88SOPE   O12 8259   1.055   5.511   2.347
   88SOPE   O11 8260   1.141   5.735   2.309
   88SOPE    C1 8261   1.123   5.815   2.421
   88SOPE    HA 8262   1.018   5.843   2.448
   88SOPE    HB 8263   1.160   5.917   2.396
   88SOPE    C2 8264   1.204   5.768   2.547
   88SOPE    HS 8265   1.183   5.660   2.561
   88SOPE   O21 8266   1.168   5.838   2.661
   88SOPE   C21 8267   1.062   5.787   2.720
   88SOPE   O22 8268   0.997   5.690   2.680
   88SOPE   C22 8269   1.016   5.873   2.845
   88SOPE   H2R 8270   0.945   5.951   2.811
   88SOPE   H2S 8271   1.108   5.920   2.887
   88SOPE    C3 8272   1.353   5.784   2.519
   88SOPE    HX 8273   1.365   5.884   2.473
   88SOPE    HY 8274   1.375   5.708   2.440
   88SOPE   O31 8275   1.439   5.772   2.637
   88SOPE   C31 8276   1.459   5.656   2.694
   88SOPE   O32 8277   1.405   5.554   2.656
   88SOPE   C32 8278   1.560   5.665   2.798
   88SOPE   H2X 8279   1.629   5.750   2.778
   88SOPE   H2Y 8280   1.612   5.567   2.791
   88SOPE   C23 8281   0.949   5.790   2.957
   88SOPE   H3R 8282   1.020   5.710   2.988
   88SOPE   H3S 8283   0.860   5.740   2.914
   88SOPE   C24 8284   0.900   5.882   3.076
   88SOPE   H4R 8285   0.993   5.923   3.121
   88SOPE   H4S 8286   0.835   5.964   3.040
   88SOPE   C25 8287   0.826   5.795   3.173
   88SOPE   H5R 8288   0.734   5.761   3.121
   88SOPE   H5S 8289   0.885   5.709   3.213
   88SOPE   C26 8290   0.783   5.886   3.287
   88SOPE   H6R 8291   0.874   5.928   3.334
   88SOPE   H6S 8292   0.734   5.978   3.251
   88SOPE   C27 8293   0.710   5.812   3.406
   88SOPE   H7R 8294   0.623   5.756   3.366
   88SOPE   H7S 8295   0.775   5.726   3.435
   88SOPE   C28 8296   0.667   5.904   3.521
   88SOPE   H8R 8297   0.753   5.962   3.561
   88SOPE   H8S 8298   0.592   5.975   3.480
   88SOPE   C29 8299   0.594   5.821   3.630
   88SOPE   H91 8300   0.513   5.754   3.596
   88SOPE  C210 8301   0.648   5.807   3.751
   88SOPE  H101 8302   0.595   5.752   3.829
   88SOPE  C211 8303   0.765   5.884   3.796
   88SOPE  H11R 8304   0.763   5.989   3.761
   88SOPE  H11S 8305   0.861   5.841   3.760
   88SOPE  C212 8306   0.775   5.888   3.950
   88SOPE  H12R 8307   0.774   5.792   4.006
   88SOPE  H12S 8308   0.689   5.947   3.988
   88SOPE  C213 8309   0.905   5.958   3.992
   88SOPE  H13R 8310   0.918   6.051   3.933
   88SOPE  H13S 8311   0.995   5.895   3.970
   88SOPE  C214 8312   0.913   5.987   4.142
   88SOPE  H14R 8313   0.912   5.888   4.193
   88SOPE  H14S 8314   0.817   6.038   4.167
   88SOPE  C215 8315   1.031   6.076   4.187
   88SOPE  H15R 8316   1.039   6.164   4.119
   88SOPE  H15S 8317   1.129   6.026   4.171
   88SOPE  C216 8318   1.024   6.105   4.341
   88SOPE  H16R 8319   1.011   6.007   4.392
   88SOPE  H16S 8320   0.925   6.152   4.361
   88SOPE  C217 8321   1.142   6.183   4.385
   88SOPE  H17R 8322   1.221   6.106   4.370
   88SOPE  H17S 8323   1.131   6.187   4.496
   88SOPE  C218 8324   1.176   6.319   4.330
   88SOPE  H18R 8325   1.169   6.323   4.219
   88SOPE  H18S 8326   1.278   6.351   4.361
   88SOPE  H18T 8327   1.106   6.401   4.356
   88SOPE   C33 8328   1.508   5.671   2.944
   88SOPE   H3X 8329   1.592   5.642   3.011
   88SOPE   H3Y 8330   1.424   5.601   2.964
   88SOPE   C34 8331   1.460   5.810   2.984
   88SOPE   H4X 8332   1.373   5.847   2.926
   88SOPE   H4Y 8333   1.545   5.881   2.970
   88SOPE   C35 8334   1.419   5.830   3.127
   88SOPE   H5X 8335   1.403   5.937   3.152
   88SOPE   H5Y 8336   1.500   5.795   3.194
   88SOPE   C36 8337   1.278   5.768   3.172
   88SOPE   H6X 8338   1.283   5.658   3.156
   88SOPE   H6Y 8339   1.191   5.810   3.118
   88SOPE   C37 8340   1.246   5.780   3.322
   88SOPE   H7X 8341   1.331   5.722   3.363
   88SOPE   H7Y 8342   1.147   5.732   3.337
   88SOPE   C38 8343   1.244   5.922   3.384
   88SOPE   H8X 8344   1.194   5.970   3.297
   88SOPE   H8Y 8345   1.345   5.966   3.391
   88SOPE   C39 8346   1.169   5.928   3.518
   88SOPE   H9X 8347   1.068   5.882   3.508
   88SOPE   H9Y 8348   1.160   6.038   3.536
   88SOPE  C310 8349   1.248   5.859   3.620
   88SOPE  H10X 8350   1.356   5.845   3.597
   88SOPE  H10Y 8351   1.196   5.763   3.639
   88SOPE  C311 8352   1.244   5.928   3.759
   88SOPE  H11X 8353   1.140   5.916   3.797
   88SOPE  H11Y 8354   1.261   6.038   3.750
   88SOPE  C312 8355   1.356   5.881   3.853
   88SOPE  H12X 8356   1.456   5.918   3.819
   88SOPE  H12Y 8357   1.361   5.770   3.851
   88SOPE  C313 8358   1.319   5.919   4.000
   88SOPE  H13X 8359   1.217   5.883   4.024
   88SOPE  H13Y 8360   1.315   6.029   4.014
   88SOPE  C314 8361   1.427   5.871   4.104
   88SOPE  H14X 8362   1.532   5.901   4.083
   88SOPE  H14Y 8363   1.422   5.760   4.095
   88SOPE  C315 8364   1.396   5.886   4.253
   88SOPE  H15X 8365   1.303   5.831   4.278
   88SOPE  H15Y 8366   1.374   5.994   4.271
   88SOPE  C316 8367   1.523   5.851   4.337
   88SOPE  H16X 8368   1.610   5.909   4.299
   88SOPE  H16Y 8369   1.535   5.741   4.348
   88SOPE  C317 8370   1.499   5.886   4.489
   88SOPE  H17X 8371   1.481   5.996   4.491
   88SOPE  H17Y 8372   1.600   5.872   4.533
   88SOPE  C318 8373   1.390   5.806   4.562
   88SOPE  H18X 8374   1.375   5.835   4.669
   88SOPE  H18Y 8375   1.419   5.699   4.567
   88SOPE  H18Z 8376   1.295   5.821   4.506
   89SAPC     N 8377   5.279   2.731   6.900
   89SAPC   C12 8378   5.348   2.781   6.776
   89SAPC  H12A 8379   5.295   2.758   6.685
   89SAPC  H12B 8380   5.442   2.728   6.766
   89SAPC   C13 8381   5.372   2.728   7.018
   89SAPC  H13A 8382   5.428   2.635   7.027
   89SAPC  H13B 8383   5.449   2.803   7.017
   89SAPC  H13C 8384   5.316   2.732   7.111
   89SAPC   C14 8385   5.162   2.813   6.943
   89SAPC  H14A 8386   5.160   2.806   7.050
   89SAPC  H14B 8387   5.173   2.919   6.926
   89SAPC  H14C 8388   5.066   2.769   6.920
   89SAPC   C15 8389   5.235   2.587   6.880
   89SAPC  H15A 8390   5.150   2.596   6.815
   89SAPC  H15B 8391   5.319   2.532   6.840
   89SAPC  H15C 8392   5.206   2.530   6.967
   89SAPC   C11 8393   5.398   2.931   6.784
   89SAPC  H11A 8394   5.460   2.945   6.693
   89SAPC  H11B 8395   5.463   2.940   6.873
   89SAPC     P 8396   5.218   3.072   6.661
   89SAPC   O13 8397   5.125   2.970   6.618
   89SAPC   O14 8398   5.156   3.197   6.700
   89SAPC   O12 8399   5.302   3.028   6.789
   89SAPC   O11 8400   5.333   3.088   6.550
   89SAPC    C1 8401   5.340   3.215   6.486
   89SAPC    HA 8402   5.324   3.299   6.556
   89SAPC    HB 8403   5.442   3.226   6.442
   89SAPC    C2 8404   5.237   3.222   6.366
   89SAPC    HS 8405   5.133   3.217   6.406
   89SAPC   O21 8406   5.274   3.114   6.278
   89SAPC   C21 8407   5.175   3.060   6.211
   89SAPC   O22 8408   5.057   3.100   6.216
   89SAPC   C22 8409   5.224   2.947   6.118
   89SAPC   H2R 8410   5.334   2.961   6.107
   89SAPC   H2S 8411   5.209   2.853   6.175
   89SAPC    C3 8412   5.259   3.365   6.292
   89SAPC    HX 8413   5.367   3.379   6.272
   89SAPC    HY 8414   5.229   3.436   6.372
   89SAPC   O31 8415   5.195   3.381   6.165
   89SAPC   C31 8416   5.066   3.424   6.165
   89SAPC   O32 8417   5.007   3.455   6.266
   89SAPC   C32 8418   5.003   3.397   6.025
   89SAPC   H2X 8419   5.076   3.344   5.961
   89SAPC   H2Y 8420   4.982   3.487   5.963
   89SAPC   C23 8421   5.138   2.943   5.992
   89SAPC   H3R 8422   5.129   3.039   5.937
   89SAPC   H3S 8423   5.034   2.913   6.019
   89SAPC   C24 8424   5.196   2.840   5.900
   89SAPC   H4R 8425   5.133   2.824   5.810
   89SAPC   H4S 8426   5.193   2.740   5.949
   89SAPC   C25 8427   5.336   2.868   5.845
   89SAPC   H5R 8428   5.414   2.856   5.922
   89SAPC   C26 8429   5.377   2.913   5.723
   89SAPC   H6R 8430   5.485   2.922   5.705
   89SAPC   C27 8431   5.292   2.955   5.603
   89SAPC   H7R 8432   5.199   2.895   5.617
   89SAPC   H7S 8433   5.347   2.914   5.515
   89SAPC   C28 8434   5.250   3.098   5.597
   89SAPC   H8R 8435   5.259   3.156   5.690
   89SAPC   C29 8436   5.212   3.169   5.487
   89SAPC   H9R 8437   5.198   3.276   5.507
   89SAPC  C210 8438   5.207   3.112   5.348
   89SAPC  H10R 8439   5.217   3.001   5.347
   89SAPC  H10S 8440   5.287   3.155   5.284
   89SAPC  C211 8441   5.076   3.146   5.279
   89SAPC  H11R 8442   4.994   3.087   5.322
   89SAPC  C212 8443   5.060   3.254   5.201
   89SAPC  H12R 8444   4.960   3.275   5.161
   89SAPC  C213 8445   5.169   3.353   5.155
   89SAPC  H13R 8446   5.230   3.388   5.241
   89SAPC  H13S 8447   5.127   3.439   5.098
   89SAPC  C214 8448   5.258   3.287   5.054
   89SAPC  H14R 8449   5.352   3.252   5.099
   89SAPC  C215 8450   5.240   3.282   4.920
   89SAPC  H15R 8451   5.312   3.218   4.865
   89SAPC  C216 8452   5.124   3.325   4.838
   89SAPC  H16R 8453   5.044   3.379   4.892
   89SAPC  H16S 8454   5.070   3.241   4.790
   89SAPC  C217 8455   5.171   3.410   4.721
   89SAPC  H17R 8456   5.239   3.488   4.763
   89SAPC  H17S 8457   5.083   3.465   4.684
   89SAPC  C218 8458   5.241   3.323   4.614
   89SAPC  H18R 8459   5.170   3.239   4.599
   89SAPC  H18S 8460   5.338   3.283   4.651
   89SAPC  C219 8461   5.267   3.400   4.482
   89SAPC  H19R 8462   5.314   3.325   4.414
   89SAPC  H19S 8463   5.333   3.488   4.491
   89SAPC  C220 8464   5.140   3.439   4.410
   89SAPC  H20R 8465   5.173   3.500   4.324
   89SAPC  H20S 8466   5.063   3.486   4.475
   89SAPC  H20T 8467   5.088   3.347   4.376
   89SAPC   C33 8468   4.866   3.315   6.045
   89SAPC   H3X 8469   4.803   3.333   6.135
   89SAPC   H3Y 8470   4.891   3.208   6.060
   89SAPC   C34 8471   4.779   3.328   5.914
   89SAPC   H4X 8472   4.846   3.313   5.826
   89SAPC   H4Y 8473   4.736   3.430   5.914
   89SAPC   C35 8474   4.665   3.226   5.907
   89SAPC   H5X 8475   4.612   3.221   6.005
   89SAPC   H5Y 8476   4.711   3.125   5.898
   89SAPC   C36 8477   4.576   3.261   5.789
   89SAPC   H6X 8478   4.576   3.372   5.783
   89SAPC   H6Y 8479   4.472   3.221   5.790
   89SAPC   C37 8480   4.638   3.210   5.661
   89SAPC   H7X 8481   4.610   3.105   5.641
   89SAPC   H7Y 8482   4.749   3.221   5.664
   89SAPC   C38 8483   4.594   3.290   5.534
   89SAPC   H8X 8484   4.639   3.391   5.539
   89SAPC   H8Y 8485   4.483   3.290   5.525
   89SAPC   C39 8486   4.666   3.234   5.408
   89SAPC   H9X 8487   4.603   3.147   5.376
   89SAPC   H9Y 8488   4.772   3.210   5.426
   89SAPC  C310 8489   4.668   3.327   5.287
   89SAPC  H10X 8490   4.716   3.278   5.200
   89SAPC  H10Y 8491   4.731   3.410   5.325
   89SAPC  C311 8492   4.534   3.392   5.237
   89SAPC  H11X 8493   4.491   3.454   5.319
   89SAPC  H11Y 8494   4.458   3.312   5.222
   89SAPC  C312 8495   4.552   3.472   5.108
   89SAPC  H12X 8496   4.642   3.536   5.120
   89SAPC  H12Y 8497   4.470   3.539   5.075
   89SAPC  C313 8498   4.566   3.387   4.974
   89SAPC  H13X 8499   4.486   3.309   4.980
   89SAPC  H13Y 8500   4.657   3.323   4.976
   89SAPC  C314 8501   4.537   3.474   4.846
   89SAPC  H14X 8502   4.593   3.569   4.859
   89SAPC  H14Y 8503   4.433   3.511   4.843
   89SAPC  C315 8504   4.584   3.406   4.719
   89SAPC  H15X 8505   4.543   3.457   4.629
   89SAPC  H15Y 8506   4.550   3.300   4.716
   89SAPC  C316 8507   4.741   3.393   4.708
   89SAPC  H16X 8508   4.779   3.318   4.780
   89SAPC  H16Y 8509   4.796   3.486   4.735
   89SAPC  C317 8510   4.800   3.339   4.581
   89SAPC  H17X 8511   4.907   3.311   4.595
   89SAPC  H17Y 8512   4.800   3.421   4.507
   89SAPC  C318 8513   4.735   3.215   4.526
   89SAPC  H18X 8514   4.625   3.230   4.529
   89SAPC  H18Y 8515   4.756   3.119   4.578
   89SAPC  H18Z 8516   4.751   3.203   4.417
   90SAPC     N 8517   3.143   6.437   6.803
   90SAPC   C12 8518   3.293   6.436   6.815
   90SAPC  H12A 8519   3.317   6.538   6.843
   90SAPC  H12B 8520   3.334   6.410   6.718
   90SAPC   C13 8521   3.079   6.474   6.940
   90SAPC  H13A 8522   3.101   6.386   6.998
   90SAPC  H13B 8523   3.132   6.554   6.989
   90SAPC  H13C 8524   2.975   6.503   6.932
   90SAPC   C14 8525   3.105   6.536   6.695
   90SAPC  H14A 8526   3.158   6.519   6.602
   90SAPC  H14B 8527   3.002   6.526   6.665
   90SAPC  H14C 8528   3.136   6.634   6.728
   90SAPC   C15 8529   3.094   6.306   6.758
   90SAPC  H15A 8530   3.141   6.268   6.669
   90SAPC  H15B 8531   3.137   6.231   6.823
   90SAPC  H15C 8532   2.988   6.307   6.735
   90SAPC   C11 8533   3.352   6.336   6.917
   90SAPC  H11A 8534   3.289   6.333   7.008
   90SAPC  H11B 8535   3.451   6.378   6.946
   90SAPC     P 8536   3.367   6.073   6.930
   90SAPC   O13 8537   3.478   6.070   7.024
   90SAPC   O14 8538   3.231   6.057   6.990
   90SAPC   O12 8539   3.363   6.206   6.853
   90SAPC   O11 8540   3.380   5.956   6.826
   90SAPC    C1 8541   3.458   5.969   6.703
   90SAPC    HA 8542   3.548   6.029   6.732
   90SAPC    HB 8543   3.478   5.867   6.664
   90SAPC    C2 8544   3.395   6.056   6.583
   90SAPC    HS 8545   3.402   6.165   6.605
   90SAPC   O21 8546   3.254   6.017   6.568
   90SAPC   C21 8547   3.187   6.092   6.485
   90SAPC   O22 8548   3.223   6.198   6.434
   90SAPC   C22 8549   3.052   6.043   6.456
   90SAPC   H2R 8550   3.003   6.020   6.553
   90SAPC   H2S 8551   2.984   6.109   6.398
   90SAPC    C3 8552   3.485   6.037   6.454
   90SAPC    HX 8553   3.585   6.067   6.494
   90SAPC    HY 8554   3.445   6.100   6.372
   90SAPC   O31 8555   3.479   5.901   6.422
   90SAPC   C31 8556   3.553   5.878   6.310
   90SAPC   O32 8557   3.616   5.964   6.252
   90SAPC   C32 8558   3.566   5.728   6.278
   90SAPC   H2X 8559   3.465   5.688   6.255
   90SAPC   H2Y 8560   3.592   5.682   6.376
   90SAPC   C23 8561   3.052   5.897   6.398
   90SAPC   H3R 8562   2.948   5.861   6.391
   90SAPC   H3S 8563   3.104   5.829   6.469
   90SAPC   C24 8564   3.129   5.882   6.268
   90SAPC   H4R 8565   3.112   5.776   6.242
   90SAPC   H4S 8566   3.235   5.909   6.285
   90SAPC   C25 8567   3.066   5.964   6.154
   90SAPC   H5R 8568   2.960   5.991   6.163
   90SAPC   C26 8569   3.120   5.986   6.037
   90SAPC   H6R 8570   3.060   6.029   5.954
   90SAPC   C27 8571   3.261   5.944   5.998
   90SAPC   H7R 8572   3.261   5.859   5.927
   90SAPC   H7S 8573   3.327   5.907   6.080
   90SAPC   C28 8574   3.353   6.054   5.942
   90SAPC   H8R 8575   3.365   6.139   6.010
   90SAPC   C29 8576   3.433   6.064   5.834
   90SAPC   H9R 8577   3.481   6.163   5.825
   90SAPC  C210 8578   3.450   5.966   5.722
   90SAPC  H10R 8579   3.456   6.023   5.626
   90SAPC  H10S 8580   3.356   5.912   5.698
   90SAPC  C211 8581   3.571   5.882   5.742
   90SAPC  H11R 8582   3.614   5.879   5.843
   90SAPC  C212 8583   3.629   5.811   5.649
   90SAPC  H12R 8584   3.720   5.751   5.667
   90SAPC  C213 8585   3.579   5.798   5.506
   90SAPC  H13R 8586   3.482   5.851   5.490
   90SAPC  H13S 8587   3.567   5.689   5.488
   90SAPC  C214 8588   3.674   5.856   5.406
   90SAPC  H14R 8589   3.754   5.929   5.429
   90SAPC  C215 8590   3.670   5.838   5.271
   90SAPC  H15R 8591   3.730   5.905   5.208
   90SAPC  C216 8592   3.562   5.746   5.212
   90SAPC  H16R 8593   3.463   5.796   5.200
   90SAPC  H16S 8594   3.549   5.652   5.270
   90SAPC  C217 8595   3.616   5.705   5.068
   90SAPC  H17R 8596   3.721   5.670   5.062
   90SAPC  H17S 8597   3.619   5.795   5.003
   90SAPC  C218 8598   3.526   5.602   5.011
   90SAPC  H18R 8599   3.422   5.638   5.000
   90SAPC  H18S 8600   3.518   5.518   5.083
   90SAPC  C219 8601   3.566   5.548   4.877
   90SAPC  H19R 8602   3.562   5.630   4.802
   90SAPC  H19S 8603   3.488   5.482   4.831
   90SAPC  C220 8604   3.705   5.495   4.865
   90SAPC  H20R 8605   3.786   5.570   4.882
   90SAPC  H20S 8606   3.732   5.462   4.763
   90SAPC  H20T 8607   3.730   5.413   4.937
   90SAPC   C33 8608   3.670   5.690   6.163
   90SAPC   H3X 8609   3.773   5.718   6.191
   90SAPC   H3Y 8610   3.638   5.742   6.071
   90SAPC   C34 8611   3.666   5.541   6.126
   90SAPC   H4X 8612   3.662   5.477   6.216
   90SAPC   H4Y 8613   3.759   5.517   6.071
   90SAPC   C35 8614   3.548   5.495   6.040
   90SAPC   H5X 8615   3.456   5.505   6.102
   90SAPC   H5Y 8616   3.568   5.386   6.027
   90SAPC   C36 8617   3.542   5.553   5.896
   90SAPC   H6X 8618   3.644   5.539   5.855
   90SAPC   H6Y 8619   3.507   5.658   5.905
   90SAPC   C37 8620   3.436   5.481   5.820
   90SAPC   H7X 8621   3.338   5.511   5.863
   90SAPC   H7Y 8622   3.443   5.371   5.835
   90SAPC   C38 8623   3.425   5.500   5.663
   90SAPC   H8X 8624   3.525   5.478   5.619
   90SAPC   H8Y 8625   3.408   5.609   5.646
   90SAPC   C39 8626   3.318   5.430   5.582
   90SAPC   H9X 8627   3.220   5.453   5.627
   90SAPC   H9Y 8628   3.322   5.319   5.573
   90SAPC  C310 8629   3.332   5.472   5.437
   90SAPC  H10X 8630   3.438   5.450   5.412
   90SAPC  H10Y 8631   3.310   5.580   5.428
   90SAPC  C311 8632   3.242   5.392   5.345
   90SAPC  H11X 8633   3.147   5.374   5.401
   90SAPC  H11Y 8634   3.276   5.290   5.317
   90SAPC  C312 8635   3.214   5.473   5.215
   90SAPC  H12X 8636   3.315   5.503   5.180
   90SAPC  H12Y 8637   3.149   5.558   5.243
   90SAPC  C313 8638   3.168   5.381   5.100
   90SAPC  H13X 8639   3.072   5.329   5.122
   90SAPC  H13Y 8640   3.246   5.307   5.070
   90SAPC  C314 8641   3.143   5.453   4.972
   90SAPC  H14X 8642   3.237   5.483   4.922
   90SAPC  H14Y 8643   3.084   5.541   5.006
   90SAPC  C315 8644   3.069   5.361   4.875
   90SAPC  H15X 8645   2.963   5.349   4.906
   90SAPC  H15Y 8646   3.102   5.258   4.903
   90SAPC  C316 8647   3.088   5.404   4.729
   90SAPC  H16X 8648   3.197   5.392   4.707
   90SAPC  H16Y 8649   3.059   5.509   4.710
   90SAPC  C317 8650   2.997   5.316   4.646
   90SAPC  H17X 8651   3.015   5.212   4.680
   90SAPC  H17Y 8652   3.034   5.319   4.541
   90SAPC  C318 8653   2.852   5.356   4.662
   90SAPC  H18X 8654   2.820   5.314   4.760
   90SAPC  H18Y 8655   2.785   5.322   4.580
   90SAPC  H18Z 8656   2.842   5.467   4.663
   91SAPC     N 8657   0.796   5.439   7.189
   91SAPC   C12 8658   0.731   5.448   7.052
   91SAPC  H12A 8659   0.651   5.519   7.063
   91SAPC  H12B 8660   0.685   5.353   7.029
   91SAPC   C13 8661   0.916   5.345   7.176
   91SAPC  H13A 8662   0.873   5.247   7.161
   91SAPC  H13B 8663   0.983   5.370   7.095
   91SAPC  H13C 8664   0.966   5.345   7.271
   91SAPC   C14 8665   0.841   5.569   7.249
   91SAPC  H14A 8666   0.764   5.645   7.249
   91SAPC  H14B 8667   0.881   5.565   7.349
   91SAPC  H14C 8668   0.923   5.596   7.184
   91SAPC   C15 8669   0.710   5.386   7.298
   91SAPC  H15A 8670   0.613   5.432   7.305
   91SAPC  H15B 8671   0.681   5.284   7.281
   91SAPC  H15C 8672   0.757   5.387   7.395
   91SAPC   C11 8673   0.816   5.508   6.930
   91SAPC  H11A 8674   0.768   5.462   6.841
   91SAPC  H11B 8675   0.920   5.471   6.930
   91SAPC     P 8676   0.910   5.729   6.844
   91SAPC   O13 8677   0.896   5.875   6.852
   91SAPC   O14 8678   1.041   5.666   6.877
   91SAPC   O12 8679   0.793   5.654   6.919
   91SAPC   O11 8680   0.883   5.688   6.683
   91SAPC    C1 8681   0.947   5.579   6.624
   91SAPC    HA 8682   1.055   5.599   6.607
   91SAPC    HB 8683   0.942   5.486   6.683
   91SAPC    C2 8684   0.875   5.566   6.480
   91SAPC    HS 8685   0.923   5.479   6.430
   91SAPC   O21 8686   0.897   5.684   6.391
   91SAPC   C21 8687   1.019   5.708   6.353
   91SAPC   O22 8688   1.116   5.635   6.362
   91SAPC   C22 8689   1.025   5.846   6.283
   91SAPC   H2R 8690   0.944   5.848   6.208
   91SAPC   H2S 8691   0.986   5.913   6.362
   91SAPC    C3 8692   0.720   5.538   6.509
   91SAPC    HX 8693   0.688   5.626   6.569
   91SAPC    HY 8694   0.707   5.446   6.571
   91SAPC   O31 8695   0.645   5.516   6.390
   91SAPC   C31 8696   0.517   5.492   6.397
   91SAPC   O32 8697   0.450   5.476   6.500
   91SAPC   C32 8698   0.451   5.457   6.263
   91SAPC   H2X 8699   0.371   5.384   6.286
   91SAPC   H2Y 8700   0.517   5.433   6.176
   91SAPC   C23 8701   1.167   5.899   6.232
   91SAPC   H3R 8702   1.186   5.853   6.133
   91SAPC   H3S 8703   1.228   5.859   6.316
   91SAPC   C24 8704   1.165   6.051   6.220
   91SAPC   H4R 8705   1.270   6.074   6.193
   91SAPC   H4S 8706   1.123   6.101   6.310
   91SAPC   C25 8707   1.079   6.096   6.100
   91SAPC   H5R 8708   0.997   6.025   6.083
   91SAPC   C26 8709   1.107   6.178   6.002
   91SAPC   H6R 8710   1.034   6.176   5.919
   91SAPC   C27 8711   1.215   6.275   5.982
   91SAPC   H7R 8712   1.275   6.278   6.075
   91SAPC   H7S 8713   1.187   6.381   5.964
   91SAPC   C28 8714   1.306   6.220   5.876
   91SAPC   H8R 8715   1.376   6.145   5.915
   91SAPC   C29 8716   1.290   6.248   5.745
   91SAPC   H9R 8717   1.361   6.202   5.675
   91SAPC  C210 8718   1.195   6.343   5.681
   91SAPC  H10R 8719   1.130   6.383   5.762
   91SAPC  H10S 8720   1.136   6.308   5.595
   91SAPC  C211 8721   1.266   6.465   5.615
   91SAPC  H11R 8722   1.267   6.556   5.677
   91SAPC  C212 8723   1.331   6.462   5.492
   91SAPC  H12R 8724   1.385   6.553   5.462
   91SAPC  C213 8725   1.349   6.337   5.397
   91SAPC  H13R 8726   1.350   6.241   5.453
   91SAPC  H13S 8727   1.436   6.344   5.328
   91SAPC  C214 8728   1.217   6.328   5.318
   91SAPC  H14R 8729   1.131   6.298   5.379
   91SAPC  C215 8730   1.201   6.338   5.187
   91SAPC  H15R 8731   1.102   6.355   5.142
   91SAPC  C216 8732   1.310   6.373   5.084
   91SAPC  H16R 8733   1.412   6.342   5.117
   91SAPC  H16S 8734   1.312   6.483   5.066
   91SAPC  C217 8735   1.289   6.291   4.953
   91SAPC  H17R 8736   1.189   6.317   4.912
   91SAPC  H17S 8737   1.290   6.181   4.967
   91SAPC  C218 8738   1.387   6.334   4.846
   91SAPC  H18R 8739   1.480   6.279   4.871
   91SAPC  H18S 8740   1.403   6.444   4.845
   91SAPC  C219 8741   1.332   6.308   4.703
   91SAPC  H19R 8742   1.260   6.389   4.678
   91SAPC  H19S 8743   1.271   6.215   4.701
   91SAPC  C220 8744   1.446   6.305   4.596
   91SAPC  H20R 8745   1.409   6.292   4.492
   91SAPC  H20S 8746   1.523   6.229   4.618
   91SAPC  H20T 8747   1.491   6.406   4.588
   91SAPC   C33 8748   0.359   5.577   6.210
   91SAPC   H3X 8749   0.310   5.639   6.287
   91SAPC   H3Y 8750   0.284   5.538   6.138
   91SAPC   C34 8751   0.441   5.672   6.116
   91SAPC   H4X 8752   0.476   5.610   6.030
   91SAPC   H4Y 8753   0.531   5.712   6.168
   91SAPC   C35 8754   0.351   5.789   6.069
   91SAPC   H5X 8755   0.330   5.853   6.157
   91SAPC   H5Y 8756   0.255   5.747   6.032
   91SAPC   C36 8757   0.414   5.871   5.952
   91SAPC   H6X 8758   0.520   5.895   5.977
   91SAPC   H6Y 8759   0.359   5.967   5.943
   91SAPC   C37 8760   0.410   5.796   5.817
   91SAPC   H7X 8761   0.303   5.779   5.789
   91SAPC   H7Y 8762   0.450   5.692   5.819
   91SAPC   C38 8763   0.481   5.881   5.707
   91SAPC   H8X 8764   0.584   5.905   5.739
   91SAPC   H8Y 8765   0.423   5.975   5.698
   91SAPC   C39 8766   0.493   5.810   5.568
   91SAPC   H9X 8767   0.540   5.874   5.491
   91SAPC   H9Y 8768   0.398   5.795   5.512
   91SAPC  C310 8769   0.576   5.683   5.564
   91SAPC  H10X 8770   0.531   5.599   5.621
   91SAPC  H10Y 8771   0.664   5.712   5.626
   91SAPC  C311 8772   0.616   5.644   5.422
   91SAPC  H11X 8773   0.720   5.605   5.427
   91SAPC  H11Y 8774   0.619   5.733   5.356
   91SAPC  C312 8775   0.517   5.541   5.353
   91SAPC  H12X 8776   0.429   5.604   5.328
   91SAPC  H12Y 8777   0.482   5.466   5.427
   91SAPC  C313 8778   0.569   5.474   5.223
   91SAPC  H13X 8779   0.479   5.420   5.183
   91SAPC  H13Y 8780   0.653   5.406   5.248
   91SAPC  C314 8781   0.608   5.570   5.113
   91SAPC  H14X 8782   0.708   5.610   5.142
   91SAPC  H14Y 8783   0.528   5.646   5.123
   91SAPC  C315 8784   0.637   5.517   4.975
   91SAPC  H15X 8785   0.559   5.444   4.946
   91SAPC  H15Y 8786   0.740   5.476   4.966
   91SAPC  C316 8787   0.617   5.618   4.862
   91SAPC  H16X 8788   0.685   5.703   4.884
   91SAPC  H16Y 8789   0.514   5.657   4.877
   91SAPC  C317 8790   0.652   5.565   4.726
   91SAPC  H17X 8791   0.589   5.480   4.692
   91SAPC  H17Y 8792   0.756   5.527   4.727
   91SAPC  C318 8793   0.641   5.676   4.619
   91SAPC  H18X 8794   0.669   5.772   4.668
   91SAPC  H18Y 8795   0.538   5.683   4.579
   91SAPC  H18Z 8796   0.710   5.667   4.532
   92SAPC     N 8797   6.686   4.799   7.063
   92SAPC   C12 8798   6.581   4.889   6.996
   92SAPC  H12A 8799   6.568   4.982   7.049
   92SAPC  H12B 8800   6.484   4.841   7.001
   92SAPC   C13 8801   6.694   4.674   6.984
   92SAPC  H13A 8802   6.710   4.700   6.880
   92SAPC  H13B 8803   6.775   4.607   7.010
   92SAPC  H13C 8804   6.599   4.623   6.988
   92SAPC   C14 8805   6.821   4.861   7.080
   92SAPC  H14A 8806   0.021   4.896   6.993
   92SAPC  H14B 8807   6.811   4.949   7.142
   92SAPC  H14C 8808   0.020   4.784   7.134
   92SAPC   C15 8809   6.639   4.765   7.203
   92SAPC  H15A 8810   6.645   4.842   7.278
   92SAPC  H15B 8811   6.535   4.735   7.198
   92SAPC  H15C 8812   6.687   4.675   7.239
   92SAPC   C11 8813   6.601   4.935   6.852
   92SAPC  H11A 8814   6.704   4.962   6.820
   92SAPC  H11B 8815   6.549   5.032   6.837
   92SAPC     P 8816   6.619   4.785   6.631
   92SAPC   O13 8817   6.718   4.679   6.666
   92SAPC   O14 8818   6.513   4.741   6.541
   92SAPC   O12 8819   6.544   4.846   6.758
   92SAPC   O11 8820   6.700   4.902   6.569
   92SAPC    C1 8821   6.636   4.999   6.483
   92SAPC    HA 8822   6.525   4.998   6.474
   92SAPC    HB 8823   6.655   5.098   6.530
   92SAPC    C2 8824   6.699   4.996   6.336
   92SAPC    HS 8825   6.643   5.067   6.272
   92SAPC   O21 8826   6.695   4.867   6.281
   92SAPC   C21 8827   6.573   4.828   6.226
   92SAPC   O22 8828   6.477   4.901   6.210
   92SAPC   C22 8829   6.598   4.686   6.183
   92SAPC   H2R 8830   6.694   4.646   6.223
   92SAPC   H2S 8831   6.513   4.631   6.228
   92SAPC    C3 8832   6.841   5.044   6.343
   92SAPC    HX 8833   0.049   4.968   6.394
   92SAPC    HY 8834   6.846   5.136   6.405
   92SAPC   O31 8835   0.033   5.075   6.209
   92SAPC   C31 8836   0.163   5.091   6.214
   92SAPC   O32 8837   0.234   5.090   6.316
   92SAPC   C32 8838   0.212   5.106   6.067
   92SAPC   H2X 8839   0.158   5.196   6.031
   92SAPC   H2Y 8840   0.180   5.012   6.017
   92SAPC   C23 8841   6.592   4.674   6.026
   92SAPC   H3R 8842   6.503   4.727   5.987
   92SAPC   H3S 8843   6.584   4.567   5.994
   92SAPC   C24 8844   6.726   4.723   5.961
   92SAPC   H4R 8845   6.731   4.677   5.860
   92SAPC   H4S 8846   6.799   4.687   6.037
   92SAPC   C25 8847   6.728   4.868   5.935
   92SAPC   H5R 8848   6.752   4.932   6.022
   92SAPC   C26 8849   6.688   4.937   5.831
   92SAPC   H6R 8850   6.678   5.046   5.837
   92SAPC   C27 8851   6.633   4.872   5.705
   92SAPC   H7R 8852   6.530   4.839   5.727
   92SAPC   H7S 8853   6.684   4.776   5.683
   92SAPC   C28 8854   6.628   4.958   5.585
   92SAPC   H8R 8855   6.665   5.059   5.606
   92SAPC   C29 8856   6.568   4.923   5.472
   92SAPC   H9R 8857   6.544   5.001   5.398
   92SAPC  C210 8858   6.506   4.786   5.445
   92SAPC  H10R 8859   6.559   4.709   5.505
   92SAPC  H10S 8860   6.532   4.751   5.343
   92SAPC  C211 8861   6.361   4.765   5.477
   92SAPC  H11R 8862   6.340   4.757   5.584
   92SAPC  C212 8863   6.261   4.757   5.385
   92SAPC  H12R 8864   6.158   4.736   5.418
   92SAPC  C213 8865   6.267   4.768   5.233
   92SAPC  H13R 8866   6.356   4.817   5.187
   92SAPC  H13S 8867   6.185   4.838   5.207
   92SAPC  C214 8868   6.264   4.645   5.143
   92SAPC  H14R 8869   6.344   4.572   5.164
   92SAPC  C215 8870   6.163   4.607   5.060
   92SAPC  H15R 8871   6.170   4.503   5.024
   92SAPC  C216 8872   6.044   4.691   5.013
   92SAPC  H16R 8873   6.001   4.754   5.093
   92SAPC  H16S 8874   5.966   4.620   4.979
   92SAPC  C217 8875   6.085   4.785   4.899
   92SAPC  H17R 8876   6.116   4.709   4.825
   92SAPC  H17S 8877   6.176   4.842   4.927
   92SAPC  C218 8878   5.981   4.881   4.849
   92SAPC  H18R 8879   5.958   4.961   4.922
   92SAPC  H18S 8880   5.891   4.819   4.829
   92SAPC  C219 8881   6.036   4.936   4.714
   92SAPC  H19R 8882   6.037   4.850   4.644
   92SAPC  H19S 8883   6.138   4.974   4.738
   92SAPC  C220 8884   5.960   5.041   4.639
   92SAPC  H20R 8885   6.019   5.073   4.550
   92SAPC  H20S 8886   5.950   5.131   4.703
   92SAPC  H20T 8887   5.862   5.008   4.599
   92SAPC   C33 8888   0.365   5.140   6.068
   92SAPC   H3X 8889   0.417   5.071   6.137
   92SAPC   H3Y 8890   0.379   5.248   6.089
   92SAPC   C34 8891   0.429   5.122   5.929
   92SAPC   H4X 8892   0.407   5.020   5.891
   92SAPC   H4Y 8893   0.540   5.130   5.924
   92SAPC   C35 8894   0.384   5.221   5.824
   92SAPC   H5X 8895   0.447   5.311   5.836
   92SAPC   H5Y 8896   0.283   5.248   5.861
   92SAPC   C36 8897   0.385   5.171   5.685
   92SAPC   H6X 8898   0.320   5.237   5.624
   92SAPC   H6Y 8899   0.352   5.067   5.661
   92SAPC   C37 8900   0.531   5.166   5.632
   92SAPC   H7X 8901   0.592   5.088   5.682
   92SAPC   H7Y 8902   0.576   5.266   5.642
   92SAPC   C38 8903   0.534   5.166   5.478
   92SAPC   H8X 8904   0.465   5.244   5.440
   92SAPC   H8Y 8905   0.488   5.065   5.468
   92SAPC   C39 8906   0.676   5.178   5.407
   92SAPC   H9X 8907   0.743   5.116   5.470
   92SAPC   H9Y 8908   0.709   5.284   5.410
   92SAPC  C310 8909   0.685   5.118   5.263
   92SAPC  H10X 8910   0.626   5.179   5.191
   92SAPC  H10Y 8911   0.623   5.026   5.269
   92SAPC  C311 8912   0.821   5.084   5.211
   92SAPC  H11X 8913   0.861   4.986   5.246
   92SAPC  H11Y 8914   0.900   5.162   5.216
   92SAPC  C312 8915   0.829   5.043   5.062
   92SAPC  H12X 8916   0.745   4.976   5.033
   92SAPC  H12Y 8917   0.927   4.991   5.058
   92SAPC  C313 8918   0.833   5.162   4.968
   92SAPC  H13X 8919   0.907   5.232   5.013
   92SAPC  H13Y 8920   0.737   5.218   4.969
   92SAPC  C314 8921   0.850   5.124   4.820
   92SAPC  H14X 8922   0.927   5.047   4.800
   92SAPC  H14Y 8923   0.893   5.216   4.774
   92SAPC  C315 8924   0.713   5.088   4.754
   92SAPC  H15X 8925   0.643   5.172   4.772
   92SAPC  H15Y 8926   0.678   4.995   4.802
   92SAPC  C316 8927   0.720   5.066   4.604
   92SAPC  H16X 8928   0.633   5.002   4.582
   92SAPC  H16Y 8929   0.811   5.007   4.581
   92SAPC  C317 8930   0.722   5.198   4.519
   92SAPC  H17X 8931   0.793   5.263   4.574
   92SAPC  H17Y 8932   0.619   5.240   4.519
   92SAPC  C318 8933   0.741   5.195   4.364
   92SAPC  H18X 8934   0.708   5.292   4.321
   92SAPC  H18Y 8935   0.672   5.123   4.316
   92SAPC  H18Z 8936   0.849   5.182   4.343
   93SAPC     N 8937   1.532   6.589   6.958
   93SAPC   C12 8938   1.493   6.508   6.838
   93SAPC  H12A 8939   1.469   6.568   6.752
   93SAPC  H12B 8940   1.406   6.449   6.861
   93SAPC   C13 8941   1.553   6.509   7.075
   93SAPC  H13A 8942   1.597   6.568   7.154
   93SAPC  H13B 8943   1.456   6.486   7.117
   93SAPC  H13C 8944   1.605   6.417   7.053
   93SAPC   C14 8945   1.660   6.664   6.931
   93SAPC  H14A 8946   1.713   6.714   7.011
   93SAPC  H14B 8947   1.737   6.600   6.890
   93SAPC  H14C 8948   1.640   6.726   6.844
   93SAPC   C15 8949   1.427   6.693   6.992
   93SAPC  H15A 8950   1.449   6.728   7.092
   93SAPC  H15B 8951   1.426   6.776   6.923
   93SAPC  H15C 8952   1.332   6.644   6.981
   93SAPC   C11 8953   1.605   6.410   6.795
   93SAPC  H11A 8954   1.569   6.336   6.721
   93SAPC  H11B 8955   1.638   6.344   6.879
   93SAPC     P 8956   1.749   6.537   6.596
   93SAPC   O13 8957   1.791   6.676   6.606
   93SAPC   O14 8958   1.847   6.450   6.538
   93SAPC   O12 8959   1.724   6.480   6.743
   93SAPC   O11 8960   1.613   6.527   6.519
   93SAPC    C1 8961   1.554   6.409   6.469
   93SAPC    HA 8962   1.602   6.319   6.513
   93SAPC    HB 8963   1.448   6.410   6.503
   93SAPC    C2 8964   1.574   6.391   6.315
   93SAPC    HS 8965   1.684   6.397   6.299
   93SAPC   O21 8966   1.505   6.496   6.245
   93SAPC   C21 8967   1.559   6.523   6.125
   93SAPC   O22 8968   1.665   6.480   6.084
   93SAPC   C22 8969   1.463   6.616   6.050
   93SAPC   H2R 8970   1.359   6.597   6.084
   93SAPC   H2S 8971   1.500   6.718   6.073
   93SAPC    C3 8972   1.517   6.258   6.280
   93SAPC    HX 8973   1.408   6.269   6.294
   93SAPC    HY 8974   1.551   6.185   6.357
   93SAPC   O31 8975   1.542   6.207   6.145
   93SAPC   C31 8976   1.660   6.149   6.129
   93SAPC   O32 8977   1.752   6.151   6.206
   93SAPC   C32 8978   1.662   6.100   5.987
   93SAPC   H2X 8979   1.563   6.057   5.961
   93SAPC   H2Y 8980   1.745   6.026   5.992
   93SAPC   C23 8981   1.478   6.599   5.896
   93SAPC   H3R 8982   1.406   6.515   5.881
   93SAPC   H3S 8983   1.570   6.550   5.860
   93SAPC   C24 8984   1.436   6.718   5.804
   93SAPC   H4R 8985   1.337   6.761   5.830
   93SAPC   H4S 8986   1.431   6.679   5.700
   93SAPC   C25 8987   1.537   6.822   5.816
   93SAPC   H5R 8988   1.546   6.851   5.921
   93SAPC   C26 8989   1.618   0.035   5.721
   93SAPC   H6R 8990   1.696   0.106   5.751
   93SAPC   C27 8991   1.618   0.016   5.569
   93SAPC   H7R 8992   1.537   0.065   5.510
   93SAPC   H7S 8993   1.601   6.763   5.546
   93SAPC   C28 8994   1.749   0.046   5.512
   93SAPC   H8R 8995   1.831   6.828   5.527
   93SAPC   C29 8996   1.781   0.166   5.454
   93SAPC   H9R 8997   1.887   0.188   5.431
   93SAPC  C210 8998   1.696   0.289   5.420
   93SAPC  H10R 8999   1.747   0.381   5.455
   93SAPC  H10S 9000   1.603   0.283   5.481
   93SAPC  C211 9001   1.652   0.295   5.273
   93SAPC  H11R 9002   1.639   0.198   5.222
   93SAPC  C212 9003   1.621   0.403   5.206
   93SAPC  H12R 9004   1.589   0.379   5.104
   93SAPC  C213 9005   1.621   0.545   5.248
   93SAPC  H13R 9006   1.694   0.595   5.181
   93SAPC  H13S 9007   1.666   0.571   5.346
   93SAPC  C214 9008   1.487   0.607   5.224
   93SAPC  H14R 9009   1.427   0.612   5.316
   93SAPC  C215 9010   1.419   0.653   5.118
   93SAPC  H15R 9011   1.319   0.698   5.126
   93SAPC  C216 9012   1.465   0.635   4.973
   93SAPC  H16R 9013   1.543   0.563   4.942
   93SAPC  H16S 9014   1.499   0.737   4.943
   93SAPC  C217 9015   1.342   0.592   4.880
   93SAPC  H17R 9016   1.270   0.674   4.860
   93SAPC  H17S 9017   1.289   0.505   4.925
   93SAPC  C218 9018   1.392   0.539   4.744
   93SAPC  H18R 9019   1.461   0.453   4.759
   93SAPC  H18S 9020   1.454   0.617   4.695
   93SAPC  C219 9021   1.275   0.513   4.645
   93SAPC  H19R 9022   1.299   0.485   4.540
   93SAPC  H19S 9023   1.218   0.608   4.640
   93SAPC  C220 9024   1.196   0.401   4.694
   93SAPC  H20R 9025   1.134   0.414   4.786
   93SAPC  H20S 9026   1.260   0.312   4.716
   93SAPC  H20T 9027   1.117   0.367   4.624
   93SAPC   C33 9028   1.686   6.216   5.882
   93SAPC   H3X 9029   1.785   6.263   5.903
   93SAPC   H3Y 9030   1.606   6.292   5.897
   93SAPC   C34 9031   1.672   6.164   5.738
   93SAPC   H4X 9032   1.574   6.111   5.732
   93SAPC   H4Y 9033   1.746   6.083   5.719
   93SAPC   C35 9034   1.690   6.276   5.640
   93SAPC   H5X 9035   1.792   6.317   5.660
   93SAPC   H5Y 9036   1.608   6.350   5.638
   93SAPC   C36 9037   1.700   6.221   5.496
   93SAPC   H6X 9038   1.605   6.173   5.465
   93SAPC   H6Y 9039   1.784   6.148   5.493
   93SAPC   C37 9040   1.732   6.345   5.407
   93SAPC   H7X 9041   1.828   6.393   5.435
   93SAPC   H7Y 9042   1.647   6.415   5.414
   93SAPC   C38 9043   1.750   6.310   5.259
   93SAPC   H8X 9044   1.659   6.260   5.219
   93SAPC   H8Y 9045   1.823   6.227   5.254
   93SAPC   C39 9046   1.799   6.430   5.175
   93SAPC   H9X 9047   1.894   6.476   5.210
   93SAPC   H9Y 9048   1.732   6.510   5.212
   93SAPC  C310 9049   1.762   6.405   5.029
   93SAPC  H10X 9050   1.657   6.368   5.023
   93SAPC  H10Y 9051   1.826   6.334   4.973
   93SAPC  C311 9052   1.770   6.521   4.936
   93SAPC  H11X 9053   1.875   6.555   4.946
   93SAPC  H11Y 9054   1.698   6.604   4.953
   93SAPC  C312 9055   1.752   6.484   4.786
   93SAPC  H12X 9056   1.664   6.416   4.781
   93SAPC  H12Y 9057   1.842   6.422   4.765
   93SAPC  C313 9058   1.753   6.599   4.686
   93SAPC  H13X 9059   1.757   6.555   4.585
   93SAPC  H13Y 9060   1.846   6.657   4.706
   93SAPC  C314 9061   1.623   6.685   4.690
   93SAPC  H14X 9062   1.617   6.709   4.798
   93SAPC  H14Y 9063   1.536   6.620   4.667
   93SAPC  C315 9064   1.636   6.809   4.604
   93SAPC  H15X 9065   1.630   6.783   4.496
   93SAPC  H15Y 9066   1.737   6.849   4.624
   93SAPC  C316 9067   1.511   0.046   4.622
   93SAPC  H16X 9068   1.525   0.125   4.546
   93SAPC  H16Y 9069   1.529   0.085   4.725
   93SAPC  C317 9070   1.382   6.833   4.592
   93SAPC  H17X 9071   1.305   0.052   4.623
   93SAPC  H17Y 9072   1.365   6.741   4.652
   93SAPC  C318 9073   1.377   6.793   4.447
   93SAPC  H18X 9074   1.285   6.739   4.415
   93SAPC  H18Y 9075   1.456   6.718   4.425
   93SAPC  H18Z 9076   1.405   0.021   4.377
   94SAPC     N 9077   0.214   5.198   6.699
   94SAPC   C12 9078   0.259   5.229   6.844
   94SAPC  H12A 9079   0.189   5.302   6.882
   94SAPC  H12B 9080   0.356   5.276   6.841
   94SAPC   C13 9081   0.321   5.125   6.625
   94SAPC  H13A 9082   0.414   5.181   6.624
   94SAPC  H13B 9083   0.330   5.041   6.691
   94SAPC  H13C 9084   0.294   5.092   6.526
   94SAPC   C14 9085   0.092   5.115   6.703
   94SAPC  H14A 9086   0.043   5.113   6.607
   94SAPC  H14B 9087   0.101   5.013   6.737
   94SAPC  H14C 9088   0.025   5.156   6.777
   94SAPC   C15 9089   0.181   5.328   6.629
   94SAPC  H15A 9090   0.266   5.391   6.606
   94SAPC  H15B 9091   0.128   5.295   6.541
   94SAPC  H15C 9092   0.118   5.385   6.695
   94SAPC   C11 9093   0.261   5.127   6.972
   94SAPC  H11A 9094   0.159   5.085   6.986
   94SAPC  H11B 9095   0.280   5.193   7.059
   94SAPC     P 9096   0.513   5.047   6.965
   94SAPC   O13 9097   0.534   5.189   7.005
   94SAPC   O14 9098   0.560   4.948   7.067
   94SAPC   O12 9099   0.360   5.018   6.962
   94SAPC   O11 9100   0.572   5.025   6.824
   94SAPC    C1 9101   0.565   4.892   6.766
   94SAPC    HA 9102   0.611   4.813   6.829
   94SAPC    HB 9103   0.461   4.859   6.750
   94SAPC    C2 9104   0.650   4.878   6.633
   94SAPC    HS 9105   0.754   4.890   6.671
   94SAPC   O21 9106   0.613   4.974   6.536
   94SAPC   C21 9107   0.703   5.001   6.449
   94SAPC   O22 9108   0.819   4.961   6.454
   94SAPC   C22 9109   0.634   5.061   6.330
   94SAPC   H2R 9110   0.566   4.989   6.280
   94SAPC   H2S 9111   0.571   5.141   6.372
   94SAPC    C3 9112   0.636   4.733   6.568
   94SAPC    HX 9113   0.656   4.665   6.654
   94SAPC    HY 9114   0.718   4.722   6.494
   94SAPC   O31 9115   0.506   4.699   6.511
   94SAPC   C31 9116   0.496   4.708   6.377
   94SAPC   O32 9117   0.578   4.741   6.295
   94SAPC   C32 9118   0.358   4.676   6.330
   94SAPC   H2X 9119   0.301   4.771   6.334
   94SAPC   H2Y 9120   0.310   4.601   6.396
   94SAPC   C23 9121   0.740   5.122   6.234
   94SAPC   H3R 9122   0.693   5.162   6.141
   94SAPC   H3S 9123   0.794   5.033   6.196
   94SAPC   C24 9124   0.826   5.222   6.298
   94SAPC   H4R 9125   0.849   5.203   6.405
   94SAPC   H4S 9126   0.769   5.317   6.295
   94SAPC   C25 9127   0.961   5.243   6.226
   94SAPC   H5R 9128   1.020   5.151   6.229
   94SAPC   C26 9129   0.984   5.349   6.150
   94SAPC   H6R 9130   1.089   5.357   6.118
   94SAPC   C27 9131   0.899   5.471   6.129
   94SAPC   H7R 9132   0.970   5.556   6.125
   94SAPC   H7S 9133   0.836   5.483   6.219
   94SAPC   C28 9134   0.821   5.471   6.006
   94SAPC   H8R 9135   0.797   5.369   5.970
   94SAPC   C29 9136   0.771   5.579   5.942
   94SAPC   H9R 9137   0.700   5.557   5.861
   94SAPC  C210 9138   0.804   5.723   5.971
   94SAPC  H10R 9139   0.818   5.730   6.081
   94SAPC  H10S 9140   0.714   5.783   5.946
   94SAPC  C211 9141   0.938   5.777   5.924
   94SAPC  H11R 9142   1.016   5.753   5.997
   94SAPC  C212 9143   0.962   5.874   5.834
   94SAPC  H12R 9144   1.067   5.907   5.840
   94SAPC  C213 9145   0.861   5.938   5.735
   94SAPC  H13R 9146   0.781   5.993   5.789
   94SAPC  H13S 9147   0.800   5.861   5.682
   94SAPC  C214 9148   0.925   6.044   5.650
   94SAPC  H14R 9149   0.967   6.128   5.708
   94SAPC  C215 9150   0.949   6.056   5.519
   94SAPC  H15R 9151   1.018   6.136   5.487
   94SAPC  C216 9152   0.917   5.951   5.415
   94SAPC  H16R 9153   0.851   5.875   5.463
   94SAPC  H16S 9154   1.007   5.903   5.372
   94SAPC  C217 9155   0.839   6.009   5.299
   94SAPC  H17R 9156   0.750   6.065   5.336
   94SAPC  H17S 9157   0.809   5.925   5.234
   94SAPC  C218 9158   0.912   6.123   5.225
   94SAPC  H18R 9159   1.015   6.091   5.199
   94SAPC  H18S 9160   0.906   6.210   5.293
   94SAPC  C219 9161   0.856   6.154   5.087
   94SAPC  H19R 9162   0.923   6.219   5.027
   94SAPC  H19S 9163   0.756   6.201   5.103
   94SAPC  C220 9164   0.820   6.025   5.015
   94SAPC  H20R 9165   0.823   6.049   4.906
   94SAPC  H20S 9166   0.717   5.989   5.036
   94SAPC  H20T 9167   0.888   5.937   5.024
   94SAPC   C33 9168   0.359   4.626   6.182
   94SAPC   H3X 9169   0.400   4.522   6.184
   94SAPC   H3Y 9170   0.430   4.680   6.116
   94SAPC   C34 9171   0.210   4.619   6.126
   94SAPC   H4X 9172   0.158   4.714   6.148
   94SAPC   H4Y 9173   0.149   4.537   6.170
   94SAPC   C35 9174   0.207   4.597   5.976
   94SAPC   H5X 9175   0.104   4.577   5.941
   94SAPC   H5Y 9176   0.264   4.509   5.942
   94SAPC   C36 9177   0.255   4.708   5.880
   94SAPC   H6X 9178   0.363   4.734   5.888
   94SAPC   H6Y 9179   0.195   4.795   5.913
   94SAPC   C37 9180   0.220   4.676   5.739
   94SAPC   H7X 9181   0.112   4.663   5.719
   94SAPC   H7Y 9182   0.280   4.588   5.706
   94SAPC   C38 9183   0.233   4.803   5.650
   94SAPC   H8X 9184   0.335   4.848   5.655
   94SAPC   H8Y 9185   0.163   4.877   5.695
   94SAPC   C39 9186   0.211   4.766   5.513
   94SAPC   H9X 9187   0.103   4.747   5.494
   94SAPC   H9Y 9188   0.267   4.672   5.493
   94SAPC  C310 9189   0.249   4.888   5.424
   94SAPC  H10X 9190   0.355   4.914   5.442
   94SAPC  H10Y 9191   0.193   4.972   5.471
   94SAPC  C311 9192   0.213   4.871   5.271
   94SAPC  H11X 9193   0.102   4.874   5.262
   94SAPC  H11Y 9194   0.247   4.769   5.243
   94SAPC  C312 9195   0.265   4.982   5.184
   94SAPC  H12X 9196   0.376   4.985   5.191
   94SAPC  H12Y 9197   0.229   5.075   5.234
   94SAPC  C313 9198   0.223   4.977   5.037
   94SAPC  H13X 9199   0.115   4.995   5.016
   94SAPC  H13Y 9200   0.241   4.871   5.009
   94SAPC  C314 9201   0.314   5.058   4.943
   94SAPC  H14X 9202   0.419   5.026   4.960
   94SAPC  H14Y 9203   0.301   5.163   4.975
   94SAPC  C315 9204   0.263   5.042   4.799
   94SAPC  H15X 9205   0.166   5.095   4.792
   94SAPC  H15Y 9206   0.247   4.938   4.763
   94SAPC  C316 9207   0.355   5.110   4.699
   94SAPC  H16X 9208   0.442   5.041   4.696
   94SAPC  H16Y 9209   0.388   5.207   4.742
   94SAPC  C317 9210   0.292   5.119   4.564
   94SAPC  H17X 9211   0.363   5.152   4.485
   94SAPC  H17Y 9212   0.204   5.188   4.560
   94SAPC  C318 9213   0.222   4.986   4.510
   94SAPC  H18X 9214   0.305   4.914   4.526
   94SAPC  H18Y 9215   0.178   4.987   4.408
   94SAPC  H18Z 9216   0.144   4.946   4.579
   95SAPC     N 9217   4.226   5.919   2.116
   95SAPC   C12 9218   4.142   5.808   2.185
   95SAPC  H12A 9219   4.075   5.768   2.110
   95SAPC  H12B 9220   4.082   5.861   2.258
   95SAPC   C13 9221   4.142   6.041   2.130
   95SAPC  H13A 9222   4.041   6.030   2.091
   95SAPC  H13B 9223   4.126   6.065   2.234
   95SAPC  H13C 9224   4.200   6.112   2.073
   95SAPC   C14 9225   4.357   5.946   2.185
   95SAPC  H14A 9226   4.344   5.976   2.288
   95SAPC  H14B 9227   4.423   5.863   2.166
   95SAPC  H14C 9228   4.403   6.029   2.134
   95SAPC   C15 9229   4.246   5.889   1.974
   95SAPC  H15A 9230   4.291   5.791   1.974
   95SAPC  H15B 9231   4.157   5.888   1.914
   95SAPC  H15C 9232   4.315   5.948   1.917
   95SAPC   C11 9233   4.209   5.680   2.234
   95SAPC  H11A 9234   4.175   5.631   2.327
   95SAPC  H11B 9235   4.314   5.711   2.252
   95SAPC     P 9236   4.086   5.505   2.079
   95SAPC   O13 9237   4.015   5.597   1.987
   95SAPC   O14 9238   4.127   5.374   2.024
   95SAPC   O12 9239   4.216   5.583   2.123
   95SAPC   O11 9240   4.004   5.488   2.207
   95SAPC    C1 9241   4.014   5.376   2.294
   95SAPC    HA 9242   4.118   5.339   2.309
   95SAPC    HB 9243   3.990   5.414   2.395
   95SAPC    C2 9244   3.902   5.265   2.271
   95SAPC    HS 9245   3.936   5.211   2.180
   95SAPC   O21 9246   3.775   5.330   2.247
   95SAPC   C21 9247   3.666   5.269   2.209
   95SAPC   O22 9248   3.665   5.145   2.193
   95SAPC   C22 9249   3.544   5.358   2.210
   95SAPC   H2R 9250   3.568   5.447   2.273
   95SAPC   H2S 9251   3.535   5.387   2.103
   95SAPC    C3 9252   3.914   5.171   2.389
   95SAPC    HX 9253   4.015   5.126   2.402
   95SAPC    HY 9254   3.853   5.079   2.382
   95SAPC   O31 9255   3.889   5.240   2.513
   95SAPC   C31 9256   3.771   5.227   2.568
   95SAPC   O32 9257   3.690   5.145   2.528
   95SAPC   C32 9258   3.755   5.335   2.682
   95SAPC   H2X 9259   3.811   5.425   2.650
   95SAPC   H2Y 9260   3.803   5.286   2.770
   95SAPC   C23 9261   3.422   5.272   2.253
   95SAPC   H3R 9262   3.448   5.216   2.346
   95SAPC   H3S 9263   3.382   5.211   2.170
   95SAPC   C24 9264   3.303   5.361   2.297
   95SAPC   H4R 9265   3.312   5.393   2.403
   95SAPC   H4S 9266   3.220   5.289   2.310
   95SAPC   C25 9267   3.261   5.469   2.203
   95SAPC   H5R 9268   3.236   5.435   2.102
   95SAPC   C26 9269   3.267   5.603   2.230
   95SAPC   H6R 9270   3.235   5.665   2.145
   95SAPC   C27 9271   3.294   5.671   2.363
   95SAPC   H7R 9272   3.382   5.633   2.419
   95SAPC   H7S 9273   3.210   5.660   2.434
   95SAPC   C28 9274   3.307   5.822   2.339
   95SAPC   H8R 9275   3.315   5.860   2.236
   95SAPC   C29 9276   3.312   5.915   2.436
   95SAPC   H9R 9277   3.318   6.020   2.403
   95SAPC  C210 9278   3.310   5.891   2.585
   95SAPC  H10R 9279   3.350   5.977   2.644
   95SAPC  H10S 9280   3.361   5.797   2.614
   95SAPC  C211 9281   3.165   5.874   2.629
   95SAPC  H11R 9282   3.086   5.856   2.555
   95SAPC  C212 9283   3.127   5.886   2.756
   95SAPC  H12R 9284   3.020   5.874   2.780
   95SAPC  C213 9285   3.217   5.917   2.875
   95SAPC  H13R 9286   3.202   6.023   2.905
   95SAPC  H13S 9287   3.322   5.913   2.840
   95SAPC  C214 9288   3.197   5.837   2.997
   95SAPC  H14R 9289   3.212   5.729   2.986
   95SAPC  C215 9290   3.170   5.883   3.119
   95SAPC  H15R 9291   3.167   5.814   3.205
   95SAPC  C216 9292   3.119   6.019   3.156
   95SAPC  H16R 9293   3.094   6.080   3.066
   95SAPC  H16S 9294   3.200   6.080   3.200
   95SAPC  C217 9295   3.026   6.020   3.283
   95SAPC  H17R 9296   3.001   6.127   3.300
   95SAPC  H17S 9297   3.073   5.970   3.370
   95SAPC  C218 9298   2.890   5.961   3.260
   95SAPC  H18R 9299   2.822   6.000   3.339
   95SAPC  H18S 9300   2.900   5.851   3.269
   95SAPC  C219 9301   2.824   6.002   3.128
   95SAPC  H19R 9302   2.870   5.951   3.040
   95SAPC  H19S 9303   2.834   6.112   3.118
   95SAPC  C220 9304   2.675   5.968   3.123
   95SAPC  H20R 9305   2.610   6.025   3.052
   95SAPC  H20S 9306   2.634   5.980   3.225
   95SAPC  H20T 9307   2.669   5.863   3.085
   95SAPC   C33 9308   3.605   5.373   2.697
   95SAPC   H3X 9309   3.539   5.284   2.701
   95SAPC   H3Y 9310   3.584   5.430   2.603
   95SAPC   C34 9311   3.572   5.466   2.811
   95SAPC   H4X 9312   3.471   5.510   2.797
   95SAPC   H4Y 9313   3.640   5.553   2.798
   95SAPC   C35 9314   3.578   5.398   2.949
   95SAPC   H5X 9315   3.679   5.362   2.975
   95SAPC   H5Y 9316   3.507   5.313   2.935
   95SAPC   C36 9317   3.525   5.497   3.047
   95SAPC   H6X 9318   3.417   5.519   3.030
   95SAPC   H6Y 9319   3.586   5.590   3.045
   95SAPC   C37 9320   3.545   5.446   3.194
   95SAPC   H7X 9321   3.624   5.508   3.243
   95SAPC   H7Y 9322   3.567   5.338   3.185
   95SAPC   C38 9323   3.419   5.466   3.288
   95SAPC   H8X 9324   3.349   5.380   3.286
   95SAPC   H8Y 9325   3.353   5.549   3.252
   95SAPC   C39 9326   3.458   5.493   3.431
   95SAPC   H9X 9327   3.522   5.584   3.429
   95SAPC   H9Y 9328   3.515   5.411   3.479
   95SAPC  C310 9329   3.343   5.520   3.521
   95SAPC  H10X 9330   3.279   5.430   3.510
   95SAPC  H10Y 9331   3.274   5.599   3.486
   95SAPC  C311 9332   3.376   5.537   3.672
   95SAPC  H11X 9333   3.413   5.640   3.688
   95SAPC  H11Y 9334   3.447   5.456   3.699
   95SAPC  C312 9335   3.254   5.530   3.770
   95SAPC  H12X 9336   3.200   5.433   3.760
   95SAPC  H12Y 9337   3.181   5.607   3.736
   95SAPC  C313 9338   3.299   5.550   3.917
   95SAPC  H13X 9339   3.352   5.647   3.931
   95SAPC  H13Y 9340   3.372   5.470   3.943
   95SAPC  C314 9341   3.182   5.533   4.019
   95SAPC  H14X 9342   3.135   5.432   4.014
   95SAPC  H14Y 9343   3.106   5.604   3.981
   95SAPC  C315 9344   3.201   5.588   4.159
   95SAPC  H15X 9345   3.110   5.606   4.220
   95SAPC  H15Y 9346   3.244   5.690   4.153
   95SAPC  C316 9347   3.266   5.487   4.255
   95SAPC  H16X 9348   3.359   5.444   4.211
   95SAPC  H16Y 9349   3.199   5.399   4.264
   95SAPC  C317 9350   3.289   5.542   4.402
   95SAPC  H17X 9351   3.189   5.549   4.449
   95SAPC  H17Y 9352   3.333   5.641   4.379
   95SAPC  C318 9353   3.383   5.455   4.490
   95SAPC  H18X 9354   3.337   5.358   4.517
   95SAPC  H18Y 9355   3.422   5.511   4.578
   95SAPC  H18Z 9356   3.474   5.427   4.433
   96SAPC     N 9357   3.923   1.839   1.847
   96SAPC   C12 9358   3.923   1.807   1.994
   96SAPC  H12A 9359   4.015   1.838   2.040
   96SAPC  H12B 9360   3.930   1.699   2.004
   96SAPC   C13 9361   4.041   1.785   1.775
   96SAPC  H13A 9362   4.041   1.829   1.676
   96SAPC  H13B 9363   4.132   1.815   1.825
   96SAPC  H13C 9364   4.042   1.677   1.778
   96SAPC   C14 9365   3.791   1.801   1.787
   96SAPC  H14A 9366   3.707   1.806   1.855
   96SAPC  H14B 9367   3.759   1.866   1.706
   96SAPC  H14C 9368   3.800   1.697   1.761
   96SAPC   C15 9369   3.936   1.984   1.837
   96SAPC  H15A 9370   3.955   2.025   1.738
   96SAPC  H15B 9371   3.845   2.023   1.880
   96SAPC  H15C 9372   4.022   2.029   1.885
   96SAPC   C11 9373   3.819   1.856   2.096
   96SAPC  H11A 9374   3.820   1.967   2.102
   96SAPC  H11B 9375   3.848   1.821   2.197
   96SAPC     P 9376   3.615   1.685   2.098
   96SAPC   O13 9377   3.493   1.674   2.015
   96SAPC   O14 9378   3.704   1.565   2.097
   96SAPC   O12 9379   3.691   1.817   2.060
   96SAPC   O11 9380   3.578   1.705   2.245
   96SAPC    C1 9381   3.499   1.810   2.290
   96SAPC    HA 9382   3.560   1.901   2.311
   96SAPC    HB 9383   3.419   1.837   2.217
   96SAPC    C2 9384   3.428   1.767   2.417
   96SAPC    HS 9385   3.371   1.855   2.454
   96SAPC   O21 9386   3.520   1.712   2.511
   96SAPC   C21 9387   3.583   1.806   2.580
   96SAPC   O22 9388   3.567   1.929   2.567
   96SAPC   C22 9389   3.663   1.735   2.695
   96SAPC   H2R 9390   3.638   1.628   2.712
   96SAPC   H2S 9391   3.767   1.729   2.656
   96SAPC    C3 9392   3.318   1.669   2.380
   96SAPC    HX 9393   3.340   1.596   2.300
   96SAPC    HY 9394   3.239   1.725   2.325
   96SAPC   O31 9395   3.259   1.599   2.494
   96SAPC   C31 9396   3.316   1.490   2.526
   96SAPC   O32 9397   3.404   1.434   2.457
   96SAPC   C32 9398   3.275   1.446   2.669
   96SAPC   H2X 9399   3.279   1.338   2.691
   96SAPC   H2Y 9400   3.166   1.466   2.674
   96SAPC   C23 9401   3.664   1.824   2.821
   96SAPC   H3R 9402   3.560   1.859   2.839
   96SAPC   H3S 9403   3.722   1.911   2.784
   96SAPC   C24 9404   3.739   1.759   2.939
   96SAPC   H4R 9405   3.847   1.746   2.916
   96SAPC   H4S 9406   3.709   1.652   2.947
   96SAPC   C25 9407   3.719   1.838   3.069
   96SAPC   H5R 9408   3.654   1.926   3.065
   96SAPC   C26 9409   3.754   1.800   3.192
   96SAPC   H6R 9410   3.735   1.872   3.272
   96SAPC   C27 9411   3.850   1.686   3.216
   96SAPC   H7R 9412   3.947   1.724   3.256
   96SAPC   H7S 9413   3.874   1.623   3.128
   96SAPC   C28 9414   3.773   1.598   3.311
   96SAPC   H8R 9415   3.708   1.528   3.256
   96SAPC   C29 9416   3.776   1.594   3.445
   96SAPC   H9R 9417   3.720   1.513   3.494
   96SAPC  C210 9418   3.855   1.684   3.540
   96SAPC  H10R 9419   3.930   1.740   3.480
   96SAPC  H10S 9420   3.910   1.626   3.617
   96SAPC  C211 9421   3.765   1.783   3.619
   96SAPC  H11R 9422   3.683   1.815   3.554
   96SAPC  C212 9423   3.771   1.827   3.745
   96SAPC  H12R 9424   3.687   1.890   3.777
   96SAPC  C213 9425   3.878   1.804   3.850
   96SAPC  H13R 9426   3.974   1.784   3.799
   96SAPC  H13S 9427   3.840   1.711   3.897
   96SAPC  C214 9428   3.882   1.914   3.951
   96SAPC  H14R 9429   3.810   1.996   3.932
   96SAPC  C215 9430   3.987   1.936   4.037
   96SAPC  H15R 9431   3.973   2.021   4.105
   96SAPC  C216 9432   4.103   1.847   4.055
   96SAPC  H16R 9433   4.197   1.905   4.042
   96SAPC  H16S 9434   4.106   1.767   3.977
   96SAPC  C217 9435   4.100   1.767   4.184
   96SAPC  H17R 9436   4.188   1.700   4.187
   96SAPC  H17S 9437   4.004   1.715   4.202
   96SAPC  C218 9438   4.120   1.864   4.299
   96SAPC  H18R 9439   4.028   1.925   4.317
   96SAPC  H18S 9440   4.200   1.934   4.267
   96SAPC  C219 9441   4.164   1.802   4.431
   96SAPC  H19R 9442   4.264   1.755   4.414
   96SAPC  H19S 9443   4.096   1.717   4.455
   96SAPC  C220 9444   4.158   1.887   4.555
   96SAPC  H20R 9445   4.053   1.908   4.584
   96SAPC  H20S 9446   4.209   1.985   4.541
   96SAPC  H20T 9447   4.198   1.838   4.646
   96SAPC   C33 9448   3.335   1.541   2.778
   96SAPC   H3X 9449   3.305   1.645   2.754
   96SAPC   H3Y 9450   3.444   1.527   2.761
   96SAPC   C34 9451   3.275   1.515   2.914
   96SAPC   H4X 9452   3.247   1.407   2.918
   96SAPC   H4Y 9453   3.178   1.568   2.924
   96SAPC   C35 9454   3.364   1.550   3.031
   96SAPC   H5X 9455   3.358   1.660   3.048
   96SAPC   H5Y 9456   3.468   1.511   3.023
   96SAPC   C36 9457   3.319   1.462   3.151
   96SAPC   H6X 9458   3.335   1.355   3.126
   96SAPC   H6Y 9459   3.209   1.472   3.154
   96SAPC   C37 9460   3.390   1.494   3.280
   96SAPC   H7X 9461   3.380   1.605   3.288
   96SAPC   H7Y 9462   3.498   1.473   3.274
   96SAPC   C38 9463   3.341   1.426   3.407
   96SAPC   H8X 9464   3.360   1.317   3.410
   96SAPC   H8Y 9465   3.231   1.444   3.411
   96SAPC   C39 9466   3.403   1.493   3.527
   96SAPC   H9X 9467   3.386   1.601   3.508
   96SAPC   H9Y 9468   3.514   1.484   3.519
   96SAPC  C310 9469   3.359   1.450   3.667
   96SAPC  H10X 9470   3.366   1.340   3.674
   96SAPC  H10Y 9471   3.250   1.469   3.674
   96SAPC  C311 9472   3.433   1.529   3.777
   96SAPC  H11X 9473   3.450   1.635   3.748
   96SAPC  H11Y 9474   3.531   1.482   3.800
   96SAPC  C312 9475   3.357   1.538   3.907
   96SAPC  H12X 9476   3.362   1.439   3.957
   96SAPC  H12Y 9477   3.254   1.574   3.889
   96SAPC  C313 9478   3.416   1.635   4.009
   96SAPC  H13X 9479   3.379   1.626   4.113
   96SAPC  H13Y 9480   3.381   1.739   3.993
   96SAPC  C314 9481   3.569   1.630   4.020
   96SAPC  H14X 9482   3.614   1.681   3.931
   96SAPC  H14Y 9483   3.598   1.523   4.026
   96SAPC  C315 9484   3.626   1.708   4.140
   96SAPC  H15X 9485   3.577   1.806   4.159
   96SAPC  H15Y 9486   3.731   1.733   4.114
   96SAPC  C316 9487   3.628   1.617   4.263
   96SAPC  H16X 9488   3.675   1.517   4.254
   96SAPC  H16Y 9489   3.520   1.598   4.279
   96SAPC  C317 9490   3.693   1.695   4.381
   96SAPC  H17X 9491   3.626   1.779   4.410
   96SAPC  H17Y 9492   3.788   1.742   4.349
   96SAPC  C318 9493   3.726   1.608   4.495
   96SAPC  H18X 9494   3.632   1.565   4.537
   96SAPC  H18Y 9495   3.767   1.664   4.582
   96SAPC  H18Z 9496   3.798   1.529   4.464
   97SAPC     N 9497   2.943   0.380   1.633
   97SAPC   C12 9498   2.925   0.400   1.779
   97SAPC  H12A 9499   2.882   0.497   1.799
   97SAPC  H12B 9500   3.025   0.380   1.813
   97SAPC   C13 9501   3.037   0.486   1.589
   97SAPC  H13A 9502   3.062   0.472   1.484
   97SAPC  H13B 9503   2.995   0.584   1.606
   97SAPC  H13C 9504   3.131   0.478   1.642
   97SAPC   C14 9505   3.008   0.252   1.602
   97SAPC  H14A 9506   3.018   0.232   1.496
   97SAPC  H14B 9507   3.101   0.236   1.654
   97SAPC  H14C 9508   2.938   0.180   1.641
   97SAPC   C15 9509   2.806   0.391   1.575
   97SAPC  H15A 9510   2.773   0.491   1.599
   97SAPC  H15B 9511   2.795   0.384   1.468
   97SAPC  H15C 9512   2.744   0.315   1.622
   97SAPC   C11 9513   2.841   0.297   1.856
   97SAPC  H11A 9514   2.737   0.302   1.818
   97SAPC  H11B 9515   2.836   0.330   1.962
   97SAPC     P 9516   2.999   0.095   1.924
   97SAPC   O13 9517   2.972   6.807   1.921
   97SAPC   O14 9518   3.126   0.145   1.873
   97SAPC   O12 9519   2.884   0.164   1.844
   97SAPC   O11 9520   2.964   0.146   2.071
   97SAPC    C1 9521   3.062   0.194   2.158
   97SAPC    HA 9522   3.136   0.253   2.099
   97SAPC    HB 9523   3.029   0.257   2.243
   97SAPC    C2 9524   3.162   0.088   2.225
   97SAPC    HS 9525   3.216   0.026   2.151
   97SAPC   O21 9526   3.087   0.004   2.317
   97SAPC   C21 9527   3.156   6.774   2.390
   97SAPC   O22 9528   3.267   6.735   2.368
   97SAPC   C22 9529   3.069   6.736   2.516
   97SAPC   H2R 9530   2.973   6.793   2.518
   97SAPC   H2S 9531   3.051   6.627   2.499
   97SAPC    C3 9532   3.276   0.171   2.306
   97SAPC    HX 9533   3.340   0.227   2.234
   97SAPC    HY 9534   3.344   0.092   2.344
   97SAPC   O31 9535   3.226   0.275   2.399
   97SAPC   C31 9536   3.284   0.272   2.515
   97SAPC   O32 9537   3.384   0.211   2.543
   97SAPC   C32 9538   3.198   0.352   2.605
   97SAPC   H2X 9539   3.091   0.324   2.599
   97SAPC   H2Y 9540   3.215   0.459   2.583
   97SAPC   C23 9541   3.159   6.755   2.645
   97SAPC   H3R 9542   3.170   0.009   2.666
   97SAPC   H3S 9543   3.255   6.703   2.625
   97SAPC   C24 9544   3.093   6.678   2.770
   97SAPC   H4R 9545   3.180   6.665   2.838
   97SAPC   H4S 9546   3.069   6.573   2.740
   97SAPC   C25 9547   2.982   6.747   2.843
   97SAPC   H5R 9548   2.912   6.803   2.779
   97SAPC   C26 9549   2.976   6.760   2.978
   97SAPC   H6R 9550   2.894   6.816   3.027
   97SAPC   C27 9551   3.070   6.695   3.071
   97SAPC   H7R 9552   3.174   6.713   3.038
   97SAPC   H7S 9553   3.077   6.585   3.055
   97SAPC   C28 9554   3.054   6.708   3.220
   97SAPC   H8R 9555   3.137   6.765   3.265
   97SAPC   C29 9556   2.952   6.672   3.300
   97SAPC   H9R 9557   2.955   6.694   3.407
   97SAPC  C210 9558   2.823   6.605   3.267
   97SAPC  H10R 9559   2.777   6.638   3.171
   97SAPC  H10S 9560   2.741   6.625   3.339
   97SAPC  C211 9561   2.838   6.452   3.248
   97SAPC  H11R 9562   2.914   6.409   3.180
   97SAPC  C212 9563   2.770   6.356   3.311
   97SAPC  H12R 9564   2.804   6.253   3.293
   97SAPC  C213 9565   2.655   6.376   3.409
   97SAPC  H13R 9566   2.606   6.473   3.387
   97SAPC  H13S 9567   2.704   6.392   3.508
   97SAPC  C214 9568   2.549   6.269   3.392
   97SAPC  H14R 9569   2.482   6.286   3.305
   97SAPC  C215 9570   2.534   6.157   3.463
   97SAPC  H15R 9571   2.459   6.085   3.428
   97SAPC  C216 9572   2.613   6.127   3.592
   97SAPC  H16R 9573   2.723   6.143   3.590
   97SAPC  H16S 9574   2.600   6.017   3.601
   97SAPC  C217 9575   2.551   6.181   3.720
   97SAPC  H17R 9576   2.448   6.140   3.724
   97SAPC  H17S 9577   2.546   6.292   3.714
   97SAPC  C218 9578   2.622   6.140   3.855
   97SAPC  H18R 9579   2.726   6.178   3.851
   97SAPC  H18S 9580   2.643   6.032   3.870
   97SAPC  C219 9581   2.552   6.203   3.973
   97SAPC  H19R 9582   2.443   6.182   3.971
   97SAPC  H19S 9583   2.576   6.312   3.969
   97SAPC  C220 9584   2.605   6.134   4.098
   97SAPC  H20R 9585   2.539   6.159   4.185
   97SAPC  H20S 9586   2.711   6.162   4.117
   97SAPC  H20T 9587   2.605   6.025   4.081
   97SAPC   C33 9588   3.243   0.333   2.750
   97SAPC   H3X 9589   3.340   0.387   2.764
   97SAPC   H3Y 9590   3.258   0.226   2.775
   97SAPC   C34 9591   3.136   0.398   2.844
   97SAPC   H4X 9592   3.035   0.351   2.840
   97SAPC   H4Y 9593   3.124   0.501   2.804
   97SAPC   C35 9594   3.182   0.410   2.990
   97SAPC   H5X 9595   3.110   0.461   3.058
   97SAPC   H5Y 9596   3.279   0.463   3.003
   97SAPC   C36 9597   3.216   0.267   3.040
   97SAPC   H6X 9598   3.310   0.235   2.991
   97SAPC   H6Y 9599   3.144   0.194   2.997
   97SAPC   C37 9600   3.231   0.241   3.189
   97SAPC   H7X 9601   3.258   0.136   3.214
   97SAPC   H7Y 9602   3.129   0.251   3.231
   97SAPC   C38 9603   3.316   0.335   3.270
   97SAPC   H8X 9604   3.279   0.434   3.235
   97SAPC   H8Y 9605   3.422   0.334   3.237
   97SAPC   C39 9606   3.302   0.329   3.419
   97SAPC   H9X 9607   3.200   0.344   3.459
   97SAPC   H9Y 9608   3.363   0.414   3.456
   97SAPC  C310 9609   3.367   0.198   3.478
   97SAPC  H10X 9610   3.410   0.139   3.394
   97SAPC  H10Y 9611   3.280   0.146   3.522
   97SAPC  C311 9612   3.469   0.236   3.590
   97SAPC  H11X 9613   3.399   0.261   3.673
   97SAPC  H11Y 9614   3.529   0.315   3.540
   97SAPC  C312 9615   3.551   0.109   3.625
   97SAPC  H12X 9616   3.577   0.066   3.525
   97SAPC  H12Y 9617   3.482   0.034   3.670
   97SAPC  C313 9618   3.671   0.123   3.719
   97SAPC  H13X 9619   3.736   0.202   3.676
   97SAPC  H13Y 9620   3.720   0.024   3.711
   97SAPC  C314 9621   3.631   0.177   3.852
   97SAPC  H14X 9622   3.539   0.118   3.876
   97SAPC  H14Y 9623   3.589   0.279   3.843
   97SAPC  C315 9624   3.727   0.159   3.972
   97SAPC  H15X 9625   3.819   0.221   3.964
   97SAPC  H15Y 9626   3.767   0.055   3.972
   97SAPC  C316 9627   3.657   0.186   4.102
   97SAPC  H16X 9628   3.570   0.119   4.097
   97SAPC  H16Y 9629   3.623   0.292   4.100
   97SAPC  C317 9630   3.750   0.164   4.222
   97SAPC  H17X 9631   3.835   0.234   4.214
   97SAPC  H17Y 9632   3.797   0.064   4.207
   97SAPC  C318 9633   3.692   0.184   4.362
   97SAPC  H18X 9634   3.666   0.285   4.402
   97SAPC  H18Y 9635   3.766   0.149   4.438
   97SAPC  H18Z 9636   3.620   0.103   4.385
   98SAPC     N 9637   6.426   1.486   2.395
   98SAPC   C12 9638   6.329   1.450   2.503
   98SAPC  H12A 9639   6.236   1.434   2.451
   98SAPC  H12B 9640   6.319   1.529   2.575
   98SAPC   C13 9641   6.405   1.389   2.282
   98SAPC  H13A 9642   6.313   1.405   2.228
   98SAPC  H13B 9643   6.479   1.416   2.208
   98SAPC  H13C 9644   6.420   1.289   2.319
   98SAPC   C14 9645   6.392   1.620   2.339
   98SAPC  H14A 9646   6.420   1.707   2.396
   98SAPC  H14B 9647   6.447   1.624   2.246
   98SAPC  H14C 9648   6.289   1.629   2.310
   98SAPC   C15 9649   6.569   1.479   2.435
   98SAPC  H15A 9650   6.598   1.380   2.466
   98SAPC  H15B 9651   6.623   1.501   2.344
   98SAPC  H15C 9652   6.590   1.557   2.506
   98SAPC   C11 9653   6.352   1.317   2.586
   98SAPC  H11A 9654   6.277   1.311   2.668
   98SAPC  H11B 9655   6.454   1.309   2.630
   98SAPC     P 9656   6.193   1.125   2.491
   98SAPC   O13 9657   6.085   1.225   2.453
   98SAPC   O14 9658   6.222   1.014   2.399
   98SAPC   O12 9659   6.329   1.200   2.501
   98SAPC   O11 9660   6.163   1.072   2.638
   98SAPC    C1 9661   6.049   1.118   2.719
   98SAPC    HA 9662   6.044   1.229   2.728
   98SAPC    HB 9663   5.954   1.081   2.675
   98SAPC    C2 9664   6.060   1.055   2.855
   98SAPC    HS 9665   5.996   1.108   2.928
   98SAPC   O21 9666   6.202   1.047   2.899
   98SAPC   C21 9667   6.260   1.169   2.922
   98SAPC   O22 9668   6.195   1.267   2.944
   98SAPC   C22 9669   6.409   1.169   2.918
   98SAPC   H2R 9670   6.433   1.092   2.995
   98SAPC   H2S 9671   6.435   1.142   2.813
   98SAPC    C3 9672   6.022   0.915   2.845
   98SAPC    HX 9673   6.085   0.853   2.778
   98SAPC    HY 9674   5.921   0.907   2.798
   98SAPC   O31 9675   6.008   0.858   2.980
   98SAPC   C31 9676   6.117   0.787   3.016
   98SAPC   O32 9677   6.212   0.753   2.953
   98SAPC   C32 9678   6.106   0.752   3.163
   98SAPC   H2X 9679   6.038   0.825   3.212
   98SAPC   H2Y 9680   6.208   0.757   3.208
   98SAPC   C23 9681   6.468   1.306   2.967
   98SAPC   H3R 9682   6.458   1.297   3.077
   98SAPC   H3S 9683   6.405   1.395   2.943
   98SAPC   C24 9684   6.621   1.329   2.921
   98SAPC   H4R 9685   6.643   1.438   2.910
   98SAPC   H4S 9686   6.620   1.296   2.816
   98SAPC   C25 9687   6.714   1.248   3.006
   98SAPC   H5R 9688   6.721   1.146   2.967
   98SAPC   C26 9689   6.780   1.287   3.116
   98SAPC   H6R 9690   6.839   1.219   3.179
   98SAPC   C27 9691   6.769   1.416   3.187
   98SAPC   H7R 9692   6.676   1.471   3.159
   98SAPC   H7S 9693   0.003   1.472   3.150
   98SAPC   C28 9694   6.765   1.399   3.336
   98SAPC   H8R 9695   6.853   1.432   3.394
   98SAPC   C29 9696   6.660   1.363   3.411
   98SAPC   H9R 9697   6.680   1.357   3.519
   98SAPC  C210 9698   6.522   1.331   3.357
   98SAPC  H10R 9699   6.525   1.224   3.325
   98SAPC  H10S 9700   6.496   1.387   3.264
   98SAPC  C211 9701   6.414   1.351   3.456
   98SAPC  H11R 9702   6.435   1.411   3.545
   98SAPC  C212 9703   6.286   1.307   3.438
   98SAPC  H12R 9704   6.217   1.315   3.523
   98SAPC  C213 9705   6.225   1.241   3.315
   98SAPC  H13R 9706   6.309   1.216   3.247
   98SAPC  H13S 9707   6.167   1.320   3.262
   98SAPC  C214 9708   6.143   1.116   3.342
   98SAPC  H14R 9709   6.040   1.127   3.306
   98SAPC  C215 9710   6.187   1.007   3.410
   98SAPC  H15R 9711   6.125   0.918   3.394
   98SAPC  C216 9712   6.324   0.975   3.471
   98SAPC  H16R 9713   6.300   0.952   3.577
   98SAPC  H16S 9714   6.379   1.070   3.489
   98SAPC  C217 9715   6.408   0.869   3.401
   98SAPC  H17R 9716   6.343   0.780   3.391
   98SAPC  H17S 9717   6.490   0.835   3.468
   98SAPC  C218 9718   6.466   0.917   3.267
   98SAPC  H18R 9719   6.548   0.989   3.286
   98SAPC  H18S 9720   6.383   0.951   3.201
   98SAPC  C219 9721   6.531   0.800   3.189
   98SAPC  H19R 9722   6.453   0.723   3.170
   98SAPC  H19S 9723   6.614   0.749   3.241
   98SAPC  C220 9724   6.565   0.847   3.048
   98SAPC  H20R 9725   6.473   0.875   2.993
   98SAPC  H20S 9726   6.620   0.776   2.983
   98SAPC  H20T 9727   6.631   0.936   3.064
   98SAPC   C33 9728   6.045   0.610   3.178
   98SAPC   H3X 9729   6.116   0.533   3.142
   98SAPC   H3Y 9730   5.953   0.590   3.118
   98SAPC   C34 9731   6.015   0.587   3.327
   98SAPC   H4X 9732   5.932   0.515   3.344
   98SAPC   H4Y 9733   5.976   0.683   3.368
   98SAPC   C35 9734   6.128   0.534   3.415
   98SAPC   H5X 9735   6.213   0.604   3.401
   98SAPC   H5Y 9736   6.165   0.433   3.388
   98SAPC   C36 9737   6.086   0.530   3.563
   98SAPC   H6X 9738   6.033   0.626   3.581
   98SAPC   H6Y 9739   6.178   0.521   3.624
   98SAPC   C37 9740   5.995   0.413   3.606
   98SAPC   H7X 9741   6.033   0.314   3.574
   98SAPC   H7Y 9742   5.895   0.435   3.561
   98SAPC   C38 9743   5.965   0.426   3.754
   98SAPC   H8X 9744   5.924   0.527   3.772
   98SAPC   H8Y 9745   6.063   0.410   3.804
   98SAPC   C39 9746   5.865   0.321   3.806
   98SAPC   H9X 9747   5.919   0.225   3.791
   98SAPC   H9Y 9748   5.775   0.316   3.741
   98SAPC  C310 9749   5.829   0.342   3.958
   98SAPC  H10X 9750   5.771   0.436   3.967
   98SAPC  H10Y 9751   5.928   0.357   4.006
   98SAPC  C311 9752   5.773   0.220   4.026
   98SAPC  H11X 9753   5.848   0.139   4.023
   98SAPC  H11Y 9754   5.693   0.183   3.959
   98SAPC  C312 9755   5.737   0.243   4.182
   98SAPC  H12X 9756   5.823   0.279   4.243
   98SAPC  H12Y 9757   5.705   0.143   4.218
   98SAPC  C313 9758   5.641   0.355   4.213
   98SAPC  H13X 9759   5.562   0.375   4.137
   98SAPC  H13Y 9760   5.695   0.452   4.210
   98SAPC  C314 9761   5.584   0.330   4.351
   98SAPC  H14X 9762   5.670   0.325   4.422
   98SAPC  H14Y 9763   5.541   0.229   4.367
   98SAPC  C315 9764   5.488   0.443   4.393
   98SAPC  H15X 9765   5.458   0.491   4.298
   98SAPC  H15Y 9766   5.539   0.523   4.452
   98SAPC  C316 9767   5.353   0.406   4.448
   98SAPC  H16X 9768   5.318   0.329   4.375
   98SAPC  H16Y 9769   5.281   0.491   4.441
   98SAPC  C317 9770   5.368   0.342   4.583
   98SAPC  H17X 9771   5.384   0.424   4.656
   98SAPC  H17Y 9772   5.449   0.266   4.575
   98SAPC  C318 9773   5.245   0.251   4.613
   98SAPC  H18X 9774   5.155   0.308   4.582
   98SAPC  H18Y 9775   5.241   0.216   4.718
   98SAPC  H18Z 9776   5.249   0.167   4.540
   99SAPC     N 9777   3.674   4.679   1.711
   99SAPC   C12 9778   3.744   4.819   1.710
   99SAPC  H12A 9779   3.744   4.859   1.610
   99SAPC  H12B 9780   3.848   4.799   1.732
   99SAPC   C13 9781   3.661   4.623   1.852
   99SAPC  H13A 9782   3.582   4.550   1.853
   99SAPC  H13B 9783   3.744   4.576   1.902
   99SAPC  H13C 9784   3.627   4.701   1.919
   99SAPC   C14 9785   3.540   4.698   1.646
   99SAPC  H14A 9786   3.482   4.769   1.702
   99SAPC  H14B 9787   3.545   4.716   1.540
   99SAPC  H14C 9788   3.485   4.606   1.661
   99SAPC   C15 9789   3.749   4.577   1.628
   99SAPC  H15A 9790   3.697   4.482   1.626
   99SAPC  H15B 9791   3.763   4.611   1.526
   99SAPC  H15C 9792   3.848   4.570   1.671
   99SAPC   C11 9793   3.689   4.924   1.809
   99SAPC  H11A 9794   3.768   5.001   1.818
   99SAPC  H11B 9795   3.676   4.877   1.909
   99SAPC     P 9796   3.437   4.998   1.832
   99SAPC   O13 9797   3.430   5.140   1.879
   99SAPC   O14 9798   3.324   4.940   1.750
   99SAPC   O12 9799   3.573   4.980   1.750
   99SAPC   O11 9800   3.457   4.903   1.957
   99SAPC    C1 9801   3.360   4.808   1.999
   99SAPC    HA 9802   3.314   4.758   1.911
   99SAPC    HB 9803   3.418   4.732   2.055
   99SAPC    C2 9804   3.256   4.873   2.096
   99SAPC    HS 9805   3.237   4.967   2.039
   99SAPC   O21 9806   3.320   4.887   2.220
   99SAPC   C21 9807   3.249   4.964   2.298
   99SAPC   O22 9808   3.160   5.035   2.257
   99SAPC   C22 9809   3.304   4.966   2.440
   99SAPC   H2R 9810   3.319   4.861   2.473
   99SAPC   H2S 9811   3.403   5.015   2.438
   99SAPC    C3 9812   3.141   4.770   2.104
   99SAPC    HX 9813   3.116   4.751   1.997
   99SAPC    HY 9814   3.051   4.815   2.150
   99SAPC   O31 9815   3.177   4.641   2.161
   99SAPC   C31 9816   3.154   4.621   2.289
   99SAPC   O32 9817   3.094   4.701   2.361
   99SAPC   C32 9818   3.187   4.477   2.329
   99SAPC   H2X 9819   3.268   4.437   2.265
   99SAPC   H2Y 9820   3.095   4.416   2.318
   99SAPC   C23 9821   3.221   5.039   2.553
   99SAPC   H3R 9822   3.153   4.965   2.600
   99SAPC   H3S 9823   3.156   5.119   2.510
   99SAPC   C24 9824   3.309   5.108   2.658
   99SAPC   H4R 9825   3.253   5.158   2.740
   99SAPC   H4S 9826   3.369   5.191   2.614
   99SAPC   C25 9827   3.400   5.014   2.727
   99SAPC   H5R 9828   3.490   4.999   2.665
   99SAPC   C26 9829   3.390   4.963   2.854
   99SAPC   H6R 9830   3.469   4.898   2.893
   99SAPC   C27 9831   3.283   4.987   2.953
   99SAPC   H7R 9832   3.265   4.888   2.999
   99SAPC   H7S 9833   3.189   5.009   2.898
   99SAPC   C28 9834   3.315   5.095   3.051
   99SAPC   H8R 9835   3.292   5.191   3.003
   99SAPC   C29 9836   3.354   5.075   3.181
   99SAPC   H9R 9837   3.379   5.165   3.239
   99SAPC  C210 9838   3.382   4.954   3.262
   99SAPC  H10R 9839   3.445   4.985   3.348
   99SAPC  H10S 9840   3.448   4.879   3.215
   99SAPC  C211 9841   3.252   4.892   3.297
   99SAPC  H11R 9842   3.188   4.845   3.221
   99SAPC  C212 9843   3.200   4.913   3.418
   99SAPC  H12R 9844   3.115   4.853   3.455
   99SAPC  C213 9845   3.261   4.999   3.526
   99SAPC  H13R 9846   3.303   5.097   3.495
   99SAPC  H13S 9847   3.345   4.950   3.580
   99SAPC  C214 9848   3.164   5.031   3.634
   99SAPC  H14R 9849   3.108   5.125   3.621
   99SAPC  C215 9850   3.124   4.952   3.733
   99SAPC  H15R 9851   3.053   4.998   3.803
   99SAPC  C216 9852   3.172   4.812   3.767
   99SAPC  H16R 9853   3.235   4.810   3.858
   99SAPC  H16S 9854   3.239   4.775   3.686
   99SAPC  C217 9855   3.062   4.709   3.773
   99SAPC  H17R 9856   3.117   4.614   3.792
   99SAPC  H17S 9857   3.011   4.697   3.675
   99SAPC  C218 9858   2.966   4.732   3.895
   99SAPC  H18R 9859   2.917   4.831   3.878
   99SAPC  H18S 9860   3.025   4.745   3.988
   99SAPC  C219 9861   2.856   4.620   3.899
   99SAPC  H19R 9862   2.784   4.647   3.979
   99SAPC  H19S 9863   2.910   4.528   3.932
   99SAPC  C220 9864   2.785   4.596   3.767
   99SAPC  H20R 9865   2.756   4.696   3.728
   99SAPC  H20S 9866   2.684   4.551   3.778
   99SAPC  H20T 9867   2.850   4.547   3.691
   99SAPC   C33 9868   3.244   4.471   2.472
   99SAPC   H3X 9869   3.230   4.369   2.514
   99SAPC   H3Y 9870   3.184   4.540   2.537
   99SAPC   C34 9871   3.389   4.526   2.475
   99SAPC   H4X 9872   3.398   4.601   2.393
   99SAPC   H4Y 9873   3.463   4.445   2.455
   99SAPC   C35 9874   3.440   4.597   2.600
   99SAPC   H5X 9875   3.361   4.664   2.641
   99SAPC   H5Y 9876   3.522   4.669   2.579
   99SAPC   C36 9877   3.480   4.504   2.715
   99SAPC   H6X 9878   3.553   4.427   2.680
   99SAPC   H6Y 9879   3.388   4.447   2.743
   99SAPC   C37 9880   3.516   4.587   2.831
   99SAPC   H7X 9881   3.430   4.653   2.857
   99SAPC   H7Y 9882   3.594   4.661   2.804
   99SAPC   C38 9883   3.576   4.510   2.949
   99SAPC   H8X 9884   3.670   4.464   2.912
   99SAPC   H8Y 9885   3.492   4.440   2.970
   99SAPC   C39 9886   3.600   4.586   3.077
   99SAPC   H9X 9887   3.523   4.664   3.093
   99SAPC   H9Y 9888   3.696   4.639   3.058
   99SAPC  C310 9889   3.615   4.501   3.197
   99SAPC  H10X 9890   3.703   4.434   3.193
   99SAPC  H10Y 9891   3.526   4.441   3.224
   99SAPC  C311 9892   3.638   4.588   3.319
   99SAPC  H11X 9893   3.559   4.665   3.317
   99SAPC  H11Y 9894   3.738   4.638   3.314
   99SAPC  C312 9895   3.625   4.501   3.445
   99SAPC  H12X 9896   3.706   4.426   3.442
   99SAPC  H12Y 9897   3.530   4.446   3.433
   99SAPC  C313 9898   3.629   4.577   3.577
   99SAPC  H13X 9899   3.536   4.637   3.578
   99SAPC  H13Y 9900   3.707   4.655   3.585
   99SAPC  C314 9901   3.651   4.491   3.701
   99SAPC  H14X 9902   3.741   4.425   3.702
   99SAPC  H14Y 9903   3.567   4.421   3.723
   99SAPC  C315 9904   3.671   4.575   3.821
   99SAPC  H15X 9905   3.746   4.653   3.792
   99SAPC  H15Y 9906   3.715   4.526   3.910
   99SAPC  C316 9907   3.539   4.649   3.869
   99SAPC  H16X 9908   3.475   4.565   3.904
   99SAPC  H16Y 9909   3.482   4.706   3.793
   99SAPC  C317 9910   3.558   4.747   3.990
   99SAPC  H17X 9911   3.462   4.803   3.991
   99SAPC  H17Y 9912   3.638   4.816   3.953
   99SAPC  C318 9913   3.603   4.687   4.119
   99SAPC  H18X 9914   3.670   4.749   4.183
   99SAPC  H18Y 9915   3.670   4.599   4.106
   99SAPC  H18Z 9916   3.511   4.652   4.171
  100SAPC     N 9917   1.888   3.726   1.676
  100SAPC   C12 9918   1.950   3.805   1.798
  100SAPC  H12A 9919   1.930   3.910   1.779
  100SAPC  H12B 9920   2.056   3.786   1.793
  100SAPC   C13 9921   1.897   3.576   1.701
  100SAPC  H13A 9922   1.842   3.551   1.791
  100SAPC  H13B 9923   1.858   3.517   1.619
  100SAPC  H13C 9924   1.998   3.539   1.712
  100SAPC   C14 9925   1.751   3.775   1.667
  100SAPC  H14A 9926   1.744   3.882   1.658
  100SAPC  H14B 9927   1.712   3.735   1.574
  100SAPC  H14C 9928   1.692   3.750   1.754
  100SAPC   C15 9929   1.954   3.758   1.547
  100SAPC  H15A 9930   1.898   3.714   1.465
  100SAPC  H15B 9931   1.961   3.864   1.530
  100SAPC  H15C 9932   2.054   3.721   1.536
  100SAPC   C11 9933   1.897   3.777   1.941
  100SAPC  H11A 9934   1.960   3.818   2.022
  100SAPC  H11B 9935   1.913   3.668   1.956
  100SAPC     P 9936   1.735   3.965   1.995
  100SAPC   O13 9937   1.816   4.051   1.906
  100SAPC   O14 9938   1.591   3.996   1.986
  100SAPC   O12 9939   1.759   3.806   1.964
  100SAPC   O11 9940   1.776   3.981   2.145
  100SAPC    C1 9941   1.740   3.888   2.251
  100SAPC    HA 9942   1.669   3.808   2.221
  100SAPC    HB 9943   1.830   3.841   2.297
  100SAPC    C2 9944   1.670   3.959   2.373
  100SAPC    HS 9945   1.586   4.019   2.331
  100SAPC   O21 9946   1.767   4.041   2.441
  100SAPC   C21 9947   1.722   4.104   2.545
  100SAPC   O22 9948   1.603   4.119   2.569
  100SAPC   C22 9949   1.837   4.150   2.626
  100SAPC   H2R 9950   1.914   4.071   2.618
  100SAPC   H2S 9951   1.868   4.254   2.601
  100SAPC    C3 9952   1.612   3.842   2.465
  100SAPC    HX 9953   1.580   3.758   2.400
  100SAPC    HY 9954   1.515   3.880   2.503
  100SAPC   O31 9955   1.700   3.808   2.572
  100SAPC   C31 9956   1.805   3.727   2.545
  100SAPC   O32 9957   1.807   3.650   2.449
  100SAPC   C32 9958   1.899   3.730   2.665
  100SAPC   H2X 9959   1.837   3.742   2.757
  100SAPC   H2Y 9960   1.978   3.808   2.663
  100SAPC   C23 9961   1.798   4.156   2.775
  100SAPC   H3R 9962   1.699   4.201   2.798
  100SAPC   H3S 9963   1.876   4.221   2.821
  100SAPC   C24 9964   1.818   4.024   2.851
  100SAPC   H4R 9965   1.922   3.985   2.843
  100SAPC   H4S 9966   1.749   3.957   2.795
  100SAPC   C25 9967   1.779   4.035   2.996
  100SAPC   H5R 9968   1.671   4.028   3.017
  100SAPC   C26 9969   1.856   4.063   3.103
  100SAPC   H6R 9970   1.815   4.041   3.202
  100SAPC   C27 9971   2.003   4.088   3.105
  100SAPC   H7R 9972   2.036   4.143   3.014
  100SAPC   H7S 9973   2.058   3.991   3.106
  100SAPC   C28 9974   2.050   4.176   3.213
  100SAPC   H8R 9975   2.035   4.281   3.186
  100SAPC   C29 9976   2.059   4.146   3.341
  100SAPC   H9R 9977   2.089   4.217   3.420
  100SAPC  C210 9978   2.059   4.008   3.400
  100SAPC  H10R 9979   2.165   3.977   3.417
  100SAPC  H10S 9980   2.009   3.940   3.328
  100SAPC  C211 9981   1.993   4.005   3.528
  100SAPC  H11R 9982   1.896   3.953   3.521
  100SAPC  C212 9983   2.032   4.033   3.650
  100SAPC  H12R 9984   1.959   4.030   3.733
  100SAPC  C213 9985   2.167   4.087   3.692
  100SAPC  H13R 9986   2.232   4.064   3.605
  100SAPC  H13S 9987   2.207   4.036   3.782
  100SAPC  C214 9988   2.172   4.236   3.705
  100SAPC  H14R 9989   2.259   4.278   3.652
  100SAPC  C215 9990   2.097   4.316   3.782
  100SAPC  H15R 9991   2.141   4.414   3.804
  100SAPC  C216 9992   2.001   4.273   3.885
  100SAPC  H16R 9993   2.006   4.164   3.902
  100SAPC  H16S 9994   1.896   4.293   3.855
  100SAPC  C217 9995   2.023   4.350   4.020
  100SAPC  H17R 9996   2.005   4.459   4.004
  100SAPC  H17S 9997   2.130   4.335   4.045
  100SAPC  C218 9998   1.928   4.302   4.133
  100SAPC  H18R 9999   1.939   4.193   4.154
  100SAPC  H18S10000   1.825   4.319   4.096
  100SAPC  C21910001   1.947   4.382   4.253
  100SAPC  H19R10002   1.950   4.492   4.239
  100SAPC  H19S10003   2.051   4.362   4.289
  100SAPC  C22010004   1.850   4.344   4.361
  100SAPC  H20R10005   1.845   4.238   4.395
  100SAPC  H20S10006   1.748   4.381   4.333
  100SAPC  H20T10007   1.884   4.407   4.446
  100SAPC   C3310008   1.976   3.597   2.696
  100SAPC   H3X10009   2.036   3.570   2.607
  100SAPC   H3Y10010   1.893   3.524   2.709
  100SAPC   C3410011   2.057   3.599   2.825
  100SAPC   H4X10012   2.142   3.670   2.814
  100SAPC   H4Y10013   2.092   3.503   2.868
  100SAPC   C3510014   1.973   3.648   2.944
  100SAPC   H5X10015   1.871   3.604   2.942
  100SAPC   H5Y10016   1.957   3.758   2.930
  100SAPC   C3610017   2.047   3.635   3.076
  100SAPC   H6X10018   2.066   3.526   3.087
  100SAPC   H6Y10019   1.973   3.672   3.150
  100SAPC   C3710020   2.184   3.692   3.088
  100SAPC   H7X10021   2.170   3.796   3.052
  100SAPC   H7Y10022   2.253   3.626   3.030
  100SAPC   C3810023   2.228   3.706   3.232
  100SAPC   H8X10024   2.157   3.765   3.294
  100SAPC   H8Y10025   2.328   3.752   3.239
  100SAPC   C3910026   2.252   3.568   3.305
  100SAPC   H9X10027   2.355   3.534   3.282
  100SAPC   H9Y10028   2.174   3.494   3.275
  100SAPC  C31010029   2.235   3.570   3.456
  100SAPC  H10X10030   2.133   3.612   3.470
  100SAPC  H10Y10031   2.301   3.639   3.513
  100SAPC  C31110032   2.230   3.427   3.527
  100SAPC  H11X10033   2.324   3.372   3.504
  100SAPC  H11Y10034   2.143   3.374   3.482
  100SAPC  C31210035   2.214   3.448   3.676
  100SAPC  H12X10036   2.129   3.516   3.700
  100SAPC  H12Y10037   2.305   3.502   3.713
  100SAPC  C31310038   2.191   3.323   3.764
  100SAPC  H13X10039   2.293   3.280   3.764
  100SAPC  H13Y10040   2.117   3.267   3.703
  100SAPC  C31410041   2.139   3.354   3.907
  100SAPC  H14X10042   2.114   3.257   3.956
  100SAPC  H14Y10043   2.050   3.419   3.893
  100SAPC  C31510044   2.243   3.431   3.988
  100SAPC  H15X10045   2.200   3.480   4.078
  100SAPC  H15Y10046   2.300   3.503   3.925
  100SAPC  C31610047   2.352   3.340   4.052
  100SAPC  H16X10048   2.423   3.409   4.101
  100SAPC  H16Y10049   2.406   3.305   3.960
  100SAPC  C31710050   2.297   3.236   4.147
  100SAPC  H17X10051   2.235   3.161   4.093
  100SAPC  H17Y10052   2.230   3.303   4.205
  100SAPC  C31810053   2.392   3.168   4.237
  100SAPC  H18X10054   2.346   3.121   4.326
  100SAPC  H18Y10055   2.444   3.252   4.288
  100SAPC  H18Z10056   2.470   3.102   4.195
  101OSM      N10057   4.284   2.246   7.177
  101OSM    C1510058   4.402   2.332   7.201
  101OSM   H15A10059   4.492   2.292   7.157
  101OSM   H15B10060   4.425   2.338   7.306
  101OSM   H15C10061   4.396   2.434   7.167
  101OSM    C1410062   4.305   2.117   7.244
  101OSM   H14A10063   4.371   2.054   7.186
  101OSM   H14B10064   4.212   2.063   7.235
  101OSM   H14C10065   4.330   2.124   7.348
  101OSM    C1310066   4.165   2.303   7.258
  101OSM   H13A10067   4.088   2.228   7.261
  101OSM   H13B10068   4.134   2.397   7.214
  101OSM   H13C10069   4.196   2.312   7.361
  101OSM    C1210070   4.242   2.236   7.033
  101OSM   H12A10071   4.227   2.339   7.003
  101OSM   H12B10072   4.146   2.186   7.027
  101OSM    C1110073   4.333   2.173   6.926
  101OSM   H11A10074   4.278   2.168   6.829
  101OSM   H11B10075   4.346   2.067   6.957
  101OSM      P10076   4.451   2.390   6.855
  101OSM    O1310077   4.338   2.478   6.911
  101OSM    O1410078   4.590   2.440   6.869
  101OSM    O1110079   4.431   2.358   6.706
  101OSM    O1210080   4.458   2.237   6.916
  101OSM    C1S10081   4.426   2.475   6.615
  101OSM    H1S10082   4.532   2.507   6.611
  101OSM    H1T10083   4.366   2.555   6.663
  101OSM     NF10084   4.424   2.539   6.382
  101OSM    HNF10085   4.363   2.618   6.384
  101OSM    C2S10086   4.375   2.440   6.473
  101OSM    H2S10087   4.428   2.346   6.446
  101OSM    C3S10088   4.220   2.419   6.466
  101OSM    H3S10089   4.167   2.508   6.507
  101OSM     O310090   4.184   2.308   6.552
  101OSM    HO310091   4.267   2.290   6.598
  101OSM    C4S10092   4.179   2.378   6.329
  101OSM    H4S10093   4.174   2.270   6.309
  101OSM    C5S10094   4.106   2.467   6.250
  101OSM    H5S10095   4.076   2.566   6.286
  101OSM    C6S10096   4.044   2.408   6.125
  101OSM    H6S10097   3.934   2.409   6.144
  101OSM    H6T10098   4.077   2.302   6.117
  101OSM    C7S10099   4.083   2.484   5.998
  101OSM    H7S10100   4.193   2.470   5.989
  101OSM    H7T10101   4.056   2.590   6.013
  101OSM    C8S10102   4.029   2.427   5.869
  101OSM    H8S10103   3.924   2.407   5.900
  101OSM    H8T10104   4.078   2.331   5.841
  101OSM    C9S10105   4.035   2.526   5.750
  101OSM    H9S10106   4.141   2.560   5.743
  101OSM    H9T10107   3.973   2.614   5.779
  101OSM   C10S10108   3.979   2.474   5.615
  101OSM   H10S10109   3.870   2.455   5.616
  101OSM   H10T10110   4.026   2.374   5.600
  101OSM   C11S10111   4.014   2.563   5.490
  101OSM   H11S10112   4.122   2.585   5.477
  101OSM   H11T10113   3.960   2.655   5.521
  101OSM   C12S10114   3.969   2.509   5.354
  101OSM   H12S10115   3.858   2.504   5.354
  101OSM   H12T10116   4.010   2.406   5.348
  101OSM   C13S10117   4.023   2.589   5.235
  101OSM   H13S10118   4.132   2.568   5.233
  101OSM   H13T10119   4.004   2.697   5.256
  101OSM   C14S10120   3.957   2.569   5.098
  101OSM   H14S10121   3.848   2.563   5.118
  101OSM   H14T10122   3.980   2.473   5.046
  101OSM   C15S10123   3.989   2.680   4.996
  101OSM   H15S10124   4.098   2.701   4.985
  101OSM   H15T10125   3.944   2.780   5.015
  101OSM   C16S10126   3.935   2.639   4.864
  101OSM   H16S10127   3.826   2.643   4.848
  101OSM   H16T10128   3.967   2.535   4.841
  101OSM   C17S10129   4.001   2.719   4.747
  101OSM   H17S10130   4.110   2.697   4.752
  101OSM   H17T10131   3.981   2.826   4.770
  101OSM   C18S10132   3.937   2.681   4.619
  101OSM   H18S10133   3.981   2.736   4.533
  101OSM   H18T10134   3.829   2.706   4.615
  101OSM   H18U10135   3.942   2.570   4.608
  101OSM    C1F10136   4.541   2.549   6.322
  101OSM     OF10137   4.630   2.467   6.349
  101OSM    C2F10138   4.562   2.662   6.218
  101OSM    H2F10139   4.603   2.748   6.276
  101OSM    H2G10140   4.468   2.694   6.169
  101OSM    C3F10141   4.671   2.628   6.108
  101OSM    H3F10142   4.631   2.532   6.067
  101OSM    H3G10143   4.771   2.596   6.145
  101OSM    C4F10144   4.675   2.737   5.997
  101OSM    H4F10145   4.741   2.821   6.027
  101OSM    H4G10146   4.571   2.774   5.987
  101OSM    C5F10147   4.711   2.684   5.857
  101OSM    H5F10148   4.672   2.581   5.841
  101OSM    H5G10149   4.820   2.667   5.865
  101OSM    C6F10150   4.688   2.787   5.741
  101OSM    H6F10151   4.698   2.889   5.783
  101OSM    H6G10152   4.585   2.786   5.699
  101OSM    C7F10153   4.788   2.756   5.633
  101OSM    H7F10154   4.771   2.653   5.597
  101OSM    H7G10155   4.889   2.756   5.679
  101OSM    C8F10156   4.797   2.860   5.521
  101OSM    H8F10157   4.897   2.874   5.475
  101OSM    H8G10158   4.764   2.950   5.577
  101OSM    C9F10159   4.700   2.825   5.413
  101OSM    H9F10160   4.599   2.858   5.439
  101OSM   C10F10161   4.728   2.760   5.296
  101OSM   H10F10162   4.650   2.738   5.222
  101OSM   C11F10163   4.863   2.710   5.242
  101OSM   H11F10164   4.845   2.628   5.170
  101OSM   H11G10165   4.920   2.668   5.327
  101OSM   C12F10166   4.940   2.828   5.173
  101OSM   H12F10167   5.039   2.793   5.137
  101OSM   H12G10168   4.958   2.902   5.254
  101OSM   C13F10169   4.878   2.904   5.054
  101OSM   H13F10170   4.965   2.959   5.013
  101OSM   H13G10171   4.791   2.970   5.077
  101OSM   C14F10172   4.834   2.817   4.933
  101OSM   H14F10173   4.788   2.725   4.976
  101OSM   H14G10174   4.923   2.780   4.878
  101OSM   C15F10175   4.745   2.892   4.836
  101OSM   H15F10176   4.814   2.972   4.801
  101OSM   H15G10177   4.646   2.924   4.875
  101OSM   C16F10178   4.719   2.805   4.709
  101OSM   H16F10179   4.818   2.776   4.669
  101OSM   H16G10180   4.667   2.879   4.643
  101OSM   C17F10181   4.636   2.686   4.735
  101OSM   H17F10182   4.546   2.729   4.784
  101OSM   H17G10183   4.678   2.611   4.805
  101OSM   C18F10184   4.597   2.621   4.607
  101OSM   H18F10185   4.551   2.703   4.548
  101OSM   H18G10186   4.528   2.535   4.622
  101OSM   H18H10187   4.687   2.586   4.552
  102OSM      N10188   4.783   2.197   6.649
  102OSM    C1510189   4.786   2.327   6.570
  102OSM   H15A10190   4.763   2.306   6.467
  102OSM   H15B10191   4.880   2.381   6.571
  102OSM   H15C10192   4.719   2.397   6.618
  102OSM    C1410193   4.895   2.111   6.592
  102OSM   H14A10194   4.988   2.162   6.611
  102OSM   H14B10195   4.893   2.091   6.486
  102OSM   H14C10196   4.888   2.018   6.648
  102OSM    C1310197   4.804   2.228   6.796
  102OSM   H13A10198   4.713   2.262   6.844
  102OSM   H13B10199   4.878   2.304   6.811
  102OSM   H13C10200   4.820   2.133   6.845
  102OSM    C1210201   4.652   2.132   6.623
  102OSM   H12A10202   4.647   2.110   6.518
  102OSM   H12B10203   4.584   2.210   6.652
  102OSM    C1110204   4.619   2.002   6.688
  102OSM   H11A10205   4.508   1.995   6.678
  102OSM   H11B10206   4.620   2.015   6.798
  102OSM      P10207   4.650   1.755   6.625
  102OSM    O1310208   4.763   1.666   6.602
  102OSM    O1410209   4.552   1.724   6.735
  102OSM    O1110210   4.564   1.763   6.489
  102OSM    O1210211   4.704   1.900   6.643
  102OSM    C1S10212   4.642   1.770   6.373
  102OSM    H1S10213   4.665   1.670   6.331
  102OSM    H1T10214   4.738   1.825   6.381
  102OSM     NF10215   4.636   1.860   6.137
  102OSM    HNF10216   4.671   1.950   6.113
  102OSM    C2S10217   4.559   1.845   6.259
  102OSM    H2S10218   4.480   1.778   6.218
  102OSM    C3S10219   4.495   1.980   6.313
  102OSM    H3S10220   4.579   2.031   6.365
  102OSM     O310221   4.396   1.948   6.417
  102OSM    HO310222   4.430   1.869   6.458
  102OSM    C4S10223   4.433   2.060   6.199
  102OSM    H4S10224   4.336   2.018   6.168
  102OSM    C5S10225   4.481   2.176   6.158
  102OSM    H5S10226   4.577   2.208   6.201
  102OSM    C6S10227   4.416   2.272   6.065
  102OSM    H6S10228   4.424   2.368   6.120
  102OSM    H6T10229   4.309   2.249   6.045
  102OSM    C7S10230   4.486   2.283   5.929
  102OSM    H7S10231   4.482   2.188   5.871
  102OSM    H7T10232   4.592   2.309   5.950
  102OSM    C8S10233   4.421   2.392   5.843
  102OSM    H8S10234   4.417   2.488   5.898
  102OSM    H8T10235   4.313   2.374   5.825
  102OSM    C9S10236   4.479   2.408   5.701
  102OSM    H9S10237   4.465   2.307   5.658
  102OSM    H9T10238   4.590   2.410   5.708
  102OSM   C10S10239   4.417   2.530   5.629
  102OSM   H10S10240   4.449   2.622   5.683
  102OSM   H10T10241   4.307   2.516   5.639
  102OSM   C11S10242   4.460   2.557   5.480
  102OSM   H11S10243   4.571   2.561   5.472
  102OSM   H11T10244   4.418   2.655   5.450
  102OSM   C12S10245   4.411   2.458   5.377
  102OSM   H12S10246   4.300   2.454   5.369
  102OSM   H12T10247   4.437   2.355   5.412
  102OSM   C13S10248   4.456   2.498   5.241
  102OSM   H13S10249   4.566   2.507   5.230
  102OSM   H13T10250   4.416   2.600   5.224
  102OSM   C14S10251   4.394   2.402   5.131
  102OSM   H14S10252   4.288   2.388   5.162
  102OSM   H14T10253   4.443   2.302   5.123
  102OSM   C15S10254   4.409   2.461   4.992
  102OSM   H15S10255   4.514   2.497   4.981
  102OSM   H15T10256   4.338   2.545   5.006
  102OSM   C16S10257   4.367   2.369   4.885
  102OSM   H16S10258   4.417   2.271   4.893
  102OSM   H16T10259   4.403   2.410   4.788
  102OSM   C17S10260   4.219   2.351   4.873
  102OSM   H17S10261   4.164   2.447   4.868
  102OSM   H17T10262   4.175   2.303   4.964
  102OSM   C18S10263   4.174   2.263   4.756
  102OSM   H18S10264   4.067   2.254   4.728
  102OSM   H18T10265   4.196   2.161   4.793
  102OSM   H18U10266   4.229   2.279   4.661
  102OSM    C1F10267   4.662   1.754   6.061
  102OSM     OF10268   4.631   1.639   6.090
  102OSM    C2F10269   4.726   1.782   5.923
  102OSM    H2F10270   4.673   1.720   5.847
  102OSM    H2G10271   4.833   1.757   5.915
  102OSM    C3F10272   4.708   1.934   5.878
  102OSM    H3F10273   4.759   2.005   5.946
  102OSM    H3G10274   4.598   1.947   5.871
  102OSM    C4F10275   4.766   1.958   5.745
  102OSM    H4F10276   4.876   1.946   5.751
  102OSM    H4G10277   4.750   2.064   5.715
  102OSM    C5F10278   4.711   1.872   5.630
  102OSM    H5F10279   4.605   1.849   5.653
  102OSM    H5G10280   4.764   1.775   5.622
  102OSM    C6F10281   4.725   1.931   5.490
  102OSM    H6F10282   4.723   1.857   5.407
  102OSM    H6G10283   4.823   1.982   5.497
  102OSM    C7F10284   4.618   2.029   5.446
  102OSM    H7F10285   4.581   2.090   5.531
  102OSM    H7G10286   4.522   1.976   5.429
  102OSM    C8F10287   4.651   2.105   5.318
  102OSM    H8F10288   4.559   2.141   5.267
  102OSM    H8G10289   4.698   2.029   5.252
  102OSM    C9F10290   4.736   2.229   5.337
  102OSM    H9F10291   4.704   2.294   5.420
  102OSM   C10F10292   4.848   2.257   5.264
  102OSM   H10F10293   4.897   2.350   5.295
  102OSM   C11F10294   4.910   2.172   5.158
  102OSM   H11F10295   4.874   2.068   5.172
  102OSM   H11G10296   5.021   2.166   5.165
  102OSM   C12F10297   4.864   2.218   5.017
  102OSM   H12F10298   4.754   2.203   5.015
  102OSM   H12G10299   4.897   2.138   4.947
  102OSM   C13F10300   4.899   2.362   4.979
  102OSM   H13F10301   4.922   2.424   5.068
  102OSM   H13G10302   4.826   2.410   4.910
  102OSM   C14F10303   5.032   2.356   4.901
  102OSM   H14F10304   5.048   2.261   4.844
  102OSM   H14G10305   5.111   2.359   4.978
  102OSM   C15F10306   5.083   2.484   4.819
  102OSM   H15F10307   5.188   2.462   4.795
  102OSM   H15G10308   5.080   2.579   4.876
  102OSM   C16F10309   5.009   2.506   4.693
  102OSM   H16F10310   5.022   2.613   4.668
  102OSM   H16G10311   4.902   2.476   4.705
  102OSM   C17F10312   5.061   2.419   4.576
  102OSM   H17F10313   5.045   2.310   4.586
  102OSM   H17G10314   5.170   2.437   4.565
  102OSM   C18F10315   5.005   2.477   4.448
  102OSM   H18F10316   5.045   2.412   4.368
  102OSM   H18G10317   5.038   2.583   4.441
  102OSM   H18H10318   4.894   2.473   4.445
  103OSM      N10319   4.562   5.110   6.463
  103OSM    C1510320   4.658   5.217   6.497
  103OSM   H15A10321   4.628   5.311   6.454
  103OSM   H15B10322   4.760   5.203   6.462
  103OSM   H15C10323   4.673   5.228   6.603
  103OSM    C1410324   4.569   5.074   6.324
  103OSM   H14A10325   4.491   5.006   6.291
  103OSM   H14B10326   4.661   5.019   6.313
  103OSM   H14C10327   4.572   5.151   6.248
  103OSM    C1310328   4.584   4.988   6.542
  103OSM   H13A10329   4.580   4.993   6.650
  103OSM   H13B10330   4.681   4.951   6.513
  103OSM   H13C10331   4.517   4.909   6.510
  103OSM    C1210332   4.423   5.176   6.489
  103OSM   H12A10333   4.427   5.274   6.444
  103OSM   H12B10334   4.418   5.192   6.596
  103OSM    C1110335   4.285   5.109   6.460
  103OSM   H11A10336   4.278   5.088   6.351
  103OSM   H11B10337   4.207   5.185   6.484
  103OSM      P10338   4.181   4.866   6.510
  103OSM    O1310339   4.196   4.771   6.627
  103OSM    O1410340   4.041   4.894   6.454
  103OSM    O1110341   4.270   4.799   6.394
  103OSM    O1210342   4.268   4.995   6.541
  103OSM    C1S10343   4.308   4.657   6.407
  103OSM    H1S10344   4.226   4.594   6.446
  103OSM    H1T10345   4.395   4.649   6.477
  103OSM     NF10346   4.394   4.458   6.297
  103OSM    HNF10347   4.488   4.428   6.284
  103OSM    C2S10348   4.345   4.592   6.271
  103OSM    H2S10349   4.255   4.584   6.207
  103OSM    C3S10350   4.445   4.679   6.179
  103OSM    H3S10351   4.542   4.681   6.234
  103OSM     O310352   4.405   4.816   6.176
  103OSM    HO310353   4.352   4.817   6.256
  103OSM    C4S10354   4.461   4.614   6.043
  103OSM    H4S10355   4.546   4.546   6.033
  103OSM    C5S10356   4.385   4.632   5.932
  103OSM    H5S10357   4.310   4.712   5.919
  103OSM    C6S10358   4.418   4.555   5.806
  103OSM    H6S10359   4.337   4.485   5.777
  103OSM    H6T10360   4.509   4.495   5.822
  103OSM    C7S10361   4.445   4.660   5.687
  103OSM    H7S10362   4.525   4.733   5.715
  103OSM    H7T10363   4.352   4.716   5.663
  103OSM    C8S10364   4.498   4.590   5.555
  103OSM    H8S10365   4.427   4.505   5.539
  103OSM    H8T10366   4.596   4.540   5.567
  103OSM    C9S10367   4.504   4.680   5.429
  103OSM    H9S10368   4.582   4.756   5.454
  103OSM    H9T10369   4.406   4.729   5.412
  103OSM   C10S10370   4.544   4.596   5.304
  103OSM   H10S10371   4.468   4.517   5.286
  103OSM   H10T10372   4.635   4.544   5.339
  103OSM   C11S10373   4.571   4.669   5.175
  103OSM   H11S10374   4.640   4.749   5.210
  103OSM   H11T10375   4.481   4.721   5.136
  103OSM   C12S10376   4.638   4.581   5.074
  103OSM   H12S10377   4.561   4.511   5.035
  103OSM   H12T10378   4.721   4.521   5.116
  103OSM   C13S10379   4.695   4.674   4.966
  103OSM   H13S10380   4.784   4.731   5.000
  103OSM   H13T10381   4.625   4.749   4.922
  103OSM   C14S10382   4.736   4.590   4.847
  103OSM   H14S10383   4.648   4.577   4.780
  103OSM   H14T10384   4.776   4.496   4.892
  103OSM   C15S10385   4.835   4.661   4.762
  103OSM   H15S10386   4.881   4.600   4.682
  103OSM   H15T10387   4.920   4.702   4.821
  103OSM   C16S10388   4.780   4.786   4.691
  103OSM   H16S10389   4.716   4.847   4.758
  103OSM   H16T10390   4.719   4.750   4.606
  103OSM   C17S10391   4.882   4.886   4.638
  103OSM   H17S10392   4.819   4.961   4.584
  103OSM   H17T10393   4.950   4.851   4.557
  103OSM   C18S10394   4.958   4.968   4.742
  103OSM   H18S10395   4.886   5.011   4.816
  103OSM   H18T10396   5.011   5.049   4.688
  103OSM   H18U10397   5.029   4.904   4.799
  103OSM    C1F10398   4.302   4.365   6.345
  103OSM     OF10399   4.185   4.391   6.347
  103OSM    C2F10400   4.347   4.225   6.380
  103OSM    H2F10401   4.276   4.189   6.456
  103OSM    H2G10402   4.446   4.236   6.429
  103OSM    C3F10403   4.363   4.130   6.259
  103OSM    H3F10404   4.263   4.135   6.209
  103OSM    H3G10405   4.394   4.030   6.294
  103OSM    C4F10406   4.477   4.161   6.162
  103OSM    H4F10407   4.572   4.184   6.214
  103OSM    H4G10408   4.442   4.249   6.103
  103OSM    C5F10409   4.513   4.048   6.066
  103OSM    H5F10410   4.530   3.956   6.127
  103OSM    H5G10411   4.611   4.066   6.017
  103OSM    C6F10412   4.413   4.021   5.949
  103OSM    H6F10413   4.319   3.983   5.995
  103OSM    H6G10414   4.455   3.936   5.891
  103OSM    C7F10415   4.384   4.137   5.862
  103OSM    H7F10416   4.476   4.185   5.821
  103OSM    H7G10417   4.337   4.219   5.920
  103OSM    C8F10418   4.293   4.098   5.753
  103OSM    H8F10419   4.194   4.058   5.784
  103OSM    H8G10420   4.341   4.021   5.689
  103OSM    C9F10421   4.250   4.221   5.676
  103OSM    H9F10422   4.199   4.299   5.734
  103OSM   C10F10423   4.252   4.238   5.539
  103OSM   H10F10424   4.249   4.334   5.485
  103OSM   C11F10425   4.305   4.129   5.449
  103OSM   H11F10426   4.237   4.042   5.457
  103OSM   H11G10427   4.410   4.106   5.478
  103OSM   C12F10428   4.315   4.180   5.304
  103OSM   H12F10429   4.380   4.106   5.252
  103OSM   H12G10430   4.354   4.284   5.302
  103OSM   C13F10431   4.180   4.174   5.225
  103OSM   H13F10432   4.115   4.251   5.271
  103OSM   H13G10433   4.132   4.075   5.242
  103OSM   C14F10434   4.208   4.202   5.078
  103OSM   H14F10435   4.114   4.171   5.028
  103OSM   H14G10436   4.292   4.138   5.043
  103OSM   C15F10437   4.247   4.351   5.052
  103OSM   H15F10438   4.329   4.386   5.119
  103OSM   H15G10439   4.160   4.410   5.088
  103OSM   C16F10440   4.271   4.366   4.904
  103OSM   H16F10441   4.186   4.318   4.851
  103OSM   H16G10442   4.365   4.319   4.871
  103OSM   C17F10443   4.290   4.510   4.852
  103OSM   H17F10444   4.372   4.547   4.916
  103OSM   H17G10445   4.207   4.575   4.887
  103OSM   C18F10446   4.339   4.526   4.713
  103OSM   H18F10447   4.288   4.458   4.641
  103OSM   H18G10448   4.448   4.507   4.710
  103OSM   H18H10449   4.326   4.631   4.680
  104OSM      N10450   5.645   3.532   6.919
  104OSM    C1510451   5.731   3.649   6.961
  104OSM   H15A10452   5.700   3.739   6.909
  104OSM   H15B10453   5.836   3.639   6.943
  104OSM   H15C10454   5.716   3.662   7.068
  104OSM    C1410455   5.662   3.427   7.026
  104OSM   H14A10456   5.767   3.428   7.051
  104OSM   H14B10457   5.634   3.328   6.993
  104OSM   H14C10458   5.608   3.458   7.114
  104OSM    C1310459   5.499   3.566   6.905
  104OSM   H13A10460   5.454   3.602   6.996
  104OSM   H13B10461   5.443   3.491   6.851
  104OSM   H13C10462   5.488   3.650   6.838
  104OSM    C1210463   5.698   3.487   6.784
  104OSM   H12A10464   5.805   3.469   6.784
  104OSM   H12B10465   5.681   3.568   6.715
  104OSM    C1110466   5.625   3.364   6.714
  104OSM   H11A10467   5.673   3.356   6.614
  104OSM   H11B10468   5.515   3.378   6.706
  104OSM      P10469   5.765   3.157   6.789
  104OSM    O1310470   5.885   3.248   6.791
  104OSM    O1410471   5.749   3.063   6.898
  104OSM    O1110472   5.782   3.071   6.660
  104OSM    O1210473   5.639   3.245   6.783
  104OSM    C1S10474   5.735   3.100   6.532
  104OSM    H1S10475   5.762   3.202   6.497
  104OSM    H1T10476   5.625   3.093   6.527
  104OSM     NF10477   5.707   2.985   6.309
  104OSM    HNF10478   5.650   2.906   6.292
  104OSM    C2S10479   5.775   2.979   6.435
  104OSM    H2S10480   5.882   2.988   6.406
  104OSM    C3S10481   5.761   2.841   6.506
  104OSM    H3S10482   5.662   2.842   6.557
  104OSM     O310483   5.860   2.822   6.611
  104OSM    HO310484   5.864   2.910   6.649
  104OSM    C4S10485   5.749   2.726   6.410
  104OSM    H4S10486   5.647   2.724   6.369
  104OSM    C5S10487   5.839   2.627   6.376
  104OSM    H5S10488   5.941   2.626   6.416
  104OSM    C6S10489   5.819   2.526   6.273
  104OSM    H6S10490   5.709   2.507   6.267
  104OSM    H6T10491   5.871   2.429   6.290
  104OSM    C7S10492   5.878   2.579   6.135
  104OSM    H7S10493   5.985   2.610   6.141
  104OSM    H7T10494   5.816   2.661   6.094
  104OSM    C8S10495   5.870   2.460   6.032
  104OSM    H8S10496   5.767   2.421   6.021
  104OSM    H8T10497   5.931   2.377   6.073
  104OSM    C9S10498   5.932   2.486   5.895
  104OSM    H9S10499   5.875   2.573   5.857
  104OSM    H9T10500   5.904   2.402   5.828
  104OSM   C10S10501   6.080   2.529   5.891
  104OSM   H10S10502   6.147   2.445   5.917
  104OSM   H10T10503   6.105   2.618   5.952
  104OSM   C11S10504   6.118   2.555   5.743
  104OSM   H11S10505   6.032   2.605   5.694
  104OSM   H11T10506   6.129   2.456   5.694
  104OSM   C12S10507   6.249   2.634   5.732
  104OSM   H12S10508   6.336   2.568   5.749
  104OSM   H12T10509   6.256   2.713   5.810
  104OSM   C13S10510   6.255   2.705   5.594
  104OSM   H13S10511   6.325   2.791   5.599
  104OSM   H13T10512   6.154   2.746   5.574
  104OSM   C14S10513   6.314   2.632   5.472
  104OSM   H14S10514   6.275   2.529   5.459
  104OSM   H14T10515   6.424   2.629   5.487
  104OSM   C15S10516   6.280   2.698   5.333
  104OSM   H15S10517   6.321   2.802   5.329
  104OSM   H15T10518   6.170   2.705   5.322
  104OSM   C16S10519   6.334   2.601   5.223
  104OSM   H16S10520   6.281   2.504   5.230
  104OSM   H16T10521   6.443   2.581   5.235
  104OSM   C17S10522   6.300   2.656   5.081
  104OSM   H17S10523   6.358   2.747   5.056
  104OSM   H17T10524   6.194   2.684   5.097
  104OSM   C18S10525   6.321   2.551   4.972
  104OSM   H18S10526   6.430   2.530   4.968
  104OSM   H18T10527   6.296   2.591   4.871
  104OSM   H18U10528   6.267   2.457   4.992
  104OSM    C1F10529   5.710   3.092   6.227
  104OSM     OF10530   5.796   3.182   6.236
  104OSM    C2F10531   5.629   3.078   6.108
  104OSM    H2F10532   5.539   3.025   6.146
  104OSM    H2G10533   5.693   3.029   6.032
  104OSM    C3F10534   5.574   3.219   6.057
  104OSM    H3F10535   5.650   3.295   6.084
  104OSM    H3G10536   5.496   3.243   6.133
  104OSM    C4F10537   5.524   3.221   5.917
  104OSM    H4F10538   5.455   3.307   5.906
  104OSM    H4G10539   5.468   3.126   5.901
  104OSM    C5F10540   5.621   3.229   5.813
  104OSM    H5F10541   5.691   3.143   5.813
  104OSM    H5G10542   5.696   3.307   5.840
  104OSM    C6F10543   5.559   3.236   5.677
  104OSM    H6F10544   5.466   3.295   5.668
  104OSM    H6G10545   5.535   3.131   5.649
  104OSM    C7F10546   5.656   3.286   5.565
  104OSM    H7F10547   5.750   3.227   5.556
  104OSM    H7G10548   5.677   3.388   5.603
  104OSM    C8F10549   5.601   3.284   5.421
  104OSM    H8F10550   5.662   3.356   5.363
  104OSM    H8G10551   5.502   3.332   5.408
  104OSM    C9F10552   5.618   3.139   5.366
  104OSM    H9F10553   5.580   3.066   5.439
  104OSM   C10F10554   5.677   3.105   5.248
  104OSM   H10F10555   5.692   2.999   5.225
  104OSM   C11F10556   5.725   3.196   5.134
  104OSM   H11F10557   5.835   3.206   5.123
  104OSM   H11G10558   5.695   3.300   5.161
  104OSM   C12F10559   5.664   3.166   5.000
  104OSM   H12F10560   5.553   3.162   5.007
  104OSM   H12G10561   5.693   3.064   4.968
  104OSM   C13F10562   5.689   3.274   4.892
  104OSM   H13F10563   5.797   3.292   4.873
  104OSM   H13G10564   5.658   3.374   4.929
  104OSM   C14F10565   5.626   3.232   4.764
  104OSM   H14F10566   5.625   3.321   4.696
  104OSM   H14G10567   5.518   3.206   4.763
  104OSM   C15F10568   5.704   3.116   4.698
  104OSM   H15F10569   5.668   3.017   4.733
  104OSM   H15G10570   5.813   3.128   4.715
  104OSM   C16F10571   5.693   3.121   4.539
  104OSM   H16F10572   5.755   3.037   4.502
  104OSM   H16G10573   5.741   3.216   4.507
  104OSM   C17F10574   5.542   3.116   4.481
  104OSM   H17F10575   5.487   3.210   4.502
  104OSM   H17G10576   5.493   3.027   4.527
  104OSM   C18F10577   5.534   3.104   4.327
  104OSM   H18F10578   5.597   3.025   4.282
  104OSM   H18G10579   5.592   3.197   4.303
  104OSM   H18H10580   5.432   3.098   4.283
  105OSM      N10581   5.875   4.046   6.750
  105OSM    C1510582   5.791   4.165   6.733
  105OSM   H15A10583   5.842   4.248   6.686
  105OSM   H15B10584   5.750   4.207   6.823
  105OSM   H15C10585   5.704   4.146   6.671
  105OSM    C1410586   5.995   4.085   6.838
  105OSM   H14A10587   5.959   4.114   6.935
  105OSM   H14B10588   6.049   4.171   6.803
  105OSM   H14C10589   6.070   4.007   6.843
  105OSM    C1310590   5.807   3.936   6.816
  105OSM   H13A10591   5.760   3.869   6.746
  105OSM   H13B10592   5.749   3.975   6.898
  105OSM   H13C10593   5.881   3.872   6.862
  105OSM    C1210594   5.921   4.009   6.610
  105OSM   H12A10595   5.967   4.095   6.564
  105OSM   H12B10596   5.831   3.980   6.557
  105OSM    C1110597   6.009   3.888   6.583
  105OSM   H11A10598   6.100   3.897   6.646
  105OSM   H11B10599   6.050   3.899   6.481
  105OSM      P10600   5.835   3.722   6.499
  105OSM    O1310601   5.803   3.579   6.526
  105OSM    O1410602   5.722   3.821   6.497
  105OSM    O1110603   5.917   3.731   6.361
  105OSM    O1210604   5.940   3.767   6.600
  105OSM    C1S10605   6.035   3.654   6.347
  105OSM    H1S10606   6.006   3.547   6.345
  105OSM    H1T10607   6.111   3.683   6.423
  105OSM     NF10608   6.228   3.603   6.202
  105OSM    HNF10609   6.318   3.642   6.220
  105OSM    C2S10610   6.099   3.673   6.202
  105OSM    H2S10611   6.026   3.622   6.135
  105OSM    C3S10612   6.099   3.822   6.163
  105OSM    H3S10613   6.171   3.877   6.228
  105OSM     O310614   5.984   3.897   6.187
  105OSM    HO310615   5.941   3.856   6.262
  105OSM    C4S10616   6.155   3.853   6.025
  105OSM    H4S10617   6.089   3.816   5.945
  105OSM    C5S10618   6.253   3.943   5.999
  105OSM    H5S10619   6.294   3.989   6.091
  105OSM    C6S10620   6.302   4.001   5.868
  105OSM    H6S10621   6.383   3.942   5.819
  105OSM    H6T10622   6.338   4.104   5.888
  105OSM    C7S10623   6.188   4.022   5.764
  105OSM    H7S10624   6.110   4.085   5.812
  105OSM    H7T10625   6.142   3.923   5.747
  105OSM    C8S10626   6.231   4.078   5.629
  105OSM    H8S10627   6.274   3.994   5.572
  105OSM    H8T10628   6.319   4.146   5.636
  105OSM    C9S10629   6.120   4.135   5.551
  105OSM    H9S10630   6.084   4.232   5.590
  105OSM    H9T10631   6.026   4.075   5.552
  105OSM   C10S10632   6.148   4.166   5.404
  105OSM   H10S10633   6.210   4.091   5.351
  105OSM   H10T10634   6.214   4.255   5.409
  105OSM   C11S10635   6.024   4.197   5.310
  105OSM   H11S10636   5.943   4.255   5.360
  105OSM   H11T10637   5.966   4.103   5.296
  105OSM   C12S10638   6.074   4.260   5.182
  105OSM   H12S10639   6.175   4.307   5.189
  105OSM   H12T10640   6.004   4.342   5.154
  105OSM   C13S10641   6.076   4.156   5.077
  105OSM   H13S10642   5.977   4.124   5.038
  105OSM   H13T10643   6.125   4.068   5.124
  105OSM   C14S10644   6.158   4.208   4.955
  105OSM   H14S10645   6.262   4.218   4.994
  105OSM   H14T10646   6.125   4.309   4.924
  105OSM   C15S10647   6.152   4.121   4.827
  105OSM   H15S10648   6.144   4.018   4.868
  105OSM   H15T10649   6.250   4.132   4.775
  105OSM   C16S10650   6.039   4.154   4.737
  105OSM   H16S10651   6.031   4.265   4.742
  105OSM   H16T10652   5.943   4.107   4.767
  105OSM   C17S10653   6.045   4.101   4.591
  105OSM   H17S10654   6.032   3.991   4.593
  105OSM   H17T10655   6.147   4.119   4.551
  105OSM   C18S10656   5.931   4.158   4.515
  105OSM   H18S10657   5.836   4.105   4.536
  105OSM   H18T10658   5.939   4.151   4.404
  105OSM   H18U10659   5.914   4.266   4.536
  105OSM    C1F10660   6.226   3.470   6.183
  105OSM     OF10661   6.121   3.408   6.184
  105OSM    C2F10662   6.353   3.405   6.142
  105OSM    H2F10663   6.385   3.330   6.218
  105OSM    H2G10664   6.437   3.474   6.120
  105OSM    C3F10665   6.326   3.316   6.012
  105OSM    H3F10666   6.226   3.269   6.020
  105OSM    H3G10667   6.414   3.250   6.018
  105OSM    C4F10668   6.332   3.384   5.879
  105OSM    H4F10669   6.416   3.456   5.860
  105OSM    H4G10670   6.251   3.457   5.858
  105OSM    C5F10671   6.335   3.289   5.760
  105OSM    H5F10672   6.234   3.243   5.750
  105OSM    H5G10673   6.412   3.210   5.779
  105OSM    C6F10674   6.375   3.358   5.631
  105OSM    H6F10675   6.474   3.408   5.636
  105OSM    H6G10676   6.298   3.436   5.609
  105OSM    C7F10677   6.365   3.260   5.506
  105OSM    H7F10678   6.283   3.186   5.518
  105OSM    H7G10679   6.462   3.208   5.498
  105OSM    C8F10680   6.328   3.335   5.374
  105OSM    H8F10681   6.255   3.413   5.405
  105OSM    H8G10682   6.265   3.266   5.313
  105OSM    C9F10683   6.455   3.401   5.313
  105OSM    H9F10684   6.488   3.477   5.385
  105OSM   C10F10685   6.523   3.371   5.202
  105OSM   H10F10686   6.608   3.434   5.172
  105OSM   C11F10687   6.491   3.272   5.088
  105OSM   H11F10688   6.394   3.222   5.109
  105OSM   H11G10689   6.577   3.203   5.069
  105OSM   C12F10690   6.463   3.355   4.957
  105OSM   H12F10691   6.385   3.434   4.970
  105OSM   H12G10692   6.411   3.289   4.884
  105OSM   C13F10693   6.589   3.393   4.879
  105OSM   H13F10694   6.668   3.315   4.885
  105OSM   H13G10695   6.613   3.479   4.945
  105OSM   C14F10696   6.569   3.435   4.735
  105OSM   H14F10697   6.558   3.334   4.690
  105OSM   H14G10698   6.660   3.485   4.694
  105OSM   C15F10699   6.448   3.514   4.711
  105OSM   H15F10700   6.458   3.606   4.773
  105OSM   H15G10701   6.354   3.463   4.740
  105OSM   C16F10702   6.424   3.564   4.572
  105OSM   H16F10703   6.490   3.653   4.560
  105OSM   H16G10704   6.318   3.591   4.553
  105OSM   C17F10705   6.450   3.468   4.453
  105OSM   H17F10706   6.384   3.381   4.472
  105OSM   H17G10707   6.558   3.444   4.455
  105OSM   C18F10708   6.408   3.543   4.321
  105OSM   H18F10709   6.297   3.548   4.325
  105OSM   H18G10710   6.435   3.487   4.229
  105OSM   H18H10711   6.454   3.644   4.319
  106OSM      N10712   4.566   1.312   6.972
  106OSM    C1510713   4.706   1.276   7.008
  106OSM   H15A10714   4.714   1.224   7.102
  106OSM   H15B10715   4.756   1.371   7.016
  106OSM   H15C10716   4.761   1.224   6.931
  106OSM    C1410717   4.488   1.191   6.946
  106OSM   H14A10718   4.472   1.131   7.035
  106OSM   H14B10719   4.527   1.133   6.864
  106OSM   H14C10720   4.390   1.218   6.909
  106OSM    C1310721   4.493   1.369   7.089
  106OSM   H13A10722   4.506   1.293   7.164
  106OSM   H13B10723   4.391   1.394   7.063
  106OSM   H13C10724   4.532   1.467   7.114
  106OSM    C1210725   4.561   1.404   6.847
  106OSM   H12A10726   4.621   1.492   6.863
  106OSM   H12B10727   4.460   1.440   6.831
  106OSM    C1110728   4.614   1.347   6.705
  106OSM   H11A10729   4.598   1.422   6.624
  106OSM   H11B10730   4.542   1.266   6.677
  106OSM      P10731   4.794   1.187   6.647
  106OSM    O1310732   4.935   1.190   6.622
  106OSM    O1410733   4.757   1.067   6.731
  106OSM    O1110734   4.725   1.183   6.506
  106OSM    O1210735   4.752   1.315   6.722
  106OSM    C1S10736   4.754   1.299   6.419
  106OSM    H1S10737   4.856   1.285   6.379
  106OSM    H1T10738   4.750   1.402   6.461
  106OSM     NF10739   4.725   1.381   6.185
  106OSM    HNF10740   4.711   1.478   6.171
  106OSM    C2S10741   4.658   1.308   6.294
  106OSM    H2S10742   4.638   1.204   6.260
  106OSM    C3S10743   4.519   1.369   6.333
  106OSM    H3S10744   4.530   1.470   6.378
  106OSM     O310745   4.450   1.285   6.423
  106OSM    HO310746   4.523   1.226   6.443
  106OSM    C4S10747   4.431   1.378   6.204
  106OSM    H4S10748   4.436   1.292   6.136
  106OSM    C5S10749   4.359   1.479   6.151
  106OSM    H5S10750   4.368   1.580   6.192
  106OSM    C6S10751   4.300   1.458   6.009
  106OSM    H6S10752   4.196   1.497   6.008
  106OSM    H6T10753   4.295   1.351   5.979
  106OSM    C7S10754   4.391   1.524   5.895
  106OSM    H7S10755   4.482   1.461   5.900
  106OSM    H7T10756   4.427   1.625   5.924
  106OSM    C8S10757   4.341   1.509   5.745
  106OSM    H8S10758   4.238   1.550   5.744
  106OSM    H8T10759   4.336   1.399   5.727
  106OSM    C9S10760   4.433   1.585   5.649
  106OSM    H9S10761   4.539   1.554   5.647
  106OSM    H9T10762   4.427   1.692   5.676
  106OSM   C10S10763   4.376   1.567   5.512
  106OSM   H10S10764   4.269   1.594   5.504
  106OSM   H10T10765   4.378   1.459   5.487
  106OSM   C11S10766   4.468   1.634   5.414
  106OSM   H11S10767   4.571   1.639   5.456
  106OSM   H11T10768   4.443   1.741   5.432
  106OSM   C12S10769   4.447   1.591   5.269
  106OSM   H12S10770   4.338   1.608   5.255
  106OSM   H12T10771   4.491   1.489   5.265
  106OSM   C13S10772   4.536   1.670   5.171
  106OSM   H13S10773   4.634   1.636   5.212
  106OSM   H13T10774   4.519   1.778   5.194
  106OSM   C14S10775   4.513   1.629   5.024
  106OSM   H14S10776   4.413   1.654   4.984
  106OSM   H14T10777   4.518   1.518   5.023
  106OSM   C15S10778   4.618   1.684   4.928
  106OSM   H15S10779   4.717   1.671   4.977
  106OSM   H15T10780   4.597   1.792   4.914
  106OSM   C16S10781   4.605   1.620   4.792
  106OSM   H16S10782   4.508   1.643   4.743
  106OSM   H16T10783   4.604   1.509   4.799
  106OSM   C17S10784   4.722   1.651   4.698
  106OSM   H17S10785   4.819   1.645   4.751
  106OSM   H17T10786   4.712   1.756   4.662
  106OSM   C18S10787   4.728   1.548   4.581
  106OSM   H18S10788   4.805   1.569   4.504
  106OSM   H18T10789   4.634   1.559   4.524
  106OSM   H18U10790   4.727   1.442   4.615
  106OSM    C1F10791   4.826   1.325   6.123
  106OSM     OF10792   4.872   1.213   6.158
  106OSM    C2F10793   4.891   1.410   6.020
  106OSM    H2F10794   4.923   1.504   6.069
  106OSM    H2G10795   4.814   1.426   5.941
  106OSM    C3F10796   5.022   1.344   5.963
  106OSM    H3F10797   5.009   1.237   5.937
  106OSM    H3G10798   5.107   1.355   6.034
  106OSM    C4F10799   5.082   1.408   5.838
  106OSM    H4F10800   5.020   1.370   5.755
  106OSM    H4G10801   5.184   1.370   5.816
  106OSM    C5F10802   5.088   1.559   5.846
  106OSM    H5F10803   5.134   1.597   5.939
  106OSM    H5G10804   4.984   1.598   5.840
  106OSM    C6F10805   5.160   1.627   5.724
  106OSM    H6F10806   5.268   1.606   5.733
  106OSM    H6G10807   5.141   1.737   5.733
  106OSM    C7F10808   5.113   1.565   5.587
  106OSM    H7F10809   5.003   1.574   5.587
  106OSM    H7G10810   5.155   1.462   5.587
  106OSM    C8F10811   5.166   1.639   5.459
  106OSM    H8F10812   5.144   1.577   5.369
  106OSM    H8G10813   5.277   1.645   5.467
  106OSM    C9F10814   5.115   1.778   5.449
  106OSM    H9F10815   5.155   1.850   5.523
  106OSM   C10F10816   5.031   1.827   5.358
  106OSM   H10F10817   5.020   1.936   5.345
  106OSM   C11F10818   4.965   1.748   5.248
  106OSM   H11F10819   4.863   1.786   5.224
  106OSM   H11G10820   4.944   1.646   5.287
  106OSM   C12F10821   5.031   1.737   5.108
  106OSM   H12F10822   4.958   1.680   5.049
  106OSM   H12G10823   5.128   1.683   5.108
  106OSM   C13F10824   5.064   1.877   5.041
  106OSM   H13F10825   5.113   1.940   5.118
  106OSM   H13G10826   4.967   1.930   5.025
  106OSM   C14F10827   5.154   1.862   4.913
  106OSM   H14F10828   5.246   1.807   4.945
  106OSM   H14G10829   5.183   1.965   4.881
  106OSM   C15F10830   5.067   1.787   4.810
  106OSM   H15F10831   4.962   1.823   4.812
  106OSM   H15G10832   5.058   1.678   4.833
  106OSM   C16F10833   5.139   1.786   4.672
  106OSM   H16F10834   5.113   1.698   4.609
  106OSM   H16G10835   5.247   1.790   4.697
  106OSM   C17F10836   5.102   1.913   4.584
  106OSM   H17F10837   5.139   1.999   4.644
  106OSM   H17G10838   4.991   1.919   4.580
  106OSM   C18F10839   5.153   1.931   4.437
  106OSM   H18F10840   5.130   2.035   4.407
  106OSM   H18G10841   5.104   1.857   4.370
  106OSM   H18H10842   5.263   1.911   4.433
  107OSM      N10843   3.970   6.360   7.081
  107OSM    C1510844   3.844   6.393   7.150
  107OSM   H15A10845   3.779   6.307   7.143
  107OSM   H15B10846   3.794   6.474   7.098
  107OSM   H15C10847   3.858   6.434   7.249
  107OSM    C1410848   4.046   6.486   7.067
  107OSM   H14A10849   3.996   6.563   7.012
  107OSM   H14B10850   4.143   6.476   7.021
  107OSM   H14C10851   4.057   6.541   7.159
  107OSM    C1310852   4.051   6.262   7.168
  107OSM   H13A10853   3.992   6.172   7.185
  107OSM   H13B10854   4.051   6.289   7.273
  107OSM   H13C10855   4.145   6.234   7.125
  107OSM    C1210856   3.948   6.304   6.952
  107OSM   H12A10857   3.882   6.220   6.970
  107OSM   H12B10858   4.040   6.266   6.912
  107OSM    C1110859   3.878   6.382   6.843
  107OSM   H11A10860   3.786   6.441   6.865
  107OSM   H11B10861   3.843   6.305   6.772
  107OSM      P10862   4.048   6.471   6.655
  107OSM    O1310863   4.001   6.587   6.578
  107OSM    O1410864   4.197   6.462   6.689
  107OSM    O1110865   4.004   6.344   6.581
  107OSM    O1210866   3.966   6.476   6.784
  107OSM    C1S10867   3.903   6.322   6.483
  107OSM    H1S10868   3.902   6.411   6.416
  107OSM    H1T10869   3.804   6.309   6.533
  107OSM     NF10870   3.831   6.193   6.277
  107OSM    HNF10871   3.766   6.118   6.281
  107OSM    C2S10872   3.922   6.197   6.383
  107OSM    H2S10873   4.025   6.224   6.351
  107OSM    C3S10874   3.933   6.065   6.456
  107OSM    H3S10875   3.832   6.033   6.492
  107OSM     O310876   4.008   6.070   6.577
  107OSM    HO310877   4.042   6.160   6.580
  107OSM    C4S10878   3.997   5.960   6.361
  107OSM    H4S10879   3.927   5.889   6.314
  107OSM    C5S10880   4.123   5.960   6.312
  107OSM    H5S10881   4.185   6.049   6.326
  107OSM    C6S10882   4.166   5.860   6.211
  107OSM    H6S10883   4.084   5.788   6.189
  107OSM    H6T10884   4.252   5.805   6.256
  107OSM    C7S10885   4.200   5.923   6.074
  107OSM    H7S10886   4.241   5.841   6.011
  107OSM    H7T10887   4.284   5.993   6.093
  107OSM    C8S10888   4.080   5.983   6.006
  107OSM    H8S10889   4.056   6.073   6.067
  107OSM    H8T10890   3.996   5.912   5.988
  107OSM    C9S10891   4.120   6.036   5.866
  107OSM    H9S10892   4.134   5.953   5.794
  107OSM    H9T10893   4.200   6.112   5.865
  107OSM   C10S10894   4.000   6.117   5.799
  107OSM   H10S10895   3.992   6.203   5.869
  107OSM   H10T10896   3.913   6.048   5.809
  107OSM   C11S10897   4.030   6.157   5.657
  107OSM   H11S10898   4.037   6.067   5.591
  107OSM   H11T10899   4.119   6.222   5.658
  107OSM   C12S10900   3.904   6.226   5.591
  107OSM   H12S10901   3.903   6.328   5.636
  107OSM   H12T10902   3.804   6.183   5.613
  107OSM   C13S10903   3.925   6.250   5.442
  107OSM   H13S10904   3.927   6.148   5.399
  107OSM   H13T10905   4.017   6.306   5.416
  107OSM   C14S10906   3.804   6.331   5.393
  107OSM   H14S10907   3.802   6.426   5.449
  107OSM   H14T10908   3.714   6.268   5.409
  107OSM   C15S10909   3.819   6.373   5.247
  107OSM   H15S10910   3.921   6.416   5.231
  107OSM   H15T10911   3.750   6.458   5.229
  107OSM   C16S10912   3.783   6.259   5.149
  107OSM   H16S10913   3.875   6.196   5.149
  107OSM   H16T10914   3.790   6.307   5.049
  107OSM   C17S10915   3.654   6.178   5.172
  107OSM   H17S10916   3.572   6.254   5.174
  107OSM   H17T10917   3.654   6.109   5.259
  107OSM   C18S10918   3.608   6.092   5.053
  107OSM   H18S10919   3.536   6.019   5.095
  107OSM   H18T10920   3.692   6.034   5.010
  107OSM   H18U10921   3.573   6.144   4.960
  107OSM    C1F10922   3.806   6.286   6.180
  107OSM     OF10923   3.876   6.388   6.177
  107OSM    C2F10924   3.689   6.261   6.093
  107OSM    H2F10925   3.607   6.196   6.131
  107OSM    H2G10926   3.725   6.198   6.009
  107OSM    C3F10927   3.626   6.395   6.044
  107OSM    H3F10928   3.601   6.463   6.128
  107OSM    H3G10929   3.531   6.371   5.990
  107OSM    C4F10930   3.719   6.462   5.936
  107OSM    H4F10931   3.735   6.381   5.862
  107OSM    H4G10932   3.819   6.497   5.969
  107OSM    C5F10933   3.647   6.580   5.864
  107OSM    H5F10934   3.618   6.657   5.938
  107OSM    H5G10935   3.560   6.529   5.817
  107OSM    C6F10936   3.726   6.645   5.751
  107OSM    H6F10937   3.757   6.576   5.670
  107OSM    H6G10938   3.814   6.693   5.799
  107OSM    C7F10939   3.650   6.766   5.702
  107OSM    H7F10940   3.631   6.836   5.786
  107OSM    H7G10941   3.550   6.735   5.664
  107OSM    C8F10942   3.717   0.002   5.595
  107OSM    H8F10943   3.797   0.053   5.654
  107OSM    H8G10944   3.653   0.082   5.551
  107OSM    C9F10945   3.775   6.774   5.485
  107OSM    H9F10946   3.876   6.738   5.510
  107OSM   C10F10947   3.723   6.751   5.363
  107OSM   H10F10948   3.792   6.698   5.296
  107OSM   C11F10949   3.597   6.798   5.304
  107OSM   H11F10950   3.526   6.845   5.375
  107OSM   H11G10951   3.532   6.713   5.275
  107OSM   C12F10952   3.616   0.020   5.173
  107OSM   H12F10953   3.655   0.121   5.197
  107OSM   H12G10954   3.515   0.033   5.128
  107OSM   C13F10955   3.697   6.805   5.065
  107OSM   H13F10956   3.658   6.701   5.055
  107OSM   H13G10957   3.803   6.797   5.096
  107OSM   C14F10958   3.697   0.028   4.928
  107OSM   H14F10959   3.769   6.838   4.856
  107OSM   H14G10960   3.716   0.136   4.950
  107OSM   C15F10961   3.563   0.012   4.848
  107OSM   H15F10962   3.486   0.065   4.908
  107OSM   H15G10963   3.550   6.757   4.834
  107OSM   C16F10964   3.574   0.069   4.709
  107OSM   H16F10965   3.658   0.017   4.658
  107OSM   H16G10966   3.603   0.177   4.709
  107OSM   C17F10967   3.446   0.051   4.626
  107OSM   H17F10968   3.448   0.109   4.531
  107OSM   H17G10969   3.352   0.076   4.680
  107OSM   C18F10970   3.429   6.761   4.587
  107OSM   H18F10971   3.337   6.745   4.528
  107OSM   H18G10972   3.434   6.692   4.673
  107OSM   H18H10973   3.517   6.737   4.522
  108OSM      N10974   6.512   5.774   7.059
  108OSM    C1510975   6.652   5.737   7.106
  108OSM   H15A10976   6.650   5.638   7.150
  108OSM   H15B10977   6.678   5.800   7.191
  108OSM   H15C10978   6.725   5.745   7.027
  108OSM    C1410979   6.408   5.715   7.151
  108OSM   H14A10980   6.423   5.609   7.160
  108OSM   H14B10981   6.304   5.730   7.126
  108OSM   H14C10982   6.424   5.754   7.251
  108OSM    C1310983   6.499   5.925   7.036
  108OSM   H13A10984   6.400   5.948   7.000
  108OSM   H13B10985   6.575   5.962   6.969
  108OSM   H13C10986   6.510   5.987   7.124
  108OSM    C1210987   6.500   5.705   6.918
  108OSM   H12A10988   6.401   5.728   6.880
  108OSM   H12B10989   6.518   5.600   6.936
  108OSM    C1110990   6.596   5.746   6.808
  108OSM   H11A10991   6.606   5.856   6.808
  108OSM   H11B10992   6.548   5.740   6.708
  108OSM      P10993   6.740   5.539   6.754
  108OSM    O1310994   6.824   5.457   6.846
  108OSM    O1410995   6.603   5.490   6.709
  108OSM    O1110996   6.823   5.560   6.622
  108OSM    O1210997   6.720   5.675   6.828
  108OSM    C1S10998   6.850   5.683   6.564
  108OSM    H1S10999   0.076   5.734   6.622
  108OSM    H1T11000   6.762   5.751   6.563
  108OSM     NF11001   0.023   5.797   6.345
  108OSM    HNF11002   6.785   5.804   6.309
  108OSM    C2S11003   0.037   5.665   6.413
  108OSM    H2S11004   0.140   5.630   6.390
  108OSM    C3S11005   6.796   5.564   6.342
  108OSM    H3S11006   6.690   5.591   6.364
  108OSM     O311007   6.807   5.430   6.391
  108OSM    HO311008   6.802   5.437   6.487
  108OSM    C4S11009   6.813   5.566   6.192
  108OSM    H4S11010   6.765   5.656   6.152
  108OSM    C5S11011   0.030   5.473   6.115
  108OSM    H5S11012   0.074   5.387   6.168
  108OSM    C6S11013   0.041   5.457   5.966
  108OSM    H6S11014   0.135   5.402   5.943
  108OSM    H6T11015   0.040   5.559   5.920
  108OSM    C7S11016   6.776   5.381   5.908
  108OSM    H7S11017   6.688   5.446   5.930
  108OSM    H7T11018   6.759   5.279   5.947
  108OSM    C8S11019   6.779   5.373   5.764
  108OSM    H8S11020   6.815   5.466   5.714
  108OSM    H8T11021   6.676   5.368   5.723
  108OSM    C9S11022   0.008   5.252   5.701
  108OSM    H9S11023   6.795   5.164   5.707
  108OSM    H9T11024   0.095   5.236   5.768
  108OSM   C10S11025   0.042   5.282   5.550
  108OSM   H10S11026   0.112   5.202   5.517
  108OSM   H10T11027   0.084   5.385   5.548
  108OSM   C11S11028   6.775   5.271   5.459
  108OSM   H11S11029   6.751   5.376   5.432
  108OSM   H11T11030   6.683   5.236   5.511
  108OSM   C12S11031   6.807   5.198   5.328
  108OSM   H12S11032   6.836   5.095   5.357
  108OSM   H12T11033   0.033   5.240   5.263
  108OSM   C13S11034   6.688   5.181   5.223
  108OSM   H13S11035   6.663   5.267   5.158
  108OSM   H13T11036   6.598   5.165   5.286
  108OSM   C14S11037   6.709   5.051   5.145
  108OSM   H14S11038   6.736   4.978   5.224
  108OSM   H14T11039   6.789   5.071   5.071
  108OSM   C15S11040   6.577   5.007   5.078
  108OSM   H15S11041   6.531   5.086   5.015
  108OSM   H15T11042   6.498   4.984   5.152
  108OSM   C16S11043   6.597   4.878   4.990
  108OSM   H16S11044   6.606   4.786   5.051
  108OSM   H16T11045   6.697   4.878   4.942
  108OSM   C17S11046   6.486   4.852   4.886
  108OSM   H17S11047   6.485   4.933   4.810
  108OSM   H17T11048   6.389   4.848   4.940
  108OSM   C18S11049   6.508   4.721   4.817
  108OSM   H18S11050   6.603   4.724   4.760
  108OSM   H18T11051   6.424   4.706   4.745
  108OSM   H18U11052   6.519   4.633   4.884
  108OSM    C1F11053   0.109   5.898   6.366
  108OSM     OF11054   0.213   5.882   6.430
  108OSM    C2F11055   0.062   6.022   6.303
  108OSM    H2F11056   0.001   6.076   6.379
  108OSM    H2G11057   6.843   5.985   6.229
  108OSM    C3F11058   0.164   6.111   6.240
  108OSM    H3F11059   0.235   6.054   6.176
  108OSM    H3G11060   0.229   6.159   6.317
  108OSM    C4F11061   0.085   6.213   6.154
  108OSM    H4F11062   0.152   6.301   6.148
  108OSM    H4G11063   6.854   6.243   6.219
  108OSM    C5F11064   0.053   6.157   6.022
  108OSM    H5F11065   0.095   6.055   6.010
  108OSM    H5G11066   0.103   6.226   5.950
  108OSM    C6F11067   6.761   6.162   5.988
  108OSM    H6F11068   6.737   6.270   5.983
  108OSM    H6G11069   6.705   6.119   6.075
  108OSM    C7F11070   6.714   6.098   5.862
  108OSM    H7F11071   6.609   6.129   5.844
  108OSM    H7G11072   6.725   5.988   5.871
  108OSM    C8F11073   6.801   6.135   5.742
  108OSM    H8F11074   6.833   6.240   5.760
  108OSM    H8G11075   6.735   6.147   5.653
  108OSM    C9F11076   0.070   6.060   5.725
  108OSM    H9F11077   0.149   6.106   5.786
  108OSM   C10F11078   0.084   5.945   5.661
  108OSM   H10F11079   0.185   5.902   5.662
  108OSM   C11F11080   6.840   5.875   5.578
  108OSM   H11F11081   6.747   5.936   5.573
  108OSM   H11G11082   6.811   5.773   5.613
  108OSM   C12F11083   0.033   5.850   5.436
  108OSM   H12F11084   0.099   5.931   5.397
  108OSM   H12G11085   6.803   5.852   5.364
  108OSM   C13F11086   0.100   5.709   5.414
  108OSM   H13F11087   0.036   5.627   5.452
  108OSM   H13G11088   0.195   5.705   5.471
  108OSM   C14F11089   0.131   5.683   5.269
  108OSM   H14F11090   0.229   5.730   5.244
  108OSM   H14G11091   0.067   5.739   5.198
  108OSM   C15F11092   0.127   5.539   5.221
  108OSM   H15F11093   0.027   5.490   5.225
  108OSM   H15G11094   0.200   5.475   5.275
  108OSM   C16F11095   0.161   5.533   5.075
  108OSM   H16F11096   0.252   5.584   5.038
  108OSM   H16G11097   0.081   5.593   5.028
  108OSM   C17F11098   0.163   5.394   5.009
  108OSM   H17F11099   0.077   5.334   5.048
  108OSM   H17G11100   0.254   5.340   5.042
  108OSM   C18F11101   0.155   5.403   4.856
  108OSM   H18F11102   0.245   5.459   4.823
  108OSM   H18G11103   0.060   5.449   4.821
  108OSM   H18H11104   0.167   5.303   4.811
  109OSM      N11105   3.004   2.947   6.765
  109OSM    C1511106   2.898   2.938   6.670
  109OSM   H15A11107   2.898   2.841   6.623
  109OSM   H15B11108   2.912   3.012   6.593
  109OSM   H15C11109   2.803   2.951   6.720
  109OSM    C1411110   3.142   2.930   6.710
  109OSM   H14A11111   3.144   2.831   6.666
  109OSM   H14B11112   3.214   2.919   6.790
  109OSM   H14C11113   3.175   3.006   6.641
  109OSM    C1311114   3.001   3.075   6.839
  109OSM   H13A11115   3.074   3.068   6.917
  109OSM   H13B11116   2.911   3.123   6.876
  109OSM   H13C11117   3.042   3.160   6.787
  109OSM    C1211118   2.981   2.844   6.873
  109OSM   H12A11119   2.886   2.870   6.917
  109OSM   H12B11120   3.056   2.861   6.950
  109OSM    C1111121   2.970   2.695   6.827
  109OSM   H11A11122   2.883   2.694   6.758
  109OSM   H11B11123   2.951   2.630   6.915
  109OSM      P11124   3.204   2.592   6.840
  109OSM    O1311125   3.286   2.707   6.884
  109OSM    O1411126   3.156   2.505   6.949
  109OSM    O1111127   3.286   2.509   6.741
  109OSM    O1211128   3.085   2.651   6.750
  109OSM    C1S11129   3.252   2.455   6.613
  109OSM    H1S11130   3.148   2.488   6.590
  109OSM    H1T11131   3.253   2.344   6.621
  109OSM     NF11132   3.305   2.413   6.390
  109OSM    HNF11133   3.367   2.338   6.370
  109OSM    C2S11134   3.347   2.483   6.506
  109OSM    H2S11135   3.352   2.590   6.476
  109OSM    C3S11136   3.495   2.445   6.549
  109OSM    H3S11137   3.492   2.335   6.565
  109OSM     O311138   3.539   2.518   6.662
  109OSM    HO311139   3.459   2.562   6.692
  109OSM    C4S11140   3.590   2.459   6.432
  109OSM    H4S11141   3.641   2.363   6.413
  109OSM    C5S11142   3.616   2.571   6.364
  109OSM    H5S11143   3.587   2.672   6.398
  109OSM    C6S11144   3.710   2.583   6.244
  109OSM    H6S11145   3.715   2.484   6.193
  109OSM    H6T11146   3.809   2.626   6.271
  109OSM    C7S11147   3.646   2.667   6.139
  109OSM    H7S11148   3.638   2.774   6.170
  109OSM    H7T11149   3.549   2.622   6.109
  109OSM    C8S11150   3.715   2.666   6.001
  109OSM    H8S11151   3.745   2.565   5.964
  109OSM    H8T11152   3.806   2.729   6.003
  109OSM    C9S11153   3.629   2.736   5.896
  109OSM    H9S11154   3.606   2.836   5.939
  109OSM    H9T11155   3.538   2.674   5.895
  109OSM   C10S11156   3.698   2.751   5.760
  109OSM   H10S11157   3.749   2.654   5.746
  109OSM   H10T11158   3.777   2.828   5.773
  109OSM   C11S11159   3.598   2.768   5.648
  109OSM   H11S11160   3.576   2.877   5.643
  109OSM   H11T11161   3.502   2.721   5.676
  109OSM   C12S11162   3.655   2.727   5.511
  109OSM   H12S11163   3.670   2.617   5.510
  109OSM   H12T11164   3.752   2.779   5.499
  109OSM   C13S11165   3.550   2.752   5.411
  109OSM   H13S11166   3.531   2.861   5.416
  109OSM   H13T11167   3.458   2.693   5.431
  109OSM   C14S11168   3.596   2.708   5.269
  109OSM   H14S11169   3.565   2.602   5.255
  109OSM   H14T11170   3.705   2.728   5.258
  109OSM   C15S11171   3.529   2.798   5.165
  109OSM   H15S11172   3.560   2.900   5.194
  109OSM   H15T11173   3.418   2.792   5.173
  109OSM   C16S11174   3.568   2.796   5.019
  109OSM   H16S11175   3.559   2.690   4.991
  109OSM   H16T11176   3.675   2.820   4.998
  109OSM   C17S11177   3.484   2.870   4.920
  109OSM   H17S11178   3.519   2.852   4.817
  109OSM   H17T11179   3.503   2.975   4.950
  109OSM   C18S11180   3.334   2.840   4.920
  109OSM   H18S11181   3.302   2.734   4.916
  109OSM   H18T11182   3.286   2.890   4.833
  109OSM   H18U11183   3.297   2.879   5.017
  109OSM    C1F11184   3.199   2.444   6.315
  109OSM     OF11185   3.120   2.527   6.344
  109OSM    C2F11186   3.186   2.375   6.180
  109OSM    H2F11187   3.082   2.378   6.142
  109OSM    H2G11188   3.224   2.271   6.182
  109OSM    C3F11189   3.271   2.457   6.075
  109OSM    H3F11190   3.380   2.450   6.098
  109OSM    H3G11191   3.230   2.556   6.047
  109OSM    C4F11192   3.243   2.390   5.940
  109OSM    H4F11193   3.133   2.386   5.925
  109OSM    H4G11194   3.266   2.284   5.963
  109OSM    C5F11195   3.314   2.442   5.821
  109OSM    H5F11196   3.421   2.433   5.850
  109OSM    H5G11197   3.279   2.546   5.808
  109OSM    C6F11198   3.292   2.360   5.695
  109OSM    H6F11199   3.183   2.338   5.687
  109OSM    H6G11200   3.342   2.261   5.707
  109OSM    C7F11201   3.339   2.439   5.566
  109OSM    H7F11202   3.449   2.449   5.576
  109OSM    H7G11203   3.312   2.547   5.571
  109OSM    C8F11204   3.284   2.374   5.438
  109OSM    H8F11205   3.175   2.366   5.458
  109OSM    H8G11206   3.333   2.280   5.408
  109OSM    C9F11207   3.299   2.468   5.321
  109OSM    H9F11208   3.278   2.571   5.351
  109OSM   C10F11209   3.333   2.434   5.197
  109OSM   H10F11210   3.344   2.509   5.116
  109OSM   C11F11211   3.354   2.299   5.139
  109OSM   H11F11212   3.345   2.217   5.214
  109OSM   H11G11213   3.461   2.302   5.107
  109OSM   C12F11214   3.253   2.265   5.032
  109OSM   H12F11215   3.154   2.273   5.082
  109OSM   H12G11216   3.277   2.161   5.002
  109OSM   C13F11217   3.242   2.363   4.910
  109OSM   H13F11218   3.345   2.386   4.876
  109OSM   H13G11219   3.206   2.460   4.951
  109OSM   C14F11220   3.145   2.325   4.795
  109OSM   H14F11221   3.041   2.317   4.833
  109OSM   H14G11222   3.173   2.223   4.760
  109OSM   C15F11223   3.170   2.417   4.675
  109OSM   H15F11224   3.279   2.436   4.668
  109OSM   H15G11225   3.110   2.507   4.698
  109OSM   C16F11226   3.116   2.356   4.550
  109OSM   H16F11227   3.006   2.349   4.561
  109OSM   H16G11228   3.155   2.252   4.550
  109OSM   C17F11229   3.149   2.436   4.427
  109OSM   H17F11230   3.257   2.438   4.400
  109OSM   H17G11231   3.102   2.535   4.446
  109OSM   C18F11232   3.081   2.387   4.298
  109OSM   H18F11233   3.138   2.304   4.252
  109OSM   H18G11234   3.077   2.468   4.222
  109OSM   H18H11235   2.983   2.337   4.319
  110OSM      N11236   5.283   6.066   6.837
  110OSM    C1511237   5.417   6.002   6.823
  110OSM   H15A11238   5.418   5.905   6.776
  110OSM   H15B11239   5.471   5.991   6.916
  110OSM   H15C11240   5.487   6.062   6.766
  110OSM    C1411241   5.189   5.966   6.900
  110OSM   H14A11242   5.096   6.010   6.931
  110OSM   H14B11243   5.229   5.940   6.996
  110OSM   H14C11244   5.168   5.879   6.839
  110OSM    C1311245   5.293   6.185   6.929
  110OSM   H13A11246   5.351   6.165   7.018
  110OSM   H13B11247   5.193   6.219   6.951
  110OSM   H13C11248   5.336   6.256   6.861
  110OSM    C1211249   5.218   6.106   6.706
  110OSM   H12A11250   5.125   6.161   6.710
  110OSM   H12B11251   5.195   6.010   6.662
  110OSM    C1111252   5.303   6.185   6.600
  110OSM   H11A11253   5.239   6.194   6.510
  110OSM   H11B11254   5.393   6.126   6.570
  110OSM      P11255   5.505   6.350   6.650
  110OSM    O1311256   5.517   6.493   6.677
  110OSM    O1411257   5.566   6.259   6.751
  110OSM    O1111258   5.561   6.312   6.499
  110OSM    O1211259   5.350   6.307   6.643
  110OSM    C1S11260   5.533   6.415   6.393
  110OSM    H1S11261   5.581   6.511   6.423
  110OSM    H1T11262   5.424   6.431   6.383
  110OSM     NF11263   5.616   6.487   6.171
  110OSM    HNF11264   5.558   6.511   6.093
  110OSM    C2S11265   5.578   6.372   6.245
  110OSM    H2S11266   5.664   6.303   6.252
  110OSM    C3S11267   5.454   6.301   6.180
  110OSM    H3S11268   5.374   6.375   6.160
  110OSM     O311269   5.399   6.194   6.257
  110OSM    HO311270   5.460   6.162   6.324
  110OSM    C4S11271   5.488   6.247   6.046
  110OSM    H4S11272   5.588   6.204   6.031
  110OSM    C5S11273   5.414   6.245   5.932
  110OSM    H5S11274   5.309   6.278   5.931
  110OSM    C6S11275   5.460   6.199   5.805
  110OSM    H6S11276   5.379   6.163   5.736
  110OSM    H6T11277   5.529   6.114   5.823
  110OSM    C7S11278   5.537   6.322   5.737
  110OSM    H7S11279   5.618   6.373   5.793
  110OSM    H7T11280   5.459   6.399   5.719
  110OSM    C8S11281   5.599   6.278   5.601
  110OSM    H8S11282   5.684   6.209   5.617
  110OSM    H8T11283   5.630   6.378   5.564
  110OSM    C9S11284   5.518   6.207   5.494
  110OSM    H9S11285   5.425   6.267   5.481
  110OSM    H9T11286   5.483   6.111   5.539
  110OSM   C10S11287   5.585   6.191   5.357
  110OSM   H10S11288   5.674   6.128   5.380
  110OSM   H10T11289   5.625   6.287   5.317
  110OSM   C11S11290   5.493   6.122   5.257
  110OSM   H11S11291   5.407   6.191   5.243
  110OSM   H11T11292   5.459   6.036   5.318
  110OSM   C12S11293   5.567   6.098   5.122
  110OSM   H12S11294   5.518   6.013   5.069
  110OSM   H12T11295   5.666   6.055   5.149
  110OSM   C13S11296   5.594   6.225   5.044
  110OSM   H13S11297   5.644   6.190   4.951
  110OSM   H13T11298   5.664   6.292   5.098
  110OSM   C14S11299   5.469   6.307   5.005
  110OSM   H14S11300   5.513   6.377   4.932
  110OSM   H14T11301   5.440   6.351   5.103
  110OSM   C15S11302   5.364   6.227   4.926
  110OSM   H15S11303   5.318   6.147   4.988
  110OSM   H15T11304   5.414   6.186   4.836
  110OSM   C16S11305   5.253   6.322   4.864
  110OSM   H16S11306   5.299   6.393   4.791
  110OSM   H16T11307   5.200   6.370   4.948
  110OSM   C17S11308   5.150   6.234   4.782
  110OSM   H17S11309   5.105   6.154   4.845
  110OSM   H17T11310   5.188   6.172   4.698
  110OSM   C18S11311   5.030   6.304   4.712
  110OSM   H18S11312   4.969   6.357   4.787
  110OSM   H18T11313   4.971   6.220   4.668
  110OSM   H18U11314   5.065   6.372   4.631
  110OSM    C1F11315   5.729   6.556   6.186
  110OSM     OF11316   5.817   6.510   6.255
  110OSM    C2F11317   5.724   6.692   6.126
  110OSM    H2F11318   5.754   6.770   6.199
  110OSM    H2G11319   5.624   6.714   6.082
  110OSM    C3F11320   5.835   6.706   6.017
  110OSM    H3F11321   5.930   6.673   6.063
  110OSM    H3G11322   5.862   6.813   6.006
  110OSM    C4F11323   5.815   6.646   5.866
  110OSM    H4F11324   5.740   6.703   5.806
  110OSM    H4G11325   5.783   6.539   5.863
  110OSM    C5F11326   5.951   6.653   5.792
  110OSM    H5F11327   6.006   6.562   5.824
  110OSM    H5G11328   6.005   6.747   5.814
  110OSM    C6F11329   5.920   6.638   5.641
  110OSM    H6F11330   5.871   6.541   5.618
  110OSM    H6G11331   6.016   6.643   5.584
  110OSM    C7F11332   5.822   6.745   5.580
  110OSM    H7F11333   5.827   6.844   5.629
  110OSM    H7G11334   5.719   6.709   5.600
  110OSM    C8F11335   5.833   6.767   5.427
  110OSM    H8F11336   5.939   6.798   5.416
  110OSM    H8G11337   5.758   6.847   5.409
  110OSM    C9F11338   5.813   6.631   5.357
  110OSM    H9F11339   5.871   6.554   5.410
  110OSM   C10F11340   5.735   6.603   5.251
  110OSM   H10F11341   5.723   6.500   5.215
  110OSM   C11F11342   5.660   6.705   5.166
  110OSM   H11F11343   5.632   6.792   5.228
  110OSM   H11G11344   5.562   6.663   5.134
  110OSM   C12F11345   5.754   6.757   5.054
  110OSM   H12F11346   5.815   6.836   5.102
  110OSM   H12G11347   5.683   6.808   4.985
  110OSM   C13F11348   5.834   6.656   4.976
  110OSM   H13F11349   5.905   6.604   5.043
  110OSM   H13G11350   5.903   6.703   4.903
  110OSM   C14F11351   5.753   6.547   4.908
  110OSM   H14F11352   5.692   6.566   4.817
  110OSM   H14G11353   5.677   6.508   4.979
  110OSM   C15F11354   5.840   6.426   4.870
  110OSM   H15F11355   5.784   6.340   4.828
  110OSM   H15G11356   5.877   6.387   4.968
  110OSM   C16F11357   5.955   6.435   4.768
  110OSM   H16F11358   6.041   6.496   4.802
  110OSM   H16G11359   5.918   6.492   4.680
  110OSM   C17F11360   6.008   6.296   4.741
  110OSM   H17F11361   5.928   6.225   4.711
  110OSM   H17G11362   6.044   6.262   4.841
  110OSM   C18F11363   6.120   6.295   4.637
  110OSM   H18F11364   6.213   6.349   4.665
  110OSM   H18G11365   6.085   6.330   4.538
  110OSM   H18H11366   6.147   6.187   4.629
  111OSM      N11367   1.691   3.767   6.887
  111OSM    C1511368   1.769   3.873   6.960
  111OSM   H15A11369   1.835   3.822   7.028
  111OSM   H15B11370   1.708   3.945   7.013
  111OSM   H15C11371   1.822   3.938   6.892
  111OSM    C1411372   1.611   3.822   6.781
  111OSM   H14A11373   1.564   3.914   6.813
  111OSM   H14B11374   1.531   3.754   6.753
  111OSM   H14C11375   1.674   3.847   6.697
  111OSM    C1311376   1.796   3.679   6.816
  111OSM   H13A11377   1.748   3.633   6.731
  111OSM   H13B11378   1.838   3.604   6.881
  111OSM   H13C11379   1.873   3.741   6.772
  111OSM    C1211380   1.606   3.697   6.990
  111OSM   H12A11381   1.547   3.764   7.051
  111OSM   H12B11382   1.671   3.637   7.052
  111OSM    C1111383   1.501   3.592   6.929
  111OSM   H11A11384   1.460   3.526   7.009
  111OSM   H11B11385   1.553   3.535   6.849
  111OSM      P11386   1.274   3.731   6.953
  111OSM    O1311387   1.190   3.632   7.020
  111OSM    O1411388   1.337   3.845   7.028
  111OSM    O1111389   1.184   3.789   6.837
  111OSM    O1211390   1.386   3.658   6.870
  111OSM    C1S11391   1.240   3.880   6.748
  111OSM    H1S11392   1.338   3.853   6.705
  111OSM    H1T11393   1.242   3.987   6.779
  111OSM     NF11394   1.182   3.976   6.520
  111OSM    HNF11395   1.113   4.042   6.494
  111OSM    C2S11396   1.142   3.881   6.623
  111OSM    H2S11397   1.164   3.781   6.580
  111OSM    C3S11398   0.988   3.884   6.655
  111OSM    H3S11399   0.970   3.974   6.717
  111OSM     O311400   0.954   3.778   6.746
  111OSM    HO311401   1.043   3.744   6.760
  111OSM    C4S11402   0.916   3.872   6.531
  111OSM    H4S11403   0.905   3.969   6.480
  111OSM    C5S11404   0.882   3.760   6.461
  111OSM    H5S11405   0.902   3.657   6.493
  111OSM    C6S11406   0.822   3.775   6.319
  111OSM    H6S11407   0.714   3.750   6.315
  111OSM    H6T11408   0.874   3.707   6.249
  111OSM    C7S11409   0.806   3.920   6.262
  111OSM    H7S11410   0.764   3.991   6.337
  111OSM    H7T11411   0.741   3.906   6.173
  111OSM    C8S11412   0.937   3.989   6.211
  111OSM    H8S11413   1.013   3.918   6.249
  111OSM    H8T11414   0.934   4.090   6.257
  111OSM    C9S11415   0.954   3.979   6.060
  111OSM    H9S11416   0.921   3.876   6.035
  111OSM    H9T11417   1.063   3.977   6.036
  111OSM   C10S11418   0.877   4.087   5.981
  111OSM   H10S11419   0.897   4.185   6.030
  111OSM   H10T11420   0.768   4.070   5.995
  111OSM   C11S11421   0.912   4.080   5.838
  111OSM   H11S11422   0.884   3.979   5.800
  111OSM   H11T11423   1.020   4.100   5.820
  111OSM   C12S11424   0.832   4.171   5.740
  111OSM   H12S11425   0.810   4.272   5.781
  111OSM   H12T11426   0.736   4.120   5.717
  111OSM   C13S11427   0.912   4.192   5.611
  111OSM   H13S11428   0.953   4.092   5.587
  111OSM   H13T11429   1.008   4.245   5.630
  111OSM   C14S11430   0.843   4.256   5.493
  111OSM   H14S11431   0.826   4.366   5.505
  111OSM   H14T11432   0.746   4.205   5.477
  111OSM   C15S11433   0.933   4.254   5.366
  111OSM   H15S11434   0.936   4.151   5.326
  111OSM   H15T11435   1.032   4.294   5.397
  111OSM   C16S11436   0.871   4.332   5.247
  111OSM   H16S11437   0.850   4.436   5.280
  111OSM   H16T11438   0.783   4.278   5.207
  111OSM   C17S11439   0.965   4.350   5.124
  111OSM   H17S11440   0.998   4.251   5.088
  111OSM   H17T11441   1.064   4.391   5.151
  111OSM   C18S11442   0.916   4.442   5.016
  111OSM   H18S11443   0.830   4.405   4.955
  111OSM   H18T11444   0.999   4.449   4.942
  111OSM   H18U11445   0.882   4.540   5.057
  111OSM    C1F11446   1.295   3.969   6.439
  111OSM     OF11447   1.388   3.891   6.460
  111OSM    C2F11448   1.287   4.070   6.327
  111OSM    H2F11449   1.241   4.163   6.366
  111OSM    H2G11450   1.224   4.025   6.248
  111OSM    C3F11451   1.419   4.114   6.260
  111OSM    H3F11452   1.502   4.140   6.329
  111OSM    H3G11453   1.412   4.206   6.198
  111OSM    C4F11454   1.474   4.008   6.168
  111OSM    H4F11455   1.504   3.927   6.238
  111OSM    H4G11456   1.569   4.045   6.125
  111OSM    C5F11457   1.385   3.958   6.051
  111OSM    H5F11458   1.286   3.918   6.082
  111OSM    H5G11459   1.445   3.874   6.011
  111OSM    C6F11460   1.369   4.069   5.943
  111OSM    H6F11461   1.472   4.100   5.915
  111OSM    H6G11462   1.309   4.156   5.979
  111OSM    C7F11463   1.306   4.019   5.812
  111OSM    H7F11464   1.206   3.975   5.832
  111OSM    H7G11465   1.362   3.935   5.768
  111OSM    C8F11466   1.286   4.133   5.710
  111OSM    H8F11467   1.383   4.183   5.688
  111OSM    H8G11468   1.228   4.215   5.758
  111OSM    C9F11469   1.228   4.079   5.587
  111OSM    H9F11470   1.191   3.975   5.593
  111OSM   C10F11471   1.242   4.146   5.468
  111OSM   H10F11472   1.193   4.109   5.377
  111OSM   C11F11473   1.305   4.279   5.453
  111OSM   H11F11474   1.410   4.284   5.489
  111OSM   H11G11475   1.250   4.364   5.499
  111OSM   C12F11476   1.319   4.312   5.306
  111OSM   H12F11477   1.399   4.388   5.296
  111OSM   H12G11478   1.224   4.356   5.268
  111OSM   C13F11479   1.357   4.184   5.216
  111OSM   H13F11480   1.265   4.121   5.205
  111OSM   H13G11481   1.435   4.122   5.265
  111OSM   C14F11482   1.403   4.217   5.081
  111OSM   H14F11483   1.457   4.133   5.032
  111OSM   H14G11484   1.473   4.303   5.092
  111OSM   C15F11485   1.302   4.277   4.985
  111OSM   H15F11486   1.242   4.358   5.032
  111OSM   H15G11487   1.225   4.198   4.973
  111OSM   C16F11488   1.353   4.315   4.847
  111OSM   H16F11489   1.366   4.221   4.789
  111OSM   H16G11490   1.446   4.372   4.865
  111OSM   C17F11491   1.241   4.391   4.773
  111OSM   H17F11492   1.221   4.482   4.833
  111OSM   H17G11493   1.138   4.348   4.772
  111OSM   C18F11494   1.269   4.436   4.633
  111OSM   H18F11495   1.354   4.508   4.636
  111OSM   H18G11496   1.190   4.498   4.587
  111OSM   H18H11497   1.294   4.352   4.564
  112OSM      N11498   4.064   0.704   6.956
  112OSM    C1511499   4.079   0.592   6.861
  112OSM   H15A11500   4.003   0.517   6.879
  112OSM   H15B11501   4.177   0.547   6.862
  112OSM   H15C11502   4.062   0.631   6.762
  112OSM    C1411503   4.077   0.648   7.095
  112OSM   H14A11504   4.014   0.562   7.110
  112OSM   H14B11505   4.060   0.734   7.159
  112OSM   H14C11506   4.175   0.608   7.113
  112OSM    C1311507   4.185   0.794   6.935
  112OSM   H13A11508   4.200   0.872   7.009
  112OSM   H13B11509   4.187   0.849   6.843
  112OSM   H13C11510   4.271   0.729   6.943
  112OSM    C1211511   3.932   0.777   6.952
  112OSM   H12A11512   3.940   0.861   7.019
  112OSM   H12B11513   3.864   0.710   7.001
  112OSM    C1111514   3.879   0.827   6.819
  112OSM   H11A11515   3.772   0.856   6.828
  112OSM   H11B11516   3.875   0.746   6.742
  112OSM      P11517   3.937   1.082   6.830
  112OSM    O1311518   3.826   1.151   6.757
  112OSM    O1411519   3.915   1.079   6.979
  112OSM    O1111520   4.070   1.157   6.798
  112OSM    O1211521   3.955   0.938   6.769
  112OSM    C1S11522   4.136   1.134   6.668
  112OSM    H1S11523   4.103   1.045   6.610
  112OSM    H1T11524   4.246   1.122   6.681
  112OSM     NF11525   4.165   1.210   6.438
  112OSM    HNF11526   4.262   1.198   6.418
  112OSM    C2S11527   4.126   1.251   6.567
  112OSM    H2S11528   4.020   1.284   6.561
  112OSM    C3S11529   4.199   1.380   6.625
  112OSM    H3S11530   4.308   1.361   6.630
  112OSM     O311531   4.163   1.410   6.762
  112OSM    HO311532   4.112   1.333   6.787
  112OSM    C4S11533   4.180   1.495   6.528
  112OSM    H4S11534   4.259   1.510   6.451
  112OSM    C5S11535   4.061   1.563   6.524
  112OSM    H5S11536   3.990   1.540   6.605
  112OSM    C6S11537   4.030   1.675   6.422
  112OSM    H6S11538   4.040   1.773   6.473
  112OSM    H6T11539   3.923   1.661   6.395
  112OSM    C7S11540   4.114   1.716   6.300
  112OSM    H7S11541   4.146   1.626   6.242
  112OSM    H7T11542   4.214   1.757   6.326
  112OSM    C8S11543   4.057   1.823   6.199
  112OSM    H8S11544   4.062   1.923   6.247
  112OSM    H8T11545   3.949   1.804   6.183
  112OSM    C9S11546   4.135   1.812   6.064
  112OSM    H9S11547   4.111   1.711   6.023
  112OSM    H9T11548   4.243   1.813   6.089
  112OSM   C10S11549   4.104   1.936   5.968
  112OSM   H10S11550   4.140   2.029   6.016
  112OSM   H10T11551   3.994   1.928   5.954
  112OSM   C11S11552   4.167   1.927   5.830
  112OSM   H11S11553   4.127   1.839   5.775
  112OSM   H11T11554   4.272   1.900   5.853
  112OSM   C12S11555   4.146   2.047   5.734
  112OSM   H12S11556   4.188   2.137   5.785
  112OSM   H12T11557   4.036   2.062   5.732
  112OSM   C13S11558   4.193   2.021   5.593
  112OSM   H13S11559   4.117   1.960   5.540
  112OSM   H13T11560   4.286   1.961   5.589
  112OSM   C14S11561   4.201   2.154   5.508
  112OSM   H14S11562   4.226   2.253   5.551
  112OSM   H14T11563   4.091   2.159   5.492
  112OSM   C15S11564   4.265   2.154   5.369
  112OSM   H15S11565   4.373   2.137   5.387
  112OSM   H15T11566   4.240   2.252   5.322
  112OSM   C16S11567   4.219   2.040   5.271
  112OSM   H16S11568   4.109   2.046   5.256
  112OSM   H16T11569   4.234   1.937   5.311
  112OSM   C17S11570   4.291   2.061   5.134
  112OSM   H17S11571   4.401   2.049   5.148
  112OSM   H17T11572   4.253   2.160   5.101
  112OSM   C18S11573   4.242   1.962   5.028
  112OSM   H18S11574   4.131   1.955   5.029
  112OSM   H18T11575   4.289   1.861   5.034
  112OSM   H18U11576   4.273   1.997   4.927
  112OSM    C1F11577   4.091   1.140   6.350
  112OSM     OF11578   3.978   1.095   6.367
  112OSM    C2F11579   4.164   1.104   6.222
  112OSM    H2F11580   4.205   1.001   6.230
  112OSM    H2G11581   4.252   1.171   6.207
  112OSM    C3F11582   4.083   1.112   6.095
  112OSM    H3F11583   4.046   1.217   6.089
  112OSM    H3G11584   3.992   1.048   6.100
  112OSM    C4F11585   4.149   1.086   5.961
  112OSM    H4F11586   4.178   0.979   5.957
  112OSM    H4G11587   4.250   1.131   5.952
  112OSM    C5F11588   4.057   1.112   5.846
  112OSM    H5F11589   4.008   1.208   5.872
  112OSM    H5G11590   3.981   1.032   5.834
  112OSM    C6F11591   4.137   1.139   5.724
  112OSM    H6F11592   4.197   1.048   5.706
  112OSM    H6G11593   4.185   1.239   5.718
  112OSM    C7F11594   4.044   1.123   5.594
  112OSM    H7F11595   3.964   1.200   5.596
  112OSM    H7G11596   3.990   1.026   5.600
  112OSM    C8F11597   4.118   1.141   5.457
  112OSM    H8F11598   4.062   1.087   5.378
  112OSM    H8G11599   4.214   1.086   5.470
  112OSM    C9F11600   4.136   1.287   5.420
  112OSM    H9F11601   4.169   1.345   5.507
  112OSM   C10F11602   4.113   1.344   5.307
  112OSM   H10F11603   4.135   1.451   5.295
  112OSM   C11F11604   4.079   1.279   5.176
  112OSM   H11F11605   3.977   1.297   5.135
  112OSM   H11G11606   4.098   1.170   5.166
  112OSM   C12F11607   4.178   1.341   5.074
  112OSM   H12F11608   4.283   1.329   5.108
  112OSM   H12G11609   4.158   1.448   5.051
  112OSM   C13F11610   4.174   1.268   4.941
  112OSM   H13F11611   4.187   1.158   4.950
  112OSM   H13G11612   4.260   1.314   4.888
  112OSM   C14F11613   4.044   1.310   4.869
  112OSM   H14F11614   4.030   1.420   4.865
  112OSM   H14G11615   3.960   1.278   4.935
  112OSM   C15F11616   4.024   1.248   4.734
  112OSM   H15F11617   3.934   1.299   4.694
  112OSM   H15G11618   3.986   1.144   4.751
  112OSM   C16F11619   4.150   1.257   4.643
  112OSM   H16F11620   4.227   1.186   4.680
  112OSM   H16G11621   4.198   1.357   4.645
  112OSM   C17F11622   4.131   1.206   4.498
  112OSM   H17F11623   4.235   1.220   4.464
  112OSM   H17G11624   4.069   1.265   4.426
  112OSM   C18F11625   4.101   1.057   4.482
  112OSM   H18F11626   4.102   1.035   4.373
  112OSM   H18G11627   3.995   1.040   4.511
  112OSM   H18H11628   4.166   0.978   4.524
  113OSM      N11629   1.137   1.890   6.478
  113OSM    C1511630   1.159   1.746   6.461
  113OSM   H15A11631   1.264   1.724   6.447
  113OSM   H15B11632   1.125   1.701   6.369
  113OSM   H15C11633   1.115   1.684   6.537
  113OSM    C1411634   1.218   1.943   6.593
  113OSM   H14A11635   1.194   1.901   6.690
  113OSM   H14B11636   1.214   2.049   6.610
  113OSM   H14C11637   1.320   1.935   6.559
  113OSM    C1311638   1.178   1.968   6.363
  113OSM   H13A11639   1.191   2.074   6.382
  113OSM   H13B11640   1.108   1.950   6.283
  113OSM   H13C11641   1.280   1.946   6.333
  113OSM    C1211642   0.990   1.921   6.504
  113OSM   H12A11643   0.937   1.885   6.417
  113OSM   H12B11644   0.975   2.027   6.497
  113OSM    C1111645   0.913   1.872   6.629
  113OSM   H11A11646   0.807   1.906   6.625
  113OSM   H11B11647   0.958   1.911   6.722
  113OSM      P11648   0.809   1.623   6.611
  113OSM    O1311649   0.871   1.492   6.619
  113OSM    O1411650   0.688   1.651   6.693
  113OSM    O1111651   0.768   1.642   6.468
  113OSM    O1211652   0.923   1.728   6.640
  113OSM    C1S11653   0.814   1.551   6.363
  113OSM    H1S11654   0.787   1.447   6.389
  113OSM    H1T11655   0.924   1.555   6.346
  113OSM     NF11656   0.730   1.465   6.140
  113OSM    HNF11657   0.789   1.450   6.062
  113OSM    C2S11658   0.749   1.585   6.226
  113OSM    H2S11659   0.644   1.614   6.247
  113OSM    C3S11660   0.818   1.705   6.158
  113OSM    H3S11661   0.920   1.675   6.125
  113OSM     O311662   0.855   1.804   6.255
  113OSM    HO311663   0.833   1.768   6.341
  113OSM    C4S11664   0.742   1.762   6.041
  113OSM    H4S11665   0.779   1.727   5.943
  113OSM    C5S11666   0.625   1.835   6.050
  113OSM    H5S11667   0.587   1.852   6.152
  113OSM    C6S11668   0.555   1.890   5.921
  113OSM    H6S11669   0.548   2.000   5.927
  113OSM    H6T11670   0.446   1.871   5.911
  113OSM    C7S11671   0.606   1.852   5.779
  113OSM    H7S11672   0.592   1.743   5.763
  113OSM    H7T11673   0.716   1.867   5.772
  113OSM    C8S11674   0.531   1.908   5.662
  113OSM    H8S11675   0.548   2.017   5.674
  113OSM    H8T11676   0.420   1.895   5.665
  113OSM    C9S11677   0.578   1.865   5.525
  113OSM    H9S11678   0.579   1.754   5.526
  113OSM    H9T11679   0.682   1.891   5.494
  113OSM   C10S11680   0.501   1.910   5.404
  113OSM   H10S11681   0.503   2.021   5.411
  113OSM   H10T11682   0.394   1.882   5.412
  113OSM   C11S11683   0.564   1.855   5.272
  113OSM   H11S11684   0.594   1.752   5.302
  113OSM   H11T11685   0.663   1.904   5.260
  113OSM   C12S11686   0.475   1.873   5.153
  113OSM   H12S11687   0.417   1.967   5.161
  113OSM   H12T11688   0.391   1.800   5.147
  113OSM   C13S11689   0.555   1.872   5.019
  113OSM   H13S11690   0.599   1.771   5.004
  113OSM   H13T11691   0.640   1.942   5.029
  113OSM   C14S11692   0.472   1.904   4.888
  113OSM   H14S11693   0.515   2.001   4.855
  113OSM   H14T11694   0.369   1.925   4.923
  113OSM   C15S11695   0.478   1.792   4.782
  113OSM   H15S11696   0.454   1.691   4.821
  113OSM   H15T11697   0.582   1.788   4.745
  113OSM   C16S11698   0.364   1.811   4.679
  113OSM   H16S11699   0.354   1.917   4.648
  113OSM   H16T11700   0.271   1.794   4.739
  113OSM   C17S11701   0.384   1.728   4.555
  113OSM   H17S11702   0.472   1.767   4.499
  113OSM   H17T11703   0.297   1.754   4.492
  113OSM   C18S11704   0.378   1.574   4.573
  113OSM   H18S11705   0.273   1.542   4.594
  113OSM   H18T11706   0.441   1.544   4.660
  113OSM   H18U11707   0.393   1.502   4.490
  113OSM    C1F11708   0.656   1.359   6.172
  113OSM     OF11709   0.573   1.368   6.261
  113OSM    C2F11710   0.688   1.228   6.102
  113OSM    H2F11711   0.693   1.144   6.175
  113OSM    H2G11712   0.790   1.239   6.058
  113OSM    C3F11713   0.573   1.209   6.006
  113OSM    H3F11714   0.569   1.288   5.927
  113OSM    H3G11715   0.474   1.212   6.057
  113OSM    C4F11716   0.610   1.085   5.928
  113OSM    H4F11717   0.619   1.001   6.001
  113OSM    H4G11718   0.703   1.094   5.868
  113OSM    C5F11719   0.493   1.026   5.845
  113OSM    H5F11720   0.399   1.056   5.895
  113OSM    H5G11721   0.497   0.915   5.844
  113OSM    C6F11722   0.490   1.071   5.699
  113OSM    H6F11723   0.583   1.029   5.654
  113OSM    H6G11724   0.491   1.182   5.706
  113OSM    C7F11725   0.350   1.039   5.632
  113OSM    H7F11726   0.272   1.104   5.676
  113OSM    H7G11727   0.308   0.939   5.654
  113OSM    C8F11728   0.348   1.067   5.476
  113OSM    H8F11729   0.420   0.999   5.426
  113OSM    H8G11730   0.389   1.170   5.472
  113OSM    C9F11731   0.195   1.065   5.424
  113OSM    H9F11732   0.140   1.160   5.435
  113OSM   C10F11733   0.137   0.965   5.352
  113OSM   H10F11734   0.030   0.964   5.326
  113OSM   C11F11735   0.204   0.835   5.310
  113OSM   H11F11736   0.166   0.748   5.367
  113OSM   H11G11737   0.312   0.832   5.339
  113OSM   C12F11738   0.184   0.805   5.165
  113OSM   H12F11739   0.262   0.730   5.140
  113OSM   H12G11740   0.219   0.892   5.106
  113OSM   C13F11741   0.038   0.767   5.120
  113OSM   H13F11742   6.818   0.836   5.164
  113OSM   H13G11743   0.017   0.666   5.160
  113OSM   C14F11744   0.020   0.757   4.968
  113OSM   H14F11745   0.082   0.676   4.926
  113OSM   H14G11746   0.037   0.859   4.926
  113OSM   C15F11747   6.732   0.700   4.943
  113OSM   H15F11748   6.666   0.778   4.986
  113OSM   H15G11749   6.724   0.602   4.996
  113OSM   C16F11750   6.703   0.681   4.795
  113OSM   H16F11751   6.739   0.583   4.756
  113OSM   H16G11752   6.752   0.768   4.745
  113OSM   C17F11753   6.554   0.679   4.766
  113OSM   H17F11754   6.515   0.778   4.797
  113OSM   H17G11755   6.502   0.610   4.836
  113OSM   C18F11756   6.528   0.644   4.619
  113OSM   H18F11757   6.549   0.538   4.596
  113OSM   H18G11758   6.589   0.716   4.560
  113OSM   H18H11759   6.423   0.652   4.585
  114OSM      N11760   0.123   6.042   6.793
  114OSM    C1511761   0.176   6.135   6.892
  114OSM   H15A11762   0.216   6.222   6.841
  114OSM   H15B11763   0.257   6.086   6.944
  114OSM   H15C11764   0.106   6.165   6.968
  114OSM    C1411765   0.235   6.001   6.701
  114OSM   H14A11766   0.291   6.091   6.684
  114OSM   H14B11767   0.196   5.967   6.606
  114OSM   H14C11768   0.295   5.923   6.745
  114OSM    C1311769   0.067   5.924   6.859
  114OSM   H13A11770   0.011   5.857   6.795
  114OSM   H13B11771   0.001   5.967   6.932
  114OSM   H13C11772   0.139   5.873   6.921
  114OSM    C1211773   0.012   6.107   6.714
  114OSM   H12A11774   6.789   6.151   6.776
  114OSM   H12B11775   6.820   6.031   6.653
  114OSM    C1111776   0.047   6.222   6.615
  114OSM   H11A11777   6.816   6.236   6.545
  114OSM   H11B11778   0.135   6.194   6.553
  114OSM      P11779   6.828   6.432   6.773
  114OSM    O1311780   6.702   6.361   6.787
  114OSM    O1411781   0.043   6.467   6.902
  114OSM    O1111782   6.796   6.567   6.677
  114OSM    O1211783   0.080   6.344   6.683
  114OSM    C1S11784   6.826   6.566   6.536
  114OSM    H1S11785   6.755   6.503   6.478
  114OSM    H1T11786   0.068   6.521   6.504
  114OSM     NF11787   0.018   6.693   6.333
  114OSM    HNF11788   0.117   6.702   6.323
  114OSM    C2S11789   6.831   6.707   6.473
  114OSM    H2S11790   6.727   6.745   6.471
  114OSM    C3S11791   0.069   6.810   6.553
  114OSM    H3S11792   0.173   6.771   6.545
  114OSM     O311793   0.064   6.816   6.691
  114OSM    HO311794   0.002   6.747   6.714
  114OSM    C4S11795   0.071   0.091   6.491
  114OSM    H4S11796   0.150   0.103   6.415
  114OSM    C5S11797   6.829   0.185   6.511
  114OSM    H5S11798   6.739   0.162   6.570
  114OSM    C6S11799   6.807   0.308   6.416
  114OSM    H6S11800   0.043   0.373   6.424
  114OSM    H6T11801   6.722   0.365   6.460
  114OSM    C7S11802   6.784   0.276   6.264
  114OSM    H7S11803   0.011   0.204   6.239
  114OSM    H7T11804   6.803   0.369   6.205
  114OSM    C8S11805   6.645   0.220   6.236
  114OSM    H8S11806   6.577   0.301   6.269
  114OSM    H8T11807   6.618   0.131   6.296
  114OSM    C9S11808   6.613   0.200   6.088
  114OSM    H9S11809   6.627   0.296   6.035
  114OSM    H9T11810   6.514   0.150   6.081
  114OSM   C10S11811   6.717   0.112   6.021
  114OSM   H10S11812   6.721   0.019   6.082
  114OSM   H10T11813   6.817   0.159   6.031
  114OSM   C11S11814   6.690   0.075   5.879
  114OSM   H11S11815   6.584   0.046   5.864
  114OSM   H11T11816   6.754   6.843   5.851
  114OSM   C12S11817   6.697   0.187   5.765
  114OSM   H12S11818   6.793   0.240   5.783
  114OSM   H12T11819   6.607   0.250   5.779
  114OSM   C13S11820   6.703   0.129   5.624
  114OSM   H13S11821   6.621   0.056   5.615
  114OSM   H13T11822   6.807   0.089   5.615
  114OSM   C14S11823   6.681   0.230   5.510
  114OSM   H14S11824   6.766   0.302   5.503
  114OSM   H14T11825   6.584   0.284   5.514
  114OSM   C15S11826   6.675   0.168   5.365
  114OSM   H15S11827   6.603   0.084   5.362
  114OSM   H15T11828   6.772   0.122   5.335
  114OSM   C16S11829   6.651   0.272   5.247
  114OSM   H16S11830   6.680   0.217   5.154
  114OSM   H16T11831   6.720   0.359   5.258
  114OSM   C17S11832   6.509   0.327   5.228
  114OSM   H17S11833   6.466   0.361   5.325
  114OSM   H17T11834   6.443   0.238   5.214
  114OSM   C18S11835   6.505   0.445   5.129
  114OSM   H18S11836   6.405   0.494   5.136
  114OSM   H18T11837   6.525   0.401   5.029
  114OSM   H18U11838   6.582   0.524   5.142
  114OSM    C1F11839   6.793   6.662   6.236
  114OSM     OF11840   6.673   6.663   6.257
  114OSM    C2F11841   6.853   6.627   6.105
  114OSM    H2F11842   0.076   6.549   6.123
  114OSM    H2G11843   0.043   6.718   6.059
  114OSM    C3F11844   6.762   6.580   5.996
  114OSM    H3F11845   6.674   6.648   5.999
  114OSM    H3G11846   6.717   6.480   6.016
  114OSM    C4F11847   6.834   6.570   5.865
  114OSM    H4F11848   0.059   6.493   5.873
  114OSM    H4G11849   0.025   6.668   5.839
  114OSM    C5F11850   6.729   6.553   5.753
  114OSM    H5F11851   6.650   6.630   5.764
  114OSM    H5G11852   6.677   6.464   5.795
  114OSM    C6F11853   6.784   6.520   5.612
  114OSM    H6F11854   6.848   6.430   5.612
  114OSM    H6G11855   6.849   6.600   5.570
  114OSM    C7F11856   6.671   6.485   5.509
  114OSM    H7F11857   6.605   6.574   5.513
  114OSM    H7G11858   6.613   6.396   5.542
  114OSM    C8F11859   6.726   6.466   5.368
  114OSM    H8F11860   6.764   6.565   5.338
  114OSM    H8G11861   6.638   6.435   5.306
  114OSM    C9F11862   6.839   6.370   5.367
  114OSM    H9F11863   0.081   6.414   5.398
  114OSM   C10F11864   6.832   6.236   5.347
  114OSM   H10F11865   0.066   6.171   5.334
  114OSM   C11F11866   6.711   6.157   5.313
  114OSM   H11F11867   6.621   6.209   5.352
  114OSM   H11G11868   6.724   6.065   5.373
  114OSM   C12F11869   6.706   6.114   5.161
  114OSM   H12F11870   6.616   6.049   5.152
  114OSM   H12G11871   6.792   6.049   5.136
  114OSM   C13F11872   6.700   6.234   5.060
  114OSM   H13F11873   6.790   6.297   5.076
  114OSM   H13G11874   6.625   6.307   5.098
  114OSM   C14F11875   6.672   6.207   4.913
  114OSM   H14F11876   6.567   6.171   4.905
  114OSM   H14G11877   6.741   6.140   4.858
  114OSM   C15F11878   6.678   6.330   4.828
  114OSM   H15F11879   6.778   6.376   4.843
  114OSM   H15G11880   6.606   6.409   4.858
  114OSM   C16F11881   6.678   6.314   4.675
  114OSM   H16F11882   6.747   6.232   4.645
  114OSM   H16G11883   6.712   6.405   4.620
  114OSM   C17F11884   6.540   6.294   4.614
  114OSM   H17F11885   6.460   6.365   4.645
  114OSM   H17G11886   6.514   6.193   4.653
  114OSM   C18F11887   6.543   6.275   4.462
  114OSM   H18F11888   6.611   6.190   4.440
  114OSM   H18G11889   6.575   6.367   4.409
  114OSM   H18H11890   6.442   6.251   4.424
  115OSM      N11891   0.335   2.117   6.726
  115OSM    C1511892   0.475   2.080   6.682
  115OSM   H15A11893   0.542   2.144   6.738
  115OSM   H15B11894   0.473   2.107   6.578
  115OSM   H15C11895   0.496   1.978   6.711
  115OSM    C1411896   0.235   2.022   6.662
  115OSM   H14A11897   0.254   1.999   6.558
  115OSM   H14B11898   0.133   2.055   6.674
  115OSM   H14C11899   0.242   1.925   6.710
  115OSM    C1311900   0.325   2.115   6.879
  115OSM   H13A11901   0.337   2.012   6.910
  115OSM   H13B11902   0.231   2.155   6.913
  115OSM   H13C11903   0.398   2.183   6.920
  115OSM    C1211904   0.306   2.260   6.684
  115OSM   H12A11905   0.387   2.321   6.723
  115OSM   H12B11906   0.213   2.293   6.728
  115OSM    C1111907   0.298   2.303   6.537
  115OSM   H11A11908   0.401   2.297   6.496
  115OSM   H11B11909   0.271   2.411   6.539
  115OSM      P11910   0.053   2.257   6.464
  115OSM    O1311911   6.848   2.158   6.373
  115OSM    O1411912   0.001   2.279   6.605
  115OSM    O1111913   0.026   2.397   6.390
  115OSM    O1211914   0.212   2.218   6.454
  115OSM    C1S11915   0.068   2.413   6.252
  115OSM    H1S11916   0.022   2.344   6.178
  115OSM    H1T11917   0.177   2.393   6.243
  115OSM     NF11918   0.040   2.567   6.061
  115OSM    HNF11919   0.092   2.640   6.018
  115OSM    C2S11920   0.040   2.560   6.203
  115OSM    H2S11921   6.789   2.579   6.232
  115OSM    C3S11922   0.122   2.664   6.288
  115OSM    H3S11923   0.216   2.682   6.232
  115OSM     O311924   0.147   2.623   6.422
  115OSM    HO311925   0.126   2.530   6.431
  115OSM    C4S11926   0.039   2.789   6.293
  115OSM    H4S11927   6.803   2.782   6.355
  115OSM    C5S11928   0.071   2.895   6.219
  115OSM    H5S11929   0.166   2.900   6.163
  115OSM    C6S11930   0.011   3.029   6.222
  115OSM    H6S11931   0.083   3.095   6.275
  115OSM    H6T11932   6.776   3.033   6.288
  115OSM    C7S11933   6.831   3.088   6.083
  115OSM    H7S11934   6.735   3.046   6.046
  115OSM    H7T11935   0.058   3.064   6.011
  115OSM    C8S11936   6.815   3.242   6.087
  115OSM    H8S11937   0.046   3.306   6.116
  115OSM    H8T11938   6.732   3.264   6.158
  115OSM    C9S11939   6.760   3.304   5.954
  115OSM    H9S11940   6.719   3.405   5.975
  115OSM    H9T11941   6.673   3.244   5.919
  115OSM   C10S11942   0.023   3.301   5.847
  115OSM   H10S11943   0.056   3.198   5.823
  115OSM   H10T11944   0.113   3.353   5.884
  115OSM   C11S11945   6.844   3.383   5.722
  115OSM   H11S11946   6.851   3.491   5.747
  115OSM   H11T11947   6.738   3.361   5.696
  115OSM   C12S11948   0.073   3.351   5.598
  115OSM   H12S11949   0.062   3.243   5.574
  115OSM   H12T11950   0.182   3.363   5.616
  115OSM   C13S11951   0.011   3.426   5.476
  115OSM   H13S11952   0.008   3.536   5.491
  115OSM   H13T11953   6.757   3.404   5.471
  115OSM   C14S11954   0.063   3.376   5.342
  115OSM   H14S11955   0.001   3.293   5.301
  115OSM   H14T11956   0.165   3.332   5.348
  115OSM   C15S11957   0.050   3.494   5.247
  115OSM   H15S11958   0.131   3.566   5.267
  115OSM   H15T11959   6.813   3.553   5.271
  115OSM   C16S11960   0.051   3.463   5.092
  115OSM   H16S11961   0.046   3.548   5.022
  115OSM   H16T11962   6.810   3.407   5.088
  115OSM   C17S11963   0.164   3.376   5.042
  115OSM   H17S11964   0.151   3.378   4.932
  115OSM   H17T11965   0.148   3.271   5.075
  115OSM   C18S11966   0.306   3.431   5.081
  115OSM   H18S11967   0.397   3.375   5.049
  115OSM   H18T11968   0.300   3.422   5.191
  115OSM   H18U11969   0.304   3.537   5.048
  115OSM    C1F11970   6.804   2.497   5.985
  115OSM     OF11971   6.708   2.436   6.031
  115OSM    C2F11972   6.838   2.500   5.835
  115OSM    H2F11973   0.094   2.504   5.826
  115OSM    H2G11974   6.808   2.602   5.803
  115OSM    C3F11975   6.779   2.380   5.762
  115OSM    H3F11976   6.670   2.366   5.778
  115OSM    H3G11977   6.831   2.287   5.794
  115OSM    C4F11978   6.799   2.376   5.608
  115OSM    H4F11979   6.796   2.273   5.568
  115OSM    H4G11980   0.042   2.426   5.587
  115OSM    C5F11981   6.686   2.455   5.537
  115OSM    H5F11982   6.666   2.545   5.597
  115OSM    H5G11983   6.591   2.397   5.538
  115OSM    C6F11984   6.711   2.509   5.396
  115OSM    H6F11985   6.800   2.576   5.401
  115OSM    H6G11986   6.625   2.571   5.364
  115OSM    C7F11987   6.731   2.407   5.284
  115OSM    H7F11988   6.630   2.361   5.279
  115OSM    H7G11989   6.793   2.322   5.318
  115OSM    C8F11990   6.770   2.458   5.142
  115OSM    H8F11991   6.744   2.387   5.060
  115OSM    H8G11992   0.026   2.457   5.126
  115OSM    C9F11993   6.708   2.592   5.082
  115OSM    H9F11994   6.634   2.636   5.150
  115OSM   C10F11995   6.743   2.647   4.958
  115OSM   H10F11996   6.698   2.744   4.936
  115OSM   C11F11997   0.002   2.595   4.869
  115OSM   H11F11998   0.087   2.541   4.916
  115OSM   H11G11999   0.052   2.676   4.812
  115OSM   C12F12000   6.791   2.494   4.776
  115OSM   H12F12001   6.728   2.417   4.824
  115OSM   H12G12002   0.014   2.435   4.722
  115OSM   C13F12003   6.706   2.555   4.664
  115OSM   H13F12004   6.769   2.607   4.588
  115OSM   H13G12005   6.627   2.622   4.703
  115OSM   C14F12006   6.627   2.449   4.579
  115OSM   H14F12007   6.566   2.389   4.650
  115OSM   H14G12008   6.690   2.374   4.525
  115OSM   C15F12009   6.547   2.512   4.467
  115OSM   H15F12010   6.521   2.440   4.386
  115OSM   H15G12011   6.611   2.585   4.413
  115OSM   C16F12012   6.422   2.574   4.513
  115OSM   H16F12013   6.444   2.660   4.580
  115OSM   H16G12014   6.374   2.487   4.562
  115OSM   C17F12015   6.325   2.635   4.406
  115OSM   H17F12016   6.308   2.560   4.326
  115OSM   H17G12017   6.365   2.732   4.368
  115OSM   C18F12018   6.188   2.665   4.457
  115OSM   H18F12019   6.187   2.732   4.546
  115OSM   H18G12020   6.134   2.570   4.478
  115OSM   H18H12021   6.133   2.712   4.373
  116OSM      N12022   1.430   1.096   6.922
  116OSM    C1512023   1.506   1.207   6.983
  116OSM   H15A12024   1.475   1.240   7.081
  116OSM   H15B12025   1.479   1.302   6.939
  116OSM   H15C12026   1.613   1.190   6.978
  116OSM    C1412027   1.479   0.972   6.993
  116OSM   H14A12028   1.584   0.954   6.977
  116OSM   H14B12029   1.425   0.890   6.948
  116OSM   H14C12030   1.461   0.966   7.099
  116OSM    C1312031   1.277   1.100   6.947
  116OSM   H13A12032   1.227   1.022   6.892
  116OSM   H13B12033   1.230   1.194   6.919
  116OSM   H13C12034   1.254   1.077   7.050
  116OSM    C1212035   1.461   1.070   6.769
  116OSM   H12A12036   1.400   0.986   6.738
  116OSM   H12B12037   1.562   1.034   6.757
  116OSM    C1112038   1.433   1.176   6.658
  116OSM   H11A12039   1.323   1.176   6.650
  116OSM   H11B12040   1.469   1.142   6.558
  116OSM      P12041   1.630   1.356   6.675
  116OSM    O1312042   1.636   1.504   6.690
  116OSM    O1412043   1.711   1.279   6.771
  116OSM    O1112044   1.660   1.312   6.527
  116OSM    O1212045   1.483   1.304   6.693
  116OSM    C1S12046   1.566   1.372   6.433
  116OSM    H1S12047   1.530   1.476   6.450
  116OSM    H1T12048   1.470   1.317   6.425
  116OSM     NF12049   1.533   1.434   6.193
  116OSM    HNF12050   1.502   1.378   6.117
  116OSM    C2S12051   1.633   1.391   6.291
  116OSM    H2S12052   1.707   1.472   6.310
  116OSM    C3S12053   1.710   1.264   6.237
  116OSM    H3S12054   1.634   1.189   6.207
  116OSM     O312055   1.794   1.200   6.334
  116OSM    HO312056   1.767   1.242   6.416
  116OSM    C4S12057   1.782   1.310   6.114
  116OSM    H4S12058   1.720   1.321   6.024
  116OSM    C5S12059   1.905   1.351   6.097
  116OSM    H5S12060   1.971   1.355   6.185
  116OSM    C6S12061   1.951   1.415   5.970
  116OSM    H6S12062   2.050   1.366   5.957
  116OSM    H6T12063   1.974   1.522   5.987
  116OSM    C7S12064   1.879   1.397   5.839
  116OSM    H7S12065   1.789   1.460   5.824
  116OSM    H7T12066   1.841   1.293   5.826
  116OSM    C8S12067   1.972   1.428   5.717
  116OSM    H8S12068   2.037   1.338   5.714
  116OSM    H8T12069   2.033   1.519   5.731
  116OSM    C9S12070   1.898   1.440   5.582
  116OSM    H9S12071   1.830   1.528   5.582
  116OSM    H9T12072   1.825   1.357   5.570
  116OSM   C10S12073   2.001   1.466   5.465
  116OSM   H10S12074   2.043   1.369   5.432
  116OSM   H10T12075   2.060   1.550   5.507
  116OSM   C11S12076   1.927   1.527   5.341
  116OSM   H11S12077   2.005   1.563   5.271
  116OSM   H11T12078   1.857   1.609   5.368
  116OSM   C12S12079   1.835   1.422   5.269
  116OSM   H12S12080   1.754   1.385   5.334
  116OSM   H12T12081   1.901   1.334   5.250
  116OSM   C13S12082   1.780   1.481   5.145
  116OSM   H13S12083   1.854   1.533   5.080
  116OSM   H13T12084   1.706   1.556   5.179
  116OSM   C14S12085   1.711   1.381   5.056
  116OSM   H14S12086   1.616   1.352   5.106
  116OSM   H14T12087   1.777   1.292   5.046
  116OSM   C15S12088   1.675   1.438   4.919
  116OSM   H15S12089   1.623   1.534   4.937
  116OSM   H15T12090   1.604   1.361   4.882
  116OSM   C16S12091   1.784   1.452   4.808
  116OSM   H16S12092   1.831   1.352   4.792
  116OSM   H16T12093   1.860   1.522   4.848
  116OSM   C17S12094   1.741   1.478   4.666
  116OSM   H17S12095   1.828   1.498   4.600
  116OSM   H17T12096   1.689   1.576   4.663
  116OSM   C18S12097   1.667   1.367   4.592
  116OSM   H18S12098   1.647   1.404   4.490
  116OSM   H18T12099   1.573   1.355   4.651
  116OSM   H18U12100   1.717   1.268   4.590
  116OSM    C1F12101   1.476   1.558   6.202
  116OSM     OF12102   1.522   1.652   6.271
  116OSM    C2F12103   1.346   1.577   6.122
  116OSM    H2F12104   1.267   1.548   6.194
  116OSM    H2G12105   1.333   1.505   6.038
  116OSM    C3F12106   1.330   1.727   6.077
  116OSM    H3F12107   1.424   1.781   6.053
  116OSM    H3G12108   1.290   1.780   6.166
  116OSM    C4F12109   1.230   1.746   5.963
  116OSM    H4F12110   1.221   1.857   5.959
  116OSM    H4G12111   1.132   1.697   5.979
  116OSM    C5F12112   1.286   1.713   5.830
  116OSM    H5F12113   1.308   1.604   5.822
  116OSM    H5G12114   1.378   1.769   5.800
  116OSM    C6F12115   1.189   1.756   5.709
  116OSM    H6F12116   1.186   1.867   5.711
  116OSM    H6G12117   1.087   1.715   5.725
  116OSM    C7F12118   1.244   1.714   5.572
  116OSM    H7F12119   1.214   1.609   5.548
  116OSM    H7G12120   1.355   1.716   5.571
  116OSM    C8F12121   1.190   1.809   5.466
  116OSM    H8F12122   1.230   1.780   5.366
  116OSM    H8G12123   1.230   1.908   5.494
  116OSM    C9F12124   1.041   1.822   5.460
  116OSM    H9F12125   0.995   1.861   5.551
  116OSM   C10F12126   0.961   1.792   5.355
  116OSM   H10F12127   0.852   1.804   5.360
  116OSM   C11F12128   1.009   1.740   5.222
  116OSM   H11F12129   1.044   1.635   5.214
  116OSM   H11G12130   1.099   1.797   5.190
  116OSM   C12F12131   0.902   1.745   5.110
  116OSM   H12F12132   0.860   1.846   5.094
  116OSM   H12G12133   0.810   1.691   5.141
  116OSM   C13F12134   0.940   1.681   4.974
  116OSM   H13F12135   0.984   1.587   5.013
  116OSM   H13G12136   1.014   1.744   4.920
  116OSM   C14F12137   0.825   1.630   4.876
  116OSM   H14F12138   0.776   1.722   4.841
  116OSM   H14G12139   0.757   1.557   4.925
  116OSM   C15F12140   0.878   1.554   4.752
  116OSM   H15F12141   0.791   1.501   4.708
  116OSM   H15G12142   0.960   1.484   4.778
  116OSM   C16F12143   0.928   1.652   4.639
  116OSM   H16F12144   1.010   1.606   4.579
  116OSM   H16G12145   0.959   1.748   4.686
  116OSM   C17F12146   0.804   1.672   4.544
  116OSM   H17F12147   0.808   1.779   4.515
  116OSM   H17G12148   0.707   1.652   4.595
  116OSM   C18F12149   0.815   1.572   4.427
  116OSM   H18F12150   0.906   1.598   4.369
  116OSM   H18G12151   0.726   1.576   4.360
  116OSM   H18H12152   0.826   1.469   4.467
  117OSM      N12153   0.971   4.009   7.163
  117OSM    C1512154   1.079   4.064   7.067
  117OSM   H15A12155   1.079   4.009   6.974
  117OSM   H15B12156   1.181   4.056   7.101
  117OSM   H15C12157   1.056   4.162   7.028
  117OSM    C1412158   0.978   3.862   7.183
  117OSM   H14A12159   0.909   3.823   7.256
  117OSM   H14B12160   1.075   3.832   7.219
  117OSM   H14C12161   0.940   3.815   7.094
  117OSM    C1312162   0.989   4.078   7.299
  117OSM   H13A12163   0.903   4.064   7.362
  117OSM   H13B12164   1.005   4.184   7.283
  117OSM   H13C12165   1.084   4.050   7.340
  117OSM    C1212166   0.834   4.045   7.104
  117OSM   H12A12167   0.818   4.151   7.119
  117OSM   H12B12168   0.759   4.002   7.167
  117OSM    C1112169   0.820   4.011   6.956
  117OSM   H11A12170   0.850   3.907   6.933
  117OSM   H11B12171   0.892   4.074   6.899
  117OSM      P12172   0.642   4.194   6.901
  117OSM    O1312173   0.507   4.201   6.959
  117OSM    O1412174   0.753   4.288   6.942
  117OSM    O1112175   0.636   4.199   6.739
  117OSM    O1212176   0.686   4.039   6.920
  117OSM    C1S12177   0.724   4.288   6.672
  117OSM    H1S12178   0.830   4.262   6.691
  117OSM    H1T12179   0.708   4.396   6.691
  117OSM     NF12180   0.826   4.324   6.438
  117OSM    HNF12181   0.794   4.400   6.382
  117OSM    C2S12182   0.713   4.269   6.517
  117OSM    H2S12183   0.713   4.158   6.511
  117OSM    C3S12184   0.567   4.304   6.469
  117OSM    H3S12185   0.551   4.414   6.479
  117OSM     O312186   0.456   4.257   6.551
  117OSM    HO312187   0.495   4.221   6.631
  117OSM    C4S12188   0.547   4.284   6.313
  117OSM    H4S12189   0.575   4.374   6.257
  117OSM    C5S12190   0.497   4.171   6.253
  117OSM    H5S12191   0.466   4.091   6.323
  117OSM    C6S12192   0.461   4.152   6.111
  117OSM    H6S12193   0.350   4.155   6.106
  117OSM    H6T12194   0.489   4.051   6.076
  117OSM    C7S12195   0.495   4.278   6.021
  117OSM    H7S12196   0.603   4.300   6.025
  117OSM    H7T12197   0.438   4.364   6.062
  117OSM    C8S12198   0.453   4.248   5.876
  117OSM    H8S12199   0.345   4.222   5.864
  117OSM    H8T12200   0.502   4.153   5.845
  117OSM    C9S12201   0.499   4.357   5.780
  117OSM    H9S12202   0.607   4.384   5.783
  117OSM    H9T12203   0.445   4.451   5.806
  117OSM   C10S12204   0.468   4.319   5.638
  117OSM   H10S12205   0.357   4.308   5.641
  117OSM   H10T12206   0.511   4.219   5.620
  117OSM   C11S12207   0.502   4.436   5.552
  117OSM   H11S12208   0.606   4.472   5.567
  117OSM   H11T12209   0.437   4.525   5.570
  117OSM   C12S12210   0.490   4.399   5.406
  117OSM   H12S12211   0.385   4.368   5.388
  117OSM   H12T12212   0.560   4.322   5.369
  117OSM   C13S12213   0.527   4.515   5.315
  117OSM   H13S12214   0.638   4.519   5.309
  117OSM   H13T12215   0.481   4.610   5.351
  117OSM   C14S12216   0.477   4.493   5.170
  117OSM   H14S12217   0.367   4.482   5.171
  117OSM   H14T12218   0.517   4.395   5.134
  117OSM   C15S12219   0.540   4.590   5.073
  117OSM   H15S12220   0.645   4.554   5.062
  117OSM   H15T12221   0.528   4.689   5.122
  117OSM   C16S12222   0.475   4.594   4.931
  117OSM   H16S12223   0.365   4.608   4.935
  117OSM   H16T12224   0.499   4.495   4.886
  117OSM   C17S12225   0.518   4.708   4.840
  117OSM   H17S12226   0.627   4.692   4.830
  117OSM   H17T12227   0.513   4.812   4.879
  117OSM   C18S12228   0.448   4.689   4.704
  117OSM   H18S12229   0.339   4.687   4.723
  117OSM   H18T12230   0.483   4.598   4.649
  117OSM   H18U12231   0.468   4.776   4.639
  117OSM    C1F12232   0.953   4.294   6.447
  117OSM     OF12233   0.992   4.197   6.508
  117OSM    C2F12234   1.049   4.388   6.374
  117OSM    H2F12235   1.149   4.354   6.409
  117OSM    H2G12236   1.029   4.491   6.409
  117OSM    C3F12237   1.054   4.375   6.224
  117OSM    H3F12238   0.947   4.369   6.194
  117OSM    H3G12239   1.111   4.282   6.204
  117OSM    C4F12240   1.115   4.488   6.138
  117OSM    H4F12241   1.209   4.516   6.191
  117OSM    H4G12242   1.049   4.577   6.145
  117OSM    C5F12243   1.139   4.447   5.992
  117OSM    H5F12244   1.040   4.444   5.941
  117OSM    H5G12245   1.184   4.346   5.988
  117OSM    C6F12246   1.228   4.546   5.913
  117OSM    H6F12247   1.333   4.522   5.937
  117OSM    H6G12248   1.199   4.649   5.943
  117OSM    C7F12249   1.219   4.541   5.761
  117OSM    H7F12250   1.121   4.580   5.726
  117OSM    H7G12251   1.229   4.439   5.719
  117OSM    C8F12252   1.330   4.623   5.686
  117OSM    H8F12253   1.422   4.563   5.706
  117OSM    H8G12254   1.340   4.730   5.712
  117OSM    C9F12255   1.315   4.614   5.535
  117OSM    H9F12256   1.216   4.583   5.498
  117OSM   C10F12257   1.413   4.639   5.449
  117OSM   H10F12258   1.389   4.630   5.342
  117OSM   C11F12259   1.557   4.679   5.477
  117OSM   H11F12260   1.635   4.601   5.462
  117OSM   H11G12261   1.571   4.717   5.580
  117OSM   C12F12262   1.590   4.805   5.392
  117OSM   H12F12263   1.688   4.841   5.430
  117OSM   H12G12264   1.524   4.891   5.414
  117OSM   C13F12265   1.594   4.801   5.241
  117OSM   H13F12266   1.621   4.904   5.210
  117OSM   H13G12267   1.492   4.774   5.205
  117OSM   C14F12268   1.693   4.692   5.190
  117OSM   H14F12269   1.676   4.593   5.237
  117OSM   H14G12270   1.796   4.729   5.206
  117OSM   C15F12271   1.669   4.661   5.044
  117OSM   H15F12272   1.649   4.758   4.992
  117OSM   H15G12273   1.572   4.608   5.045
  117OSM   C16F12274   1.774   4.571   4.970
  117OSM   H16F12275   1.853   4.647   4.949
  117OSM   H16G12276   1.733   4.537   4.873
  117OSM   C17F12277   1.839   4.458   5.048
  117OSM   H17F12278   1.773   4.370   5.063
  117OSM   H17G12279   1.853   4.493   5.152
  117OSM   C18F12280   1.979   4.411   4.995
  117OSM   H18F12281   2.059   4.486   5.009
  117OSM   H18G12282   1.972   4.398   4.885
  117OSM   H18H12283   2.018   4.319   5.043
  118OSM      N12284   0.498   3.407   6.564
  118OSM    C1512285   0.463   3.403   6.705
  118OSM   H15A12286   0.454   3.299   6.733
  118OSM   H15B12287   0.369   3.452   6.723
  118OSM   H15C12288   0.538   3.449   6.768
  118OSM    C1412289   0.516   3.557   6.520
  118OSM   H14A12290   0.531   3.567   6.414
  118OSM   H14B12291   0.598   3.595   6.579
  118OSM   H14C12292   0.427   3.615   6.540
  118OSM    C1312293   0.618   3.330   6.531
  118OSM   H13A12294   0.605   3.228   6.564
  118OSM   H13B12295   0.706   3.369   6.581
  118OSM   H13C12296   0.635   3.326   6.424
  118OSM    C1212297   0.385   3.355   6.478
  118OSM   H12A12298   0.421   3.321   6.382
  118OSM   H12B12299   0.321   3.441   6.466
  118OSM    C1112300   0.289   3.245   6.534
  118OSM   H11A12301   0.211   3.209   6.464
  118OSM   H11B12302   0.229   3.289   6.617
  118OSM      P12303   0.350   2.989   6.523
  118OSM    O1312304   0.467   2.915   6.575
  118OSM    O1412305   0.217   2.935   6.564
  118OSM    O1112306   0.363   3.034   6.379
  118OSM    O1212307   0.363   3.137   6.592
  118OSM    C1S12308   0.466   2.962   6.300
  118OSM    H1S12309   0.440   2.854   6.295
  118OSM    H1T12310   0.568   2.964   6.344
  118OSM     NF12311   0.593   2.942   6.086
  118OSM    HNF12312   0.682   2.986   6.088
  118OSM    C2S12313   0.484   3.012   6.149
  118OSM    H2S12314   0.390   2.990   6.094
  118OSM    C3S12315   0.491   3.162   6.143
  118OSM    H3S12316   0.568   3.199   6.214
  118OSM     O312317   0.377   3.230   6.191
  118OSM    HO312318   0.325   3.159   6.229
  118OSM    C4S12319   0.535   3.207   6.002
  118OSM    H4S12320   0.639   3.187   5.974
  118OSM    C5S12321   0.451   3.264   5.910
  118OSM    H5S12322   0.350   3.282   5.948
  118OSM    C6S12323   0.479   3.309   5.773
  118OSM    H6S12324   0.459   3.418   5.767
  118OSM    H6T12325   0.416   3.251   5.701
  118OSM    C7S12326   0.620   3.279   5.724
  118OSM    H7S12327   0.663   3.177   5.741
  118OSM    H7T12328   0.693   3.337   5.784
  118OSM    C8S12329   0.639   3.315   5.580
  118OSM    H8S12330   0.557   3.261   5.526
  118OSM    H8T12331   0.735   3.269   5.549
  118OSM    C9S12332   0.635   3.462   5.547
  118OSM    H9S12333   0.725   3.517   5.583
  118OSM    H9T12334   0.543   3.510   5.586
  118OSM   C10S12335   0.620   3.493   5.395
  118OSM   H10S12336   0.637   3.602   5.386
  118OSM   H10T12337   0.515   3.472   5.365
  118OSM   C11S12338   0.728   3.425   5.309
  118OSM   H11S12339   0.708   3.316   5.310
  118OSM   H11T12340   0.834   3.449   5.329
  118OSM   C12S12341   0.720   3.455   5.155
  118OSM   H12S12342   0.728   3.563   5.129
  118OSM   H12T12343   0.619   3.413   5.136
  118OSM   C13S12344   0.804   3.367   5.061
  118OSM   H13S12345   0.787   3.262   5.093
  118OSM   H13T12346   0.913   3.390   5.069
  118OSM   C14S12347   0.750   3.376   4.920
  118OSM   H14S12348   0.752   3.480   4.880
  118OSM   H14T12349   0.644   3.342   4.918
  118OSM   C15S12350   0.829   3.286   4.816
  118OSM   H15S12351   0.835   3.184   4.858
  118OSM   H15T12352   0.933   3.322   4.826
  118OSM   C16S12353   0.783   3.310   4.678
  118OSM   H16S12354   0.801   3.416   4.653
  118OSM   H16T12355   0.672   3.310   4.671
  118OSM   C17S12356   0.822   3.212   4.576
  118OSM   H17S12357   0.795   3.113   4.618
  118OSM   H17T12358   0.932   3.211   4.564
  118OSM   C18S12359   0.755   3.240   4.441
  118OSM   H18S12360   0.806   3.319   4.381
  118OSM   H18T12361   0.645   3.256   4.440
  118OSM   H18U12362   0.753   3.143   4.386
  118OSM    C1F12363   0.578   2.814   6.056
  118OSM     OF12364   0.467   2.767   6.032
  118OSM    C2F12365   0.700   2.734   6.065
  118OSM    H2F12366   0.707   2.680   6.162
  118OSM    H2G12367   0.781   2.811   6.060
  118OSM    C3F12368   0.715   2.617   5.956
  118OSM    H3F12369   0.613   2.574   5.969
  118OSM    H3G12370   0.806   2.555   5.971
  118OSM    C4F12371   0.723   2.672   5.814
  118OSM    H4F12372   0.636   2.740   5.803
  118OSM    H4G12373   0.698   2.587   5.747
  118OSM    C5F12374   0.863   2.719   5.763
  118OSM    H5F12375   0.930   2.631   5.748
  118OSM    H5G12376   0.901   2.793   5.837
  118OSM    C6F12377   0.861   2.799   5.629
  118OSM    H6F12378   0.796   2.890   5.632
  118OSM    H6G12379   0.817   2.729   5.555
  118OSM    C7F12380   0.992   2.829   5.567
  118OSM    H7F12381   1.047   2.733   5.554
  118OSM    H7G12382   1.053   2.885   5.641
  118OSM    C8F12383   0.995   2.905   5.431
  118OSM    H8F12384   0.914   2.850   5.378
  118OSM    H8G12385   1.099   2.890   5.396
  118OSM    C9F12386   0.961   3.046   5.446
  118OSM    H9F12387   0.876   3.067   5.511
  118OSM   C10F12388   1.023   3.155   5.396
  118OSM   H10F12389   0.990   3.254   5.431
  118OSM   C11F12390   1.148   3.162   5.305
  118OSM   H11F12391   1.222   3.082   5.329
  118OSM   H11G12392   1.199   3.259   5.325
  118OSM   C12F12393   1.109   3.168   5.154
  118OSM   H12F12394   1.075   3.269   5.123
  118OSM   H12G12395   1.011   3.120   5.133
  118OSM   C13F12396   1.211   3.103   5.060
  118OSM   H13F12397   1.229   2.994   5.072
  118OSM   H13G12398   1.311   3.150   5.073
  118OSM   C14F12399   1.163   3.148   4.922
  118OSM   H14F12400   1.170   3.259   4.923
  118OSM   H14G12401   1.059   3.114   4.907
  118OSM   C15F12402   1.258   3.101   4.817
  118OSM   H15F12403   1.232   2.993   4.808
  118OSM   H15G12404   1.365   3.104   4.846
  118OSM   C16F12405   1.239   3.166   4.684
  118OSM   H16F12406   1.246   3.277   4.688
  118OSM   H16G12407   1.134   3.146   4.654
  118OSM   C17F12408   1.339   3.123   4.571
  118OSM   H17F12409   1.432   3.184   4.572
  118OSM   H17G12410   1.294   3.146   4.472
  118OSM   C18F12411   1.376   2.972   4.572
  118OSM   H18F12412   1.417   2.944   4.671
  118OSM   H18G12413   1.451   2.946   4.494
  118OSM   H18H12414   1.285   2.914   4.545
  119OSM      N12415   3.492   1.186   6.869
  119OSM    C1512416   3.572   1.085   6.952
  119OSM   H15A12417   3.540   0.985   6.925
  119OSM   H15B12418   3.546   1.094   7.056
  119OSM   H15C12419   3.680   1.096   6.944
  119OSM    C1412420   3.348   1.181   6.899
  119OSM   H14A12421   3.289   1.238   6.829
  119OSM   H14B12422   3.322   1.220   6.996
  119OSM   H14C12423   3.316   1.078   6.886
  119OSM    C1312424   3.547   1.322   6.901
  119OSM   H13A12425   3.484   1.399   6.859
  119OSM   H13B12426   3.653   1.330   6.880
  119OSM   H13C12427   3.542   1.351   7.005
  119OSM    C1212428   3.520   1.156   6.721
  119OSM   H12A12429   3.627   1.164   6.706
  119OSM   H12B12430   3.475   1.231   6.658
  119OSM    C1112431   3.486   1.024   6.659
  119OSM   H11A12432   3.560   0.950   6.695
  119OSM   H11B12433   3.512   1.031   6.552
  119OSM      P12434   3.230   1.023   6.593
  119OSM    O1312435   3.151   0.900   6.553
  119OSM    O1412436   3.162   1.128   6.667
  119OSM    O1112437   3.286   1.085   6.460
  119OSM    O1212438   3.351   0.971   6.677
  119OSM    C1S12439   3.316   1.014   6.339
  119OSM    H1S12440   3.305   0.904   6.355
  119OSM    H1T12441   3.423   1.030   6.316
  119OSM     NF12442   3.254   0.967   6.104
  119OSM    HNF12443   3.281   1.021   6.025
  119OSM    C2S12444   3.222   1.050   6.217
  119OSM    H2S12445   3.117   1.021   6.241
  119OSM    C3S12446   3.231   1.206   6.191
  119OSM    H3S12447   3.339   1.234   6.190
  119OSM     O312448   3.168   1.287   6.294
  119OSM    HO312449   3.149   1.226   6.365
  119OSM    C4S12450   3.169   1.248   6.058
  119OSM    H4S12451   3.061   1.229   6.063
  119OSM    C5S12452   3.244   1.278   5.952
  119OSM    H5S12453   3.354   1.277   5.953
  119OSM    C6S12454   3.174   1.324   5.821
  119OSM    H6S12455   3.197   1.432   5.810
  119OSM    H6T12456   3.064   1.319   5.835
  119OSM    C7S12457   3.215   1.259   5.690
  119OSM    H7S12458   3.153   1.168   5.672
  119OSM    H7T12459   3.320   1.225   5.702
  119OSM    C8S12460   3.203   1.356   5.568
  119OSM    H8S12461   3.284   1.432   5.575
  119OSM    H8T12462   3.104   1.405   5.569
  119OSM    C9S12463   3.218   1.279   5.427
  119OSM    H9S12464   3.131   1.210   5.422
  119OSM    H9T12465   3.301   1.206   5.435
  119OSM   C10S12466   3.220   1.378   5.311
  119OSM   H10S12467   3.326   1.411   5.312
  119OSM   H10T12468   3.147   1.461   5.321
  119OSM   C11S12469   3.185   1.312   5.179
  119OSM   H11S12470   3.085   1.265   5.170
  119OSM   H11T12471   3.255   1.233   5.146
  119OSM   C12S12472   3.202   1.412   5.066
  119OSM   H12S12473   3.302   1.459   5.075
  119OSM   H12T12474   3.131   1.498   5.070
  119OSM   C13S12475   3.183   1.357   4.922
  119OSM   H13S12476   3.088   1.300   4.922
  119OSM   H13T12477   3.259   1.278   4.903
  119OSM   C14S12478   3.173   1.457   4.813
  119OSM   H14S12479   3.265   1.518   4.798
  119OSM   H14T12480   3.083   1.522   4.823
  119OSM   C15S12481   3.162   1.383   4.673
  119OSM   H15S12482   3.088   1.302   4.688
  119OSM   H15T12483   3.266   1.345   4.657
  119OSM   C16S12484   3.119   1.481   4.555
  119OSM   H16S12485   3.198   1.555   4.530
  119OSM   H16T12486   3.036   1.534   4.607
  119OSM   C17S12487   3.071   1.412   4.423
  119OSM   H17S12488   3.153   1.350   4.381
  119OSM   H17T12489   3.056   1.482   4.338
  119OSM   C18S12490   2.938   1.327   4.437
  119OSM   H18S12491   2.933   1.291   4.542
  119OSM   H18T12492   2.947   1.236   4.374
  119OSM   H18U12493   2.847   1.387   4.414
  119OSM    C1F12494   3.239   0.840   6.094
  119OSM     OF12495   3.206   0.779   6.194
  119OSM    C2F12496   3.255   0.766   5.962
  119OSM    H2F12497   3.152   0.728   5.942
  119OSM    H2G12498   3.321   0.679   5.984
  119OSM    C3F12499   3.311   0.848   5.852
  119OSM    H3F12500   3.413   0.881   5.883
  119OSM    H3G12501   3.234   0.926   5.830
  119OSM    C4F12502   3.309   0.774   5.713
  119OSM    H4F12503   3.206   0.737   5.693
  119OSM    H4G12504   3.382   0.690   5.714
  119OSM    C5F12505   3.339   0.869   5.592
  119OSM    H5F12506   3.444   0.904   5.604
  119OSM    H5G12507   3.264   0.951   5.595
  119OSM    C6F12508   3.326   0.803   5.456
  119OSM    H6F12509   3.237   0.736   5.449
  119OSM    H6G12510   3.412   0.732   5.453
  119OSM    C7F12511   3.350   0.889   5.335
  119OSM    H7F12512   3.444   0.947   5.351
  119OSM    H7G12513   3.268   0.963   5.330
  119OSM    C8F12514   3.371   0.813   5.202
  119OSM    H8F12515   3.289   0.745   5.170
  119OSM    H8G12516   3.448   0.735   5.217
  119OSM    C9F12517   3.423   0.896   5.085
  119OSM    H9F12518   3.495   0.972   5.117
  119OSM   C10F12519   3.407   0.872   4.954
  119OSM   H10F12520   3.462   0.940   4.888
  119OSM   C11F12521   3.314   0.771   4.890
  119OSM   H11F12522   3.297   0.674   4.940
  119OSM   H11G12523   3.345   0.747   4.786
  119OSM   C12F12524   3.176   0.836   4.872
  119OSM   H12F12525   3.135   0.849   4.974
  119OSM   H12G12526   3.104   0.766   4.824
  119OSM   C13F12527   3.175   0.970   4.798
  119OSM   H13F12528   3.214   1.056   4.857
  119OSM   H13G12529   3.067   0.991   4.786
  119OSM   C14F12530   3.241   0.981   4.659
  119OSM   H14F12531   3.352   0.984   4.657
  119OSM   H14G12532   3.224   1.085   4.623
  119OSM   C15F12533   3.180   0.894   4.544
  119OSM   H15F12534   3.068   0.895   4.545
  119OSM   H15G12535   3.201   0.786   4.560
  119OSM   C16F12536   3.224   0.942   4.402
  119OSM   H16F12537   3.334   0.944   4.391
  119OSM   H16G12538   3.187   1.041   4.368
  119OSM   C17F12539   3.152   0.846   4.302
  119OSM   H17F12540   3.042   0.841   4.321
  119OSM   H17G12541   3.183   0.741   4.324
  119OSM   C18F12542   3.181   0.880   4.160
  119OSM   H18F12543   3.289   0.892   4.138
  119OSM   H18G12544   3.125   0.971   4.130
  119OSM   H18H12545   3.137   0.794   4.105
  120OSM      N12546   6.186   4.895   6.699
  120OSM    C1512547   6.249   5.024   6.746
  120OSM   H15A12548   6.354   5.007   6.767
  120OSM   H15B12549   6.204   5.057   6.839
  120OSM   H15C12550   6.245   5.100   6.670
  120OSM    C1412551   6.234   4.850   6.567
  120OSM   H14A12552   6.341   4.841   6.573
  120OSM   H14B12553   6.197   4.911   6.485
  120OSM   H14C12554   6.198   4.751   6.544
  120OSM    C1312555   6.221   4.779   6.794
  120OSM   H13A12556   6.328   4.775   6.803
  120OSM   H13B12557   6.177   4.686   6.759
  120OSM   H13C12558   6.190   4.805   6.894
  120OSM    C1212559   6.035   4.921   6.692
  120OSM   H12A12560   5.984   4.839   6.644
  120OSM   H12B12561   6.004   5.011   6.640
  120OSM    C1112562   5.962   4.930   6.828
  120OSM   H11A12563   5.975   4.842   6.895
  120OSM   H11B12564   5.855   4.925   6.800
  120OSM      P12565   5.922   5.185   6.863
  120OSM    O1312566   5.801   5.202   6.954
  120OSM    O1412567   6.018   5.299   6.857
  120OSM    O1112568   5.872   5.178   6.714
  120OSM    O1212569   5.999   5.049   6.903
  120OSM    C1S12570   5.938   5.238   6.602
  120OSM    H1S12571   6.039   5.194   6.593
  120OSM    H1T12572   5.952   5.348   6.610
  120OSM     NF12573   5.958   5.262   6.367
  120OSM    HNF12574   5.922   5.332   6.305
  120OSM    C2S12575   5.866   5.210   6.472
  120OSM    H2S12576   5.858   5.101   6.450
  120OSM    C3S12577   5.716   5.254   6.480
  120OSM    H3S12578   5.717   5.348   6.538
  120OSM     O312579   5.639   5.171   6.568
  120OSM    HO312580   5.700   5.149   6.639
  120OSM    C4S12581   5.650   5.269   6.343
  120OSM    H4S12582   5.679   5.369   6.308
  120OSM    C5S12583   5.580   5.188   6.258
  120OSM    H5S12584   5.578   5.081   6.284
  120OSM    C6S12585   5.546   5.230   6.114
  120OSM    H6S12586   5.546   5.340   6.100
  120OSM    H6T12587   5.440   5.203   6.093
  120OSM    C7S12588   5.633   5.150   6.008
  120OSM    H7S12589   5.615   5.043   6.033
  120OSM    H7T12590   5.742   5.162   6.025
  120OSM    C8S12591   5.580   5.158   5.864
  120OSM    H8S12592   5.589   5.261   5.822
  120OSM    H8T12593   5.473   5.126   5.865
  120OSM    C9S12594   5.651   5.069   5.764
  120OSM    H9S12595   5.645   4.964   5.799
  120OSM    H9T12596   5.761   5.087   5.768
  120OSM   C10S12597   5.605   5.086   5.620
  120OSM   H10S12598   5.594   5.194   5.594
  120OSM   H10T12599   5.509   5.030   5.612
  120OSM   C11S12600   5.700   5.029   5.508
  120OSM   H11S12601   5.689   4.919   5.509
  120OSM   H11T12602   5.805   5.056   5.533
  120OSM   C12S12603   5.662   5.079   5.364
  120OSM   H12S12604   5.666   5.189   5.353
  120OSM   H12T12605   5.560   5.050   5.332
  120OSM   C13S12606   5.759   5.033   5.253
  120OSM   H13S12607   5.772   4.923   5.249
  120OSM   H13T12608   5.855   5.079   5.283
  120OSM   C14S12609   5.721   5.069   5.102
  120OSM   H14S12610   5.807   5.050   5.034
  120OSM   H14T12611   5.716   5.180   5.111
  120OSM   C15S12612   5.591   5.013   5.061
  120OSM   H15S12613   5.542   4.965   5.148
  120OSM   H15T12614   5.609   4.932   4.988
  120OSM   C16S12615   5.490   5.116   5.000
  120OSM   H16S12616   5.480   5.210   5.059
  120OSM   H16T12617   5.390   5.069   5.010
  120OSM   C17S12618   5.529   5.162   4.854
  120OSM   H17S12619   5.629   5.210   4.854
  120OSM   H17T12620   5.456   5.244   4.840
  120OSM   C18S12621   5.530   5.052   4.743
  120OSM   H18S12622   5.631   5.006   4.743
  120OSM   H18T12623   5.489   5.103   4.653
  120OSM   H18U12624   5.458   4.970   4.764
  120OSM    C1F12625   6.080   5.216   6.347
  120OSM     OF12626   6.114   5.113   6.404
  120OSM    C2F12627   6.162   5.285   6.247
  120OSM    H2F12628   6.217   5.369   6.295
  120OSM    H2G12629   6.091   5.327   6.173
  120OSM    C3F12630   6.265   5.184   6.178
  120OSM    H3F12631   6.198   5.105   6.137
  120OSM    H3G12632   6.335   5.157   6.259
  120OSM    C4F12633   6.326   5.255   6.052
  120OSM    H4F12634   6.376   5.351   6.075
  120OSM    H4G12635   6.236   5.286   5.994
  120OSM    C5F12636   6.420   5.160   5.964
  120OSM    H5F12637   6.380   5.057   5.973
  120OSM    H5G12638   6.519   5.170   6.014
  120OSM    C6F12639   6.437   5.206   5.817
  120OSM    H6F12640   6.540   5.178   5.785
  120OSM    H6G12641   6.440   5.317   5.813
  120OSM    C7F12642   6.330   5.136   5.727
  120OSM    H7F12643   6.239   5.121   5.789
  120OSM    H7G12644   6.373   5.041   5.688
  120OSM    C8F12645   6.287   5.226   5.608
  120OSM    H8F12646   6.377   5.263   5.555
  120OSM    H8G12647   6.232   5.314   5.648
  120OSM    C9F12648   6.192   5.145   5.531
  120OSM    H9F12649   6.165   5.046   5.572
  120OSM   C10F12650   6.157   5.167   5.403
  120OSM   H10F12651   6.097   5.087   5.356
  120OSM   C11F12652   6.186   5.301   5.336
  120OSM   H11F12653   6.294   5.328   5.348
  120OSM   H11G12654   6.137   5.381   5.395
  120OSM   C12F12655   6.146   5.302   5.186
  120OSM   H12F12656   6.177   5.398   5.138
  120OSM   H12G12657   6.036   5.290   5.182
  120OSM   C13F12658   6.225   5.194   5.110
  120OSM   H13F12659   6.226   5.091   5.153
  120OSM   H13G12660   6.332   5.224   5.111
  120OSM   C14F12661   6.173   5.183   4.964
  120OSM   H14F12662   6.062   5.181   4.964
  120OSM   H14G12663   6.207   5.086   4.923
  120OSM   C15F12664   6.215   5.289   4.863
  120OSM   H15F12665   6.200   5.387   4.912
  120OSM   H15G12666   6.155   5.284   4.769
  120OSM   C16F12667   6.364   5.269   4.831
  120OSM   H16F12668   6.385   5.163   4.807
  120OSM   H16G12669   6.421   5.294   4.923
  120OSM   C17F12670   6.423   5.358   4.720
  120OSM   H17F12671   6.405   5.467   4.732
  120OSM   H17G12672   6.378   5.326   4.623
  120OSM   C18F12673   6.576   5.326   4.719
  120OSM   H18F12674   6.587   5.218   4.693
  120OSM   H18G12675   6.620   5.350   4.818
  120OSM   H18H12676   6.625   5.396   4.648
  121OSM      N12677   0.045   1.228   6.951
  121OSM    C1512678   0.186   1.282   6.920
  121OSM   H15A12679   0.177   1.363   6.849
  121OSM   H15B12680   0.245   1.205   6.872
  121OSM   H15C12681   0.234   1.330   7.004
  121OSM    C1412682   0.058   1.138   7.068
  121OSM   H14A12683   0.132   1.176   7.137
  121OSM   H14B12684   0.107   1.052   7.026
  121OSM   H14C12685   6.814   1.123   7.111
  121OSM    C1312686   6.830   1.353   7.003
  121OSM   H13A12687   0.035   1.401   7.080
  121OSM   H13B12688   6.732   1.326   7.039
  121OSM   H13C12689   6.831   1.429   6.926
  121OSM    C1212690   6.829   1.161   6.838
  121OSM   H12A12691   6.806   1.239   6.767
  121OSM   H12B12692   6.736   1.113   6.865
  121OSM    C1112693   0.054   1.054   6.761
  121OSM   H11A12694   6.833   1.000   6.700
  121OSM   H11B12695   0.111   0.989   6.831
  121OSM      P12696   0.264   1.066   6.609
  121OSM    O1312697   0.319   1.159   6.507
  121OSM    O1412698   0.351   1.024   6.720
  121OSM    O1112699   0.201   0.945   6.523
  121OSM    O1212700   0.130   1.130   6.666
  121OSM    C1S12701   0.105   0.985   6.424
  121OSM    H1S12702   0.129   1.087   6.386
  121OSM    H1T12703   0.007   0.975   6.474
  121OSM     NF12704   0.039   0.956   6.180
  121OSM    HNF12705   6.822   0.894   6.149
  121OSM    C2S12706   0.110   0.896   6.294
  121OSM    H2S12707   0.217   0.914   6.272
  121OSM    C3S12708   0.088   0.744   6.322
  121OSM    H3S12709   6.842   0.724   6.365
  121OSM     O312710   0.177   0.688   6.418
  121OSM    HO312711   0.218   0.766   6.456
  121OSM    C4S12712   0.112   0.674   6.190
  121OSM    H4S12713   0.218   0.692   6.165
  121OSM    C5S12714   0.028   0.612   6.109
  121OSM    H5S12715   6.774   0.603   6.127
  121OSM    C6S12716   0.050   0.540   5.979
  121OSM    H6S12717   6.853   0.600   5.901
  121OSM    H6T12718   6.850   0.443   5.989
  121OSM    C7S12719   0.197   0.521   5.933
  121OSM    H7S12720   0.256   0.486   6.020
  121OSM    H7T12721   0.245   0.617   5.905
  121OSM    C8S12722   0.217   0.421   5.814
  121OSM    H8S12723   0.149   0.338   5.842
  121OSM    H8T12724   0.324   0.391   5.804
  121OSM    C9S12725   0.165   0.476   5.683
  121OSM    H9S12726   0.208   0.577   5.666
  121OSM    H9T12727   0.054   0.485   5.682
  121OSM   C10S12728   0.195   0.375   5.570
  121OSM   H10S12729   0.122   0.291   5.575
  121OSM   H10T12730   0.297   0.335   5.588
  121OSM   C11S12731   0.183   0.433   5.428
  121OSM   H11S12732   0.275   0.491   5.403
  121OSM   H11T12733   0.093   0.495   5.412
  121OSM   C12S12734   0.184   0.316   5.329
  121OSM   H12S12735   0.110   0.240   5.362
  121OSM   H12T12736   0.284   0.267   5.340
  121OSM   C13S12737   0.175   0.347   5.175
  121OSM   H13S12738   0.270   0.404   5.164
  121OSM   H13T12739   0.097   0.422   5.153
  121OSM   C14S12740   0.169   0.235   5.074
  121OSM   H14S12741   0.073   0.181   5.085
  121OSM   H14T12742   0.252   0.161   5.084
  121OSM   C15S12743   0.165   0.301   4.933
  121OSM   H15S12744   0.254   0.365   4.916
  121OSM   H15T12745   0.076   0.366   4.915
  121OSM   C16S12746   0.151   0.188   4.826
  121OSM   H16S12747   0.055   0.137   4.848
  121OSM   H16T12748   0.232   0.117   4.852
  121OSM   C17S12749   0.152   0.229   4.681
  121OSM   H17S12750   0.054   0.277   4.664
  121OSM   H17T12751   0.164   0.148   4.606
  121OSM   C18S12752   0.252   0.339   4.648
  121OSM   H18S12753   0.234   0.380   4.546
  121OSM   H18T12754   0.360   0.310   4.645
  121OSM   H18U12755   0.245   0.425   4.717
  121OSM    C1F12756   0.061   1.071   6.118
  121OSM     OF12757   0.157   1.145   6.154
  121OSM    C2F12758   6.819   1.111   6.006
  121OSM    H2F12759   6.737   1.173   6.046
  121OSM    H2G12760   6.764   1.017   5.983
  121OSM    C3F12761   0.048   1.160   5.882
  121OSM    H3F12762   0.121   1.081   5.855
  121OSM    H3G12763   0.106   1.255   5.892
  121OSM    C4F12764   6.813   1.189   5.757
  121OSM    H4F12765   6.765   1.091   5.739
  121OSM    H4G12766   0.022   1.226   5.673
  121OSM    C5F12767   6.705   1.295   5.771
  121OSM    H5F12768   6.742   1.399   5.778
  121OSM    H5G12769   6.649   1.269   5.864
  121OSM    C6F12770   6.598   1.293   5.667
  121OSM    H6F12771   6.516   1.366   5.683
  121OSM    H6G12772   6.551   1.193   5.661
  121OSM    C7F12773   6.658   1.306   5.523
  121OSM    H7F12774   6.745   1.238   5.507
  121OSM    H7G12775   6.703   1.407   5.511
  121OSM    C8F12776   6.561   1.288   5.399
  121OSM    H8F12777   6.505   1.193   5.411
  121OSM    H8G12778   6.625   1.283   5.308
  121OSM    C9F12779   6.460   1.399   5.393
  121OSM    H9F12780   6.446   1.436   5.496
  121OSM   C10F12781   6.386   1.447   5.289
  121OSM   H10F12782   6.315   1.530   5.305
  121OSM   C11F12783   6.398   1.391   5.145
  121OSM   H11F12784   6.299   1.351   5.115
  121OSM   H11G12785   6.473   1.310   5.134
  121OSM   C12F12786   6.425   1.513   5.040
  121OSM   H12F12787   6.513   1.576   5.066
  121OSM   H12G12788   6.330   1.569   5.051
  121OSM   C13F12789   6.442   1.462   4.896
  121OSM   H13F12790   6.347   1.411   4.868
  121OSM   H13G12791   6.528   1.392   4.883
  121OSM   C14F12792   6.464   1.574   4.795
  121OSM   H14F12793   6.564   1.619   4.810
  121OSM   H14G12794   6.375   1.638   4.811
  121OSM   C15F12795   6.439   1.529   4.646
  121OSM   H15F12796   6.348   1.466   4.634
  121OSM   H15G12797   6.530   1.470   4.622
  121OSM   C16F12798   6.431   1.657   4.557
  121OSM   H16F12799   6.527   1.709   4.575
  121OSM   H16G12800   6.353   1.720   4.605
  121OSM   C17F12801   6.418   1.632   4.408
  121OSM   H17F12802   6.504   1.570   4.372
  121OSM   H17G12803   6.430   1.731   4.360
  121OSM   C18F12804   6.286   1.569   4.369
  121OSM   H18F12805   6.244   1.502   4.446
  121OSM   H18G12806   6.297   1.504   4.279
  121OSM   H18H12807   6.221   1.650   4.329
  122OSM      N12808   6.361   3.323   6.754
  122OSM    C1512809   6.264   3.276   6.857
  122OSM   H15A12810   6.176   3.243   6.802
  122OSM   H15B12811   6.234   3.354   6.926
  122OSM   H15C12812   6.299   3.190   6.913
  122OSM    C1412813   6.495   3.361   6.809
  122OSM   H14A12814   6.495   3.433   6.889
  122OSM   H14B12815   6.556   3.414   6.737
  122OSM   H14C12816   6.552   3.275   6.841
  122OSM    C1312817   6.391   3.200   6.665
  122OSM   H13A12818   6.304   3.164   6.613
  122OSM   H13B12819   6.432   3.117   6.721
  122OSM   H13C12820   6.469   3.231   6.596
  122OSM    C1212821   6.290   3.439   6.680
  122OSM   H12A12822   6.273   3.513   6.757
  122OSM   H12B12823   6.198   3.402   6.638
  122OSM    C1112824   6.381   3.528   6.578
  122OSM   H11A12825   6.304   3.585   6.522
  122OSM   H11B12826   6.436   3.463   6.508
  122OSM      P12827   6.416   3.738   6.714
  122OSM    O1312828   6.285   3.708   6.785
  122OSM    O1412829   6.519   3.801   6.804
  122OSM    O1112830   6.378   3.836   6.591
  122OSM    O1212831   6.475   3.612   6.639
  122OSM    C1S12832   6.485   3.844   6.497
  122OSM    H1S12833   6.509   3.744   6.455
  122OSM    H1T12834   6.572   3.889   6.550
  122OSM     NF12835   6.541   3.935   6.265
  122OSM    HNF12836   6.597   4.014   6.239
  122OSM    C2S12837   6.452   3.948   6.380
  122OSM    H2S12838   6.348   3.941   6.341
  122OSM    C3S12839   6.458   4.093   6.450
  122OSM    H3S12840   6.565   4.120   6.463
  122OSM     O312841   6.392   4.110   6.573
  122OSM    HO312842   6.421   4.029   6.617
  122OSM    C4S12843   6.410   4.192   6.353
  122OSM    H4S12844   6.479   4.274   6.328
  122OSM    C5S12845   6.280   4.214   6.311
  122OSM    H5S12846   6.205   4.138   6.338
  122OSM    C6S12847   6.225   4.322   6.220
  122OSM    H6S12848   6.299   4.393   6.180
  122OSM    H6T12849   6.153   4.381   6.281
  122OSM    C7S12850   6.142   4.259   6.102
  122OSM    H7S12851   6.091   4.168   6.140
  122OSM    H7T12852   6.216   4.231   6.025
  122OSM    C8S12853   6.049   4.357   6.038
  122OSM    H8S12854   6.112   4.446   6.013
  122OSM    H8T12855   5.981   4.378   6.123
  122OSM    C9S12856   5.959   4.319   5.922
  122OSM    H9S12857   6.020   4.301   5.831
  122OSM    H9T12858   5.889   4.402   5.900
  122OSM   C10S12859   5.877   4.197   5.965
  122OSM   H10S12860   5.841   4.215   6.069
  122OSM   H10T12861   5.939   4.107   5.986
  122OSM   C11S12862   5.758   4.169   5.869
  122OSM   H11S12863   5.683   4.250   5.880
  122OSM   H11T12864   5.701   4.080   5.903
  122OSM   C12S12865   5.793   4.140   5.724
  122OSM   H12S12866   5.848   4.044   5.714
  122OSM   H12T12867   5.858   4.223   5.688
  122OSM   C13S12868   5.667   4.136   5.635
  122OSM   H13S12869   5.591   4.212   5.664
  122OSM   H13T12870   5.606   4.045   5.656
  122OSM   C14S12871   5.676   4.170   5.486
  122OSM   H14S12872   5.768   4.121   5.447
  122OSM   H14T12873   5.673   4.280   5.478
  122OSM   C15S12874   5.559   4.114   5.400
  122OSM   H15S12875   5.473   4.182   5.421
  122OSM   H15T12876   5.534   4.009   5.427
  122OSM   C16S12877   5.593   4.100   5.252
  122OSM   H16S12878   5.524   4.041   5.189
  122OSM   H16T12879   5.685   4.038   5.245
  122OSM   C17S12880   5.600   4.244   5.180
  122OSM   H17S12881   5.668   4.305   5.244
  122OSM   H17T12882   5.499   4.289   5.188
  122OSM   C18S12883   5.649   4.244   5.035
  122OSM   H18S12884   5.613   4.156   4.976
  122OSM   H18T12885   5.760   4.251   5.031
  122OSM   H18U12886   5.604   4.329   4.980
  122OSM    C1F12887   6.572   3.821   6.209
  122OSM     OF12888   6.506   3.718   6.222
  122OSM    C2F12889   6.706   3.830   6.137
  122OSM    H2F12890   6.780   3.804   6.215
  122OSM    H2G12891   6.718   3.936   6.104
  122OSM    C3F12892   6.718   3.739   6.007
  122OSM    H3F12893   6.725   3.634   6.043
  122OSM    H3G12894   6.817   3.760   5.961
  122OSM    C4F12895   6.612   3.763   5.902
  122OSM    H4F12896   6.610   3.872   5.880
  122OSM    H4G12897   6.513   3.746   5.951
  122OSM    C5F12898   6.635   3.682   5.778
  122OSM    H5F12899   6.614   3.574   5.793
  122OSM    H5G12900   6.742   3.685   5.747
  122OSM    C6F12901   6.542   3.743   5.669
  122OSM    H6F12902   6.553   3.854   5.669
  122OSM    H6G12903   6.439   3.705   5.688
  122OSM    C7F12904   6.569   3.702   5.526
  122OSM    H7F12905   6.470   3.684   5.477
  122OSM    H7G12906   6.618   3.603   5.536
  122OSM    C8F12907   6.657   3.802   5.439
  122OSM    H8F12908   6.669   3.746   5.343
  122OSM    H8G12909   6.756   3.814   5.487
  122OSM    C9F12910   6.589   3.930   5.415
  122OSM    H9F12911   6.606   4.006   5.492
  122OSM   C10F12912   6.506   3.960   5.315
  122OSM   H10F12913   6.477   4.066   5.300
  122OSM   C11F12914   6.456   3.880   5.201
  122OSM   H11F12915   6.346   3.882   5.189
  122OSM   H11G12916   6.484   3.773   5.212
  122OSM   C12F12917   6.525   3.925   5.067
  122OSM   H12F12918   6.627   3.885   5.086
  122OSM   H12G12919   6.534   4.035   5.061
  122OSM   C13F12920   6.459   3.872   4.943
  122OSM   H13F12921   6.358   3.918   4.948
  122OSM   H13G12922   6.452   3.761   4.943
  122OSM   C14F12923   6.531   3.910   4.814
  122OSM   H14F12924   6.544   4.021   4.810
  122OSM   H14G12925   6.467   3.874   4.731
  122OSM   C15F12926   6.675   3.850   4.816
  122OSM   H15F12927   6.669   3.744   4.850
  122OSM   H15G12928   6.729   3.899   4.900
  122OSM   C16F12929   6.750   3.875   4.683
  122OSM   H16F12930   6.788   3.979   4.681
  122OSM   H16G12931   6.674   3.845   4.607
  122OSM   C17F12932   0.019   3.782   4.662
  122OSM   H17F12933   6.844   3.677   4.686
  122OSM   H17G12934   0.101   3.811   4.730
  122OSM   C18F12935   0.066   3.799   4.508
  122OSM   H18F12936   0.082   3.905   4.482
  122OSM   H18G12937   6.843   3.755   4.441
  122OSM   H18H12938   0.167   3.754   4.500
  123OSM      N12939   2.576   2.661   2.080
  123OSM    C1512940   2.569   2.805   2.028
  123OSM   H15A12941   2.566   2.875   2.111
  123OSM   H15B12942   2.488   2.835   1.965
  123OSM   H15C12943   2.654   2.825   1.964
  123OSM    C1412944   2.542   2.570   1.969
  123OSM   H14A12945   2.448   2.599   1.925
  123OSM   H14B12946   2.524   2.468   1.999
  123OSM   H14C12947   2.611   2.569   1.886
  123OSM    C1312948   2.717   2.629   2.124
  123OSM   H13A12949   2.742   2.653   2.226
  123OSM   H13B12950   2.788   2.657   2.048
  123OSM   H13C12951   2.737   2.523   2.120
  123OSM    C1212952   2.479   2.648   2.195
  123OSM   H12A12953   2.380   2.647   2.153
  123OSM   H12B12954   2.487   2.736   2.257
  123OSM    C1112955   2.495   2.519   2.276
  123OSM   H11A12956   2.407   2.510   2.343
  123OSM   H11B12957   2.580   2.515   2.347
  123OSM      P12958   2.587   2.291   2.192
  123OSM    O1312959   2.549   2.204   2.075
  123OSM    O1412960   2.728   2.332   2.187
  123OSM    O1112961   2.563   2.223   2.341
  123OSM    O1212962   2.489   2.411   2.186
  123OSM    C1S12963   2.430   2.193   2.372
  123OSM    H1S12964   2.390   2.117   2.300
  123OSM    H1T12965   2.356   2.276   2.378
  123OSM     NF12966   2.267   2.094   2.541
  123OSM    HNF12967   2.213   2.144   2.609
  123OSM    C2S12968   2.413   2.128   2.517
  123OSM    H2S12969   2.466   2.031   2.517
  123OSM    C3S12970   2.475   2.212   2.634
  123OSM    H3S12971   2.414   2.305   2.642
  123OSM     O312972   2.607   2.262   2.603
  123OSM    HO312973   2.616   2.244   2.509
  123OSM    C4S12974   2.467   2.153   2.771
  123OSM    H4S12975   2.384   2.174   2.841
  123OSM    C5S12976   2.567   2.076   2.816
  123OSM    H5S12977   2.642   2.042   2.742
  123OSM    C6S12978   2.581   2.025   2.958
  123OSM    H6S12979   2.687   2.040   2.989
  123OSM    H6T12980   2.570   1.914   2.962
  123OSM    C7S12981   2.482   2.081   3.057
  123OSM    H7S12982   2.381   2.066   3.013
  123OSM    H7T12983   2.496   2.191   3.058
  123OSM    C8S12984   2.485   2.020   3.196
  123OSM    H8S12985   2.487   1.909   3.189
  123OSM    H8T12986   2.396   2.060   3.249
  123OSM    C9S12987   2.613   2.070   3.268
  123OSM    H9S12988   2.623   2.180   3.273
  123OSM    H9T12989   2.686   2.024   3.198
  123OSM   C10S12990   2.627   2.006   3.399
  123OSM   H10S12991   2.734   1.983   3.422
  123OSM   H10T12992   2.557   1.923   3.424
  123OSM   C11S12993   2.590   2.114   3.511
  123OSM   H11S12994   2.483   2.143   3.500
  123OSM   H11T12995   2.666   2.193   3.499
  123OSM   C12S12996   2.605   2.035   3.650
  123OSM   H12S12997   2.700   1.977   3.657
  123OSM   H12T12998   2.525   1.958   3.644
  123OSM   C13S12999   2.587   2.116   3.770
  123OSM   H13S13000   2.497   2.177   3.749
  123OSM   H13T13001   2.677   2.178   3.788
  123OSM   C14S13002   2.559   2.034   3.898
  123OSM   H14S13003   2.647   1.975   3.931
  123OSM   H14T13004   2.464   1.977   3.889
  123OSM   C15S13005   2.548   2.119   4.028
  123OSM   H15S13006   2.463   2.186   4.004
  123OSM   H15T13007   2.637   2.182   4.046
  123OSM   C16S13008   2.522   2.037   4.158
  123OSM   H16S13009   2.617   1.990   4.191
  123OSM   H16T13010   2.460   1.948   4.130
  123OSM   C17S13011   2.447   2.117   4.272
  123OSM   H17S13012   2.414   2.046   4.350
  123OSM   H17T13013   2.356   2.161   4.227
  123OSM   C18S13014   2.536   2.221   4.342
  123OSM   H18S13015   2.608   2.169   4.409
  123OSM   H18T13016   2.475   2.292   4.402
  123OSM   H18U13017   2.602   2.272   4.269
  123OSM    C1F13018   2.206   1.993   2.474
  123OSM     OF13019   2.271   1.923   2.400
  123OSM    C2F13020   2.059   1.982   2.487
  123OSM    H2F13021   2.019   2.021   2.391
  123OSM    H2G13022   2.017   2.036   2.574
  123OSM    C3F13023   2.013   1.832   2.496
  123OSM    H3F13024   2.057   1.785   2.406
  123OSM    H3G13025   1.904   1.808   2.499
  123OSM    C4F13026   2.079   1.766   2.621
  123OSM    H4F13027   2.189   1.776   2.615
  123OSM    H4G13028   2.058   1.658   2.609
  123OSM    C5F13029   2.025   1.818   2.751
  123OSM    H5F13030   1.915   1.801   2.753
  123OSM    H5G13031   2.038   1.927   2.766
  123OSM    C6F13032   2.102   1.740   2.857
  123OSM    H6F13033   2.205   1.778   2.874
  123OSM    H6G13034   2.118   1.634   2.828
  123OSM    C7F13035   2.035   1.740   2.995
  123OSM    H7F13036   2.050   1.647   3.056
  123OSM    H7G13037   1.925   1.739   2.976
  123OSM    C8F13038   2.076   1.862   3.088
  123OSM    H8F13039   2.067   1.957   3.031
  123OSM    H8G13040   2.186   1.857   3.103
  123OSM    C9F13041   1.991   1.876   3.216
  123OSM    H9F13042   1.895   1.926   3.196
  123OSM   C10F13043   2.021   1.827   3.335
  123OSM   H10F13044   1.954   1.840   3.421
  123OSM   C11F13045   2.147   1.756   3.377
  123OSM   H11F13046   2.230   1.829   3.381
  123OSM   H11G13047   2.162   1.671   3.306
  123OSM   C12F13048   2.144   1.702   3.526
  123OSM   H12F13049   2.238   1.645   3.541
  123OSM   H12G13050   2.054   1.642   3.553
  123OSM   C13F13051   2.147   1.821   3.630
  123OSM   H13F13052   2.054   1.881   3.630
  123OSM   H13G13053   2.239   1.882   3.621
  123OSM   C14F13054   2.157   1.755   3.767
  123OSM   H14F13055   2.237   1.679   3.783
  123OSM   H14G13056   2.060   1.702   3.765
  123OSM   C15F13057   2.166   1.860   3.876
  123OSM   H15F13058   2.091   1.941   3.859
  123OSM   H15G13059   2.266   1.907   3.890
  123OSM   C16F13060   2.135   1.786   4.011
  123OSM   H16F13061   2.220   1.715   4.024
  123OSM   H16G13062   2.043   1.723   4.009
  123OSM   C17F13063   2.131   1.884   4.127
  123OSM   H17F13064   2.224   1.942   4.146
  123OSM   H17G13065   2.122   1.825   4.221
  123OSM   C18F13066   2.011   1.974   4.125
  123OSM   H18F13067   2.023   2.053   4.201
  123OSM   H18G13068   1.919   1.916   4.149
  123OSM   H18H13069   1.986   2.033   4.034
  124OSM      N13070   2.525   3.514   1.845
  124OSM    C1513071   2.466   3.537   1.708
  124OSM   H15A13072   2.494   3.634   1.669
  124OSM   H15B13073   2.358   3.537   1.708
  124OSM   H15C13074   2.505   3.463   1.641
  124OSM    C1413075   2.672   3.502   1.816
  124OSM   H14A13076   2.686   3.410   1.761
  124OSM   H14B13077   2.726   3.482   1.908
  124OSM   H14C13078   2.717   3.577   1.754
  124OSM    C1313079   2.488   3.639   1.926
  124OSM   H13A13080   2.380   3.646   1.927
  124OSM   H13B13081   2.534   3.729   1.887
  124OSM   H13C13082   2.516   3.617   2.028
  124OSM    C1213083   2.468   3.390   1.911
  124OSM   H12A13084   2.472   3.303   1.847
  124OSM   H12B13085   2.364   3.411   1.932
  124OSM    C1113086   2.527   3.344   2.052
  124OSM   H11A13087   2.457   3.261   2.075
  124OSM   H11B13088   2.523   3.426   2.127
  124OSM      P13089   2.707   3.151   1.984
  124OSM    O1313090   2.616   3.100   1.877
  124OSM    O1413091   2.852   3.150   1.937
  124OSM    O1113092   2.692   3.060   2.112
  124OSM    O1213093   2.665   3.295   2.035
  124OSM    C1S13094   2.783   3.094   2.225
  124OSM    H1S13095   2.885   3.125   2.193
  124OSM    H1T13096   2.807   3.003   2.283
  124OSM     NF13097   2.838   3.228   2.429
  124OSM    HNF13098   2.816   3.184   2.515
  124OSM    C2S13099   2.730   3.198   2.327
  124OSM    H2S13100   2.715   3.295   2.274
  124OSM    C3S13101   2.602   3.139   2.389
  124OSM    H3S13102   2.636   3.055   2.453
  124OSM     O313103   2.503   3.078   2.308
  124OSM    HO313104   2.547   3.085   2.223
  124OSM    C4S13105   2.541   3.249   2.481
  124OSM    H4S13106   2.601   3.267   2.572
  124OSM    C5S13107   2.443   3.330   2.445
  124OSM    H5S13108   2.401   3.324   2.344
  124OSM    C6S13109   2.399   3.442   2.528
  124OSM    H6S13110   2.403   3.530   2.460
  124OSM    H6T13111   2.468   3.470   2.610
  124OSM    C7S13112   2.257   3.423   2.579
  124OSM    H7S13113   2.186   3.394   2.499
  124OSM    H7T13114   2.230   3.513   2.637
  124OSM    C8S13115   2.244   3.311   2.684
  124OSM    H8S13116   2.258   3.212   2.636
  124OSM    H8T13117   2.135   3.321   2.706
  124OSM    C9S13118   2.336   3.322   2.806
  124OSM    H9S13119   2.341   3.432   2.826
  124OSM    H9T13120   2.435   3.286   2.773
  124OSM   C10S13121   2.277   3.248   2.928
  124OSM   H10S13122   2.244   3.144   2.909
  124OSM   H10T13123   2.181   3.300   2.949
  124OSM   C11S13124   2.370   3.227   3.046
  124OSM   H11S13125   2.409   3.330   3.058
  124OSM   H11T13126   2.453   3.156   3.023
  124OSM   C12S13127   2.285   3.180   3.173
  124OSM   H12S13128   2.212   3.101   3.143
  124OSM   H12T13129   2.233   3.271   3.210
  124OSM   C13S13130   2.377   3.133   3.287
  124OSM   H13S13131   2.425   3.214   3.346
  124OSM   H13T13132   2.458   3.066   3.252
  124OSM   C14S13133   2.295   3.064   3.404
  124OSM   H14S13134   2.260   2.967   3.362
  124OSM   H14T13135   2.217   3.137   3.434
  124OSM   C15S13136   2.382   3.041   3.525
  124OSM   H15S13137   2.427   3.136   3.563
  124OSM   H15T13138   2.458   2.964   3.500
  124OSM   C16S13139   2.306   2.987   3.651
  124OSM   H16S13140   2.254   2.890   3.634
  124OSM   H16T13141   2.228   3.063   3.671
  124OSM   C17S13142   2.406   2.965   3.763
  124OSM   H17S13143   2.474   3.050   3.785
  124OSM   H17T13144   2.468   2.876   3.736
  124OSM   C18S13145   2.335   2.931   3.892
  124OSM   H18S13146   2.267   3.017   3.912
  124OSM   H18T13147   2.408   2.913   3.973
  124OSM   H18U13148   2.268   2.843   3.899
  124OSM    C1F13149   2.954   3.284   2.397
  124OSM     OF13150   2.962   3.334   2.286
  124OSM    C2F13151   3.064   3.265   2.490
  124OSM    H2F13152   3.103   3.162   2.477
  124OSM    H2G13153   3.032   3.277   2.595
  124OSM    C3F13154   3.175   3.366   2.457
  124OSM    H3F13155   3.139   3.467   2.429
  124OSM    H3G13156   3.233   3.318   2.375
  124OSM    C4F13157   3.276   3.383   2.576
  124OSM    H4F13158   3.370   3.422   2.533
  124OSM    H4G13159   3.296   3.278   2.605
  124OSM    C5F13160   3.216   3.471   2.687
  124OSM    H5F13161   3.117   3.441   2.727
  124OSM    H5G13162   3.207   3.572   2.641
  124OSM    C6F13163   3.312   3.471   2.798
  124OSM    H6F13164   3.410   3.509   2.762
  124OSM    H6G13165   3.335   3.369   2.837
  124OSM    C7F13166   3.286   3.582   2.909
  124OSM    H7F13167   3.235   3.667   2.860
  124OSM    H7G13168   3.379   3.613   2.961
  124OSM    C8F13169   3.195   3.540   3.029
  124OSM    H8F13170   3.091   3.524   2.992
  124OSM    H8G13171   3.193   3.633   3.090
  124OSM    C9F13172   3.259   3.422   3.103
  124OSM    H9F13173   3.253   3.327   3.048
  124OSM   C10F13174   3.297   3.411   3.234
  124OSM   H10F13175   3.344   3.315   3.259
  124OSM   C11F13176   3.289   3.515   3.339
  124OSM   H11F13177   3.213   3.592   3.309
  124OSM   H11G13178   3.383   3.574   3.343
  124OSM   C12F13179   3.254   3.474   3.476
  124OSM   H12F13180   3.315   3.383   3.496
  124OSM   H12G13181   3.147   3.445   3.482
  124OSM   C13F13182   3.276   3.569   3.597
  124OSM   H13F13183   3.221   3.660   3.565
  124OSM   H13G13184   3.385   3.593   3.599
  124OSM   C14F13185   3.216   3.525   3.737
  124OSM   H14F13186   3.108   3.512   3.713
  124OSM   H14G13187   3.239   3.611   3.804
  124OSM   C15F13188   3.272   3.389   3.770
  124OSM   H15F13189   3.383   3.395   3.764
  124OSM   H15G13190   3.237   3.305   3.707
  124OSM   C16F13191   3.242   3.346   3.918
  124OSM   H16F13192   3.132   3.334   3.922
  124OSM   H16G13193   3.279   3.422   3.990
  124OSM   C17F13194   3.295   3.208   3.957
  124OSM   H17F13195   3.406   3.205   3.968
  124OSM   H17G13196   3.265   3.133   3.882
  124OSM   C18F13197   3.235   3.166   4.094
  124OSM   H18F13198   3.126   3.145   4.092
  124OSM   H18G13199   3.262   3.247   4.166
  124OSM   H18H13200   3.287   3.073   4.125
  125OSM      N13201   4.267   6.336   1.569
  125OSM    C1513202   4.128   6.308   1.527
  125OSM   H15A13203   4.115   6.230   1.455
  125OSM   H15B13204   4.076   6.396   1.491
  125OSM   H15C13205   4.069   6.283   1.614
  125OSM    C1413206   4.327   6.205   1.612
  125OSM   H14A13207   4.435   6.202   1.622
  125OSM   H14B13208   4.299   6.132   1.538
  125OSM   H14C13209   4.294   6.166   1.708
  125OSM    C1313210   4.345   6.379   1.447
  125OSM   H13A13211   4.306   6.471   1.407
  125OSM   H13B13212   4.346   6.299   1.374
  125OSM   H13C13213   4.448   6.386   1.479
  125OSM    C1213214   4.272   6.445   1.674
  125OSM   H12A13215   4.226   6.538   1.642
  125OSM   H12B13216   4.374   6.467   1.699
  125OSM    C1113217   4.212   6.419   1.823
  125OSM   H11A13218   4.107   6.381   1.821
  125OSM   H11B13219   4.209   6.518   1.874
  125OSM      P13220   4.434   6.343   1.948
  125OSM    O1313221   4.482   6.209   1.986
  125OSM    O1413222   4.519   6.424   1.863
  125OSM    O1113223   4.401   6.432   2.075
  125OSM    O1213224   4.284   6.323   1.887
  125OSM    C1S13225   4.294   6.404   2.164
  125OSM    H1S13226   4.321   6.319   2.231
  125OSM    H1T13227   4.201   6.379   2.108
  125OSM     NF13228   4.179   6.492   2.371
  125OSM    HNF13229   4.097   6.549   2.362
  125OSM    C2S13230   4.274   6.523   2.261
  125OSM    H2S13231   4.371   6.536   2.313
  125OSM    C3S13232   4.230   6.654   2.186
  125OSM    H3S13233   4.127   6.641   2.145
  125OSM     O313234   4.312   6.686   2.073
  125OSM    HO313235   4.373   6.613   2.087
  125OSM    C4S13236   4.234   6.766   2.291
  125OSM    H4S13237   4.287   6.745   2.385
  125OSM    C5S13238   4.167   0.036   2.290
  125OSM    H5S13239   4.117   0.059   2.195
  125OSM    C6S13240   4.167   0.137   2.398
  125OSM    H6S13241   4.064   0.178   2.393
  125OSM    H6T13242   4.241   0.217   2.379
  125OSM    C7S13243   4.184   0.094   2.546
  125OSM    H7S13244   4.227   0.178   2.604
  125OSM    H7T13245   4.259   0.015   2.567
  125OSM    C8S13246   4.057   0.038   2.620
  125OSM    H8S13247   4.001   6.831   2.547
  125OSM    H8T13248   3.991   0.125   2.643
  125OSM    C9S13249   4.071   6.811   2.748
  125OSM    H9S13250   4.167   6.755   2.750
  125OSM    H9T13251   3.987   6.740   2.765
  125OSM   C10S13252   4.069   0.056   2.867
  125OSM   H10S13253   3.970   0.104   2.876
  125OSM   H10T13254   4.153   0.126   2.849
  125OSM   C11S13255   4.087   6.835   3.002
  125OSM   H11S13256   4.184   6.781   2.999
  125OSM   H11T13257   4.003   6.763   3.017
  125OSM   C12S13258   4.074   0.082   3.111
  125OSM   H12S13259   3.969   0.114   3.131
  125OSM   H12T13260   4.141   0.167   3.084
  125OSM   C13S13261   4.125   0.013   3.240
  125OSM   H13S13262   4.226   6.823   3.225
  125OSM   H13T13263   4.053   6.789   3.270
  125OSM   C14S13264   4.143   0.117   3.353
  125OSM   H14S13265   4.037   0.135   3.381
  125OSM   H14T13266   4.196   0.204   3.307
  125OSM   C15S13267   4.218   0.060   3.479
  125OSM   H15S13268   4.312   0.015   3.443
  125OSM   H15T13269   4.150   6.839   3.524
  125OSM   C16S13270   4.263   0.166   3.580
  125OSM   H16S13271   4.333   0.238   3.533
  125OSM   H16T13272   4.316   0.126   3.670
  125OSM   C17S13273   4.138   0.245   3.636
  125OSM   H17S13274   4.094   0.303   3.553
  125OSM   H17T13275   4.186   0.307   3.714
  125OSM   C18S13276   4.035   0.158   3.716
  125OSM   H18S13277   3.963   0.228   3.764
  125OSM   H18T13278   4.093   0.098   3.789
  125OSM   H18U13279   3.987   0.093   3.639
  125OSM    C1F13280   4.199   6.411   2.474
  125OSM     OF13281   4.288   6.330   2.481
  125OSM    C2F13282   4.108   6.430   2.590
  125OSM    H2F13283   4.021   6.370   2.557
  125OSM    H2G13284   4.078   6.535   2.610
  125OSM    C3F13285   4.171   6.371   2.721
  125OSM    H3F13286   4.282   6.369   2.728
  125OSM    H3G13287   4.129   6.269   2.735
  125OSM    C4F13288   4.111   6.464   2.832
  125OSM    H4F13289   4.001   6.460   2.818
  125OSM    H4G13290   4.147   6.569   2.829
  125OSM    C5F13291   4.144   6.403   2.970
  125OSM    H5F13292   4.248   6.434   2.993
  125OSM    H5G13293   4.124   6.293   2.972
  125OSM    C6F13294   4.060   6.461   3.088
  125OSM    H6F13295   3.952   6.445   3.067
  125OSM    H6G13296   4.074   6.571   3.103
  125OSM    C7F13297   4.113   6.396   3.220
  125OSM    H7F13298   4.223   6.408   3.230
  125OSM    H7G13299   4.094   6.288   3.203
  125OSM    C8F13300   4.044   6.453   3.348
  125OSM    H8F13301   3.933   6.449   3.340
  125OSM    H8G13302   4.069   6.560   3.365
  125OSM    C9F13303   4.079   6.375   3.469
  125OSM    H9F13304   4.089   6.267   3.454
  125OSM   C10F13305   4.123   6.427   3.583
  125OSM   H10F13306   4.169   6.353   3.651
  125OSM   C11F13307   4.137   6.571   3.623
  125OSM   H11F13308   4.058   6.631   3.573
  125OSM   H11G13309   4.236   6.614   3.598
  125OSM   C12F13310   4.136   6.587   3.777
  125OSM   H12F13311   4.188   6.684   3.791
  125OSM   H12G13312   4.190   6.500   3.821
  125OSM   C13F13313   3.994   6.585   3.836
  125OSM   H13F13314   3.953   6.482   3.827
  125OSM   H13G13315   3.926   6.648   3.775
  125OSM   C14F13316   3.998   6.629   3.986
  125OSM   H14F13317   3.986   6.739   3.989
  125OSM   H14G13318   4.093   6.594   4.032
  125OSM   C15F13319   3.887   6.566   4.071
  125OSM   H15F13320   3.863   6.465   4.030
  125OSM   H15G13321   3.793   6.623   4.056
  125OSM   C16F13322   3.897   6.569   4.226
  125OSM   H16F13323   3.810   6.522   4.277
  125OSM   H16G13324   3.918   6.673   4.262
  125OSM   C17F13325   4.020   6.506   4.299
  125OSM   H17F13326   4.110   6.558   4.258
  125OSM   H17G13327   4.034   6.401   4.266
  125OSM   C18F13328   4.020   6.510   4.449
  125OSM   H18F13329   4.114   6.456   4.472
  125OSM   H18G13330   3.931   6.458   4.491
  125OSM   H18H13331   4.028   6.612   4.494
  126OSM      N13332   2.773   1.178   1.722
  126OSM    C1513333   2.633   1.210   1.671
  126OSM   H15A13334   2.643   1.278   1.588
  126OSM   H15B13335   2.580   1.277   1.738
  126OSM   H15C13336   2.575   1.121   1.652
  126OSM    C1413337   2.833   1.094   1.612
  126OSM   H14A13338   2.801   0.991   1.611
  126OSM   H14B13339   2.939   1.082   1.627
  126OSM   H14C13340   2.828   1.145   1.517
  126OSM    C1313341   2.843   1.307   1.732
  126OSM   H13A13342   2.793   1.370   1.805
  126OSM   H13B13343   2.843   1.348   1.632
  126OSM   H13C13344   2.950   1.302   1.747
  126OSM    C1213345   2.779   1.094   1.845
  126OSM   H12A13346   2.769   1.163   1.927
  126OSM   H12B13347   2.879   1.056   1.861
  126OSM    C1113348   2.672   0.983   1.853
  126OSM   H11A13349   2.568   1.022   1.849
  126OSM   H11B13350   2.677   0.949   1.959
  126OSM      P13351   2.744   0.731   1.799
  126OSM    O1313352   2.636   0.636   1.767
  126OSM    O1413353   2.878   0.697   1.743
  126OSM    O1113354   2.761   0.729   1.964
  126OSM    O1213355   2.696   0.877   1.759
  126OSM    C1S13356   2.894   0.741   2.006
  126OSM    H1S13357   2.927   0.843   1.976
  126OSM    H1T13358   2.961   0.664   1.963
  126OSM     NF13359   3.056   0.770   2.199
  126OSM    HNF13360   3.123   0.697   2.198
  126OSM    C2S13361   2.919   0.731   2.162
  126OSM    H2S13362   2.851   0.807   2.206
  126OSM    C3S13363   2.879   0.594   2.215
  126OSM    H3S13364   2.959   0.518   2.197
  126OSM     O313365   2.765   0.530   2.162
  126OSM    HO313366   2.739   0.597   2.098
  126OSM    C4S13367   2.859   0.591   2.368
  126OSM    H4S13368   2.780   0.658   2.405
  126OSM    C5S13369   2.941   0.543   2.459
  126OSM    H5S13370   3.031   0.493   2.421
  126OSM    C6S13371   2.931   0.558   2.609
  126OSM    H6S13372   3.032   0.587   2.645
  126OSM    H6T13373   2.911   0.456   2.647
  126OSM    C7S13374   2.833   0.654   2.671
  126OSM    H7S13375   2.732   0.608   2.658
  126OSM    H7T13376   2.836   0.757   2.630
  126OSM    C8S13377   2.860   0.655   2.827
  126OSM    H8S13378   2.954   0.712   2.845
  126OSM    H8T13379   2.871   0.549   2.859
  126OSM    C9S13380   2.756   0.715   2.918
  126OSM    H9S13381   2.657   0.666   2.901
  126OSM    H9T13382   2.739   0.818   2.882
  126OSM   C10S13383   2.791   0.705   3.063
  126OSM   H10S13384   2.878   0.773   3.080
  126OSM   H10T13385   2.821   0.603   3.094
  126OSM   C11S13386   2.673   0.758   3.152
  126OSM   H11S13387   2.599   0.675   3.155
  126OSM   H11T13388   2.634   0.852   3.106
  126OSM   C12S13389   2.707   0.784   3.293
  126OSM   H12S13390   2.796   0.851   3.296
  126OSM   H12T13391   2.724   0.686   3.342
  126OSM   C13S13392   2.614   0.874   3.375
  126OSM   H13S13393   2.522   0.811   3.376
  126OSM   H13T13394   2.578   0.965   3.321
  126OSM   C14S13395   2.661   0.910   3.517
  126OSM   H14S13396   2.743   0.982   3.495
  126OSM   H14T13397   2.691   0.824   3.581
  126OSM   C15S13398   2.543   0.985   3.575
  126OSM   H15S13399   2.462   0.910   3.593
  126OSM   H15T13400   2.503   1.055   3.499
  126OSM   C16S13401   2.573   1.055   3.708
  126OSM   H16S13402   2.657   1.125   3.691
  126OSM   H16T13403   2.613   0.982   3.783
  126OSM   C17S13404   2.453   1.128   3.762
  126OSM   H17S13405   2.375   1.049   3.771
  126OSM   H17T13406   2.429   1.213   3.694
  126OSM   C18S13407   2.472   1.187   3.900
  126OSM   H18S13408   2.518   1.113   3.969
  126OSM   H18T13409   2.372   1.221   3.933
  126OSM   H18U13410   2.546   1.270   3.900
  126OSM    C1F13411   3.092   0.894   2.196
  126OSM     OF13412   3.004   0.978   2.168
  126OSM    C2F13413   3.237   0.929   2.222
  126OSM    H2F13414   3.248   1.025   2.167
  126OSM    H2G13415   3.300   0.862   2.160
  126OSM    C3F13416   3.284   0.939   2.370
  126OSM    H3F13417   3.394   0.952   2.360
  126OSM    H3G13418   3.270   0.843   2.425
  126OSM    C4F13419   3.218   1.053   2.455
  126OSM    H4F13420   3.186   1.140   2.393
  126OSM    H4G13421   3.289   1.075   2.537
  126OSM    C5F13422   3.108   0.989   2.541
  126OSM    H5F13423   3.123   0.884   2.573
  126OSM    H5G13424   3.010   0.991   2.488
  126OSM    C6F13425   3.096   1.075   2.660
  126OSM    H6F13426   3.091   1.183   2.635
  126OSM    H6G13427   3.193   1.072   2.714
  126OSM    C7F13428   2.974   1.035   2.746
  126OSM    H7F13429   2.983   0.932   2.786
  126OSM    H7G13430   2.888   1.033   2.676
  126OSM    C8F13431   2.942   1.129   2.859
  126OSM    H8F13432   2.838   1.110   2.892
  126OSM    H8G13433   2.946   1.237   2.835
  126OSM    C9F13434   3.033   1.111   2.981
  126OSM    H9F13435   3.125   1.056   2.959
  126OSM   C10F13436   3.002   1.137   3.110
  126OSM   H10F13437   3.086   1.127   3.181
  126OSM   C11F13438   2.878   1.219   3.150
  126OSM   H11F13439   2.793   1.186   3.087
  126OSM   H11G13440   2.887   1.329   3.137
  126OSM   C12F13441   2.826   1.197   3.298
  126OSM   H12F13442   2.843   1.095   3.337
  126OSM   H12G13443   2.717   1.207   3.313
  126OSM   C13F13444   2.895   1.291   3.398
  126OSM   H13F13445   2.854   1.389   3.365
  126OSM   H13G13446   3.005   1.276   3.389
  126OSM   C14F13447   2.847   1.265   3.542
  126OSM   H14F13448   2.842   1.156   3.557
  126OSM   H14G13449   2.750   1.311   3.570
  126OSM   C15F13450   2.952   1.335   3.634
  126OSM   H15F13451   2.962   1.444   3.619
  126OSM   H15G13452   3.053   1.296   3.608
  126OSM   C16F13453   2.926   1.316   3.783
  126OSM   H16F13454   2.887   1.215   3.804
  126OSM   H16G13455   2.851   1.390   3.816
  126OSM   C17F13456   3.053   1.343   3.861
  126OSM   H17F13457   3.077   1.451   3.854
  126OSM   H17G13458   3.137   1.289   3.813
  126OSM   C18F13459   3.059   1.297   4.008
  126OSM   H18F13460   3.158   1.325   4.050
  126OSM   H18G13461   3.047   1.187   4.015
  126OSM   H18H13462   2.982   1.343   4.073
  127OSM      N13463   1.757   2.638   2.003
  127OSM    C1513464   1.831   2.606   1.879
  127OSM   H15A13465   1.894   2.523   1.907
  127OSM   H15B13466   1.901   2.685   1.857
  127OSM   H15C13467   1.765   2.568   1.803
  127OSM    C1413468   1.672   2.747   1.962
  127OSM   H14A13469   1.615   2.713   1.876
  127OSM   H14B13470   1.722   2.838   1.934
  127OSM   H14C13471   1.610   2.780   2.044
  127OSM    C1313472   1.666   2.526   2.041
  127OSM   H13A13473   1.720   2.457   2.104
  127OSM   H13B13474   1.637   2.464   1.957
  127OSM   H13C13475   1.577   2.559   2.093
  127OSM    C1213476   1.851   2.669   2.123
  127OSM   H12A13477   1.793   2.678   2.214
  127OSM   H12B13478   1.898   2.763   2.097
  127OSM    C1113479   1.954   2.557   2.158
  127OSM   H11A13480   2.018   2.592   2.241
  127OSM   H11B13481   2.014   2.546   2.065
  127OSM      P13482   1.987   2.313   2.237
  127OSM    O1313483   1.903   2.215   2.306
  127OSM    O1413484   2.076   2.259   2.134
  127OSM    O1113485   2.083   2.384   2.349
  127OSM    O1213486   1.895   2.428   2.182
  127OSM    C1S13487   2.029   2.397   2.484
  127OSM    H1S13488   2.016   2.298   2.532
  127OSM    H1T13489   1.931   2.448   2.479
  127OSM     NF13490   2.097   2.464   2.722
  127OSM    HNF13491   2.056   2.548   2.757
  127OSM    C2S13492   2.131   2.469   2.579
  127OSM    H2S13493   2.227   2.414   2.563
  127OSM    C3S13494   2.156   2.612   2.526
  127OSM    H3S13495   2.061   2.671   2.533
  127OSM     O313496   2.203   2.622   2.390
  127OSM    HO313497   2.176   2.536   2.359
  127OSM    C4S13498   2.263   2.670   2.613
  127OSM    H4S13499   2.348   2.606   2.640
  127OSM    C5S13500   2.257   2.797   2.662
  127OSM    H5S13501   2.174   2.869   2.650
  127OSM    C6S13502   2.368   2.847   2.753
  127OSM    H6S13503   2.389   2.952   2.724
  127OSM    H6T13504   2.465   2.794   2.740
  127OSM    C7S13505   2.330   2.831   2.899
  127OSM    H7S13506   2.253   2.907   2.926
  127OSM    H7T13507   2.419   2.841   2.964
  127OSM    C8S13508   2.264   2.695   2.932
  127OSM    H8S13509   2.325   2.616   2.883
  127OSM    H8T13510   2.162   2.680   2.891
  127OSM    C9S13511   2.249   2.676   3.084
  127OSM    H9S13512   2.157   2.617   3.102
  127OSM    H9T13513   2.230   2.777   3.126
  127OSM   C10S13514   2.365   2.608   3.147
  127OSM   H10S13515   2.445   2.684   3.132
  127OSM   H10T13516   2.391   2.511   3.101
  127OSM   C11S13517   2.348   2.574   3.292
  127OSM   H11S13518   2.302   2.475   3.309
  127OSM   H11T13519   2.288   2.651   3.345
  127OSM   C12S13520   2.491   2.572   3.370
  127OSM   H12S13521   2.530   2.675   3.362
  127OSM   H12T13522   2.547   2.500   3.306
  127OSM   C13S13523   2.475   2.534   3.520
  127OSM   H13S13524   2.425   2.435   3.521
  127OSM   H13T13525   2.408   2.607   3.572
  127OSM   C14S13526   2.612   2.525   3.593
  127OSM   H14S13527   2.671   2.618   3.575
  127OSM   H14T13528   2.651   2.433   3.545
  127OSM   C15S13529   2.600   2.513   3.746
  127OSM   H15S13530   2.510   2.449   3.757
  127OSM   H15T13531   2.564   2.613   3.780
  127OSM   C16S13532   2.733   2.473   3.812
  127OSM   H16S13533   2.813   2.541   3.776
  127OSM   H16T13534   2.761   2.369   3.782
  127OSM   C17S13535   2.720   2.486   3.961
  127OSM   H17S13536   2.640   2.412   3.985
  127OSM   H17T13537   2.674   2.585   3.985
  127OSM   C18S13538   2.850   2.468   4.043
  127OSM   H18S13539   2.934   2.506   3.981
  127OSM   H18T13540   2.872   2.361   4.062
  127OSM   H18U13541   2.848   2.507   4.147
  127OSM    C1F13542   2.099   2.347   2.790
  127OSM     OF13543   2.158   2.250   2.753
  127OSM    C2F13544   2.016   2.351   2.916
  127OSM    H2F13545   1.920   2.300   2.894
  127OSM    H2G13546   1.997   2.458   2.939
  127OSM    C3F13547   2.087   2.268   3.031
  127OSM    H3F13548   2.178   2.330   3.048
  127OSM    H3G13549   2.107   2.164   2.996
  127OSM    C4F13550   2.006   2.271   3.159
  127OSM    H4F13551   1.916   2.205   3.160
  127OSM    H4G13552   1.961   2.372   3.171
  127OSM    C5F13553   2.083   2.218   3.277
  127OSM    H5F13554   2.187   2.257   3.286
  127OSM    H5G13555   2.100   2.109   3.269
  127OSM    C6F13556   2.023   2.256   3.408
  127OSM    H6F13557   1.917   2.225   3.416
  127OSM    H6G13558   2.030   2.364   3.434
  127OSM    C7F13559   2.095   2.186   3.527
  127OSM    H7F13560   2.202   2.211   3.541
  127OSM    H7G13561   2.074   2.077   3.520
  127OSM    C8F13562   2.027   2.231   3.666
  127OSM    H8F13563   2.065   2.157   3.740
  127OSM    H8G13564   1.917   2.226   3.654
  127OSM    C9F13565   2.059   2.380   3.696
  127OSM    H9F13566   2.030   2.457   3.623
  127OSM   C10F13567   2.128   2.412   3.804
  127OSM   H10F13568   2.159   2.518   3.811
  127OSM   C11F13569   2.188   2.324   3.911
  127OSM   H11F13570   2.295   2.304   3.887
  127OSM   H11G13571   2.142   2.225   3.933
  127OSM   C12F13572   2.179   2.397   4.052
  127OSM   H12F13573   2.186   2.326   4.137
  127OSM   H12G13574   2.077   2.438   4.070
  127OSM   C13F13575   2.289   2.500   4.062
  127OSM   H13F13576   2.294   2.567   3.974
  127OSM   H13G13577   2.389   2.451   4.068
  127OSM   C14F13578   2.274   2.585   4.190
  127OSM   H14F13579   2.277   2.524   4.282
  127OSM   H14G13580   2.180   2.644   4.183
  127OSM   C15F13581   2.393   2.684   4.189
  127OSM   H15F13582   2.352   2.776   4.236
  127OSM   H15G13583   2.414   2.713   4.084
  127OSM   C16F13584   2.515   2.653   4.269
  127OSM   H16F13585   2.558   2.559   4.229
  127OSM   H16G13586   2.501   2.628   4.376
  127OSM   C17F13587   2.625   2.770   4.249
  127OSM   H17F13588   2.621   2.800   4.142
  127OSM   H17G13589   2.727   2.726   4.257
  127OSM   C18F13590   2.615   2.885   4.338
  127OSM   H18F13591   2.510   2.923   4.335
  127OSM   H18G13592   2.680   2.971   4.312
  127OSM   H18H13593   2.640   2.862   4.443
  128OSM      N13594   1.498   0.876   2.148
  128OSM    C1513595   1.364   0.814   2.160
  128OSM   H15A13596   1.282   0.881   2.140
  128OSM   H15B13597   1.346   0.765   2.254
  128OSM   H15C13598   1.354   0.740   2.082
  128OSM    C1413599   1.496   0.977   2.040
  128OSM   H14A13600   1.599   1.007   2.025
  128OSM   H14B13601   1.443   1.067   2.069
  128OSM   H14C13602   1.452   0.940   1.948
  128OSM    C1313603   1.534   0.943   2.282
  128OSM   H13A13604   1.539   0.878   2.367
  128OSM   H13B13605   1.459   1.016   2.309
  128OSM   H13C13606   1.631   0.990   2.279
  128OSM    C1213607   1.598   0.759   2.105
  128OSM   H12A13608   1.695   0.806   2.111
  128OSM   H12B13609   1.580   0.741   2.000
  128OSM    C1113610   1.614   0.636   2.191
  128OSM   H11A13611   1.523   0.572   2.187
  128OSM   H11B13612   1.623   0.657   2.300
  128OSM      P13613   1.875   0.589   2.177
  128OSM    O1313614   1.955   0.465   2.162
  128OSM    O1413615   1.906   0.705   2.091
  128OSM    O1113616   1.877   0.640   2.325
  128OSM    O1213617   1.722   0.556   2.154
  128OSM    C1S13618   1.841   0.538   2.425
  128OSM    H1S13619   1.911   0.452   2.424
  128OSM    H1T13620   1.739   0.501   2.400
  128OSM     NF13621   1.875   0.503   2.670
  128OSM    HNF13622   1.797   0.481   2.727
  128OSM    C2S13623   1.847   0.603   2.566
  128OSM    H2S13624   1.937   0.668   2.568
  128OSM    C3S13625   1.723   0.686   2.609
  128OSM    H3S13626   1.636   0.619   2.627
  128OSM     O313627   1.679   0.780   2.511
  128OSM    HO313628   1.721   0.746   2.432
  128OSM    C4S13629   1.751   0.751   2.746
  128OSM    H4S13630   1.705   0.694   2.828
  128OSM    C5S13631   1.826   0.859   2.767
  128OSM    H5S13632   1.870   0.903   2.677
  128OSM    C6S13633   1.848   0.924   2.898
  128OSM    H6S13634   1.851   1.033   2.878
  128OSM    H6T13635   1.953   0.901   2.929
  128OSM    C7S13636   1.745   0.889   3.003
  128OSM    H7S13637   1.727   0.781   3.019
  128OSM    H7T13638   1.644   0.919   2.968
  128OSM    C8S13639   1.779   0.965   3.129
  128OSM    H8S13640   1.755   1.070   3.104
  128OSM    H8T13641   1.888   0.957   3.148
  128OSM    C9S13642   1.696   0.936   3.252
  128OSM    H9S13643   1.709   0.827   3.267
  128OSM    H9T13644   1.588   0.949   3.229
  128OSM   C10S13645   1.723   1.017   3.382
  128OSM   H10S13646   1.689   1.122   3.370
  128OSM   H10T13647   1.834   1.025   3.392
  128OSM   C11S13648   1.665   0.950   3.510
  128OSM   H11S13649   1.687   0.842   3.527
  128OSM   H11T13650   1.554   0.954   3.511
  128OSM   C12S13651   1.724   1.023   3.628
  128OSM   H12S13652   1.703   1.132   3.621
  128OSM   H12T13653   1.829   0.992   3.647
  128OSM   C13S13654   1.647   0.986   3.760
  128OSM   H13S13655   1.658   0.877   3.778
  128OSM   H13T13656   1.548   1.036   3.752
  128OSM   C14S13657   1.713   1.055   3.874
  128OSM   H14S13658   1.710   1.165   3.858
  128OSM   H14T13659   1.822   1.031   3.867
  128OSM   C15S13660   1.656   1.021   4.014
  128OSM   H15S13661   1.659   0.911   4.031
  128OSM   H15T13662   1.552   1.061   4.018
  128OSM   C16S13663   1.745   1.070   4.137
  128OSM   H16S13664   1.753   1.180   4.128
  128OSM   H16T13665   1.850   1.034   4.128
  128OSM   C17S13666   1.679   1.050   4.277
  128OSM   H17S13667   1.762   1.067   4.349
  128OSM   H17T13668   1.647   0.944   4.289
  128OSM   C18S13669   1.566   1.149   4.309
  128OSM   H18S13670   1.483   1.157   4.235
  128OSM   H18T13671   1.608   1.252   4.313
  128OSM   H18U13672   1.515   1.124   4.404
  128OSM    C1F13673   1.989   0.432   2.670
  128OSM     OF13674   2.082   0.457   2.595
  128OSM    C2F13675   1.993   0.315   2.768
  128OSM    H2F13676   1.959   0.224   2.716
  128OSM    H2G13677   1.932   0.346   2.855
  128OSM    C3F13678   2.141   0.281   2.803
  128OSM    H3F13679   2.198   0.375   2.798
  128OSM    H3G13680   2.178   0.220   2.718
  128OSM    C4F13681   2.161   0.190   2.925
  128OSM    H4F13682   2.268   0.159   2.923
  128OSM    H4G13683   2.103   0.096   2.923
  128OSM    C5F13684   2.118   0.268   3.050
  128OSM    H5F13685   2.010   0.295   3.059
  128OSM    H5G13686   2.180   0.359   3.039
  128OSM    C6F13687   2.167   0.190   3.177
  128OSM    H6F13688   2.258   0.130   3.156
  128OSM    H6G13689   2.092   0.109   3.188
  128OSM    C7F13690   2.190   0.277   3.305
  128OSM    H7F13691   2.091   0.317   3.335
  128OSM    H7G13692   2.250   0.365   3.274
  128OSM    C8F13693   2.242   0.195   3.419
  128OSM    H8F13694   2.284   0.263   3.495
  128OSM    H8G13695   2.325   0.128   3.387
  128OSM    C9F13696   2.141   0.112   3.487
  128OSM    H9F13697   2.078   0.066   3.409
  128OSM   C10F13698   2.112   0.105   3.621
  128OSM   H10F13699   2.025   0.051   3.661
  128OSM   C11F13700   2.200   0.165   3.731
  128OSM   H11F13701   2.292   0.208   3.684
  128OSM   H11G13702   2.245   0.085   3.793
  128OSM   C12F13703   2.141   0.283   3.810
  128OSM   H12F13704   2.066   0.246   3.883
  128OSM   H12G13705   2.090   0.359   3.745
  128OSM   C13F13706   2.243   0.351   3.903
  128OSM   H13F13707   2.291   0.278   3.972
  128OSM   H13G13708   2.203   0.437   3.960
  128OSM   C14F13709   2.350   0.424   3.825
  128OSM   H14F13710   2.323   0.483   3.735
  128OSM   H14G13711   2.404   0.338   3.779
  128OSM   C15F13712   2.446   0.509   3.902
  128OSM   H15F13713   2.483   0.438   3.979
  128OSM   H15G13714   2.392   0.579   3.969
  128OSM   C16F13715   2.552   0.567   3.817
  128OSM   H16F13716   2.505   0.655   3.768
  128OSM   H16G13717   2.578   0.488   3.743
  128OSM   C17F13718   2.670   0.616   3.904
  128OSM   H17F13719   2.755   0.639   3.836
  128OSM   H17G13720   2.703   0.531   3.969
  128OSM   C18F13721   2.643   0.726   4.003
  128OSM   H18F13722   2.741   0.750   4.050
  128OSM   H18G13723   2.579   0.686   4.085
  128OSM   H18H13724   2.598   0.816   3.956
  129OSM      N13725   3.667   6.468   1.983
  129OSM    C1513726   3.711   6.338   2.055
  129OSM   H15A13727   3.784   6.282   1.998
  129OSM   H15B13728   3.627   6.270   2.064
  129OSM   H15C13729   3.754   6.367   2.150
  129OSM    C1413730   3.560   6.430   1.883
  129OSM   H14A13731   3.608   6.360   1.817
  129OSM   H14B13732   3.528   6.518   1.830
  129OSM   H14C13733   3.475   6.384   1.931
  129OSM    C1313734   3.604   6.557   2.083
  129OSM   H13A13735   3.679   6.611   2.139
  129OSM   H13B13736   3.546   6.494   2.148
  129OSM   H13C13737   3.553   6.632   2.024
  129OSM    C1213738   3.777   6.534   1.898
  129OSM   H12A13739   3.730   6.618   1.850
  129OSM   H12B13740   3.804   6.460   1.825
  129OSM    C1113741   3.905   6.585   1.971
  129OSM   H11A13742   3.959   6.637   1.889
  129OSM   H11B13743   3.957   6.494   2.007
  129OSM      P13744   3.830   6.823   2.017
  129OSM    O1313745   3.935   0.030   1.930
  129OSM    O1413746   3.703   6.813   1.944
  129OSM    O1113747   3.817   0.044   2.159
  129OSM    O1213748   3.878   6.679   2.069
  129OSM    C1S13749   3.701   0.012   2.240
  129OSM    H1S13750   3.685   6.758   2.261
  129OSM    H1T13751   3.610   0.042   2.184
  129OSM     NF13752   3.611   0.008   2.466
  129OSM    HNF13753   3.522   0.048   2.484
  129OSM    C2S13754   3.706   0.074   2.380
  129OSM    H2S13755   3.807   0.067   2.426
  129OSM    C3S13756   3.697   0.229   2.363
  129OSM    H3S13757   3.594   0.259   2.332
  129OSM     O313758   3.775   0.279   2.251
  129OSM    HO313759   3.798   0.198   2.205
  129OSM    C4S13760   3.736   0.313   2.486
  129OSM    H4S13761   3.653   0.302   2.557
  129OSM    C5S13762   3.844   0.389   2.523
  129OSM    H5S13763   3.937   0.389   2.464
  129OSM    C6S13764   3.852   0.457   2.657
  129OSM    H6S13765   3.842   0.567   2.646
  129OSM    H6T13766   3.953   0.428   2.694
  129OSM    C7S13767   3.754   0.418   2.777
  129OSM    H7S13768   3.715   0.315   2.772
  129OSM    H7T13769   3.663   0.481   2.760
  129OSM    C8S13770   3.807   0.453   2.914
  129OSM    H8S13771   3.898   0.516   2.897
  129OSM    H8T13772   3.835   0.371   2.984
  129OSM    C9S13773   3.696   0.522   2.992
  129OSM    H9S13774   3.599   0.467   2.995
  129OSM    H9T13775   3.679   0.625   2.953
  129OSM   C10S13776   3.738   0.539   3.144
  129OSM   H10S13777   3.665   0.612   3.184
  129OSM   H10T13778   3.841   0.579   3.144
  129OSM   C11S13779   3.753   0.409   3.226
  129OSM   H11S13780   3.828   0.338   3.186
  129OSM   H11T13781   3.648   0.373   3.228
  129OSM   C12S13782   3.810   0.427   3.369
  129OSM   H12S13783   3.920   0.442   3.365
  129OSM   H12T13784   3.774   0.331   3.411
  129OSM   C13S13785   3.738   0.534   3.442
  129OSM   H13S13786   3.630   0.533   3.415
  129OSM   H13T13787   3.776   0.633   3.409
  129OSM   C14S13788   3.743   0.511   3.596
  129OSM   H14S13789   3.715   0.407   3.621
  129OSM   H14T13790   3.666   0.571   3.648
  129OSM   C15S13791   3.876   0.534   3.671
  129OSM   H15S13792   3.915   0.625   3.619
  129OSM   H15T13793   3.951   0.456   3.645
  129OSM   C16S13794   3.868   0.546   3.821
  129OSM   H16S13795   3.811   0.458   3.860
  129OSM   H16T13796   3.810   0.639   3.838
  129OSM   C17S13797   4.014   0.549   3.881
  129OSM   H17S13798   4.078   0.625   3.831
  129OSM   H17T13799   4.068   0.453   3.864
  129OSM   C18S13800   4.013   0.572   4.035
  129OSM   H18S13801   4.120   0.585   4.062
  129OSM   H18T13802   3.966   0.489   4.092
  129OSM   H18U13803   3.980   0.674   4.063
  129OSM    C1F13804   3.644   6.746   2.519
  129OSM     OF13805   3.740   6.685   2.481
  129OSM    C2F13806   3.563   6.691   2.628
  129OSM    H2F13807   3.620   6.607   2.672
  129OSM    H2G13808   3.470   6.637   2.601
  129OSM    C3F13809   3.524   6.790   2.737
  129OSM    H3F13810   3.464   6.735   2.812
  129OSM    H3G13811   3.459   0.017   2.697
  129OSM    C4F13812   3.646   6.844   2.806
  129OSM    H4F13813   3.674   0.091   2.769
  129OSM    H4G13814   3.741   6.786   2.800
  129OSM    C5F13815   3.627   0.019   2.952
  129OSM    H5F13816   3.527   0.050   2.991
  129OSM    H5G13817   3.692   0.104   2.979
  129OSM    C6F13818   3.665   6.741   3.028
  129OSM    H6F13819   3.764   6.699   3.002
  129OSM    H6G13820   3.580   6.670   3.014
  129OSM    C7F13821   3.680   6.777   3.180
  129OSM    H7F13822   3.577   6.795   3.219
  129OSM    H7G13823   3.725   0.024   3.190
  129OSM    C8F13824   3.761   6.679   3.261
  129OSM    H8F13825   3.848   6.645   3.201
  129OSM    H8G13826   3.698   6.588   3.273
  129OSM    C9F13827   3.807   6.726   3.391
  129OSM    H9F13828   3.839   6.831   3.383
  129OSM   C10F13829   3.791   6.677   3.519
  129OSM   H10F13830   3.849   6.733   3.593
  129OSM   C11F13831   3.725   6.544   3.556
  129OSM   H11F13832   3.796   6.503   3.631
  129OSM   H11G13833   3.714   6.484   3.464
  129OSM   C12F13834   3.591   6.567   3.629
  129OSM   H12F13835   3.534   6.472   3.620
  129OSM   H12G13836   3.523   6.631   3.569
  129OSM   C13F13837   3.598   6.602   3.779
  129OSM   H13F13838   3.631   6.708   3.787
  129OSM   H13G13839   3.669   6.531   3.826
  129OSM   C14F13840   3.464   6.583   3.861
  129OSM   H14F13841   3.380   6.558   3.792
  129OSM   H14G13842   3.441   6.687   3.893
  129OSM   C15F13843   3.475   6.503   3.994
  129OSM   H15F13844   3.574   6.516   4.042
  129OSM   H15G13845   3.474   6.394   3.973
  129OSM   C16F13846   3.366   6.541   4.099
  129OSM   H16F13847   3.271   6.537   4.041
  129OSM   H16G13848   3.383   6.649   4.119
  129OSM   C17F13849   3.354   6.451   4.220
  129OSM   H17F13850   3.302   6.358   4.189
  129OSM   H17G13851   3.290   6.500   4.297
  129OSM   C18F13852   3.487   6.396   4.274
  129OSM   H18F13853   3.552   6.342   4.201
  129OSM   H18G13854   3.466   6.321   4.353
  129OSM   H18H13855   3.535   6.486   4.318
  130OSM      N13856   3.315   3.959   1.908
  130OSM    C1513857   3.323   3.809   1.930
  130OSM   H15A13858   3.283   3.756   1.845
  130OSM   H15B13859   3.264   3.782   2.016
  130OSM   H15C13860   3.423   3.771   1.942
  130OSM    C1413861   3.399   3.989   1.788
  130OSM   H14A13862   3.500   3.955   1.807
  130OSM   H14B13863   3.404   4.092   1.758
  130OSM   H14C13864   3.367   3.933   1.701
  130OSM    C1313865   3.172   3.993   1.883
  130OSM   H13A13866   3.125   3.945   1.798
  130OSM   H13B13867   3.166   4.096   1.850
  130OSM   H13C13868   3.113   3.972   1.971
  130OSM    C1213869   3.361   4.036   2.032
  130OSM   H12A13870   3.280   4.028   2.104
  130OSM   H12B13871   3.368   4.140   2.006
  130OSM    C1113872   3.492   3.984   2.101
  130OSM   H11A13873   3.479   3.882   2.144
  130OSM   H11B13874   3.518   4.048   2.188
  130OSM      P13875   3.709   3.882   1.976
  130OSM    O1313876   3.647   3.790   1.874
  130OSM    O1413877   3.844   3.935   1.946
  130OSM    O1113878   3.711   3.791   2.105
  130OSM    O1213879   3.606   3.999   2.009
  130OSM    C1S13880   3.784   3.850   2.215
  130OSM    H1S13881   3.770   3.961   2.219
  130OSM    H1T13882   3.890   3.818   2.218
  130OSM     NF13883   3.815   3.821   2.469
  130OSM    HNF13884   3.859   3.746   2.519
  130OSM    C2S13885   3.732   3.789   2.354
  130OSM    H2S13886   3.640   3.851   2.367
  130OSM    C3S13887   3.696   3.641   2.330
  130OSM    H3S13888   3.782   3.583   2.291
  130OSM     O313889   3.572   3.636   2.250
  130OSM    HO313890   3.603   3.685   2.174
  130OSM    C4S13891   3.667   3.574   2.465
  130OSM    H4S13892   3.627   3.653   2.532
  130OSM    C5S13893   3.693   3.447   2.505
  130OSM    H5S13894   3.721   3.373   2.428
  130OSM    C6S13895   3.674   3.382   2.641
  130OSM    H6S13896   3.713   3.278   2.641
  130OSM    H6T13897   3.564   3.366   2.652
  130OSM    C7S13898   3.726   3.449   2.766
  130OSM    H7S13899   3.698   3.556   2.750
  130OSM    H7T13900   3.837   3.448   2.773
  130OSM    C8S13901   3.672   3.385   2.897
  130OSM    H8S13902   3.707   3.282   2.916
  130OSM    H8T13903   3.561   3.388   2.892
  130OSM    C9S13904   3.700   3.464   3.023
  130OSM    H9S13905   3.648   3.561   3.010
  130OSM    H9T13906   3.807   3.493   3.028
  130OSM   C10S13907   3.657   3.402   3.158
  130OSM   H10S13908   3.725   3.319   3.188
  130OSM   H10T13909   3.553   3.367   3.144
  130OSM   C11S13910   3.677   3.500   3.273
  130OSM   H11S13911   3.593   3.572   3.263
  130OSM   H11T13912   3.774   3.554   3.263
  130OSM   C12S13913   3.667   3.430   3.407
  130OSM   H12S13914   3.745   3.352   3.411
  130OSM   H12T13915   3.569   3.378   3.416
  130OSM   C13S13916   3.680   3.528   3.527
  130OSM   H13S13917   3.611   3.614   3.534
  130OSM   H13T13918   3.784   3.564   3.511
  130OSM   C14S13919   3.681   3.451   3.662
  130OSM   H14S13920   3.771   3.386   3.654
  130OSM   H14T13921   3.593   3.384   3.673
  130OSM   C15S13922   3.672   3.534   3.784
  130OSM   H15S13923   3.580   3.593   3.764
  130OSM   H15T13924   3.765   3.595   3.785
  130OSM   C16S13925   3.665   3.468   3.920
  130OSM   H16S13926   3.756   3.405   3.932
  130OSM   H16T13927   3.585   3.391   3.917
  130OSM   C17S13928   3.657   3.562   4.045
  130OSM   H17S13929   3.594   3.652   4.027
  130OSM   H17T13930   3.760   3.594   4.071
  130OSM   C18S13931   3.615   3.493   4.179
  130OSM   H18S13932   3.510   3.462   4.195
  130OSM   H18T13933   3.644   3.567   4.257
  130OSM   H18U13934   3.676   3.401   4.191
  130OSM    C1F13935   3.847   3.940   2.506
  130OSM     OF13936   3.824   4.037   2.430
  130OSM    C2F13937   3.914   3.967   2.632
  130OSM    H2F13938   4.015   3.920   2.634
  130OSM    H2G13939   3.849   3.920   2.710
  130OSM    C3F13940   3.911   4.107   2.687
  130OSM    H3F13941   3.809   4.152   2.675
  130OSM    H3G13942   3.980   4.173   2.631
  130OSM    C4F13943   3.941   4.116   2.843
  130OSM    H4F13944   4.038   4.066   2.865
  130OSM    H4G13945   3.870   4.063   2.909
  130OSM    C5F13946   3.945   4.261   2.884
  130OSM    H5F13947   3.855   4.325   2.869
  130OSM    H5G13948   4.034   4.304   2.833
  130OSM    C6F13949   3.955   4.269   3.041
  130OSM    H6F13950   3.985   4.174   3.091
  130OSM    H6G13951   3.853   4.288   3.079
  130OSM    C7F13952   4.047   4.381   3.082
  130OSM    H7F13953   4.140   4.347   3.033
  130OSM    H7G13954   4.069   4.395   3.190
  130OSM    C8F13955   3.998   4.524   3.032
  130OSM    H8F13956   3.900   4.551   3.077
  130OSM    H8G13957   3.965   4.510   2.927
  130OSM    C9F13958   4.090   4.637   3.049
  130OSM    H9F13959   4.156   4.644   2.961
  130OSM   C10F13960   4.106   4.713   3.156
  130OSM   H10F13961   4.181   4.794   3.152
  130OSM   C11F13962   4.030   4.691   3.282
  130OSM   H11F13963   3.973   4.596   3.286
  130OSM   H11G13964   3.957   4.774   3.288
  130OSM   C12F13965   4.118   4.698   3.411
  130OSM   H12F13966   4.219   4.739   3.388
  130OSM   H12G13967   4.154   4.596   3.436
  130OSM   C13F13968   4.064   4.780   3.527
  130OSM   H13F13969   3.958   4.755   3.546
  130OSM   H13G13970   4.058   4.879   3.477
  130OSM   C14F13971   4.151   4.776   3.652
  130OSM   H14F13972   4.245   4.832   3.634
  130OSM   H14G13973   4.172   4.670   3.678
  130OSM   C15F13974   4.069   4.854   3.754
  130OSM   H15F13975   3.967   4.812   3.767
  130OSM   H15G13976   4.049   4.957   3.717
  130OSM   C16F13977   4.125   4.862   3.890
  130OSM   H16F13978   4.186   4.954   3.890
  130OSM   H16G13979   4.189   4.772   3.905
  130OSM   C17F13980   4.023   4.890   4.003
  130OSM   H17F13981   3.993   4.800   4.061
  130OSM   H17G13982   3.932   4.917   3.945
  130OSM   C18F13983   4.061   5.012   4.093
  130OSM   H18F13984   4.139   4.972   4.161
  130OSM   H18G13985   3.977   5.038   4.161
  130OSM   H18H13986   4.102   5.099   4.037
  131OSM      N13987   0.689   0.164   2.316
  131OSM    C1513988   0.614   0.039   2.279
  131OSM   H15A13989   0.654   6.850   2.189
  131OSM   H15B13990   0.512   0.066   2.254
  131OSM   H15C13991   0.606   6.821   2.359
  131OSM    C1413992   0.708   0.261   2.207
  131OSM   H14A13993   0.764   0.211   2.129
  131OSM   H14B13994   0.758   0.354   2.229
  131OSM   H14C13995   0.617   0.296   2.161
  131OSM    C1313996   0.626   0.228   2.433
  131OSM   H13A13997   0.683   0.316   2.456
  131OSM   H13B13998   0.626   0.150   2.508
  131OSM   H13C13999   0.522   0.254   2.424
  131OSM    C1214000   0.828   0.126   2.367
  131OSM   H12A14001   0.829   0.058   2.451
  131OSM   H12B14002   0.887   0.217   2.370
  131OSM    C1114003   0.934   0.051   2.272
  131OSM   H11A14004   0.881   6.810   2.254
  131OSM   H11B14005   1.029   0.036   2.329
  131OSM      P14006   1.071   0.214   2.108
  131OSM    O1314007   1.111   0.206   1.968
  131OSM    O1414008   1.006   0.342   2.160
  131OSM    O1114009   1.189   0.167   2.200
  131OSM    O1214010   0.957   0.113   2.139
  131OSM    C1S14011   1.274   0.257   2.275
  131OSM    H1S14012   1.236   0.362   2.274
  131OSM    H1T14013   1.380   0.255   2.242
  131OSM     NF14014   1.355   0.310   2.500
  131OSM    HNF14015   1.453   0.298   2.514
  131OSM    C2S14016   1.286   0.209   2.418
  131OSM    H2S14017   1.187   0.188   2.464
  131OSM    C3S14018   1.365   0.071   2.421
  131OSM    H3S14019   1.464   0.084   2.373
  131OSM     O314020   1.311   6.823   2.334
  131OSM    HO314021   1.255   0.018   2.273
  131OSM    C4S14022   1.378   0.009   2.561
  131OSM    H4S14023   1.478   0.030   2.601
  131OSM    C5S14024   1.279   6.795   2.629
  131OSM    H5S14025   1.182   6.782   2.580
  131OSM    C6S14026   1.297   6.727   2.763
  131OSM    H6S14027   1.296   6.616   2.754
  131OSM    H6T14028   1.215   6.768   2.825
  131OSM    C7S14029   1.425   6.766   2.842
  131OSM    H7S14030   1.428   0.018   2.874
  131OSM    H7T14031   1.521   6.735   2.795
  131OSM    C8S14032   1.446   6.699   2.978
  131OSM    H8S14033   1.431   6.589   2.963
  131OSM    H8T14034   1.365   6.720   3.052
  131OSM    C9S14035   1.574   6.739   3.043
  131OSM    H9S14036   1.606   6.845   3.036
  131OSM    H9T14037   1.658   6.678   3.002
  131OSM   C10S14038   1.571   6.698   3.192
  131OSM   H10S14039   1.514   6.605   3.211
  131OSM   H10T14040   1.514   6.778   3.245
  131OSM   C11S14041   1.706   6.675   3.257
  131OSM   H11S14042   1.768   6.767   3.246
  131OSM   H11T14043   1.757   6.590   3.207
  131OSM   C12S14044   1.697   6.651   3.409
  131OSM   H12S14045   1.633   6.560   3.417
  131OSM   H12T14046   1.646   6.730   3.468
  131OSM   C13S14047   1.833   6.616   3.489
  131OSM   H13S14048   1.907   6.696   3.466
  131OSM   H13T14049   1.871   6.523   3.440
  131OSM   C14S14050   1.815   6.586   3.637
  131OSM   H14S14051   1.915   6.546   3.666
  131OSM   H14T14052   1.736   6.510   3.654
  131OSM   C15S14053   1.788   6.706   3.731
  131OSM   H15S14054   1.700   6.765   3.698
  131OSM   H15T14055   1.867   6.783   3.715
  131OSM   C16S14056   1.779   6.676   3.881
  131OSM   H16S14057   1.879   6.656   3.927
  131OSM   H16T14058   1.718   6.583   3.879
  131OSM   C17S14059   1.721   6.789   3.969
  131OSM   H17S14060   1.613   6.807   3.948
  131OSM   H17T14061   1.781   0.021   3.933
  131OSM   C18S14062   1.734   6.778   4.123
  131OSM   H18S14063   1.676   6.696   4.170
  131OSM   H18T14064   1.696   0.019   4.168
  131OSM   H18U14065   1.841   6.769   4.152
  131OSM    C1F14066   1.293   0.422   2.539
  131OSM     OF14067   1.185   0.452   2.500
  131OSM    C2F14068   1.370   0.514   2.629
  131OSM    H2F14069   1.425   0.585   2.563
  131OSM    H2G14070   1.445   0.449   2.680
  131OSM    C3F14071   1.273   0.595   2.717
  131OSM    H3F14072   1.182   0.539   2.748
  131OSM    H3G14073   1.221   0.667   2.651
  131OSM    C4F14074   1.332   0.651   2.845
  131OSM    H4F14075   1.396   0.738   2.820
  131OSM    H4G14076   1.388   0.567   2.892
  131OSM    C5F14077   1.225   0.703   2.937
  131OSM    H5F14078   1.143   0.628   2.943
  131OSM    H5G14079   1.169   0.785   2.887
  131OSM    C6F14080   1.265   0.740   3.078
  131OSM    H6F14081   1.339   0.821   3.065
  131OSM    H6G14082   1.306   0.646   3.121
  131OSM    C7F14083   1.158   0.800   3.167
  131OSM    H7F14084   1.077   0.729   3.194
  131OSM    H7G14085   1.115   0.887   3.113
  131OSM    C8F14086   1.228   0.861   3.286
  131OSM    H8F14087   1.161   0.933   3.339
  131OSM    H8G14088   1.320   0.912   3.253
  131OSM    C9F14089   1.277   0.758   3.379
  131OSM    H9F14090   1.338   0.679   3.333
  131OSM   C10F14091   1.256   0.748   3.508
  131OSM   H10F14092   1.307   0.659   3.548
  131OSM   C11F14093   1.187   0.845   3.599
  131OSM   H11F14094   1.092   0.798   3.633
  131OSM   H11G14095   1.164   0.935   3.539
  131OSM   C12F14096   1.255   0.889   3.724
  131OSM   H12F14097   1.188   0.960   3.778
  131OSM   H12G14098   1.347   0.944   3.696
  131OSM   C13F14099   1.295   0.771   3.814
  131OSM   H13F14100   1.388   0.717   3.787
  131OSM   H13G14101   1.210   0.701   3.831
  131OSM   C14F14102   1.333   0.833   3.953
  131OSM   H14F14103   1.248   0.894   3.991
  131OSM   H14G14104   1.421   0.900   3.947
  131OSM   C15F14105   1.361   0.731   4.064
  131OSM   H15F14106   1.469   0.725   4.086
  131OSM   H15G14107   1.312   0.637   4.030
  131OSM   C16F14108   1.309   0.791   4.195
  131OSM   H16F14109   1.206   0.831   4.179
  131OSM   H16G14110   1.367   0.882   4.220
  131OSM   C17F14111   1.330   0.696   4.316
  131OSM   H17F14112   1.306   0.594   4.279
  131OSM   H17G14113   1.257   0.723   4.395
  131OSM   C18F14114   1.470   0.708   4.374
  131OSM   H18F14115   1.496   0.816   4.374
  131OSM   H18G14116   1.538   0.653   4.306
  131OSM   H18H14117   1.474   0.672   4.480
  132OSM      N14118   5.784   6.602   2.301
  132OSM    C1514119   5.852   6.623   2.164
  132OSM   H15A14120   5.806   6.555   2.093
  132OSM   H15B14121   5.956   6.595   2.175
  132OSM   H15C14122   5.852   6.719   2.115
  132OSM    C1414123   5.643   6.648   2.289
  132OSM   H14A14124   5.589   6.587   2.218
  132OSM   H14B14125   5.624   6.750   2.259
  132OSM   H14C14126   5.589   6.640   2.383
  132OSM    C1314127   5.782   6.456   2.334
  132OSM   H13A14128   5.731   6.400   2.257
  132OSM   H13B14129   5.724   6.435   2.422
  132OSM   H13C14130   5.880   6.412   2.344
  132OSM    C1214131   5.847   6.680   2.413
  132OSM   H12A14132   5.773   6.691   2.490
  132OSM   H12B14133   5.859   6.783   2.383
  132OSM    C1114134   5.971   6.622   2.479
  132OSM   H11A14135   5.966   6.520   2.521
  132OSM   H11B14136   5.987   6.681   2.572
  132OSM      P14137   6.190   6.737   2.412
  132OSM    O1314138   6.301   6.707   2.325
  132OSM    O1414139   6.139   0.018   2.398
  132OSM    O1114140   6.244   6.711   2.562
  132OSM    O1214141   6.085   6.624   2.392
  132OSM    C1S14142   6.283   6.568   2.598
  132OSM    H1S14143   6.364   6.532   2.531
  132OSM    H1T14144   6.193   6.504   2.597
  132OSM     NF14145   6.386   6.448   2.774
  132OSM    HNF14146   6.319   6.398   2.827
  132OSM    C2S14147   6.347   6.578   2.737
  132OSM    H2S14148   6.448   6.624   2.729
  132OSM    C3S14149   6.260   6.646   2.848
  132OSM    H3S14150   6.161   6.596   2.835
  132OSM     O314151   6.213   6.780   2.833
  132OSM    HO314152   6.231   6.801   2.741
  132OSM    C4S14153   6.303   6.624   2.993
  132OSM    H4S14154   6.263   6.538   3.049
  132OSM    C5S14155   6.388   6.708   3.065
  132OSM    H5S14156   6.436   6.786   3.003
  132OSM    C6S14157   6.431   6.689   3.210
  132OSM    H6S14158   6.429   6.788   3.259
  132OSM    H6T14159   6.530   6.640   3.221
  132OSM    C7S14160   6.338   6.593   3.284
  132OSM    H7S14161   6.347   6.492   3.239
  132OSM    H7T14162   6.232   6.624   3.272
  132OSM    C8S14163   6.367   6.592   3.434
  132OSM    H8S14164   6.287   6.536   3.487
  132OSM    H8T14165   6.360   6.692   3.482
  132OSM    C9S14166   6.501   6.522   3.485
  132OSM    H9S14167   6.588   6.552   3.423
  132OSM    H9T14168   6.487   6.416   3.455
  132OSM   C10S14169   6.505   6.520   3.639
  132OSM   H10S14170   6.420   6.466   3.687
  132OSM   H10T14171   6.499   6.626   3.669
  132OSM   C11S14172   6.631   6.451   3.695
  132OSM   H11S14173   6.722   6.502   3.658
  132OSM   H11T14174   6.622   6.350   3.648
  132OSM   C12S14175   6.620   6.432   3.847
  132OSM   H12S14176   6.531   6.370   3.871
  132OSM   H12T14177   6.613   6.532   3.896
  132OSM   C13S14178   6.736   6.347   3.905
  132OSM   H13S14179   6.830   6.380   3.856
  132OSM   H13T14180   6.720   6.240   3.880
  132OSM   C14S14181   6.732   6.350   4.058
  132OSM   H14S14182   6.648   6.290   4.099
  132OSM   H14T14183   6.720   6.447   4.110
  132OSM   C15S14184   0.009   6.284   4.105
  132OSM   H15S14185   0.096   6.312   4.042
  132OSM   H15T14186   6.852   6.174   4.096
  132OSM   C16S14187   0.033   6.305   4.258
  132OSM   H16S14188   6.800   6.264   4.314
  132OSM   H16T14189   0.037   6.411   4.292
  132OSM   C17S14190   0.154   6.233   4.315
  132OSM   H17S14191   0.239   6.256   4.248
  132OSM   H17T14192   0.139   6.124   4.327
  132OSM   C18S14193   0.172   6.286   4.460
  132OSM   H18S14194   0.270   6.248   4.498
  132OSM   H18T14195   0.094   6.244   4.527
  132OSM   H18U14196   0.161   6.396   4.462
  132OSM    C1F14197   6.489   6.382   2.722
  132OSM     OF14198   6.552   6.430   2.631
  132OSM    C2F14199   6.528   6.238   2.757
  132OSM    H2F14200   6.556   6.185   2.663
  132OSM    H2G14201   6.444   6.189   2.811
  132OSM    C3F14202   6.646   6.236   2.856
  132OSM    H3F14203   6.739   6.276   2.810
  132OSM    H3G14204   6.671   6.129   2.872
  132OSM    C4F14205   6.615   6.313   2.985
  132OSM    H4F14206   6.580   6.412   2.949
  132OSM    H4G14207   6.707   6.323   3.046
  132OSM    C5F14208   6.503   6.250   3.069
  132OSM    H5F14209   6.420   6.200   3.015
  132OSM    H5G14210   6.460   6.335   3.127
  132OSM    C6F14211   6.553   6.146   3.179
  132OSM    H6F14212   6.652   6.180   3.216
  132OSM    H6G14213   6.575   6.044   3.140
  132OSM    C7F14214   6.474   6.147   3.306
  132OSM    H7F14215   6.378   6.091   3.297
  132OSM    H7G14216   6.444   6.249   3.339
  132OSM    C8F14217   6.537   6.077   3.430
  132OSM    H8F14218   6.464   6.062   3.513
  132OSM    H8G14219   6.608   6.156   3.463
  132OSM    C9F14220   6.587   5.937   3.400
  132OSM    H9F14221   6.620   5.926   3.295
  132OSM   C10F14222   6.597   5.833   3.484
  132OSM   H10F14223   6.637   5.734   3.455
  132OSM   C11F14224   6.549   5.827   3.632
  132OSM   H11F14225   6.516   5.723   3.655
  132OSM   H11G14226   6.473   5.905   3.654
  132OSM   C12F14227   6.659   5.857   3.739
  132OSM   H12F14228   6.694   5.963   3.735
  132OSM   H12G14229   6.754   5.801   3.733
  132OSM   C13F14230   6.609   5.848   3.879
  132OSM   H13F14231   6.524   5.914   3.905
  132OSM   H13G14232   6.692   5.871   3.949
  132OSM   C14F14233   6.547   5.712   3.920
  132OSM   H14F14234   6.461   5.700   3.852
  132OSM   H14G14235   6.507   5.719   4.023
  132OSM   C15F14236   6.644   5.593   3.910
  132OSM   H15F14237   6.729   5.621   3.976
  132OSM   H15G14238   6.680   5.585   3.805
  132OSM   C16F14239   6.582   5.457   3.939
  132OSM   H16F14240   6.644   5.366   3.927
  132OSM   H16G14241   6.513   5.447   3.852
  132OSM   C17F14242   6.517   5.438   4.079
  132OSM   H17F14243   6.445   5.354   4.074
  132OSM   H17G14244   6.446   5.521   4.101
  132OSM   C18F14245   6.612   5.427   4.201
  132OSM   H18F14246   6.686   5.353   4.166
  132OSM   H18G14247   6.548   5.412   4.290
  132OSM   H18H14248   6.675   5.517   4.214
  133OSM      N14249   4.660   2.757   1.870
  133OSM    C1514250   4.707   2.659   1.769
  133OSM   H15A14251   4.750   2.702   1.680
  133OSM   H15B14252   4.618   2.610   1.733
  133OSM   H15C14253   4.774   2.587   1.815
  133OSM    C1414254   4.775   2.842   1.916
  133OSM   H14A14255   4.815   2.917   1.849
  133OSM   H14B14256   4.865   2.789   1.944
  133OSM   H14C14257   4.749   2.904   2.000
  133OSM    C1314258   4.559   2.845   1.807
  133OSM   H13A14259   4.543   2.928   1.874
  133OSM   H13B14260   4.470   2.797   1.770
  133OSM   H13C14261   4.595   2.901   1.722
  133OSM    C1214262   4.598   2.677   1.979
  133OSM   H12A14263   4.523   2.615   1.933
  133OSM   H12B14264   4.545   2.741   2.047
  133OSM    C1114265   4.699   2.589   2.060
  133OSM   H11A14266   4.647   2.556   2.152
  133OSM   H11B14267   4.772   2.655   2.111
  133OSM      P14268   4.913   2.449   2.012
  133OSM    O1314269   4.921   2.309   1.979
  133OSM    O1414270   5.012   2.542   1.954
  133OSM    O1114271   4.935   2.448   2.164
  133OSM    O1214272   4.762   2.482   1.997
  133OSM    C1S14273   4.866   2.354   2.255
  133OSM    H1S14274   4.906   2.251   2.245
  133OSM    H1T14275   4.757   2.352   2.235
  133OSM     NF14276   4.840   2.290   2.494
  133OSM    HNF14277   4.751   2.307   2.537
  133OSM    C2S14278   4.887   2.395   2.415
  133OSM    H2S14279   4.997   2.397   2.427
  133OSM    C3S14280   4.814   2.535   2.441
  133OSM    H3S14281   4.708   2.521   2.409
  133OSM     O314282   4.844   2.651   2.362
  133OSM    HO314283   4.921   2.632   2.308
  133OSM    C4S14284   4.807   2.584   2.585
  133OSM    H4S14285   4.715   2.555   2.637
  133OSM    C5S14286   4.896   2.665   2.652
  133OSM    H5S14287   4.977   2.701   2.586
  133OSM    C6S14288   4.901   2.726   2.796
  133OSM    H6S14289   4.797   2.742   2.831
  133OSM    H6T14290   4.956   2.822   2.785
  133OSM    C7S14291   4.981   2.642   2.891
  133OSM    H7S14292   5.000   2.703   2.982
  133OSM    H7T14293   5.081   2.612   2.853
  133OSM    C8S14294   4.901   2.511   2.926
  133OSM    H8S14295   4.881   2.449   2.836
  133OSM    H8T14296   4.801   2.542   2.964
  133OSM    C9S14297   4.972   2.425   3.030
  133OSM    H9S14298   5.081   2.437   3.013
  133OSM    H9T14299   4.945   2.318   3.019
  133OSM   C10S14300   4.943   2.471   3.175
  133OSM   H10S14301   4.836   2.497   3.190
  133OSM   H10T14302   5.008   2.561   3.184
  133OSM   C11S14303   4.995   2.371   3.283
  133OSM   H11S14304   5.102   2.396   3.303
  133OSM   H11T14305   5.003   2.265   3.250
  133OSM   C12S14306   4.929   2.383   3.421
  133OSM   H12S14307   4.822   2.350   3.417
  133OSM   H12T14308   4.915   2.488   3.454
  133OSM   C13S14309   5.015   2.307   3.527
  133OSM   H13S14310   5.118   2.348   3.535
  133OSM   H13T14311   5.018   2.199   3.502
  133OSM   C14S14312   4.950   2.315   3.670
  133OSM   H14S14313   4.840   2.310   3.656
  133OSM   H14T14314   4.973   2.421   3.695
  133OSM   C15S14315   5.013   2.216   3.766
  133OSM   H15S14316   5.123   2.228   3.753
  133OSM   H15T14317   4.981   2.118   3.724
  133OSM   C16S14318   4.982   2.226   3.910
  133OSM   H16S14319   4.914   2.144   3.940
  133OSM   H16T14320   4.943   2.325   3.943
  133OSM   C17S14321   5.108   2.198   3.995
  133OSM   H17S14322   5.137   2.288   4.054
  133OSM   H17T14323   5.203   2.170   3.944
  133OSM   C18S14324   5.079   2.077   4.090
  133OSM   H18S14325   5.165   2.030   4.142
  133OSM   H18T14326   5.024   1.996   4.039
  133OSM   H18U14327   5.008   2.121   4.163
  133OSM    C1F14328   4.905   2.183   2.535
  133OSM     OF14329   5.000   2.142   2.464
  133OSM    C2F14330   4.868   2.109   2.661
  133OSM    H2F14331   4.928   2.139   2.749
  133OSM    H2G14332   4.888   2.004   2.631
  133OSM    C3F14333   4.722   2.126   2.706
  133OSM    H3F14334   4.646   2.130   2.625
  133OSM    H3G14335   4.704   2.219   2.765
  133OSM    C4F14336   4.688   2.013   2.806
  133OSM    H4F14337   4.704   1.911   2.765
  133OSM    H4G14338   4.580   2.022   2.833
  133OSM    C5F14339   4.780   2.018   2.929
  133OSM    H5F14340   4.773   2.121   2.969
  133OSM    H5G14341   4.886   2.003   2.897
  133OSM    C6F14342   4.755   1.902   3.029
  133OSM    H6F14343   4.842   1.896   3.098
  133OSM    H6G14344   4.757   1.804   2.976
  133OSM    C7F14345   4.627   1.924   3.117
  133OSM    H7F14346   4.625   1.835   3.184
  133OSM    H7G14347   4.533   1.931   3.058
  133OSM    C8F14348   4.633   2.052   3.207
  133OSM    H8F14349   4.529   2.052   3.244
  133OSM    H8G14350   4.647   2.142   3.143
  133OSM    C9F14351   4.739   2.055   3.314
  133OSM    H9F14352   4.841   2.056   3.274
  133OSM   C10F14353   4.715   2.063   3.448
  133OSM   H10F14354   4.807   2.058   3.509
  133OSM   C11F14355   4.585   2.066   3.522
  133OSM   H11F14356   4.505   2.051   3.448
  133OSM   H11G14357   4.558   2.167   3.561
  133OSM   C12F14358   4.573   1.955   3.631
  133OSM   H12F14359   4.585   1.856   3.584
  133OSM   H12G14360   4.469   1.960   3.671
  133OSM   C13F14361   4.660   1.989   3.750
  133OSM   H13F14362   4.627   2.093   3.771
  133OSM   H13G14363   4.769   1.988   3.731
  133OSM   C14F14364   4.647   1.891   3.871
  133OSM   H14F14365   4.661   1.791   3.825
  133OSM   H14G14366   4.543   1.911   3.904
  133OSM   C15F14367   4.740   1.919   3.987
  133OSM   H15F14368   4.749   2.027   4.011
  133OSM   H15G14369   4.841   1.879   3.966
  133OSM   C16F14370   4.682   1.855   4.118
  133OSM   H16F14371   4.694   1.745   4.119
  133OSM   H16G14372   4.574   1.881   4.115
  133OSM   C17F14373   4.748   1.902   4.249
  133OSM   H17F14374   4.752   2.013   4.251
  133OSM   H17G14375   4.855   1.872   4.243
  133OSM   C18F14376   4.673   1.843   4.368
  133OSM   H18F14377   4.728   1.850   4.465
  133OSM   H18G14378   4.652   1.734   4.365
  133OSM   H18H14379   4.575   1.888   4.393
  134OSM      N14380   5.474   6.067   1.873
  134OSM    C1514381   5.534   6.181   1.794
  134OSM   H15A14382   5.528   6.272   1.852
  134OSM   H15B14383   5.489   6.199   1.698
  134OSM   H15C14384   5.634   6.154   1.766
  134OSM    C1414385   5.329   6.093   1.900
  134OSM   H14A14386   5.290   6.009   1.955
  134OSM   H14B14387   5.270   6.084   1.810
  134OSM   H14C14388   5.312   6.188   1.948
  134OSM    C1314389   5.479   5.941   1.797
  134OSM   H13A14390   5.428   5.953   1.702
  134OSM   H13B14391   5.446   5.858   1.857
  134OSM   H13C14392   5.581   5.919   1.770
  134OSM    C1214393   5.546   6.037   2.009
  134OSM   H12A14394   5.547   6.132   2.061
  134OSM   H12B14395   5.647   6.007   1.990
  134OSM    C1114396   5.478   5.921   2.095
  134OSM   H11A14397   5.375   5.951   2.124
  134OSM   H11B14398   5.536   5.930   2.190
  134OSM      P14399   5.609   5.697   2.059
  134OSM    O1314400   5.630   5.603   1.944
  134OSM    O1414401   5.725   5.769   2.110
  134OSM    O1114402   5.546   5.609   2.174
  134OSM    O1214403   5.483   5.789   2.033
  134OSM    C1S14404   5.480   5.666   2.288
  134OSM    H1S14405   5.383   5.710   2.257
  134OSM    H1T14406   5.543   5.748   2.328
  134OSM     NF14407   5.354   5.601   2.494
  134OSM    HNF14408   5.386   5.609   2.588
  134OSM    C2S14409   5.457   5.565   2.399
  134OSM    H2S14410   5.412   5.482   2.341
  134OSM    C3S14411   5.596   5.511   2.457
  134OSM    H3S14412   5.631   5.589   2.528
  134OSM     O314413   5.693   5.492   2.360
  134OSM    HO314414   5.643   5.514   2.281
  134OSM    C4S14415   5.584   5.393   2.547
  134OSM    H4S14416   5.569   5.413   2.654
  134OSM    C5S14417   5.588   5.260   2.516
  134OSM    H5S14418   5.590   5.219   2.414
  134OSM    C6S14419   5.572   5.149   2.616
  134OSM    H6S14420   5.653   5.076   2.593
  134OSM    H6T14421   5.482   5.088   2.595
  134OSM    C7S14422   5.576   5.191   2.763
  134OSM    H7S14423   5.492   5.257   2.794
  134OSM    H7T14424   5.672   5.242   2.785
  134OSM    C8S14425   5.564   5.077   2.856
  134OSM    H8S14426   5.640   4.998   2.842
  134OSM    H8T14427   5.467   5.025   2.840
  134OSM    C9S14428   5.592   5.111   3.002
  134OSM    H9S14429   5.552   5.209   3.037
  134OSM    H9T14430   5.703   5.109   3.006
  134OSM   C10S14431   5.541   5.006   3.100
  134OSM   H10S14432   5.595   4.910   3.088
  134OSM   H10T14433   5.435   4.987   3.071
  134OSM   C11S14434   5.559   5.047   3.242
  134OSM   H11S14435   5.524   5.153   3.250
  134OSM   H11T14436   5.668   5.045   3.258
  134OSM   C12S14437   5.495   4.956   3.344
  134OSM   H12S14438   5.549   4.859   3.354
  134OSM   H12T14439   5.397   4.935   3.296
  134OSM   C13S14440   5.492   5.021   3.484
  134OSM   H13S14441   5.405   5.090   3.484
  134OSM   H13T14442   5.590   5.067   3.507
  134OSM   C14S14443   5.480   4.904   3.592
  134OSM   H14S14444   5.569   4.838   3.587
  134OSM   H14T14445   5.390   4.845   3.566
  134OSM   C15S14446   5.469   4.956   3.737
  134OSM   H15S14447   5.371   5.005   3.752
  134OSM   H15T14448   5.563   5.011   3.760
  134OSM   C16S14449   5.467   4.847   3.844
  134OSM   H16S14450   5.565   4.799   3.868
  134OSM   H16T14451   5.404   4.766   3.803
  134OSM   C17S14452   5.399   4.886   3.972
  134OSM   H17S14453   5.300   4.937   3.963
  134OSM   H17T14454   5.464   4.969   4.008
  134OSM   C18S14455   5.407   4.785   4.091
  134OSM   H18S14456   5.358   4.692   4.055
  134OSM   H18T14457   5.354   4.821   4.181
  134OSM   H18U14458   5.514   4.764   4.111
  134OSM    C1F14459   5.228   5.630   2.468
  134OSM     OF14460   5.186   5.609   2.358
  134OSM    C2F14461   5.157   5.705   2.577
  134OSM    H2F14462   5.077   5.768   2.534
  134OSM    H2G14463   5.238   5.764   2.624
  134OSM    C3F14464   5.092   5.616   2.680
  134OSM    H3F14465   5.176   5.551   2.711
  134OSM    H3G14466   5.011   5.558   2.631
  134OSM    C4F14467   5.044   5.685   2.806
  134OSM    H4F14468   4.950   5.735   2.774
  134OSM    H4G14469   5.116   5.752   2.858
  134OSM    C5F14470   5.013   5.588   2.918
  134OSM    H5F14471   5.105   5.558   2.972
  134OSM    H5G14472   4.965   5.502   2.866
  134OSM    C6F14473   4.902   5.632   3.012
  134OSM    H6F14474   4.817   5.673   2.953
  134OSM    H6G14475   4.941   5.710   3.081
  134OSM    C7F14476   4.829   5.508   3.078
  134OSM    H7F14477   4.893   5.466   3.158
  134OSM    H7G14478   4.826   5.432   2.997
  134OSM    C8F14479   4.691   5.536   3.131
  134OSM    H8F14480   4.632   5.458   3.183
  134OSM    H8G14481   4.623   5.583   3.056
  134OSM    C9F14482   4.696   5.653   3.232
  134OSM    H9F14483   4.654   5.744   3.187
  134OSM   C10F14484   4.749   5.661   3.356
  134OSM   H10F14485   4.726   5.752   3.413
  134OSM   C11F14486   4.786   5.539   3.434
  134OSM   H11F14487   4.897   5.543   3.437
  134OSM   H11G14488   4.756   5.441   3.391
  134OSM   C12F14489   4.725   5.544   3.574
  134OSM   H12F14490   4.614   5.550   3.573
  134OSM   H12G14491   4.770   5.638   3.612
  134OSM   C13F14492   4.767   5.424   3.664
  134OSM   H13F14493   4.873   5.402   3.637
  134OSM   H13G14494   4.702   5.337   3.640
  134OSM   C14F14495   4.735   5.455   3.809
  134OSM   H14F14496   4.634   5.502   3.809
  134OSM   H14G14497   4.810   5.519   3.860
  134OSM   C15F14498   4.707   5.330   3.893
  134OSM   H15F14499   4.805   5.282   3.913
  134OSM   H15G14500   4.656   5.249   3.838
  134OSM   C16F14501   4.635   5.357   4.027
  134OSM   H16F14502   4.532   5.390   3.998
  134OSM   H16G14503   4.691   5.443   4.068
  134OSM   C17F14504   4.614   5.236   4.123
  134OSM   H17F14505   4.572   5.287   4.213
  134OSM   H17G14506   4.716   5.203   4.149
  134OSM   C18F14507   4.531   5.114   4.073
  134OSM   H18F14508   4.427   5.139   4.041
  134OSM   H18G14509   4.524   5.029   4.144
  134OSM   H18H14510   4.584   5.071   3.985
  135OSM      N14511   0.280   1.289   2.195
  135OSM    C1514512   0.328   1.332   2.334
  135OSM   H15A14513   0.356   1.247   2.395
  135OSM   H15B14514   0.245   1.379   2.385
  135OSM   H15C14515   0.407   1.405   2.323
  135OSM    C1414516   0.248   1.407   2.106
  135OSM   H14A14517   0.200   1.372   2.015
  135OSM   H14B14518   0.331   1.472   2.081
  135OSM   H14C14519   0.173   1.461   2.161
  135OSM    C1314520   0.398   1.210   2.128
  135OSM   H13A14521   0.421   1.129   2.195
  135OSM   H13B14522   0.486   1.266   2.101
  135OSM   H13C14523   0.367   1.161   2.037
  135OSM    C1214524   0.155   1.199   2.204
  135OSM   H12A14525   0.061   1.251   2.217
  135OSM   H12B14526   0.158   1.140   2.294
  135OSM    C1114527   0.129   1.099   2.089
  135OSM   H11A14528   0.129   1.152   1.991
  135OSM   H11B14529   0.027   1.058   2.102
  135OSM      P14530   0.216   0.865   2.177
  135OSM    O1314531   0.124   0.760   2.130
  135OSM    O1414532   0.354   0.809   2.184
  135OSM    O1114533   0.176   0.931   2.316
  135OSM    O1214534   0.217   0.981   2.070
  135OSM    C1S14535   0.052   0.901   2.382
  135OSM    H1S14536   0.004   0.807   2.347
  135OSM    H1T14537   6.830   0.977   2.357
  135OSM     NF14538   6.809   0.814   2.586
  135OSM    HNF14539   6.744   0.869   2.638
  135OSM    C2S14540   0.068   0.886   2.530
  135OSM    H2S14541   0.149   0.813   2.552
  135OSM    C3S14542   0.105   1.017   2.605
  135OSM    H3S14543   0.024   1.090   2.582
  135OSM     O314544   0.233   1.074   2.556
  135OSM    HO314545   0.260   1.013   2.486
  135OSM    C4S14546   0.115   0.992   2.748
  135OSM    H4S14547   0.012   0.983   2.787
  135OSM    C5S14548   0.226   0.964   2.823
  135OSM    H5S14549   0.320   0.957   2.766
  135OSM    C6S14550   0.231   0.907   2.958
  135OSM    H6S14551   0.321   0.949   3.007
  135OSM    H6T14552   0.228   0.796   2.958
  135OSM    C7S14553   0.111   0.944   3.045
  135OSM    H7S14554   0.023   0.903   2.992
  135OSM    H7T14555   0.110   1.056   3.043
  135OSM    C8S14556   0.128   0.894   3.191
  135OSM    H8S14557   0.231   0.899   3.231
  135OSM    H8T14558   0.113   0.784   3.189
  135OSM    C9S14559   0.024   0.960   3.289
  135OSM    H9S14560   6.780   0.958   3.236
  135OSM    H9T14561   0.049   1.067   3.303
  135OSM   C10S14562   0.009   0.882   3.423
  135OSM   H10S14563   0.108   0.889   3.474
  135OSM   H10T14564   6.834   0.776   3.410
  135OSM   C11S14565   6.769   0.948   3.527
  135OSM   H11S14566   6.675   0.976   3.476
  135OSM   H11T14567   6.817   1.044   3.556
  135OSM   C12S14568   6.752   0.846   3.642
  135OSM   H12S14569   6.835   0.773   3.649
  135OSM   H12T14570   6.658   0.791   3.620
  135OSM   C13S14571   6.747   0.914   3.790
  135OSM   H13S14572   6.849   0.951   3.812
  135OSM   H13T14573   6.740   0.828   3.859
  135OSM   C14S14574   6.641   1.026   3.799
  135OSM   H14S14575   6.569   0.993   3.877
  135OSM   H14T14576   6.579   1.044   3.709
  135OSM   C15S14577   6.695   1.163   3.835
  135OSM   H15S14578   6.605   1.229   3.835
  135OSM   H15T14579   6.765   1.196   3.756
  135OSM   C16S14580   6.754   1.169   3.978
  135OSM   H16S14581   6.843   1.102   3.974
  135OSM   H16T14582   6.679   1.140   4.055
  135OSM   C17S14583   6.802   1.315   4.016
  135OSM   H17S14584   6.714   1.382   4.007
  135OSM   H17T14585   0.033   1.341   3.949
  135OSM   C18S14586   0.013   1.326   4.158
  135OSM   H18S14587   6.800   1.284   4.236
  135OSM   H18T14588   0.022   1.434   4.184
  135OSM   H18U14589   0.102   1.260   4.160
  135OSM    C1F14590   6.769   0.691   2.550
  135OSM     OF14591   6.840   0.623   2.480
  135OSM    C2F14592   6.644   0.638   2.614
  135OSM    H2F14593   6.610   0.538   2.577
  135OSM    H2G14594   6.567   0.718   2.606
  135OSM    C3F14595   6.669   0.605   2.760
  135OSM    H3F14596   6.581   0.552   2.802
  135OSM    H3G14597   6.702   0.686   2.828
  135OSM    C4F14598   6.770   0.495   2.781
  135OSM    H4F14599   0.012   0.534   2.742
  135OSM    H4G14600   6.751   0.408   2.715
  135OSM    C5F14601   6.799   0.468   2.931
  135OSM    H5F14602   6.707   0.452   2.991
  135OSM    H5G14603   0.005   0.554   2.968
  135OSM    C6F14604   0.024   0.336   2.951
  135OSM    H6F14605   0.109   0.329   2.879
  135OSM    H6G14606   6.808   0.253   2.929
  135OSM    C7F14607   0.074   0.327   3.101
  135OSM    H7F14608   0.133   0.236   3.123
  135OSM    H7G14609   6.839   0.310   3.165
  135OSM    C8F14610   0.160   0.445   3.161
  135OSM    H8F14611   0.190   0.426   3.266
  135OSM    H8G14612   0.086   0.528   3.170
  135OSM    C9F14613   0.263   0.493   3.066
  135OSM    H9F14614   0.227   0.514   2.964
  135OSM   C10F14615   0.386   0.521   3.086
  135OSM   H10F14616   0.439   0.545   2.993
  135OSM   C11F14617   0.464   0.487   3.213
  135OSM   H11F14618   0.574   0.485   3.203
  135OSM   H11G14619   0.428   0.398   3.270
  135OSM   C12F14620   0.434   0.602   3.318
  135OSM   H12F14621   0.326   0.605   3.344
  135OSM   H12G14622   0.466   0.702   3.283
  135OSM   C13F14623   0.510   0.581   3.454
  135OSM   H13F14624   0.615   0.572   3.418
  135OSM   H13G14625   0.466   0.490   3.501
  135OSM   C14F14626   0.502   0.703   3.547
  135OSM   H14F14627   0.522   0.791   3.483
  135OSM   H14G14628   0.578   0.690   3.627
  135OSM   C15F14629   0.363   0.713   3.609
  135OSM   H15F14630   0.350   0.607   3.640
  135OSM   H15G14631   0.287   0.724   3.529
  135OSM   C16F14632   0.346   0.832   3.702
  135OSM   H16F14633   0.427   0.820   3.776
  135OSM   H16G14634   0.249   0.840   3.756
  135OSM   C17F14635   0.353   0.971   3.636
  135OSM   H17F14636   0.286   0.961   3.548
  135OSM   H17G14637   0.455   0.992   3.597
  135OSM   C18F14638   0.318   1.091   3.726
  135OSM   H18F14639   0.302   1.183   3.666
  135OSM   H18G14640   0.401   1.096   3.799
  135OSM   H18H14641   0.219   1.069   3.771
  136OSM      N14642   1.690   4.794   2.145
  136OSM    C1514643   1.614   4.758   2.274
  136OSM   H15A14644   1.536   4.686   2.253
  136OSM   H15B14645   1.576   4.848   2.320
  136OSM   H15C14646   1.678   4.709   2.345
  136OSM    C1414647   1.754   4.668   2.102
  136OSM   H14A14648   1.678   4.595   2.122
  136OSM   H14B14649   1.840   4.655   2.167
  136OSM   H14C14650   1.781   4.676   1.998
  136OSM    C1314651   1.605   4.851   2.044
  136OSM   H13A14652   1.561   4.945   2.070
  136OSM   H13B14653   1.521   4.784   2.032
  136OSM   H13C14654   1.659   4.866   1.952
  136OSM    C1214655   1.790   4.900   2.179
  136OSM   H12A14656   1.860   4.861   2.252
  136OSM   H12B14657   1.741   4.988   2.217
  136OSM    C1114658   1.891   4.943   2.071
  136OSM   H11A14659   1.946   5.033   2.106
  136OSM   H11B14660   1.829   4.963   1.981
  136OSM      P14661   2.068   4.800   1.922
  136OSM    O1314662   2.004   4.702   1.831
  136OSM    O1414663   2.115   4.929   1.859
  136OSM    O1114664   2.198   4.734   1.976
  136OSM    O1214665   1.980   4.835   2.049
  136OSM    C1S14666   2.224   4.730   2.117
  136OSM    H1S14667   2.140   4.683   2.173
  136OSM    H1T14668   2.244   4.832   2.156
  136OSM     NF14669   2.355   4.612   2.290
  136OSM    HNF14670   2.415   4.674   2.341
  136OSM    C2S14671   2.345   4.640   2.145
  136OSM    H2S14672   2.327   4.544   2.090
  136OSM    C3S14673   2.471   4.705   2.079
  136OSM    H3S14674   2.485   4.793   2.145
  136OSM     O314675   2.455   4.736   1.944
  136OSM    HO314676   2.360   4.736   1.934
  136OSM    C4S14677   2.584   4.620   2.089
  136OSM    H4S14678   2.575   4.511   2.082
  136OSM    C5S14679   2.701   4.661   2.134
  136OSM    H5S14680   2.720   4.769   2.140
  136OSM    C6S14681   2.822   4.572   2.152
  136OSM    H6S14682   2.890   4.619   2.225
  136OSM    H6T14683   2.880   4.570   2.057
  136OSM    C7S14684   2.804   4.428   2.192
  136OSM    H7S14685   2.903   4.376   2.198
  136OSM    H7T14686   2.730   4.380   2.124
  136OSM    C8S14687   2.743   4.408   2.335
  136OSM    H8S14688   2.632   4.411   2.324
  136OSM    H8T14689   2.764   4.492   2.404
  136OSM    C9S14690   2.786   4.271   2.394
  136OSM    H9S14691   2.894   4.285   2.411
  136OSM    H9T14692   2.771   4.198   2.311
  136OSM   C10S14693   2.737   4.213   2.525
  136OSM   H10S14694   2.626   4.211   2.525
  136OSM   H10T14695   2.771   4.282   2.605
  136OSM   C11S14696   2.794   4.073   2.532
  136OSM   H11S14697   2.904   4.073   2.516
  136OSM   H11T14698   2.735   4.018   2.456
  136OSM   C12S14699   2.753   3.997   2.658
  136OSM   H12S14700   2.791   3.893   2.657
  136OSM   H12T14701   2.644   4.010   2.679
  136OSM   C13S14702   2.826   4.056   2.781
  136OSM   H13S14703   2.799   4.160   2.810
  136OSM   H13T14704   2.932   4.059   2.750
  136OSM   C14S14705   2.821   3.966   2.907
  136OSM   H14S14706   2.857   3.872   2.860
  136OSM   H14T14707   2.713   3.956   2.933
  136OSM   C15S14708   2.902   4.013   3.026
  136OSM   H15S14709   2.857   4.101   3.078
  136OSM   H15T14710   3.001   4.026   2.978
  136OSM   C16S14711   2.936   3.903   3.127
  136OSM   H16S14712   2.992   3.823   3.073
  136OSM   H16T14713   2.840   3.866   3.169
  136OSM   C17S14714   3.030   3.954   3.244
  136OSM   H17S14715   3.017   4.061   3.269
  136OSM   H17T14716   3.129   3.934   3.198
  136OSM   C18S14717   3.024   3.867   3.372
  136OSM   H18S14718   2.927   3.868   3.427
  136OSM   H18T14719   3.109   3.883   3.441
  136OSM   H18U14720   3.032   3.759   3.346
  136OSM    C1F14721   2.278   4.537   2.358
  136OSM     OF14722   2.183   4.482   2.304
  136OSM    C2F14723   2.291   4.523   2.506
  136OSM    H2F14724   2.233   4.613   2.537
  136OSM    H2G14725   2.396   4.530   2.541
  136OSM    C3F14726   2.229   4.395   2.576
  136OSM    H3F14727   2.271   4.299   2.540
  136OSM    H3G14728   2.120   4.395   2.555
  136OSM    C4F14729   2.242   4.400   2.726
  136OSM    H4F14730   2.348   4.379   2.751
  136OSM    H4G14731   2.187   4.311   2.764
  136OSM    C5F14732   2.186   4.531   2.777
  136OSM    H5F14733   2.089   4.552   2.728
  136OSM    H5G14734   2.249   4.621   2.757
  136OSM    C6F14735   2.169   4.531   2.932
  136OSM    H6F14736   2.141   4.429   2.966
  136OSM    H6G14737   2.079   4.595   2.944
  136OSM    C7F14738   2.283   4.597   3.013
  136OSM    H7F14739   2.238   4.605   3.114
  136OSM    H7G14740   2.318   4.698   2.983
  136OSM    C8F14741   2.395   4.500   3.026
  136OSM    H8F14742   2.439   4.489   2.925
  136OSM    H8G14743   2.356   4.402   3.060
  136OSM    C9F14744   2.492   4.552   3.132
  136OSM    H9F14745   2.590   4.590   3.099
  136OSM   C10F14746   2.484   4.535   3.267
  136OSM   H10F14747   2.549   4.595   3.333
  136OSM   C11F14748   2.376   4.462   3.346
  136OSM   H11F14749   2.408   4.359   3.373
  136OSM   H11G14750   2.294   4.437   3.275
  136OSM   C12F14751   2.314   4.539   3.468
  136OSM   H12F14752   2.230   4.488   3.519
  136OSM   H12G14753   2.287   4.638   3.424
  136OSM   C13F14754   2.409   4.556   3.590
  136OSM   H13F14755   2.505   4.610   3.578
  136OSM   H13G14756   2.442   4.457   3.628
  136OSM   C14F14757   2.330   4.642   3.694
  136OSM   H14F14758   2.235   4.586   3.706
  136OSM   H14G14759   2.294   4.734   3.644
  136OSM   C15F14760   2.414   4.656   3.814
  136OSM   H15F14761   2.499   4.723   3.792
  136OSM   H15G14762   2.446   4.554   3.845
  136OSM   C16F14763   2.332   4.701   3.937
  136OSM   H16F14764   2.265   4.622   3.975
  136OSM   H16G14765   2.274   4.794   3.922
  136OSM   C17F14766   2.421   4.730   4.061
  136OSM   H17F14767   2.514   4.781   4.028
  136OSM   H17G14768   2.460   4.635   4.102
  136OSM   C18F14769   2.368   4.837   4.155
  136OSM   H18F14770   2.442   4.870   4.231
  136OSM   H18G14771   2.283   4.791   4.209
  136OSM   H18H14772   2.322   4.924   4.104
  137OSM      N14773   1.023   1.749   1.965
  137OSM    C1514774   0.901   1.729   1.888
  137OSM   H15A14775   0.923   1.761   1.787
  137OSM   H15B14776   0.830   1.802   1.922
  137OSM   H15C14777   0.866   1.627   1.887
  137OSM    C1414778   1.001   1.737   2.108
  137OSM   H14A14779   0.941   1.814   2.154
  137OSM   H14B14780   1.091   1.759   2.163
  137OSM   H14C14781   0.959   1.642   2.137
  137OSM    C1314782   1.121   1.642   1.927
  137OSM   H13A14783   1.141   1.645   1.821
  137OSM   H13B14784   1.073   1.549   1.955
  137OSM   H13C14785   1.217   1.658   1.972
  137OSM    C1214786   1.084   1.887   1.940
  137OSM   H12A14787   1.115   1.896   1.837
  137OSM   H12B14788   1.179   1.888   1.992
  137OSM    C1114789   1.001   2.008   1.984
  137OSM   H11A14790   1.056   2.101   1.956
  137OSM   H11B14791   0.995   2.004   2.095
  137OSM      P14792   0.739   2.030   1.985
  137OSM    O1314793   0.697   2.174   1.975
  137OSM    O1414794   0.647   1.932   1.918
  137OSM    O1114795   0.768   1.990   2.136
  137OSM    O1214796   0.878   2.012   1.911
  137OSM    C1S14797   0.681   1.921   2.220
  137OSM    H1S14798   0.676   1.813   2.195
  137OSM    H1T14799   0.577   1.961   2.219
  137OSM     NF14800   0.655   1.857   2.464
  137OSM    HNF14801   0.620   1.913   2.539
  137OSM    C2S14802   0.743   1.925   2.365
  137OSM    H2S14803   0.838   1.867   2.362
  137OSM    C3S14804   0.796   2.066   2.399
  137OSM    H3S14805   0.705   2.129   2.393
  137OSM     O314806   0.891   2.130   2.310
  137OSM    HO314807   0.876   2.068   2.239
  137OSM    C4S14808   0.859   2.061   2.535
  137OSM    H4S14809   0.958   2.013   2.529
  137OSM    C5S14810   0.814   2.122   2.649
  137OSM    H5S14811   0.714   2.170   2.648
  137OSM    C6S14812   0.884   2.131   2.781
  137OSM    H6S14813   0.829   2.077   2.861
  137OSM    H6T14814   0.886   2.237   2.814
  137OSM    C7S14815   1.026   2.081   2.792
  137OSM    H7S14816   1.085   2.137   2.716
  137OSM    H7T14817   1.043   1.977   2.756
  137OSM    C8S14818   1.082   2.085   2.934
  137OSM    H8S14819   1.184   2.041   2.939
  137OSM    H8T14820   1.020   2.019   2.998
  137OSM    C9S14821   1.085   2.231   2.998
  137OSM    H9S14822   0.986   2.246   3.047
  137OSM    H9T14823   1.095   2.293   2.907
  137OSM   C10S14824   1.206   2.243   3.089
  137OSM   H10S14825   1.293   2.258   3.023
  137OSM   H10T14826   1.234   2.152   3.147
  137OSM   C11S14827   1.196   2.360   3.192
  137OSM   H11S14828   1.116   2.332   3.264
  137OSM   H11T14829   1.156   2.451   3.142
  137OSM   C12S14830   1.328   2.363   3.273
  137OSM   H12S14831   1.413   2.376   3.203
  137OSM   H12T14832   1.347   2.266   3.324
  137OSM   C13S14833   1.327   2.456   3.389
  137OSM   H13S14834   1.232   2.452   3.447
  137OSM   H13T14835   1.359   2.560   3.366
  137OSM   C14S14836   1.441   2.413   3.483
  137OSM   H14S14837   1.532   2.408   3.420
  137OSM   H14T14838   1.415   2.313   3.525
  137OSM   C15S14839   1.465   2.521   3.596
  137OSM   H15S14840   1.368   2.525   3.651
  137OSM   H15T14841   1.494   2.616   3.548
  137OSM   C16S14842   1.560   2.459   3.700
  137OSM   H16S14843   1.650   2.434   3.639
  137OSM   H16T14844   1.517   2.364   3.738
  137OSM   C17S14845   1.598   2.556   3.814
  137OSM   H17S14846   1.510   2.593   3.872
  137OSM   H17T14847   1.641   2.647   3.769
  137OSM   C18S14848   1.696   2.492   3.909
  137OSM   H18S14849   1.666   2.401   3.964
  137OSM   H18T14850   1.722   2.567   3.987
  137OSM   H18U14851   1.784   2.453   3.854
  137OSM    C1F14852   0.618   1.727   2.450
  137OSM     OF14853   0.685   1.649   2.382
  137OSM    C2F14854   0.502   1.692   2.543
  137OSM    H2F14855   0.422   1.638   2.488
  137OSM    H2G14856   0.466   1.787   2.589
  137OSM    C3F14857   0.550   1.605   2.660
  137OSM    H3F14858   0.589   1.511   2.614
  137OSM    H3G14859   0.461   1.573   2.719
  137OSM    C4F14860   0.661   1.655   2.746
  137OSM    H4F14861   0.753   1.667   2.684
  137OSM    H4G14862   0.683   1.584   2.829
  137OSM    C5F14863   0.640   1.791   2.818
  137OSM    H5F14864   0.540   1.780   2.866
  137OSM    H5G14865   0.643   1.874   2.744
  137OSM    C6F14866   0.746   1.811   2.936
  137OSM    H6F14867   0.843   1.845   2.895
  137OSM    H6G14868   0.758   1.714   2.989
  137OSM    C7F14869   0.703   1.910   3.044
  137OSM    H7F14870   0.593   1.926   3.038
  137OSM    H7G14871   0.746   2.013   3.041
  137OSM    C8F14872   0.740   1.848   3.181
  137OSM    H8F14873   0.849   1.828   3.177
  137OSM    H8G14874   0.690   1.751   3.203
  137OSM    C9F14875   0.706   1.943   3.288
  137OSM    H9F14876   0.612   1.909   3.334
  137OSM   C10F14877   0.774   2.043   3.342
  137OSM   H10F14878   0.718   2.106   3.413
  137OSM   C11F14879   0.910   2.099   3.309
  137OSM   H11F14880   0.902   2.208   3.290
  137OSM   H11G14881   0.947   2.042   3.220
  137OSM   C12F14882   1.013   2.093   3.425
  137OSM   H12F14883   1.107   2.121   3.374
  137OSM   H12G14884   1.020   1.989   3.463
  137OSM   C13F14885   0.997   2.199   3.531
  137OSM   H13F14886   0.900   2.195   3.586
  137OSM   H13G14887   0.987   2.291   3.468
  137OSM   C14F14888   1.116   2.190   3.624
  137OSM   H14F14889   1.211   2.199   3.566
  137OSM   H14G14890   1.125   2.090   3.672
  137OSM   C15F14891   1.103   2.286   3.742
  137OSM   H15F14892   1.015   2.260   3.805
  137OSM   H15G14893   1.089   2.387   3.697
  137OSM   C16F14894   1.231   2.294   3.829
  137OSM   H16F14895   1.324   2.299   3.769
  137OSM   H16G14896   1.243   2.196   3.881
  137OSM   C17F14897   1.229   2.409   3.924
  137OSM   H17F14898   1.132   2.419   3.976
  137OSM   H17G14899   1.239   2.508   3.875
  137OSM   C18F14900   1.330   2.398   4.034
  137OSM   H18F14901   1.434   2.415   4.001
  137OSM   H18G14902   1.332   2.296   4.078
  137OSM   H18H14903   1.310   2.474   4.112
  138OSM      N14904   6.457   6.309   2.267
  138OSM    C1514905   6.394   6.433   2.221
  138OSM   H15A14906   6.291   6.421   2.192
  138OSM   H15B14907   6.450   6.477   2.139
  138OSM   H15C14908   6.399   6.508   2.299
  138OSM    C1414909   6.413   6.194   2.188
  138OSM   H14A14910   6.474   6.113   2.226
  138OSM   H14B14911   6.438   6.203   2.083
  138OSM   H14C14912   6.308   6.175   2.206
  138OSM    C1314913   6.606   6.329   2.245
  138OSM   H13A14914   6.662   6.238   2.254
  138OSM   H13B14915   6.648   6.392   2.323
  138OSM   H13C14916   6.628   6.374   2.150
  138OSM    C1214917   6.427   6.276   2.416
  138OSM   H12A14918   6.464   6.362   2.471
  138OSM   H12B14919   6.485   6.191   2.448
  138OSM    C1114920   6.276   6.268   2.443
  138OSM   H11A14921   6.216   6.350   2.396
  138OSM   H11B14922   6.268   6.268   2.554
  138OSM      P14923   6.076   6.121   2.449
  138OSM    O1314924   6.007   6.194   2.346
  138OSM    O1414925   6.046   5.979   2.476
  138OSM    O1114926   6.053   6.206   2.586
  138OSM    O1214927   6.232   6.140   2.423
  138OSM    C1S14928   5.917   6.233   2.624
  138OSM    H1S14929   5.847   6.154   2.590
  138OSM    H1T14930   5.893   6.329   2.574
  138OSM     NF14931   5.766   6.282   2.808
  138OSM    HNF14932   5.736   6.377   2.814
  138OSM    C2S14933   5.901   6.250   2.782
  138OSM    H2S14934   5.918   6.147   2.820
  138OSM    C3S14935   6.002   6.353   2.835
  138OSM    H3S14936   5.985   6.450   2.784
  138OSM     O314937   6.136   6.329   2.799
  138OSM    HO314938   6.125   6.265   2.727
  138OSM    C4S14939   5.994   6.370   2.981
  138OSM    H4S14940   5.957   6.470   3.011
  138OSM    C5S14941   6.017   6.269   3.075
  138OSM    H5S14942   6.046   6.175   3.026
  138OSM    C6S14943   5.997   6.274   3.227
  138OSM    H6S14944   5.946   6.178   3.254
  138OSM    H6T14945   5.931   6.359   3.254
  138OSM    C7S14946   6.126   6.288   3.313
  138OSM    H7S14947   6.194   6.362   3.264
  138OSM    H7T14948   6.163   6.184   3.324
  138OSM    C8S14949   6.096   6.326   3.458
  138OSM    H8S14950   5.997   6.285   3.486
  138OSM    H8T14951   6.072   6.435   3.459
  138OSM    C9S14952   6.201   6.279   3.562
  138OSM    H9S14953   6.295   6.332   3.539
  138OSM    H9T14954   6.217   6.172   3.535
  138OSM   C10S14955   6.158   6.299   3.707
  138OSM   H10S14956   6.047   6.287   3.712
  138OSM   H10T14957   6.176   6.399   3.750
  138OSM   C11S14958   6.224   6.192   3.795
  138OSM   H11S14959   6.331   6.222   3.805
  138OSM   H11T14960   6.219   6.099   3.735
  138OSM   C12S14961   6.149   6.171   3.927
  138OSM   H12S14962   6.062   6.103   3.915
  138OSM   H12T14963   6.118   6.268   3.969
  138OSM   C13S14964   6.248   6.102   4.028
  138OSM   H13S14965   6.278   6.186   4.094
  138OSM   H13T14966   6.342   6.076   3.976
  138OSM   C14S14967   6.190   5.978   4.087
  138OSM   H14S14968   6.127   5.917   4.019
  138OSM   H14T14969   6.112   6.007   4.161
  138OSM   C15S14970   6.291   5.880   4.155
  138OSM   H15S14971   6.390   5.902   4.108
  138OSM   H15T14972   6.267   5.783   4.106
  138OSM   C16S14973   6.290   5.873   4.308
  138OSM   H16S14974   6.192   5.829   4.335
  138OSM   H16T14975   6.285   5.972   4.358
  138OSM   C17S14976   6.409   5.785   4.350
  138OSM   H17S14977   6.509   5.833   4.351
  138OSM   H17T14978   6.421   5.692   4.290
  138OSM   C18S14979   6.407   5.743   4.496
  138OSM   H18S14980   6.467   5.651   4.512
  138OSM   H18T14981   6.298   5.724   4.509
  138OSM   H18U14982   6.445   5.818   4.568
  138OSM    C1F14983   5.678   6.186   2.808
  138OSM     OF14984   5.716   6.067   2.787
  138OSM    C2F14985   5.540   6.226   2.804
  138OSM    H2F14986   5.487   6.189   2.713
  138OSM    H2G14987   5.543   6.337   2.816
  138OSM    C3F14988   5.467   6.147   2.922
  138OSM    H3F14989   5.462   6.038   2.900
  138OSM    H3G14990   5.364   6.186   2.937
  138OSM    C4F14991   5.527   6.173   3.062
  138OSM    H4F14992   5.531   6.280   3.094
  138OSM    H4G14993   5.628   6.132   3.086
  138OSM    C5F14994   5.440   6.106   3.175
  138OSM    H5F14995   5.427   6.000   3.145
  138OSM    H5G14996   5.348   6.168   3.179
  138OSM    C6F14997   5.501   6.096   3.318
  138OSM    H6F14998   5.508   6.199   3.360
  138OSM    H6G14999   5.606   6.061   3.313
  138OSM    C7F15000   5.425   5.988   3.406
  138OSM    H7F15001   5.434   5.891   3.353
  138OSM    H7G15002   5.318   6.015   3.410
  138OSM    C8F15003   5.472   5.977   3.551
  138OSM    H8F15004   5.579   5.948   3.558
  138OSM    H8G15005   5.419   5.890   3.596
  138OSM    C9F15006   5.459   6.094   3.638
  138OSM    H9F15007   5.510   6.188   3.609
  138OSM   C10F15008   5.405   6.093   3.762
  138OSM   H10F15009   5.406   6.187   3.818
  138OSM   C11F15010   5.332   5.978   3.834
  138OSM   H11F15011   5.388   5.883   3.818
  138OSM   H11G15012   5.234   5.958   3.788
  138OSM   C12F15013   5.315   6.025   3.979
  138OSM   H12F15014   5.254   6.117   3.991
  138OSM   H12G15015   5.417   6.043   4.019
  138OSM   C13F15016   5.238   5.922   4.067
  138OSM   H13F15017   5.309   5.841   4.093
  138OSM   H13G15018   5.156   5.880   4.004
  138OSM   C14F15019   5.172   5.983   4.188
  138OSM   H14F15020   5.087   6.047   4.156
  138OSM   H14G15021   5.242   6.055   4.236
  138OSM   C15F15022   5.136   5.873   4.295
  138OSM   H15F15023   5.228   5.814   4.316
  138OSM   H15G15024   5.058   5.819   4.239
  138OSM   C16F15025   5.075   5.927   4.429
  138OSM   H16F15026   4.986   5.992   4.414
  138OSM   H16G15027   5.150   5.992   4.478
  138OSM   C17F15028   5.034   5.821   4.520
  138OSM   H17F15029   5.126   5.768   4.553
  138OSM   H17G15030   4.968   5.742   4.479
  138OSM   C18F15031   4.973   5.874   4.651
  138OSM   H18F15032   4.880   5.934   4.634
  138OSM   H18G15033   5.043   5.936   4.710
  138OSM   H18H15034   4.943   5.783   4.706
  139OSM      N15035   0.763   0.821   1.971
  139OSM    C1515036   0.635   0.780   2.034
  139OSM   H15A15037   0.561   0.766   1.957
  139OSM   H15B15038   0.596   0.845   2.111
  139OSM   H15C15039   0.657   0.691   2.092
  139OSM    C1415040   0.778   0.745   1.841
  139OSM   H14A15041   0.850   0.794   1.777
  139OSM   H14B15042   0.686   0.729   1.787
  139OSM   H14C15043   0.816   0.648   1.869
  139OSM    C1315044   0.738   0.964   1.940
  139OSM   H13A15045   0.774   1.027   2.020
  139OSM   H13B15046   0.642   0.980   1.893
  139OSM   H13C15047   0.789   1.000   1.851
  139OSM    C1215048   0.881   0.814   2.073
  139OSM   H12A15049   0.977   0.846   2.034
  139OSM   H12B15050   0.904   0.711   2.095
  139OSM    C1115051   0.861   0.903   2.201
  139OSM   H11A15052   0.928   0.871   2.284
  139OSM   H11B15053   0.756   0.892   2.237
  139OSM      P15054   1.038   1.091   2.148
  139OSM    O1315055   1.101   0.992   2.053
  139OSM    O1415056   1.045   1.230   2.094
  139OSM    O1115057   1.097   1.079   2.291
  139OSM    O1215058   0.888   1.046   2.169
  139OSM    C1S15059   1.024   1.139   2.402
  139OSM    H1S15060   0.920   1.102   2.401
  139OSM    H1T15061   1.018   1.248   2.379
  139OSM     NF15062   0.992   1.171   2.638
  139OSM    HNF15063   1.021   1.258   2.676
  139OSM    C2S15064   1.085   1.122   2.542
  139OSM    H2S15065   1.090   1.012   2.557
  139OSM    C3S15066   1.231   1.176   2.537
  139OSM    H3S15067   1.236   1.287   2.539
  139OSM     O315068   1.302   1.135   2.422
  139OSM    HO315069   1.235   1.083   2.376
  139OSM    C4S15070   1.301   1.134   2.667
  139OSM    H4S15071   1.368   1.049   2.644
  139OSM    C5S15072   1.299   1.189   2.780
  139OSM    H5S15073   1.239   1.281   2.783
  139OSM    C6S15074   1.359   1.140   2.910
  139OSM    H6S15075   1.461   1.183   2.927
  139OSM    H6T15076   1.373   1.030   2.906
  139OSM    C7S15077   1.271   1.200   3.019
  139OSM    H7S15078   1.170   1.154   3.026
  139OSM    H7T15079   1.264   1.310   3.003
  139OSM    C8S15080   1.342   1.195   3.158
  139OSM    H8S15081   1.435   1.254   3.150
  139OSM    H8T15082   1.360   1.087   3.179
  139OSM    C9S15083   1.265   1.251   3.274
  139OSM    H9S15084   1.162   1.209   3.276
  139OSM    H9T15085   1.256   1.361   3.261
  139OSM   C10S15086   1.336   1.228   3.410
  139OSM   H10S15087   1.441   1.263   3.412
  139OSM   H10T15088   1.324   1.120   3.432
  139OSM   C11S15089   1.252   1.292   3.518
  139OSM   H11S15090   1.158   1.231   3.519
  139OSM   H11T15091   1.223   1.398   3.502
  139OSM   C12S15092   1.321   1.280   3.656
  139OSM   H12S15093   1.379   1.370   3.685
  139OSM   H12T15094   1.383   1.189   3.640
  139OSM   C13S15095   1.227   1.254   3.773
  139OSM   H13S15096   1.290   1.207   3.852
  139OSM   H13T15097   1.152   1.177   3.744
  139OSM   C14S15098   1.153   1.376   3.819
  139OSM   H14S15099   1.073   1.398   3.746
  139OSM   H14T15100   1.222   1.463   3.831
  139OSM   C15S15101   1.084   1.348   3.955
  139OSM   H15S15102   1.065   1.438   4.017
  139OSM   H15T15103   1.156   1.283   4.010
  139OSM   C16S15104   0.944   1.261   3.935
  139OSM   H16S15105   0.967   1.159   3.900
  139OSM   H16T15106   0.896   1.323   3.856
  139OSM   C17S15107   0.847   1.264   4.057
  139OSM   H17S15108   0.882   1.205   4.145
  139OSM   H17T15109   0.750   1.221   4.025
  139OSM   C18S15110   0.812   1.406   4.107
  139OSM   H18S15111   0.819   1.483   4.027
  139OSM   H18T15112   0.887   1.440   4.182
  139OSM   H18U15113   0.710   1.398   4.150
  139OSM    C1F15114   0.875   1.111   2.670
  139OSM     OF15115   0.839   1.006   2.620
  139OSM    C2F15116   0.790   1.191   2.773
  139OSM    H2F15117   0.705   1.124   2.800
  139OSM    H2G15118   0.747   1.274   2.712
  139OSM    C3F15119   0.864   1.234   2.903
  139OSM    H3F15120   0.948   1.301   2.873
  139OSM    H3G15121   0.905   1.141   2.947
  139OSM    C4F15122   0.779   1.316   2.998
  139OSM    H4F15123   0.709   1.243   3.043
  139OSM    H4G15124   0.724   1.398   2.945
  139OSM    C5F15125   0.860   1.392   3.097
  139OSM    H5F15126   0.897   1.491   3.064
  139OSM    H5G15127   0.953   1.334   3.117
  139OSM    C6F15128   0.784   1.410   3.230
  139OSM    H6F15129   0.756   1.305   3.257
  139OSM    H6G15130   0.697   1.472   3.199
  139OSM    C7F15131   0.856   1.483   3.345
  139OSM    H7F15132   0.905   1.572   3.299
  139OSM    H7G15133   0.936   1.413   3.377
  139OSM    C8F15134   0.774   1.498   3.470
  139OSM    H8F15135   0.706   1.410   3.479
  139OSM    H8G15136   0.698   1.579   3.470
  139OSM    C9F15137   0.863   1.515   3.590
  139OSM    H9F15138   0.916   1.424   3.622
  139OSM   C10F15139   0.879   1.627   3.665
  139OSM   H10F15140   0.942   1.616   3.755
  139OSM   C11F15141   0.819   1.763   3.654
  139OSM   H11F15142   0.741   1.772   3.575
  139OSM   H11G15143   0.886   1.846   3.623
  139OSM   C12F15144   0.728   1.804   3.781
  139OSM   H12F15145   0.794   1.789   3.870
  139OSM   H12G15146   0.642   1.736   3.797
  139OSM   C13F15147   0.675   1.944   3.776
  139OSM   H13F15148   0.609   1.950   3.686
  139OSM   H13G15149   0.762   2.012   3.788
  139OSM   C14F15150   0.581   1.971   3.892
  139OSM   H14F15151   0.494   1.902   3.890
  139OSM   H14G15152   0.544   2.076   3.887
  139OSM   C15F15153   0.642   1.953   4.029
  139OSM   H15F15154   0.730   2.020   4.039
  139OSM   H15G15155   0.671   1.849   4.058
  139OSM   C16F15156   0.542   1.992   4.138
  139OSM   H16F15157   0.441   1.958   4.106
  139OSM   H16G15158   0.529   2.101   4.158
  139OSM   C17F15159   0.574   1.926   4.271
  139OSM   H17F15160   0.592   1.817   4.259
  139OSM   H17G15161   0.487   1.939   4.339
  139OSM   C18F15162   0.696   1.982   4.331
  139OSM   H18F15163   0.685   2.092   4.339
  139OSM   H18G15164   0.792   1.957   4.280
  139OSM   H18H15165   0.709   1.956   4.439
  140OSM      N15166   4.729   6.711   1.912
  140OSM    C1515167   4.594   6.737   1.843
  140OSM   H15A15168   4.604   6.801   1.756
  140OSM   H15B15169   4.520   6.780   1.908
  140OSM   H15C15170   4.562   6.643   1.800
  140OSM    C1415171   4.782   6.839   1.963
  140OSM   H14A15172   4.813   0.044   1.878
  140OSM   H14B15173   4.873   6.836   2.021
  140OSM   H14C15174   4.716   0.042   2.027
  140OSM    C1315175   4.707   6.620   2.030
  140OSM   H13A15176   4.641   6.669   2.101
  140OSM   H13B15177   4.803   6.603   2.077
  140OSM   H13C15178   4.666   6.524   2.004
  140OSM    C1215179   4.819   6.664   1.805
  140OSM   H12A15180   4.817   6.732   1.721
  140OSM   H12B15181   4.770   6.578   1.761
  140OSM    C1115182   4.962   6.625   1.853
  140OSM   H11A15183   5.015   6.588   1.763
  140OSM   H11B15184   4.953   6.541   1.925
  140OSM      P15185   5.185   6.715   1.952
  140OSM    O1315186   5.229   6.587   1.908
  140OSM    O1415187   5.273   6.827   1.908
  140OSM    O1115188   5.175   6.719   2.113
  140OSM    O1215189   5.035   6.735   1.907
  140OSM    C1S15190   5.109   6.619   2.180
  140OSM    H1S15191   5.167   6.524   2.172
  140OSM    H1T15192   5.015   6.575   2.140
  140OSM     NF15193   5.050   6.549   2.408
  140OSM    HNF15194   4.955   6.518   2.414
  140OSM    C2S15195   5.079   6.663   2.323
  140OSM    H2S15196   5.167   6.719   2.363
  140OSM    C3S15197   4.961   6.757   2.328
  140OSM    H3S15198   4.871   6.698   2.299
  140OSM     O315199   4.967   0.006   2.236
  140OSM    HO315200   5.023   6.820   2.169
  140OSM    C4S15201   4.936   6.813   2.468
  140OSM    H4S15202   4.883   6.751   2.541
  140OSM    C5S15203   4.977   0.078   2.511
  140OSM    H5S15204   5.023   0.150   2.442
  140OSM    C6S15205   4.969   0.126   2.657
  140OSM    H6S15206   4.870   0.102   2.700
  140OSM    H6T15207   4.979   0.236   2.673
  140OSM    C7S15208   5.083   0.056   2.738
  140OSM    H7S15209   5.181   0.093   2.701
  140OSM    H7T15210   5.076   6.799   2.740
  140OSM    C8S15211   5.075   0.089   2.887
  140OSM    H8S15212   5.152   0.029   2.938
  140OSM    H8T15213   4.975   0.062   2.927
  140OSM    C9S15214   5.104   0.236   2.919
  140OSM    H9S15215   5.036   0.301   2.860
  140OSM    H9T15216   5.204   0.268   2.883
  140OSM   C10S15217   5.090   0.259   3.069
  140OSM   H10S15218   4.984   0.235   3.091
  140OSM   H10T15219   5.104   0.366   3.097
  140OSM   C11S15220   5.172   0.168   3.162
  140OSM   H11S15221   5.276   0.186   3.125
  140OSM   H11T15222   5.155   0.061   3.137
  140OSM   C12S15223   5.151   0.189   3.307
  140OSM   H12S15224   5.181   0.293   3.328
  140OSM   H12T15225   5.214   0.109   3.351
  140OSM   C13S15226   5.009   0.170   3.359
  140OSM   H13S15227   4.981   0.076   3.307
  140OSM   H13T15228   4.947   0.245   3.305
  140OSM   C14S15229   4.993   0.172   3.510
  140OSM   H14S15230   5.038   0.080   3.554
  140OSM   H14T15231   4.886   0.173   3.539
  140OSM   C15S15232   5.072   0.290   3.576
  140OSM   H15S15233   5.082   0.373   3.503
  140OSM   H15T15234   5.170   0.248   3.606
  140OSM   C16S15235   4.993   0.361   3.693
  140OSM   H16S15236   4.950   0.268   3.738
  140OSM   H16T15237   4.912   0.431   3.662
  140OSM   C17S15238   5.075   0.448   3.785
  140OSM   H17S15239   5.116   0.535   3.729
  140OSM   H17T15240   5.156   0.380   3.821
  140OSM   C18S15241   4.997   0.504   3.903
  140OSM   H18S15242   4.938   0.420   3.944
  140OSM   H18T15243   4.928   0.573   3.851
  140OSM   H18U15244   5.068   0.551   3.975
  140OSM    C1F15245   5.151   6.464   2.454
  140OSM     OF15246   5.261   6.459   2.398
  140OSM    C2F15247   5.120   6.406   2.584
  140OSM    H2F15248   5.161   6.303   2.572
  140OSM    H2G15249   5.012   6.398   2.609
  140OSM    C3F15250   5.189   6.480   2.699
  140OSM    H3F15251   5.165   6.588   2.693
  140OSM    H3G15252   5.297   6.464   2.677
  140OSM    C4F15253   5.153   6.421   2.826
  140OSM    H4F15254   5.170   6.311   2.825
  140OSM    H4G15255   5.047   6.425   2.861
  140OSM    C5F15256   5.241   6.499   2.939
  140OSM    H5F15257   5.204   6.604   2.935
  140OSM    H5G15258   5.348   6.491   2.914
  140OSM    C6F15259   5.195   6.454   3.080
  140OSM    H6F15260   5.241   6.353   3.086
  140OSM    H6G15261   5.086   6.437   3.083
  140OSM    C7F15262   5.254   6.534   3.192
  140OSM    H7F15263   5.219   6.639   3.183
  140OSM    H7G15264   5.364   6.520   3.186
  140OSM    C8F15265   5.204   6.483   3.334
  140OSM    H8F15266   5.272   6.399   3.362
  140OSM    H8G15267   5.108   6.431   3.312
  140OSM    C9F15268   5.193   6.590   3.435
  140OSM    H9F15269   5.207   6.694   3.400
  140OSM   C10F15270   5.160   6.564   3.567
  140OSM   H10F15271   5.142   6.651   3.632
  140OSM   C11F15272   5.116   6.428   3.627
  140OSM   H11F15273   5.154   6.342   3.567
  140OSM   H11G15274   5.005   6.421   3.635
  140OSM   C12F15275   5.173   6.407   3.767
  140OSM   H12F15276   5.280   6.436   3.764
  140OSM   H12G15277   5.176   6.297   3.783
  140OSM   C13F15278   5.080   6.464   3.873
  140OSM   H13F15279   4.979   6.419   3.860
  140OSM   H13G15280   5.073   6.572   3.844
  140OSM   C14F15281   5.129   6.436   4.010
  140OSM   H14F15282   5.236   6.464   4.016
  140OSM   H14G15283   5.133   6.325   4.021
  140OSM   C15F15284   5.054   6.505   4.122
  140OSM   H15F15285   5.023   6.605   4.086
  140OSM   H15G15286   5.114   6.527   4.213
  140OSM   C16F15287   4.928   6.433   4.173
  140OSM   H16F15288   4.870   6.384   4.092
  140OSM   H16G15289   4.857   6.508   4.214
  140OSM   C17F15290   4.960   6.334   4.290
  140OSM   H17F15291   5.016   6.389   4.370
  140OSM   H17G15292   5.029   6.251   4.265
  140OSM   C18F15293   4.825   6.278   4.347
  140OSM   H18F15294   4.776   6.224   4.264
  140OSM   H18G15295   4.769   6.367   4.382
  140OSM   H18H15296   4.841   6.204   4.429
  141OSM      N15297   0.981   3.622   1.867
  141OSM    C1515298   0.980   3.675   1.726
  141OSM   H15A15299   1.081   3.691   1.692
  141OSM   H15B15300   0.911   3.758   1.715
  141OSM   H15C15301   0.929   3.604   1.663
  141OSM    C1415302   1.029   3.485   1.868
  141OSM   H14A15303   1.130   3.481   1.830
  141OSM   H14B15304   0.955   3.422   1.820
  141OSM   H14C15305   1.030   3.443   1.968
  141OSM    C1315306   1.071   3.708   1.948
  141OSM   H13A15307   1.025   3.805   1.965
  141OSM   H13B15308   1.167   3.728   1.903
  141OSM   H13C15309   1.092   3.651   2.037
  141OSM    C1215310   0.846   3.631   1.922
  141OSM   H12A15311   0.788   3.557   1.867
  141OSM   H12B15312   0.796   3.726   1.910
  141OSM    C1115313   0.830   3.583   2.075
  141OSM   H11A15314   0.865   3.478   2.083
  141OSM   H11B15315   0.723   3.584   2.106
  141OSM      P15316   0.878   3.799   2.212
  141OSM    O1315317   0.976   3.833   2.320
  141OSM    O1415318   0.880   3.884   2.093
  141OSM    O1115319   0.735   3.793   2.285
  141OSM    O1215320   0.909   3.653   2.168
  141OSM    C1S15321   0.718   3.691   2.387
  141OSM    H1S15322   0.791   3.610   2.367
  141OSM    H1T15323   0.615   3.649   2.392
  141OSM     NF15324   0.744   3.638   2.626
  141OSM    HNF15325   0.656   3.622   2.670
  141OSM    C2S15326   0.750   3.747   2.530
  141OSM    H2S15327   0.851   3.794   2.526
  141OSM    C3S15328   0.643   3.855   2.553
  141OSM    H3S15329   0.545   3.801   2.551
  141OSM     O315330   0.625   3.946   2.445
  141OSM    HO315331   0.643   3.897   2.365
  141OSM    C4S15332   0.647   3.930   2.691
  141OSM    H4S15333   0.562   3.907   2.758
  141OSM    C5S15334   0.728   4.033   2.723
  141OSM    H5S15335   0.806   4.073   2.656
  141OSM    C6S15336   0.726   4.112   2.850
  141OSM    H6S15337   0.639   4.181   2.849
  141OSM    H6T15338   0.807   4.188   2.852
  141OSM    C7S15339   0.736   4.024   2.976
  141OSM    H7S15340   0.831   3.966   2.979
  141OSM    H7T15341   0.647   3.957   2.975
  141OSM    C8S15342   0.740   4.097   3.113
  141OSM    H8S15343   0.652   4.164   3.127
  141OSM    H8T15344   0.829   4.160   3.095
  141OSM    C9S15345   0.759   3.997   3.228
  141OSM    H9S15346   0.847   3.931   3.209
  141OSM    H9T15347   0.673   3.936   3.263
  141OSM   C10S15348   0.816   4.064   3.357
  141OSM   H10S15349   0.733   4.120   3.403
  141OSM   H10T15350   0.891   4.143   3.336
  141OSM   C11S15351   0.858   3.966   3.469
  141OSM   H11S15352   0.934   4.025   3.526
  141OSM   H11T15353   0.906   3.876   3.423
  141OSM   C12S15354   0.748   3.909   3.566
  141OSM   H12S15355   0.779   3.803   3.580
  141OSM   H12T15356   0.652   3.915   3.511
  141OSM   C13S15357   0.735   3.975   3.700
  141OSM   H13S15358   0.697   4.076   3.675
  141OSM   H13T15359   0.836   3.982   3.745
  141OSM   C14S15360   0.634   3.924   3.804
  141OSM   H14S15361   0.640   3.991   3.892
  141OSM   H14T15362   0.653   3.818   3.831
  141OSM   C15S15363   0.480   3.912   3.763
  141OSM   H15S15364   0.459   3.811   3.724
  141OSM   H15T15365   0.466   3.984   3.680
  141OSM   C16S15366   0.380   3.938   3.878
  141OSM   H16S15367   0.385   4.045   3.910
  141OSM   H16T15368   0.409   3.871   3.962
  141OSM   C17S15369   0.230   3.928   3.838
  141OSM   H17S15370   0.225   3.827   3.791
  141OSM   H17T15371   0.192   3.990   3.754
  141OSM   C18S15372   0.137   3.932   3.955
  141OSM   H18S15373   0.131   4.034   3.997
  141OSM   H18T15374   0.192   3.880   4.037
  141OSM   H18U15375   0.041   3.880   3.937
  141OSM    C1F15376   0.835   3.546   2.637
  141OSM     OF15377   0.936   3.546   2.560
  141OSM    C2F15378   0.823   3.450   2.753
  141OSM    H2F15379   0.771   3.360   2.714
  141OSM    H2G15380   0.772   3.499   2.839
  141OSM    C3F15381   0.959   3.412   2.814
  141OSM    H3F15382   1.024   3.404   2.724
  141OSM    H3G15383   0.960   3.322   2.879
  141OSM    C4F15384   1.018   3.533   2.894
  141OSM    H4F15385   0.936   3.584   2.950
  141OSM    H4G15386   1.068   3.608   2.828
  141OSM    C5F15387   1.124   3.496   3.001
  141OSM    H5F15388   1.226   3.486   2.956
  141OSM    H5G15389   1.102   3.407   3.064
  141OSM    C6F15390   1.131   3.598   3.120
  141OSM    H6F15391   1.029   3.625   3.156
  141OSM    H6G15392   1.182   3.685   3.073
  141OSM    C7F15393   1.230   3.565   3.233
  141OSM    H7F15394   1.238   3.655   3.296
  141OSM    H7G15395   1.329   3.539   3.190
  141OSM    C8F15396   1.177   3.466   3.337
  141OSM    H8F15397   1.166   3.360   3.305
  141OSM    H8G15398   1.068   3.490   3.342
  141OSM    C9F15399   1.251   3.477   3.470
  141OSM    H9F15400   1.339   3.411   3.479
  141OSM   C10F15401   1.217   3.562   3.567
  141OSM   H10F15402   1.280   3.559   3.658
  141OSM   C11F15403   1.088   3.649   3.568
  141OSM   H11F15404   1.005   3.599   3.513
  141OSM   H11G15405   1.108   3.740   3.509
  141OSM   C12F15406   1.035   3.697   3.701
  141OSM   H12F15407   0.991   3.608   3.751
  141OSM   H12G15408   0.963   3.781   3.690
  141OSM   C13F15409   1.149   3.753   3.791
  141OSM   H13F15410   1.209   3.832   3.740
  141OSM   H13G15411   1.214   3.671   3.826
  141OSM   C14F15412   1.083   3.813   3.913
  141OSM   H14F15413   1.002   3.749   3.955
  141OSM   H14G15414   1.041   3.912   3.888
  141OSM   C15F15415   1.187   3.828   4.029
  141OSM   H15F15416   1.280   3.876   3.993
  141OSM   H15G15417   1.215   3.727   4.066
  141OSM   C16F15418   1.133   3.903   4.149
  141OSM   H16F15419   1.098   4.005   4.123
  141OSM   H16G15420   1.213   3.917   4.225
  141OSM   C17F15421   1.019   3.826   4.217
  141OSM   H17F15422   1.047   3.720   4.232
  141OSM   H17G15423   0.923   3.824   4.160
  141OSM   C18F15424   0.990   3.888   4.357
  141OSM   H18F15425   1.084   3.892   4.417
  141OSM   H18G15426   0.907   3.836   4.410
  141OSM   H18H15427   0.960   3.993   4.340
  142OSM      N15428   1.652   5.464   1.924
  142OSM    C1515429   1.655   5.553   2.048
  142OSM   H15A15430   1.686   5.495   2.134
  142OSM   H15B15431   1.559   5.599   2.060
  142OSM   H15C15432   1.739   5.620   2.039
  142OSM    C1415433   1.516   5.417   1.883
  142OSM   H14A15434   1.521   5.360   1.791
  142OSM   H14B15435   1.454   5.503   1.863
  142OSM   H14C15436   1.459   5.362   1.956
  142OSM    C1315437   1.720   5.530   1.812
  142OSM   H13A15438   1.826   5.508   1.810
  142OSM   H13B15439   1.697   5.634   1.793
  142OSM   H13C15440   1.696   5.476   1.721
  142OSM    C1215441   1.734   5.340   1.952
  142OSM   H12A15442   1.832   5.372   1.984
  142OSM   H12B15443   1.746   5.276   1.865
  142OSM    C1115444   1.675   5.236   2.051
  142OSM   H11A15445   1.747   5.151   2.052
  142OSM   H11B15446   1.578   5.195   2.013
  142OSM      P15447   1.576   5.207   2.293
  142OSM    O1315448   1.505   5.301   2.381
  142OSM    O1415449   1.499   5.110   2.217
  142OSM    O1115450   1.689   5.136   2.377
  142OSM    O1215451   1.667   5.282   2.182
  142OSM    C1S15452   1.814   5.201   2.417
  142OSM    H1S15453   1.821   5.308   2.386
  142OSM    H1T15454   1.902   5.168   2.359
  142OSM     NF15455   1.938   5.276   2.620
  142OSM    HNF15456   2.001   5.222   2.675
  142OSM    C2S15457   1.818   5.202   2.578
  142OSM    H2S15458   1.731   5.262   2.613
  142OSM    C3S15459   1.807   5.057   2.637
  142OSM    H3S15460   1.904   5.005   2.627
  142OSM     O315461   1.715   4.962   2.574
  142OSM    HO315462   1.699   4.992   2.484
  142OSM    C4S15463   1.774   5.078   2.783
  142OSM    H4S15464   1.864   5.073   2.846
  142OSM    C5S15465   1.653   5.123   2.828
  142OSM    H5S15466   1.572   5.141   2.755
  142OSM    C6S15467   1.633   5.160   2.976
  142OSM    H6S15468   1.721   5.218   3.010
  142OSM    H6T15469   1.618   5.070   3.039
  142OSM    C7S15470   1.508   5.252   2.973
  142OSM    H7S15471   1.419   5.202   2.929
  142OSM    H7T15472   1.530   5.349   2.922
  142OSM    C8S15473   1.470   5.300   3.118
  142OSM    H8S15474   1.439   5.208   3.172
  142OSM    H8T15475   1.380   5.365   3.109
  142OSM    C9S15476   1.583   5.375   3.183
  142OSM    H9S15477   1.606   5.471   3.132
  142OSM    H9T15478   1.682   5.326   3.190
  142OSM   C10S15479   1.539   5.414   3.320
  142OSM   H10S15480   1.429   5.406   3.330
  142OSM   H10T15481   1.567   5.521   3.331
  142OSM   C11S15482   1.572   5.327   3.446
  142OSM   H11S15483   1.683   5.326   3.452
  142OSM   H11T15484   1.533   5.227   3.418
  142OSM   C12S15485   1.501   5.368   3.576
  142OSM   H12S15486   1.402   5.320   3.589
  142OSM   H12T15487   1.475   5.475   3.563
  142OSM   C13S15488   1.591   5.344   3.694
  142OSM   H13S15489   1.686   5.399   3.678
  142OSM   H13T15490   1.606   5.235   3.708
  142OSM   C14S15491   1.541   5.411   3.830
  142OSM   H14S15492   1.431   5.401   3.838
  142OSM   H14T15493   1.555   5.521   3.824
  142OSM   C15S15494   1.622   5.366   3.957
  142OSM   H15S15495   1.730   5.373   3.933
  142OSM   H15T15496   1.598   5.258   3.967
  142OSM   C16S15497   1.585   5.453   4.083
  142OSM   H16S15498   1.480   5.435   4.115
  142OSM   H16T15499   1.601   5.563   4.071
  142OSM   C17S15500   1.686   5.417   4.194
  142OSM   H17S15501   1.651   5.482   4.276
  142OSM   H17T15502   1.787   5.456   4.168
  142OSM   C18S15503   1.684   5.267   4.224
  142OSM   H18S15504   1.738   5.218   4.140
  142OSM   H18T15505   1.579   5.232   4.235
  142OSM   H18U15506   1.733   5.236   4.319
  142OSM    C1F15507   1.949   5.412   2.592
  142OSM     OF15508   1.858   5.479   2.542
  142OSM    C2F15509   2.082   5.469   2.625
  142OSM    H2F15510   2.164   5.428   2.561
  142OSM    H2G15511   2.117   5.431   2.723
  142OSM    C3F15512   2.080   5.623   2.618
  142OSM    H3F15513   2.061   5.652   2.512
  142OSM    H3G15514   2.185   5.656   2.630
  142OSM    C4F15515   2.002   5.702   2.724
  142OSM    H4F15516   1.897   5.710   2.687
  142OSM    H4G15517   2.047   5.803   2.732
  142OSM    C5F15518   1.994   5.637   2.867
  142OSM    H5F15519   2.097   5.644   2.909
  142OSM    H5G15520   1.959   5.532   2.858
  142OSM    C6F15521   1.918   5.710   2.975
  142OSM    H6F15522   1.809   5.700   2.959
  142OSM    H6G15523   1.930   5.819   2.992
  142OSM    C7F15524   1.923   5.644   3.110
  142OSM    H7F15525   2.029   5.638   3.145
  142OSM    H7G15526   1.890   5.540   3.091
  142OSM    C8F15527   1.850   5.717   3.226
  142OSM    H8F15528   1.740   5.704   3.219
  142OSM    H8G15529   1.864   5.828   3.224
  142OSM    C9F15530   1.887   5.668   3.350
  142OSM    H9F15531   1.993   5.641   3.346
  142OSM   C10F15532   1.813   5.666   3.461
  142OSM   H10F15533   1.846   5.623   3.556
  142OSM   C11F15534   1.681   5.726   3.500
  142OSM   H11F15535   1.600   5.656   3.527
  142OSM   H11G15536   1.644   5.798   3.423
  142OSM   C12F15537   1.690   5.821   3.627
  142OSM   H12F15538   1.599   5.883   3.640
  142OSM   H12G15539   1.764   5.902   3.611
  142OSM   C13F15540   1.712   5.761   3.762
  142OSM   H13F15541   1.801   5.696   3.752
  142OSM   H13G15542   1.624   5.698   3.786
  142OSM   C14F15543   1.746   5.857   3.884
  142OSM   H14F15544   1.716   5.803   3.976
  142OSM   H14G15545   1.684   5.949   3.879
  142OSM   C15F15546   1.897   5.896   3.886
  142OSM   H15F15547   1.900   6.006   3.899
  142OSM   H15G15548   1.947   5.874   3.790
  142OSM   C16F15549   1.964   5.833   4.014
  142OSM   H16F15550   2.062   5.793   3.980
  142OSM   H16G15551   1.902   5.744   4.041
  142OSM   C17F15552   1.982   5.913   4.145
  142OSM   H17F15553   1.886   5.933   4.195
  142OSM   H17G15554   2.023   6.014   4.123
  142OSM   C18F15555   2.074   5.843   4.244
  142OSM   H18F15556   2.082   5.897   4.341
  142OSM   H18G15557   2.169   5.842   4.187
  142OSM   H18H15558   2.039   5.738   4.252
  143OSM      N15559   1.169   4.148   2.143
  143OSM    C1515560   1.287   4.221   2.083
  143OSM   H15A15561   1.260   4.302   2.017
  143OSM   H15B15562   1.357   4.159   2.030
  143OSM   H15C15563   1.349   4.265   2.160
  143OSM    C1415564   1.089   4.104   2.030
  143OSM   H14A15565   1.147   4.042   1.964
  143OSM   H14B15566   1.068   4.186   1.963
  143OSM   H14C15567   1.001   4.046   2.054
  143OSM    C1315568   1.193   4.026   2.223
  143OSM   H13A15569   1.103   3.976   2.256
  143OSM   H13B15570   1.250   4.055   2.310
  143OSM   H13C15571   1.252   3.952   2.173
  143OSM    C1215572   1.088   4.245   2.229
  143OSM   H12A15573   0.995   4.202   2.261
  143OSM   H12B15574   1.051   4.321   2.162
  143OSM    C1115575   1.152   4.321   2.348
  143OSM   H11A15576   1.175   4.251   2.431
  143OSM   H11B15577   1.073   4.385   2.392
  143OSM      P15578   1.264   4.537   2.256
  143OSM    O1315579   1.372   4.541   2.153
  143OSM    O1415580   1.125   4.569   2.206
  143OSM    O1115581   1.304   4.631   2.375
  143OSM    O1215582   1.272   4.394   2.325
  143OSM    C1S15583   1.242   4.632   2.504
  143OSM    H1S15584   1.142   4.583   2.508
  143OSM    H1T15585   1.228   4.734   2.544
  143OSM     NF15586   1.278   4.560   2.737
  143OSM    HNF15587   1.289   4.645   2.789
  143OSM    C2S15588   1.338   4.553   2.605
  143OSM    H2S15589   1.350   4.447   2.575
  143OSM    C3S15590   1.484   4.613   2.595
  143OSM    H3S15591   1.465   4.722   2.580
  143OSM     O315592   1.558   4.573   2.483
  143OSM    HO315593   1.514   4.502   2.435
  143OSM    C4S15594   1.567   4.579   2.708
  143OSM    H4S15595   1.562   4.472   2.736
  143OSM    C5S15596   1.642   4.669   2.778
  143OSM    H5S15597   1.638   4.775   2.747
  143OSM    C6S15598   1.738   4.649   2.894
  143OSM    H6S15599   1.728   4.730   2.969
  143OSM    H6T15600   1.839   4.643   2.847
  143OSM    C7S15601   1.728   4.509   2.962
  143OSM    H7S15602   1.739   4.435   2.879
  143OSM    H7T15603   1.625   4.499   3.005
  143OSM    C8S15604   1.820   4.490   3.077
  143OSM    H8S15605   1.926   4.489   3.045
  143OSM    H8T15606   1.810   4.388   3.121
  143OSM    C9S15607   1.801   4.588   3.191
  143OSM    H9S15608   1.697   4.597   3.228
  143OSM    H9T15609   1.845   4.681   3.147
  143OSM   C10S15610   1.890   4.553   3.313
  143OSM   H10S15611   1.993   4.544   3.273
  143OSM   H10T15612   1.853   4.464   3.369
  143OSM   C11S15613   1.884   4.673   3.410
  143OSM   H11S15614   1.777   4.701   3.422
  143OSM   H11T15615   1.931   4.756   3.354
  143OSM   C12S15616   1.923   4.641   3.554
  143OSM   H12S15617   2.032   4.641   3.577
  143OSM   H12T15618   1.897   4.534   3.572
  143OSM   C13S15619   1.856   4.723   3.662
  143OSM   H13S15620   1.747   4.705   3.665
  143OSM   H13T15621   1.866   4.832   3.640
  143OSM   C14S15622   1.914   4.697   3.803
  143OSM   H14S15623   2.024   4.711   3.816
  143OSM   H14T15624   1.896   4.588   3.815
  143OSM   C15S15625   1.837   4.783   3.904
  143OSM   H15S15626   1.729   4.761   3.889
  143OSM   H15T15627   1.849   4.891   3.883
  143OSM   C16S15628   1.869   4.760   4.051
  143OSM   H16S15629   1.886   4.855   4.107
  143OSM   H16T15630   1.967   4.709   4.060
  143OSM   C17S15631   1.766   4.685   4.131
  143OSM   H17S15632   1.804   4.657   4.232
  143OSM   H17T15633   1.738   4.596   4.070
  143OSM   C18S15634   1.640   4.767   4.159
  143OSM   H18S15635   1.582   4.786   4.066
  143OSM   H18T15636   1.655   4.864   4.211
  143OSM   H18U15637   1.582   4.701   4.228
  143OSM    C1F15638   1.181   4.477   2.770
  143OSM     OF15639   1.153   4.376   2.703
  143OSM    C2F15640   1.107   4.518   2.897
  143OSM    H2F15641   1.067   4.621   2.888
  143OSM    H2G15642   1.181   4.513   2.979
  143OSM    C3F15643   0.986   4.423   2.928
  143OSM    H3F15644   1.026   4.319   2.920
  143OSM    H3G15645   0.919   4.447   2.843
  143OSM    C4F15646   0.902   4.461   3.055
  143OSM    H4F15647   0.811   4.398   3.058
  143OSM    H4G15648   0.870   4.568   3.052
  143OSM    C5F15649   0.970   4.440   3.186
  143OSM    H5F15650   1.063   4.501   3.183
  143OSM    H5G15651   1.012   4.338   3.200
  143OSM    C6F15652   0.891   4.490   3.308
  143OSM    H6F15653   0.800   4.427   3.322
  143OSM    H6G15654   0.859   4.596   3.300
  143OSM    C7F15655   0.978   4.487   3.443
  143OSM    H7F15656   1.073   4.543   3.432
  143OSM    H7G15657   1.006   4.381   3.464
  143OSM    C8F15658   0.891   4.524   3.563
  143OSM    H8F15659   0.824   4.438   3.584
  143OSM    H8G15660   0.824   4.612   3.549
  143OSM    C9F15661   0.981   4.561   3.682
  143OSM    H9F15662   1.044   4.649   3.662
  143OSM   C10F15663   0.971   4.504   3.803
  143OSM   H10F15664   1.047   4.528   3.879
  143OSM   C11F15665   0.874   4.399   3.841
  143OSM   H11F15666   0.918   4.303   3.807
  143OSM   H11G15667   0.775   4.409   3.793
  143OSM   C12F15668   0.832   4.388   3.989
  143OSM   H12F15669   0.779   4.481   4.018
  143OSM   H12G15670   0.932   4.395   4.039
  143OSM   C13F15671   0.745   4.269   4.020
  143OSM   H13F15672   0.808   4.181   3.996
  143OSM   H13G15673   0.654   4.268   3.956
  143OSM   C14F15674   0.693   4.265   4.168
  143OSM   H14F15675   0.644   4.363   4.184
  143OSM   H14G15676   0.783   4.248   4.231
  143OSM   C15F15677   0.584   4.160   4.197
  143OSM   H15F15678   0.506   4.179   4.120
  143OSM   H15G15679   0.537   4.183   4.295
  143OSM   C16F15680   0.623   4.010   4.212
  143OSM   H16F15681   0.699   3.997   4.293
  143OSM   H16G15682   0.667   3.978   4.115
  143OSM   C17F15683   0.510   3.907   4.249
  143OSM   H17F15684   0.553   3.805   4.253
  143OSM   H17G15685   0.432   3.894   4.170
  143OSM   C18F15686   0.439   3.947   4.380
  143OSM   H18F15687   0.366   3.875   4.422
  143OSM   H18G15688   0.395   4.049   4.371
  143OSM   H18H15689   0.513   3.961   4.461
  144OSM      N15690   0.655   5.535   2.035
  144OSM    C1515691   0.663   5.665   1.967
  144OSM   H15A15692   0.767   5.686   1.946
  144OSM   H15B15693   0.623   5.743   2.030
  144OSM   H15C15694   0.619   5.675   1.868
  144OSM    C1415695   0.653   5.553   2.184
  144OSM   H14A15696   0.651   5.456   2.232
  144OSM   H14B15697   0.583   5.628   2.219
  144OSM   H14C15698   0.753   5.585   2.210
  144OSM    C1315699   0.523   5.478   1.988
  144OSM   H13A15700   0.526   5.444   1.885
  144OSM   H13B15701   0.441   5.545   2.008
  144OSM   H13C15702   0.497   5.386   2.040
  144OSM    C1215703   0.766   5.441   1.996
  144OSM   H12A15704   0.860   5.490   2.019
  144OSM   H12B15705   0.756   5.423   1.890
  144OSM    C1115706   0.766   5.299   2.047
  144OSM   H11A15707   0.862   5.249   2.019
  144OSM   H11B15708   0.683   5.244   1.999
  144OSM      P15709   0.789   5.165   2.275
  144OSM    O1315710   0.668   5.086   2.267
  144OSM    O1415711   0.919   5.106   2.243
  144OSM    O1115712   0.803   5.225   2.425
  144OSM    O1215713   0.766   5.296   2.189
  144OSM    C1S15714   0.774   5.365   2.442
  144OSM    H1S15715   0.676   5.399   2.402
  144OSM    H1T15716   0.851   5.425   2.389
  144OSM     NF15717   0.775   5.554   2.620
  144OSM    HNF15718   0.854   5.610   2.647
  144OSM    C2S15719   0.793   5.413   2.597
  144OSM    H2S15720   0.715   5.359   2.655
  144OSM    C3S15721   0.932   5.372   2.650
  144OSM    H3S15722   0.994   5.435   2.583
  144OSM     O315723   0.974   5.238   2.627
  144OSM    HO315724   0.911   5.204   2.564
  144OSM    C4S15725   0.945   5.403   2.799
  144OSM    H4S15726   1.010   5.490   2.815
  144OSM    C5S15727   0.903   5.326   2.901
  144OSM    H5S15728   0.858   5.229   2.878
  144OSM    C6S15729   0.932   5.352   3.044
  144OSM    H6S15730   0.902   5.270   3.112
  144OSM    H6T15731   0.887   5.441   3.093
  144OSM    C7S15732   1.086   5.371   3.073
  144OSM    H7S15733   1.127   5.431   2.989
  144OSM    H7T15734   1.131   5.272   3.052
  144OSM    C8S15735   1.117   5.451   3.202
  144OSM    H8S15736   1.117   5.562   3.192
  144OSM    H8T15737   1.222   5.421   3.222
  144OSM    C9S15738   1.025   5.418   3.322
  144OSM    H9S15739   0.985   5.317   3.299
  144OSM    H9T15740   0.945   5.494   3.331
  144OSM   C10S15741   1.088   5.428   3.459
  144OSM   H10S15742   1.119   5.532   3.485
  144OSM   H10T15743   1.174   5.359   3.467
  144OSM   C11S15744   0.993   5.389   3.575
  144OSM   H11S15745   1.047   5.377   3.671
  144OSM   H11T15746   0.958   5.287   3.547
  144OSM   C12S15747   0.886   5.497   3.602
  144OSM   H12S15748   0.821   5.514   3.513
  144OSM   H12T15749   0.930   5.591   3.642
  144OSM   C13S15750   0.792   5.444   3.717
  144OSM   H13S15751   0.736   5.353   3.688
  144OSM   H13T15752   0.723   5.531   3.731
  144OSM   C14S15753   0.869   5.408   3.849
  144OSM   H14S15754   0.916   5.310   3.825
  144OSM   H14T15755   0.785   5.391   3.919
  144OSM   C15S15756   0.963   5.510   3.913
  144OSM   H15S15757   0.927   5.613   3.893
  144OSM   H15T15758   1.060   5.497   3.861
  144OSM   C16S15759   0.997   5.495   4.067
  144OSM   H16S15760   1.028   5.391   4.088
  144OSM   H16T15761   0.912   5.523   4.133
  144OSM   C17S15762   1.117   5.584   4.115
  144OSM   H17S15763   1.089   5.689   4.090
  144OSM   H17T15764   1.206   5.558   4.054
  144OSM   C18S15765   1.129   5.560   4.266
  144OSM   H18S15766   1.109   5.454   4.292
  144OSM   H18T15767   1.054   5.625   4.316
  144OSM   H18U15768   1.231   5.588   4.301
  144OSM    C1F15769   0.662   5.620   2.584
  144OSM     OF15770   0.564   5.562   2.543
  144OSM    C2F15771   0.672   5.768   2.568
  144OSM    H2F15772   0.649   5.781   2.460
  144OSM    H2G15773   0.772   5.816   2.583
  144OSM    C3F15774   0.566   5.846   2.644
  144OSM    H3F15775   0.470   5.791   2.647
  144OSM    H3G15776   0.548   5.939   2.586
  144OSM    C4F15777   0.603   5.878   2.790
  144OSM    H4F15778   0.692   5.945   2.793
  144OSM    H4G15779   0.625   5.781   2.840
  144OSM    C5F15780   0.493   5.939   2.876
  144OSM    H5F15781   0.397   5.888   2.851
  144OSM    H5G15782   0.484   6.044   2.840
  144OSM    C6F15783   0.524   5.948   3.022
  144OSM    H6F15784   0.617   6.008   3.037
  144OSM    H6G15785   0.546   5.841   3.040
  144OSM    C7F15786   0.409   6.008   3.107
  144OSM    H7F15787   0.318   5.997   3.044
  144OSM    H7G15788   0.422   6.118   3.107
  144OSM    C8F15789   0.377   5.948   3.253
  144OSM    H8F15790   0.398   6.026   3.329
  144OSM    H8G15791   0.432   5.853   3.267
  144OSM    C9F15792   0.236   5.903   3.261
  144OSM    H9F15793   0.179   5.864   3.175
  144OSM   C10F15794   0.165   5.915   3.375
  144OSM   H10F15795   0.064   5.872   3.381
  144OSM   C11F15796   0.209   5.978   3.499
  144OSM   H11F15797   0.135   6.053   3.537
  144OSM   H11G15798   0.291   6.052   3.487
  144OSM   C12F15799   0.238   5.890   3.620
  144OSM   H12F15800   0.321   5.820   3.595
  144OSM   H12G15801   0.151   5.821   3.628
  144OSM   C13F15802   0.257   5.962   3.754
  144OSM   H13F15803   0.168   6.026   3.777
  144OSM   H13G15804   0.329   6.047   3.755
  144OSM   C14F15805   0.271   5.876   3.880
  144OSM   H14F15806   0.371   5.829   3.866
  144OSM   H14G15807   0.198   5.793   3.871
  144OSM   C15F15808   0.241   5.956   4.011
  144OSM   H15F15809   0.138   5.992   3.992
  144OSM   H15G15810   0.317   6.035   4.029
  144OSM   C16F15811   0.234   5.868   4.143
  144OSM   H16F15812   0.148   5.800   4.159
  144OSM   H16G15813   0.217   5.949   4.217
  144OSM   C17F15814   0.363   5.791   4.166
  144OSM   H17F15815   0.452   5.830   4.112
  144OSM   H17G15816   0.343   5.691   4.120
  144OSM   C18F15817   0.398   5.773   4.314
  144OSM   H18F15818   0.324   5.709   4.367
  144OSM   H18G15819   0.401   5.874   4.361
  144OSM   H18H15820   0.495   5.720   4.320
  145SAPE     N15821   1.890   0.975   6.445
  145SAPE   HN115822   1.815   0.967   6.517
  145SAPE   HN215823   1.979   0.997   6.493
  145SAPE   HN315824   1.861   1.056   6.387
  145SAPE   C1215825   1.891   0.847   6.373
  145SAPE  H12A15826   1.909   0.758   6.437
  145SAPE  H12B15827   1.971   0.844   6.296
  145SAPE   C1115828   1.759   0.838   6.299
  145SAPE  H11A15829   1.762   0.741   6.245
  145SAPE  H11B15830   1.744   0.920   6.225
  145SAPE     P15831   1.528   0.756   6.379
  145SAPE   O1315832   1.577   0.622   6.353
  145SAPE   O1415833   1.448   0.770   6.501
  145SAPE   O1215834   1.653   0.852   6.392
  145SAPE   O1115835   1.450   0.815   6.258
  145SAPE    C115836   1.389   0.944   6.253
  145SAPE    HA15837   1.294   0.938   6.310
  145SAPE    HB15838   1.450   1.020   6.308
  145SAPE    C215839   1.355   0.997   6.111
  145SAPE    HS15840   1.338   1.107   6.114
  145SAPE   O2115841   1.246   0.913   6.062
  145SAPE   C2115842   1.194   0.946   5.947
  145SAPE   O2215843   1.203   1.062   5.903
  145SAPE   C2215844   1.129   0.825   5.881
  145SAPE   H2R15845   1.205   0.786   5.810
  145SAPE   H2S15846   1.098   0.752   5.960
  145SAPE    C315847   1.484   0.972   6.021
  145SAPE    HX15848   1.492   0.861   6.024
  145SAPE    HY15849   1.561   1.011   6.091
  145SAPE   O3115850   1.485   1.027   5.886
  145SAPE   C3115851   1.490   1.160   5.883
  145SAPE   O3215852   1.502   1.229   5.981
  145SAPE   C3215853   1.485   1.211   5.742
  145SAPE   H2X15854   1.395   1.177   5.685
  145SAPE   H2Y15855   1.576   1.181   5.686
  145SAPE   C2315856   1.003   0.861   5.796
  145SAPE   H3R15857   1.023   0.913   5.701
  145SAPE   H3S15858   0.942   0.934   5.853
  145SAPE   C2415859   0.916   0.741   5.757
  145SAPE   H4R15860   0.896   0.688   5.853
  145SAPE   H4S15861   0.964   0.664   5.693
  145SAPE   C2515862   0.782   0.775   5.694
  145SAPE   H5R15863   0.691   0.767   5.755
  145SAPE   C2615864   0.766   0.782   5.560
  145SAPE   H6R15865   0.661   0.796   5.530
  145SAPE   C2715866   0.859   0.771   5.439
  145SAPE   H7R15867   0.956   0.825   5.444
  145SAPE   H7S15868   0.798   0.820   5.360
  145SAPE   C2815869   0.886   0.630   5.396
  145SAPE   H8R15870   0.914   0.564   5.479
  145SAPE   C2915871   0.887   0.577   5.268
  145SAPE   H9R15872   0.915   0.471   5.267
  145SAPE  C21015873   0.849   0.641   5.135
  145SAPE  H10R15874   0.808   0.743   5.150
  145SAPE  H10S15875   0.765   0.581   5.095
  145SAPE  C21115876   0.964   0.637   5.033
  145SAPE  H11R15877   1.054   0.580   5.059
  145SAPE  C21215878   0.960   0.699   4.914
  145SAPE  H12R15879   1.042   0.669   4.847
  145SAPE  C21315880   0.849   0.785   4.856
  145SAPE  H13R15881   0.877   0.893   4.846
  145SAPE  H13S15882   0.771   0.796   4.934
  145SAPE  C21415883   0.781   0.749   4.728
  145SAPE  H14R15884   0.834   0.783   4.637
  145SAPE  C21515885   0.665   0.682   4.719
  145SAPE  H15R15886   0.631   0.650   4.619
  145SAPE  C21615887   0.572   0.627   4.824
  145SAPE  H16R15888   0.632   0.589   4.909
  145SAPE  H16S15889   0.512   0.542   4.785
  145SAPE  C21715890   0.472   0.739   4.874
  145SAPE  H17R15891   0.526   0.836   4.864
  145SAPE  H17S15892   0.449   0.720   4.981
  145SAPE  C21815893   0.336   0.746   4.797
  145SAPE  H18R15894   0.290   0.845   4.816
  145SAPE  H18S15895   0.279   0.657   4.830
  145SAPE  C21915896   0.356   0.729   4.648
  145SAPE  H19R15897   0.409   0.636   4.620
  145SAPE  H19S15898   0.411   0.817   4.607
  145SAPE  C22015899   0.220   0.730   4.578
  145SAPE  H20R15900   0.154   0.653   4.623
  145SAPE  H20S15901   0.227   0.720   4.468
  145SAPE  H20T15902   0.166   0.825   4.597
  145SAPE   C3315903   1.474   1.364   5.737
  145SAPE   H3X15904   1.555   1.413   5.794
  145SAPE   H3Y15905   1.379   1.397   5.782
  145SAPE   C3415906   1.484   1.424   5.589
  145SAPE   H4X15907   1.584   1.391   5.553
  145SAPE   H4Y15908   1.500   1.530   5.618
  145SAPE   C3515909   1.377   1.395   5.489
  145SAPE   H5X15910   1.275   1.427   5.518
  145SAPE   H5Y15911   1.381   1.285   5.474
  145SAPE   C3615912   1.409   1.461   5.351
  145SAPE   H6X15913   1.519   1.460   5.338
  145SAPE   H6Y15914   1.374   1.566   5.362
  145SAPE   C3715915   1.341   1.396   5.231
  145SAPE   H7X15916   1.242   1.361   5.266
  145SAPE   H7Y15917   1.391   1.304   5.192
  145SAPE   C3815918   1.320   1.486   5.114
  145SAPE   H8X15919   1.404   1.557   5.095
  145SAPE   H8Y15920   1.235   1.556   5.121
  145SAPE   C3915921   1.303   1.397   4.984
  145SAPE   H9X15922   1.209   1.346   5.016
  145SAPE   H9Y15923   1.388   1.326   4.974
  145SAPE  C31015924   1.307   1.495   4.871
  145SAPE  H10X15925   1.400   1.555   4.877
  145SAPE  H10Y15926   1.218   1.563   4.876
  145SAPE  C31115927   1.297   1.418   4.737
  145SAPE  H11X15928   1.208   1.352   4.745
  145SAPE  H11Y15929   1.379   1.345   4.725
  145SAPE  C31215930   1.282   1.510   4.620
  145SAPE  H12X15931   1.377   1.562   4.598
  145SAPE  H12Y15932   1.209   1.591   4.638
  145SAPE  C31315933   1.224   1.442   4.499
  145SAPE  H13X15934   1.243   1.503   4.408
  145SAPE  H13Y15935   1.115   1.440   4.518
  145SAPE  C31415936   1.272   1.307   4.474
  145SAPE  H14X15937   1.240   1.239   4.555
  145SAPE  H14Y15938   1.381   1.318   4.457
  145SAPE  C31515939   1.226   1.242   4.339
  145SAPE  H15X15940   1.271   1.141   4.330
  145SAPE  H15Y15941   1.271   1.303   4.258
  145SAPE  C31615942   1.075   1.253   4.308
  145SAPE  H16X15943   1.083   1.232   4.199
  145SAPE  H16Y15944   1.035   1.351   4.339
  145SAPE  C31715945   0.989   1.150   4.372
  145SAPE  H17X15946   0.883   1.161   4.342
  145SAPE  H17Y15947   0.984   1.153   4.483
  145SAPE  C31815948   1.027   1.009   4.325
  145SAPE  H18X15949   1.135   0.986   4.340
  145SAPE  H18Y15950   0.991   0.994   4.221
  145SAPE  H18Z15951   0.959   0.940   4.379
  146SAPE     N15952   4.435   6.853   6.767
  146SAPE   HN115953   4.372   6.848   6.849
  146SAPE   HN215954   4.527   6.806   6.784
  146SAPE   HN315955   4.455   0.100   6.756
  146SAPE   C1215956   4.385   6.792   6.634
  146SAPE  H12A15957   4.380   6.682   6.650
  146SAPE  H12B15958   4.459   6.808   6.554
  146SAPE   C1115959   4.253   0.003   6.592
  146SAPE  H11A15960   4.173   6.820   6.661
  146SAPE  H11B15961   4.223   6.826   6.490
  146SAPE     P15962   4.157   0.231   6.518
  146SAPE   O1315963   4.023   0.172   6.540
  146SAPE   O1415964   4.172   0.370   6.556
  146SAPE   O1215965   4.266   0.148   6.595
  146SAPE   O1115966   4.192   0.209   6.368
  146SAPE    C115967   4.325   0.200   6.317
  146SAPE    HA15968   4.385   0.294   6.321
  146SAPE    HB15969   4.382   0.114   6.360
  146SAPE    C215970   4.333   0.157   6.165
  146SAPE    HS15971   4.440   0.166   6.134
  146SAPE   O2115972   4.256   0.245   6.079
  146SAPE   C2115973   4.301   0.367   6.065
  146SAPE   O2215974   4.397   0.411   6.124
  146SAPE   C2215975   4.217   0.447   5.968
  146SAPE   H2R15976   4.188   0.370   5.894
  146SAPE   H2S15977   4.131   0.491   6.022
  146SAPE    C315978   4.274   0.014   6.151
  146SAPE    HX15979   4.176   6.848   6.199
  146SAPE    HY15980   4.345   6.814   6.217
  146SAPE   O3115981   4.274   6.818   6.018
  146SAPE   C3115982   4.220   6.703   5.999
  146SAPE   O3215983   4.166   6.632   6.086
  146SAPE   C3215984   4.221   6.682   5.845
  146SAPE   H2X15985   4.329   6.681   5.821
  146SAPE   H2Y15986   4.166   6.766   5.797
  146SAPE   C2315987   4.315   0.552   5.909
  146SAPE   H3R15988   4.371   0.481   5.845
  146SAPE   H3S15989   4.375   0.612   5.981
  146SAPE   C2415990   4.237   0.644   5.815
  146SAPE   H4R15991   4.166   0.697   5.881
  146SAPE   H4S15992   4.175   0.584   5.744
  146SAPE   C2515993   4.312   0.755   5.742
  146SAPE   H5R15994   4.296   0.855   5.785
  146SAPE   C2615995   4.397   0.733   5.642
  146SAPE   H6R15996   4.456   0.820   5.609
  146SAPE   C2715997   4.424   0.599   5.587
  146SAPE   H7R15998   4.357   0.516   5.619
  146SAPE   H7S15999   4.521   0.573   5.634
  146SAPE   C2816000   4.438   0.572   5.443
  146SAPE   H8R16001   4.507   0.486   5.436
  146SAPE   C2916002   4.367   0.618   5.338
  146SAPE   H9R16003   4.399   0.565   5.246
  146SAPE  C21016004   4.248   0.713   5.322
  146SAPE  H10R16005   4.211   0.741   5.423
  146SAPE  H10S16006   4.166   0.672   5.260
  146SAPE  C21116007   4.290   0.828   5.235
  146SAPE  H11R16008   4.383   0.871   5.276
  146SAPE  C21216009   4.251   0.868   5.114
  146SAPE  H12R16010   4.310   0.949   5.069
  146SAPE  C21316011   4.149   0.815   5.024
  146SAPE  H13R16012   4.101   0.721   5.060
  146SAPE  H13S16013   4.210   0.781   4.938
  146SAPE  C21416014   4.044   0.909   4.974
  146SAPE  H14R16015   4.071   0.980   4.895
  146SAPE  C21516016   3.916   0.928   5.008
  146SAPE  H15R16017   3.870   1.016   4.960
  146SAPE  C21616018   3.830   0.830   5.087
  146SAPE  H16R16019   3.853   0.723   5.069
  146SAPE  H16S16020   3.730   0.853   5.045
  146SAPE  C21716021   3.833   0.846   5.238
  146SAPE  H17R16022   3.795   0.946   5.269
  146SAPE  H17S16023   3.940   0.845   5.266
  146SAPE  C21816024   3.756   0.733   5.309
  146SAPE  H18R16025   3.796   0.632   5.284
  146SAPE  H18S16026   3.652   0.737   5.269
  146SAPE  C21916027   3.758   0.760   5.462
  146SAPE  H19R16028   3.687   0.689   5.510
  146SAPE  H19S16029   3.727   0.864   5.483
  146SAPE  C22016030   3.899   0.743   5.524
  146SAPE  H20R16031   3.911   0.763   5.633
  146SAPE  H20S16032   3.952   0.826   5.472
  146SAPE  H20T16033   3.961   0.654   5.501
  146SAPE   C3316034   4.165   6.542   5.806
  146SAPE   H3X16035   4.059   6.547   5.838
  146SAPE   H3Y16036   4.208   6.462   5.870
  146SAPE   C3416037   4.183   6.519   5.658
  146SAPE   H4X16038   4.151   6.417   5.628
  146SAPE   H4Y16039   4.293   6.505   5.650
  146SAPE   C3516040   4.145   6.623   5.560
  146SAPE   H5X16041   4.216   6.708   5.569
  146SAPE   H5Y16042   4.041   6.661   5.576
  146SAPE   C3616043   4.159   6.587   5.412
  146SAPE   H6X16044   4.063   6.558   5.365
  146SAPE   H6Y16045   4.235   6.507   5.399
  146SAPE   C3716046   4.202   6.721   5.335
  146SAPE   H7X16047   4.285   6.772   5.388
  146SAPE   H7Y16048   4.115   6.788   5.351
  146SAPE   C3816049   4.207   6.707   5.184
  146SAPE   H8X16050   4.280   6.627   5.159
  146SAPE   H8Y16051   4.247   6.800   5.140
  146SAPE   C3916052   4.070   6.672   5.125
  146SAPE   H9X16053   4.003   6.755   5.156
  146SAPE   H9Y16054   4.023   6.578   5.162
  146SAPE  C31016055   4.074   6.672   4.972
  146SAPE  H10X16056   3.972   6.639   4.944
  146SAPE  H10Y16057   4.147   6.598   4.933
  146SAPE  C31116058   4.093   6.811   4.910
  146SAPE  H11X16059   4.195   6.841   4.942
  146SAPE  H11Y16060   4.020   0.025   4.958
  146SAPE  C31216061   4.075   6.811   4.759
  146SAPE  H12X16062   3.968   6.817   4.730
  146SAPE  H12Y16063   4.105   6.717   4.707
  146SAPE  C31316064   4.117   0.088   4.699
  146SAPE  H13X16065   4.220   0.124   4.721
  146SAPE  H13Y16066   4.059   0.178   4.728
  146SAPE  C31416067   4.093   0.089   4.544
  146SAPE  H14X16068   4.080   0.193   4.509
  146SAPE  H14Y16069   3.999   0.036   4.514
  146SAPE  C31516070   4.203   0.027   4.468
  146SAPE  H15X16071   4.210   6.782   4.516
  146SAPE  H15Y16072   4.299   0.076   4.496
  146SAPE  C31616073   4.181   0.018   4.315
  146SAPE  H16X16074   4.078   6.833   4.301
  146SAPE  H16Y16075   4.247   6.796   4.269
  146SAPE  C31716076   4.209   0.153   4.242
  146SAPE  H17X16077   4.314   0.189   4.248
  146SAPE  H17Y16078   4.136   0.229   4.276
  146SAPE  C31816079   4.183   0.130   4.092
  146SAPE  H18X16080   4.083   0.084   4.077
  146SAPE  H18Y16081   4.259   0.063   4.047
  146SAPE  H18Z16082   4.175   0.227   4.038
  147SAPE     N16083   5.062   5.119   6.841
  147SAPE   HN116084   5.165   5.126   6.832
  147SAPE   HN216085   5.044   5.034   6.898
  147SAPE   HN316086   5.016   5.115   6.748
  147SAPE   C1216087   5.011   5.239   6.907
  147SAPE  H12A16088   5.042   5.240   7.014
  147SAPE  H12B16089   4.901   5.224   6.910
  147SAPE   C1116090   5.037   5.366   6.822
  147SAPE  H11A16091   4.963   5.445   6.846
  147SAPE  H11B16092   5.046   5.339   6.714
  147SAPE     P16093   5.216   5.558   6.829
  147SAPE   O1316094   5.110   5.656   6.848
  147SAPE   O1416095   5.341   5.582   6.903
  147SAPE   O1216096   5.165   5.410   6.863
  147SAPE   O1116097   5.241   5.548   6.672
  147SAPE    C116098   5.341   5.454   6.627
  147SAPE    HA16099   5.443   5.497   6.640
  147SAPE    HB16100   5.340   5.353   6.672
  147SAPE    C216101   5.328   5.427   6.472
  147SAPE    HS16102   5.410   5.356   6.447
  147SAPE   O2116103   5.325   5.546   6.397
  147SAPE   C2116104   5.445   5.589   6.378
  147SAPE   O2216105   5.554   5.538   6.410
  147SAPE   C2216106   5.439   5.714   6.283
  147SAPE   H2R16107   5.333   5.743   6.265
  147SAPE   H2S16108   5.486   5.802   6.332
  147SAPE    C316109   5.201   5.337   6.443
  147SAPE    HX16110   5.112   5.401   6.464
  147SAPE    HY16111   5.207   5.247   6.508
  147SAPE   O3116112   5.200   5.306   6.307
  147SAPE   C3116113   5.106   5.235   6.256
  147SAPE   O3216114   5.008   5.195   6.319
  147SAPE   C3216115   5.139   5.211   6.111
  147SAPE   H2X16116   5.171   5.105   6.098
  147SAPE   H2Y16117   5.233   5.265   6.088
  147SAPE   C2316118   5.505   5.682   6.143
  147SAPE   H3R16119   5.431   5.616   6.094
  147SAPE   H3S16120   5.604   5.634   6.162
  147SAPE   C2416121   5.525   5.805   6.052
  147SAPE   H4R16122   5.594   5.769   5.973
  147SAPE   H4S16123   5.586   5.875   6.113
  147SAPE   C2516124   5.408   5.878   6.001
  147SAPE   H5R16125   5.356   5.950   6.067
  147SAPE   C2616126   5.347   5.861   5.887
  147SAPE   H6R16127   5.253   5.910   5.859
  147SAPE   C2716128   5.391   5.769   5.770
  147SAPE   H7R16129   5.500   5.749   5.768
  147SAPE   H7S16130   5.369   5.830   5.680
  147SAPE   C2816131   5.321   5.632   5.772
  147SAPE   H8R16132   5.311   5.587   5.872
  147SAPE   C2916133   5.241   5.577   5.683
  147SAPE   H9R16134   5.202   5.478   5.709
  147SAPE  C21016135   5.231   5.616   5.539
  147SAPE  H10R16136   5.200   5.722   5.540
  147SAPE  H10S16137   5.143   5.567   5.491
  147SAPE  C21116138   5.359   5.602   5.460
  147SAPE  H11R16139   5.441   5.535   5.491
  147SAPE  C21216140   5.370   5.650   5.333
  147SAPE  H12R16141   5.460   5.630   5.273
  147SAPE  C21316142   5.270   5.734   5.259
  147SAPE  H13R16143   5.329   5.826   5.236
  147SAPE  H13S16144   5.181   5.770   5.314
  147SAPE  C21416145   5.218   5.665   5.137
  147SAPE  H14R16146   5.173   5.566   5.149
  147SAPE  C21516147   5.228   5.708   5.011
  147SAPE  H15R16148   5.191   5.645   4.930
  147SAPE  C21616149   5.291   5.839   4.973
  147SAPE  H16R16150   5.384   5.851   5.032
  147SAPE  H16S16151   5.243   5.931   5.013
  147SAPE  C21716152   5.334   5.851   4.825
  147SAPE  H17R16153   5.390   5.946   4.812
  147SAPE  H17S16154   5.251   5.864   4.753
  147SAPE  C21816155   5.429   5.740   4.774
  147SAPE  H18R16156   5.375   5.643   4.779
  147SAPE  H18S16157   5.521   5.725   4.835
  147SAPE  C21916158   5.471   5.778   4.629
  147SAPE  H19R16159   5.515   5.878   4.646
  147SAPE  H19S16160   5.380   5.789   4.566
  147SAPE  C22016161   5.574   5.690   4.555
  147SAPE  H20R16162   5.534   5.589   4.534
  147SAPE  H20S16163   5.673   5.679   4.603
  147SAPE  H20T16164   5.600   5.740   4.459
  147SAPE   C3316165   5.027   5.244   6.008
  147SAPE   H3X16166   5.027   5.355   6.005
  147SAPE   H3Y16167   4.929   5.231   6.059
  147SAPE   C3416168   5.045   5.199   5.859
  147SAPE   H4X16169   5.008   5.273   5.784
  147SAPE   H4Y16170   4.989   5.104   5.845
  147SAPE   C3516171   5.194   5.175   5.812
  147SAPE   H5X16172   5.242   5.097   5.874
  147SAPE   H5Y16173   5.256   5.268   5.819
  147SAPE   C3616174   5.200   5.119   5.661
  147SAPE   H6X16175   5.122   5.039   5.654
  147SAPE   H6Y16176   5.295   5.063   5.651
  147SAPE   C3716177   5.194   5.231   5.558
  147SAPE   H7X16178   5.277   5.305   5.565
  147SAPE   H7Y16179   5.096   5.284   5.556
  147SAPE   C3816180   5.204   5.172   5.418
  147SAPE   H8X16181   5.145   5.081   5.395
  147SAPE   H8Y16182   5.312   5.154   5.395
  147SAPE   C3916183   5.169   5.275   5.311
  147SAPE   H9X16184   5.256   5.341   5.295
  147SAPE   H9Y16185   5.085   5.342   5.340
  147SAPE  C31016186   5.133   5.209   5.170
  147SAPE  H10X16187   5.033   5.160   5.179
  147SAPE  H10Y16188   5.209   5.136   5.134
  147SAPE  C31116189   5.115   5.324   5.061
  147SAPE  H11X16190   5.212   5.367   5.028
  147SAPE  H11Y16191   5.043   5.399   5.100
  147SAPE  C31216192   5.046   5.267   4.933
  147SAPE  H12X16193   4.981   5.184   4.968
  147SAPE  H12Y16194   5.126   5.209   4.882
  147SAPE  C31316195   4.981   5.357   4.828
  147SAPE  H13X16196   4.944   5.298   4.741
  147SAPE  H13Y16197   5.057   5.436   4.809
  147SAPE  C31416198   4.843   5.419   4.890
  147SAPE  H14X16199   4.870   5.497   4.965
  147SAPE  H14Y16200   4.789   5.338   4.943
  147SAPE  C31516201   4.755   5.477   4.783
  147SAPE  H15X16202   4.722   5.391   4.720
  147SAPE  H15Y16203   4.808   5.537   4.706
  147SAPE  C31616204   4.626   5.549   4.835
  147SAPE  H16X16205   4.655   5.626   4.910
  147SAPE  H16Y16206   4.563   5.472   4.883
  147SAPE  C31716207   4.539   5.618   4.725
  147SAPE  H17X16208   4.508   5.545   4.647
  147SAPE  H17Y16209   4.596   5.697   4.671
  147SAPE  C31816210   4.413   5.687   4.780
  147SAPE  H18X16211   4.350   5.721   4.696
  147SAPE  H18Y16212   4.439   5.777   4.840
  147SAPE  H18Z16213   4.359   5.612   4.842
  148SAPE     N16214   2.533   0.157   6.452
  148SAPE   HN116215   2.502   0.165   6.551
  148SAPE   HN216216   2.631   0.122   6.449
  148SAPE   HN316217   2.528   0.254   6.415
  148SAPE   C1216218   2.453   0.050   6.388
  148SAPE  H12A16219   2.506   0.007   6.300
  148SAPE  H12B16220   2.350   0.082   6.362
  148SAPE   C1116221   2.447   6.786   6.485
  148SAPE  H11A16222   2.550   6.750   6.507
  148SAPE  H11B16223   2.403   6.694   6.442
  148SAPE     P16224   2.222   6.792   6.624
  148SAPE   O1316225   2.193   6.652   6.590
  148SAPE   O1416226   2.190   6.841   6.759
  148SAPE   O1216227   2.375   6.814   6.602
  148SAPE   O1116228   2.171   0.035   6.509
  148SAPE    C116229   2.041   0.014   6.459
  148SAPE    HA16230   1.969   6.825   6.532
  148SAPE    HB16231   1.997   0.113   6.436
  148SAPE    C216232   2.047   6.798   6.325
  148SAPE    HS16233   2.124   6.718   6.333
  148SAPE   O2116234   2.086   0.040   6.227
  148SAPE   C2116235   2.189   0.008   6.141
  148SAPE   O2216236   2.246   6.754   6.145
  148SAPE   C2216237   2.219   0.119   6.043
  148SAPE   H2R16238   2.261   0.076   5.950
  148SAPE   H2S16239   2.129   0.174   6.007
  148SAPE    C316240   1.916   6.730   6.283
  148SAPE    HX16241   1.832   6.797   6.256
  148SAPE    HY16242   1.886   6.678   6.376
  148SAPE   O3116243   1.936   6.630   6.184
  148SAPE   C3116244   1.927   6.668   6.052
  148SAPE   O3216245   1.881   6.773   6.021
  148SAPE   C3216246   1.993   6.567   5.954
  148SAPE   H2X16247   2.007   6.465   5.994
  148SAPE   H2Y16248   2.100   6.597   5.958
  148SAPE   C2316249   2.323   0.225   6.095
  148SAPE   H3R16250   2.396   0.157   6.144
  148SAPE   H3S16251   2.268   0.290   6.167
  148SAPE   C2416252   2.377   0.309   5.976
  148SAPE   H4R16253   2.438   0.396   6.009
  148SAPE   H4S16254   2.287   0.364   5.940
  148SAPE   C2516255   2.446   0.229   5.867
  148SAPE   H5R16256   2.543   0.182   5.894
  148SAPE   C2616257   2.390   0.214   5.745
  148SAPE   H6R16258   2.438   0.149   5.670
  148SAPE   C2716259   2.255   0.276   5.704
  148SAPE   H7R16260   2.263   0.387   5.703
  148SAPE   H7S16261   2.182   0.261   5.786
  148SAPE   C2816262   2.191   0.222   5.581
  148SAPE   H8R16263   2.091   0.182   5.604
  148SAPE   C2916264   2.235   0.231   5.458
  148SAPE   H9R16265   2.170   0.188   5.381
  148SAPE  C21016266   2.367   0.295   5.422
  148SAPE  H10R16267   2.431   0.305   5.512
  148SAPE  H10S16268   2.343   0.397   5.384
  148SAPE  C21116269   2.459   0.226   5.325
  148SAPE  H11R16270   2.543   0.178   5.377
  148SAPE  C21216271   2.450   0.224   5.190
  148SAPE  H12R16272   2.513   0.162   5.125
  148SAPE  C21316273   2.349   0.307   5.120
  148SAPE  H13R16274   2.369   0.415   5.137
  148SAPE  H13S16275   2.247   0.306   5.163
  148SAPE  C21416276   2.350   0.284   4.966
  148SAPE  H14R16277   2.433   0.222   4.929
  148SAPE  C21516278   2.258   0.325   4.879
  148SAPE  H15R16279   2.276   0.302   4.773
  148SAPE  C21616280   2.135   0.398   4.912
  148SAPE  H16R16281   2.123   0.486   4.845
  148SAPE  H16S16282   2.126   0.444   5.012
  148SAPE  C21716283   2.022   0.300   4.871
  148SAPE  H17R16284   2.047   0.238   4.783
  148SAPE  H17S16285   1.926   0.354   4.855
  148SAPE  C21816286   1.974   0.224   4.995
  148SAPE  H18R16287   1.927   0.292   5.069
  148SAPE  H18S16288   2.060   0.172   5.043
  148SAPE  C21916289   1.881   0.106   4.945
  148SAPE  H19R16290   1.941   0.038   4.882
  148SAPE  H19S16291   1.807   0.166   4.888
  148SAPE  C22016292   1.811   0.029   5.054
  148SAPE  H20R16293   1.877   6.817   5.114
  148SAPE  H20S16294   1.720   6.828   5.022
  148SAPE  H20T16295   1.778   0.102   5.131
  148SAPE   C3316296   1.920   6.566   5.814
  148SAPE   H3X16297   1.882   6.664   5.777
  148SAPE   H3Y16298   1.823   6.514   5.827
  148SAPE   C3416299   1.999   6.490   5.708
  148SAPE   H4X16300   1.943   6.476   5.613
  148SAPE   H4Y16301   2.030   6.392   5.750
  148SAPE   C3516302   2.129   6.556   5.657
  148SAPE   H5X16303   2.206   6.479   5.634
  148SAPE   H5Y16304   2.180   6.622   5.730
  148SAPE   C3616305   2.101   6.635   5.531
  148SAPE   H6X16306   2.040   6.722   5.565
  148SAPE   H6Y16307   2.040   6.567   5.468
  148SAPE   C3716308   2.226   6.670   5.453
  148SAPE   H7X16309   2.300   6.588   5.446
  148SAPE   H7Y16310   2.285   6.749   5.505
  148SAPE   C3816311   2.199   6.740   5.317
  148SAPE   H8X16312   2.280   6.812   5.289
  148SAPE   H8Y16313   2.103   6.795   5.322
  148SAPE   C3916314   2.190   6.635   5.198
  148SAPE   H9X16315   2.086   6.595   5.195
  148SAPE   H9Y16316   2.263   6.555   5.224
  148SAPE  C31016317   2.201   6.702   5.058
  148SAPE  H10X16318   2.288   6.770   5.045
  148SAPE  H10Y16319   2.107   6.759   5.043
  148SAPE  C31116320   2.214   6.602   4.945
  148SAPE  H11X16321   2.131   6.529   4.951
  148SAPE  H11Y16322   2.303   6.536   4.956
  148SAPE  C31216323   2.215   6.677   4.804
  148SAPE  H12X16324   2.315   6.727   4.803
  148SAPE  H12Y16325   2.144   6.762   4.805
  148SAPE  C31316326   2.201   6.584   4.684
  148SAPE  H13X16327   2.105   6.529   4.688
  148SAPE  H13Y16328   2.276   6.503   4.679
  148SAPE  C31416329   2.204   6.660   4.544
  148SAPE  H14X16330   2.213   6.582   4.466
  148SAPE  H14Y16331   2.307   6.702   4.541
  148SAPE  C31516332   2.100   6.763   4.519
  148SAPE  H15X16333   2.080   6.838   4.599
  148SAPE  H15Y16334   2.005   6.709   4.497
  148SAPE  C31616335   2.135   6.847   4.396
  148SAPE  H16X16336   2.049   0.052   4.359
  148SAPE  H16Y16337   2.177   6.793   4.309
  148SAPE  C31716338   2.239   0.101   4.419
  148SAPE  H17X16339   2.328   0.039   4.446
  148SAPE  H17Y16340   2.191   0.159   4.500
  148SAPE  C31816341   2.279   0.193   4.310
  148SAPE  H18X16342   2.192   0.256   4.282
  148SAPE  H18Y16343   2.320   0.143   4.219
  148SAPE  H18Z16344   2.352   0.271   4.340
  149SAPE     N16345   2.213   1.758   7.338
  149SAPE   HN116346   2.247   1.856   7.326
  149SAPE   HN216347   2.109   1.749   7.346
  149SAPE   HN316348   2.245   1.726   7.432
  149SAPE   C1216349   2.266   1.671   7.227
  149SAPE  H12A16350   2.237   1.569   7.259
  149SAPE  H12B16351   2.377   1.679   7.234
  149SAPE   C1116352   2.219   1.725   7.084
  149SAPE  H11A16353   2.264   1.665   7.001
  149SAPE  H11B16354   2.247   1.832   7.093
  149SAPE     P16355   1.993   1.764   6.958
  149SAPE   O1316356   1.900   1.661   6.912
  149SAPE   O1416357   1.940   1.902   6.978
  149SAPE   O1216358   2.080   1.711   7.081
  149SAPE   O1116359   2.110   1.778   6.852
  149SAPE    C116360   2.144   1.663   6.772
  149SAPE    HA16361   2.249   1.664   6.734
  149SAPE    HB16362   2.144   1.569   6.831
  149SAPE    C216363   2.066   1.640   6.638
  149SAPE    HS16364   1.959   1.618   6.662
  149SAPE   O2116365   2.128   1.535   6.560
  149SAPE   C2116366   2.094   1.413   6.590
  149SAPE   O2216367   2.017   1.389   6.684
  149SAPE   C2216368   2.146   1.304   6.496
  149SAPE   H2R16369   2.204   1.239   6.564
  149SAPE   H2S16370   2.051   1.264   6.454
  149SAPE    C316371   2.059   1.777   6.553
  149SAPE    HX16372   2.166   1.803   6.543
  149SAPE    HY16373   2.015   1.855   6.619
  149SAPE   O3116374   2.014   1.765   6.414
  149SAPE   C3116375   1.888   1.808   6.386
  149SAPE   O3216376   1.829   1.882   6.464
  149SAPE   C3216377   1.858   1.780   6.240
  149SAPE   H2X16378   1.786   1.696   6.237
  149SAPE   H2Y16379   1.949   1.745   6.185
  149SAPE   C2316380   2.258   1.355   6.401
  149SAPE   H3R16381   2.326   1.417   6.463
  149SAPE   H3S16382   2.205   1.419   6.327
  149SAPE   C2416383   2.340   1.242   6.327
  149SAPE   H4R16384   2.385   1.176   6.405
  149SAPE   H4S16385   2.432   1.296   6.297
  149SAPE   C2516386   2.272   1.164   6.215
  149SAPE   H5R16387   2.178   1.120   6.250
  149SAPE   C2616388   2.308   1.153   6.094
  149SAPE   H6R16389   2.249   1.101   6.017
  149SAPE   C2716390   2.430   1.220   6.028
  149SAPE   H7R16391   2.518   1.228   6.095
  149SAPE   H7S16392   2.414   1.328   6.005
  149SAPE   C2816393   2.474   1.160   5.893
  149SAPE   H8R16394   2.559   1.090   5.894
  149SAPE   C2916395   2.420   1.187   5.772
  149SAPE   H9R16396   2.474   1.147   5.685
  149SAPE  C21016397   2.310   1.281   5.747
  149SAPE  H10R16398   2.257   1.301   5.843
  149SAPE  H10S16399   2.234   1.235   5.680
  149SAPE  C21116400   2.370   1.408   5.693
  149SAPE  H11R16401   2.408   1.480   5.767
  149SAPE  C21216402   2.382   1.424   5.559
  149SAPE  H12R16403   2.428   1.510   5.509
  149SAPE  C21316404   2.349   1.325   5.452
  149SAPE  H13R16405   2.249   1.354   5.412
  149SAPE  H13S16406   2.324   1.223   5.487
  149SAPE  C21416407   2.458   1.301   5.352
  149SAPE  H14R16408   2.545   1.250   5.396
  149SAPE  C21516409   2.454   1.336   5.225
  149SAPE  H15R16410   2.533   1.304   5.156
  149SAPE  C21616411   2.344   1.412   5.160
  149SAPE  H16R16412   2.391   1.487   5.093
  149SAPE  H16S16413   2.281   1.463   5.236
  149SAPE  C21716414   2.255   1.319   5.082
  149SAPE  H17R16415   2.173   1.388   5.054
  149SAPE  H17S16416   2.209   1.235   5.138
  149SAPE  C21816417   2.306   1.267   4.951
  149SAPE  H18R16418   2.398   1.212   4.981
  149SAPE  H18S16419   2.337   1.361   4.900
  149SAPE  C21916420   2.212   1.179   4.874
  149SAPE  H19R16421   2.186   1.084   4.926
  149SAPE  H19S16422   2.251   1.164   4.771
  149SAPE  C22016423   2.072   1.245   4.853
  149SAPE  H20R16424   2.017   1.196   4.770
  149SAPE  H20S16425   2.073   1.354   4.832
  149SAPE  H20T16426   2.017   1.236   4.949
  149SAPE   C3316427   1.817   1.903   6.161
  149SAPE   H3X16428   1.882   1.987   6.193
  149SAPE   H3Y16429   1.713   1.927   6.192
  149SAPE   C3416430   1.818   1.893   6.009
  149SAPE   H4X16431   1.922   1.858   5.993
  149SAPE   H4Y16432   1.801   1.988   5.954
  149SAPE   C3516433   1.726   1.792   5.948
  149SAPE   H5X16434   1.619   1.814   5.966
  149SAPE   H5Y16435   1.755   1.693   5.991
  149SAPE   C3616436   1.743   1.762   5.794
  149SAPE   H6X16437   1.676   1.680   5.762
  149SAPE   H6Y16438   1.846   1.732   5.764
  149SAPE   C3716439   1.695   1.881   5.712
  149SAPE   H7X16440   1.747   1.975   5.739
  149SAPE   H7Y16441   1.585   1.888   5.721
  149SAPE   C3816442   1.749   1.860   5.566
  149SAPE   H8X16443   1.744   1.753   5.536
  149SAPE   H8Y16444   1.850   1.907   5.560
  149SAPE   C3916445   1.671   1.935   5.462
  149SAPE   H9X16446   1.691   2.041   5.486
  149SAPE   H9Y16447   1.565   1.907   5.482
  149SAPE  C31016448   1.710   1.910   5.315
  149SAPE  H10X16449   1.646   1.979   5.256
  149SAPE  H10Y16450   1.676   1.807   5.293
  149SAPE  C31116451   1.862   1.933   5.286
  149SAPE  H11X16452   1.923   1.878   5.361
  149SAPE  H11Y16453   1.887   2.041   5.285
  149SAPE  C31216454   1.897   1.876   5.147
  149SAPE  H12X16455   1.898   1.765   5.140
  149SAPE  H12Y16456   2.003   1.907   5.134
  149SAPE  C31316457   1.834   1.944   5.030
  149SAPE  H13X16458   1.807   2.047   5.061
  149SAPE  H13Y16459   1.737   1.896   5.005
  149SAPE  C31416460   1.920   1.943   4.907
  149SAPE  H14X16461   2.006   2.006   4.939
  149SAPE  H14Y16462   1.870   1.994   4.822
  149SAPE  C31516463   1.957   1.798   4.867
  149SAPE  H15X16464   1.865   1.737   4.854
  149SAPE  H15Y16465   2.014   1.754   4.952
  149SAPE  C31616466   2.056   1.784   4.736
  149SAPE  H16X16467   2.061   1.676   4.714
  149SAPE  H16Y16468   2.159   1.817   4.762
  149SAPE  C31716469   2.014   1.867   4.617
  149SAPE  H17X16470   2.009   1.972   4.651
  149SAPE  H17Y16471   1.913   1.838   4.580
  149SAPE  C31816472   2.118   1.872   4.512
  149SAPE  H18X16473   2.134   1.769   4.472
  149SAPE  H18Y16474   2.219   1.900   4.548
  149SAPE  H18Z16475   2.086   1.945   4.434
  150SAPE     N16476   4.901   2.833   6.584
  150SAPE   HN116477   4.849   2.854   6.671
  150SAPE   HN216478   4.995   2.800   6.615
  150SAPE   HN316479   4.920   2.923   6.534
  150SAPE   C1216480   4.838   2.740   6.477
  150SAPE  H12A16481   4.786   2.809   6.407
  150SAPE  H12B16482   4.766   2.680   6.538
  150SAPE   C1116483   4.948   2.655   6.408
  150SAPE  H11A16484   5.026   2.720   6.363
  150SAPE  H11B16485   4.903   2.591   6.329
  150SAPE     P16486   5.157   2.525   6.494
  150SAPE   O1316487   5.236   2.637   6.547
  150SAPE   O1416488   5.178   2.390   6.556
  150SAPE   O1216489   5.005   2.571   6.513
  150SAPE   O1116490   5.175   2.514   6.339
  150SAPE    C116491   5.127   2.403   6.262
  150SAPE    HA16492   5.072   2.333   6.329
  150SAPE    HB16493   5.059   2.441   6.183
  150SAPE    C216494   5.248   2.323   6.195
  150SAPE    HS16495   5.322   2.299   6.275
  150SAPE   O2116496   5.305   2.412   6.096
  150SAPE   C2116497   5.436   2.399   6.075
  150SAPE   O2216498   5.514   2.325   6.133
  150SAPE   C2216499   5.484   2.496   5.966
  150SAPE   H2R16500   5.413   2.582   5.964
  150SAPE   H2S16501   5.586   2.532   5.987
  150SAPE    C316502   5.193   2.192   6.129
  150SAPE    HX16503   5.117   2.151   6.199
  150SAPE    HY16504   5.284   2.129   6.132
  150SAPE   O3116505   5.154   2.211   5.990
  150SAPE   C3116506   5.027   2.244   5.969
  150SAPE   O3216507   4.940   2.242   6.054
  150SAPE   C3216508   5.004   2.273   5.815
  150SAPE   H2X16509   4.894   2.267   5.806
  150SAPE   H2Y16510   5.058   2.197   5.754
  150SAPE   C2316511   5.498   2.414   5.829
  150SAPE   H3R16512   5.415   2.348   5.795
  150SAPE   H3S16513   5.591   2.355   5.839
  150SAPE   C2416514   5.514   2.519   5.713
  150SAPE   H4R16515   5.607   2.564   5.753
  150SAPE   H4S16516   5.441   2.604   5.710
  150SAPE   C2516517   5.553   2.454   5.580
  150SAPE   H5R16518   5.465   2.395   5.550
  150SAPE   C2616519   5.667   2.462   5.509
  150SAPE   H6R16520   5.666   2.402   5.417
  150SAPE   C2716521   5.795   2.538   5.548
  150SAPE   H7R16522   5.850   2.483   5.627
  150SAPE   H7S16523   5.754   2.630   5.595
  150SAPE   C2816524   5.898   2.575   5.446
  150SAPE   H8R16525   5.999   2.536   5.465
  150SAPE   C2916526   5.877   2.643   5.326
  150SAPE   H9R16527   5.962   2.657   5.257
  150SAPE  C21016528   5.750   2.703   5.281
  150SAPE  H10R16529   5.770   2.806   5.245
  150SAPE  H10S16530   5.685   2.701   5.371
  150SAPE  C21116531   5.683   2.631   5.167
  150SAPE  H11R16532   5.624   2.543   5.196
  150SAPE  C21216533   5.708   2.649   5.032
  150SAPE  H12R16534   5.645   2.593   4.962
  150SAPE  C21316535   5.798   2.754   4.968
  150SAPE  H13R16536   5.849   2.818   5.043
  150SAPE  H13S16537   5.737   2.820   4.903
  150SAPE  C21416538   5.899   2.675   4.883
  150SAPE  H14R16539   5.960   2.608   4.946
  150SAPE  C21516540   5.920   2.693   4.751
  150SAPE  H15R16541   5.991   2.633   4.692
  150SAPE  C21616542   5.830   2.770   4.654
  150SAPE  H16R16543   5.877   2.866   4.626
  150SAPE  H16S16544   5.735   2.801   4.704
  150SAPE  C21716545   5.797   2.695   4.520
  150SAPE  H17R16546   5.892   2.679   4.466
  150SAPE  H17S16547   5.732   2.770   4.471
  150SAPE  C21816548   5.729   2.564   4.520
  150SAPE  H18R16549   5.799   2.482   4.550
  150SAPE  H18S16550   5.706   2.544   4.413
  150SAPE  C21916551   5.605   2.559   4.613
  150SAPE  H19R16552   5.558   2.658   4.594
  150SAPE  H19S16553   5.636   2.573   4.719
  150SAPE  C22016554   5.520   2.436   4.582
  150SAPE  H20R16555   5.586   2.347   4.571
  150SAPE  H20S16556   5.474   2.443   4.481
  150SAPE  H20T16557   5.436   2.410   4.650
  150SAPE   C3316558   5.050   2.414   5.770
  150SAPE   H3X16559   5.148   2.436   5.818
  150SAPE   H3Y16560   4.982   2.496   5.800
  150SAPE   C3416561   5.077   2.440   5.622
  150SAPE   H4X16562   4.984   2.424   5.564
  150SAPE   H4Y16563   5.149   2.361   5.590
  150SAPE   C3516564   5.156   2.562   5.580
  150SAPE   H5X16565   5.239   2.571   5.653
  150SAPE   H5Y16566   5.092   2.652   5.593
  150SAPE   C3616567   5.227   2.531   5.446
  150SAPE   H6X16568   5.156   2.486   5.374
  150SAPE   H6Y16569   5.315   2.463   5.451
  150SAPE   C3716570   5.278   2.664   5.380
  150SAPE   H7X16571   5.365   2.701   5.437
  150SAPE   H7Y16572   5.191   2.733   5.396
  150SAPE   C3816573   5.304   2.644   5.231
  150SAPE   H8X16574   5.225   2.580   5.185
  150SAPE   H8Y16575   5.398   2.590   5.206
  150SAPE   C3916576   5.304   2.783   5.164
  150SAPE   H9X16577   5.397   2.829   5.205
  150SAPE   H9Y16578   5.215   2.843   5.192
  150SAPE  C31016579   5.317   2.783   5.007
  150SAPE  H10X16580   5.219   2.749   4.967
  150SAPE  H10Y16581   5.392   2.710   4.969
  150SAPE  C31116582   5.367   2.915   4.944
  150SAPE  H11X16583   5.473   2.942   4.961
  150SAPE  H11Y16584   5.311   3.006   4.977
  150SAPE  C31216585   5.347   2.915   4.790
  150SAPE  H12X16586   5.407   2.826   4.760
  150SAPE  H12Y16587   5.397   3.009   4.759
  150SAPE  C31316588   5.209   2.910   4.740
  150SAPE  H13X16589   5.139   2.981   4.789
  150SAPE  H13Y16590   5.164   2.812   4.766
  150SAPE  C31416591   5.209   2.916   4.584
  150SAPE  H14X16592   5.254   2.818   4.556
  150SAPE  H14Y16593   5.261   3.000   4.534
  150SAPE  C31516594   5.067   2.945   4.530
  150SAPE  H15X16595   5.054   3.055   4.542
  150SAPE  H15Y16596   5.001   2.893   4.603
  150SAPE  C31616597   5.034   2.908   4.387
  150SAPE  H16X16598   5.084   2.815   4.351
  150SAPE  H16Y16599   5.078   2.982   4.316
  150SAPE  C31716600   4.878   2.894   4.360
  150SAPE  H17X16601   4.846   2.999   4.346
  150SAPE  H17Y16602   4.821   2.854   4.447
  150SAPE  C31816603   4.836   2.815   4.232
  150SAPE  H18X16604   4.894   2.720   4.240
  150SAPE  H18Y16605   4.854   2.869   4.137
  150SAPE  H18Z16606   4.730   2.789   4.253
  151SAPE     N16607   4.405   6.420   6.517
  151SAPE   HN116608   4.474   6.494   6.542
  151SAPE   HN216609   4.344   6.418   6.601
  151SAPE   HN316610   4.453   6.329   6.505
  151SAPE   C1216611   4.332   6.466   6.397
  151SAPE  H12A16612   4.249   6.533   6.430
  151SAPE  H12B16613   4.288   6.376   6.349
  151SAPE   C1116614   4.428   6.529   6.288
  151SAPE  H11A16615   4.371   6.549   6.195
  151SAPE  H11B16616   4.500   6.447   6.268
  151SAPE     P16617   4.628   6.701   6.301
  151SAPE   O1316618   4.666   6.816   6.378
  151SAPE   O1416619   4.722   6.587   6.308
  151SAPE   O1216620   4.487   6.650   6.342
  151SAPE   O1116621   4.600   6.745   6.155
  151SAPE    C116622   4.711   6.790   6.069
  151SAPE    HA16623   4.734   0.044   6.081
  151SAPE    HB16624   4.801   6.728   6.087
  151SAPE    C216625   4.672   6.784   5.918
  151SAPE    HS16626   4.770   6.800   5.870
  151SAPE   O2116627   4.580   0.035   5.893
  151SAPE   C2116628   4.590   0.085   5.767
  151SAPE   O2216629   4.661   0.039   5.683
  151SAPE   C2216630   4.497   0.206   5.757
  151SAPE   H2R16631   4.511   0.264   5.850
  151SAPE   H2S16632   4.530   0.267   5.670
  151SAPE    C316633   4.607   6.651   5.878
  151SAPE    HX16634   4.507   6.658   5.926
  151SAPE    HY16635   4.661   6.565   5.924
  151SAPE   O3116636   4.580   6.642   5.736
  151SAPE   C3116637   4.677   6.582   5.663
  151SAPE   O3216638   4.781   6.542   5.711
  151SAPE   C3216639   4.620   6.561   5.515
  151SAPE   H2X16640   4.618   6.666   5.479
  151SAPE   H2Y16641   4.521   6.511   5.520
  151SAPE   C2316642   4.351   0.177   5.730
  151SAPE   H3R16643   4.304   0.276   5.742
  151SAPE   H3S16644   4.305   0.111   5.807
  151SAPE   C2416645   4.319   0.121   5.589
  151SAPE   H4R16646   4.214   0.085   5.582
  151SAPE   H4S16647   4.364   0.020   5.577
  151SAPE   C2516648   4.347   0.205   5.469
  151SAPE   H5R16649   4.280   0.291   5.455
  151SAPE   C2616650   4.451   0.184   5.375
  151SAPE   H6R16651   4.456   0.261   5.296
  151SAPE   C2716652   4.550   0.073   5.356
  151SAPE   H7R16653   4.523   6.844   5.424
  151SAPE   H7S16654   4.649   0.102   5.397
  151SAPE   C2816655   4.551   0.040   5.209
  151SAPE   H8R16656   4.502   6.799   5.182
  151SAPE   C2916657   4.605   0.124   5.113
  151SAPE   H9R16658   4.594   0.093   5.008
  151SAPE  C21016659   4.674   0.259   5.146
  151SAPE  H10R16660   4.784   0.249   5.133
  151SAPE  H10S16661   4.671   0.288   5.253
  151SAPE  C21116662   4.621   0.383   5.066
  151SAPE  H11R16663   4.551   0.447   5.121
  151SAPE  C21216664   4.677   0.426   4.951
  151SAPE  H12R16665   4.634   0.514   4.903
  151SAPE  C21316666   4.774   0.352   4.849
  151SAPE  H13R16667   4.868   0.318   4.895
  151SAPE  H13S16668   4.803   0.437   4.783
  151SAPE  C21416669   4.705   0.237   4.782
  151SAPE  H14R16670   4.716   0.144   4.840
  151SAPE  C21516671   4.623   0.226   4.678
  151SAPE  H15R16672   4.597   0.125   4.645
  151SAPE  C21616673   4.569   0.335   4.591
  151SAPE  H16R16674   4.566   0.437   4.636
  151SAPE  H16S16675   4.466   0.303   4.567
  151SAPE  C21716676   4.661   0.355   4.475
  151SAPE  H17R16677   4.653   0.265   4.409
  151SAPE  H17S16678   4.762   0.363   4.520
  151SAPE  C21816679   4.643   0.484   4.392
  151SAPE  H18R16680   4.538   0.510   4.370
  151SAPE  H18S16681   4.688   0.471   4.291
  151SAPE  C21916682   4.709   0.610   4.449
  151SAPE  H19R16683   4.817   0.584   4.444
  151SAPE  H19S16684   4.686   0.612   4.558
  151SAPE  C22016685   4.687   0.738   4.372
  151SAPE  H20R16686   4.699   0.727   4.262
  151SAPE  H20S16687   4.749   0.820   4.413
  151SAPE  H20T16688   4.587   0.782   4.396
  151SAPE   C3316689   4.701   6.476   5.416
  151SAPE   H3X16690   4.703   6.371   5.451
  151SAPE   H3Y16691   4.807   6.511   5.412
  151SAPE   C3416692   4.627   6.478   5.282
  151SAPE   H4X16693   4.611   6.584   5.252
  151SAPE   H4Y16694   4.526   6.433   5.286
  151SAPE   C3516695   4.712   6.396   5.183
  151SAPE   H5X16696   4.728   6.296   5.229
  151SAPE   H5Y16697   4.814   6.438   5.172
  151SAPE   C3616698   4.660   6.387   5.039
  151SAPE   H6X16699   4.560   6.339   5.038
  151SAPE   H6Y16700   4.734   6.329   4.980
  151SAPE   C3716701   4.634   6.527   4.972
  151SAPE   H7X16702   4.735   6.573   4.980
  151SAPE   H7Y16703   4.569   6.590   5.036
  151SAPE   C3816704   4.576   6.517   4.836
  151SAPE   H8X16705   4.493   6.444   4.837
  151SAPE   H8Y16706   4.659   6.492   4.766
  151SAPE   C3916707   4.510   6.651   4.772
  151SAPE   H9X16708   4.601   6.715   4.763
  151SAPE   H9Y16709   4.437   6.694   4.843
  151SAPE  C31016710   4.450   6.637   4.628
  151SAPE  H10X16711   4.384   6.725   4.613
  151SAPE  H10Y16712   4.395   6.542   4.607
  151SAPE  C31116713   4.558   6.661   4.522
  151SAPE  H11X16714   4.620   6.569   4.523
  151SAPE  H11Y16715   4.628   6.737   4.561
  151SAPE  C31216716   4.497   6.699   4.385
  151SAPE  H12X16717   4.432   6.788   4.398
  151SAPE  H12Y16718   4.438   6.616   4.339
  151SAPE  C31316719   4.600   6.723   4.278
  151SAPE  H13X16720   4.646   6.626   4.249
  151SAPE  H13Y16721   4.675   6.800   4.306
  151SAPE  C31416722   4.539   6.781   4.146
  151SAPE  H14X16723   4.535   0.036   4.165
  151SAPE  H14Y16724   4.434   6.754   4.121
  151SAPE  C31516725   4.630   6.768   4.020
  151SAPE  H15X16726   4.576   6.820   3.938
  151SAPE  H15Y16727   4.639   6.660   3.997
  151SAPE  C31616728   4.775   6.823   4.036
  151SAPE  H16X16729   4.817   6.757   4.114
  151SAPE  H16Y16730   4.763   0.076   4.065
  151SAPE  C31716731   4.850   6.799   3.912
  151SAPE  H17X16732   4.797   0.007   3.836
  151SAPE  H17Y16733   4.850   6.696   3.870
  151SAPE  C31816734   4.987   0.004   3.911
  151SAPE  H18X16735   5.022   0.017   3.806
  151SAPE  H18Y16736   5.057   6.796   3.971
  151SAPE  H18Z16737   4.983   0.102   3.964
  152SAPE     N16738   0.304   1.307   6.280
  152SAPE   HN116739   0.315   1.251   6.367
  152SAPE   HN216740   0.269   1.229   6.221
  152SAPE   HN316741   0.399   1.328   6.243
  152SAPE   C1216742   0.201   1.416   6.291
  152SAPE  H12A16743   0.114   1.367   6.340
  152SAPE  H12B16744   0.173   1.453   6.190
  152SAPE   C1116745   0.251   1.534   6.376
  152SAPE  H11A16746   0.352   1.568   6.344
  152SAPE  H11B16747   0.261   1.494   6.479
  152SAPE     P16748   0.193   1.784   6.414
  152SAPE   O1316749   0.073   1.836   6.486
  152SAPE   O1416750   0.322   1.777   6.489
  152SAPE   O1216751   0.157   1.641   6.365
  152SAPE   O1116752   0.216   1.863   6.281
  152SAPE    C116753   0.296   1.816   6.174
  152SAPE    HA16754   0.337   1.903   6.119
  152SAPE    HB16755   0.379   1.753   6.214
  152SAPE    C216756   0.204   1.742   6.073
  152SAPE    HS16757   0.149   1.665   6.131
  152SAPE   O2116758   0.291   1.669   5.980
  152SAPE   C2116759   0.246   1.560   5.920
  152SAPE   O2216760   0.156   1.488   5.957
  152SAPE   C2216761   0.330   1.529   5.797
  152SAPE   H2R16762   0.373   1.625   5.765
  152SAPE   H2S16763   0.420   1.478   5.836
  152SAPE    C316764   0.088   1.836   6.002
  152SAPE    HX16765   0.033   1.878   6.090
  152SAPE    HY16766   0.028   1.763   5.944
  152SAPE   O3116767   0.152   1.927   5.909
  152SAPE   C3116768   0.137   2.059   5.904
  152SAPE   O3216769   0.063   2.122   5.980
  152SAPE   C3216770   0.212   2.128   5.796
  152SAPE   H2X16771   0.320   2.114   5.816
  152SAPE   H2Y16772   0.199   2.238   5.811
  152SAPE   C2316773   0.259   1.448   5.693
  152SAPE   H3R16774   0.213   1.356   5.734
  152SAPE   H3S16775   0.331   1.407   5.618
  152SAPE   C2416776   0.143   1.519   5.618
  152SAPE   H4R16777   0.060   1.542   5.689
  152SAPE   H4S16778   0.093   1.448   5.549
  152SAPE   C2516779   0.191   1.643   5.557
  152SAPE   H5R16780   0.227   1.719   5.628
  152SAPE   C2616781   0.196   1.659   5.422
  152SAPE   H6R16782   0.237   1.749   5.375
  152SAPE   C2716783   0.142   1.546   5.329
  152SAPE   H7R16784   0.176   1.447   5.365
  152SAPE   H7S16785   0.186   1.567   5.229
  152SAPE   C2816786   6.846   1.541   5.306
  152SAPE   H8R16787   6.784   1.545   5.397
  152SAPE   C2916788   6.775   1.495   5.200
  152SAPE   H9R16789   6.665   1.488   5.196
  152SAPE  C21016790   6.844   1.432   5.079
  152SAPE  H10R16791   0.098   1.454   5.090
  152SAPE  H10S16792   6.805   1.485   4.990
  152SAPE  C21116793   6.834   1.284   5.055
  152SAPE  H11R16794   6.827   1.222   5.146
  152SAPE  C21216795   6.817   1.232   4.929
  152SAPE  H12R16796   6.798   1.126   4.904
  152SAPE  C21316797   6.815   1.314   4.805
  152SAPE  H13R16798   0.048   1.382   4.810
  152SAPE  H13S16799   6.721   1.372   4.817
  152SAPE  C21416800   6.822   1.228   4.685
  152SAPE  H14R16801   0.055   1.229   4.618
  152SAPE  C21516802   6.721   1.141   4.641
  152SAPE  H15R16803   6.730   1.077   4.552
  152SAPE  C21616804   6.587   1.130   4.712
  152SAPE  H16R16805   6.524   1.219   4.694
  152SAPE  H16S16806   6.599   1.110   4.820
  152SAPE  C21716807   6.496   1.015   4.648
  152SAPE  H17R16808   6.399   0.998   4.701
  152SAPE  H17S16809   6.551   0.920   4.660
  152SAPE  C21816810   6.463   1.040   4.491
  152SAPE  H18R16811   6.398   0.952   4.475
  152SAPE  H18S16812   6.559   1.030   4.436
  152SAPE  C21916813   6.392   1.172   4.452
  152SAPE  H19R16814   6.453   1.256   4.491
  152SAPE  H19S16815   6.291   1.172   4.499
  152SAPE  C22016816   6.377   1.193   4.297
  152SAPE  H20R16817   6.470   1.242   4.261
  152SAPE  H20S16818   6.297   1.267   4.277
  152SAPE  H20T16819   6.352   1.096   4.249
  152SAPE   C3316820   0.173   2.080   5.651
  152SAPE   H3X16821   0.065   2.099   5.635
  152SAPE   H3Y16822   0.178   1.969   5.637
  152SAPE   C3416823   0.246   2.164   5.546
  152SAPE   H4X16824   0.353   2.142   5.565
  152SAPE   H4Y16825   0.222   2.268   5.578
  152SAPE   C3516826   0.198   2.140   5.400
  152SAPE   H5X16827   0.087   2.135   5.395
  152SAPE   H5Y16828   0.223   2.035   5.371
  152SAPE   C3616829   0.256   2.239   5.294
  152SAPE   H6X16830   0.366   2.235   5.308
  152SAPE   H6Y16831   0.198   2.325   5.334
  152SAPE   C3716832   0.220   2.208   5.149
  152SAPE   H7X16833   0.110   2.217   5.132
  152SAPE   H7Y16834   0.246   2.101   5.135
  152SAPE   C3816835   0.281   2.297   5.036
  152SAPE   H8X16836   0.389   2.290   5.060
  152SAPE   H8Y16837   0.256   2.405   5.050
  152SAPE   C3916838   0.239   2.265   4.894
  152SAPE   H9X16839   0.129   2.275   4.886
  152SAPE   H9Y16840   0.277   2.162   4.877
  152SAPE  C31016841   0.318   2.346   4.785
  152SAPE  H10X16842   0.422   2.376   4.806
  152SAPE  H10Y16843   0.254   2.437   4.790
  152SAPE  C31116844   0.312   2.283   4.639
  152SAPE  H11X16845   0.345   2.178   4.649
  152SAPE  H11Y16846   0.391   2.332   4.579
  152SAPE  C31216847   0.177   2.289   4.562
  152SAPE  H12X16848   0.151   2.397   4.562
  152SAPE  H12Y16849   0.101   2.236   4.624
  152SAPE  C31316850   0.188   2.239   4.417
  152SAPE  H13X16851   0.191   2.128   4.427
  152SAPE  H13Y16852   0.285   2.278   4.380
  152SAPE  C31416853   0.074   2.283   4.334
  152SAPE  H14X16854   6.832   2.240   4.371
  152SAPE  H14Y16855   0.095   2.234   4.237
  152SAPE  C31516856   0.063   2.430   4.306
  152SAPE  H15X16857   0.160   2.474   4.273
  152SAPE  H15Y16858   0.019   2.479   4.396
  152SAPE  C31616859   6.821   2.458   4.189
  152SAPE  H16X16860   6.725   2.412   4.221
  152SAPE  H16Y16861   6.852   2.405   4.097
  152SAPE  C31716862   6.796   2.607   4.163
  152SAPE  H17X16863   0.038   2.652   4.130
  152SAPE  H17Y16864   6.781   2.650   4.264
  152SAPE  C31816865   6.682   2.644   4.067
  152SAPE  H18X16866   6.578   2.632   4.104
  152SAPE  H18Y16867   6.686   2.571   3.983
  152SAPE  H18Z16868   6.693   2.749   4.031
  153SAPE     N16869   6.362   1.700   6.691
  153SAPE   HN116870   6.430   1.665   6.762
  153SAPE   HN216871   6.402   1.705   6.595
  153SAPE   HN316872   6.322   1.793   6.714
  153SAPE   C1216873   6.254   1.599   6.680
  153SAPE  H12A16874   6.172   1.637   6.615
  153SAPE  H12B16875   6.219   1.572   6.782
  153SAPE   C1116876   6.302   1.457   6.628
  153SAPE  H11A16877   6.351   1.476   6.530
  153SAPE  H11B16878   6.216   1.391   6.606
  153SAPE     P16879   6.493   1.290   6.699
  153SAPE   O1316880   6.620   1.367   6.715
  153SAPE   O1416881   6.475   1.177   6.793
  153SAPE   O1216882   6.382   1.395   6.730
  153SAPE   O1116883   6.471   1.241   6.546
  153SAPE    C116884   6.573   1.167   6.477
  153SAPE    HA16885   6.589   1.219   6.380
  153SAPE    HB16886   6.662   1.139   6.537
  153SAPE    C216887   6.518   1.031   6.419
  153SAPE    HS16888   6.610   0.974   6.393
  153SAPE   O2116889   6.424   1.061   6.314
  153SAPE   C2116890   6.460   1.031   6.191
  153SAPE   O2216891   6.566   0.975   6.159
  153SAPE   C2216892   6.351   1.080   6.094
  153SAPE   H2R16893   6.268   1.134   6.144
  153SAPE   H2S16894   6.412   1.150   6.032
  153SAPE    C316895   6.447   0.944   6.531
  153SAPE    HX16896   6.355   0.997   6.564
  153SAPE    HY16897   6.507   0.941   6.625
  153SAPE   O3116898   6.415   0.808   6.484
  153SAPE   C3116899   6.515   0.717   6.499
  153SAPE   O3216900   6.628   0.735   6.540
  153SAPE   C3216901   6.462   0.585   6.452
  153SAPE   H2X16902   6.371   0.555   6.508
  153SAPE   H2Y16903   6.540   0.511   6.479
  153SAPE   C2316904   6.307   0.963   6.001
  153SAPE   H3R16905   6.245   0.891   6.060
  153SAPE   H3S16906   6.398   0.912   5.963
  153SAPE   C2416907   6.219   1.020   5.889
  153SAPE   H4R16908   6.136   1.087   5.919
  153SAPE   H4S16909   6.159   0.932   5.856
  153SAPE   C2516910   6.293   1.069   5.770
  153SAPE   H5R16911   6.392   1.028   5.745
  153SAPE   C2616912   6.244   1.172   5.687
  153SAPE   H6R16913   6.294   1.203   5.594
  153SAPE   C2716914   6.117   1.250   5.696
  153SAPE   H7R16915   6.144   1.357   5.691
  153SAPE   H7S16916   6.065   1.230   5.792
  153SAPE   C2816917   6.023   1.200   5.586
  153SAPE   H8R16918   5.971   1.107   5.612
  153SAPE   C2916919   5.981   1.259   5.476
  153SAPE   H9R16920   5.897   1.212   5.423
  153SAPE  C21016921   6.019   1.391   5.422
  153SAPE  H10R16922   5.972   1.393   5.321
  153SAPE  H10S16923   6.130   1.395   5.425
  153SAPE  C21116924   5.958   1.502   5.496
  153SAPE  H11R16925   5.957   1.500   5.606
  153SAPE  C21216926   5.907   1.616   5.439
  153SAPE  H12R16927   5.865   1.696   5.502
  153SAPE  C21316928   5.914   1.650   5.290
  153SAPE  H13R16929   5.877   1.560   5.236
  153SAPE  H13S16930   6.020   1.659   5.257
  153SAPE  C21416931   5.831   1.769   5.258
  153SAPE  H14R16932   5.759   1.800   5.336
  153SAPE  C21516933   5.834   1.847   5.153
  153SAPE  H15R16934   5.761   1.930   5.157
  153SAPE  C21616935   5.935   1.841   5.040
  153SAPE  H16R16936   6.019   1.774   5.070
  153SAPE  H16S16937   5.982   1.941   5.029
  153SAPE  C21716938   5.899   1.805   4.895
  153SAPE  H17R16939   5.837   1.887   4.853
  153SAPE  H17S16940   5.843   1.709   4.901
  153SAPE  C21816941   6.022   1.786   4.813
  153SAPE  H18R16942   6.076   1.698   4.855
  153SAPE  H18S16943   6.095   1.869   4.816
  153SAPE  C21916944   5.986   1.759   4.665
  153SAPE  H19R16945   6.076   1.793   4.609
  153SAPE  H19S16946   5.891   1.814   4.649
  153SAPE  C22016947   5.960   1.612   4.627
  153SAPE  H20R16948   5.905   1.541   4.692
  153SAPE  H20S16949   6.059   1.564   4.611
  153SAPE  H20T16950   5.915   1.616   4.526
  153SAPE   C3316951   6.444   0.571   6.297
  153SAPE   H3X16952   6.442   0.461   6.280
  153SAPE   H3Y16953   6.538   0.605   6.249
  153SAPE   C3416954   6.329   0.649   6.236
  153SAPE   H4X16955   6.351   0.758   6.232
  153SAPE   H4Y16956   6.239   0.647   6.302
  153SAPE   C3516957   6.283   0.597   6.101
  153SAPE   H5X16958   6.190   0.648   6.067
  153SAPE   H5Y16959   6.248   0.493   6.117
  153SAPE   C3616960   6.388   0.589   5.985
  153SAPE   H6X16961   6.484   0.554   6.030
  153SAPE   H6Y16962   6.379   0.684   5.928
  153SAPE   C3716963   6.373   0.471   5.887
  153SAPE   H7X16964   6.400   0.385   5.952
  153SAPE   H7Y16965   6.437   0.479   5.796
  153SAPE   C3816966   6.232   0.460   5.822
  153SAPE   H8X16967   6.155   0.474   5.900
  153SAPE   H8Y16968   6.211   0.369   5.762
  153SAPE   C3916969   6.216   0.564   5.710
  153SAPE   H9X16970   6.283   0.542   5.624
  153SAPE   H9Y16971   6.251   0.664   5.740
  153SAPE  C31016972   6.075   0.589   5.654
  153SAPE  H10X16973   6.089   0.683   5.596
  153SAPE  H10Y16974   5.996   0.606   5.730
  153SAPE  C31116975   6.029   0.485   5.560
  153SAPE  H11X16976   6.028   0.399   5.630
  153SAPE  H11Y16977   6.110   0.456   5.489
  153SAPE  C31216978   5.891   0.509   5.491
  153SAPE  H12X16979   5.900   0.589   5.415
  153SAPE  H12Y16980   5.817   0.532   5.571
  153SAPE  C31316981   5.859   0.378   5.421
  153SAPE  H13X16982   5.831   0.300   5.495
  153SAPE  H13Y16983   5.956   0.353   5.374
  153SAPE  C31416984   5.739   0.394   5.324
  153SAPE  H14X16985   5.782   0.458   5.244
  153SAPE  H14Y16986   5.653   0.451   5.365
  153SAPE  C31516987   5.686   0.258   5.266
  153SAPE  H15X16988   5.633   0.210   5.351
  153SAPE  H15Y16989   5.774   0.198   5.235
  153SAPE  C31616990   5.591   0.256   5.147
  153SAPE  H16X16991   5.526   0.346   5.155
  153SAPE  H16Y16992   5.536   0.160   5.147
  153SAPE  C31716993   5.657   0.269   5.005
  153SAPE  H17X16994   5.752   0.211   5.012
  153SAPE  H17Y16995   5.689   0.373   4.982
  153SAPE  C31816996   5.571   0.222   4.891
  153SAPE  H18X16997   5.521   0.127   4.917
  153SAPE  H18Y16998   5.636   0.210   4.801
  153SAPE  H18Z16999   5.490   0.298   4.882
  154SAPE     N17000   4.292   0.593   6.499
  154SAPE   HN117001   4.240   0.504   6.484
  154SAPE   HN217002   4.373   0.583   6.564
  154SAPE   HN317003   4.225   0.664   6.536
  154SAPE   C1217004   4.339   0.649   6.373
  154SAPE  H12A17005   4.384   0.567   6.313
  154SAPE  H12B17006   4.413   0.729   6.394
  154SAPE   C1117007   4.218   0.691   6.287
  154SAPE  H11A17008   4.235   0.714   6.180
  154SAPE  H11B17009   4.186   0.789   6.326
  154SAPE     P17010   3.961   0.612   6.287
  154SAPE   O1317011   3.898   0.477   6.292
  154SAPE   O1417012   3.924   0.710   6.390
  154SAPE   O1217013   4.118   0.585   6.292
  154SAPE   O1117014   3.952   0.672   6.149
  154SAPE    C117015   3.883   0.797   6.141
  154SAPE    HA17016   3.911   0.875   6.214
  154SAPE    HB17017   3.906   0.841   6.041
  154SAPE    C217018   3.729   0.795   6.153
  154SAPE    HS17019   3.695   0.736   6.241
  154SAPE   O2117020   3.676   0.730   6.040
  154SAPE   C2117021   3.657   0.602   6.045
  154SAPE   O2217022   3.658   0.535   6.150
  154SAPE   C2217023   3.623   0.545   5.912
  154SAPE   H2R17024   3.513   0.549   5.898
  154SAPE   H2S17025   3.679   0.605   5.838
  154SAPE    C317026   3.668   0.935   6.170
  154SAPE    HX17027   3.701   0.980   6.266
  154SAPE    HY17028   3.559   0.916   6.176
  154SAPE   O3117029   3.708   1.022   6.064
  154SAPE   C3117030   3.628   1.077   5.983
  154SAPE   O3217031   3.507   1.084   6.001
  154SAPE   C3217032   3.701   1.128   5.857
  154SAPE   H2X17033   3.752   1.034   5.826
  154SAPE   H2Y17034   3.783   1.191   5.897
  154SAPE   C2317035   3.678   0.400   5.903
  154SAPE   H3R17036   3.653   0.374   5.798
  154SAPE   H3S17037   3.624   0.334   5.974
  154SAPE   C2417038   3.838   0.403   5.903
  154SAPE   H4R17039   3.870   0.436   6.004
  154SAPE   H4S17040   3.862   0.486   5.833
  154SAPE   C2517041   3.908   0.269   5.879
  154SAPE   H5R17042   3.886   0.192   5.954
  154SAPE   C2617043   3.980   0.237   5.767
  154SAPE   H6R17044   4.037   0.143   5.756
  154SAPE   C2717045   4.010   0.339   5.660
  154SAPE   H7R17046   4.100   0.311   5.602
  154SAPE   H7S17047   4.034   0.440   5.700
  154SAPE   C2817048   3.893   0.366   5.564
  154SAPE   H8R17049   3.792   0.374   5.608
  154SAPE   C2917050   3.889   0.378   5.431
  154SAPE   H9R17051   3.798   0.418   5.384
  154SAPE  C21017052   4.004   0.372   5.340
  154SAPE  H10R17053   4.104   0.359   5.387
  154SAPE  H10S17054   4.014   0.472   5.294
  154SAPE  C21117055   3.996   0.267   5.230
  154SAPE  H11R17056   3.918   0.193   5.250
  154SAPE  C21217057   4.094   0.264   5.139
  154SAPE  H12R17058   4.077   0.187   5.062
  154SAPE  C21317059   4.210   0.359   5.113
  154SAPE  H13R17060   4.287   0.353   5.193
  154SAPE  H13S17061   4.177   0.464   5.106
  154SAPE  C21417062   4.289   0.317   4.987
  154SAPE  H14R17063   4.353   0.228   4.994
  154SAPE  C21517064   4.285   0.382   4.868
  154SAPE  H15R17065   4.328   0.332   4.779
  154SAPE  C21617066   4.201   0.505   4.843
  154SAPE  H16R17067   4.239   0.592   4.901
  154SAPE  H16S17068   4.095   0.496   4.874
  154SAPE  C21717069   4.200   0.528   4.690
  154SAPE  H17R17070   4.136   0.454   4.638
  154SAPE  H17S17071   4.301   0.519   4.644
  154SAPE  C21817072   4.144   0.671   4.647
  154SAPE  H18R17073   4.229   0.742   4.649
  154SAPE  H18S17074   4.067   0.711   4.717
  154SAPE  C21917075   4.084   0.685   4.502
  154SAPE  H19R17076   4.040   0.787   4.493
  154SAPE  H19S17077   4.005   0.607   4.502
  154SAPE  C22017078   4.184   0.658   4.389
  154SAPE  H20R17079   4.138   0.682   4.291
  154SAPE  H20S17080   4.226   0.556   4.378
  154SAPE  H20T17081   4.275   0.719   4.407
  154SAPE   C3317082   3.612   1.177   5.743
  154SAPE   H3X17083   3.571   1.280   5.752
  154SAPE   H3Y17084   3.526   1.107   5.739
  154SAPE   C3417085   3.675   1.185   5.603
  154SAPE   H4X17086   3.740   1.095   5.589
  154SAPE   H4Y17087   3.750   1.266   5.604
  154SAPE   C3517088   3.582   1.207   5.488
  154SAPE   H5X17089   3.502   1.284   5.491
  154SAPE   H5Y17090   3.536   1.107   5.481
  154SAPE   C3617091   3.661   1.232   5.357
  154SAPE   H6X17092   3.731   1.147   5.347
  154SAPE   H6Y17093   3.732   1.317   5.350
  154SAPE   C3717094   3.569   1.237   5.233
  154SAPE   H7X17095   3.520   1.337   5.228
  154SAPE   H7Y17096   3.486   1.166   5.252
  154SAPE   C3817097   3.651   1.212   5.101
  154SAPE   H8X17098   3.675   1.104   5.095
  154SAPE   H8Y17099   3.735   1.285   5.106
  154SAPE   C3917100   3.563   1.248   4.980
  154SAPE   H9X17101   3.537   1.356   4.986
  154SAPE   H9Y17102   3.460   1.207   4.985
  154SAPE  C31017103   3.631   1.206   4.850
  154SAPE  H10X17104   3.654   1.098   4.837
  154SAPE  H10Y17105   3.723   1.266   4.831
  154SAPE  C31117106   3.544   1.235   4.723
  154SAPE  H11X17107   3.543   1.346   4.712
  154SAPE  H11Y17108   3.446   1.182   4.724
  154SAPE  C31217109   3.623   1.185   4.598
  154SAPE  H12X17110   3.672   1.086   4.609
  154SAPE  H12Y17111   3.706   1.258   4.596
  154SAPE  C31317112   3.541   1.190   4.465
  154SAPE  H13X17113   3.474   1.278   4.454
  154SAPE  H13Y17114   3.470   1.104   4.466
  154SAPE  C31417115   3.646   1.177   4.354
  154SAPE  H14X17116   3.724   1.106   4.388
  154SAPE  H14Y17117   3.695   1.276   4.351
  154SAPE  C31517118   3.590   1.126   4.224
  154SAPE  H15X17119   3.545   1.027   4.244
  154SAPE  H15Y17120   3.665   1.113   4.144
  154SAPE  C31617121   3.475   1.212   4.165
  154SAPE  H16X17122   3.495   1.321   4.173
  154SAPE  H16Y17123   3.383   1.189   4.223
  154SAPE  C31717124   3.450   1.169   4.023
  154SAPE  H17X17125   3.348   1.211   4.006
  154SAPE  H17Y17126   3.448   1.058   4.016
  154SAPE  C31817127   3.559   1.221   3.932
  154SAPE  H18X17128   3.527   1.223   3.826
  154SAPE  H18Y17129   3.652   1.162   3.942
  154SAPE  H18Z17130   3.586   1.322   3.967
  155SAPE     N17131   5.588   5.512   6.950
  155SAPE   HN117132   5.572   5.416   6.987
  155SAPE   HN217133   5.632   5.569   7.025
  155SAPE   HN317134   5.494   5.555   6.934
  155SAPE   C1217135   5.668   5.499   6.824
  155SAPE  H12A17136   5.610   5.430   6.759
  155SAPE  H12B17137   5.772   5.463   6.838
  155SAPE   C1117138   5.659   5.639   6.752
  155SAPE  H11A17139   5.552   5.670   6.754
  155SAPE  H11B17140   5.685   5.625   6.645
  155SAPE     P17141   5.879   5.801   6.758
  155SAPE   O1317142   5.887   5.943   6.799
  155SAPE   O1417143   5.988   5.712   6.813
  155SAPE   O1217144   5.747   5.743   6.812
  155SAPE   O1117145   5.864   5.792   6.605
  155SAPE    C117146   5.960   5.707   6.537
  155SAPE    HA17147   6.062   5.723   6.577
  155SAPE    HB17148   5.927   5.602   6.554
  155SAPE    C217149   5.960   5.748   6.389
  155SAPE    HS17150   6.029   5.686   6.328
  155SAPE   O2117151   5.985   5.888   6.384
  155SAPE   C2117152   6.040   5.931   6.275
  155SAPE   O2217153   6.093   5.868   6.185
  155SAPE   C2217154   6.040   6.077   6.273
  155SAPE   H2R17155   5.955   6.118   6.332
  155SAPE   H2S17156   6.132   6.113   6.324
  155SAPE    C317157   5.819   5.713   6.335
  155SAPE    HX17158   5.754   5.798   6.365
  155SAPE    HY17159   5.779   5.620   6.382
  155SAPE   O3117160   5.817   5.711   6.187
  155SAPE   C3117161   5.849   5.586   6.133
  155SAPE   O3217162   5.879   5.489   6.196
  155SAPE   C3217163   5.864   5.611   5.984
  155SAPE   H2X17164   5.973   5.610   5.962
  155SAPE   H2Y17165   5.836   5.713   5.950
  155SAPE   C2317166   6.028   6.129   6.131
  155SAPE   H3R17167   6.063   6.063   6.049
  155SAPE   H3S17168   6.082   6.226   6.132
  155SAPE   C2417169   5.881   6.150   6.097
  155SAPE   H4R17170   5.835   6.230   6.159
  155SAPE   H4S17171   5.816   6.060   6.103
  155SAPE   C2517172   5.889   6.203   5.960
  155SAPE   H5R17173   5.945   6.298   5.954
  155SAPE   C2617174   5.842   6.142   5.851
  155SAPE   H6R17175   5.870   6.191   5.757
  155SAPE   C2717176   5.778   6.011   5.833
  155SAPE   H7R17177   5.697   6.014   5.757
  155SAPE   H7S17178   5.732   5.974   5.927
  155SAPE   C2817179   5.892   5.922   5.789
  155SAPE   H8R17180   5.952   5.875   5.869
  155SAPE   C2917181   5.930   5.900   5.659
  155SAPE   H9R17182   6.022   5.842   5.641
  155SAPE  C21017183   5.867   5.974   5.538
  155SAPE  H10R17184   5.766   6.015   5.562
  155SAPE  H10S17185   5.836   5.893   5.468
  155SAPE  C21117186   5.944   6.088   5.471
  155SAPE  H11R17187   5.962   6.173   5.539
  155SAPE  C21217188   5.968   6.100   5.338
  155SAPE  H12R17189   6.041   6.180   5.315
  155SAPE  C21317190   5.938   6.005   5.234
  155SAPE  H13R17191   5.839   5.969   5.268
  155SAPE  H13S17192   6.007   5.918   5.223
  155SAPE  C21417193   5.927   6.083   5.109
  155SAPE  H14R17194   5.894   6.188   5.114
  155SAPE  C21517195   5.915   6.027   4.992
  155SAPE  H15R17196   5.908   6.092   4.904
  155SAPE  C21617197   5.921   5.875   4.961
  155SAPE  H16R17198   5.829   5.832   5.006
  155SAPE  H16S17199   6.014   5.836   5.007
  155SAPE  C21717200   5.904   5.852   4.808
  155SAPE  H17R17201   5.811   5.904   4.775
  155SAPE  H17S17202   5.893   5.744   4.786
  155SAPE  C21817203   6.036   5.905   4.740
  155SAPE  H18R17204   6.119   5.876   4.807
  155SAPE  H18S17205   6.033   6.015   4.726
  155SAPE  C21917206   6.058   5.854   4.599
  155SAPE  H19R17207   6.089   5.748   4.592
  155SAPE  H19S17208   6.138   5.911   4.547
  155SAPE  C22017209   5.932   5.881   4.519
  155SAPE  H20R17210   5.843   5.829   4.560
  155SAPE  H20S17211   5.944   5.841   4.416
  155SAPE  H20T17212   5.921   5.992   4.520
  155SAPE   C3317213   5.799   5.501   5.896
  155SAPE   H3X17214   5.689   5.498   5.911
  155SAPE   H3Y17215   5.851   5.411   5.935
  155SAPE   C3417216   5.838   5.516   5.747
  155SAPE   H4X17217   5.948   5.526   5.743
  155SAPE   H4Y17218   5.813   5.620   5.718
  155SAPE   C3517219   5.783   5.406   5.657
  155SAPE   H5X17220   5.673   5.416   5.656
  155SAPE   H5Y17221   5.821   5.312   5.701
  155SAPE   C3617222   5.830   5.408   5.506
  155SAPE   H6X17223   5.787   5.322   5.450
  155SAPE   H6Y17224   5.939   5.390   5.502
  155SAPE   C3717225   5.785   5.544   5.445
  155SAPE   H7X17226   5.832   5.627   5.502
  155SAPE   H7Y17227   5.676   5.547   5.467
  155SAPE   C3817228   5.803   5.545   5.294
  155SAPE   H8X17229   5.903   5.508   5.265
  155SAPE   H8Y17230   5.802   5.646   5.249
  155SAPE   C3917231   5.715   5.441   5.212
  155SAPE   H9X17232   5.609   5.448   5.242
  155SAPE   H9Y17233   5.753   5.337   5.222
  155SAPE  C31017234   5.698   5.454   5.058
  155SAPE  H10X17235   5.646   5.552   5.050
  155SAPE  H10Y17236   5.633   5.375   5.015
  155SAPE  C31117237   5.827   5.438   4.987
  155SAPE  H11X17238   5.863   5.333   4.991
  155SAPE  H11Y17239   5.899   5.507   5.036
  155SAPE  C31217240   5.801   5.465   4.831
  155SAPE  H12X17241   5.762   5.568   4.818
  155SAPE  H12Y17242   5.730   5.391   4.787
  155SAPE  C31317243   5.932   5.475   4.739
  155SAPE  H13X17244   5.979   5.376   4.757
  155SAPE  H13Y17245   6.005   5.551   4.774
  155SAPE  C31417246   5.898   5.499   4.590
  155SAPE  H14X17247   5.864   5.604   4.582
  155SAPE  H14Y17248   5.815   5.438   4.548
  155SAPE  C31517249   6.017   5.454   4.506
  155SAPE  H15X17250   6.051   5.349   4.518
  155SAPE  H15Y17251   6.103   5.524   4.517
  155SAPE  C31617252   5.998   5.478   4.353
  155SAPE  H16X17253   5.932   5.565   4.333
  155SAPE  H16Y17254   5.929   5.397   4.318
  155SAPE  C31717255   6.126   5.489   4.276
  155SAPE  H17X17256   6.186   5.402   4.311
  155SAPE  H17Y17257   6.178   5.583   4.304
  155SAPE  C31817258   6.116   5.485   4.126
  155SAPE  H18X17259   6.211   5.501   4.072
  155SAPE  H18Y17260   6.050   5.571   4.104
  155SAPE  H18Z17261   6.074   5.390   4.084
  156SAPE     N17262   0.733   0.774   6.834
  156SAPE   HN117263   0.791   0.860   6.826
  156SAPE   HN217264   0.700   0.771   6.933
  156SAPE   HN317265   0.803   0.698   6.822
  156SAPE   C1217266   0.630   0.780   6.724
  156SAPE  H12A17267   0.580   0.879   6.731
  156SAPE  H12B17268   0.565   0.691   6.733
  156SAPE   C1117269   0.696   0.789   6.585
  156SAPE  H11A17270   0.766   0.875   6.588
  156SAPE  H11B17271   0.619   0.816   6.509
  156SAPE     P17272   0.732   0.552   6.475
  156SAPE   O1317273   0.833   0.526   6.376
  156SAPE   O1417274   0.687   0.444   6.562
  156SAPE   O1217275   0.772   0.670   6.571
  156SAPE   O1117276   0.607   0.622   6.407
  156SAPE    C117277   0.481   0.547   6.383
  156SAPE    HA17278   0.447   0.501   6.478
  156SAPE    HB17279   0.401   0.616   6.348
  156SAPE    C217280   0.486   0.438   6.271
  156SAPE    HS17281   0.554   0.359   6.310
  156SAPE   O2117282   0.514   0.498   6.144
  156SAPE   C2117283   0.612   0.429   6.077
  156SAPE   O2217284   0.666   0.332   6.127
  156SAPE   C2217285   0.627   0.497   5.940
  156SAPE   H2R17286   0.526   0.513   5.898
  156SAPE   H2S17287   0.678   0.594   5.958
  156SAPE    C317288   0.347   0.369   6.264
  156SAPE    HX17289   0.281   0.448   6.220
  156SAPE    HY17290   0.317   0.332   6.364
  156SAPE   O3117291   0.359   0.255   6.164
  156SAPE   C3117292   0.414   0.147   6.214
  156SAPE   O3217293   0.453   0.129   6.327
  156SAPE   C3217294   0.421   0.046   6.093
  156SAPE   H2X17295   0.367   6.813   6.137
  156SAPE   H2Y17296   0.523   0.011   6.067
  156SAPE   C2317297   0.708   0.414   5.836
  156SAPE   H3R17298   0.802   0.375   5.880
  156SAPE   H3S17299   0.737   0.484   5.755
  156SAPE   C2417300   0.612   0.304   5.774
  156SAPE   H4R17301   0.543   0.359   5.706
  156SAPE   H4S17302   0.542   0.272   5.854
  156SAPE   C2517303   0.685   0.191   5.710
  156SAPE   H5R17304   0.733   0.122   5.781
  156SAPE   C2617305   0.691   0.161   5.582
  156SAPE   H6R17306   0.754   0.075   5.555
  156SAPE   C2717307   0.631   0.236   5.466
  156SAPE   H7R17308   0.713   0.302   5.430
  156SAPE   H7S17309   0.550   0.301   5.508
  156SAPE   C2817310   0.563   0.147   5.362
  156SAPE   H8R17311   0.511   0.060   5.405
  156SAPE   C2917312   0.557   0.168   5.223
  156SAPE   H9R17313   0.498   0.108   5.152
  156SAPE  C21017314   0.627   0.287   5.163
  156SAPE  H10R17315   0.734   0.260   5.151
  156SAPE  H10S17316   0.629   0.385   5.216
  156SAPE  C21117317   0.569   0.311   5.017
  156SAPE  H11R17318   0.466   0.349   5.012
  156SAPE  C21217319   0.624   0.283   4.894
  156SAPE  H12R17320   0.563   0.310   4.807
  156SAPE  C21317321   0.761   0.229   4.861
  156SAPE  H13R17322   0.746   0.145   4.790
  156SAPE  H13S17323   0.812   0.197   4.954
  156SAPE  C21417324   0.844   0.338   4.790
  156SAPE  H14R17325   0.895   0.409   4.856
  156SAPE  C21517326   0.847   0.357   4.655
  156SAPE  H15R17327   0.896   0.449   4.618
  156SAPE  C21617328   0.776   0.280   4.547
  156SAPE  H16R17329   0.706   0.209   4.596
  156SAPE  H16S17330   0.849   0.217   4.491
  156SAPE  C21717331   0.696   0.380   4.450
  156SAPE  H17R17332   0.752   0.473   4.432
  156SAPE  H17S17333   0.602   0.402   4.506
  156SAPE  C21817334   0.628   0.314   4.329
  156SAPE  H18R17335   0.547   0.247   4.362
  156SAPE  H18S17336   0.703   0.265   4.262
  156SAPE  C21917337   0.546   0.419   4.248
  156SAPE  H19R17338   0.608   0.508   4.227
  156SAPE  H19S17339   0.465   0.458   4.313
  156SAPE  C22017340   0.493   0.349   4.123
  156SAPE  H20R17341   0.450   0.424   4.053
  156SAPE  H20S17342   0.415   0.274   4.145
  156SAPE  H20T17343   0.576   0.301   4.067
  156SAPE   C3317344   0.339   0.088   5.965
  156SAPE   H3X17345   0.379   0.181   5.920
  156SAPE   H3Y17346   0.232   0.108   5.988
  156SAPE   C3417347   0.348   6.837   5.857
  156SAPE   H4X17348   0.310   6.740   5.895
  156SAPE   H4Y17349   0.455   6.815   5.836
  156SAPE   C3517350   0.277   0.028   5.725
  156SAPE   H5X17351   0.322   0.124   5.692
  156SAPE   H5Y17352   0.168   0.040   5.744
  156SAPE   C3617353   0.293   6.771   5.621
  156SAPE   H6X17354   0.250   6.675   5.655
  156SAPE   H6Y17355   0.401   6.753   5.599
  156SAPE   C3717356   0.216   6.791   5.495
  156SAPE   H7X17357   0.241   0.041   5.465
  156SAPE   H7Y17358   0.109   6.786   5.521
  156SAPE   C3817359   0.252   6.708   5.377
  156SAPE   H8X17360   0.187   6.619   5.373
  156SAPE   H8Y17361   0.354   6.672   5.400
  156SAPE   C3917362   0.248   6.783   5.243
  156SAPE   H9X17363   0.319   0.014   5.230
  156SAPE   H9Y17364   0.146   6.816   5.215
  156SAPE  C31017365   0.314   6.686   5.131
  156SAPE  H10X17366   0.408   6.645   5.172
  156SAPE  H10Y17367   0.319   6.748   5.039
  156SAPE  C31117368   0.222   6.568   5.099
  156SAPE  H11X17369   0.118   6.606   5.106
  156SAPE  H11Y17370   0.235   6.501   5.186
  156SAPE  C31217371   0.248   6.495   4.968
  156SAPE  H12X17372   0.227   6.563   4.882
  156SAPE  H12Y17373   0.175   6.410   4.961
  156SAPE  C31317374   0.390   6.439   4.963
  156SAPE  H13X17375   0.421   6.390   5.057
  156SAPE  H13Y17376   0.461   6.524   4.962
  156SAPE  C31417377   0.404   6.339   4.846
  156SAPE  H14X17378   0.350   6.384   4.761
  156SAPE  H14Y17379   0.344   6.248   4.868
  156SAPE  C31517380   0.551   6.323   4.808
  156SAPE  H15X17381   0.606   6.271   4.889
  156SAPE  H15Y17382   0.611   6.413   4.786
  156SAPE  C31617383   0.557   6.232   4.684
  156SAPE  H16X17384   0.531   6.292   4.595
  156SAPE  H16Y17385   0.479   6.156   4.706
  156SAPE  C31717386   0.683   6.160   4.673
  156SAPE  H17X17387   0.727   6.121   4.767
  156SAPE  H17Y17388   0.755   6.229   4.625
  156SAPE  C31817389   0.663   6.041   4.575
  156SAPE  H18X17390   0.756   5.981   4.561
  156SAPE  H18Y17391   0.637   6.083   4.476
  156SAPE  H18Z17392   0.580   5.972   4.601
  157SAPE     N17393   0.747   6.722   7.022
  157SAPE   HN117394   0.849   6.707   7.008
  157SAPE   HN217395   0.713   6.820   7.015
  157SAPE   HN317396   0.710   6.679   7.109
  157SAPE   C1217397   0.682   6.639   6.916
  157SAPE  H12A17398   0.737   6.660   6.821
  157SAPE  H12B17399   0.576   6.669   6.901
  157SAPE   C1117400   0.705   6.487   6.945
  157SAPE  H11A17401   0.660   6.421   6.868
  157SAPE  H11B17402   0.642   6.456   7.031
  157SAPE     P17403   0.889   6.312   6.961
  157SAPE   O1317404   1.039   6.309   6.970
  157SAPE   O1417405   0.830   6.227   7.065
  157SAPE   O1217406   0.841   6.459   6.973
  157SAPE   O1117407   0.846   6.268   6.815
  157SAPE    C117408   0.859   6.347   6.698
  157SAPE    HA17409   0.868   6.456   6.721
  157SAPE    HB17410   0.954   6.321   6.645
  157SAPE    C217411   0.742   6.321   6.597
  157SAPE    HS17412   0.650   6.337   6.658
  157SAPE   O2117413   0.753   6.179   6.562
  157SAPE   C2117414   0.637   6.135   6.507
  157SAPE   O2217415   0.537   6.203   6.507
  157SAPE   C2217416   0.646   5.991   6.481
  157SAPE   H2R17417   0.749   5.953   6.497
  157SAPE   H2S17418   0.577   5.944   6.555
  157SAPE    C317419   0.745   6.419   6.474
  157SAPE    HX17420   0.719   6.511   6.531
  157SAPE    HY17421   0.661   6.398   6.405
  157SAPE   O3117422   0.877   6.421   6.401
  157SAPE   C3117423   0.933   6.540   6.401
  157SAPE   O3217424   0.886   6.641   6.447
  157SAPE   C3217425   1.069   6.539   6.320
  157SAPE   H2X17426   1.122   6.443   6.340
  157SAPE   H2Y17427   1.126   6.627   6.357
  157SAPE   C2317428   0.589   5.973   6.333
  157SAPE   H3R17429   0.490   6.020   6.318
  157SAPE   H3S17430   0.580   5.862   6.326
  157SAPE   C2417431   0.684   6.007   6.214
  157SAPE   H4R17432   0.638   5.978   6.117
  157SAPE   H4S17433   0.768   5.934   6.224
  157SAPE   C2517434   0.731   6.152   6.208
  157SAPE   H5R17435   0.823   6.173   6.265
  157SAPE   C2617436   0.669   6.256   6.142
  157SAPE   H6R17437   0.704   6.360   6.141
  157SAPE   C2717438   0.547   6.246   6.055
  157SAPE   H7R17439   0.489   6.155   6.080
  157SAPE   H7S17440   0.574   6.238   5.948
  157SAPE   C2817441   0.461   6.366   6.071
  157SAPE   H8R17442   0.455   6.411   6.171
  157SAPE   C2917443   0.381   6.425   5.977
  157SAPE   H9R17444   0.316   6.508   6.008
  157SAPE  C21017445   0.366   6.383   5.835
  157SAPE  H10R17446   0.261   6.361   5.806
  157SAPE  H10S17447   0.396   6.278   5.813
  157SAPE  C21117448   0.424   6.480   5.736
  157SAPE  H11R17449   0.469   6.569   5.781
  157SAPE  C21217450   0.454   6.454   5.603
  157SAPE  H12R17451   0.502   6.533   5.543
  157SAPE  C21317452   0.423   6.315   5.533
  157SAPE  H13R17453   0.362   6.244   5.593
  157SAPE  H13S17454   0.522   6.263   5.531
  157SAPE  C21417455   0.360   6.335   5.394
  157SAPE  H14R17456   0.296   6.423   5.380
  157SAPE  C21517457   0.385   6.253   5.292
  157SAPE  H15R17458   0.337   6.261   5.193
  157SAPE  C21617459   0.484   6.141   5.297
  157SAPE  H16R17460   0.499   6.098   5.399
  157SAPE  H16S17461   0.582   6.191   5.279
  157SAPE  C21717462   0.471   6.020   5.204
  157SAPE  H17R17463   0.398   5.955   5.256
  157SAPE  H17S17464   0.563   5.958   5.196
  157SAPE  C21817465   0.409   6.052   5.062
  157SAPE  H18R17466   0.461   6.144   5.027
  157SAPE  H18S17467   0.301   6.076   5.072
  157SAPE  C21917468   0.431   5.954   4.957
  157SAPE  H19R17469   0.529   5.905   4.977
  157SAPE  H19S17470   0.446   6.005   4.859
  157SAPE  C22017471   0.315   5.852   4.947
  157SAPE  H20R17472   0.336   5.789   4.858
  157SAPE  H20S17473   0.213   5.893   4.929
  157SAPE  H20T17474   0.316   5.789   5.038
  157SAPE   C3317475   1.052   6.556   6.166
  157SAPE   H3X17476   1.002   6.464   6.128
  157SAPE   H3Y17477   1.156   6.550   6.127
  157SAPE   C3417478   0.988   6.690   6.118
  157SAPE   H4X17479   1.017   6.773   6.185
  157SAPE   H4Y17480   0.882   6.678   6.149
  157SAPE   C3517481   0.993   6.722   5.966
  157SAPE   H5X17482   1.096   6.732   5.927
  157SAPE   H5Y17483   0.948   6.823   5.950
  157SAPE   C3617484   0.905   6.630   5.882
  157SAPE   H6X17485   0.801   6.669   5.878
  157SAPE   H6Y17486   0.905   6.532   5.935
  157SAPE   C3717487   0.933   6.611   5.733
  157SAPE   H7X17488   1.036   6.582   5.705
  157SAPE   H7Y17489   0.921   6.707   5.677
  157SAPE   C3817490   0.846   6.498   5.668
  157SAPE   H8X17491   0.740   6.530   5.672
  157SAPE   H8Y17492   0.855   6.410   5.736
  157SAPE   C3917493   0.866   6.472   5.521
  157SAPE   H9X17494   0.812   6.379   5.494
  157SAPE   H9Y17495   0.973   6.457   5.493
  157SAPE  C31017496   0.820   6.599   5.451
  157SAPE  H10X17497   0.895   6.682   5.459
  157SAPE  H10Y17498   0.723   6.637   5.489
  157SAPE  C31117499   0.798   6.561   5.300
  157SAPE  H11X17500   0.733   6.472   5.294
  157SAPE  H11Y17501   0.897   6.543   5.254
  157SAPE  C31217502   0.732   6.678   5.212
  157SAPE  H12X17503   0.799   6.764   5.228
  157SAPE  H12Y17504   0.635   6.712   5.254
  157SAPE  C31317505   0.700   6.639   5.064
  157SAPE  H13X17506   0.640   6.547   5.050
  157SAPE  H13Y17507   0.792   6.606   5.010
  157SAPE  C31417508   0.638   6.753   4.977
  157SAPE  H14X17509   0.715   6.833   4.992
  157SAPE  H14Y17510   0.538   6.767   5.023
  157SAPE  C31517511   0.623   6.714   4.833
  157SAPE  H15X17512   0.598   6.606   4.837
  157SAPE  H15Y17513   0.713   6.731   4.770
  157SAPE  C31617514   0.499   6.776   4.776
  157SAPE  H16X17515   0.512   0.032   4.780
  157SAPE  H16Y17516   0.414   6.757   4.845
  157SAPE  C31717517   0.464   6.737   4.637
  157SAPE  H17X17518   0.360   6.756   4.603
  157SAPE  H17Y17519   0.462   6.629   4.609
  157SAPE  C31817520   0.551   6.809   4.528
  157SAPE  H18X17521   0.557   0.063   4.551
  157SAPE  H18Y17522   0.507   6.786   4.429
  157SAPE  H18Z17523   0.656   6.774   4.535
  158SAPE     N17524   3.101   5.247   6.903
  158SAPE   HN117525   3.037   5.297   6.838
  158SAPE   HN217526   3.071   5.282   6.996
  158SAPE   HN317527   3.196   5.290   6.897
  158SAPE   C1217528   3.098   5.095   6.897
  158SAPE  H12A17529   2.992   5.068   6.913
  158SAPE  H12B17530   3.151   5.048   6.983
  158SAPE   C1117531   3.153   5.036   6.764
  158SAPE  H11A17532   3.091   5.072   6.679
  158SAPE  H11B17533   3.141   4.926   6.769
  158SAPE     P17534   3.339   5.159   6.633
  158SAPE   O1317535   3.315   5.305   6.653
  158SAPE   O1417536   3.483   5.136   6.602
  158SAPE   O1217537   3.290   5.075   6.752
  158SAPE   O1117538   3.245   5.116   6.514
  158SAPE    C117539   3.253   4.987   6.454
  158SAPE    HA17540   3.325   4.920   6.505
  158SAPE    HB17541   3.154   4.935   6.450
  158SAPE    C217542   3.260   4.998   6.296
  158SAPE    HS17543   3.356   5.046   6.267
  158SAPE   O2117544   3.146   5.072   6.250
  158SAPE   C2117545   3.169   5.199   6.216
  158SAPE   O2217546   3.264   5.271   6.241
  158SAPE   C2217547   3.049   5.228   6.122
  158SAPE   H2R17548   2.996   5.135   6.094
  158SAPE   H2S17549   2.984   5.289   6.188
  158SAPE    C317550   3.270   4.864   6.223
  158SAPE    HX17551   3.182   4.806   6.259
  158SAPE    HY17552   3.359   4.812   6.265
  158SAPE   O3117553   3.269   4.868   6.076
  158SAPE   C3117554   3.377   4.938   6.026
  158SAPE   O3217555   3.469   4.981   6.090
  158SAPE   C3217556   3.354   4.961   5.875
  158SAPE   H2X17557   3.250   5.001   5.872
  158SAPE   H2Y17558   3.356   4.863   5.822
  158SAPE   C2317559   3.097   5.319   6.000
  158SAPE   H3R17560   3.177   5.275   5.937
  158SAPE   H3S17561   3.147   5.405   6.050
  158SAPE   C2417562   2.980   5.369   5.912
  158SAPE   H4R17563   2.924   5.287   5.863
  158SAPE   H4S17564   3.027   5.427   5.829
  158SAPE   C2517565   2.880   5.463   5.972
  158SAPE   H5R17566   2.842   5.425   6.068
  158SAPE   C2617567   2.845   5.586   5.930
  158SAPE   H6R17568   2.766   5.641   5.983
  158SAPE   C2717569   2.892   5.665   5.811
  158SAPE   H7R17570   2.903   5.601   5.720
  158SAPE   H7S17571   2.995   5.699   5.835
  158SAPE   C2817572   2.818   5.799   5.774
  158SAPE   H8R17573   2.733   5.831   5.836
  158SAPE   C2917574   2.856   5.892   5.686
  158SAPE   H9R17575   2.786   5.975   5.667
  158SAPE  C21017576   2.966   5.891   5.587
  158SAPE  H10R17577   2.927   5.910   5.485
  158SAPE  H10S17578   3.009   5.791   5.567
  158SAPE  C21117579   3.078   5.986   5.616
  158SAPE  H11R17580   3.101   5.993   5.724
  158SAPE  C21217581   3.138   6.073   5.530
  158SAPE  H12R17582   3.229   6.121   5.568
  158SAPE  C21317583   3.125   6.076   5.382
  158SAPE  H13R17584   3.146   6.181   5.352
  158SAPE  H13S17585   3.021   6.068   5.346
  158SAPE  C21417586   3.223   5.988   5.304
  158SAPE  H14R17587   3.310   5.955   5.363
  158SAPE  C21517588   3.217   5.958   5.174
  158SAPE  H15R17589   3.281   5.877   5.136
  158SAPE  C21617590   3.112   6.008   5.073
  158SAPE  H16R17591   3.037   6.075   5.120
  158SAPE  H16S17592   3.046   5.927   5.036
  158SAPE  C21717593   3.173   6.088   4.954
  158SAPE  H17R17594   3.233   6.176   4.987
  158SAPE  H17S17595   3.087   6.126   4.894
  158SAPE  C21817596   3.263   6.008   4.852
  158SAPE  H18R17597   3.343   5.957   4.910
  158SAPE  H18S17598   3.319   6.077   4.785
  158SAPE  C21917599   3.180   5.900   4.776
  158SAPE  H19R17600   3.109   5.941   4.702
  158SAPE  H19S17601   3.119   5.837   4.844
  158SAPE  C22017602   3.261   5.794   4.695
  158SAPE  H20R17603   3.195   5.755   4.615
  158SAPE  H20S17604   3.295   5.710   4.760
  158SAPE  H20T17605   3.344   5.847   4.643
  158SAPE   C3317606   3.465   5.058   5.833
  158SAPE   H3X17607   3.568   5.015   5.830
  158SAPE   H3Y17608   3.452   5.148   5.896
  158SAPE   C3417609   3.451   5.102   5.688
  158SAPE   H4X17610   3.515   5.191   5.678
  158SAPE   H4Y17611   3.344   5.124   5.667
  158SAPE   C3517612   3.488   4.984   5.592
  158SAPE   H5X17613   3.428   4.896   5.625
  158SAPE   H5Y17614   3.598   4.975   5.598
  158SAPE   C3617615   3.451   5.012   5.442
  158SAPE   H6X17616   3.343   5.034   5.449
  158SAPE   H6Y17617   3.468   4.914   5.392
  158SAPE   C3717618   3.533   5.110   5.366
  158SAPE   H7X17619   3.641   5.084   5.367
  158SAPE   H7Y17620   3.520   5.209   5.416
  158SAPE   C3817621   3.506   5.114   5.212
  158SAPE   H8X17622   3.587   5.169   5.159
  158SAPE   H8Y17623   3.405   5.154   5.189
  158SAPE   C3917624   3.502   4.973   5.153
  158SAPE   H9X17625   3.411   4.913   5.177
  158SAPE   H9Y17626   3.579   4.907   5.198
  158SAPE  C31017627   3.520   4.977   4.993
  158SAPE  H10X17628   3.526   4.869   4.969
  158SAPE  H10Y17629   3.617   5.027   4.973
  158SAPE  C31117630   3.401   5.046   4.912
  158SAPE  H11X17631   3.392   5.150   4.953
  158SAPE  H11Y17632   3.314   4.987   4.947
  158SAPE  C31217633   3.429   5.053   4.761
  158SAPE  H12X17634   3.494   4.966   4.735
  158SAPE  H12Y17635   3.475   5.153   4.749
  158SAPE  C31317636   3.299   5.062   4.672
  158SAPE  H13X17637   3.239   5.152   4.697
  158SAPE  H13Y17638   3.229   4.979   4.693
  158SAPE  C31417639   3.345   5.064   4.527
  158SAPE  H14X17640   3.410   4.976   4.510
  158SAPE  H14Y17641   3.413   5.151   4.514
  158SAPE  C31517642   3.230   5.059   4.421
  158SAPE  H15X17643   3.154   5.137   4.442
  158SAPE  H15Y17644   3.188   4.958   4.438
  158SAPE  C31617645   3.292   5.069   4.280
  158SAPE  H16X17646   3.348   4.981   4.241
  158SAPE  H16Y17647   3.363   5.154   4.271
  158SAPE  C31717648   3.177   5.089   4.181
  158SAPE  H17X17649   3.123   5.184   4.206
  158SAPE  H17Y17650   3.104   5.005   4.185
  158SAPE  C31817651   3.228   5.085   4.036
  158SAPE  H18X17652   3.299   5.170   4.028
  158SAPE  H18Y17653   3.145   5.102   3.965
  158SAPE  H18Z17654   3.291   4.997   4.010
  159SAPE     N17655   5.215   2.262   2.369
  159SAPE   HN117656   5.294   2.231   2.429
  159SAPE   HN217657   5.204   2.357   2.410
  159SAPE   HN317658   5.122   2.216   2.380
  159SAPE   C1217659   5.257   2.282   2.228
  159SAPE  H12A17660   5.179   2.231   2.167
  159SAPE  H12B17661   5.351   2.227   2.208
  159SAPE   C1117662   5.274   2.424   2.185
  159SAPE  H11A17663   5.179   2.481   2.192
  159SAPE  H11B17664   5.311   2.428   2.080
  159SAPE     P17665   5.526   2.502   2.254
  159SAPE   O1317666   5.586   2.409   2.355
  159SAPE   O1417667   5.569   2.486   2.110
  159SAPE   O1217668   5.371   2.483   2.267
  159SAPE   O1117669   5.543   2.646   2.301
  159SAPE    C117670   5.501   2.695   2.432
  159SAPE    HA17671   5.462   2.798   2.417
  159SAPE    HB17672   5.413   2.635   2.464
  159SAPE    C217673   5.615   2.687   2.538
  159SAPE    HS17674   5.629   2.580   2.564
  159SAPE   O2117675   5.575   2.755   2.662
  159SAPE   C2117676   5.485   2.702   2.731
  159SAPE   O2217677   5.409   2.611   2.714
  159SAPE   C2217678   5.484   2.776   2.871
  159SAPE   H2R17679   5.589   2.797   2.898
  159SAPE   H2S17680   5.438   2.877   2.861
  159SAPE    C317681   5.751   2.731   2.491
  159SAPE    HX17682   5.751   2.827   2.434
  159SAPE    HY17683   5.794   2.654   2.423
  159SAPE   O3117684   5.844   2.735   2.602
  159SAPE   C3117685   5.853   2.854   2.660
  159SAPE   O3217686   5.830   2.965   2.615
  159SAPE   C3217687   5.915   2.830   2.799
  159SAPE   H2X17688   6.013   2.779   2.781
  159SAPE   H2Y17689   5.841   2.766   2.851
  159SAPE   C2317690   5.406   2.684   2.972
  159SAPE   H3R17691   5.469   2.595   2.995
  159SAPE   H3S17692   5.314   2.645   2.924
  159SAPE   C2417693   5.361   2.756   3.100
  159SAPE   H4R17694   5.449   2.802   3.150
  159SAPE   H4S17695   5.324   2.686   3.178
  159SAPE   C2517696   5.256   2.854   3.053
  159SAPE   H5R17697   5.170   2.810   3.001
  159SAPE   C2617698   5.259   2.993   3.071
  159SAPE   H6R17699   5.165   3.049   3.059
  159SAPE   C2717700   5.367   3.075   3.136
  159SAPE   H7R17701   5.458   3.016   3.163
  159SAPE   H7S17702   5.317   3.112   3.227
  159SAPE   C2817703   5.409   3.192   3.038
  159SAPE   H8R17704   5.459   3.160   2.945
  159SAPE   C2917705   5.382   3.319   3.060
  159SAPE   H9R17706   5.400   3.398   2.986
  159SAPE  C21017707   5.298   3.366   3.178
  159SAPE  H10R17708   5.248   3.284   3.234
  159SAPE  H10S17709   5.218   3.432   3.137
  159SAPE  C21117710   5.389   3.453   3.264
  159SAPE  H11R17711   5.459   3.518   3.210
  159SAPE  C21217712   5.391   3.480   3.396
  159SAPE  H12R17713   5.473   3.531   3.447
  159SAPE  C21317714   5.293   3.418   3.491
  159SAPE  H13R17715   5.212   3.363   3.437
  159SAPE  H13S17716   5.247   3.506   3.541
  159SAPE  C21417717   5.352   3.331   3.595
  159SAPE  H14R17718   5.458   3.347   3.620
  159SAPE  C21517719   5.282   3.243   3.669
  159SAPE  H15R17720   5.341   3.184   3.741
  159SAPE  C21617721   5.138   3.202   3.653
  159SAPE  H16R17722   5.071   3.289   3.638
  159SAPE  H16S17723   5.098   3.173   3.753
  159SAPE  C21717724   5.109   3.086   3.549
  159SAPE  H17R17725   5.188   3.090   3.470
  159SAPE  H17S17726   5.011   3.099   3.497
  159SAPE  C21817727   5.119   2.950   3.611
  159SAPE  H18R17728   5.057   2.936   3.702
  159SAPE  H18S17729   5.225   2.924   3.632
  159SAPE  C21917730   5.072   2.841   3.512
  159SAPE  H19R17731   4.978   2.868   3.458
  159SAPE  H19S17732   5.055   2.744   3.563
  159SAPE  C22017733   5.182   2.818   3.404
  159SAPE  H20R17734   5.155   2.863   3.306
  159SAPE  H20S17735   5.181   2.710   3.377
  159SAPE  H20T17736   5.286   2.843   3.433
  159SAPE   C3317737   5.958   2.952   2.877
  159SAPE   H3X17738   5.870   3.010   2.912
  159SAPE   H3Y17739   6.018   3.020   2.813
  159SAPE   C3417740   6.042   2.910   2.995
  159SAPE   H4X17741   6.082   3.001   3.045
  159SAPE   H4Y17742   6.127   2.845   2.966
  159SAPE   C3517743   5.974   2.837   3.106
  159SAPE   H5X17744   6.053   2.819   3.182
  159SAPE   H5Y17745   5.948   2.733   3.075
  159SAPE   C3617746   5.864   2.906   3.183
  159SAPE   H6X17747   5.775   2.932   3.122
  159SAPE   H6Y17748   5.908   3.005   3.206
  159SAPE   C3717749   5.822   2.843   3.315
  159SAPE   H7X17750   5.905   2.828   3.387
  159SAPE   H7Y17751   5.803   2.738   3.284
  159SAPE   C3817752   5.706   2.911   3.381
  159SAPE   H8X17753   5.702   2.867   3.483
  159SAPE   H8Y17754   5.609   2.883   3.336
  159SAPE   C3917755   5.725   3.062   3.383
  159SAPE   H9X17756   5.717   3.115   3.285
  159SAPE   H9Y17757   5.828   3.090   3.414
  159SAPE  C31017758   5.633   3.138   3.478
  159SAPE  H10X17759   5.528   3.134   3.441
  159SAPE  H10Y17760   5.672   3.241   3.463
  159SAPE  C31117761   5.636   3.084   3.623
  159SAPE  H11X17762   5.576   2.990   3.628
  159SAPE  H11Y17763   5.589   3.160   3.688
  159SAPE  C31217764   5.772   3.067   3.688
  159SAPE  H12X17765   5.826   3.164   3.681
  159SAPE  H12Y17766   5.831   2.989   3.635
  159SAPE  C31317767   5.783   3.042   3.836
  159SAPE  H13X17768   5.741   2.940   3.843
  159SAPE  H13Y17769   5.706   3.099   3.893
  159SAPE  C31417770   5.918   3.061   3.907
  159SAPE  H14X17771   5.992   2.988   3.867
  159SAPE  H14Y17772   5.903   3.034   4.013
  159SAPE  C31517773   5.950   3.209   3.916
  159SAPE  H15X17774   5.880   3.252   3.991
  159SAPE  H15Y17775   5.927   3.261   3.820
  159SAPE  C31617776   6.089   3.241   3.975
  159SAPE  H16X17777   6.074   3.247   4.084
  159SAPE  H16Y17778   6.117   3.345   3.948
  159SAPE  C31717779   6.205   3.138   3.962
  159SAPE  H17X17780   6.241   3.125   3.858
  159SAPE  H17Y17781   6.161   3.041   3.994
  159SAPE  C31817782   6.313   3.165   4.065
  159SAPE  H18X17783   6.256   3.185   4.159
  159SAPE  H18Y17784   6.377   3.250   4.033
  159SAPE  H18Z17785   6.380   3.079   4.087
  160SAPE     N17786   5.494   1.372   2.235
  160SAPE   HN117787   5.473   1.331   2.141
  160SAPE   HN217788   5.597   1.364   2.248
  160SAPE   HN317789   5.446   1.319   2.310
  160SAPE   C1217790   5.455   1.519   2.239
  160SAPE  H12A17791   5.524   1.584   2.182
  160SAPE  H12B17792   5.475   1.554   2.343
  160SAPE   C1117793   5.302   1.541   2.221
  160SAPE  H11A17794   5.277   1.649   2.220
  160SAPE  H11B17795   5.255   1.495   2.311
  160SAPE     P17796   5.162   1.337   2.116
  160SAPE   O1317797   5.111   1.299   1.983
  160SAPE   O1417798   5.254   1.234   2.173
  160SAPE   O1217799   5.247   1.479   2.104
  160SAPE   O1117800   5.046   1.359   2.215
  160SAPE    C117801   4.940   1.443   2.163
  160SAPE    HA17802   4.980   1.524   2.099
  160SAPE    HB17803   4.855   1.392   2.113
  160SAPE    C217804   4.870   1.510   2.282
  160SAPE    HS17805   4.789   1.579   2.248
  160SAPE   O2117806   4.968   1.572   2.365
  160SAPE   C2117807   4.941   1.693   2.409
  160SAPE   O2217808   4.846   1.763   2.383
  160SAPE   C2217809   5.040   1.739   2.518
  160SAPE   H2R17810   5.138   1.689   2.501
  160SAPE   H2S17811   5.065   1.845   2.497
  160SAPE    C317812   4.788   1.408   2.369
  160SAPE    HX17813   4.837   1.309   2.356
  160SAPE    HY17814   4.683   1.404   2.333
  160SAPE   O3117815   4.789   1.443   2.511
  160SAPE   C3117816   4.707   1.364   2.583
  160SAPE   O3217817   4.659   1.260   2.538
  160SAPE   C3217818   4.695   1.415   2.725
  160SAPE   H2X17819   4.611   1.487   2.741
  160SAPE   H2Y17820   4.785   1.476   2.747
  160SAPE   C2317821   4.996   1.713   2.666
  160SAPE   H3R17822   4.991   1.602   2.678
  160SAPE   H3S17823   4.902   1.771   2.682
  160SAPE   C2417824   5.105   1.761   2.757
  160SAPE   H4R17825   5.113   1.872   2.756
  160SAPE   H4S17826   5.209   1.727   2.737
  160SAPE   C2517827   5.067   1.727   2.901
  160SAPE   H5R17828   4.982   1.785   2.938
  160SAPE   C2617829   5.131   1.629   2.973
  160SAPE   H6R17830   5.103   1.604   3.076
  160SAPE   C2717831   5.232   1.537   2.920
  160SAPE   H7R17832   5.298   1.495   2.999
  160SAPE   H7S17833   5.306   1.596   2.863
  160SAPE   C2817834   5.176   1.426   2.838
  160SAPE   H8R17835   5.105   1.450   2.757
  160SAPE   C2917836   5.199   1.292   2.850
  160SAPE   H9R17837   5.160   1.233   2.766
  160SAPE  C21017838   5.289   1.225   2.958
  160SAPE  H10R17839   5.338   1.297   3.027
  160SAPE  H10S17840   5.374   1.175   2.906
  160SAPE  C21117841   5.222   1.123   3.042
  160SAPE  H11R17842   5.228   1.022   2.999
  160SAPE  C21217843   5.178   1.134   3.166
  160SAPE  H12R17844   5.136   1.040   3.204
  160SAPE  C21317845   5.184   1.264   3.239
  160SAPE  H13R17846   5.087   1.299   3.281
  160SAPE  H13S17847   5.205   1.350   3.172
  160SAPE  C21417848   5.293   1.260   3.346
  160SAPE  H14R17849   5.392   1.239   3.303
  160SAPE  C21517850   5.273   1.257   3.484
  160SAPE  H15R17851   5.362   1.231   3.543
  160SAPE  C21617852   5.143   1.264   3.555
  160SAPE  H16R17853   5.078   1.184   3.512
  160SAPE  H16S17854   5.099   1.364   3.535
  160SAPE  C21717855   5.162   1.231   3.703
  160SAPE  H17R17856   5.214   1.135   3.723
  160SAPE  H17S17857   5.057   1.217   3.736
  160SAPE  C21817858   5.222   1.348   3.782
  160SAPE  H18R17859   5.163   1.434   3.744
  160SAPE  H18S17860   5.319   1.358   3.728
  160SAPE  C21917861   5.231   1.332   3.933
  160SAPE  H19R17862   5.134   1.297   3.974
  160SAPE  H19S17863   5.257   1.430   3.978
  160SAPE  C22017864   5.350   1.243   3.972
  160SAPE  H20R17865   5.328   1.141   3.935
  160SAPE  H20S17866   5.362   1.243   4.083
  160SAPE  H20T17867   5.445   1.270   3.921
  160SAPE   C3317868   4.679   1.297   2.826
  160SAPE   H3X17869   4.762   1.225   2.812
  160SAPE   H3Y17870   4.582   1.243   2.818
  160SAPE   C3417871   4.681   1.350   2.971
  160SAPE   H4X17872   4.634   1.284   3.047
  160SAPE   H4Y17873   4.619   1.442   2.974
  160SAPE   C3517874   4.821   1.393   3.021
  160SAPE   H5X17875   4.873   1.457   2.947
  160SAPE   H5Y17876   4.890   1.306   3.026
  160SAPE   C3617877   4.822   1.447   3.167
  160SAPE   H6X17878   4.921   1.423   3.210
  160SAPE   H6Y17879   4.741   1.381   3.206
  160SAPE   C3717880   4.804   1.599   3.186
  160SAPE   H7X17881   4.697   1.629   3.193
  160SAPE   H7Y17882   4.852   1.643   3.096
  160SAPE   C3817883   4.884   1.657   3.307
  160SAPE   H8X17884   4.873   1.768   3.304
  160SAPE   H8Y17885   4.993   1.644   3.294
  160SAPE   C3917886   4.826   1.591   3.438
  160SAPE   H9X17887   4.808   1.483   3.425
  160SAPE   H9Y17888   4.723   1.630   3.450
  160SAPE  C31017889   4.918   1.612   3.564
  160SAPE  H10X17890   4.933   1.722   3.562
  160SAPE  H10Y17891   5.020   1.571   3.550
  160SAPE  C31117892   4.847   1.561   3.689
  160SAPE  H11X17893   4.835   1.451   3.683
  160SAPE  H11Y17894   4.743   1.601   3.691
  160SAPE  C31217895   4.920   1.604   3.819
  160SAPE  H12X17896   4.899   1.713   3.831
  160SAPE  H12Y17897   5.030   1.593   3.818
  160SAPE  C31317898   4.861   1.522   3.937
  160SAPE  H13X17899   4.864   1.411   3.931
  160SAPE  H13Y17900   4.759   1.562   3.954
  160SAPE  C31417901   4.932   1.567   4.062
  160SAPE  H14X17902   4.928   1.678   4.065
  160SAPE  H14Y17903   5.042   1.560   4.047
  160SAPE  C31517904   4.888   1.502   4.192
  160SAPE  H15X17905   4.788   1.544   4.218
  160SAPE  H15Y17906   4.959   1.534   4.272
  160SAPE  C31617907   4.869   1.355   4.193
  160SAPE  H16X17908   4.949   1.294   4.146
  160SAPE  H16Y17909   4.782   1.336   4.126
  160SAPE  C31717910   4.835   1.296   4.336
  160SAPE  H17X17911   4.760   1.358   4.389
  160SAPE  H17Y17912   4.931   1.292   4.393
  160SAPE  C31817913   4.789   1.157   4.346
  160SAPE  H18X17914   4.801   1.122   4.450
  160SAPE  H18Y17915   4.844   1.097   4.270
  160SAPE  H18Z17916   4.680   1.147   4.330
  161SAPE     N17917   1.943   4.199   2.239
  161SAPE   HN117918   1.854   4.240   2.275
  161SAPE   HN217919   1.943   4.101   2.204
  161SAPE   HN317920   2.008   4.190   2.320
  161SAPE   C1217921   2.005   4.273   2.121
  161SAPE  H12A17922   2.005   4.380   2.149
  161SAPE  H12B17923   1.932   4.257   2.038
  161SAPE   C1117924   2.140   4.217   2.077
  161SAPE  H11A17925   2.214   4.241   2.157
  161SAPE  H11B17926   2.162   4.268   1.981
  161SAPE     P17927   2.257   4.011   1.996
  161SAPE   O1317928   2.259   4.041   1.850
  161SAPE   O1417929   2.368   4.068   2.074
  161SAPE   O1217930   2.128   4.073   2.056
  161SAPE   O1117931   2.236   3.858   2.020
  161SAPE    C117932   2.193   3.802   2.144
  161SAPE    HA17933   2.110   3.858   2.193
  161SAPE    HB17934   2.161   3.696   2.139
  161SAPE    C217935   2.297   3.800   2.265
  161SAPE    HS17936   2.310   3.904   2.302
  161SAPE   O2117937   2.429   3.750   2.228
  161SAPE   C2117938   2.537   3.795   2.298
  161SAPE   O2217939   2.529   3.883   2.381
  161SAPE   C2217940   2.647   3.691   2.271
  161SAPE   H2R17941   2.612   3.586   2.265
  161SAPE   H2S17942   2.683   3.725   2.171
  161SAPE    C317943   2.237   3.713   2.380
  161SAPE    HX17944   2.247   3.609   2.342
  161SAPE    HY17945   2.130   3.739   2.394
  161SAPE   O3117946   2.312   3.733   2.502
  161SAPE   C3117947   2.267   3.830   2.575
  161SAPE   O3217948   2.164   3.892   2.556
  161SAPE   C3217949   2.346   3.829   2.707
  161SAPE   H2X17950   2.452   3.838   2.673
  161SAPE   H2Y17951   2.323   3.736   2.763
  161SAPE   C2317952   2.771   3.697   2.369
  161SAPE   H3R17953   2.796   3.805   2.381
  161SAPE   H3S17954   2.857   3.651   2.317
  161SAPE   C2417955   2.740   3.614   2.493
  161SAPE   H4R17956   2.731   3.509   2.459
  161SAPE   H4S17957   2.637   3.642   2.522
  161SAPE   C2517958   2.836   3.623   2.607
  161SAPE   H5R17959   2.939   3.605   2.574
  161SAPE   C2617960   2.824   3.633   2.741
  161SAPE   H6R17961   2.913   3.663   2.797
  161SAPE   C2717962   2.696   3.646   2.819
  161SAPE   H7R17963   2.619   3.680   2.747
  161SAPE   H7S17964   2.715   3.728   2.892
  161SAPE   C2817965   2.678   3.507   2.889
  161SAPE   H8R17966   2.693   3.417   2.828
  161SAPE   C2917967   2.658   3.499   3.023
  161SAPE   H9R17968   2.672   3.402   3.072
  161SAPE  C21017969   2.626   3.612   3.119
  161SAPE  H10R17970   2.525   3.605   3.166
  161SAPE  H10S17971   2.613   3.709   3.066
  161SAPE  C21117972   2.726   3.598   3.235
  161SAPE  H11R17973   2.816   3.662   3.235
  161SAPE  C21217974   2.723   3.519   3.343
  161SAPE  H12R17975   2.805   3.530   3.416
  161SAPE  C21317976   2.619   3.416   3.382
  161SAPE  H13R17977   2.600   3.358   3.290
  161SAPE  H13S17978   2.524   3.471   3.403
  161SAPE  C21417979   2.645   3.331   3.499
  161SAPE  H14R17980   2.658   3.224   3.479
  161SAPE  C21517981   2.687   3.370   3.620
  161SAPE  H15R17982   2.707   3.285   3.687
  161SAPE  C21617983   2.663   3.500   3.688
  161SAPE  H16R17984   2.596   3.498   3.776
  161SAPE  H16S17985   2.611   3.580   3.631
  161SAPE  C21717986   2.803   3.568   3.720
  161SAPE  H17R17987   2.845   3.566   3.617
  161SAPE  H17S17988   2.867   3.500   3.778
  161SAPE  C21817989   2.803   3.716   3.765
  161SAPE  H18R17990   2.757   3.722   3.866
  161SAPE  H18S17991   2.736   3.762   3.689
  161SAPE  C21917992   2.934   3.794   3.757
  161SAPE  H19R17993   2.903   3.898   3.737
  161SAPE  H19S17994   2.998   3.748   3.678
  161SAPE  C22017995   3.025   3.789   3.883
  161SAPE  H20R17996   2.964   3.838   3.962
  161SAPE  H20S17997   3.115   3.853   3.874
  161SAPE  H20T17998   3.044   3.683   3.910
  161SAPE   C3317999   2.318   3.948   2.805
  161SAPE   H3X18000   2.213   3.958   2.841
  161SAPE   H3Y18001   2.325   4.037   2.739
  161SAPE   C3418002   2.417   3.960   2.929
  161SAPE   H4X18003   2.511   3.916   2.890
  161SAPE   H4Y18004   2.379   3.907   3.018
  161SAPE   C3518005   2.441   4.108   2.964
  161SAPE   H5X18006   2.341   4.157   2.971
  161SAPE   H5Y18007   2.491   4.147   2.873
  161SAPE   C3618008   2.523   4.128   3.088
  161SAPE   H6X18009   2.525   4.237   3.109
  161SAPE   H6Y18010   2.629   4.098   3.070
  161SAPE   C3718011   2.475   4.048   3.209
  161SAPE   H7X18012   2.470   3.938   3.196
  161SAPE   H7Y18013   2.370   4.077   3.232
  161SAPE   C3818014   2.571   4.091   3.328
  161SAPE   H8X18015   2.561   4.201   3.338
  161SAPE   H8Y18016   2.673   4.064   3.291
  161SAPE   C3918017   2.535   4.009   3.457
  161SAPE   H9X18018   2.529   3.902   3.427
  161SAPE   H9Y18019   2.429   4.018   3.490
  161SAPE  C31018020   2.634   4.022   3.569
  161SAPE  H10X18021   2.735   4.002   3.530
  161SAPE  H10Y18022   2.605   3.943   3.642
  161SAPE  C31118023   2.627   4.164   3.630
  161SAPE  H11X18024   2.520   4.194   3.640
  161SAPE  H11Y18025   2.668   4.236   3.556
  161SAPE  C31218026   2.701   4.194   3.759
  161SAPE  H12X18027   2.711   4.304   3.764
  161SAPE  H12Y18028   2.803   4.149   3.752
  161SAPE  C31318029   2.638   4.144   3.884
  161SAPE  H13X18030   2.566   4.065   3.853
  161SAPE  H13Y18031   2.566   4.218   3.925
  161SAPE  C31418032   2.735   4.105   3.993
  161SAPE  H14X18033   2.790   4.193   4.031
  161SAPE  H14Y18034   2.807   4.032   3.949
  161SAPE  C31518035   2.671   4.031   4.112
  161SAPE  H15X18036   2.613   3.946   4.068
  161SAPE  H15Y18037   2.605   4.085   4.182
  161SAPE  C31618038   2.789   3.962   4.190
  161SAPE  H16X18039   2.867   4.039   4.209
  161SAPE  H16Y18040   2.830   3.890   4.116
  161SAPE  C31718041   2.741   3.877   4.305
  161SAPE  H17X18042   2.688   3.935   4.383
  161SAPE  H17Y18043   2.841   3.845   4.344
  161SAPE  C31818044   2.663   3.757   4.262
  161SAPE  H18X18045   2.729   3.706   4.188
  161SAPE  H18Y18046   2.568   3.784   4.211
  161SAPE  H18Z18047   2.643   3.700   4.355
  162SAPE     N18048   2.835   6.738   2.221
  162SAPE   HN118049   2.921   6.689   2.186
  162SAPE   HN218050   2.784   6.771   2.137
  162SAPE   HN318051   2.876   6.818   2.272
  162SAPE   C1218052   2.744   6.651   2.293
  162SAPE  H12A18053   2.644   6.690   2.264
  162SAPE  H12B18054   2.750   6.668   2.402
  162SAPE   C1118055   2.735   6.501   2.255
  162SAPE  H11A18056   2.718   6.489   2.146
  162SAPE  H11B18057   2.649   6.456   2.307
  162SAPE     P18058   2.976   6.425   2.200
  162SAPE   O1318059   2.948   6.326   2.098
  162SAPE   O1418060   3.018   6.561   2.154
  162SAPE   O1218061   2.854   6.434   2.299
  162SAPE   O1118062   3.097   6.361   2.294
  162SAPE    C118063   3.078   6.249   2.381
  162SAPE    HA18064   2.979   6.205   2.356
  162SAPE    HB18065   3.144   6.164   2.351
  162SAPE    C218066   3.087   6.279   2.532
  162SAPE    HS18067   3.086   6.177   2.575
  162SAPE   O2118068   2.987   6.376   2.576
  162SAPE   C2118069   2.877   6.319   2.607
  162SAPE   O2218070   2.848   6.204   2.607
  162SAPE   C2218071   2.776   6.425   2.658
  162SAPE   H2R18072   2.802   6.528   2.629
  162SAPE   H2S18073   2.685   6.396   2.601
  162SAPE    C318074   3.230   6.323   2.564
  162SAPE    HX18075   3.242   6.432   2.547
  162SAPE    HY18076   3.295   6.260   2.499
  162SAPE   O3118077   3.257   6.303   2.706
  162SAPE   C3118078   3.377   6.345   2.735
  162SAPE   O3218079   3.459   6.388   2.658
  162SAPE   C3218080   3.402   6.312   2.886
  162SAPE   H2X18081   3.483   6.236   2.883
  162SAPE   H2Y18082   3.305   6.281   2.932
  162SAPE   C2318083   2.742   6.411   2.809
  162SAPE   H3R18084   2.825   6.427   2.880
  162SAPE   H3S18085   2.700   6.311   2.834
  162SAPE   C2418086   2.632   6.508   2.852
  162SAPE   H4R18087   2.663   6.611   2.828
  162SAPE   H4S18088   2.623   6.505   2.963
  162SAPE   C2518089   2.497   6.473   2.791
  162SAPE   H5R18090   2.495   6.483   2.681
  162SAPE   C2618091   2.392   6.415   2.850
  162SAPE   H6R18092   2.301   6.403   2.789
  162SAPE   C2718093   2.369   6.381   2.995
  162SAPE   H7R18094   2.263   6.405   3.021
  162SAPE   H7S18095   2.429   6.445   3.063
  162SAPE   C2818096   2.405   6.235   3.021
  162SAPE   H8R18097   2.513   6.225   3.005
  162SAPE   C2918098   2.325   6.137   3.073
  162SAPE   H9R18099   2.353   6.031   3.083
  162SAPE  C21018100   2.182   6.159   3.112
  162SAPE  H10R18101   2.133   6.221   3.034
  162SAPE  H10S18102   2.184   6.229   3.198
  162SAPE  C21118103   2.099   6.034   3.149
  162SAPE  H11R18104   2.055   5.977   3.066
  162SAPE  C21218105   2.081   5.991   3.278
  162SAPE  H12R18106   2.027   5.896   3.289
  162SAPE  C21318107   2.138   6.051   3.404
  162SAPE  H13R18108   2.166   6.158   3.401
  162SAPE  H13S18109   2.222   5.981   3.420
  162SAPE  C21418110   2.025   6.047   3.507
  162SAPE  H14R18111   1.968   5.953   3.506
  162SAPE  C21518112   1.994   6.140   3.597
  162SAPE  H15R18113   1.908   6.121   3.663
  162SAPE  C21618114   2.075   6.267   3.626
  162SAPE  H16R18115   2.022   6.351   3.577
  162SAPE  H16S18116   2.176   6.257   3.581
  162SAPE  C21718117   2.086   6.307   3.774
  162SAPE  H17R18118   1.980   6.310   3.809
  162SAPE  H17S18119   2.119   6.412   3.773
  162SAPE  C21818120   2.171   6.212   3.862
  162SAPE  H18R18121   2.268   6.206   3.808
  162SAPE  H18S18122   2.136   6.107   3.855
  162SAPE  C21918123   2.185   6.273   4.009
  162SAPE  H19R18124   2.275   6.222   4.049
  162SAPE  H19S18125   2.096   6.229   4.058
  162SAPE  C22018126   2.177   6.421   4.030
  162SAPE  H20R18127   2.174   6.446   4.138
  162SAPE  H20S18128   2.086   6.456   3.976
  162SAPE  H20T18129   2.273   6.466   3.996
  162SAPE   C3318130   3.453   6.440   2.957
  162SAPE   H3X18131   3.373   6.517   2.949
  162SAPE   H3Y18132   3.546   6.470   2.905
  162SAPE   C3418133   3.471   6.418   3.107
  162SAPE   H4X18134   3.521   6.497   3.166
  162SAPE   H4Y18135   3.523   6.320   3.113
  162SAPE   C3518136   3.330   6.402   3.164
  162SAPE   H5X18137   3.293   6.303   3.131
  162SAPE   H5Y18138   3.256   6.477   3.128
  162SAPE   C3618139   3.328   6.401   3.316
  162SAPE   H6X18140   3.353   6.500   3.361
  162SAPE   H6Y18141   3.402   6.321   3.337
  162SAPE   C3718142   3.194   6.362   3.379
  162SAPE   H7X18143   3.180   6.253   3.391
  162SAPE   H7Y18144   3.110   6.395   3.314
  162SAPE   C3818145   3.182   6.424   3.520
  162SAPE   H8X18146   3.182   6.535   3.526
  162SAPE   H8Y18147   3.265   6.386   3.583
  162SAPE   C3918148   3.055   6.373   3.592
  162SAPE   H9X18149   3.066   6.263   3.608
  162SAPE   H9Y18150   2.969   6.383   3.522
  162SAPE  C31018151   3.020   6.439   3.726
  162SAPE  H10X18152   2.984   6.542   3.708
  162SAPE  H10Y18153   3.110   6.436   3.791
  162SAPE  C31118154   2.921   6.353   3.811
  162SAPE  H11X18155   2.947   6.245   3.809
  162SAPE  H11Y18156   2.813   6.366   3.787
  162SAPE  C31218157   2.927   6.401   3.962
  162SAPE  H12X18158   3.031   6.432   3.982
  162SAPE  H12Y18159   2.899   6.310   4.018
  162SAPE  C31318160   2.842   6.523   3.994
  162SAPE  H13X18161   2.745   6.505   3.945
  162SAPE  H13Y18162   2.873   6.615   3.939
  162SAPE  C31418163   2.828   6.559   4.140
  162SAPE  H14X18164   2.798   6.467   4.195
  162SAPE  H14Y18165   2.753   6.639   4.158
  162SAPE  C31518166   2.952   6.606   4.205
  162SAPE  H15X18167   2.976   6.695   4.143
  162SAPE  H15Y18168   3.038   6.535   4.208
  162SAPE  C31618169   2.928   6.650   4.346
  162SAPE  H16X18170   2.890   6.570   4.413
  162SAPE  H16Y18171   2.853   6.732   4.342
  162SAPE  C31718172   3.048   6.715   4.414
  162SAPE  H17X18173   3.114   6.630   4.441
  162SAPE  H17Y18174   3.014   6.770   4.505
  162SAPE  C31818175   3.123   6.807   4.324
  162SAPE  H18X18176   3.216   6.843   4.372
  162SAPE  H18Y18177   3.063   0.042   4.297
  162SAPE  H18Z18178   3.143   6.756   4.227
  163SAPE     N18179   0.983   3.396   2.331
  163SAPE   HN118180   1.046   3.431   2.255
  163SAPE   HN218181   0.884   3.409   2.300
  163SAPE   HN318182   0.999   3.457   2.414
  163SAPE   C1218183   1.023   3.253   2.363
  163SAPE  H12A18184   0.980   3.185   2.286
  163SAPE  H12B18185   0.976   3.232   2.461
  163SAPE   C1118186   1.174   3.255   2.389
  163SAPE  H11A18187   1.203   3.164   2.446
  163SAPE  H11B18188   1.200   3.349   2.443
  163SAPE     P18189   1.289   3.371   2.187
  163SAPE   O1318190   1.373   3.324   2.079
  163SAPE   O1418191   1.171   3.452   2.147
  163SAPE   O1218192   1.250   3.243   2.273
  163SAPE   O1118193   1.374   3.464   2.283
  163SAPE    C118194   1.512   3.439   2.320
  163SAPE    HA18195   1.556   3.359   2.255
  163SAPE    HB18196   1.560   3.536   2.295
  163SAPE    C218197   1.539   3.387   2.464
  163SAPE    HS18198   1.463   3.307   2.475
  163SAPE   O2118199   1.526   3.503   2.547
  163SAPE   C2118200   1.436   3.491   2.636
  163SAPE   O2218201   1.354   3.401   2.654
  163SAPE   C2218202   1.443   3.616   2.719
  163SAPE   H2R18203   1.453   3.701   2.648
  163SAPE   H2S18204   1.347   3.622   2.775
  163SAPE    C318205   1.680   3.322   2.483
  163SAPE    HX18206   1.757   3.402   2.469
  163SAPE    HY18207   1.692   3.236   2.414
  163SAPE   O3118208   1.688   3.264   2.612
  163SAPE   C3118209   1.809   3.219   2.638
  163SAPE   O3218210   1.907   3.253   2.575
  163SAPE   C3218211   1.801   3.110   2.745
  163SAPE   H2X18212   1.794   3.010   2.697
  163SAPE   H2Y18213   1.704   3.127   2.797
  163SAPE   C2318214   1.560   3.613   2.820
  163SAPE   H3R18215   1.580   3.717   2.853
  163SAPE   H3S18216   1.658   3.589   2.775
  163SAPE   C2418217   1.535   3.537   2.948
  163SAPE   H4R18218   1.480   3.444   2.922
  163SAPE   H4S18219   1.458   3.598   3.000
  163SAPE   C2518220   1.652   3.484   3.030
  163SAPE   H5R18221   1.699   3.396   2.984
  163SAPE   C2618222   1.692   3.537   3.148
  163SAPE   H6R18223   1.784   3.497   3.195
  163SAPE   C2718224   1.635   3.653   3.222
  163SAPE   H7R18225   1.552   3.618   3.286
  163SAPE   H7S18226   1.577   3.716   3.151
  163SAPE   C2818227   1.742   3.730   3.295
  163SAPE   H8R18228   1.768   3.825   3.246
  163SAPE   C2918229   1.780   3.706   3.417
  163SAPE   H9R18230   1.869   3.757   3.458
  163SAPE  C21018231   1.728   3.604   3.512
  163SAPE  H10R18232   1.713   3.505   3.463
  163SAPE  H10S18233   1.628   3.638   3.547
  163SAPE  C21118234   1.814   3.586   3.635
  163SAPE  H11R18235   1.882   3.501   3.622
  163SAPE  C21218236   1.822   3.662   3.749
  163SAPE  H12R18237   1.883   3.625   3.832
  163SAPE  C21318238   1.737   3.783   3.774
  163SAPE  H13R18239   1.699   3.821   3.676
  163SAPE  H13S18240   1.813   3.857   3.806
  163SAPE  C21418241   1.631   3.745   3.873
  163SAPE  H14R18242   1.546   3.706   3.813
  163SAPE  C21518243   1.629   3.757   4.010
  163SAPE  H15R18244   1.546   3.716   4.070
  163SAPE  C21618245   1.728   3.827   4.105
  163SAPE  H16R18246   1.826   3.848   4.058
  163SAPE  H16S18247   1.754   3.753   4.183
  163SAPE  C21718248   1.690   3.958   4.166
  163SAPE  H17R18249   1.667   4.025   4.081
  163SAPE  H17S18250   1.772   4.000   4.227
  163SAPE  C21818251   1.563   3.958   4.256
  163SAPE  H18R18252   1.577   3.898   4.348
  163SAPE  H18S18253   1.471   3.942   4.196
  163SAPE  C21918254   1.536   4.109   4.304
  163SAPE  H19R18255   1.552   4.178   4.219
  163SAPE  H19S18256   1.614   4.141   4.377
  163SAPE  C22018257   1.392   4.116   4.343
  163SAPE  H20R18258   1.336   4.113   4.248
  163SAPE  H20S18259   1.361   4.209   4.396
  163SAPE  H20T18260   1.354   4.034   4.408
  163SAPE   C3318261   1.934   3.108   2.823
  163SAPE   H3X18262   1.980   3.209   2.831
  163SAPE   H3Y18263   2.005   3.042   2.769
  163SAPE   C3418264   1.927   3.050   2.965
  163SAPE   H4X18265   2.033   3.049   2.999
  163SAPE   H4Y18266   1.889   2.946   2.958
  163SAPE   C3518267   1.851   3.151   3.060
  163SAPE   H5X18268   1.753   3.159   3.008
  163SAPE   H5Y18269   1.909   3.245   3.051
  163SAPE   C3618270   1.845   3.087   3.201
  163SAPE   H6X18271   1.950   3.065   3.229
  163SAPE   H6Y18272   1.792   2.990   3.187
  163SAPE   C3718273   1.772   3.183   3.298
  163SAPE   H7X18274   1.667   3.205   3.271
  163SAPE   H7Y18275   1.819   3.284   3.303
  163SAPE   C3818276   1.767   3.109   3.434
  163SAPE   H8X18277   1.869   3.066   3.443
  163SAPE   H8Y18278   1.703   3.019   3.423
  163SAPE   C3918279   1.710   3.193   3.549
  163SAPE   H9X18280   1.600   3.200   3.537
  163SAPE   H9Y18281   1.753   3.294   3.560
  163SAPE  C31018282   1.736   3.122   3.685
  163SAPE  H10X18283   1.846   3.105   3.690
  163SAPE  H10Y18284   1.684   3.024   3.697
  163SAPE  C31118285   1.711   3.206   3.808
  163SAPE  H11X18286   1.772   3.299   3.811
  163SAPE  H11Y18287   1.732   3.141   3.895
  163SAPE  C31218288   1.565   3.246   3.827
  163SAPE  H12X18289   1.503   3.154   3.841
  163SAPE  H12Y18290   1.522   3.294   3.737
  163SAPE  C31318291   1.532   3.346   3.944
  163SAPE  H13X18292   1.608   3.426   3.946
  163SAPE  H13Y18293   1.552   3.296   4.041
  163SAPE  C31418294   1.400   3.428   3.926
  163SAPE  H14X18295   1.395   3.472   3.823
  163SAPE  H14Y18296   1.396   3.516   3.994
  163SAPE  C31518297   1.282   3.342   3.963
  163SAPE  H15X18298   1.286   3.315   4.070
  163SAPE  H15Y18299   1.284   3.242   3.914
  163SAPE  C31618300   1.144   3.413   3.937
  163SAPE  H16X18301   1.151   3.469   3.841
  163SAPE  H16Y18302   1.135   3.476   4.028
  163SAPE  C31718303   1.029   3.313   3.936
  163SAPE  H17X18304   1.033   3.245   3.849
  163SAPE  H17Y18305   0.931   3.367   3.934
  163SAPE  C31818306   1.029   3.202   4.051
  163SAPE  H18X18307   1.022   3.251   4.150
  163SAPE  H18Y18308   1.120   3.139   4.040
  163SAPE  H18Z18309   0.936   3.144   4.028
  164SAPE     N18310   6.329   3.716   2.404
  164SAPE   HN118311   6.301   3.698   2.502
  164SAPE   HN218312   6.244   3.750   2.355
  164SAPE   HN318313   6.370   3.626   2.372
  164SAPE   C1218314   6.442   3.818   2.415
  164SAPE  H12A18315   6.488   3.813   2.314
  164SAPE  H12B18316   6.509   3.792   2.500
  164SAPE   C1118317   6.387   3.961   2.437
  164SAPE  H11A18318   6.478   4.024   2.422
  164SAPE  H11B18319   6.348   3.985   2.538
  164SAPE     P18320   6.280   4.118   2.254
  164SAPE   O1318321   6.382   4.100   2.151
  164SAPE   O1418322   6.149   4.152   2.201
  164SAPE   O1218323   6.276   3.996   2.353
  164SAPE   O1118324   6.324   4.234   2.352
  164SAPE    C118325   6.250   4.268   2.464
  164SAPE    HA18326   6.172   4.338   2.427
  164SAPE    HB18327   6.180   4.189   2.500
  164SAPE    C218328   6.322   4.331   2.574
  164SAPE    HS18329   6.390   4.401   2.521
  164SAPE   O2118330   6.381   4.235   2.659
  164SAPE   C2118331   6.493   4.272   2.716
  164SAPE   O2218332   6.555   4.372   2.695
  164SAPE   C2218333   6.541   4.163   2.813
  164SAPE   H2R18334   6.445   4.122   2.852
  164SAPE   H2S18335   6.590   4.086   2.751
  164SAPE    C318336   6.229   4.427   2.663
  164SAPE    HX18337   6.137   4.365   2.664
  164SAPE    HY18338   6.212   4.522   2.609
  164SAPE   O3118339   6.278   4.438   2.799
  164SAPE   C3118340   6.185   4.495   2.876
  164SAPE   O3218341   6.082   4.543   2.836
  164SAPE   C3218342   6.229   4.477   3.030
  164SAPE   H2X18343   6.226   4.582   3.066
  164SAPE   H2Y18344   6.330   4.432   3.039
  164SAPE   C2318345   6.619   4.212   2.936
  164SAPE   H3R18346   6.558   4.276   3.002
  164SAPE   H3S18347   6.713   4.261   2.902
  164SAPE   C2418348   6.658   4.104   3.030
  164SAPE   H4R18349   6.691   4.016   2.972
  164SAPE   H4S18350   6.570   4.061   3.082
  164SAPE   C2518351   6.766   4.141   3.129
  164SAPE   H5R18352   0.006   4.147   3.073
  164SAPE   C2618353   6.776   4.118   3.262
  164SAPE   H6R18354   0.011   4.148   3.319
  164SAPE   C2718355   6.670   4.069   3.357
  164SAPE   H7R18356   6.593   4.028   3.289
  164SAPE   H7S18357   6.626   4.155   3.413
  164SAPE   C2818358   6.721   3.968   3.459
  164SAPE   H8R18359   6.800   3.901   3.423
  164SAPE   C2918360   6.692   3.974   3.588
  164SAPE   H9R18361   6.735   3.894   3.649
  164SAPE  C21018362   6.604   4.074   3.664
  164SAPE  H10R18363   6.567   4.024   3.756
  164SAPE  H10S18364   6.512   4.097   3.607
  164SAPE  C21118365   6.665   4.206   3.706
  164SAPE  H11R18366   6.677   4.274   3.620
  164SAPE  C21218367   6.674   4.250   3.837
  164SAPE  H12R18368   6.717   4.350   3.854
  164SAPE  C21318369   6.640   4.169   3.958
  164SAPE  H13R18370   6.726   4.099   3.969
  164SAPE  H13S18371   6.545   4.112   3.952
  164SAPE  C21418372   6.616   4.254   4.080
  164SAPE  H14R18373   6.571   4.353   4.062
  164SAPE  C21518374   6.637   4.205   4.202
  164SAPE  H15R18375   6.613   4.276   4.282
  164SAPE  C21618376   6.675   4.069   4.243
  164SAPE  H16R18377   6.783   4.066   4.269
  164SAPE  H16S18378   6.657   4.000   4.158
  164SAPE  C21718379   6.586   4.029   4.366
  164SAPE  H17R18380   6.601   4.106   4.444
  164SAPE  H17S18381   6.618   3.931   4.406
  164SAPE  C21818382   6.441   4.020   4.319
  164SAPE  H18R18383   6.431   3.966   4.222
  164SAPE  H18S18384   6.397   4.118   4.292
  164SAPE  C21918385   6.340   3.962   4.411
  164SAPE  H19R18386   6.318   4.031   4.496
  164SAPE  H19S18387   6.374   3.870   4.463
  164SAPE  C22018388   6.210   3.944   4.340
  164SAPE  H20R18389   6.218   3.868   4.259
  164SAPE  H20S18390   6.172   4.045   4.314
  164SAPE  H20T18391   6.138   3.900   4.412
  164SAPE   C3318392   6.128   4.385   3.103
  164SAPE   H3X18393   6.113   4.289   3.048
  164SAPE   H3Y18394   6.029   4.431   3.119
  164SAPE   C3418395   6.176   4.335   3.239
  164SAPE   H4X18396   6.268   4.274   3.226
  164SAPE   H4Y18397   6.101   4.265   3.281
  164SAPE   C3518398   6.202   4.439   3.344
  164SAPE   H5X18399   6.124   4.518   3.348
  164SAPE   H5Y18400   6.285   4.497   3.298
  164SAPE   C3618401   6.251   4.377   3.477
  164SAPE   H6X18402   6.346   4.321   3.465
  164SAPE   H6Y18403   6.173   4.306   3.515
  164SAPE   C3718404   6.269   4.485   3.583
  164SAPE   H7X18405   6.173   4.540   3.591
  164SAPE   H7Y18406   6.344   4.558   3.545
  164SAPE   C3818407   6.295   4.426   3.723
  164SAPE   H8X18408   6.329   4.500   3.798
  164SAPE   H8Y18409   6.387   4.364   3.715
  164SAPE   C3918410   6.173   4.351   3.780
  164SAPE   H9X18411   6.156   4.259   3.720
  164SAPE   H9Y18412   6.084   4.416   3.766
  164SAPE  C31018413   6.196   4.303   3.923
  164SAPE  H10X18414   6.300   4.267   3.937
  164SAPE  H10Y18415   6.132   4.218   3.955
  164SAPE  C31118416   6.189   4.418   4.026
  164SAPE  H11X18417   6.103   4.481   3.994
  164SAPE  H11Y18418   6.276   4.488   4.028
  164SAPE  C31218419   6.158   4.372   4.174
  164SAPE  H12X18420   6.231   4.290   4.190
  164SAPE  H12Y18421   6.058   4.327   4.190
  164SAPE  C31318422   6.178   4.468   4.285
  164SAPE  H13X18423   6.109   4.554   4.272
  164SAPE  H13Y18424   6.280   4.512   4.274
  164SAPE  C31418425   6.170   4.421   4.429
  164SAPE  H14X18426   6.215   4.320   4.420
  164SAPE  H14Y18427   6.067   4.392   4.462
  164SAPE  C31518428   6.242   4.508   4.529
  164SAPE  H15X18429   6.168   4.580   4.567
  164SAPE  H15Y18430   6.323   4.557   4.471
  164SAPE  C31618431   6.308   4.428   4.646
  164SAPE  H16X18432   6.236   4.348   4.673
  164SAPE  H16Y18433   6.322   4.496   4.732
  164SAPE  C31718434   6.450   4.380   4.615
  164SAPE  H17X18435   6.509   4.474   4.608
  164SAPE  H17Y18436   6.454   4.326   4.518
  164SAPE  C31818437   6.510   4.307   4.734
  164SAPE  H18X18438   6.473   4.203   4.740
  164SAPE  H18Y18439   6.496   4.365   4.828
  164SAPE  H18Z18440   6.618   4.306   4.708
  165SAPE     N18441   6.177   0.433   2.508
  165SAPE   HN118442   6.261   0.436   2.446
  165SAPE   HN218443   6.198   0.492   2.591
  165SAPE   HN318444   6.166   0.337   2.547
  165SAPE   C1218445   6.051   0.488   2.451
  165SAPE  H12A18446   6.040   0.452   2.346
  165SAPE  H12B18447   6.049   0.599   2.448
  165SAPE   C1118448   5.922   0.439   2.525
  165SAPE  H11A18449   5.834   0.493   2.486
  165SAPE  H11B18450   5.941   0.461   2.633
  165SAPE     P18451   5.800   0.231   2.424
  165SAPE   O1318452   5.678   0.316   2.439
  165SAPE   O1418453   5.851   0.205   2.288
  165SAPE   O1218454   5.914   0.297   2.514
  165SAPE   O1118455   5.774   0.090   2.493
  165SAPE    C118456   5.686   0.063   2.611
  165SAPE    HA18457   5.578   0.071   2.587
  165SAPE    HB18458   5.700   6.812   2.642
  165SAPE    C218459   5.720   0.164   2.728
  165SAPE    HS18460   5.702   0.268   2.696
  165SAPE   O2118461   5.858   0.152   2.772
  165SAPE   C2118462   5.908   0.255   2.842
  165SAPE   O2218463   5.845   0.358   2.864
  165SAPE   C2218464   6.041   0.214   2.899
  165SAPE   H2R18465   6.062   0.105   2.895
  165SAPE   H2S18466   6.127   0.262   2.848
  165SAPE    C318467   5.637   0.129   2.852
  165SAPE    HX18468   5.530   0.119   2.826
  165SAPE    HY18469   5.641   0.214   2.924
  165SAPE   O3118470   5.689   0.013   2.918
  165SAPE   C3118471   5.637   6.843   3.046
  165SAPE   O3218472   5.548   0.052   3.095
  165SAPE   C3218473   5.684   6.714   3.095
  165SAPE   H2X18474   5.784   6.696   3.049
  165SAPE   H2Y18475   5.628   6.626   3.055
  165SAPE   C2318476   6.054   0.262   3.048
  165SAPE   H3R18477   6.038   0.372   3.050
  165SAPE   H3S18478   6.160   0.257   3.082
  165SAPE   C2418479   5.974   0.186   3.148
  165SAPE   H4R18480   5.867   0.201   3.126
  165SAPE   H4S18481   5.982   0.228   3.250
  165SAPE   C2518482   5.992   0.037   3.154
  165SAPE   H5R18483   5.977   6.849   3.053
  165SAPE   C2618484   6.035   6.824   3.258
  165SAPE   H6R18485   6.032   6.714   3.255
  165SAPE   C2718486   6.074   0.024   3.387
  165SAPE   H7R18487   6.106   0.129   3.374
  165SAPE   H7S18488   6.153   6.807   3.419
  165SAPE   C2818489   5.961   0.028   3.490
  165SAPE   H8R18490   5.875   0.085   3.451
  165SAPE   C2918491   5.951   6.834   3.616
  165SAPE   H9R18492   5.852   6.835   3.665
  165SAPE  C21018493   6.050   6.747   3.685
  165SAPE  H10R18494   6.083   6.660   3.624
  165SAPE  H10S18495   5.992   6.702   3.769
  165SAPE  C21118496   6.174   6.815   3.734
  165SAPE  H11R18497   6.212   0.037   3.665
  165SAPE  C21218498   6.250   6.780   3.840
  165SAPE  H12R18499   6.323   0.000   3.877
  165SAPE  C21318500   6.217   6.671   3.943
  165SAPE  H13R18501   6.157   6.589   3.898
  165SAPE  H13S18502   6.163   6.712   4.031
  165SAPE  C21418503   6.345   6.607   3.990
  165SAPE  H14R18504   6.422   6.586   3.914
  165SAPE  C21518505   6.375   6.564   4.114
  165SAPE  H15R18506   6.480   6.530   4.117
  165SAPE  C21618507   6.290   6.584   4.243
  165SAPE  H16R18508   6.319   6.500   4.309
  165SAPE  H16S18509   6.185   6.581   4.207
  165SAPE  C21718510   6.326   6.706   4.324
  165SAPE  H17R18511   6.240   6.777   4.316
  165SAPE  H17S18512   6.417   6.751   4.280
  165SAPE  C21818513   6.356   6.678   4.475
  165SAPE  H18R18514   6.443   6.610   4.485
  165SAPE  H18S18515   6.262   6.642   4.521
  165SAPE  C21918516   6.382   6.799   4.560
  165SAPE  H19R18517   6.333   0.038   4.525
  165SAPE  H19S18518   6.485   6.837   4.541
  165SAPE  C22018519   6.365   6.757   4.714
  165SAPE  H20R18520   6.439   6.681   4.747
  165SAPE  H20S18521   6.263   6.719   4.735
  165SAPE  H20T18522   6.373   6.852   4.771
  165SAPE   C3318523   5.689   6.710   3.247
  165SAPE   H3X18524   5.589   6.691   3.290
  165SAPE   H3Y18525   5.728   6.803   3.295
  165SAPE   C3418526   5.772   6.589   3.296
  165SAPE   H4X18527   5.881   6.603   3.279
  165SAPE   H4Y18528   5.751   6.495   3.241
  165SAPE   C3518529   5.739   6.555   3.450
  165SAPE   H5X18530   5.782   6.640   3.508
  165SAPE   H5Y18531   5.795   6.460   3.464
  165SAPE   C3618532   5.592   6.520   3.490
  165SAPE   H6X18533   5.543   6.445   3.425
  165SAPE   H6Y18534   5.535   6.616   3.493
  165SAPE   C3718535   5.580   6.453   3.631
  165SAPE   H7X18536   5.633   6.356   3.622
  165SAPE   H7Y18537   5.473   6.431   3.651
  165SAPE   C3818538   5.645   6.522   3.747
  165SAPE   H8X18539   5.604   6.624   3.758
  165SAPE   H8Y18540   5.751   6.540   3.720
  165SAPE   C3918541   5.633   6.466   3.890
  165SAPE   H9X18542   5.531   6.430   3.917
  165SAPE   H9Y18543   5.660   6.535   3.973
  165SAPE  C31018544   5.720   6.330   3.890
  165SAPE  H10X18545   5.826   6.347   3.860
  165SAPE  H10Y18546   5.657   6.260   3.833
  165SAPE  C31118547   5.728   6.262   4.027
  165SAPE  H11X18548   5.770   6.161   4.009
  165SAPE  H11Y18549   5.626   6.248   4.069
  165SAPE  C31218550   5.829   6.335   4.111
  165SAPE  H12X18551   5.795   6.433   4.151
  165SAPE  H12Y18552   5.921   6.351   4.052
  165SAPE  C31318553   5.882   6.243   4.224
  165SAPE  H13X18554   5.991   6.262   4.238
  165SAPE  H13Y18555   5.872   6.135   4.203
  165SAPE  C31418556   5.805   6.262   4.354
  165SAPE  H14X18557   5.823   6.365   4.392
  165SAPE  H14Y18558   5.843   6.201   4.438
  165SAPE  C31518559   5.653   6.243   4.348
  165SAPE  H15X18560   5.620   6.152   4.294
  165SAPE  H15Y18561   5.608   6.322   4.285
  165SAPE  C31618562   5.585   6.243   4.487
  165SAPE  H16X18563   5.593   6.337   4.544
  165SAPE  H16Y18564   5.639   6.169   4.549
  165SAPE  C31718565   5.436   6.203   4.501
  165SAPE  H17X18566   5.407   6.191   4.607
  165SAPE  H17Y18567   5.428   6.107   4.445
  165SAPE  C31818568   5.344   6.302   4.429
  165SAPE  H18X18569   5.237   6.275   4.447
  165SAPE  H18Y18570   5.347   6.306   4.318
  165SAPE  H18Z18571   5.357   6.406   4.463
  166SAPE     N18572   0.435   5.080   2.412
  166SAPE   HN118573   0.523   5.067   2.357
  166SAPE   HN218574   0.447   5.029   2.501
  166SAPE   HN318575   0.352   5.045   2.360
  166SAPE   C1218576   0.423   5.229   2.424
  166SAPE  H12A18577   0.514   5.263   2.479
  166SAPE  H12B18578   0.331   5.250   2.483
  166SAPE   C1118579   0.415   5.299   2.283
  166SAPE  H11A18580   0.506   5.265   2.229
  166SAPE  H11B18581   0.440   5.407   2.274
  166SAPE     P18582   0.160   5.335   2.256
  166SAPE   O1318583   0.137   5.424   2.141
  166SAPE   O1418584   0.055   5.242   2.296
  166SAPE   O1218585   0.290   5.258   2.225
  166SAPE   O1118586   0.196   5.429   2.377
  166SAPE    C118587   0.101   5.446   2.483
  166SAPE    HA18588   0.005   5.474   2.435
  166SAPE    HB18589   0.077   5.353   2.540
  166SAPE    C218590   0.137   5.552   2.590
  166SAPE    HS18591   0.174   5.646   2.543
  166SAPE   O2118592   0.249   5.496   2.654
  166SAPE   C2118593   0.287   5.563   2.761
  166SAPE   O2218594   0.259   5.681   2.788
  166SAPE   C2218595   0.402   5.488   2.830
  166SAPE   H2R18596   0.368   5.383   2.849
  166SAPE   H2S18597   0.485   5.473   2.758
  166SAPE    C318598   0.008   5.593   2.672
  166SAPE    HX18599   6.794   5.651   2.608
  166SAPE    HY18600   0.025   5.661   2.759
  166SAPE   O3118601   6.798   5.467   2.711
  166SAPE   C3118602   6.667   5.443   2.673
  166SAPE   O3218603   6.600   5.527   2.618
  166SAPE   C3218604   6.625   5.303   2.718
  166SAPE   H2X18605   6.712   5.253   2.766
  166SAPE   H2Y18606   6.601   5.253   2.622
  166SAPE   C2318607   0.440   5.566   2.958
  166SAPE   H3R18608   0.356   5.554   3.030
  166SAPE   H3S18609   0.450   5.674   2.935
  166SAPE   C2418610   0.583   5.529   3.017
  166SAPE   H4R18611   0.598   5.583   3.113
  166SAPE   H4S18612   0.652   5.574   2.943
  166SAPE   C2518613   0.606   5.388   3.042
  166SAPE   H5R18614   0.629   5.327   2.953
  166SAPE   C2618615   0.608   5.331   3.162
  166SAPE   H6R18616   0.635   5.224   3.166
  166SAPE   C2718617   0.597   5.389   3.301
  166SAPE   H7R18618   0.505   5.451   3.312
  166SAPE   H7S18619   0.683   5.459   3.311
  166SAPE   C2818620   0.613   5.301   3.415
  166SAPE   H8R18621   0.702   5.236   3.422
  166SAPE   C2918622   0.526   5.282   3.513
  166SAPE   H9R18623   0.560   5.223   3.599
  166SAPE  C21018624   0.389   5.352   3.517
  166SAPE  H10R18625   0.331   5.291   3.445
  166SAPE  H10S18626   0.405   5.457   3.486
  166SAPE  C21118627   0.324   5.357   3.655
  166SAPE  H11R18628   0.387   5.320   3.737
  166SAPE  C21218629   0.203   5.405   3.680
  166SAPE  H12R18630   0.172   5.407   3.785
  166SAPE  C21318631   0.102   5.459   3.578
  166SAPE  H13R18632   0.159   5.518   3.503
  166SAPE  H13S18633   0.035   5.531   3.631
  166SAPE  C21418634   0.002   5.362   3.517
  166SAPE  H14R18635   6.818   5.295   3.595
  166SAPE  C21518636   6.815   5.353   3.393
  166SAPE  H15R18637   6.723   5.301   3.362
  166SAPE  C21618638   0.014   5.435   3.273
  166SAPE  H16R18639   0.034   5.368   3.187
  166SAPE  H16S18640   0.110   5.488   3.289
  166SAPE  C21718641   6.786   5.557   3.209
  166SAPE  H17R18642   6.773   5.635   3.287
  166SAPE  H17S18643   6.688   5.507   3.194
  166SAPE  C21818644   6.838   5.610   3.079
  166SAPE  H18R18645   6.801   5.537   3.003
  166SAPE  H18S18646   0.095   5.607   3.071
  166SAPE  C21918647   6.778   5.752   3.047
  166SAPE  H19R18648   6.847   5.782   2.965
  166SAPE  H19S18649   6.788   5.822   3.133
  166SAPE  C22018650   6.637   5.752   2.997
  166SAPE  H20R18651   6.639   5.722   2.890
  166SAPE  H20S18652   6.598   5.855   2.998
  166SAPE  H20T18653   6.568   5.689   3.058
  166SAPE   C3318654   6.507   5.298   2.812
  166SAPE   H3X18655   6.467   5.196   2.831
  166SAPE   H3Y18656   6.425   5.362   2.773
  166SAPE   C3418657   6.544   5.338   2.959
  166SAPE   H4X18658   6.579   5.443   2.947
  166SAPE   H4Y18659   6.623   5.270   2.998
  166SAPE   C3518660   6.422   5.335   3.046
  166SAPE   H5X18661   6.375   5.236   3.027
  166SAPE   H5Y18662   6.352   5.414   3.014
  166SAPE   C3618663   6.453   5.337   3.188
  166SAPE   H6X18664   6.437   5.439   3.228
  166SAPE   H6Y18665   6.557   5.301   3.205
  166SAPE   C3718666   6.358   5.245   3.270
  166SAPE   H7X18667   6.394   5.144   3.243
  166SAPE   H7Y18668   6.253   5.248   3.233
  166SAPE   C3818669   6.363   5.280   3.419
  166SAPE   H8X18670   6.313   5.376   3.443
  166SAPE   H8Y18671   6.471   5.283   3.444
  166SAPE   C3918672   6.300   5.172   3.503
  166SAPE   H9X18673   6.317   5.080   3.444
  166SAPE   H9Y18674   6.190   5.170   3.491
  166SAPE  C31018675   6.344   5.177   3.645
  166SAPE  H10X18676   6.311   5.262   3.709
  166SAPE  H10Y18677   6.454   5.163   3.652
  166SAPE  C31118678   6.299   5.053   3.716
  166SAPE  H11X18679   6.343   4.963   3.667
  166SAPE  H11Y18680   6.189   5.036   3.718
  166SAPE  C31218681   6.354   5.029   3.857
  166SAPE  H12X18682   6.341   5.113   3.929
  166SAPE  H12Y18683   6.462   5.024   3.830
  166SAPE  C31318684   6.301   4.898   3.919
  166SAPE  H13X18685   6.322   4.817   3.847
  166SAPE  H13Y18686   6.191   4.892   3.925
  166SAPE  C31418687   6.357   4.855   4.059
  166SAPE  H14X18688   6.468   4.849   4.058
  166SAPE  H14Y18689   6.331   4.748   4.076
  166SAPE  C31518690   6.306   4.935   4.186
  166SAPE  H15X18691   6.217   4.873   4.212
  166SAPE  H15Y18692   6.284   5.040   4.157
  166SAPE  C31618693   6.405   4.924   4.299
  166SAPE  H16X18694   6.494   4.988   4.281
  166SAPE  H16Y18695   6.448   4.822   4.313
  166SAPE  C31718696   6.330   4.960   4.432
  166SAPE  H17X18697   6.398   4.925   4.512
  166SAPE  H17Y18698   6.234   4.903   4.432
  166SAPE  C31818699   6.283   5.103   4.449
  166SAPE  H18X18700   6.368   5.172   4.433
  166SAPE  H18Y18701   6.240   5.114   4.551
  166SAPE  H18Z18702   6.204   5.125   4.374
  167SAPE     N18703   5.942   3.380   2.287
  167SAPE   HN118704   5.934   3.481   2.267
  167SAPE   HN218705   5.845   3.343   2.300
  167SAPE   HN318706   6.002   3.373   2.371
  167SAPE   C1218707   6.029   3.305   2.189
  167SAPE  H12A18708   5.978   3.310   2.091
  167SAPE  H12B18709   6.045   3.202   2.228
  167SAPE   C1118710   6.174   3.370   2.181
  167SAPE  H11A18711   6.166   3.480   2.167
  167SAPE  H11B18712   6.218   3.326   2.089
  167SAPE     P18713   6.390   3.337   2.329
  167SAPE   O1318714   6.450   3.262   2.217
  167SAPE   O1418715   6.435   3.476   2.361
  167SAPE   O1218716   6.237   3.338   2.304
  167SAPE   O1118717   6.409   3.248   2.461
  167SAPE    C118718   6.332   3.240   2.576
  167SAPE    HA18719   6.232   3.192   2.567
  167SAPE    HB18720   6.386   3.183   2.653
  167SAPE    C218721   6.300   3.371   2.654
  167SAPE    HS18722   6.264   3.448   2.582
  167SAPE   O2118723   6.428   3.426   2.707
  167SAPE   C2118724   6.456   3.552   2.709
  167SAPE   O2218725   6.397   3.639   2.647
  167SAPE   C2218726   6.580   3.575   2.797
  167SAPE   H2R18727   6.555   3.560   2.904
  167SAPE   H2S18728   6.657   3.497   2.779
  167SAPE    C318729   6.206   3.337   2.776
  167SAPE    HX18730   6.110   3.302   2.731
  167SAPE    HY18731   6.181   3.430   2.830
  167SAPE   O3118732   6.253   3.229   2.865
  167SAPE   C3118733   6.313   3.269   2.970
  167SAPE   O3218734   6.359   3.380   2.983
  167SAPE   C3218735   6.333   3.148   3.065
  167SAPE   H2X18736   6.438   3.149   3.099
  167SAPE   H2Y18737   6.319   3.046   3.022
  167SAPE   C2318738   6.635   3.719   2.790
  167SAPE   H3R18739   6.563   3.794   2.829
  167SAPE   H3S18740   6.641   3.743   2.682
  167SAPE   C2418741   6.773   3.732   2.854
  167SAPE   H4R18742   6.833   3.643   2.822
  167SAPE   H4S18743   6.763   3.714   2.963
  167SAPE   C2518744   6.847   3.863   2.833
  167SAPE   H5R18745   6.799   3.920   2.753
  167SAPE   C2618746   0.083   3.910   2.915
  167SAPE   H6R18747   0.119   4.010   2.887
  167SAPE   C2718748   0.148   3.847   3.035
  167SAPE   H7R18749   0.167   3.737   3.029
  167SAPE   H7S18750   0.077   3.862   3.120
  167SAPE   C2818751   0.286   3.901   3.076
  167SAPE   H8R18752   0.352   3.925   2.991
  167SAPE   C2918753   0.329   3.915   3.203
  167SAPE   H9R18754   0.428   3.961   3.219
  167SAPE  C21018755   0.253   3.874   3.325
  167SAPE  H10R18756   0.173   3.798   3.310
  167SAPE  H10S18757   0.206   3.965   3.368
  167SAPE  C21118758   0.356   3.821   3.421
  167SAPE  H11R18759   0.450   3.876   3.435
  167SAPE  C21218760   0.337   3.705   3.483
  167SAPE  H12R18761   0.413   3.682   3.559
  167SAPE  C21318762   0.225   3.607   3.478
  167SAPE  H13R18763   0.128   3.658   3.462
  167SAPE  H13S18764   0.227   3.554   3.575
  167SAPE  C21418765   0.254   3.501   3.374
  167SAPE  H14R18766   0.355   3.459   3.378
  167SAPE  C21518767   0.168   3.455   3.277
  167SAPE  H15R18768   0.222   3.393   3.204
  167SAPE  C21618769   0.023   3.484   3.237
  167SAPE  H16R18770   6.807   3.400   3.259
  167SAPE  H16S18771   0.020   3.479   3.126
  167SAPE  C21718772   6.799   3.607   3.292
  167SAPE  H17R18773   6.847   3.696   3.246
  167SAPE  H17S18774   6.788   3.607   3.403
  167SAPE  C21818775   6.651   3.611   3.238
  167SAPE  H18R18776   6.660   3.619   3.128
  167SAPE  H18S18777   6.600   3.703   3.276
  167SAPE  C21918778   6.566   3.498   3.282
  167SAPE  H19R18779   6.596   3.478   3.387
  167SAPE  H19S18780   6.593   3.410   3.219
  167SAPE  C22018781   6.414   3.533   3.268
  167SAPE  H20R18782   6.398   3.625   3.328
  167SAPE  H20S18783   6.347   3.460   3.317
  167SAPE  H20T18784   6.389   3.558   3.162
  167SAPE   C3318785   6.235   3.166   3.191
  167SAPE   H3X18786   6.131   3.143   3.158
  167SAPE   H3Y18787   6.235   3.273   3.221
  167SAPE   C3418788   6.262   3.071   3.304
  167SAPE   H4X18789   6.366   3.079   3.344
  167SAPE   H4Y18790   6.248   2.968   3.265
  167SAPE   C3518791   6.159   3.088   3.421
  167SAPE   H5X18792   6.065   3.035   3.395
  167SAPE   H5Y18793   6.141   3.196   3.438
  167SAPE   C3618794   6.211   3.037   3.561
  167SAPE   H6X18795   6.128   3.038   3.636
  167SAPE   H6Y18796   6.292   3.101   3.602
  167SAPE   C3718797   6.247   2.887   3.539
  167SAPE   H7X18798   6.329   2.876   3.465
  167SAPE   H7Y18799   6.162   2.836   3.489
  167SAPE   C3818800   6.292   2.809   3.662
  167SAPE   H8X18801   6.304   2.700   3.642
  167SAPE   H8Y18802   6.211   2.826   3.736
  167SAPE   C3918803   6.418   2.873   3.723
  167SAPE   H9X18804   6.438   2.817   3.818
  167SAPE   H9Y18805   6.384   2.976   3.749
  167SAPE  C31018806   6.548   2.857   3.652
  167SAPE  H10X18807   6.634   2.921   3.683
  167SAPE  H10Y18808   6.521   2.885   3.547
  167SAPE  C31118809   6.606   2.709   3.651
  167SAPE  H11X18810   6.534   2.631   3.619
  167SAPE  H11Y18811   6.633   2.698   3.758
  167SAPE  C31218812   6.733   2.693   3.564
  167SAPE  H12X18813   6.767   2.588   3.579
  167SAPE  H12Y18814   6.805   2.775   3.584
  167SAPE  C31318815   6.715   2.691   3.406
  167SAPE  H13X18816   6.667   2.787   3.375
  167SAPE  H13Y18817   6.649   2.604   3.387
  167SAPE  C31418818   6.851   2.679   3.334
  167SAPE  H14X18819   0.054   2.593   3.376
  167SAPE  H14Y18820   0.037   2.778   3.364
  167SAPE  C31518821   6.840   2.674   3.181
  167SAPE  H15X18822   6.783   2.763   3.146
  167SAPE  H15Y18823   6.779   2.591   3.140
  167SAPE  C31618824   0.124   2.679   3.111
  167SAPE  H16X18825   0.170   2.775   3.144
  167SAPE  H16Y18826   0.111   2.705   3.004
  167SAPE  C31718827   0.228   2.572   3.152
  167SAPE  H17X18828   0.256   2.585   3.259
  167SAPE  H17Y18829   0.317   2.578   3.085
  167SAPE  C31818830   0.163   2.437   3.125
  167SAPE  H18X18831   0.104   2.440   3.031
  167SAPE  H18Y18832   0.107   2.404   3.216
  167SAPE  H18Z18833   0.243   2.361   3.117
  168SAPE     N18834   2.831   5.432   2.073
  168SAPE   HN118835   2.884   5.465   1.990
  168SAPE   HN218836   2.851   5.507   2.143
  168SAPE   HN318837   2.880   5.348   2.109
  168SAPE   C1218838   2.682   5.401   2.043
  168SAPE  H12A18839   2.675   5.318   1.969
  168SAPE  H12B18840   2.636   5.494   2.004
  168SAPE   C1118841   2.604   5.378   2.164
  168SAPE  H11A18842   2.495   5.358   2.166
  168SAPE  H11B18843   2.617   5.464   2.233
  168SAPE     P18844   2.636   5.118   2.183
  168SAPE   O1318845   2.493   5.095   2.209
  168SAPE   O1418846   2.701   5.090   2.054
  168SAPE   O1218847   2.666   5.266   2.232
  168SAPE   O1118848   2.722   5.040   2.296
  168SAPE    C118849   2.839   5.098   2.355
  168SAPE    HA18850   2.906   5.010   2.370
  168SAPE    HB18851   2.893   5.177   2.300
  168SAPE    C218852   2.802   5.158   2.496
  168SAPE    HS18853   2.719   5.232   2.493
  168SAPE   O2118854   2.917   5.222   2.557
  168SAPE   C2118855   2.943   5.347   2.537
  168SAPE   O2218856   2.884   5.423   2.456
  168SAPE   C2218857   3.058   5.403   2.623
  168SAPE   H2R18858   3.120   5.318   2.660
  168SAPE   H2S18859   3.125   5.460   2.555
  168SAPE    C318860   2.768   5.054   2.596
  168SAPE    HX18861   2.853   4.985   2.614
  168SAPE    HY18862   2.687   4.989   2.556
  168SAPE   O3118863   2.737   5.103   2.728
  168SAPE   C3118864   2.611   5.096   2.760
  168SAPE   O3218865   2.521   5.036   2.704
  168SAPE   C3218866   2.573   5.189   2.875
  168SAPE   H2X18867   2.495   5.260   2.839
  168SAPE   H2Y18868   2.665   5.243   2.905
  168SAPE   C2318869   3.010   5.486   2.739
  168SAPE   H3R18870   2.961   5.582   2.715
  168SAPE   H3S18871   3.096   5.516   2.802
  168SAPE   C2418872   2.922   5.408   2.838
  168SAPE   H4R18873   2.828   5.394   2.780
  168SAPE   H4S18874   2.885   5.478   2.916
  168SAPE   C2518875   2.968   5.273   2.897
  168SAPE   H5R18876   2.974   5.192   2.823
  168SAPE   C2618877   3.009   5.252   3.027
  168SAPE   H6R18878   3.054   5.153   3.044
  168SAPE   C2718879   3.012   5.342   3.144
  168SAPE   H7R18880   2.921   5.405   3.138
  168SAPE   H7S18881   3.091   5.419   3.125
  168SAPE   C2818882   3.023   5.281   3.286
  168SAPE   H8R18883   3.056   5.176   3.290
  168SAPE   C2918884   2.984   5.342   3.400
  168SAPE   H9R18885   3.012   5.295   3.495
  168SAPE  C21018886   2.935   5.480   3.417
  168SAPE  H10R18887   2.921   5.539   3.324
  168SAPE  H10S18888   3.015   5.536   3.470
  168SAPE  C21118889   2.804   5.481   3.490
  168SAPE  H11R18890   2.732   5.411   3.446
  168SAPE  C21218891   2.766   5.570   3.585
  168SAPE  H12R18892   2.663   5.569   3.624
  168SAPE  C21318893   2.860   5.664   3.658
  168SAPE  H13R18894   2.830   5.766   3.628
  168SAPE  H13S18895   2.965   5.640   3.629
  168SAPE  C21418896   2.852   5.645   3.811
  168SAPE  H14R18897   2.811   5.549   3.845
  168SAPE  C21518898   2.878   5.732   3.912
  168SAPE  H15R18899   2.869   5.699   4.016
  168SAPE  C21618900   2.918   5.873   3.890
  168SAPE  H16R18901   2.879   5.927   3.978
  168SAPE  H16S18902   2.880   5.910   3.792
  168SAPE  C21718903   3.071   5.895   3.882
  168SAPE  H17R18904   3.133   5.838   3.811
  168SAPE  H17S18905   3.109   5.857   3.979
  168SAPE  C21818906   3.098   6.041   3.862
  168SAPE  H18R18907   3.049   6.103   3.941
  168SAPE  H18S18908   3.058   6.062   3.760
  168SAPE  C21918909   3.251   6.064   3.884
  168SAPE  H19R18910   3.299   5.979   3.833
  168SAPE  H19S18911   3.286   6.057   3.989
  168SAPE  C22018912   3.305   6.195   3.820
  168SAPE  H20R18913   3.253   6.279   3.871
  168SAPE  H20S18914   3.283   6.200   3.712
  168SAPE  H20T18915   3.414   6.209   3.834
  168SAPE   C3318916   2.513   5.119   2.999
  168SAPE   H3X18917   2.459   5.035   2.949
  168SAPE   H3Y18918   2.437   5.184   3.047
  168SAPE   C3418919   2.620   5.078   3.097
  168SAPE   H4X18920   2.635   5.168   3.160
  168SAPE   H4Y18921   2.710   5.047   3.039
  168SAPE   C3518922   2.579   4.963   3.194
  168SAPE   H5X18923   2.603   4.866   3.146
  168SAPE   H5Y18924   2.470   4.965   3.212
  168SAPE   C3618925   2.667   4.949   3.323
  168SAPE   H6X18926   2.776   4.950   3.301
  168SAPE   H6Y18927   2.654   4.843   3.353
  168SAPE   C3718928   2.632   5.030   3.447
  168SAPE   H7X18929   2.529   5.002   3.477
  168SAPE   H7Y18930   2.648   5.137   3.422
  168SAPE   C3818931   2.721   5.005   3.572
  168SAPE   H8X18932   2.830   5.017   3.554
  168SAPE   H8Y18933   2.712   4.899   3.603
  168SAPE   C3918934   2.681   5.106   3.676
  168SAPE   H9X18935   2.573   5.095   3.700
  168SAPE   H9Y18936   2.700   5.211   3.645
  168SAPE  C31018937   2.749   5.091   3.811
  168SAPE  H10X18938   2.859   5.105   3.800
  168SAPE  H10Y18939   2.735   4.987   3.847
  168SAPE  C31118940   2.701   5.196   3.913
  168SAPE  H11X18941   2.591   5.191   3.924
  168SAPE  H11Y18942   2.721   5.298   3.873
  168SAPE  C31218943   2.763   5.194   4.057
  168SAPE  H12X18944   2.740   5.286   4.115
  168SAPE  H12Y18945   2.871   5.191   4.033
  168SAPE  C31318946   2.716   5.073   4.137
  168SAPE  H13X18947   2.744   4.980   4.083
  168SAPE  H13Y18948   2.606   5.061   4.141
  168SAPE  C31418949   2.782   5.084   4.281
  168SAPE  H14X18950   2.745   5.178   4.327
  168SAPE  H14Y18951   2.891   5.098   4.271
  168SAPE  C31518952   2.739   4.974   4.374
  168SAPE  H15X18953   2.746   4.880   4.315
  168SAPE  H15Y18954   2.632   4.978   4.403
  168SAPE  C31618955   2.824   4.976   4.504
  168SAPE  H16X18956   2.790   5.044   4.585
  168SAPE  H16Y18957   2.927   5.003   4.472
  168SAPE  C31718958   2.828   4.828   4.566
  168SAPE  H17X18959   2.872   4.773   4.481
  168SAPE  H17Y18960   2.725   4.796   4.590
  168SAPE  C31818961   2.917   4.816   4.696
  168SAPE  H18X18962   2.869   4.863   4.784
  168SAPE  H18Y18963   3.011   4.871   4.672
  168SAPE  H18Z18964   2.941   4.714   4.733
  169SAPE     N18965   6.092   2.721   2.011
  169SAPE   HN118966   6.074   2.692   1.913
  169SAPE   HN218967   6.005   2.767   2.044
  169SAPE   HN318968   6.177   2.782   2.010
  169SAPE   C1218969   6.126   2.600   2.095
  169SAPE  H12A18970   6.086   2.518   2.032
  169SAPE  H12B18971   6.069   2.611   2.190
  169SAPE   C1118972   6.283   2.593   2.131
  169SAPE  H11A18973   6.313   2.502   2.187
  169SAPE  H11B18974   6.307   2.668   2.210
  169SAPE     P18975   6.442   2.749   1.996
  169SAPE   O1318976   6.518   2.755   1.871
  169SAPE   O1418977   6.330   2.848   2.005
  169SAPE   O1218978   6.376   2.605   2.019
  169SAPE   O1118979   6.535   2.782   2.116
  169SAPE    C118980   6.631   2.694   2.174
  169SAPE    HA18981   6.652   2.603   2.114
  169SAPE    HB18982   6.730   2.741   2.192
  169SAPE    C218983   6.585   2.638   2.312
  169SAPE    HS18984   6.500   2.571   2.289
  169SAPE   O2118985   6.540   2.754   2.384
  169SAPE   C2118986   6.428   2.737   2.461
  169SAPE   O2218987   6.368   2.632   2.477
  169SAPE   C2218988   6.380   2.873   2.502
  169SAPE   H2R18989   6.462   2.948   2.494
  169SAPE   H2S18990   6.303   2.902   2.427
  169SAPE    C318991   6.703   2.564   2.381
  169SAPE    HX18992   6.794   2.629   2.376
  169SAPE    HY18993   6.741   2.472   2.332
  169SAPE   O3118994   6.673   2.533   2.518
  169SAPE   C3118995   6.592   2.422   2.532
  169SAPE   O3218996   6.528   2.366   2.448
  169SAPE   C3218997   6.615   2.373   2.675
  169SAPE   H2X18998   6.517   2.359   2.727
  169SAPE   H2Y18999   6.670   2.449   2.734
  169SAPE   C2319000   6.326   2.884   2.643
  169SAPE   H3R19001   6.258   2.803   2.677
  169SAPE   H3S19002   6.260   2.974   2.641
  169SAPE   C2419003   6.447   2.906   2.739
  169SAPE   H4R19004   6.407   2.936   2.838
  169SAPE   H4S19005   6.501   2.992   2.695
  169SAPE   C2519006   6.533   2.784   2.762
  169SAPE   H5R19007   6.608   2.786   2.682
  169SAPE   C2619008   6.510   2.695   2.857
  169SAPE   H6R19009   6.582   2.613   2.868
  169SAPE   C2719010   6.399   2.693   2.956
  169SAPE   H7R19011   6.368   2.587   2.968
  169SAPE   H7S19012   6.310   2.751   2.921
  169SAPE   C2819013   6.455   2.745   3.088
  169SAPE   H8R19014   6.537   2.819   3.082
  169SAPE   C2919015   6.410   2.713   3.209
  169SAPE   H9R19016   6.458   2.753   3.299
  169SAPE  C21019017   6.290   2.625   3.235
  169SAPE  H10R19018   6.255   2.565   3.148
  169SAPE  H10S19019   6.210   2.698   3.262
  169SAPE  C21119020   6.329   2.530   3.352
  169SAPE  H11R19021   6.438   2.512   3.359
  169SAPE  C21219022   6.238   2.464   3.428
  169SAPE  H12R19023   6.267   2.406   3.517
  169SAPE  C21319024   6.086   2.470   3.422
  169SAPE  H13R19025   6.061   2.406   3.335
  169SAPE  H13S19026   6.048   2.571   3.395
  169SAPE  C21419027   6.016   2.408   3.541
  169SAPE  H14R19028   6.046   2.304   3.558
  169SAPE  C21519029   5.934   2.479   3.627
  169SAPE  H15R19030   5.887   2.422   3.708
  169SAPE  C21619031   5.890   2.621   3.636
  169SAPE  H16R19032   5.789   2.640   3.592
  169SAPE  H16S19033   5.970   2.674   3.579
  169SAPE  C21719034   5.906   2.681   3.777
  169SAPE  H17R19035   5.885   2.790   3.766
  169SAPE  H17S19036   6.010   2.685   3.816
  169SAPE  C21819037   5.806   2.636   3.883
  169SAPE  H18R19038   5.801   2.525   3.891
  169SAPE  H18S19039   5.702   2.668   3.858
  169SAPE  C21919040   5.835   2.698   4.017
  169SAPE  H19R19041   5.863   2.802   3.989
  169SAPE  H19S19042   5.932   2.654   4.048
  169SAPE  C22019043   5.729   2.682   4.127
  169SAPE  H20R19044   5.633   2.717   4.082
  169SAPE  H20S19045   5.757   2.745   4.214
  169SAPE  H20T19046   5.721   2.576   4.159
  169SAPE   C3319047   6.699   2.240   2.686
  169SAPE   H3X19048   6.785   2.242   2.616
  169SAPE   H3Y19049   6.649   2.153   2.638
  169SAPE   C3419050   6.755   2.225   2.831
  169SAPE   H4X19051   6.813   2.319   2.840
  169SAPE   H4Y19052   6.827   2.141   2.828
  169SAPE   C3519053   6.657   2.196   2.937
  169SAPE   H5X19054   6.597   2.104   2.923
  169SAPE   H5Y19055   6.589   2.283   2.947
  169SAPE   C3619056   6.738   2.171   3.071
  169SAPE   H6X19057   6.821   2.244   3.071
  169SAPE   H6Y19058   6.776   2.067   3.065
  169SAPE   C3719059   6.652   2.176   3.201
  169SAPE   H7X19060   6.597   2.080   3.192
  169SAPE   H7Y19061   6.575   2.256   3.201
  169SAPE   C3819062   6.738   2.169   3.323
  169SAPE   H8X19063   6.796   2.263   3.338
  169SAPE   H8Y19064   6.813   2.089   3.305
  169SAPE   C3919065   6.668   2.134   3.458
  169SAPE   H9X19066   6.747   2.104   3.529
  169SAPE   H9Y19067   6.606   2.042   3.457
  169SAPE  C31019068   6.603   2.261   3.509
  169SAPE  H10X19069   6.516   2.298   3.451
  169SAPE  H10Y19070   6.682   2.336   3.527
  169SAPE  C31119071   6.520   2.242   3.642
  169SAPE  H11X19072   6.459   2.152   3.619
  169SAPE  H11Y19073   6.452   2.325   3.669
  169SAPE  C31219074   6.599   2.189   3.763
  169SAPE  H12X19075   6.647   2.280   3.805
  169SAPE  H12Y19076   6.674   2.110   3.737
  169SAPE  C31319077   6.501   2.134   3.866
  169SAPE  H13X19078   6.462   2.040   3.821
  169SAPE  H13Y19079   6.416   2.205   3.875
  169SAPE  C31419080   6.563   2.122   3.999
  169SAPE  H14X19081   6.603   2.218   4.037
  169SAPE  H14Y19082   6.643   2.045   4.012
  169SAPE  C31519083   6.454   2.102   4.103
  169SAPE  H15X19084   6.412   2.000   4.089
  169SAPE  H15Y19085   6.378   2.182   4.111
  169SAPE  C31619086   6.522   2.100   4.238
  169SAPE  H16X19087   6.598   2.180   4.252
  169SAPE  H16Y19088   6.586   2.009   4.227
  169SAPE  C31719089   6.433   2.092   4.361
  169SAPE  H17X19090   6.346   2.026   4.336
  169SAPE  H17Y19091   6.394   2.194   4.378
  169SAPE  C31819092   6.494   2.044   4.494
  169SAPE  H18X19093   6.421   2.003   4.566
  169SAPE  H18Y19094   6.559   2.124   4.534
  169SAPE  H18Z19095   6.569   1.964   4.471
  170SAPE     N19096   0.106   3.926   2.152
  170SAPE   HN119097   0.202   3.917   2.192
  170SAPE   HN219098   0.095   3.916   2.049
  170SAPE   HN319099   0.076   4.026   2.158
  170SAPE   C1219100   0.020   3.821   2.215
  170SAPE  H12A19101   6.770   3.833   2.180
  170SAPE  H12B19102   0.014   3.827   2.326
  170SAPE   C1119103   0.082   3.682   2.175
  170SAPE  H11A19104   0.066   3.658   2.067
  170SAPE  H11B19105   0.033   3.601   2.234
  170SAPE     P19106   0.292   3.536   2.204
  170SAPE   O1319107   0.219   3.439   2.115
  170SAPE   O1419108   0.433   3.559   2.174
  170SAPE   O1219109   0.222   3.684   2.202
  170SAPE   O1119110   0.267   3.502   2.356
  170SAPE    C119111   0.245   3.602   2.456
  170SAPE    HA19112   0.293   3.698   2.427
  170SAPE    HB19113   0.138   3.632   2.460
  170SAPE    C219114   0.288   3.557   2.600
  170SAPE    HS19115   0.391   3.516   2.598
  170SAPE   O2119116   0.200   3.450   2.636
  170SAPE   C2119117   0.257   3.346   2.684
  170SAPE   O2219118   0.375   3.315   2.700
  170SAPE   C2219119   0.144   3.256   2.735
  170SAPE   H2R19120   0.076   3.235   2.650
  170SAPE   H2S19121   0.195   3.162   2.767
  170SAPE    C319122   0.264   3.673   2.705
  170SAPE    HX19123   0.156   3.697   2.711
  170SAPE    HY19124   0.326   3.762   2.679
  170SAPE   O3119125   0.302   3.627   2.839
  170SAPE   C3119126   0.432   3.613   2.862
  170SAPE   O3219127   0.517   3.649   2.780
  170SAPE   C3219128   0.458   3.580   3.008
  170SAPE   H2X19129   0.458   3.471   3.033
  170SAPE   H2Y19130   0.376   3.625   3.068
  170SAPE   C2319131   0.065   3.315   2.849
  170SAPE   H3R19132   0.057   3.426   2.838
  170SAPE   H3S19133   0.115   3.300   2.947
  170SAPE   C2419134   6.778   3.254   2.864
  170SAPE   H4R19135   6.711   3.286   2.782
  170SAPE   H4S19136   6.738   3.293   2.960
  170SAPE   C2519137   6.790   3.101   2.865
  170SAPE   H5R19138   6.828   3.057   2.771
  170SAPE   C2619139   6.760   3.020   2.965
  170SAPE   H6R19140   6.772   2.914   2.940
  170SAPE   C2719141   6.712   3.069   3.097
  170SAPE   H7R19142   6.657   2.988   3.151
  170SAPE   H7S19143   6.638   3.150   3.079
  170SAPE   C2819144   6.830   3.102   3.190
  170SAPE   H8R19145   0.075   3.125   3.148
  170SAPE   C2919146   6.821   3.109   3.322
  170SAPE   H9R19147   0.059   3.133   3.376
  170SAPE  C21019148   6.700   3.088   3.414
  170SAPE  H10R19149   6.732   2.995   3.466
  170SAPE  H10S19150   6.612   3.059   3.353
  170SAPE  C21119151   6.669   3.190   3.521
  170SAPE  H11R19152   6.589   3.261   3.495
  170SAPE  C21219153   6.735   3.206   3.638
  170SAPE  H12R19154   6.693   3.282   3.705
  170SAPE  C21319155   6.846   3.130   3.701
  170SAPE  H13R19156   0.029   3.057   3.626
  170SAPE  H13S19157   6.811   3.072   3.789
  170SAPE  C21419158   0.102   3.214   3.747
  170SAPE  H14R19159   0.080   3.321   3.739
  170SAPE  C21519160   0.223   3.173   3.755
  170SAPE  H15R19161   0.296   3.242   3.799
  170SAPE  C21619162   0.256   3.026   3.753
  170SAPE  H16R19163   0.367   3.025   3.755
  170SAPE  H16S19164   0.221   2.979   3.658
  170SAPE  C21719165   0.208   2.934   3.872
  170SAPE  H17R19166   0.097   2.938   3.882
  170SAPE  H17S19167   0.245   2.978   3.967
  170SAPE  C21819168   0.265   2.796   3.866
  170SAPE  H18R19169   0.247   2.744   3.963
  170SAPE  H18S19170   0.375   2.809   3.863
  170SAPE  C21919171   0.212   2.709   3.756
  170SAPE  H19R19172   0.233   2.751   3.655
  170SAPE  H19S19173   0.102   2.723   3.769
  170SAPE  C22019174   0.246   2.566   3.766
  170SAPE  H20R19175   0.211   2.518   3.672
  170SAPE  H20S19176   0.183   2.519   3.845
  170SAPE  H20T19177   0.353   2.546   3.789
  170SAPE   C3319178   0.583   3.654   3.060
  170SAPE   H3X19179   0.563   3.762   3.047
  170SAPE   H3Y19180   0.674   3.621   3.006
  170SAPE   C3419181   0.617   3.624   3.211
  170SAPE   H4X19182   0.522   3.643   3.265
  170SAPE   H4Y19183   0.702   3.691   3.231
  170SAPE   C3519184   0.664   3.477   3.229
  170SAPE   H5X19185   0.741   3.452   3.153
  170SAPE   H5Y19186   0.579   3.408   3.217
  170SAPE   C3619187   0.749   3.459   3.356
  170SAPE   H6X19188   0.824   3.540   3.368
  170SAPE   H6Y19189   0.808   3.366   3.369
  170SAPE   C3719190   0.663   3.478   3.493
  170SAPE   H7X19191   0.572   3.415   3.485
  170SAPE   H7Y19192   0.628   3.581   3.510
  170SAPE   C3819193   0.735   3.420   3.613
  170SAPE   H8X19194   0.816   3.496   3.620
  170SAPE   H8Y19195   0.777   3.320   3.589
  170SAPE   C3919196   0.649   3.388   3.738
  170SAPE   H9X19197   0.686   3.298   3.791
  170SAPE   H9Y19198   0.546   3.365   3.702
  170SAPE  C31019199   0.655   3.506   3.846
  170SAPE  H10X19200   0.644   3.606   3.798
  170SAPE  H10Y19201   0.750   3.500   3.904
  170SAPE  C31119202   0.548   3.482   3.958
  170SAPE  H11X19203   0.450   3.474   3.906
  170SAPE  H11Y19204   0.555   3.581   4.008
  170SAPE  C31219205   0.572   3.359   4.044
  170SAPE  H12X19206   0.657   3.386   4.110
  170SAPE  H12Y19207   0.615   3.278   3.982
  170SAPE  C31319208   0.450   3.306   4.123
  170SAPE  H13X19209   0.471   3.208   4.171
  170SAPE  H13Y19210   0.365   3.295   4.052
  170SAPE  C31419211   0.403   3.402   4.234
  170SAPE  H14X19212   0.366   3.492   4.180
  170SAPE  H14Y19213   0.488   3.432   4.299
  170SAPE  C31519214   0.294   3.336   4.320
  170SAPE  H15X19215   0.345   3.250   4.367
  170SAPE  H15Y19216   0.211   3.303   4.254
  170SAPE  C31619217   0.232   3.430   4.428
  170SAPE  H16X19218   0.193   3.522   4.380
  170SAPE  H16Y19219   0.322   3.447   4.491
  170SAPE  C31719220   0.139   3.370   4.531
  170SAPE  H17X19221   0.102   3.438   4.611
  170SAPE  H17Y19222   0.193   3.290   4.587
  170SAPE  C31819223   0.016   3.310   4.464
  170SAPE  H18X19224   6.831   3.375   4.383
  170SAPE  H18Y19225   6.795   3.291   4.543
  170SAPE  H18Z19226   0.048   3.210   4.425
  171SAPE     N19227   0.554   2.402   1.943
  171SAPE   HN119228   0.559   2.471   2.020
  171SAPE   HN219229   0.589   2.309   1.973
  171SAPE   HN319230   0.621   2.436   1.872
  171SAPE   C1219231   0.413   2.380   1.887
  171SAPE  H12A19232   0.412   2.321   1.793
  171SAPE  H12B19233   0.387   2.487   1.871
  171SAPE   C1119234   0.309   2.326   1.990
  171SAPE  H11A19235   0.209   2.366   1.966
  171SAPE  H11B19236   0.328   2.366   2.092
  171SAPE     P19237   0.234   2.098   2.100
  171SAPE   O1319238   0.082   2.090   2.073
  171SAPE   O1419239   0.299   1.965   2.098
  171SAPE   O1219240   0.310   2.187   1.997
  171SAPE   O1119241   0.265   2.173   2.237
  171SAPE    C119242   0.398   2.161   2.284
  171SAPE    HA19243   0.422   2.055   2.305
  171SAPE    HB19244   0.472   2.204   2.213
  171SAPE    C219245   0.412   2.238   2.418
  171SAPE    HS19246   0.516   2.221   2.456
  171SAPE   O2119247   0.318   2.199   2.520
  171SAPE   C2119248   0.361   2.102   2.594
  171SAPE   O2219249   0.463   2.037   2.577
  171SAPE   C2219250   0.259   2.081   2.704
  171SAPE   H2R19251   0.256   2.176   2.761
  171SAPE   H2S19252   0.160   2.066   2.655
  171SAPE    C319253   0.393   2.391   2.393
  171SAPE    HX19254   0.291   2.409   2.353
  171SAPE    HY19255   0.471   2.419   2.319
  171SAPE   O3119256   0.433   2.470   2.503
  171SAPE   C3119257   0.331   2.539   2.563
  171SAPE   O3219258   0.215   2.523   2.546
  171SAPE   C3219259   0.389   2.634   2.674
  171SAPE   H2X19260   0.500   2.630   2.664
  171SAPE   H2Y19261   0.360   2.592   2.772
  171SAPE   C2319262   0.293   1.954   2.786
  171SAPE   H3R19263   0.393   1.970   2.830
  171SAPE   H3S19264   0.284   1.859   2.729
  171SAPE   C2419265   0.202   1.949   2.910
  171SAPE   H4R19266   0.100   1.982   2.881
  171SAPE   H4S19267   0.225   2.026   2.986
  171SAPE   C2519268   0.193   1.812   2.976
  171SAPE   H5R19269   0.125   1.735   2.935
  171SAPE   C2619270   0.231   1.783   3.103
  171SAPE   H6R19271   0.218   1.678   3.132
  171SAPE   C2719272   0.302   1.862   3.215
  171SAPE   H7R19273   0.319   1.968   3.185
  171SAPE   H7S19274   0.406   1.823   3.226
  171SAPE   C2819275   0.212   1.855   3.334
  171SAPE   H8R19276   0.147   1.768   3.353
  171SAPE   C2919277   0.211   1.942   3.438
  171SAPE   H9R19278   0.135   1.919   3.515
  171SAPE  C21019279   0.296   2.064   3.455
  171SAPE  H10R19280   0.344   2.100   3.362
  171SAPE  H10S19281   0.372   2.047   3.534
  171SAPE  C21119282   0.202   2.172   3.508
  171SAPE  H11R19283   0.138   2.226   3.436
  171SAPE  C21219284   0.174   2.210   3.633
  171SAPE  H12R19285   0.090   2.278   3.652
  171SAPE  C21319286   0.233   2.167   3.763
  171SAPE  H13R19287   0.327   2.225   3.776
  171SAPE  H13S19288   0.270   2.063   3.749
  171SAPE  C21419289   0.155   2.189   3.888
  171SAPE  H14R19290   0.175   2.286   3.935
  171SAPE  C21519291   0.070   2.100   3.953
  171SAPE  H15R19292   0.010   2.140   4.036
  171SAPE  C21619293   0.047   1.960   3.914
  171SAPE  H16R19294   0.093   1.931   3.817
  171SAPE  H16S19295   6.790   1.954   3.905
  171SAPE  C21719296   0.106   1.864   4.018
  171SAPE  H17R19297   0.216   1.870   4.028
  171SAPE  H17S19298   0.080   1.760   3.986
  171SAPE  C21819299   0.043   1.885   4.160
  171SAPE  H18R19300   6.789   1.902   4.142
  171SAPE  H18S19301   0.075   1.976   4.214
  171SAPE  C21919302   0.063   1.765   4.249
  171SAPE  H19R19303   0.170   1.735   4.251
  171SAPE  H19S19304   0.013   1.673   4.212
  171SAPE  C22019305   0.006   1.789   4.388
  171SAPE  H20R19306   0.032   1.892   4.420
  171SAPE  H20S19307   0.040   1.709   4.458
  171SAPE  H20T19308   6.749   1.785   4.389
  171SAPE   C3319309   0.340   2.777   2.656
  171SAPE   H3X19310   0.231   2.782   2.639
  171SAPE   H3Y19311   0.390   2.828   2.570
  171SAPE   C3419312   0.354   2.857   2.778
  171SAPE   H4X19313   0.314   2.811   2.871
  171SAPE   H4Y19314   0.311   2.959   2.768
  171SAPE   C3519315   0.501   2.889   2.813
  171SAPE   H5X19316   0.561   2.915   2.723
  171SAPE   H5Y19317   0.541   2.794   2.855
  171SAPE   C3619318   0.511   3.006   2.911
  171SAPE   H6X19319   0.484   3.100   2.858
  171SAPE   H6Y19320   0.615   3.030   2.941
  171SAPE   C3719321   0.443   3.010   3.053
  171SAPE   H7X19322   0.509   2.940   3.109
  171SAPE   H7Y19323   0.341   2.967   3.051
  171SAPE   C3819324   0.431   3.150   3.125
  171SAPE   H8X19325   0.334   3.194   3.094
  171SAPE   H8Y19326   0.511   3.222   3.096
  171SAPE   C3919327   0.422   3.125   3.282
  171SAPE   H9X19328   0.342   3.059   3.319
  171SAPE   H9Y19329   0.401   3.226   3.323
  171SAPE  C31019330   0.547   3.092   3.343
  171SAPE  H10X19331   0.620   3.171   3.316
  171SAPE  H10Y19332   0.598   2.993   3.330
  171SAPE  C31119333   0.535   3.082   3.492
  171SAPE  H11X19334   0.452   3.010   3.507
  171SAPE  H11Y19335   0.503   3.183   3.527
  171SAPE  C31219336   0.666   3.037   3.567
  171SAPE  H12X19337   0.743   3.116   3.557
  171SAPE  H12Y19338   0.714   2.952   3.515
  171SAPE  C31319339   0.627   3.003   3.717
  171SAPE  H13X19340   0.544   2.930   3.719
  171SAPE  H13Y19341   0.566   3.093   3.739
  171SAPE  C31419342   0.737   2.955   3.811
  171SAPE  H14X19343   0.792   3.044   3.850
  171SAPE  H14Y19344   0.813   2.890   3.763
  171SAPE  C31519345   0.676   2.864   3.920
  171SAPE  H15X19346   0.756   2.814   3.978
  171SAPE  H15Y19347   0.620   2.784   3.867
  171SAPE  C31619348   0.584   2.954   4.006
  171SAPE  H16X19349   0.497   2.981   3.942
  171SAPE  H16Y19350   0.633   3.051   4.025
  171SAPE  C31719351   0.532   2.891   4.138
  171SAPE  H17X19352   0.476   2.799   4.109
  171SAPE  H17Y19353   0.466   2.963   4.190
  171SAPE  C31819354   0.642   2.842   4.229
  171SAPE  H18X19355   0.598   2.797   4.320
  171SAPE  H18Y19356   0.686   2.933   4.274
  171SAPE  H18Z19357   0.717   2.767   4.194
  172SAPE     N19358   0.910   4.663   2.327
  172SAPE   HN119359   0.888   4.604   2.410
  172SAPE   HN219360   1.002   4.627   2.294
  172SAPE   HN319361   0.924   4.754   2.374
  172SAPE   C1219362   0.806   4.660   2.223
  172SAPE  H12A19363   0.776   4.554   2.217
  172SAPE  H12B19364   0.832   4.708   2.126
  172SAPE   C1119365   0.675   4.729   2.263
  172SAPE  H11A19366   0.605   4.730   2.176
  172SAPE  H11B19367   0.690   4.836   2.287
  172SAPE     P19368   0.480   4.697   2.436
  172SAPE   O1319369   0.387   4.722   2.331
  172SAPE   O1419370   0.442   4.599   2.536
  172SAPE   O1219371   0.615   4.649   2.367
  172SAPE   O1119372   0.508   4.827   2.510
  172SAPE    C119373   0.639   4.850   2.562
  172SAPE    HA19374   0.719   4.788   2.517
  172SAPE    HB19375   0.676   4.953   2.547
  172SAPE    C219376   0.650   4.833   2.722
  172SAPE    HS19377   0.642   4.723   2.735
  172SAPE   O2119378   0.538   4.869   2.804
  172SAPE   C2119379   0.497   4.987   2.774
  172SAPE   O2219380   0.536   5.070   2.693
  172SAPE   C2219381   0.392   5.018   2.877
  172SAPE   H2R19382   0.364   4.927   2.935
  172SAPE   H2S19383   0.420   5.095   2.951
  172SAPE    C319384   0.790   4.865   2.777
  172SAPE    HX19385   0.810   4.972   2.755
  172SAPE    HY19386   0.866   4.822   2.709
  172SAPE   O3119387   0.816   4.817   2.914
  172SAPE   C3119388   0.791   4.905   3.011
  172SAPE   O3219389   0.743   5.014   2.994
  172SAPE   C3219390   0.818   4.838   3.143
  172SAPE   H2X19391   0.913   4.781   3.134
  172SAPE   H2Y19392   0.745   4.754   3.148
  172SAPE   C2319393   0.264   5.069   2.802
  172SAPE   H3R19394   0.228   4.998   2.724
  172SAPE   H3S19395   0.274   5.166   2.749
  172SAPE   C2419396   0.140   5.090   2.899
  172SAPE   H4R19397   0.109   4.990   2.938
  172SAPE   H4S19398   0.053   5.130   2.843
  172SAPE   C2519399   0.177   5.187   3.002
  172SAPE   H5R19400   0.198   5.289   2.966
  172SAPE   C2619401   0.213   5.159   3.126
  172SAPE   H6R19402   0.239   5.242   3.193
  172SAPE   C2719403   0.202   5.026   3.202
  172SAPE   H7R19404   0.149   4.945   3.147
  172SAPE   H7S19405   0.135   5.044   3.289
  172SAPE   C2819406   0.350   4.992   3.237
  172SAPE   H8R19407   0.422   4.988   3.154
  172SAPE   C2919408   0.387   4.950   3.366
  172SAPE   H9R19409   0.489   4.916   3.388
  172SAPE  C21019410   0.302   4.947   3.488
  172SAPE  H10R19411   0.196   4.928   3.461
  172SAPE  H10S19412   0.298   5.047   3.535
  172SAPE  C21119413   0.350   4.852   3.593
  172SAPE  H11R19414   0.384   4.754   3.556
  172SAPE  C21219415   0.351   4.876   3.723
  172SAPE  H12R19416   0.399   4.798   3.784
  172SAPE  C21319417   0.308   4.999   3.798
  172SAPE  H13R19418   0.219   5.035   3.741
  172SAPE  H13S19419   0.375   5.087   3.796
  172SAPE  C21419420   0.269   4.959   3.939
  172SAPE  H14R19421   0.321   4.874   3.985
  172SAPE  C21519422   0.180   5.020   4.023
  172SAPE  H15R19423   0.146   4.981   4.121
  172SAPE  C21619424   0.107   5.145   3.992
  172SAPE  H16R19425   6.853   5.118   3.984
  172SAPE  H16S19426   0.139   5.191   3.897
  172SAPE  C21719427   0.119   5.250   4.111
  172SAPE  H17R19428   0.080   5.207   4.206
  172SAPE  H17S19429   0.046   5.329   4.082
  172SAPE  C21819430   0.265   5.309   4.129
  172SAPE  H18R19431   0.293   5.383   4.050
  172SAPE  H18S19432   0.341   5.229   4.116
  172SAPE  C21919433   0.280   5.368   4.267
  172SAPE  H19R19434   0.222   5.310   4.342
  172SAPE  H19S19435   0.240   5.471   4.275
  172SAPE  C22019436   0.426   5.370   4.314
  172SAPE  H20R19437   0.488   5.435   4.248
  172SAPE  H20S19438   0.479   5.273   4.297
  172SAPE  H20T19439   0.430   5.410   4.417
  172SAPE   C3319440   0.808   4.922   3.268
  172SAPE   H3X19441   0.721   4.990   3.257
  172SAPE   H3Y19442   0.894   4.992   3.281
  172SAPE   C3419443   0.783   4.850   3.405
  172SAPE   H4X19444   0.872   4.785   3.413
  172SAPE   H4Y19445   0.692   4.790   3.384
  172SAPE   C3519446   0.757   4.940   3.524
  172SAPE   H5X19447   0.662   4.995   3.507
  172SAPE   H5Y19448   0.840   5.012   3.541
  172SAPE   C3619449   0.751   4.858   3.654
  172SAPE   H6X19450   0.850   4.809   3.664
  172SAPE   H6Y19451   0.671   4.781   3.652
  172SAPE   C3719452   0.732   4.943   3.783
  172SAPE   H7X19453   0.637   4.995   3.758
  172SAPE   H7Y19454   0.815   5.016   3.797
  172SAPE   C3819455   0.719   4.846   3.898
  172SAPE   H8X19456   0.821   4.803   3.908
  172SAPE   H8Y19457   0.644   4.768   3.871
  172SAPE   C3919458   0.685   4.901   4.038
  172SAPE   H9X19459   0.582   4.942   4.035
  172SAPE   H9Y19460   0.761   4.976   4.070
  172SAPE  C31019461   0.688   4.799   4.152
  172SAPE  H10X19462   0.634   4.709   4.116
  172SAPE  H10Y19463   0.649   4.834   4.250
  172SAPE  C31119464   0.834   4.757   4.185
  172SAPE  H11X19465   0.895   4.842   4.222
  172SAPE  H11Y19466   0.885   4.720   4.094
  172SAPE  C31219467   0.842   4.632   4.278
  172SAPE  H12X19468   0.933   4.575   4.250
  172SAPE  H12Y19469   0.751   4.569   4.267
  172SAPE  C31319470   0.860   4.663   4.428
  172SAPE  H13X19471   0.765   4.712   4.458
  172SAPE  H13Y19472   0.952   4.725   4.429
  172SAPE  C31419473   0.884   4.540   4.510
  172SAPE  H14X19474   0.934   4.569   4.605
  172SAPE  H14Y19475   0.957   4.468   4.468
  172SAPE  C31519476   0.748   4.468   4.530
  172SAPE  H15X19477   0.690   4.463   4.435
  172SAPE  H15Y19478   0.704   4.521   4.617
  172SAPE  C31619479   0.767   4.323   4.592
  172SAPE  H16X19480   0.846   4.332   4.669
  172SAPE  H16Y19481   0.811   4.257   4.514
  172SAPE  C31719482   0.638   4.255   4.629
  172SAPE  H17X19483   0.572   4.260   4.540
  172SAPE  H17Y19484   0.575   4.306   4.705
  172SAPE  C31819485   0.660   4.115   4.683
  172SAPE  H18X19486   0.739   4.059   4.629
  172SAPE  H18Y19487   0.570   4.050   4.684
  172SAPE  H18Z19488   0.704   4.119   4.785
  173SLPC     N19489   6.120   0.316   6.815
  173SLPC   C1319490   6.025   0.229   6.739
  173SLPC  H13A19491   6.007   0.136   6.790
  173SLPC  H13B19492   5.932   0.284   6.727
  173SLPC  H13C19493   6.062   0.191   6.645
  173SLPC   C1419494   6.077   0.354   6.947
  173SLPC  H14A19495   5.975   0.324   6.970
  173SLPC  H14B19496   6.131   0.319   7.034
  173SLPC  H14C19497   6.084   0.460   6.968
  173SLPC   C1519498   6.134   0.441   6.734
  173SLPC  H15A19499   6.048   0.501   6.758
  173SLPC  H15B19500   6.223   0.496   6.763
  173SLPC  H15C19501   6.127   0.411   6.631
  173SLPC   C1219502   6.250   0.243   6.829
  173SLPC  H12A19503   6.320   0.321   6.857
  173SLPC  H12B19504   6.286   0.201   6.736
  173SLPC   C1119505   6.254   0.132   6.938
  173SLPC  H11A19506   6.223   0.184   7.032
  173SLPC  H11B19507   6.358   0.104   6.962
  173SLPC     P19508   6.214   6.740   6.870
  173SLPC   O1319509   6.313   6.690   6.966
  173SLPC   O1419510   6.096   6.658   6.852
  173SLPC   O1219511   6.161   0.023   6.927
  173SLPC   O1119512   6.284   6.767   6.735
  173SLPC    C119513   6.231   6.768   6.601
  173SLPC    HA19514   6.132   6.817   6.601
  173SLPC    HB19515   6.302   6.827   6.539
  173SLPC    C219516   6.215   6.628   6.542
  173SLPC    HS19517   6.169   6.566   6.622
  173SLPC   O2119518   6.344   6.572   6.502
  173SLPC   C2119519   6.335   6.444   6.488
  173SLPC   O2219520   6.235   6.370   6.502
  173SLPC   C2219521   6.477   6.390   6.457
  173SLPC   H2R19522   6.543   6.477   6.434
  173SLPC   H2S19523   6.517   6.335   6.545
  173SLPC    C319524   6.106   6.617   6.427
  173SLPC    HX19525   6.020   6.682   6.452
  173SLPC    HY19526   6.065   6.514   6.432
  173SLPC   O3119527   6.164   6.633   6.293
  173SLPC   C3119528   6.182   6.757   6.253
  173SLPC   O3219529   6.153   0.006   6.308
  173SLPC   C3219530   6.262   6.754   6.125
  173SLPC   H2X19531   6.234   6.665   6.063
  173SLPC   H2Y19532   6.371   6.747   6.140
  173SLPC   C2319533   6.480   6.299   6.329
  173SLPC   H3R19534   6.411   6.216   6.355
  173SLPC   H3S19535   6.582   6.260   6.311
  173SLPC   C2419536   6.416   6.368   6.208
  173SLPC   H4R19537   6.482   6.453   6.178
  173SLPC   H4S19538   6.318   6.413   6.235
  173SLPC   C2519539   6.398   6.278   6.096
  173SLPC   H5R19540   6.341   6.187   6.124
  173SLPC   H5S19541   6.497   6.238   6.066
  173SLPC   C2619542   6.331   6.349   5.978
  173SLPC   H6R19543   6.407   6.425   5.950
  173SLPC   H6S19544   6.240   6.403   6.012
  173SLPC   C2719545   6.285   6.263   5.852
  173SLPC   H7R19546   6.217   6.181   5.883
  173SLPC   H7S19547   6.368   6.218   5.793
  173SLPC   C2819548   6.209   6.336   5.745
  173SLPC   H8R19549   6.125   6.389   5.794
  173SLPC   H8S19550   6.169   6.257   5.678
  173SLPC   C2919551   6.297   6.441   5.676
  173SLPC   H9R19552   6.332   6.527   5.735
  173SLPC  C21019553   6.323   6.448   5.542
  173SLPC  H10R19554   6.382   6.534   5.507
  173SLPC  C21119555   6.296   6.342   5.433
  173SLPC  H11R19556   6.263   6.244   5.473
  173SLPC  H11S19557   6.384   6.297   5.382
  173SLPC  C21219558   6.190   6.384   5.337
  173SLPC  H12R19559   6.099   6.424   5.383
  173SLPC  C21319560   6.200   6.381   5.205
  173SLPC  H13R19561   6.108   6.413   5.152
  173SLPC  C21419562   6.313   6.357   5.110
  173SLPC  H14R19563   6.298   6.262   5.055
  173SLPC  H14S19564   6.406   6.340   5.169
  173SLPC  C21519565   6.333   6.465   5.005
  173SLPC  H15R19566   6.243   6.449   4.942
  173SLPC  H15S19567   6.426   6.450   4.946
  173SLPC  C21619568   6.336   6.605   5.071
  173SLPC  H16R19569   6.239   6.636   5.115
  173SLPC  H16S19570   6.333   6.672   4.982
  173SLPC  C21719571   6.458   6.641   5.158
  173SLPC  H17R19572   6.466   6.558   5.230
  173SLPC  H17S19573   6.434   6.729   5.222
  173SLPC  C21819574   6.580   6.677   5.082
  173SLPC  H18R19575   6.564   6.763   5.013
  173SLPC  H18S19576   6.619   6.589   5.028
  173SLPC  H18T19577   6.658   6.709   5.154
  173SLPC   C3319578   6.230   0.022   6.040
  173SLPC   H3X19579   6.290   0.110   6.072
  173SLPC   H3Y19580   6.122   0.045   6.058
  173SLPC   C3419581   6.275   6.843   5.896
  173SLPC   H4X19582   6.237   6.746   5.855
  173SLPC   H4Y19583   6.386   6.842   5.892
  173SLPC   C3519584   6.232   0.098   5.795
  173SLPC   H5X19585   6.306   0.179   5.816
  173SLPC   H5Y19586   6.125   0.124   5.808
  173SLPC   C3619587   6.262   0.052   5.652
  173SLPC   H6X19588   6.225   6.803   5.640
  173SLPC   H6Y19589   6.373   0.050   5.639
  173SLPC   C3719590   6.200   0.137   5.546
  173SLPC   H7X19591   6.251   0.235   5.547
  173SLPC   H7Y19592   6.091   0.149   5.564
  173SLPC   C3819593   6.214   0.082   5.411
  173SLPC   H8X19594   6.190   6.828   5.421
  173SLPC   H8Y19595   6.320   0.093   5.380
  173SLPC   C3919596   6.127   0.141   5.301
  173SLPC   H9X19597   6.149   0.247   5.276
  173SLPC   H9Y19598   6.025   0.122   5.343
  173SLPC  C31019599   6.144   0.070   5.169
  173SLPC  H10X19600   6.127   6.815   5.178
  173SLPC  H10Y19601   6.251   0.090   5.146
  173SLPC  C31119602   6.071   0.143   5.058
  173SLPC  H11X19603   6.099   0.248   5.034
  173SLPC  H11Y19604   5.965   0.135   5.092
  173SLPC  C31219605   6.085   0.071   4.920
  173SLPC  H12X19606   6.074   6.818   4.945
  173SLPC  H12Y19607   6.187   0.087   4.878
  173SLPC  C31319608   5.984   0.117   4.819
  173SLPC  H13X19609   5.995   0.225   4.798
  173SLPC  H13Y19610   5.881   0.096   4.855
  173SLPC  C31419611   6.001   0.045   4.679
  173SLPC  H14X19612   6.012   6.789   4.692
  173SLPC  H14Y19613   6.098   0.081   4.640
  173SLPC  C31519614   5.884   0.071   4.577
  173SLPC  H15X19615   5.880   0.181   4.563
  173SLPC  H15Y19616   5.787   0.046   4.625
  173SLPC  C31619617   5.896   0.005   4.437
  173SLPC  H16X19618   5.981   0.051   4.383
  173SLPC  H16Y19619   5.806   0.029   4.376
  173SLPC  C31719620   5.923   6.711   4.431
  173SLPC  H17X19621   5.851   6.657   4.497
  173SLPC  H17Y19622   6.023   6.693   4.477
  173SLPC  C31819623   5.933   6.656   4.286
  173SLPC  H18X19624   5.830   6.666   4.245
  173SLPC  H18Y19625   5.973   6.553   4.281
  173SLPC  H18Z19626   6.005   6.725   4.235
  174SLPC     N19627   3.543   2.383   7.038
  174SLPC   C1319628   3.610   2.507   6.998
  174SLPC  H13A19629   3.572   2.547   6.905
  174SLPC  H13B19630   3.605   2.583   7.075
  174SLPC  H13C19631   3.714   2.492   6.975
  174SLPC   C1419632   3.420   2.411   7.124
  174SLPC  H14A19633   3.387   2.320   7.172
  174SLPC  H14B19634   3.451   2.476   7.204
  174SLPC  H14C19635   3.335   2.459   7.077
  174SLPC   C1519636   3.641   2.304   7.118
  174SLPC  H15A19637   3.594   2.213   7.152
  174SLPC  H15B19638   3.722   2.272   7.054
  174SLPC  H15C19639   3.679   2.354   7.206
  174SLPC   C1219640   3.506   2.310   6.908
  174SLPC  H12A19641   3.600   2.289   6.859
  174SLPC  H12B19642   3.455   2.388   6.853
  174SLPC   C1119643   3.437   2.172   6.923
  174SLPC  H11A19644   3.401   2.141   6.822
  174SLPC  H11B19645   3.345   2.174   6.986
  174SLPC     P19646   3.636   2.005   6.910
  174SLPC   O1319647   3.764   2.017   6.984
  174SLPC   O1419648   3.589   1.867   6.878
  174SLPC   O1219649   3.522   2.084   6.989
  174SLPC   O1119650   3.641   2.087   6.774
  174SLPC    C119651   3.734   2.048   6.676
  174SLPC    HA19652   3.829   2.104   6.688
  174SLPC    HB19653   3.769   1.943   6.688
  174SLPC    C219654   3.681   2.067   6.527
  174SLPC    HS19655   3.673   2.176   6.507
  174SLPC   O2119656   3.547   2.000   6.501
  174SLPC   C2119657   3.463   2.058   6.421
  174SLPC   O2219658   3.478   2.158   6.353
  174SLPC   C2219659   3.330   1.975   6.435
  174SLPC   H2R19660   3.365   1.870   6.452
  174SLPC   H2S19661   3.277   2.016   6.524
  174SLPC    C319662   3.780   1.999   6.428
  174SLPC    HX19663   3.781   1.890   6.449
  174SLPC    HY19664   3.881   2.042   6.445
  174SLPC   O3119665   3.734   2.023   6.292
  174SLPC   C3119666   3.747   2.137   6.226
  174SLPC   O3219667   3.814   2.233   6.263
  174SLPC   C3219668   3.677   2.114   6.090
  174SLPC   H2X19669   3.579   2.061   6.097
  174SLPC   H2Y19670   3.747   2.047   6.037
  174SLPC   C2319671   3.240   1.972   6.312
  174SLPC   H3R19672   3.226   2.073   6.268
  174SLPC   H3S19673   3.145   1.925   6.344
  174SLPC   C2419674   3.295   1.902   6.193
  174SLPC   H4R19675   3.301   1.793   6.213
  174SLPC   H4S19676   3.398   1.941   6.177
  174SLPC   C2519677   3.214   1.931   6.063
  174SLPC   H5R19678   3.227   2.036   6.028
  174SLPC   H5S19679   3.108   1.906   6.084
  174SLPC   C2619680   3.241   1.845   5.936
  174SLPC   H6R19681   3.228   1.736   5.949
  174SLPC   H6S19682   3.350   1.858   5.915
  174SLPC   C2719683   3.162   1.889   5.812
  174SLPC   H7R19684   3.065   1.929   5.849
  174SLPC   H7S19685   3.139   1.799   5.751
  174SLPC   C2819686   3.249   1.993   5.725
  174SLPC   H8R19687   3.306   2.050   5.801
  174SLPC   H8S19688   3.181   2.067   5.679
  174SLPC   C2919689   3.358   1.930   5.633
  174SLPC   H9R19690   3.442   1.887   5.690
  174SLPC  C21019691   3.364   1.920   5.497
  174SLPC  H10R19692   3.456   1.892   5.445
  174SLPC  C21119693   3.263   1.964   5.399
  174SLPC  H11R19694   3.299   2.025   5.314
  174SLPC  H11S19695   3.190   2.031   5.449
  174SLPC  C21219696   3.201   1.835   5.345
  174SLPC  H12R19697   3.121   1.791   5.407
  174SLPC  C21319698   3.226   1.760   5.238
  174SLPC  H13R19699   3.163   1.672   5.220
  174SLPC  C21419700   3.334   1.774   5.131
  174SLPC  H14R19701   3.377   1.675   5.104
  174SLPC  H14S19702   3.414   1.841   5.169
  174SLPC  C21519703   3.275   1.839   5.008
  174SLPC  H15R19704   3.227   1.935   5.037
  174SLPC  H15S19705   3.200   1.775   4.957
  174SLPC  C21619706   3.391   1.876   4.909
  174SLPC  H16R19707   3.454   1.788   4.882
  174SLPC  H16S19708   3.461   1.941   4.966
  174SLPC  C21719709   3.345   1.931   4.773
  174SLPC  H17R19710   3.434   1.958   4.713
  174SLPC  H17S19711   3.282   2.022   4.784
  174SLPC  C21819712   3.271   1.832   4.692
  174SLPC  H18R19713   3.235   1.874   4.596
  174SLPC  H18S19714   3.182   1.795   4.747
  174SLPC  H18T19715   3.339   1.746   4.673
  174SLPC   C3319716   3.673   2.242   6.008
  174SLPC   H3X19717   3.767   2.302   6.001
  174SLPC   H3Y19718   3.596   2.307   6.055
  174SLPC   C3419719   3.616   2.233   5.863
  174SLPC   H4X19720   3.585   2.333   5.827
  174SLPC   H4Y19721   3.524   2.171   5.868
  174SLPC   C3519722   3.708   2.172   5.758
  174SLPC   H5X19723   3.762   2.081   5.792
  174SLPC   H5Y19724   3.790   2.246   5.750
  174SLPC   C3619725   3.659   2.162   5.616
  174SLPC   H6X19726   3.623   2.257   5.572
  174SLPC   H6Y19727   3.576   2.088   5.615
  174SLPC   C3719728   3.763   2.111   5.520
  174SLPC   H7X19729   3.797   2.011   5.552
  174SLPC   H7Y19730   3.843   2.188   5.524
  174SLPC   C3819731   3.711   2.088   5.375
  174SLPC   H8X19732   3.668   2.183   5.336
  174SLPC   H8Y19733   3.622   2.022   5.377
  174SLPC   C3919734   3.814   2.037   5.272
  174SLPC   H9X19735   3.840   1.934   5.303
  174SLPC   H9Y19736   3.907   2.097   5.282
  174SLPC  C31019737   3.758   2.026   5.133
  174SLPC  H10X19738   3.658   1.976   5.130
  174SLPC  H10Y19739   3.825   1.964   5.070
  174SLPC  C31119740   3.748   2.165   5.057
  174SLPC  H11X19741   3.849   2.205   5.040
  174SLPC  H11Y19742   3.681   2.229   5.119
  174SLPC  C31219743   3.665   2.165   4.927
  174SLPC  H12X19744   3.564   2.131   4.959
  174SLPC  H12Y19745   3.713   2.087   4.863
  174SLPC  C31319746   3.647   2.293   4.849
  174SLPC  H13X19747   3.751   2.335   4.846
  174SLPC  H13Y19748   3.590   2.375   4.897
  174SLPC  C31419749   3.600   2.271   4.700
  174SLPC  H14X19750   3.498   2.228   4.709
  174SLPC  H14Y19751   3.656   2.188   4.652
  174SLPC  C31519752   3.610   2.391   4.611
  174SLPC  H15X19753   3.568   2.375   4.509
  174SLPC  H15Y19754   3.714   2.427   4.598
  174SLPC  C31619755   3.542   2.515   4.678
  174SLPC  H16X19756   3.616   2.574   4.737
  174SLPC  H16Y19757   3.469   2.473   4.751
  174SLPC  C31719758   3.472   2.619   4.595
  174SLPC  H17X19759   3.409   2.689   4.654
  174SLPC  H17Y19760   3.401   2.569   4.525
  174SLPC  C31819761   3.558   2.697   4.488
  174SLPC  H18X19762   3.492   2.753   4.418
  174SLPC  H18Y19763   3.637   2.632   4.445
  174SLPC  H18Z19764   3.619   2.771   4.545
  175SLPC     N19765   6.483   2.383   6.465
  175SLPC   C1319766   6.355   2.465   6.493
  175SLPC  H13A19767   6.378   2.555   6.547
  175SLPC  H13B19768   6.309   2.496   6.400
  175SLPC  H13C19769   6.287   2.410   6.557
  175SLPC   C1419770   6.565   2.461   6.369
  175SLPC  H14A19771   6.596   2.556   6.409
  175SLPC  H14B19772   6.657   2.414   6.336
  175SLPC  H14C19773   6.514   2.465   6.274
  175SLPC   C1519774   6.452   2.246   6.404
  175SLPC  H15A19775   6.529   2.192   6.351
  175SLPC  H15B19776   6.406   2.186   6.481
  175SLPC  H15C19777   6.373   2.256   6.331
  175SLPC   C1219778   6.553   2.354   6.604
  175SLPC  H12A19779   6.647   2.307   6.576
  175SLPC  H12B19780   6.489   2.291   6.664
  175SLPC   C1119781   6.588   2.484   6.690
  175SLPC  H11A19782   6.620   2.444   6.788
  175SLPC  H11B19783   6.496   2.538   6.721
  175SLPC     P19784   6.669   2.720   6.628
  175SLPC   O1319785   6.566   2.765   6.729
  175SLPC   O1419786   6.800   2.783   6.640
  175SLPC   O1219787   6.689   2.561   6.635
  175SLPC   O1119788   6.604   2.742   6.479
  175SLPC    C119789   6.568   2.878   6.452
  175SLPC    HA19790   6.503   2.917   6.532
  175SLPC    HB19791   6.654   2.949   6.445
  175SLPC    C219792   6.473   2.881   6.332
  175SLPC    HS19793   6.410   2.795   6.361
  175SLPC   O2119794   6.546   2.865   6.208
  175SLPC   C2119795   6.474   2.796   6.114
  175SLPC   O2219796   6.374   2.730   6.142
  175SLPC   C2219797   6.532   2.806   5.981
  175SLPC   H2R19798   6.639   2.832   5.992
  175SLPC   H2S19799   6.536   2.704   5.936
  175SLPC    C319800   6.392   3.016   6.329
  175SLPC    HX19801   6.468   3.097   6.335
  175SLPC    HY19802   6.331   3.027   6.421
  175SLPC   O3119803   6.304   3.032   6.219
  175SLPC   C3119804   6.190   2.962   6.217
  175SLPC   O3219805   6.146   2.889   6.304
  175SLPC   C3219806   6.149   2.973   6.073
  175SLPC   H2X19807   6.236   2.961   6.004
  175SLPC   H2Y19808   6.128   3.081   6.061
  175SLPC   C2319809   6.475   2.915   5.889
  175SLPC   H3R19810   6.463   3.002   5.958
  175SLPC   H3S19811   6.371   2.894   5.856
  175SLPC   C2419812   6.577   2.955   5.776
  175SLPC   H4R19813   6.673   2.963   5.832
  175SLPC   H4S19814   6.547   3.053   5.732
  175SLPC   C2519815   6.597   2.856   5.657
  175SLPC   H5R19816   6.517   2.867   5.580
  175SLPC   H5S19817   6.592   2.759   5.710
  175SLPC   C2619818   6.733   2.879   5.584
  175SLPC   H6R19819   6.756   2.797   5.513
  175SLPC   H6S19820   6.814   2.883   5.659
  175SLPC   C2719821   6.748   3.012   5.507
  175SLPC   H7R19822   6.850   3.055   5.505
  175SLPC   H7S19823   6.695   3.090   5.566
  175SLPC   C2819824   6.691   2.995   5.369
  175SLPC   H8R19825   6.671   3.092   5.320
  175SLPC   H8S19826   6.592   2.944   5.368
  175SLPC   C2919827   6.797   2.923   5.292
  175SLPC   H9R19828   6.852   2.844   5.346
  175SLPC  C21019829   6.836   2.946   5.167
  175SLPC  H10R19830   0.051   2.868   5.131
  175SLPC  C21119831   6.776   3.047   5.072
  175SLPC  H11R19832   6.774   3.148   5.118
  175SLPC  H11S19833   6.669   3.021   5.055
  175SLPC  C21219834   6.848   3.052   4.941
  175SLPC  H12R19835   0.104   3.051   4.950
  175SLPC  C21319836   6.782   3.054   4.821
  175SLPC  H13R19837   6.846   3.068   4.733
  175SLPC  C21419838   6.634   3.028   4.798
  175SLPC  H14R19839   6.592   3.125   4.763
  175SLPC  H14S19840   6.570   2.993   4.881
  175SLPC  C21519841   6.623   2.928   4.673
  175SLPC  H15R19842   6.513   2.919   4.664
  175SLPC  H15S19843   6.671   2.832   4.701
  175SLPC  C21619844   6.674   2.992   4.539
  175SLPC  H16R19845   6.783   3.009   4.546
  175SLPC  H16S19846   6.628   3.093   4.535
  175SLPC  C21719847   6.643   2.897   4.415
  175SLPC  H17R19848   6.534   2.878   4.422
  175SLPC  H17S19849   6.701   2.802   4.420
  175SLPC  C21819850   6.670   2.959   4.276
  175SLPC  H18R19851   6.671   3.070   4.285
  175SLPC  H18S19852   6.603   2.917   4.198
  175SLPC  H18T19853   6.772   2.934   4.242
  175SLPC   C3319854   6.020   2.889   6.037
  175SLPC   H3X19855   5.949   2.891   6.123
  175SLPC   H3Y19856   6.047   2.782   6.023
  175SLPC   C3419857   5.953   2.952   5.920
  175SLPC   H4X19858   5.909   3.047   5.954
  175SLPC   H4Y19859   5.875   2.881   5.885
  175SLPC   C3519860   6.044   2.993   5.803
  175SLPC   H5X19861   6.133   2.926   5.799
  175SLPC   H5Y19862   6.083   3.095   5.826
  175SLPC   C3619863   5.978   2.977   5.668
  175SLPC   H6X19864   5.881   3.031   5.669
  175SLPC   H6Y19865   5.944   2.877   5.634
  175SLPC   C3719866   6.066   3.033   5.566
  175SLPC   H7X19867   6.172   3.009   5.591
  175SLPC   H7Y19868   6.070   3.144   5.556
  175SLPC   C3819869   6.032   2.970   5.433
  175SLPC   H8X19870   5.926   2.989   5.406
  175SLPC   H8Y19871   6.051   2.861   5.443
  175SLPC   C3919872   6.106   3.032   5.304
  175SLPC   H9X19873   6.216   3.034   5.323
  175SLPC   H9Y19874   6.066   3.135   5.307
  175SLPC  C31019875   6.071   2.978   5.168
  175SLPC  H10X19876   5.967   3.006   5.141
  175SLPC  H10Y19877   6.089   2.868   5.167
  175SLPC  C31119878   6.153   3.039   5.056
  175SLPC  H11X19879   6.259   3.043   5.088
  175SLPC  H11Y19880   6.109   3.139   5.033
  175SLPC  C31219881   6.148   2.953   4.928
  175SLPC  H12X19882   6.044   2.935   4.894
  175SLPC  H12Y19883   6.200   2.856   4.942
  175SLPC  C31319884   6.218   3.024   4.808
  175SLPC  H13X19885   6.198   2.949   4.728
  175SLPC  H13Y19886   6.328   3.014   4.818
  175SLPC  C31419887   6.166   3.159   4.767
  175SLPC  H14X19888   6.184   3.233   4.848
  175SLPC  H14Y19889   6.057   3.153   4.745
  175SLPC  C31519890   6.243   3.208   4.645
  175SLPC  H15X19891   6.347   3.185   4.677
  175SLPC  H15Y19892   6.228   3.317   4.633
  175SLPC  C31619893   6.224   3.133   4.509
  175SLPC  H16X19894   6.273   3.033   4.511
  175SLPC  H16Y19895   6.282   3.192   4.434
  175SLPC  C31719896   6.077   3.123   4.462
  175SLPC  H17X19897   6.046   3.227   4.441
  175SLPC  H17Y19898   6.025   3.070   4.545
  175SLPC  C31819899   6.052   3.043   4.336
  175SLPC  H18X19900   5.942   3.035   4.318
  175SLPC  H18Y19901   6.094   2.941   4.328
  175SLPC  H18Z19902   6.081   3.102   4.247
  176SLPC     N19903   5.566   0.094   6.510
  176SLPC   C1319904   5.632   6.821   6.457
  176SLPC  H13A19905   5.734   6.833   6.424
  176SLPC  H13B19906   5.628   6.749   6.537
  176SLPC  H13C19907   5.565   6.777   6.384
  176SLPC   C1419908   5.628   0.124   6.633
  176SLPC  H14A19909   5.613   0.045   6.706
  176SLPC  H14B19910   5.734   0.136   6.617
  176SLPC  H14C19911   5.578   0.207   6.682
  176SLPC   C1519912   5.419   0.081   6.533
  176SLPC  H15A19913   5.398   0.021   6.621
  176SLPC  H15B19914   5.350   0.163   6.543
  176SLPC  H15C19915   5.387   0.019   6.450
  176SLPC   C1219916   5.589   0.215   6.407
  176SLPC  H12A19917   5.549   0.185   6.311
  176SLPC  H12B19918   5.696   0.226   6.395
  176SLPC   C1119919   5.542   0.353   6.442
  176SLPC  H11A19920   5.431   0.355   6.441
  176SLPC  H11B19921   5.573   0.424   6.362
  176SLPC     P19922   5.738   0.444   6.592
  176SLPC   O1319923   5.749   0.491   6.736
  176SLPC   O1419924   5.822   0.331   6.547
  176SLPC   O1219925   5.586   0.401   6.570
  176SLPC   O1119926   5.751   0.558   6.492
  176SLPC    C119927   5.883   0.617   6.444
  176SLPC    HA19928   5.864   0.726   6.453
  176SLPC    HB19929   5.967   0.574   6.504
  176SLPC    C219930   5.919   0.577   6.297
  176SLPC    HS19931   6.017   0.617   6.265
  176SLPC   O2119932   5.811   0.609   6.214
  176SLPC   C2119933   5.778   0.735   6.194
  176SLPC   O2219934   5.848   0.833   6.227
  176SLPC   C2219935   5.634   0.734   6.138
  176SLPC   H2R19936   5.596   0.630   6.125
  176SLPC   H2S19937   5.578   0.791   6.215
  176SLPC    C319938   5.943   0.426   6.284
  176SLPC    HX19939   5.853   0.379   6.328
  176SLPC    HY19940   6.032   0.399   6.345
  176SLPC   O3119941   5.964   0.400   6.145
  176SLPC   C3119942   5.860   0.341   6.089
  176SLPC   O3219943   5.755   0.307   6.138
  176SLPC   C3219944   5.893   0.338   5.938
  176SLPC   H2X19945   5.996   0.296   5.939
  176SLPC   H2Y19946   5.904   0.445   5.909
  176SLPC   C2319947   5.635   0.814   6.009
  176SLPC   H3R19948   5.655   0.917   6.046
  176SLPC   H3S19949   5.533   0.816   5.965
  176SLPC   C2419950   5.720   0.751   5.896
  176SLPC   H4R19951   5.682   0.650   5.870
  176SLPC   H4S19952   5.825   0.748   5.932
  176SLPC   C2519953   5.727   0.821   5.767
  176SLPC   H5R19954   5.801   0.767   5.704
  176SLPC   H5S19955   5.766   0.924   5.777
  176SLPC   C2619956   5.601   0.812   5.684
  176SLPC   H6R19957   5.521   0.871   5.733
  176SLPC   H6S19958   5.567   0.706   5.686
  176SLPC   C2719959   5.609   0.860   5.542
  176SLPC   H7R19960   5.669   0.954   5.542
  176SLPC   H7S19961   5.509   0.888   5.504
  176SLPC   C2819962   5.676   0.759   5.447
  176SLPC   H8R19963   5.612   0.669   5.442
  176SLPC   H8S19964   5.770   0.733   5.501
  176SLPC   C2919965   5.699   0.827   5.314
  176SLPC   H9R19966   5.613   0.849   5.249
  176SLPC  C21019967   5.811   0.891   5.269
  176SLPC  H10R19968   5.808   0.963   5.186
  176SLPC  C21119969   5.945   0.881   5.342
  176SLPC  H11R19970   5.919   0.830   5.437
  176SLPC  H11S19971   5.976   0.985   5.364
  176SLPC  C21219972   6.054   0.803   5.273
  176SLPC  H12R19973   6.027   0.736   5.189
  176SLPC  C21319974   6.183   0.826   5.300
  176SLPC  H13R19975   6.260   0.774   5.243
  176SLPC  C21419976   6.245   0.907   5.411
  176SLPC  H14R19977   6.164   0.927   5.485
  176SLPC  H14S19978   6.284   1.006   5.379
  176SLPC  C21519979   6.356   0.823   5.485
  176SLPC  H15R19980   6.326   0.718   5.508
  176SLPC  H15S19981   6.370   0.874   5.583
  176SLPC  C21619982   6.481   0.833   5.400
  176SLPC  H16R19983   6.492   0.940   5.372
  176SLPC  H16S19984   6.461   0.785   5.302
  176SLPC  C21719985   6.607   0.780   5.472
  176SLPC  H17R19986   6.617   0.825   5.573
  176SLPC  H17S19987   6.695   0.819   5.418
  176SLPC  C21819988   6.608   0.629   5.494
  176SLPC  H18R19989   6.530   0.613   5.572
  176SLPC  H18S19990   6.704   0.593   5.536
  176SLPC  H18T19991   6.584   0.576   5.400
  176SLPC   C3319992   5.790   0.262   5.850
  176SLPC   H3X19993   5.751   0.161   5.875
  176SLPC   H3Y19994   5.837   0.246   5.750
  176SLPC   C3419995   5.671   0.356   5.813
  176SLPC   H4X19996   5.700   0.452   5.765
  176SLPC   H4Y19997   5.627   0.385   5.911
  176SLPC   C3519998   5.563   0.286   5.732
  176SLPC   H5X19999   5.527   0.200   5.792
  176SLPC   H5Y20000   5.603   0.222   5.650
  176SLPC   C3620001   5.441   0.369   5.691
  176SLPC   H6X20002   5.437   0.449   5.768
  176SLPC   H6Y20003   5.344   0.319   5.712
  176SLPC   C3720004   5.450   0.428   5.552
  176SLPC   H7X20005   5.469   0.346   5.479
  176SLPC   H7Y20006   5.527   0.508   5.544
  176SLPC   C3820007   5.311   0.488   5.523
  176SLPC   H8X20008   5.298   0.575   5.591
  176SLPC   H8Y20009   5.236   0.409   5.544
  176SLPC   C3920010   5.311   0.538   5.380
  176SLPC   H9X20011   5.416   0.560   5.353
  176SLPC   H9Y20012   5.257   0.634   5.368
  176SLPC  C31020013   5.246   0.434   5.286
  176SLPC  H10X20014   5.142   0.427   5.326
  176SLPC  H10Y20015   5.278   0.329   5.306
  176SLPC  C31120016   5.234   0.472   5.139
  176SLPC  H11X20017   5.336   0.489   5.099
  176SLPC  H11Y20018   5.185   0.571   5.129
  176SLPC  C31220019   5.156   0.371   5.037
  176SLPC  H12X20020   5.051   0.366   5.072
  176SLPC  H12Y20021   5.216   0.278   5.037
  176SLPC  C31320022   5.172   0.427   4.898
  176SLPC  H13X20023   5.135   0.344   4.833
  176SLPC  H13Y20024   5.282   0.435   4.887
  176SLPC  C31420025   5.100   0.563   4.864
  176SLPC  H14X20026   5.145   0.653   4.912
  176SLPC  H14Y20027   4.993   0.549   4.890
  176SLPC  C31520028   5.097   0.598   4.716
  176SLPC  H15X20029   5.023   0.535   4.662
  176SLPC  H15Y20030   5.195   0.587   4.665
  176SLPC  C31620031   5.043   0.745   4.699
  176SLPC  H16X20032   5.117   0.812   4.747
  176SLPC  H16Y20033   4.942   0.764   4.742
  176SLPC  C31720034   5.049   0.787   4.552
  176SLPC  H17X20035   4.984   0.716   4.496
  176SLPC  H17Y20036   5.156   0.780   4.523
  176SLPC  C31820037   4.993   0.935   4.543
  176SLPC  H18X20038   4.987   0.981   4.442
  176SLPC  H18Y20039   5.050   1.002   4.611
  176SLPC  H18Z20040   4.888   0.943   4.580
  177SLPC     N20041   5.611   1.334   6.820
  177SLPC   C1320042   5.674   1.412   6.934
  177SLPC  H13A20043   5.664   1.518   6.917
  177SLPC  H13B20044   5.624   1.391   7.028
  177SLPC  H13C20045   5.777   1.382   6.941
  177SLPC   C1420046   5.473   1.379   6.805
  177SLPC  H14A20047   5.423   1.361   6.899
  177SLPC  H14B20048   5.466   1.487   6.794
  177SLPC  H14C20049   5.415   1.338   6.723
  177SLPC   C1520050   5.622   1.190   6.857
  177SLPC  H15A20051   5.720   1.148   6.874
  177SLPC  H15B20052   5.557   1.163   6.939
  177SLPC  H15C20053   5.573   1.130   6.781
  177SLPC   C1220054   5.684   1.365   6.692
  177SLPC  H12A20055   5.789   1.372   6.713
  177SLPC  H12B20056   5.661   1.468   6.667
  177SLPC   C1120057   5.653   1.269   6.570
  177SLPC  H11A20058   5.717   1.178   6.576
  177SLPC  H11B20059   5.686   1.314   6.474
  177SLPC     P20060   5.421   1.258   6.444
  177SLPC   O1320061   5.283   1.262   6.499
  177SLPC   O1420062   5.469   1.390   6.396
  177SLPC   O1220063   5.519   1.212   6.559
  177SLPC   O1120064   5.431   1.145   6.341
  177SLPC    C120065   5.560   1.097   6.299
  177SLPC    HA20066   5.624   1.083   6.389
  177SLPC    HB20067   5.551   0.997   6.251
  177SLPC    C220068   5.629   1.195   6.196
  177SLPC    HS20069   5.609   1.301   6.221
  177SLPC   O2120070   5.580   1.142   6.068
  177SLPC   C2120071   5.538   1.242   5.990
  177SLPC   O2220072   5.541   1.360   6.011
  177SLPC   C2220073   5.481   1.185   5.858
  177SLPC   H2R20074   5.537   1.094   5.825
  177SLPC   H2S20075   5.383   1.146   5.893
  177SLPC    C320076   5.791   1.186   6.203
  177SLPC    HX20077   5.813   1.077   6.193
  177SLPC    HY20078   5.813   1.214   6.308
  177SLPC   O3120079   5.866   1.266   6.105
  177SLPC   C3120080   5.873   1.397   6.133
  177SLPC   O3220081   5.823   1.453   6.228
  177SLPC   C3220082   5.946   1.474   6.022
  177SLPC   H2X20083   5.905   1.440   5.925
  177SLPC   H2Y20084   6.054   1.451   6.030
  177SLPC   C2320085   5.458   1.287   5.745
  177SLPC   H3R20086   5.414   1.382   5.784
  177SLPC   H3S20087   5.388   1.237   5.675
  177SLPC   C2420088   5.586   1.339   5.668
  177SLPC   H4R20089   5.645   1.247   5.646
  177SLPC   H4S20090   5.635   1.419   5.728
  177SLPC   C2520091   5.539   1.395   5.533
  177SLPC   H5R20092   5.612   1.468   5.492
  177SLPC   H5S20093   5.448   1.459   5.540
  177SLPC   C2620094   5.504   1.292   5.413
  177SLPC   H6R20095   5.467   1.194   5.448
  177SLPC   H6S20096   5.602   1.260   5.371
  177SLPC   C2720097   5.414   1.355   5.307
  177SLPC   H7R20098   5.311   1.379   5.342
  177SLPC   H7S20099   5.414   1.276   5.229
  177SLPC   C2820100   5.471   1.492   5.245
  177SLPC   H8R20101   5.578   1.485   5.218
  177SLPC   H8S20102   5.460   1.569   5.325
  177SLPC   C2920103   5.390   1.543   5.131
  177SLPC   H9R20104   5.302   1.598   5.166
  177SLPC  C21020105   5.409   1.508   4.997
  177SLPC  H10R20106   5.336   1.550   4.927
  177SLPC  C21120107   5.510   1.401   4.945
  177SLPC  H11R20108   5.476   1.365   4.846
  177SLPC  H11S20109   5.504   1.303   4.998
  177SLPC  C21220110   5.657   1.437   4.939
  177SLPC  H12R20111   5.676   1.540   4.906
  177SLPC  C21320112   5.766   1.371   4.977
  177SLPC  H13R20113   5.865   1.418   4.975
  177SLPC  C21420114   5.769   1.227   5.013
  177SLPC  H14R20115   5.668   1.200   5.051
  177SLPC  H14S20116   5.839   1.214   5.098
  177SLPC  C21520117   5.812   1.140   4.894
  177SLPC  H15R20118   5.741   1.156   4.811
  177SLPC  H15S20119   5.815   1.031   4.912
  177SLPC  C21620120   5.957   1.174   4.847
  177SLPC  H16R20121   5.973   1.279   4.814
  177SLPC  H16S20122   5.965   1.119   4.751
  177SLPC  C21720123   6.064   1.133   4.944
  177SLPC  H17R20124   6.040   1.033   4.986
  177SLPC  H17S20125   6.062   1.196   5.036
  177SLPC  C21820126   6.203   1.131   4.886
  177SLPC  H18R20127   6.191   1.086   4.785
  177SLPC  H18S20128   6.272   1.073   4.952
  177SLPC  H18T20129   6.248   1.232   4.883
  177SLPC   C3320130   5.935   1.627   6.040
  177SLPC   H3X20131   5.985   1.661   6.133
  177SLPC   H3Y20132   5.826   1.647   6.041
  177SLPC   C3420133   6.006   1.697   5.924
  177SLPC   H4X20134   5.951   1.670   5.831
  177SLPC   H4Y20135   6.109   1.661   5.904
  177SLPC   C3520136   6.024   1.847   5.945
  177SLPC   H5X20137   6.093   1.867   6.029
  177SLPC   H5Y20138   5.926   1.895   5.966
  177SLPC   C3620139   6.081   1.912   5.821
  177SLPC   H6X20140   6.023   1.862   5.740
  177SLPC   H6Y20141   6.189   1.892   5.806
  177SLPC   C3720142   6.055   2.061   5.818
  177SLPC   H7X20143   6.092   2.093   5.918
  177SLPC   H7Y20144   5.947   2.087   5.823
  177SLPC   C3820145   6.117   2.143   5.699
  177SLPC   H8X20146   6.227   2.142   5.709
  177SLPC   H8Y20147   6.076   2.245   5.716
  177SLPC   C3920148   6.055   2.109   5.561
  177SLPC   H9X20149   5.947   2.087   5.566
  177SLPC   H9Y20150   6.106   2.018   5.523
  177SLPC  C31020151   6.058   2.220   5.457
  177SLPC  H10X20152   6.161   2.258   5.439
  177SLPC  H10Y20153   6.004   2.310   5.492
  177SLPC  C31120154   6.007   2.173   5.328
  177SLPC  H11X20155   5.906   2.130   5.349
  177SLPC  H11Y20156   6.060   2.086   5.283
  177SLPC  C31220157   6.006   2.279   5.216
  177SLPC  H12X20158   6.109   2.316   5.194
  177SLPC  H12Y20159   5.940   2.366   5.237
  177SLPC  C31320160   5.974   2.219   5.079
  177SLPC  H13X20161   5.877   2.167   5.094
  177SLPC  H13Y20162   6.049   2.140   5.059
  177SLPC  C31420163   5.964   2.328   4.973
  177SLPC  H14X20164   6.060   2.383   4.962
  177SLPC  H14Y20165   5.887   2.393   5.021
  177SLPC  C31520166   5.909   2.278   4.838
  177SLPC  H15X20167   5.877   2.362   4.772
  177SLPC  H15Y20168   5.821   2.216   4.865
  177SLPC  C31620169   6.014   2.186   4.770
  177SLPC  H16X20170   5.985   2.139   4.674
  177SLPC  H16Y20171   6.041   2.098   4.833
  177SLPC  C31720172   6.145   2.263   4.741
  177SLPC  H17X20173   6.189   2.290   4.840
  177SLPC  H17Y20174   6.131   2.362   4.694
  177SLPC  C31820175   6.240   2.182   4.660
  177SLPC  H18X20176   6.207   2.190   4.554
  177SLPC  H18Y20177   6.239   2.078   4.698
  177SLPC  H18Z20178   6.342   2.226   4.658
  178SLPC     N20179   2.429   6.144   6.553
  178SLPC   C1320180   2.334   6.189   6.451
  178SLPC  H13A20181   2.233   6.197   6.491
  178SLPC  H13B20182   2.358   6.291   6.425
  178SLPC  H13C20183   2.344   6.127   6.363
  178SLPC   C1420184   2.390   6.009   6.611
  178SLPC  H14A20185   2.291   6.003   6.654
  178SLPC  H14B20186   2.399   5.928   6.540
  178SLPC  H14C20187   2.467   5.984   6.683
  178SLPC   C1520188   2.440   6.239   6.669
  178SLPC  H15A20189   2.483   6.332   6.636
  178SLPC  H15B20190   2.338   6.255   6.702
  178SLPC  H15C20191   2.502   6.207   6.751
  178SLPC   C1220192   2.565   6.119   6.497
  178SLPC  H12A20193   2.554   6.035   6.430
  178SLPC  H12B20194   2.633   6.090   6.576
  178SLPC   C1120195   2.640   6.228   6.416
  178SLPC  H11A20196   2.579   6.266   6.331
  178SLPC  H11B20197   2.734   6.184   6.376
  178SLPC     P20198   2.792   6.373   6.575
  178SLPC   O1320199   2.805   6.518   6.622
  178SLPC   O1420200   2.810   6.271   6.677
  178SLPC   O1220201   2.665   6.351   6.487
  178SLPC   O1120202   2.908   6.348   6.465
  178SLPC    C120203   2.978   6.448   6.393
  178SLPC    HA20204   2.954   6.552   6.421
  178SLPC    HB20205   3.086   6.442   6.420
  178SLPC    C220206   2.948   6.425   6.241
  178SLPC    HS20207   2.994   6.502   6.175
  178SLPC   O2120208   2.809   6.425   6.211
  178SLPC   C2120209   2.739   6.532   6.222
  178SLPC   O2220210   2.785   6.644   6.245
  178SLPC   C2220211   2.591   6.509   6.214
  178SLPC   H2R20212   2.573   6.405   6.179
  178SLPC   H2S20213   2.548   6.529   6.315
  178SLPC    C320214   3.007   6.291   6.187
  178SLPC    HX20215   2.937   6.206   6.198
  178SLPC    HY20216   3.102   6.272   6.242
  178SLPC   O3120217   3.026   6.304   6.045
  178SLPC   C3120218   3.139   6.359   5.994
  178SLPC   O3220219   3.237   6.386   6.065
  178SLPC   C3220220   3.135   6.415   5.853
  178SLPC   H2X20221   3.087   6.513   5.874
  178SLPC   H2Y20222   3.079   6.339   5.794
  178SLPC   C2320223   2.537   6.608   6.103
  178SLPC   H3R20224   2.533   6.710   6.147
  178SLPC   H3S20225   2.429   6.585   6.087
  178SLPC   C2420226   2.615   6.616   5.968
  178SLPC   H4R20227   2.648   6.517   5.928
  178SLPC   H4S20228   2.698   6.690   5.969
  178SLPC   C2520229   2.523   6.668   5.855
  178SLPC   H5R20230   2.489   6.770   5.883
  178SLPC   H5S20231   2.432   6.604   5.851
  178SLPC   C2620232   2.584   6.664   5.712
  178SLPC   H6R20233   2.500   6.680   5.641
  178SLPC   H6S20234   2.629   6.562   5.707
  178SLPC   C2720235   2.709   6.759   5.693
  178SLPC   H7R20236   2.769   6.760   5.786
  178SLPC   H7S20237   2.659   0.004   5.691
  178SLPC   C2820238   2.790   6.742   5.568
  178SLPC   H8R20239   2.712   6.719   5.493
  178SLPC   H8S20240   2.852   6.650   5.574
  178SLPC   C2920241   2.871   0.014   5.542
  178SLPC   H9R20242   2.916   0.061   5.631
  178SLPC  C21020243   2.882   0.074   5.423
  178SLPC  H10R20244   2.945   0.164   5.425
  178SLPC  C21120245   2.819   0.031   5.297
  178SLPC  H11R20246   2.824   0.115   5.225
  178SLPC  H11S20247   2.710   0.025   5.320
  178SLPC  C21220248   2.870   6.763   5.231
  178SLPC  H12R20249   2.910   6.685   5.298
  178SLPC  C21320250   2.857   6.725   5.103
  178SLPC  H13R20251   2.888   6.623   5.076
  178SLPC  C21420252   2.781   6.806   5.000
  178SLPC  H14R20253   2.732   0.045   5.036
  178SLPC  H14S20254   2.694   6.738   4.988
  178SLPC  C21520255   2.871   6.846   4.878
  178SLPC  H15R20256   2.901   6.761   4.813
  178SLPC  H15S20257   2.961   0.045   4.916
  178SLPC  C21620258   2.803   0.103   4.787
  178SLPC  H16R20259   2.884   0.154   4.731
  178SLPC  H16S20260   2.754   0.180   4.851
  178SLPC  C21720261   2.699   0.040   4.685
  178SLPC  H17R20262   2.752   6.804   4.647
  178SLPC  H17S20263   2.700   0.116   4.604
  178SLPC  C21820264   2.556   0.021   4.740
  178SLPC  H18R20265   2.482   0.035   4.659
  178SLPC  H18S20266   2.537   0.095   4.820
  178SLPC  H18T20267   2.543   6.772   4.781
  178SLPC   C3320268   3.272   6.433   5.796
  178SLPC   H3X20269   3.338   6.356   5.840
  178SLPC   H3Y20270   3.308   6.534   5.827
  178SLPC   C3420271   3.260   6.427   5.646
  178SLPC   H4X20272   3.186   6.497   5.601
  178SLPC   H4Y20273   3.220   6.328   5.618
  178SLPC   C3520274   3.398   6.449   5.582
  178SLPC   H5X20275   3.452   6.366   5.633
  178SLPC   H5Y20276   3.442   6.543   5.620
  178SLPC   C3620277   3.393   6.431   5.426
  178SLPC   H6X20278   3.374   6.322   5.411
  178SLPC   H6Y20279   3.496   6.433   5.384
  178SLPC   C3720280   3.290   6.519   5.352
  178SLPC   H7X20281   3.320   6.626   5.362
  178SLPC   H7Y20282   3.188   6.498   5.390
  178SLPC   C3820283   3.294   6.495   5.204
  178SLPC   H8X20284   3.223   6.416   5.171
  178SLPC   H8Y20285   3.400   6.481   5.177
  178SLPC   C3920286   3.248   6.628   5.130
  178SLPC   H9X20287   3.315   6.712   5.157
  178SLPC   H9Y20288   3.143   6.655   5.156
  178SLPC  C31020289   3.239   6.598   4.977
  178SLPC  H10X20290   3.342   6.584   4.940
  178SLPC  H10Y20291   3.189   6.681   4.921
  178SLPC  C31120292   3.152   6.475   4.937
  178SLPC  H11X20293   3.066   6.459   5.006
  178SLPC  H11Y20294   3.229   6.395   4.942
  178SLPC  C31220295   3.097   6.479   4.787
  178SLPC  H12X20296   3.158   6.549   4.725
  178SLPC  H12Y20297   2.993   6.518   4.792
  178SLPC  C31320298   3.090   6.346   4.713
  178SLPC  H13X20299   3.007   6.289   4.760
  178SLPC  H13Y20300   3.187   6.291   4.718
  178SLPC  C31420301   3.067   6.363   4.563
  178SLPC  H14X20302   3.145   6.427   4.515
  178SLPC  H14Y20303   2.977   6.427   4.557
  178SLPC  C31520304   3.042   6.235   4.485
  178SLPC  H15X20305   3.003   6.265   4.385
  178SLPC  H15Y20306   2.983   6.173   4.556
  178SLPC  C31620307   3.169   6.150   4.450
  178SLPC  H16X20308   3.211   6.145   4.552
  178SLPC  H16Y20309   3.251   6.204   4.398
  178SLPC  C31720310   3.145   6.021   4.369
  178SLPC  H17X20311   3.074   6.039   4.286
  178SLPC  H17Y20312   3.097   5.960   4.449
  178SLPC  C31820313   3.269   5.962   4.313
  178SLPC  H18X20314   3.336   5.944   4.399
  178SLPC  H18Y20315   3.321   6.033   4.245
  178SLPC  H18Z20316   3.249   5.871   4.254
  179SLPC     N20317   3.748   1.043   1.500
  179SLPC   C1320318   3.710   1.165   1.574
  179SLPC  H13A20319   3.793   1.226   1.606
  179SLPC  H13B20320   3.649   1.223   1.506
  179SLPC  H13C20321   3.653   1.141   1.663
  179SLPC   C1420322   3.885   1.003   1.542
  179SLPC  H14A20323   3.956   1.072   1.498
  179SLPC  H14B20324   3.884   1.002   1.650
  179SLPC  H14C20325   3.900   0.902   1.506
  179SLPC   C1520326   3.747   1.073   1.355
  179SLPC  H15A20327   3.830   1.134   1.323
  179SLPC  H15B20328   3.743   0.985   1.293
  179SLPC  H15C20329   3.664   1.139   1.338
  179SLPC   C1220330   3.642   0.930   1.531
  179SLPC  H12A20331   3.679   0.841   1.482
  179SLPC  H12B20332   3.546   0.951   1.488
  179SLPC   C1120333   3.614   0.880   1.676
  179SLPC  H11A20334   3.715   0.865   1.721
  179SLPC  H11B20335   3.566   0.780   1.678
  179SLPC     P20336   3.418   0.971   1.830
  179SLPC   O1320337   3.372   1.108   1.861
  179SLPC   O1420338   3.320   0.880   1.765
  179SLPC   O1220339   3.545   0.983   1.744
  179SLPC   O1120340   3.462   0.906   1.975
  179SLPC    C120341   3.577   0.969   2.045
  179SLPC    HA20342   3.643   1.021   1.973
  179SLPC    HB20343   3.534   1.048   2.110
  179SLPC    C220344   3.663   0.874   2.133
  179SLPC    HS20345   3.725   0.822   2.057
  179SLPC   O2120346   3.579   0.788   2.212
  179SLPC   C2120347   3.619   0.665   2.226
  179SLPC   O2220348   3.720   0.617   2.175
  179SLPC   C2220349   3.522   0.599   2.324
  179SLPC   H2R20350   3.415   0.625   2.305
  179SLPC   H2S20351   3.541   0.491   2.310
  179SLPC    C320352   3.755   0.955   2.226
  179SLPC    HX20353   3.690   1.014   2.294
  179SLPC    HY20354   3.803   1.026   2.155
  179SLPC   O3120355   3.850   0.876   2.303
  179SLPC   C3120356   3.958   0.833   2.228
  179SLPC   O3220357   3.971   0.861   2.110
  179SLPC   C3220358   4.037   0.730   2.316
  179SLPC   H2X20359   4.116   0.681   2.255
  179SLPC   H2Y20360   3.966   0.650   2.345
  179SLPC   C2320361   3.558   0.660   2.459
  179SLPC   H3R20362   3.580   0.769   2.448
  179SLPC   H3S20363   3.654   0.611   2.486
  179SLPC   C2420364   3.466   0.631   2.583
  179SLPC   H4R20365   3.506   0.540   2.633
  179SLPC   H4S20366   3.360   0.610   2.558
  179SLPC   C2520367   3.460   0.748   2.680
  179SLPC   H5R20368   3.405   0.840   2.649
  179SLPC   H5S20369   3.564   0.784   2.694
  179SLPC   C2620370   3.390   0.713   2.816
  179SLPC   H6R20371   3.454   0.630   2.853
  179SLPC   H6S20372   3.290   0.666   2.803
  179SLPC   C2720373   3.386   0.837   2.898
  179SLPC   H7R20374   3.308   0.903   2.852
  179SLPC   H7S20375   3.480   0.894   2.883
  179SLPC   C2820376   3.364   0.820   3.046
  179SLPC   H8R20377   3.373   0.920   3.093
  179SLPC   H8S20378   3.440   0.752   3.089
  179SLPC   C2920379   3.231   0.759   3.070
  179SLPC   H9R20380   3.173   0.722   2.985
  179SLPC  C21020381   3.171   0.776   3.189
  179SLPC  H10R20382   3.072   0.728   3.195
  179SLPC  C21120383   3.219   0.827   3.319
  179SLPC  H11R20384   3.130   0.869   3.370
  179SLPC  H11S20385   3.274   0.920   3.294
  179SLPC  C21220386   3.310   0.746   3.411
  179SLPC  H12R20387   3.320   0.640   3.381
  179SLPC  C21320388   3.372   0.787   3.527
  179SLPC  H13R20389   3.430   0.711   3.581
  179SLPC  C21420390   3.369   0.923   3.596
  179SLPC  H14R20391   3.326   0.997   3.525
  179SLPC  H14S20392   3.471   0.952   3.629
  179SLPC  C21520393   3.292   0.934   3.726
  179SLPC  H15R20394   3.302   1.032   3.779
  179SLPC  H15S20395   3.329   0.854   3.793
  179SLPC  C21620396   3.141   0.914   3.694
  179SLPC  H16R20397   3.133   0.805   3.673
  179SLPC  H16S20398   3.109   0.961   3.599
  179SLPC  C21720399   3.066   0.978   3.806
  179SLPC  H17R20400   3.075   1.088   3.801
  179SLPC  H17S20401   3.117   0.958   3.902
  179SLPC  C21820402   2.920   0.929   3.812
  179SLPC  H18R20403   2.917   0.826   3.853
  179SLPC  H18S20404   2.872   0.940   3.712
  179SLPC  H18T20405   2.869   0.994   3.886
  179SLPC   C3320406   4.127   0.794   2.421
  179SLPC   H3X20407   4.182   0.886   2.391
  179SLPC   H3Y20408   4.211   0.730   2.454
  179SLPC   C3420409   4.055   0.819   2.560
  179SLPC   H4X20410   3.978   0.739   2.568
  179SLPC   H4Y20411   4.003   0.916   2.570
  179SLPC   C3520412   4.149   0.795   2.674
  179SLPC   H5X20413   4.238   0.736   2.645
  179SLPC   H5Y20414   4.192   0.888   2.716
  179SLPC   C3620415   4.083   0.726   2.793
  179SLPC   H6X20416   4.029   0.631   2.778
  179SLPC   H6Y20417   4.002   0.794   2.829
  179SLPC   C3720418   4.177   0.713   2.914
  179SLPC   H7X20419   4.225   0.811   2.938
  179SLPC   H7Y20420   4.265   0.646   2.908
  179SLPC   C3820421   4.107   0.664   3.042
  179SLPC   H8X20422   4.105   0.553   3.041
  179SLPC   H8Y20423   4.001   0.698   3.051
  179SLPC   C3920424   4.180   0.712   3.166
  179SLPC   H9X20425   4.162   0.821   3.180
  179SLPC   H9Y20426   4.291   0.711   3.155
  179SLPC  C31020427   4.136   0.625   3.298
  179SLPC  H10X20428   4.168   0.522   3.272
  179SLPC  H10Y20429   4.028   0.631   3.325
  179SLPC  C31120430   4.230   0.653   3.415
  179SLPC  H11X20431   4.334   0.656   3.374
  179SLPC  H11Y20432   4.225   0.560   3.476
  179SLPC  C31220433   4.202   0.780   3.509
  179SLPC  H12X20434   4.122   0.754   3.582
  179SLPC  H12Y20435   4.155   0.855   3.441
  179SLPC  C31320436   4.325   0.842   3.578
  179SLPC  H13X20437   4.290   0.940   3.617
  179SLPC  H13Y20438   4.412   0.858   3.511
  179SLPC  C31420439   4.377   0.770   3.709
  179SLPC  H14X20440   4.472   0.719   3.685
  179SLPC  H14Y20441   4.290   0.706   3.736
  179SLPC  C31520442   4.406   0.866   3.832
  179SLPC  H15X20443   4.313   0.923   3.853
  179SLPC  H15Y20444   4.466   0.950   3.790
  179SLPC  C31620445   4.453   0.796   3.957
  179SLPC  H16X20446   4.540   0.740   3.917
  179SLPC  H16Y20447   4.380   0.728   4.006
  179SLPC  C31720448   4.497   0.894   4.073
  179SLPC  H17X20449   4.575   0.967   4.042
  179SLPC  H17Y20450   4.537   0.822   4.147
  179SLPC  C31820451   4.377   0.965   4.135
  179SLPC  H18X20452   4.309   0.885   4.171
  179SLPC  H18Y20453   4.328   1.028   4.058
  179SLPC  H18Z20454   4.408   1.030   4.220
  180SLPC     N20455   2.419   0.452   2.022
  180SLPC   C1320456   2.519   0.344   2.050
  180SLPC  H13A20457   2.611   0.352   1.994
  180SLPC  H13B20458   2.560   0.352   2.150
  180SLPC  H13C20459   2.469   0.249   2.042
  180SLPC   C1420460   2.300   0.458   2.112
  180SLPC  H14A20461   2.245   0.544   2.078
  180SLPC  H14B20462   2.231   0.377   2.094
  180SLPC  H14C20463   2.327   0.465   2.216
  180SLPC   C1520464   2.367   0.434   1.884
  180SLPC  H15A20465   2.303   0.347   1.876
  180SLPC  H15B20466   2.328   0.527   1.846
  180SLPC  H15C20467   2.450   0.403   1.823
  180SLPC   C1220468   2.494   0.581   2.036
  180SLPC  H12A20469   2.572   0.590   1.962
  180SLPC  H12B20470   2.542   0.586   2.132
  180SLPC   C1120471   2.415   0.717   2.007
  180SLPC  H11A20472   2.350   0.701   1.918
  180SLPC  H11B20473   2.480   0.803   1.983
  180SLPC     P20474   2.388   0.825   2.247
  180SLPC   O1320475   2.516   0.766   2.282
  180SLPC   O1420476   2.368   0.973   2.248
  180SLPC   O1220477   2.328   0.761   2.116
  180SLPC   O1120478   2.288   0.754   2.338
  180SLPC    C120479   2.152   0.791   2.367
  180SLPC    HA20480   2.102   0.789   2.268
  180SLPC    HB20481   2.105   0.710   2.426
  180SLPC    C220482   2.120   0.918   2.459
  180SLPC    HS20483   2.202   0.990   2.441
  180SLPC   O2120484   2.096   0.886   2.598
  180SLPC   C2120485   2.203   0.826   2.653
  180SLPC   O2220486   2.306   0.793   2.601
  180SLPC   C2220487   2.171   0.796   2.801
  180SLPC   H2R20488   2.147   0.895   2.846
  180SLPC   H2S20489   2.079   0.735   2.788
  180SLPC    C320490   1.988   0.995   2.422
  180SLPC    HX20491   1.906   0.921   2.435
  180SLPC    HY20492   1.985   1.026   2.315
  180SLPC   O3120493   1.962   1.106   2.513
  180SLPC   C3120494   2.039   1.218   2.483
  180SLPC   O3220495   2.102   1.227   2.383
  180SLPC   C3220496   2.032   1.326   2.583
  180SLPC   H2X20497   1.977   1.288   2.672
  180SLPC   H2Y20498   1.978   1.410   2.533
  180SLPC   C2320499   2.284   0.730   2.877
  180SLPC   H3R20500   2.371   0.792   2.907
  180SLPC   H3S20501   2.325   0.643   2.821
  180SLPC   C2420502   2.245   0.689   3.017
  180SLPC   H4R20503   2.329   0.634   3.063
  180SLPC   H4S20504   2.157   0.622   3.008
  180SLPC   C2520505   2.208   0.799   3.115
  180SLPC   H5R20506   2.110   0.844   3.090
  180SLPC   H5S20507   2.287   0.877   3.111
  180SLPC   C2620508   2.201   0.747   3.257
  180SLPC   H6R20509   2.285   0.676   3.275
  180SLPC   H6S20510   2.107   0.690   3.271
  180SLPC   C2720511   2.204   0.851   3.367
  180SLPC   H7R20512   2.130   0.930   3.341
  180SLPC   H7S20513   2.302   0.903   3.367
  180SLPC   C2820514   2.187   0.787   3.506
  180SLPC   H8R20515   2.288   0.786   3.553
  180SLPC   H8S20516   2.155   0.682   3.493
  180SLPC   C2920517   2.090   0.872   3.587
  180SLPC   H9R20518   2.016   0.924   3.524
  180SLPC  C21020519   2.078   0.853   3.722
  180SLPC  H10R20520   2.019   0.926   3.779
  180SLPC  C21120521   2.167   0.759   3.803
  180SLPC  H11R20522   2.265   0.808   3.821
  180SLPC  H11S20523   2.188   0.663   3.752
  180SLPC  C21220524   2.104   0.723   3.932
  180SLPC  H12R20525   2.035   0.637   3.927
  180SLPC  C21320526   2.136   0.767   4.051
  180SLPC  H13R20527   2.068   0.728   4.129
  180SLPC  C21420528   2.237   0.874   4.083
  180SLPC  H14R20529   2.188   0.971   4.109
  180SLPC  H14S20530   2.305   0.880   3.995
  180SLPC  C21520531   2.339   0.842   4.197
  180SLPC  H15R20532   2.413   0.767   4.160
  180SLPC  H15S20533   2.284   0.798   4.282
  180SLPC  C21620534   2.402   0.976   4.236
  180SLPC  H16R20535   2.329   1.058   4.257
  180SLPC  H16S20536   2.467   1.004   4.151
  180SLPC  C21720537   2.496   0.957   4.353
  180SLPC  H17R20538   2.554   0.867   4.323
  180SLPC  H17S20539   2.440   0.923   4.443
  180SLPC  C21820540   2.580   1.078   4.383
  180SLPC  H18R20541   2.516   1.142   4.447
  180SLPC  H18S20542   2.622   1.134   4.296
  180SLPC  H18T20543   2.653   1.034   4.454
  180SLPC   C3320544   2.182   1.375   2.599
  180SLPC   H3X20545   2.174   1.459   2.671
  180SLPC   H3Y20546   2.217   1.412   2.501
  180SLPC   C3420547   2.274   1.269   2.657
  180SLPC   H4X20548   2.375   1.313   2.668
  180SLPC   H4Y20549   2.285   1.186   2.584
  180SLPC   C3520550   2.227   1.193   2.786
  180SLPC   H5X20551   2.302   1.118   2.818
  180SLPC   H5Y20552   2.130   1.148   2.755
  180SLPC   C3620553   2.195   1.282   2.898
  180SLPC   H6X20554   2.112   1.347   2.866
  180SLPC   H6Y20555   2.291   1.336   2.913
  180SLPC   C3720556   2.146   1.210   3.029
  180SLPC   H7X20557   2.200   1.116   3.050
  180SLPC   H7Y20558   2.035   1.202   3.029
  180SLPC   C3820559   2.177   1.303   3.151
  180SLPC   H8X20560   2.124   1.396   3.119
  180SLPC   H8Y20561   2.287   1.317   3.155
  180SLPC   C3920562   2.117   1.254   3.282
  180SLPC   H9X20563   2.144   1.147   3.297
  180SLPC   H9Y20564   2.008   1.274   3.276
  180SLPC  C31020565   2.169   1.334   3.398
  180SLPC  H10X20566   2.132   1.438   3.402
  180SLPC  H10Y20567   2.280   1.335   3.398
  180SLPC  C31120568   2.119   1.265   3.528
  180SLPC  H11X20569   2.177   1.171   3.533
  180SLPC  H11Y20570   2.017   1.224   3.512
  180SLPC  C31220571   2.130   1.341   3.655
  180SLPC  H12X20572   2.051   1.417   3.637
  180SLPC  H12Y20573   2.230   1.389   3.650
  180SLPC  C31320574   2.112   1.270   3.789
  180SLPC  H13X20575   2.183   1.185   3.801
  180SLPC  H13Y20576   2.018   1.212   3.798
  180SLPC  C31420577   2.114   1.357   3.918
  180SLPC  H14X20578   2.036   1.435   3.910
  180SLPC  H14Y20579   2.216   1.399   3.935
  180SLPC  C31520580   2.085   1.279   4.044
  180SLPC  H15X20581   2.143   1.183   4.049
  180SLPC  H15Y20582   1.976   1.259   4.050
  180SLPC  C31620583   2.121   1.355   4.175
  180SLPC  H16X20584   2.077   1.457   4.168
  180SLPC  H16Y20585   2.231   1.372   4.174
  180SLPC  C31720586   2.085   1.286   4.308
  180SLPC  H17X20587   2.120   1.180   4.310
  180SLPC  H17Y20588   1.978   1.296   4.336
  180SLPC  C31820589   2.156   1.356   4.422
  180SLPC  H18X20590   2.136   1.299   4.515
  180SLPC  H18Y20591   2.131   1.463   4.435
  180SLPC  H18Z20592   2.264   1.345   4.397
  181SLPC     N20593   1.252   6.656   1.922
  181SLPC   C1320594   1.284   6.729   1.795
  181SLPC  H13A20595   1.204   6.793   1.762
  181SLPC  H13B20596   1.377   6.785   1.799
  181SLPC  H13C20597   1.304   6.666   1.710
  181SLPC   C1420598   1.122   6.583   1.908
  181SLPC  H14A20599   1.055   6.656   1.866
  181SLPC  H14B20600   1.128   6.510   1.829
  181SLPC  H14C20601   1.082   6.547   2.002
  181SLPC   C1520602   1.243   6.761   2.031
  181SLPC  H15A20603   1.336   6.813   2.013
  181SLPC  H15B20604   1.164   6.834   2.026
  181SLPC  H15C20605   1.249   6.718   2.130
  181SLPC   C1220606   1.359   6.560   1.973
  181SLPC  H12A20607   1.355   6.478   1.903
  181SLPC  H12B20608   1.343   6.515   2.070
  181SLPC   C1120609   1.509   6.611   1.972
  181SLPC  H11A20610   1.514   6.685   2.055
  181SLPC  H11B20611   1.519   6.661   1.873
  181SLPC     P20612   1.594   6.407   2.129
  181SLPC   O1320613   1.482   6.307   2.122
  181SLPC   O1420614   1.729   6.356   2.165
  181SLPC   O1220615   1.597   6.494   1.997
  181SLPC   O1120616   1.543   6.509   2.243
  181SLPC    C120617   1.622   6.622   2.275
  181SLPC    HA20618   1.701   6.637   2.198
  181SLPC    HB20619   1.559   6.712   2.288
  181SLPC    C220620   1.702   6.610   2.412
  181SLPC    HS20621   1.797   6.557   2.391
  181SLPC   O2120622   1.616   6.555   2.517
  181SLPC   C2120623   1.626   6.426   2.522
  181SLPC   O2220624   1.709   6.350   2.466
  181SLPC   C2220625   1.508   6.381   2.607
  181SLPC   H2R20626   1.508   6.444   2.699
  181SLPC   H2S20627   1.419   6.397   2.542
  181SLPC    C320628   1.745   6.759   2.447
  181SLPC    HX20629   1.664   6.823   2.489
  181SLPC    HY20630   1.757   6.806   2.347
  181SLPC   O3120631   1.870   6.765   2.518
  181SLPC   C3120632   1.851   6.771   2.651
  181SLPC   O3220633   1.748   6.797   2.705
  181SLPC   C3220634   1.980   6.752   2.725
  181SLPC   H2X20635   2.035   6.848   2.722
  181SLPC   H2Y20636   2.039   6.665   2.691
  181SLPC   C2320637   1.511   6.233   2.643
  181SLPC   H3R20638   1.563   6.209   2.739
  181SLPC   H3S20639   1.530   6.171   2.553
  181SLPC   C2420640   1.363   6.184   2.691
  181SLPC   H4R20641   1.377   6.080   2.727
  181SLPC   H4S20642   1.297   6.172   2.602
  181SLPC   C2520643   1.302   6.275   2.797
  181SLPC   H5R20644   1.200   6.238   2.819
  181SLPC   H5S20645   1.282   6.378   2.760
  181SLPC   C2620646   1.364   6.286   2.941
  181SLPC   H6R20647   1.453   6.354   2.939
  181SLPC   H6S20648   1.414   6.191   2.971
  181SLPC   C2720649   1.260   6.336   3.044
  181SLPC   H7R20650   1.162   6.285   3.027
  181SLPC   H7S20651   1.234   6.439   3.012
  181SLPC   C2820652   1.309   6.338   3.193
  181SLPC   H8R20653   1.393   6.411   3.190
  181SLPC   H8S20654   1.345   6.235   3.215
  181SLPC   C2920655   1.194   6.370   3.284
  181SLPC   H9R20656   1.105   6.306   3.277
  181SLPC  C21020657   1.169   6.482   3.353
  181SLPC  H10R20658   1.074   6.472   3.408
  181SLPC  C21120659   1.255   6.602   3.361
  181SLPC  H11R20660   1.296   6.629   3.261
  181SLPC  H11S20661   1.348   6.575   3.415
  181SLPC  C21220662   1.199   6.735   3.406
  181SLPC  H12R20663   1.156   6.791   3.321
  181SLPC  C21320664   1.205   6.790   3.528
  181SLPC  H13R20665   1.192   0.045   3.536
  181SLPC  C21420666   1.238   6.710   3.646
  181SLPC  H14R20667   1.342   6.729   3.682
  181SLPC  H14S20668   1.222   6.601   3.629
  181SLPC  C21520669   1.147   6.732   3.770
  181SLPC  H15R20670   1.042   6.714   3.741
  181SLPC  H15S20671   1.162   6.839   3.796
  181SLPC  C21620672   1.176   6.645   3.886
  181SLPC  H16R20673   1.155   6.538   3.863
  181SLPC  H16S20674   1.112   6.669   3.973
  181SLPC  C21720675   1.312   6.666   3.950
  181SLPC  H17R20676   1.344   6.773   3.953
  181SLPC  H17S20677   1.381   6.636   3.868
  181SLPC  C21820678   1.339   6.586   4.077
  181SLPC  H18R20679   1.363   6.481   4.049
  181SLPC  H18S20680   1.265   6.593   4.159
  181SLPC  H18T20681   1.427   6.635   4.124
  181SLPC   C3320682   1.959   6.711   2.870
  181SLPC   H3X20683   1.880   6.634   2.883
  181SLPC   H3Y20684   1.927   6.806   2.917
  181SLPC   C3420685   2.089   6.678   2.946
  181SLPC   H4X20686   2.153   6.769   2.942
  181SLPC   H4Y20687   2.139   6.593   2.896
  181SLPC   C3520688   2.054   6.652   3.096
  181SLPC   H5X20689   2.009   6.550   3.103
  181SLPC   H5Y20690   2.002   6.744   3.131
  181SLPC   C3620691   2.181   6.645   3.187
  181SLPC   H6X20692   2.211   6.751   3.201
  181SLPC   H6Y20693   2.269   6.592   3.144
  181SLPC   C3720694   2.177   6.583   3.321
  181SLPC   H7X20695   2.171   6.472   3.308
  181SLPC   H7Y20696   2.092   6.611   3.387
  181SLPC   C3820697   2.309   6.619   3.405
  181SLPC   H8X20698   2.331   6.726   3.384
  181SLPC   H8Y20699   2.393   6.563   3.359
  181SLPC   C3920700   2.289   6.595   3.557
  181SLPC   H9X20701   2.264   6.490   3.579
  181SLPC   H9Y20702   2.207   6.663   3.590
  181SLPC  C31020703   2.416   6.616   3.633
  181SLPC  H10X20704   2.441   6.724   3.624
  181SLPC  H10Y20705   2.498   6.556   3.590
  181SLPC  C31120706   2.405   6.586   3.783
  181SLPC  H11X20707   2.405   6.478   3.809
  181SLPC  H11Y20708   2.305   6.624   3.815
  181SLPC  C31220709   2.517   6.653   3.863
  181SLPC  H12X20710   2.613   6.647   3.808
  181SLPC  H12Y20711   2.537   6.587   3.950
  181SLPC  C31320712   2.483   6.789   3.903
  181SLPC  H13X20713   2.386   6.774   3.956
  181SLPC  H13Y20714   2.462   0.013   3.827
  181SLPC  C31420715   2.592   6.848   3.995
  181SLPC  H14X20716   2.692   6.852   3.946
  181SLPC  H14Y20717   2.603   6.783   4.085
  181SLPC  C31520718   2.559   0.136   4.047
  181SLPC  H15X20719   2.483   0.108   4.123
  181SLPC  H15Y20720   2.510   0.206   3.976
  181SLPC  C31620721   2.673   0.216   4.116
  181SLPC  H16X20722   2.623   0.297   4.174
  181SLPC  H16Y20723   2.746   0.258   4.044
  181SLPC  C31720724   2.760   0.132   4.215
  181SLPC  H17X20725   2.817   0.048   4.169
  181SLPC  H17Y20726   2.693   0.089   4.292
  181SLPC  C31820727   2.863   0.217   4.286
  181SLPC  H18X20728   2.808   0.308   4.320
  181SLPC  H18Y20729   2.938   0.252   4.212
  181SLPC  H18Z20730   2.918   0.162   4.364
  182SLPC     N20731   2.784   5.996   2.075
  182SLPC   C1320732   2.901   5.954   2.161
  182SLPC  H13A20733   2.970   5.907   2.092
  182SLPC  H13B20734   2.946   6.034   2.218
  182SLPC  H13C20735   2.863   5.881   2.231
  182SLPC   C1420736   2.680   5.887   2.065
  182SLPC  H14A20737   2.643   5.870   2.165
  182SLPC  H14B20738   2.596   5.930   2.011
  182SLPC  H14C20739   2.719   5.799   2.017
  182SLPC   C1520740   2.841   6.018   1.944
  182SLPC  H15A20741   2.921   6.090   1.940
  182SLPC  H15B20742   2.875   5.926   1.900
  182SLPC  H15C20743   2.777   6.065   1.870
  182SLPC   C1220744   2.720   6.124   2.134
  182SLPC  H12A20745   2.639   6.162   2.073
  182SLPC  H12B20746   2.800   6.196   2.130
  182SLPC   C1120747   2.671   6.135   2.279
  182SLPC  H11A20748   2.641   6.240   2.300
  182SLPC  H11B20749   2.758   6.118   2.347
  182SLPC     P20750   2.414   6.056   2.279
  182SLPC   O1320751   2.399   6.119   2.146
  182SLPC   O1420752   2.347   5.922   2.297
  182SLPC   O1220753   2.566   6.038   2.309
  182SLPC   O1120754   2.374   6.158   2.394
  182SLPC    C120755   2.397   6.122   2.531
  182SLPC    HA20756   2.486   6.055   2.535
  182SLPC    HB20757   2.439   6.211   2.583
  182SLPC    C220758   2.262   6.079   2.598
  182SLPC    HS20759   2.205   6.000   2.544
  182SLPC   O2120760   2.181   6.195   2.617
  182SLPC   C2120761   2.046   6.176   2.640
  182SLPC   O2220762   1.993   6.067   2.646
  182SLPC   C2220763   1.993   6.321   2.663
  182SLPC   H2R20764   2.062   6.382   2.726
  182SLPC   H2S20765   1.982   6.369   2.563
  182SLPC    C320766   2.287   6.009   2.734
  182SLPC    HX20767   2.184   5.996   2.773
  182SLPC    HY20768   2.350   6.067   2.805
  182SLPC   O3120769   2.342   5.875   2.728
  182SLPC   C3120770   2.476   5.850   2.727
  182SLPC   O3220771   2.560   5.934   2.760
  182SLPC   C3220772   2.501   5.708   2.683
  182SLPC   H2X20773   2.536   5.711   2.578
  182SLPC   H2Y20774   2.404   5.654   2.689
  182SLPC   C2320775   1.858   6.316   2.740
  182SLPC   H3R20776   1.783   6.248   2.695
  182SLPC   H3S20777   1.822   6.420   2.728
  182SLPC   C2420778   1.884   6.279   2.886
  182SLPC   H4R20779   1.914   6.364   2.951
  182SLPC   H4S20780   1.960   6.200   2.902
  182SLPC   C2520781   1.756   6.215   2.949
  182SLPC   H5R20782   1.757   6.106   2.924
  182SLPC   H5S20783   1.671   6.258   2.892
  182SLPC   C2620784   1.758   6.223   3.096
  182SLPC   H6R20785   1.751   6.327   3.135
  182SLPC   H6S20786   1.863   6.198   3.124
  182SLPC   C2720787   1.660   6.130   3.170
  182SLPC   H7R20788   1.635   6.039   3.111
  182SLPC   H7S20789   1.573   6.197   3.191
  182SLPC   C2820790   1.711   6.077   3.301
  182SLPC   H8R20791   1.804   6.023   3.275
  182SLPC   H8S20792   1.649   6.001   3.353
  182SLPC   C2920793   1.754   6.185   3.395
  182SLPC   H9R20794   1.847   6.237   3.365
  182SLPC  C21020795   1.680   6.234   3.494
  182SLPC  H10R20796   1.726   6.316   3.551
  182SLPC  C21120797   1.551   6.185   3.543
  182SLPC  H11R20798   1.565   6.116   3.629
  182SLPC  H11S20799   1.499   6.120   3.469
  182SLPC  C21220800   1.465   6.298   3.591
  182SLPC  H12R20801   1.444   6.375   3.515
  182SLPC  C21320802   1.416   6.336   3.713
  182SLPC  H13R20803   1.351   6.424   3.733
  182SLPC  C21420804   1.423   6.262   3.843
  182SLPC  H14R20805   1.441   6.154   3.824
  182SLPC  H14S20806   1.336   6.272   3.912
  182SLPC  C21520807   1.541   6.305   3.925
  182SLPC  H15R20808   1.553   6.415   3.939
  182SLPC  H15S20809   1.637   6.269   3.881
  182SLPC  C21620810   1.540   6.242   4.065
  182SLPC  H16R20811   1.567   6.134   4.071
  182SLPC  H16S20812   1.437   6.246   4.107
  182SLPC  C21720813   1.635   6.313   4.168
  182SLPC  H17R20814   1.635   6.262   4.267
  182SLPC  H17S20815   1.591   6.413   4.187
  182SLPC  C21820816   1.774   6.330   4.107
  182SLPC  H18R20817   1.783   6.357   4.000
  182SLPC  H18S20818   1.817   6.227   4.110
  182SLPC  H18T20819   1.844   6.388   4.171
  182SLPC   C3320820   2.608   5.636   2.775
  182SLPC   H3X20821   2.704   5.692   2.766
  182SLPC   H3Y20822   2.625   5.540   2.723
  182SLPC   C3420823   2.568   5.622   2.918
  182SLPC   H4X20824   2.560   5.729   2.949
  182SLPC   H4Y20825   2.649   5.577   2.979
  182SLPC   C3520826   2.430   5.565   2.953
  182SLPC   H5X20827   2.440   5.455   2.936
  182SLPC   H5Y20828   2.350   5.600   2.884
  182SLPC   C3620829   2.374   5.594   3.091
  182SLPC   H6X20830   2.272   5.551   3.095
  182SLPC   H6Y20831   2.369   5.701   3.119
  182SLPC   C3720832   2.450   5.523   3.199
  182SLPC   H7X20833   2.553   5.564   3.204
  182SLPC   H7Y20834   2.443   5.417   3.168
  182SLPC   C3820835   2.390   5.534   3.338
  182SLPC   H8X20836   2.453   5.472   3.406
  182SLPC   H8Y20837   2.293   5.482   3.322
  182SLPC   C3920838   2.366   5.674   3.402
  182SLPC   H9X20839   2.305   5.736   3.333
  182SLPC   H9Y20840   2.471   5.707   3.413
  182SLPC  C31020841   2.304   5.680   3.542
  182SLPC  H10X20842   2.340   5.590   3.597
  182SLPC  H10Y20843   2.194   5.689   3.543
  182SLPC  C31120844   2.368   5.793   3.625
  182SLPC  H11X20845   2.342   5.886   3.570
  182SLPC  H11Y20846   2.478   5.787   3.633
  182SLPC  C31220847   2.304   5.801   3.764
  182SLPC  H12X20848   2.195   5.821   3.751
  182SLPC  H12Y20849   2.333   5.896   3.815
  182SLPC  C31320850   2.336   5.690   3.858
  182SLPC  H13X20851   2.288   5.595   3.823
  182SLPC  H13Y20852   2.294   5.712   3.958
  182SLPC  C31420853   2.483   5.671   3.895
  182SLPC  H14X20854   2.524   5.774   3.891
  182SLPC  H14Y20855   2.531   5.617   3.810
  182SLPC  C31520856   2.500   5.573   4.021
  182SLPC  H15X20857   2.604   5.534   4.021
  182SLPC  H15Y20858   2.419   5.497   4.013
  182SLPC  C31620859   2.460   5.657   4.152
  182SLPC  H16X20860   2.350   5.644   4.152
  182SLPC  H16Y20861   2.477   5.767   4.149
  182SLPC  C31720862   2.516   5.587   4.278
  182SLPC  H17X20863   2.489   5.631   4.376
  182SLPC  H17Y20864   2.626   5.592   4.266
  182SLPC  C31820865   2.483   5.441   4.291
  182SLPC  H18X20866   2.485   5.395   4.190
  182SLPC  H18Y20867   2.379   5.427   4.328
  182SLPC  H18Z20868   2.559   5.388   4.352
  183SLPC     N20869   5.738   2.039   2.259
  183SLPC   C1320870   5.637   1.957   2.318
  183SLPC  H13A20871   5.555   2.016   2.354
  183SLPC  H13B20872   5.599   1.874   2.260
  183SLPC  H13C20873   5.664   1.906   2.409
  183SLPC   C1420874   5.689   2.107   2.128
  183SLPC  H14A20875   5.674   2.038   2.046
  183SLPC  H14B20876   5.609   2.178   2.140
  183SLPC  H14C20877   5.777   2.153   2.086
  183SLPC   C1520878   5.859   1.964   2.223
  183SLPC  H15A20879   5.905   1.897   2.295
  183SLPC  H15B20880   5.842   1.886   2.150
  183SLPC  H15C20881   5.937   2.033   2.195
  183SLPC   C1220882   5.778   2.151   2.353
  183SLPC  H12A20883   5.814   2.113   2.448
  183SLPC  H12B20884   5.688   2.206   2.377
  183SLPC   C1120885   5.887   2.246   2.298
  183SLPC  H11A20886   5.878   2.338   2.360
  183SLPC  H11B20887   5.864   2.272   2.193
  183SLPC     P20888   6.077   2.155   2.472
  183SLPC   O1320889   5.967   2.109   2.555
  183SLPC   O1420890   6.202   2.073   2.459
  183SLPC   O1220891   6.015   2.183   2.321
  183SLPC   O1120892   6.116   2.298   2.518
  183SLPC    C120893   6.215   2.313   2.622
  183SLPC    HA20894   6.301   2.243   2.613
  183SLPC    HB20895   6.236   2.422   2.613
  183SLPC    C220896   6.166   2.279   2.763
  183SLPC    HS20897   6.120   2.179   2.750
  183SLPC   O2120898   6.069   2.377   2.805
  183SLPC   C2120899   5.976   2.335   2.885
  183SLPC   O2220900   5.970   2.221   2.933
  183SLPC   C2220901   5.883   2.461   2.918
  183SLPC   H2R20902   5.931   2.544   2.974
  183SLPC   H2S20903   5.862   2.503   2.817
  183SLPC    C320904   6.289   2.275   2.863
  183SLPC    HX20905   6.333   2.376   2.845
  183SLPC    HY20906   6.353   2.187   2.840
  183SLPC   O3120907   6.252   2.277   3.002
  183SLPC   C3120908   6.251   2.156   3.064
  183SLPC   O3220909   6.288   2.050   3.020
  183SLPC   C3220910   6.209   2.176   3.208
  183SLPC   H2X20911   6.098   2.172   3.210
  183SLPC   H2Y20912   6.236   2.282   3.229
  183SLPC   C2320913   5.748   2.436   3.003
  183SLPC   H3R20914   5.738   2.330   3.033
  183SLPC   H3S20915   5.655   2.461   2.947
  183SLPC   C2420916   5.741   2.518   3.132
  183SLPC   H4R20917   5.717   2.624   3.108
  183SLPC   H4S20918   5.838   2.524   3.186
  183SLPC   C2520919   5.637   2.451   3.224
  183SLPC   H5R20920   5.670   2.351   3.259
  183SLPC   H5S20921   5.546   2.447   3.161
  183SLPC   C2620922   5.614   2.537   3.352
  183SLPC   H6R20923   5.575   2.634   3.316
  183SLPC   H6S20924   5.712   2.548   3.403
  183SLPC   C2720925   5.514   2.459   3.437
  183SLPC   H7R20926   5.557   2.358   3.454
  183SLPC   H7S20927   5.427   2.457   3.368
  183SLPC   C2820928   5.484   2.533   3.571
  183SLPC   H8R20929   5.456   2.638   3.552
  183SLPC   H8S20930   5.582   2.528   3.625
  183SLPC   C2920931   5.372   2.474   3.649
  183SLPC   H9R20932   5.276   2.513   3.611
  183SLPC  C21020933   5.376   2.393   3.764
  183SLPC  H10R20934   5.285   2.362   3.816
  183SLPC  C21120935   5.492   2.355   3.853
  183SLPC  H11R20936   5.492   2.398   3.955
  183SLPC  H11S20937   5.587   2.389   3.808
  183SLPC  C21220938   5.502   2.212   3.880
  183SLPC  H12R20939   5.430   2.170   3.951
  183SLPC  C21320940   5.598   2.126   3.841
  183SLPC  H13R20941   5.595   2.021   3.873
  183SLPC  C21420942   5.716   2.165   3.745
  183SLPC  H14R20943   5.816   2.138   3.784
  183SLPC  H14S20944   5.723   2.275   3.733
  183SLPC  C21520945   5.679   2.098   3.607
  183SLPC  H15R20946   5.582   2.144   3.577
  183SLPC  H15S20947   5.651   1.992   3.622
  183SLPC  C21620948   5.777   2.105   3.494
  183SLPC  H16R20949   5.857   2.039   3.534
  183SLPC  H16S20950   5.809   2.210   3.481
  183SLPC  C21720951   5.729   2.047   3.358
  183SLPC  H17R20952   5.649   2.118   3.325
  183SLPC  H17S20953   5.680   1.948   3.367
  183SLPC  C21820954   5.840   2.035   3.256
  183SLPC  H18R20955   5.928   1.977   3.290
  183SLPC  H18S20956   5.885   2.133   3.227
  183SLPC  H18T20957   5.799   1.987   3.165
  183SLPC   C3320958   6.268   2.076   3.304
  183SLPC   H3X20959   6.378   2.088   3.304
  183SLPC   H3Y20960   6.243   1.978   3.257
  183SLPC   C3420961   6.198   2.084   3.442
  183SLPC   H4X20962   6.093   2.111   3.421
  183SLPC   H4Y20963   6.244   2.164   3.505
  183SLPC   C3520964   6.189   1.949   3.523
  183SLPC   H5X20965   6.294   1.928   3.553
  183SLPC   H5Y20966   6.157   1.861   3.463
  183SLPC   C3620967   6.126   1.963   3.661
  183SLPC   H6X20968   6.015   1.963   3.665
  183SLPC   H6Y20969   6.154   2.067   3.689
  183SLPC   C3720970   6.167   1.856   3.767
  183SLPC   H7X20971   6.276   1.860   3.749
  183SLPC   H7Y20972   6.136   1.751   3.751
  183SLPC   C3820973   6.138   1.903   3.912
  183SLPC   H8X20974   6.135   2.013   3.925
  183SLPC   H8Y20975   6.219   1.863   3.977
  183SLPC   C3920976   6.005   1.838   3.968
  183SLPC   H9X20977   5.990   1.734   3.933
  183SLPC   H9Y20978   5.922   1.903   3.933
  183SLPC  C31020979   6.008   1.833   4.124
  183SLPC  H10X20980   6.089   1.761   4.146
  183SLPC  H10Y20981   5.910   1.797   4.162
  183SLPC  C31120982   6.039   1.973   4.188
  183SLPC  H11X20983   6.125   2.022   4.139
  183SLPC  H11Y20984   6.074   1.950   4.291
  183SLPC  C31220985   5.927   2.078   4.177
  183SLPC  H12X20986   5.825   2.041   4.200
  183SLPC  H12Y20987   5.913   2.115   4.074
  183SLPC  C31320988   5.949   2.204   4.264
  183SLPC  H13X20989   5.957   2.169   4.370
  183SLPC  H13Y20990   5.863   2.273   4.262
  183SLPC  C31420991   6.061   2.293   4.230
  183SLPC  H14X20992   6.153   2.245   4.270
  183SLPC  H14Y20993   6.063   2.392   4.280
  183SLPC  C31520994   6.063   2.333   4.082
  183SLPC  H15X20995   5.966   2.381   4.060
  183SLPC  H15Y20996   6.075   2.243   4.019
  183SLPC  C31620997   6.178   2.421   4.046
  183SLPC  H16X20998   6.263   2.381   4.104
  183SLPC  H16Y20999   6.164   2.530   4.064
  183SLPC  C31721000   6.206   2.416   3.900
  183SLPC  H17X21001   6.117   2.442   3.839
  183SLPC  H17Y21002   6.233   2.314   3.863
  183SLPC  C31821003   6.321   2.513   3.865
  183SLPC  H18X21004   6.308   2.618   3.899
  183SLPC  H18Y21005   6.324   2.501   3.755
  183SLPC  H18Z21006   6.410   2.481   3.922
  184SLPC     N21007   0.171   1.738   1.802
  184SLPC   C1321008   0.105   1.743   1.664
  184SLPC  H13A21009   0.146   1.669   1.597
  184SLPC  H13B21010   6.853   1.730   1.671
  184SLPC  H13C21011   0.102   1.845   1.629
  184SLPC   C1421012   0.307   1.802   1.805
  184SLPC  H14A21013   0.307   1.904   1.771
  184SLPC  H14B21014   0.355   1.806   1.901
  184SLPC  H14C21015   0.381   1.758   1.740
  184SLPC   C1521016   0.182   1.594   1.841
  184SLPC  H15A21017   0.186   1.536   1.749
  184SLPC  H15B21018   0.272   1.578   1.897
  184SLPC  H15C21019   0.091   1.574   1.896
  184SLPC   C1221020   0.075   1.811   1.901
  184SLPC  H12A21021   0.071   1.911   1.860
  184SLPC  H12B21022   0.119   1.809   2.000
  184SLPC   C1121023   6.786   1.749   1.928
  184SLPC  H11A21024   6.734   1.724   1.833
  184SLPC  H11B21025   6.728   1.829   1.979
  184SLPC     P21026   6.733   1.581   2.130
  184SLPC   O1321027   6.600   1.529   2.092
  184SLPC   O1421028   6.822   1.492   2.202
  184SLPC   O1221029   6.798   1.637   2.005
  184SLPC   O1121030   6.720   1.720   2.207
  184SLPC    C121031   6.846   1.791   2.237
  184SLPC    HA21032   0.082   1.735   2.204
  184SLPC    HB21033   6.843   1.890   2.187
  184SLPC    C221034   0.011   1.814   2.390
  184SLPC    HS21035   0.102   1.874   2.411
  184SLPC   O2121036   0.001   1.691   2.466
  184SLPC   C2121037   0.108   1.618   2.450
  184SLPC   O2221038   0.208   1.648   2.384
  184SLPC   C2221039   0.091   1.504   2.541
  184SLPC   H2R21040   6.839   1.472   2.545
  184SLPC   H2S21041   0.141   1.416   2.494
  184SLPC    C321042   6.757   1.910   2.459
  184SLPC    HX21043   6.657   1.881   2.419
  184SLPC    HY21044   6.770   2.014   2.424
  184SLPC   O3121045   6.768   1.908   2.604
  184SLPC   C3121046   6.695   1.807   2.659
  184SLPC   O3221047   6.625   1.723   2.602
  184SLPC   C3221048   6.710   1.818   2.813
  184SLPC   H2X21049   6.740   1.923   2.834
  184SLPC   H2Y21050   6.781   1.740   2.847
  184SLPC   C2321051   0.146   1.528   2.685
  184SLPC   H3R21052   0.079   1.600   2.736
  184SLPC   H3S21053   0.248   1.574   2.688
  184SLPC   C2421054   0.145   1.399   2.761
  184SLPC   H4R21055   0.194   1.323   2.697
  184SLPC   H4S21056   0.039   1.370   2.778
  184SLPC   C2521057   0.189   1.411   2.911
  184SLPC   H5R21058   0.153   1.320   2.964
  184SLPC   H5S21059   0.142   1.507   2.939
  184SLPC   C2621060   0.339   1.419   2.927
  184SLPC   H6R21061   0.375   1.510   2.875
  184SLPC   H6S21062   0.382   1.336   2.867
  184SLPC   C2721063   0.382   1.415   3.072
  184SLPC   H7R21064   0.305   1.471   3.131
  184SLPC   H7S21065   0.487   1.451   3.077
  184SLPC   C2821066   0.383   1.274   3.122
  184SLPC   H8R21067   0.442   1.214   3.049
  184SLPC   H8S21068   0.281   1.230   3.132
  184SLPC   C2921069   0.463   1.258   3.248
  184SLPC   H9R21070   0.559   1.206   3.239
  184SLPC  C21021071   0.429   1.300   3.372
  184SLPC  H10R21072   0.496   1.286   3.458
  184SLPC  C21121073   0.300   1.373   3.411
  184SLPC  H11R21074   0.246   1.336   3.500
  184SLPC  H11S21075   0.228   1.382   3.326
  184SLPC  C21221076   0.350   1.517   3.432
  184SLPC  H12R21077   0.333   1.591   3.353
  184SLPC  C21321078   0.426   1.562   3.534
  184SLPC  H13R21079   0.466   1.665   3.527
  184SLPC  C21421080   0.465   1.485   3.664
  184SLPC  H14R21081   0.573   1.488   3.691
  184SLPC  H14S21082   0.437   1.378   3.648
  184SLPC  C21521083   0.398   1.546   3.792
  184SLPC  H15R21084   0.287   1.553   3.791
  184SLPC  H15S21085   0.444   1.647   3.797
  184SLPC  C21621086   0.441   1.475   3.920
  184SLPC  H16R21087   0.549   1.501   3.929
  184SLPC  H16S21088   0.447   1.364   3.924
  184SLPC  C21721089   0.375   1.540   4.046
  184SLPC  H17R21090   0.266   1.519   4.044
  184SLPC  H17S21091   0.402   1.648   4.049
  184SLPC  C21821092   0.432   1.479   4.172
  184SLPC  H18R21093   0.425   1.369   4.156
  184SLPC  H18S21094   0.385   1.519   4.265
  184SLPC  H18T21095   0.538   1.511   4.184
  184SLPC   C3321096   6.578   1.784   2.880
  184SLPC   H3X21097   6.547   1.678   2.867
  184SLPC   H3Y21098   6.492   1.846   2.849
  184SLPC   C3421099   6.584   1.785   3.036
  184SLPC   H4X21100   6.589   1.893   3.062
  184SLPC   H4Y21101   6.673   1.727   3.068
  184SLPC   C3521102   6.461   1.721   3.097
  184SLPC   H5X21103   6.469   1.611   3.080
  184SLPC   H5Y21104   6.375   1.764   3.042
  184SLPC   C3621105   6.449   1.750   3.247
  184SLPC   H6X21106   6.366   1.701   3.303
  184SLPC   H6Y21107   6.425   1.858   3.257
  184SLPC   C3721108   6.582   1.733   3.334
  184SLPC   H7X21109   6.651   1.813   3.301
  184SLPC   H7Y21110   6.626   1.634   3.311
  184SLPC   C3821111   6.567   1.727   3.487
  184SLPC   H8X21112   6.529   1.627   3.517
  184SLPC   H8Y21113   6.500   1.802   3.534
  184SLPC   C3921114   6.705   1.726   3.561
  184SLPC   H9X21115   6.752   1.826   3.556
  184SLPC   H9Y21116   6.761   1.646   3.507
  184SLPC  C31021117   6.695   1.680   3.714
  184SLPC  H10X21118   6.798   1.690   3.755
  184SLPC  H10Y21119   6.659   1.575   3.718
  184SLPC  C31121120   6.606   1.767   3.797
  184SLPC  H11X21121   6.501   1.767   3.763
  184SLPC  H11Y21122   6.639   1.872   3.784
  184SLPC  C31221123   6.592   1.734   3.949
  184SLPC  H12X21124   6.538   1.816   4.000
  184SLPC  H12Y21125   6.696   1.723   3.985
  184SLPC  C31321126   6.518   1.602   3.963
  184SLPC  H13X21127   6.522   1.581   4.072
  184SLPC  H13Y21128   6.585   1.527   3.916
  184SLPC  C31421129   6.374   1.593   3.914
  184SLPC  H14X21130   6.369   1.592   3.803
  184SLPC  H14Y21131   6.328   1.689   3.946
  184SLPC  C31521132   6.300   1.478   3.973
  184SLPC  H15X21133   6.200   1.491   3.926
  184SLPC  H15Y21134   6.302   1.491   4.083
  184SLPC  C31621135   6.357   1.342   3.925
  184SLPC  H16X21136   6.447   1.308   3.981
  184SLPC  H16Y21137   6.395   1.352   3.821
  184SLPC  C31721138   6.258   1.229   3.940
  184SLPC  H17X21139   6.199   1.254   4.031
  184SLPC  H17Y21140   6.316   1.137   3.962
  184SLPC  C31821141   6.172   1.216   3.815
  184SLPC  H18X21142   6.230   1.202   3.721
  184SLPC  H18Y21143   6.132   1.316   3.790
  184SLPC  H18Z21144   6.099   1.132   3.818
  185POPC     N21145   2.125   5.458   6.911
  185POPC   C1221146   1.983   5.401   6.891
  185POPC  H12A21147   1.925   5.392   6.982
  185POPC  H12B21148   1.985   5.302   6.849
  185POPC   C1321149   2.215   5.451   6.788
  185POPC  H13A21150   2.184   5.515   6.707
  185POPC  H13B21151   2.313   5.481   6.821
  185POPC  H13C21152   2.223   5.352   6.745
  185POPC   C1421153   2.126   5.591   6.971
  185POPC  H14A21154   2.057   5.599   7.053
  185POPC  H14B21155   2.218   5.631   7.011
  185POPC  H14C21156   2.091   5.664   6.900
  185POPC   C1521157   2.195   5.373   7.020
  185POPC  H15A21158   2.206   5.272   6.982
  185POPC  H15B21159   2.139   5.377   7.112
  185POPC  H15C21160   2.296   5.410   7.028
  185POPC   C1121161   1.894   5.494   6.802
  185POPC  H11A21162   1.928   5.509   6.697
  185POPC  H11B21163   1.871   5.597   6.836
  185POPC     P21164   1.750   5.302   6.693
  185POPC   O1321165   1.608   5.258   6.704
  185POPC   O1421166   1.850   5.202   6.724
  185POPC   O1221167   1.773   5.426   6.791
  185POPC   O1121168   1.761   5.349   6.542
  185POPC    C121169   1.654   5.419   6.475
  185POPC    HA21170   1.639   5.509   6.539
  185POPC    HB21171   1.558   5.365   6.457
  185POPC    C221172   1.689   5.477   6.333
  185POPC    HS21173   1.614   5.545   6.287
  185POPC   O2121174   1.722   5.357   6.258
  185POPC   C2121175   1.670   5.355   6.140
  185POPC   O2221176   1.576   5.417   6.096
  185POPC   C2221177   1.749   5.247   6.064
  185POPC   H2R21178   1.678   5.194   5.997
  185POPC   H2S21179   1.793   5.183   6.143
  185POPC    C321180   1.814   5.570   6.348
  185POPC    HX21181   1.900   5.510   6.382
  185POPC    HY21182   1.786   5.643   6.427
  185POPC   O3121183   1.832   5.647   6.227
  185POPC   C3121184   1.940   5.734   6.238
  185POPC   O3221185   2.011   5.743   6.336
  185POPC   C3221186   1.952   5.834   6.109
  185POPC   H2X21187   2.014   5.922   6.138
  185POPC   H2Y21188   1.848   5.873   6.102
  185POPC   C2321189   1.869   5.304   5.985
  185POPC   H3R21190   1.955   5.234   5.985
  185POPC   H3S21191   1.905   5.391   6.043
  185POPC   C2421192   1.846   5.341   5.838
  185POPC   H4R21193   1.758   5.407   5.823
  185POPC   H4S21194   1.815   5.248   5.786
  185POPC   C2521195   1.970   5.405   5.769
  185POPC   H5R21196   2.051   5.330   5.780
  185POPC   H5S21197   2.002   5.490   5.834
  185POPC   C2621198   1.957   5.465   5.634
  185POPC   H6R21199   1.883   5.547   5.637
  185POPC   H6S21200   1.913   5.395   5.559
  185POPC   C2721201   2.089   5.524   5.565
  185POPC   H7R21202   2.171   5.451   5.556
  185POPC   H7S21203   2.127   5.603   5.634
  185POPC   C2821204   2.057   5.581   5.426
  185POPC   H8R21205   1.950   5.610   5.422
  185POPC   H8S21206   2.082   5.502   5.352
  185POPC   C2921207   2.117   5.716   5.403
  185POPC   H9121208   2.131   5.777   5.494
  185POPC  C21021209   2.159   5.750   5.280
  185POPC  H10121210   2.214   5.844   5.268
  185POPC  C21121211   2.131   5.671   5.154
  185POPC  H11R21212   2.125   5.737   5.065
  185POPC  H11S21213   2.038   5.611   5.164
  185POPC  C21221214   2.254   5.591   5.106
  185POPC  H12R21215   2.290   5.520   5.184
  185POPC  H12S21216   2.338   5.661   5.088
  185POPC  C21321217   2.230   5.508   4.976
  185POPC  H13R21218   2.140   5.445   4.996
  185POPC  H13S21219   2.319   5.444   4.958
  185POPC  C21421220   2.205   5.592   4.857
  185POPC  H14R21221   2.298   5.651   4.847
  185POPC  H14S21222   2.118   5.661   4.860
  185POPC  C21521223   2.195   5.505   4.728
  185POPC  H15R21224   2.113   5.432   4.738
  185POPC  H15S21225   2.295   5.456   4.727
  185POPC  C21621226   2.172   5.578   4.596
  185POPC  H16R21227   2.278   5.609   4.580
  185POPC  H16S21228   2.105   5.667   4.602
  185POPC  C21721229   2.133   5.492   4.476
  185POPC  H17R21230   2.174   5.390   4.489
  185POPC  H17S21231   2.157   5.546   4.382
  185POPC  C21821232   1.980   5.480   4.475
  185POPC  H18R21233   1.927   5.576   4.495
  185POPC  H18S21234   1.944   5.419   4.561
  185POPC  H18T21235   1.934   5.440   4.382
  185POPC   C3321236   1.989   5.763   5.972
  185POPC   H3X21237   1.909   5.691   5.944
  185POPC   H3Y21238   2.082   5.704   5.986
  185POPC   C3421239   2.002   5.863   5.856
  185POPC   H4X21240   1.904   5.913   5.846
  185POPC   H4Y21241   2.018   5.802   5.764
  185POPC   C3521242   2.114   5.964   5.859
  185POPC   H5X21243   2.209   5.910   5.838
  185POPC   H5Y21244   2.128   5.999   5.964
  185POPC   C3621245   2.092   6.080   5.768
  185POPC   H6X21246   2.178   6.151   5.778
  185POPC   H6Y21247   2.010   6.141   5.811
  185POPC   C3721248   2.075   6.037   5.623
  185POPC   H7X21249   1.976   5.991   5.605
  185POPC   H7Y21250   2.145   5.951   5.612
  185POPC   C3821251   2.100   6.158   5.524
  185POPC   H8X21252   2.183   6.223   5.557
  185POPC   H8Y21253   2.010   6.223   5.535
  185POPC   C3921254   2.102   6.122   5.378
  185POPC   H9X21255   2.013   6.060   5.355
  185POPC   H9Y21256   2.188   6.060   5.346
  185POPC  C31021257   2.106   6.249   5.299
  185POPC  H10X21258   2.205   6.294   5.321
  185POPC  H10Y21259   2.030   6.326   5.325
  185POPC  C31121260   2.093   6.232   5.145
  185POPC  H11X21261   2.065   6.326   5.092
  185POPC  H11Y21262   2.012   6.159   5.127
  185POPC  C31221263   2.225   6.185   5.083
  185POPC  H12X21264   2.254   6.087   5.126
  185POPC  H12Y21265   2.312   6.251   5.106
  185POPC  C31321266   2.204   6.161   4.931
  185POPC  H13X21267   2.231   6.256   4.880
  185POPC  H13Y21268   2.101   6.127   4.909
  185POPC  C31421269   2.301   6.051   4.874
  185POPC  H14X21270   2.297   5.962   4.940
  185POPC  H14Y21271   2.401   6.099   4.871
  185POPC  C31521272   2.253   6.014   4.730
  185POPC  H15X21273   2.243   6.105   4.668
  185POPC  H15Y21274   2.156   5.960   4.743
  185POPC  C31621275   2.345   5.913   4.659
  185POPC  H16X21276   2.340   5.915   4.548
  185POPC  H16Y21277   2.317   5.808   4.682
  185POPC  H16Z21278   2.452   5.931   4.684
  186POPC     N21279   4.126   5.693   6.745
  186POPC   C1221280   4.163   5.632   6.609
  186POPC  H12A21281   4.247   5.688   6.570
  186POPC  H12B21282   4.083   5.633   6.537
  186POPC   C1321283   4.124   5.842   6.732
  186POPC  H13A21284   4.222   5.886   6.721
  186POPC  H13B21285   4.057   5.880   6.657
  186POPC  H13C21286   4.091   5.889   6.823
  186POPC   C1421287   3.992   5.640   6.799
  186POPC  H14A21288   3.960   5.702   6.881
  186POPC  H14B21289   3.901   5.633   6.741
  186POPC  H14C21290   4.012   5.545   6.846
  186POPC   C1521291   4.229   5.668   6.849
  186POPC  H15A21292   4.321   5.722   6.832
  186POPC  H15B21293   4.255   5.563   6.851
  186POPC  H15C21294   4.190   5.696   6.945
  186POPC   C1121295   4.206   5.485   6.609
  186POPC  H11A21296   4.197   5.441   6.507
  186POPC  H11B21297   4.139   5.420   6.669
  186POPC     P21298   4.466   5.532   6.554
  186POPC   O1321299   4.595   5.515   6.623
  186POPC   O1421300   4.432   5.665   6.513
  186POPC   O1221301   4.343   5.471   6.643
  186POPC   O1121302   4.464   5.442   6.426
  186POPC    C121303   4.504   5.504   6.301
  186POPC    HA21304   4.574   5.432   6.253
  186POPC    HB21305   4.569   5.592   6.322
  186POPC    C221306   4.385   5.527   6.205
  186POPC    HS21307   4.335   5.620   6.241
  186POPC   O2121308   4.309   5.401   6.205
  186POPC   C2121309   4.181   5.422   6.221
  186POPC   O2221310   4.123   5.527   6.241
  186POPC   C2221311   4.119   5.287   6.200
  186POPC   H2R21312   4.073   5.268   6.299
  186POPC   H2S21313   4.195   5.209   6.177
  186POPC    C321314   4.435   5.549   6.063
  186POPC    HX21315   4.492   5.461   6.026
  186POPC    HY21316   4.503   5.636   6.071
  186POPC   O3121317   4.329   5.570   5.972
  186POPC   C3121318   4.366   5.619   5.857
  186POPC   O3221319   4.481   5.643   5.828
  186POPC   C3221320   4.247   5.638   5.762
  186POPC   H2X21321   4.184   5.721   5.801
  186POPC   H2Y21322   4.181   5.549   5.765
  186POPC   C2321323   4.009   5.304   6.093
  186POPC   H3R21324   3.949   5.394   6.115
  186POPC   H3S21325   3.938   5.218   6.091
  186POPC   C2421326   4.062   5.314   5.946
  186POPC   H4R21327   4.137   5.233   5.933
  186POPC   H4S21328   4.125   5.402   5.922
  186POPC   C2521329   3.947   5.293   5.847
  186POPC   H5R21330   3.871   5.367   5.882
  186POPC   H5S21331   3.905   5.190   5.844
  186POPC   C2621332   3.989   5.329   5.709
  186POPC   H6R21333   4.081   5.270   5.688
  186POPC   H6S21334   4.007   5.439   5.706
  186POPC   C2721335   3.877   5.311   5.604
  186POPC   H7R21336   3.778   5.312   5.654
  186POPC   H7S21337   3.891   5.216   5.549
  186POPC   C2821338   3.869   5.427   5.502
  186POPC   H8R21339   3.972   5.417   5.461
  186POPC   H8S21340   3.870   5.525   5.555
  186POPC   C2921341   3.753   5.421   5.412
  186POPC   H9121342   3.656   5.411   5.463
  186POPC  C21021343   3.750   5.411   5.278
  186POPC  H10121344   3.655   5.399   5.225
  186POPC  C21121345   3.870   5.391   5.191
  186POPC  H11R21346   3.964   5.430   5.236
  186POPC  H11S21347   3.858   5.463   5.108
  186POPC  C21221348   3.888   5.243   5.149
  186POPC  H12R21349   3.800   5.205   5.093
  186POPC  H12S21350   3.899   5.194   5.248
  186POPC  C21321351   4.011   5.233   5.065
  186POPC  H13R21352   4.048   5.129   5.059
  186POPC  H13S21353   4.100   5.280   5.113
  186POPC  C21421354   4.008   5.304   4.935
  186POPC  H14R21355   3.962   5.405   4.945
  186POPC  H14S21356   3.934   5.254   4.868
  186POPC  C21521357   4.149   5.298   4.869
  186POPC  H15R21358   4.196   5.198   4.873
  186POPC  H15S21359   4.213   5.367   4.927
  186POPC  C21621360   4.149   5.338   4.719
  186POPC  H16R21361   4.104   5.264   4.649
  186POPC  H16S21362   4.256   5.356   4.697
  186POPC  C21721363   4.080   5.474   4.694
  186POPC  H17R21364   4.128   5.554   4.755
  186POPC  H17S21365   3.973   5.466   4.721
  186POPC  C21821366   4.090   5.527   4.555
  186POPC  H18R21367   4.097   5.445   4.481
  186POPC  H18S21368   4.183   5.583   4.532
  186POPC  H18T21369   4.004   5.595   4.537
  186POPC   C3321370   4.288   5.659   5.613
  186POPC   H3X21371   4.330   5.568   5.566
  186POPC   H3Y21372   4.356   5.746   5.599
  186POPC   C3421373   4.167   5.681   5.519
  186POPC   H4X21374   4.099   5.750   5.574
  186POPC   H4Y21375   4.116   5.583   5.504
  186POPC   C3521376   4.199   5.741   5.379
  186POPC   H5X21377   4.282   5.679   5.338
  186POPC   H5Y21378   4.238   5.843   5.401
  186POPC   C3621379   4.078   5.752   5.289
  186POPC   H6X21380   4.017   5.835   5.332
  186POPC   H6Y21381   4.017   5.660   5.275
  186POPC   C3721382   4.126   5.791   5.145
  186POPC   H7X21383   4.191   5.707   5.112
  186POPC   H7Y21384   4.189   5.882   5.131
  186POPC   C3821385   4.017   5.775   5.038
  186POPC   H8X21386   3.936   5.847   5.063
  186POPC   H8Y21387   3.969   5.678   5.060
  186POPC   C3921388   4.065   5.806   4.901
  186POPC   H9X21389   4.149   5.735   4.881
  186POPC   H9Y21390   4.112   5.906   4.901
  186POPC  C31021391   3.957   5.784   4.795
  186POPC  H10X21392   3.916   5.682   4.813
  186POPC  H10Y21393   4.009   5.779   4.697
  186POPC  C31121394   3.851   5.893   4.799
  186POPC  H11X21395   3.897   5.994   4.791
  186POPC  H11Y21396   3.805   5.890   4.900
  186POPC  C31221397   3.753   5.876   4.679
  186POPC  H12X21398   3.701   5.778   4.683
  186POPC  H12Y21399   3.801   5.874   4.579
  186POPC  C31321400   3.641   5.984   4.675
  186POPC  H13X21401   3.683   6.085   4.696
  186POPC  H13Y21402   3.580   5.969   4.767
  186POPC  C31421403   3.556   5.988   4.546
  186POPC  H14X21404   3.477   6.065   4.555
  186POPC  H14Y21405   3.516   5.887   4.523
  186POPC  C31521406   3.634   6.020   4.417
  186POPC  H15X21407   3.562   6.031   4.332
  186POPC  H15Y21408   3.698   5.932   4.399
  186POPC  C31621409   3.710   6.155   4.414
  186POPC  H16X21410   3.800   6.146   4.480
  186POPC  H16Y21411   3.642   6.236   4.447
  186POPC  H16Z21412   3.749   6.170   4.311
  187POPC     N21413   6.363   4.584   1.996
  187POPC   C1221414   6.311   4.701   1.914
  187POPC  H12A21415   6.207   4.680   1.891
  187POPC  H12B21416   6.363   4.708   1.820
  187POPC   C1321417   6.358   4.459   1.921
  187POPC  H13A21418   6.256   4.424   1.927
  187POPC  H13B21419   6.396   4.457   1.820
  187POPC  H13C21420   6.414   4.380   1.967
  187POPC   C1421421   6.505   4.608   2.033
  187POPC  H14A21422   6.569   4.609   1.946
  187POPC  H14B21423   6.523   4.703   2.081
  187POPC  H14C21424   6.548   4.535   2.100
  187POPC   C1521425   6.288   4.563   2.125
  187POPC  H15A21426   6.279   4.652   2.186
  187POPC  H15B21427   6.341   4.485   2.176
  187POPC  H15C21428   6.190   4.521   2.105
  187POPC   C1121429   6.312   4.847   1.965
  187POPC  H11A21430   6.294   4.917   1.880
  187POPC  H11B21431   6.414   4.869   2.003
  187POPC     P21432   6.151   4.996   2.112
  187POPC   O1321433   6.047   4.962   2.209
  187POPC   O1421434   6.114   5.089   2.003
  187POPC   O1221435   6.204   4.858   2.058
  187POPC   O1121436   6.281   5.054   2.181
  187POPC    C121437   6.355   4.996   2.290
  187POPC    HA21438   6.464   5.015   2.279
  187POPC    HB21439   6.352   4.885   2.291
  187POPC    C221440   6.302   5.052   2.429
  187POPC    HS21441   6.369   5.020   2.512
  187POPC   O2121442   6.170   4.996   2.462
  187POPC   C2121443   6.180   4.869   2.493
  187POPC   O2221444   6.280   4.800   2.491
  187POPC   C2221445   6.041   4.812   2.501
  187POPC   H2R21446   6.048   4.703   2.485
  187POPC   H2S21447   5.981   4.861   2.422
  187POPC    C321448   6.302   5.201   2.454
  187POPC    HX21449   6.238   5.254   2.379
  187POPC    HY21450   6.407   5.237   2.441
  187POPC   O3121451   6.263   5.219   2.589
  187POPC   C3121452   6.144   5.268   2.617
  187POPC   O3221453   6.053   5.281   2.541
  187POPC   C3221454   6.138   5.303   2.769
  187POPC   H2X21455   6.203   5.389   2.796
  187POPC   H2Y21456   6.170   5.211   2.823
  187POPC   C2321457   5.961   4.828   2.635
  187POPC   H3R21458   5.917   4.728   2.657
  187POPC   H3S21459   5.864   4.881   2.634
  187POPC   C2421460   6.034   4.889   2.754
  187POPC   H4R21461   6.052   4.998   2.740
  187POPC   H4S21462   6.137   4.847   2.755
  187POPC   C2521463   5.966   4.861   2.897
  187POPC   H5R21464   5.942   4.753   2.898
  187POPC   H5S21465   5.869   4.916   2.901
  187POPC   C2621466   6.045   4.910   3.020
  187POPC   H6R21467   6.081   5.014   3.006
  187POPC   H6S21468   6.130   4.840   3.036
  187POPC   C2721469   5.958   4.915   3.143
  187POPC   H7R21470   5.915   4.815   3.163
  187POPC   H7S21471   5.876   4.983   3.111
  187POPC   C2821472   6.035   4.976   3.261
  187POPC   H8R21473   5.954   5.004   3.331
  187POPC   H8S21474   6.096   5.061   3.225
  187POPC   C2921475   6.129   4.881   3.331
  187POPC   H9121476   6.199   4.833   3.262
  187POPC  C21021477   6.123   4.827   3.456
  187POPC  H10121478   6.194   4.758   3.504
  187POPC  C21121479   6.030   4.865   3.563
  187POPC  H11R21480   5.964   4.948   3.529
  187POPC  H11S21481   6.084   4.892   3.656
  187POPC  C21221482   5.948   4.742   3.596
  187POPC  H12R21483   6.021   4.666   3.631
  187POPC  H12S21484   5.896   4.699   3.508
  187POPC  C21321485   5.848   4.757   3.714
  187POPC  H13R21486   5.794   4.661   3.727
  187POPC  H13S21487   5.771   4.833   3.687
  187POPC  C21421488   5.923   4.783   3.845
  187POPC  H14R21489   5.978   4.878   3.832
  187POPC  H14S21490   6.001   4.704   3.846
  187POPC  C21521491   5.843   4.781   3.973
  187POPC  H15R21492   5.790   4.685   3.989
  187POPC  H15S21493   5.752   4.844   3.959
  187POPC  C21621494   5.929   4.803   4.105
  187POPC  H16R21495   5.963   4.905   4.132
  187POPC  H16S21496   6.019   4.742   4.081
  187POPC  C21721497   5.868   4.741   4.235
  187POPC  H17R21498   5.872   4.630   4.236
  187POPC  H17S21499   5.761   4.769   4.236
  187POPC  C21821500   5.954   4.786   4.358
  187POPC  H18R21501   5.892   4.770   4.448
  187POPC  H18S21502   5.985   4.893   4.353
  187POPC  H18T21503   6.049   4.728   4.354
  187POPC   C3321504   5.991   5.326   2.816
  187POPC   H3X21505   5.920   5.255   2.769
  187POPC   H3Y21506   5.944   5.420   2.779
  187POPC   C3421507   5.983   5.336   2.967
  187POPC   H4X21508   6.071   5.399   2.990
  187POPC   H4Y21509   5.999   5.235   3.009
  187POPC   C3521510   5.859   5.399   3.024
  187POPC   H5X21511   5.767   5.341   3.001
  187POPC   H5Y21512   5.844   5.491   2.963
  187POPC   C3621513   5.873   5.437   3.169
  187POPC   H6X21514   5.819   5.533   3.188
  187POPC   H6Y21515   5.981   5.459   3.186
  187POPC   C3721516   5.815   5.337   3.266
  187POPC   H7X21517   5.858   5.238   3.240
  187POPC   H7Y21518   5.704   5.333   3.267
  187POPC   C3821519   5.857   5.366   3.409
  187POPC   H8X21520   5.819   5.468   3.432
  187POPC   H8Y21521   5.966   5.385   3.413
  187POPC   C3921522   5.823   5.254   3.503
  187POPC   H9X21523   5.863   5.157   3.466
  187POPC   H9Y21524   5.712   5.257   3.499
  187POPC  C31021525   5.859   5.294   3.646
  187POPC  H10X21526   5.832   5.401   3.664
  187POPC  H10Y21527   5.967   5.289   3.673
  187POPC  C31121528   5.790   5.195   3.743
  187POPC  H11X21529   5.839   5.095   3.744
  187POPC  H11Y21530   5.687   5.188   3.703
  187POPC  C31221531   5.810   5.250   3.886
  187POPC  H12X21532   5.761   5.348   3.901
  187POPC  H12Y21533   5.919   5.260   3.904
  187POPC  C31321534   5.754   5.146   3.994
  187POPC  H13X21535   5.810   5.051   4.004
  187POPC  H13Y21536   5.656   5.111   3.956
  187POPC  C31421537   5.745   5.211   4.137
  187POPC  H14X21538   5.701   5.312   4.124
  187POPC  H14Y21539   5.842   5.229   4.189
  187POPC  C31521540   5.653   5.136   4.230
  187POPC  H15X21541   5.697   5.039   4.261
  187POPC  H15Y21542   5.558   5.103   4.182
  187POPC  C31621543   5.593   5.206   4.353
  187POPC  H16X21544   5.561   5.126   4.423
  187POPC  H16Y21545   5.508   5.275   4.337
  187POPC  H16Z21546   5.675   5.265   4.398
  188POPC     N21547   5.167   4.909   1.531
  188POPC   C1221548   5.261   4.798   1.518
  188POPC  H12A21549   5.311   4.803   1.422
  188POPC  H12B21550   5.200   4.713   1.495
  188POPC   C1321551   5.237   5.046   1.527
  188POPC  H13A21552   5.276   5.056   1.427
  188POPC  H13B21553   5.163   5.124   1.543
  188POPC  H13C21554   5.311   5.060   1.605
  188POPC   C1421555   5.084   4.909   1.411
  188POPC  H14A21556   5.136   4.936   1.321
  188POPC  H14B21557   5.050   4.809   1.388
  188POPC  H14C21558   5.004   4.981   1.405
  188POPC   C1521559   5.072   4.904   1.641
  188POPC  H15A21560   4.990   4.836   1.622
  188POPC  H15B21561   5.043   5.008   1.653
  188POPC  H15C21562   5.134   4.869   1.721
  188POPC   C1121563   5.363   4.771   1.634
  188POPC  H11A21564   5.448   4.715   1.589
  188POPC  H11B21565   5.317   4.715   1.718
  188POPC     P21566   5.443   4.907   1.842
  188POPC   O1321567   5.472   5.049   1.879
  188POPC   O1421568   5.545   4.806   1.885
  188POPC   O1221569   5.424   4.892   1.682
  188POPC   O1121570   5.304   4.865   1.898
  188POPC    C121571   5.218   4.949   1.971
  188POPC    HA21572   5.112   4.917   1.963
  188POPC    HB21573   5.224   5.055   1.938
  188POPC    C221574   5.241   4.937   2.122
  188POPC    HS21575   5.312   5.017   2.154
  188POPC   O2121576   5.293   4.807   2.159
  188POPC   C2121577   5.360   4.805   2.269
  188POPC   O2221578   5.400   4.900   2.337
  188POPC   C2221579   5.414   4.661   2.289
  188POPC   H2R21580   5.498   4.663   2.362
  188POPC   H2S21581   5.447   4.623   2.190
  188POPC    C321582   5.106   4.961   2.197
  188POPC    HX21583   5.037   4.875   2.184
  188POPC    HY21584   5.066   5.053   2.151
  188POPC   O3121585   5.117   4.990   2.335
  188POPC   C3121586   5.140   5.116   2.369
  188POPC   O3221587   5.149   5.214   2.292
  188POPC   C3221588   5.160   5.125   2.519
  188POPC   H2X21589   5.249   5.061   2.538
  188POPC   H2Y21590   5.072   5.078   2.569
  188POPC   C2321591   5.300   4.557   2.338
  188POPC   H3R21592   5.349   4.466   2.378
  188POPC   H3S21593   5.237   4.531   2.250
  188POPC   C2421594   5.194   4.621   2.431
  188POPC   H4R21595   5.120   4.541   2.454
  188POPC   H4S21596   5.138   4.701   2.379
  188POPC   C2521597   5.257   4.659   2.565
  188POPC   H5R21598   5.346   4.722   2.540
  188POPC   H5S21599   5.300   4.569   2.613
  188POPC   C2621600   5.158   4.710   2.668
  188POPC   H6R21601   5.081   4.634   2.692
  188POPC   H6S21602   5.109   4.794   2.615
  188POPC   C2721603   5.217   4.764   2.796
  188POPC   H7R21604   5.132   4.813   2.849
  188POPC   H7S21605   5.292   4.842   2.772
  188POPC   C2821606   5.280   4.650   2.885
  188POPC   H8R21607   5.365   4.604   2.831
  188POPC   H8S21608   5.198   4.576   2.882
  188POPC   C2921609   5.337   4.697   3.014
  188POPC   H9121610   5.434   4.748   3.009
  188POPC  C21021611   5.267   4.703   3.136
  188POPC  H10121612   5.315   4.752   3.221
  188POPC  C21121613   5.125   4.653   3.160
  188POPC  H11R21614   5.146   4.553   3.204
  188POPC  H11S21615   5.075   4.630   3.063
  188POPC  C21221616   5.037   4.736   3.246
  188POPC  H12R21617   4.939   4.684   3.245
  188POPC  H12S21618   5.018   4.830   3.190
  188POPC  C21321619   5.096   4.741   3.389
  188POPC  H13R21620   5.070   4.843   3.425
  188POPC  H13S21621   5.203   4.719   3.410
  188POPC  C21421622   5.021   4.660   3.496
  188POPC  H14R21623   5.024   4.551   3.472
  188POPC  H14S21624   4.914   4.687   3.492
  188POPC  C21521625   5.078   4.686   3.634
  188POPC  H15R21626   5.051   4.786   3.674
  188POPC  H15S21627   5.188   4.669   3.623
  188POPC  C21621628   5.022   4.588   3.735
  188POPC  H16R21629   5.026   4.488   3.687
  188POPC  H16S21630   4.914   4.616   3.737
  188POPC  C21721631   5.081   4.601   3.875
  188POPC  H17R21632   5.081   4.709   3.902
  188POPC  H17S21633   5.189   4.578   3.881
  188POPC  C21821634   4.999   4.517   3.966
  188POPC  H18R21635   4.894   4.551   3.974
  188POPC  H18S21636   5.036   4.512   4.071
  188POPC  H18T21637   4.982   4.420   3.915
  188POPC   C3321638   5.180   5.269   2.574
  188POPC   H3X21639   5.090   5.331   2.554
  188POPC   H3Y21640   5.258   5.308   2.505
  188POPC   C3421641   5.216   5.264   2.724
  188POPC   H4X21642   5.255   5.363   2.758
  188POPC   H4Y21643   5.295   5.188   2.741
  188POPC   C3521644   5.090   5.225   2.806
  188POPC   H5X21645   5.064   5.119   2.791
  188POPC   H5Y21646   5.004   5.294   2.789
  188POPC   C3621647   5.127   5.243   2.957
  188POPC   H6X21648   5.149   5.347   2.986
  188POPC   H6Y21649   5.222   5.194   2.987
  188POPC   C3721650   5.019   5.181   3.053
  188POPC   H7X21651   5.017   5.071   3.037
  188POPC   H7Y21652   4.921   5.229   3.034
  188POPC   C3821653   5.064   5.195   3.196
  188POPC   H8X21654   5.076   5.303   3.216
  188POPC   H8Y21655   5.165   5.151   3.212
  188POPC   C3921656   4.959   5.129   3.285
  188POPC   H9X21657   4.959   5.021   3.259
  188POPC   H9Y21658   4.859   5.176   3.284
  188POPC  C31021659   5.016   5.135   3.427
  188POPC  H10X21660   5.026   5.241   3.458
  188POPC  H10Y21661   5.112   5.080   3.422
  188POPC  C31121662   4.923   5.071   3.536
  188POPC  H11X21663   4.893   4.967   3.510
  188POPC  H11Y21664   4.833   5.136   3.536
  188POPC  C31221665   4.982   5.082   3.680
  188POPC  H12X21666   5.004   5.189   3.701
  188POPC  H12Y21667   5.086   5.043   3.677
  188POPC  C31321668   4.892   5.029   3.789
  188POPC  H13X21669   4.850   4.933   3.754
  188POPC  H13Y21670   4.810   5.101   3.805
  188POPC  C31421671   4.975   4.996   3.916
  188POPC  H14X21672   5.017   5.096   3.941
  188POPC  H14Y21673   5.054   4.922   3.893
  188POPC  C31521674   4.889   4.956   4.029
  188POPC  H15X21675   4.860   4.849   4.022
  188POPC  H15Y21676   4.798   5.018   4.026
  188POPC  C31621677   4.947   4.986   4.171
  188POPC  H16X21678   4.929   5.093   4.195
  188POPC  H16Y21679   5.058   4.977   4.169
  188POPC  H16Z21680   4.908   4.917   4.249
  189SAPI   C1221681   2.273   5.066   6.570
  189SAPI    H221682   2.280   5.048   6.461
  189SAPI    O221683   2.256   5.207   6.588
  189SAPI   HO221684   2.248   5.241   6.498
  189SAPI   C1321685   2.160   4.993   6.642
  189SAPI    H321686   2.180   4.885   6.631
  189SAPI    O321687   2.035   5.012   6.580
  189SAPI   HO321688   2.014   5.105   6.572
  189SAPI   C1421689   2.161   5.018   6.795
  189SAPI    H421690   2.115   5.119   6.792
  189SAPI    O421691   2.080   4.929   6.866
  189SAPI   HO421692   2.110   4.905   6.954
  189SAPI   C1521693   2.299   5.013   6.858
  189SAPI    H521694   2.329   4.907   6.876
  189SAPI    O521695   2.305   5.077   6.990
  189SAPI   HO521696   2.354   5.022   7.052
  189SAPI   C1621697   2.414   5.064   6.774
  189SAPI    H621698   2.419   5.175   6.788
  189SAPI    O621699   2.544   5.021   6.824
  189SAPI   HO621700   2.587   4.996   6.742
  189SAPI   C1121701   2.406   5.026   6.628
  189SAPI    H121702   2.414   4.915   6.630
  189SAPI     P21703   2.642   4.996   6.500
  189SAPI   O1321704   2.689   4.919   6.617
  189SAPI   O1421705   2.736   5.095   6.437
  189SAPI   O1221706   2.511   5.086   6.550
  189SAPI   O1121707   2.577   4.895   6.395
  189SAPI    C121708   2.584   4.921   6.252
  189SAPI    HA21709   2.674   4.980   6.227
  189SAPI    HB21710   2.580   4.822   6.200
  189SAPI    C221711   2.470   5.010   6.194
  189SAPI    HS21712   2.473   5.104   6.254
  189SAPI   O2121713   2.344   4.942   6.218
  189SAPI   C2121714   2.236   5.014   6.217
  189SAPI   O2221715   2.233   5.134   6.197
  189SAPI   C2221716   2.116   4.929   6.224
  189SAPI   H2R21717   2.151   4.825   6.242
  189SAPI   H2S21718   2.069   4.955   6.321
  189SAPI    C321719   2.485   5.053   6.050
  189SAPI    HX21720   2.480   4.961   5.989
  189SAPI    HY21721   2.589   5.090   6.035
  189SAPI   O3121722   2.391   5.151   5.992
  189SAPI   C3121723   2.426   5.275   5.991
  189SAPI   O3221724   2.534   5.321   6.028
  189SAPI   C3221725   2.305   5.362   5.962
  189SAPI   H2X21726   2.289   5.415   6.059
  189SAPI   H2Y21727   2.219   5.293   5.949
  189SAPI   C2321728   2.033   4.953   6.100
  189SAPI   H3R21729   2.050   5.055   6.058
  189SAPI   H3S21730   1.924   4.941   6.117
  189SAPI   C2421731   2.079   4.852   5.992
  189SAPI   H4R21732   2.066   4.753   6.041
  189SAPI   H4S21733   2.185   4.869   5.960
  189SAPI   C2521734   1.992   4.858   5.870
  189SAPI   H5R21735   1.903   4.793   5.871
  189SAPI   C2621736   2.023   4.914   5.754
  189SAPI   H6R21737   1.959   4.890   5.667
  189SAPI   C2721738   2.132   5.021   5.733
  189SAPI   H7R21739   2.135   5.096   5.814
  189SAPI   H7S21740   2.094   5.077   5.645
  189SAPI   C2821741   2.267   4.955   5.704
  189SAPI   H8R21742   2.284   4.859   5.755
  189SAPI   C2921743   2.359   5.011   5.626
  189SAPI   H9R21744   2.455   4.957   5.625
  189SAPI  C21021745   2.353   5.141   5.542
  189SAPI  H10R21746   2.251   5.185   5.544
  189SAPI  H10S21747   2.367   5.114   5.435
  189SAPI  C21121748   2.460   5.239   5.589
  189SAPI  H11R21749   2.480   5.240   5.697
  189SAPI  C21221750   2.555   5.314   5.532
  189SAPI  H12R21751   2.625   5.371   5.595
  189SAPI  C21321752   2.583   5.328   5.378
  189SAPI  H13R21753   2.542   5.429   5.354
  189SAPI  H13S21754   2.528   5.256   5.314
  189SAPI  C21421755   2.731   5.309   5.365
  189SAPI  H14R21756   2.792   5.304   5.456
  189SAPI  C21521757   2.790   5.277   5.242
  189SAPI  H15R21758   2.899   5.265   5.236
  189SAPI  C21621759   2.706   5.262   5.115
  189SAPI  H16R21760   2.768   5.291   5.028
  189SAPI  H16S21761   2.622   5.336   5.114
  189SAPI  C21721762   2.639   5.125   5.099
  189SAPI  H17R21763   2.549   5.128   5.164
  189SAPI  H17S21764   2.701   5.034   5.118
  189SAPI  C21821765   2.581   5.105   4.956
  189SAPI  H18R21766   2.579   4.997   4.930
  189SAPI  H18S21767   2.660   5.145   4.889
  189SAPI  C21921768   2.450   5.187   4.932
  189SAPI  H19R21769   2.486   5.292   4.943
  189SAPI  H19S21770   2.374   5.163   5.009
  189SAPI  C22021771   2.397   5.158   4.789
  189SAPI  H20R21772   2.454   5.191   4.700
  189SAPI  H20S21773   2.289   5.186   4.792
  189SAPI  H20T21774   2.401   5.047   4.778
  189SAPI   C3321775   2.318   5.457   5.842
  189SAPI   H3X21776   2.230   5.520   5.820
  189SAPI   H3Y21777   2.332   5.398   5.749
  189SAPI   C3421778   2.431   5.563   5.875
  189SAPI   H4X21779   2.529   5.512   5.883
  189SAPI   H4Y21780   2.411   5.601   5.977
  189SAPI   C3521781   2.440   5.688   5.775
  189SAPI   H5X21782   2.503   5.768   5.820
  189SAPI   H5Y21783   2.338   5.726   5.755
  189SAPI   C3621784   2.500   5.654   5.634
  189SAPI   H6X21785   2.448   5.559   5.608
  189SAPI   H6Y21786   2.606   5.631   5.658
  189SAPI   C3721787   2.489   5.764   5.529
  189SAPI   H7X21788   2.525   5.865   5.557
  189SAPI   H7Y21789   2.379   5.767   5.515
  189SAPI   C3821790   2.533   5.729   5.386
  189SAPI   H8X21791   2.508   5.809   5.313
  189SAPI   H8Y21792   2.477   5.640   5.349
  189SAPI   C3921793   2.687   5.701   5.376
  189SAPI   H9X21794   2.714   5.608   5.430
  189SAPI   H9Y21795   2.734   5.792   5.419
  189SAPI  C31021796   2.730   5.666   5.234
  189SAPI  H10X21797   2.668   5.590   5.183
  189SAPI  H10Y21798   2.829   5.618   5.248
  189SAPI  C31121799   2.740   5.791   5.142
  189SAPI  H11X21800   2.821   5.856   5.180
  189SAPI  H11Y21801   2.647   5.852   5.145
  189SAPI  C31221802   2.766   5.755   4.998
  189SAPI  H12X21803   2.836   5.670   4.984
  189SAPI  H12Y21804   2.811   5.845   4.950
  189SAPI  C31321805   2.629   5.727   4.925
  189SAPI  H13X21806   2.565   5.818   4.918
  189SAPI  H13Y21807   2.579   5.654   4.992
  189SAPI  C31421808   2.645   5.682   4.781
  189SAPI  H14X21809   2.542   5.686   4.740
  189SAPI  H14Y21810   2.681   5.577   4.776
  189SAPI  C31521811   2.736   5.772   4.696
  189SAPI  H15X21812   2.835   5.776   4.748
  189SAPI  H15Y21813   2.701   5.877   4.709
  189SAPI  C31621814   2.733   5.735   4.552
  189SAPI  H16X21815   2.630   5.745   4.513
  189SAPI  H16Y21816   2.771   5.632   4.534
  189SAPI  C31721817   2.824   5.831   4.472
  189SAPI  H17X21818   2.926   5.846   4.513
  189SAPI  H17Y21819   2.777   5.931   4.482
  189SAPI  C31821820   2.834   5.785   4.324
  189SAPI  H18X21821   2.883   5.685   4.320
  189SAPI  H18Y21822   2.897   5.850   4.260
  189SAPI  H18Z21823   2.735   5.780   4.275
  190SAPI   C1221824   0.965   2.912   6.821
  190SAPI    H221825   1.024   2.819   6.816
  190SAPI    O221826   0.834   2.866   6.856
  190SAPI   HO221827   0.813   2.829   6.770
  190SAPI   C1321828   1.024   3.007   6.919
  190SAPI    H321829   1.124   3.044   6.887
  190SAPI    O321830   1.035   2.943   7.040
  190SAPI   HO321831   1.098   2.871   7.031
  190SAPI   C1421832   0.944   3.140   6.929
  190SAPI    H421833   0.848   3.109   6.976
  190SAPI    O421834   1.011   3.234   7.019
  190SAPI   HO421835   0.981   3.204   7.105
  190SAPI   C1521836   0.897   3.196   6.796
  190SAPI    H521837   0.990   3.252   6.769
  190SAPI    O521838   0.787   3.293   6.785
  190SAPI   HO521839   0.708   3.253   6.821
  190SAPI   C1621840   0.889   3.098   6.673
  190SAPI    H621841   0.781   3.074   6.659
  190SAPI    O621842   0.920   3.169   6.560
  190SAPI   HO621843   0.907   3.118   6.479
  190SAPI   C1121844   0.964   2.967   6.680
  190SAPI    H121845   1.070   2.981   6.650
  190SAPI     P21846   0.915   2.849   6.439
  190SAPI   O1321847   0.925   2.982   6.373
  190SAPI   O1421848   0.813   2.754   6.393
  190SAPI   O1221849   0.895   2.868   6.597
  190SAPI   O1121850   1.054   2.774   6.429
  190SAPI    C121851   1.173   2.846   6.403
  190SAPI    HA21852   1.171   2.957   6.410
  190SAPI    HB21853   1.239   2.811   6.486
  190SAPI    C221854   1.242   2.800   6.273
  190SAPI    HS21855   1.349   2.816   6.301
  190SAPI   O2121856   1.203   2.886   6.165
  190SAPI   C2121857   1.290   2.908   6.069
  190SAPI   O2221858   1.408   2.870   6.072
  190SAPI   C2221859   1.225   2.987   5.958
  190SAPI   H2R21860   1.117   2.975   5.977
  190SAPI   H2S21861   1.254   3.093   5.972
  190SAPI    C321862   1.215   2.640   6.243
  190SAPI    HX21863   1.105   2.632   6.237
  190SAPI    HY21864   1.245   2.573   6.326
  190SAPI   O3121865   1.262   2.583   6.116
  190SAPI   C3121866   1.396   2.573   6.112
  190SAPI   O3221867   1.474   2.591   6.205
  190SAPI   C3221868   1.447   2.538   5.970
  190SAPI   H2X21869   1.558   2.535   5.969
  190SAPI   H2Y21870   1.406   2.615   5.901
  190SAPI   C2321871   1.255   2.944   5.806
  190SAPI   H3R21872   1.199   3.008   5.735
  190SAPI   H3S21873   1.219   2.840   5.790
  190SAPI   C2421874   1.399   2.970   5.757
  190SAPI   H4R21875   1.442   3.067   5.790
  190SAPI   H4S21876   1.378   3.008   5.654
  190SAPI   C2521877   1.493   2.856   5.759
  190SAPI   H5R21878   1.534   2.843   5.861
  190SAPI   C2621879   1.551   2.792   5.655
  190SAPI   H6R21880   1.610   2.703   5.681
  190SAPI   C2721881   1.526   2.803   5.501
  190SAPI   H7R21882   1.440   2.870   5.481
  190SAPI   H7S21883   1.502   2.701   5.463
  190SAPI   C2821884   1.654   2.843   5.430
  190SAPI   H8R21885   1.720   2.901   5.496
  190SAPI   C2921886   1.692   2.814   5.308
  190SAPI   H9R21887   1.784   2.857   5.265
  190SAPI  C21021888   1.626   2.726   5.200
  190SAPI  H10R21889   1.563   2.651   5.253
  190SAPI  H10S21890   1.700   2.666   5.144
  190SAPI  C21121891   1.535   2.814   5.113
  190SAPI  H11R21892   1.529   2.922   5.127
  190SAPI  C21221893   1.450   2.768   5.019
  190SAPI  H12R21894   1.384   2.837   4.965
  190SAPI  C21321895   1.445   2.624   4.982
  190SAPI  H13R21896   1.414   2.562   5.069
  190SAPI  H13S21897   1.552   2.603   4.959
  190SAPI  C21421898   1.364   2.570   4.865
  190SAPI  H14R21899   1.265   2.532   4.891
  190SAPI  C21521900   1.404   2.588   4.735
  190SAPI  H15R21901   1.340   2.539   4.660
  190SAPI  C21621902   1.537   2.645   4.695
  190SAPI  H16R21903   1.611   2.651   4.777
  190SAPI  H16S21904   1.531   2.751   4.663
  190SAPI  C21721905   1.609   2.556   4.588
  190SAPI  H17R21906   1.598   2.448   4.614
  190SAPI  H17S21907   1.717   2.579   4.578
  190SAPI  C21821908   1.545   2.569   4.450
  190SAPI  H18R21909   1.435   2.578   4.459
  190SAPI  H18S21910   1.557   2.483   4.380
  190SAPI  C21921911   1.592   2.696   4.384
  190SAPI  H19R21912   1.701   2.692   4.363
  190SAPI  H19S21913   1.589   2.781   4.455
  190SAPI  C22021914   1.523   2.728   4.253
  190SAPI  H20R21915   1.413   2.713   4.250
  190SAPI  H20S21916   1.549   2.644   4.185
  190SAPI  H20T21917   1.565   2.821   4.209
  190SAPI   C3321918   1.405   2.394   5.929
  190SAPI   H3X21919   1.295   2.386   5.943
  190SAPI   H3Y21920   1.450   2.323   6.002
  190SAPI   C3421921   1.429   2.344   5.787
  190SAPI   H4X21922   1.538   2.327   5.772
  190SAPI   H4Y21923   1.378   2.413   5.716
  190SAPI   C3521924   1.378   2.198   5.761
  190SAPI   H5X21925   1.268   2.191   5.773
  190SAPI   H5Y21926   1.418   2.134   5.843
  190SAPI   C3621927   1.442   2.150   5.628
  190SAPI   H6X21928   1.397   2.051   5.605
  190SAPI   H6Y21929   1.553   2.147   5.637
  190SAPI   C3721930   1.416   2.237   5.504
  190SAPI   H7X21931   1.479   2.328   5.504
  190SAPI   H7Y21932   1.317   2.286   5.518
  190SAPI   C3821933   1.432   2.188   5.364
  190SAPI   H8X21934   1.409   2.079   5.355
  190SAPI   H8Y21935   1.539   2.197   5.337
  190SAPI   C3921936   1.359   2.265   5.254
  190SAPI   H9X21937   1.369   2.375   5.263
  190SAPI   H9Y21938   1.257   2.222   5.267
  190SAPI  C31021939   1.400   2.218   5.116
  190SAPI  H10X21940   1.503   2.249   5.087
  190SAPI  H10Y21941   1.330   2.263   5.043
  190SAPI  C31121942   1.384   2.065   5.085
  190SAPI  H11X21943   1.445   2.002   5.153
  190SAPI  H11Y21944   1.423   2.046   4.983
  190SAPI  C31221945   1.244   2.013   5.102
  190SAPI  H12X21946   1.217   2.017   5.210
  190SAPI  H12Y21947   1.250   1.907   5.068
  190SAPI  C31321948   1.142   2.087   5.017
  190SAPI  H13X21949   1.135   2.193   5.049
  190SAPI  H13Y21950   1.041   2.046   5.038
  190SAPI  C31421951   1.168   2.087   4.866
  190SAPI  H14X21952   1.182   1.982   4.832
  190SAPI  H14Y21953   1.259   2.143   4.836
  190SAPI  C31521954   1.044   2.128   4.788
  190SAPI  H15X21955   1.057   2.106   4.679
  190SAPI  H15Y21956   1.028   2.237   4.797
  190SAPI  C31621957   0.919   2.041   4.814
  190SAPI  H16X21958   0.864   2.083   4.901
  190SAPI  H16Y21959   0.953   1.937   4.834
  190SAPI  C31721960   0.823   2.038   4.698
  190SAPI  H17X21961   0.736   1.973   4.719
  190SAPI  H17Y21962   0.876   1.994   4.611
  190SAPI  C31821963   0.764   2.181   4.669
  190SAPI  H18X21964   0.847   2.253   4.657
  190SAPI  H18Y21965   0.714   2.211   4.763
  190SAPI  H18Z21966   0.695   2.184   4.582
  191SAPI   C1221967   4.963   4.204   2.352
  191SAPI    H221968   5.008   4.122   2.411
  191SAPI    O221969   4.980   4.313   2.439
  191SAPI   HO221970   4.919   4.288   2.509
  191SAPI   C1321971   5.031   4.224   2.216
  191SAPI    H321972   5.026   4.129   2.157
  191SAPI    O321973   5.162   4.274   2.236
  191SAPI   HO321974   5.167   4.300   2.328
  191SAPI   C1421975   4.962   4.328   2.133
  191SAPI    H421976   4.978   4.415   2.201
  191SAPI    O421977   5.030   4.349   2.005
  191SAPI   HO421978   4.988   4.424   1.963
  191SAPI   C1521979   4.812   4.312   2.118
  191SAPI    H521980   4.803   4.239   2.035
  191SAPI    O521981   4.747   4.436   2.087
  191SAPI   HO521982   4.763   4.498   2.159
  191SAPI   C1621983   4.739   4.251   2.239
  191SAPI    H621984   4.712   4.336   2.305
  191SAPI    O621985   4.621   4.188   2.196
  191SAPI   HO621986   4.584   4.154   2.278
  191SAPI   C1121987   4.818   4.161   2.330
  191SAPI    H121988   4.831   4.058   2.291
  191SAPI     P21989   4.643   4.040   2.504
  191SAPI   O1321990   4.534   4.032   2.401
  191SAPI   O1421991   4.603   4.051   2.645
  191SAPI   O1221992   4.762   4.148   2.462
  191SAPI   O1121993   4.717   3.898   2.495
  191SAPI    C121994   4.828   3.861   2.576
  191SAPI    HA21995   4.917   3.927   2.564
  191SAPI    HB21996   4.806   3.871   2.684
  191SAPI    C221997   4.862   3.707   2.555
  191SAPI    HS21998   4.852   3.692   2.445
  191SAPI   O2121999   4.763   3.629   2.622
  191SAPI   C2122000   4.762   3.494   2.593
  191SAPI   O2222001   4.843   3.430   2.522
  191SAPI   C2222002   4.650   3.421   2.672
  191SAPI   H2R22003   4.578   3.373   2.603
  191SAPI   H2S22004   4.702   3.337   2.723
  191SAPI    C322005   5.008   3.676   2.605
  191SAPI    HX22006   5.067   3.737   2.533
  191SAPI    HY22007   5.032   3.570   2.584
  191SAPI   O3122008   5.038   3.715   2.741
  191SAPI   C3122009   4.997   3.626   2.833
  191SAPI   O3222010   4.968   3.510   2.810
  191SAPI   C3222011   4.976   3.693   2.967
  191SAPI   H2X22012   4.884   3.754   2.959
  191SAPI   H2Y22013   5.064   3.758   2.986
  191SAPI   C2322014   4.607   3.510   2.790
  191SAPI   H3R22015   4.555   3.598   2.746
  191SAPI   H3S22016   4.694   3.534   2.855
  191SAPI   C2422017   4.497   3.444   2.875
  191SAPI   H4R22018   4.422   3.412   2.800
  191SAPI   H4S22019   4.453   3.522   2.940
  191SAPI   C2522020   4.536   3.323   2.951
  191SAPI   H5R22021   4.532   3.227   2.897
  191SAPI   C2622022   4.575   3.319   3.082
  191SAPI   H6R22023   4.599   3.225   3.134
  191SAPI   C2722024   4.595   3.442   3.173
  191SAPI   H7R22025   4.545   3.530   3.126
  191SAPI   H7S22026   4.700   3.459   3.204
  191SAPI   C2822027   4.507   3.419   3.294
  191SAPI   H8R22028   4.496   3.319   3.339
  191SAPI   C2922029   4.446   3.514   3.367
  191SAPI   H9R22030   4.398   3.480   3.460
  191SAPI  C21022031   4.434   3.662   3.347
  191SAPI  H10R22032   4.364   3.667   3.261
  191SAPI  H10S22033   4.525   3.705   3.301
  191SAPI  C21122034   4.395   3.764   3.450
  191SAPI  H11R22035   4.297   3.814   3.441
  191SAPI  C21222036   4.462   3.795   3.562
  191SAPI  H12R22037   4.422   3.881   3.619
  191SAPI  C21322038   4.585   3.722   3.623
  191SAPI  H13R22039   4.649   3.809   3.651
  191SAPI  H13S22040   4.627   3.660   3.541
  191SAPI  C21422041   4.553   3.625   3.739
  191SAPI  H14R22042   4.544   3.519   3.712
  191SAPI  C21522043   4.550   3.662   3.869
  191SAPI  H15R22044   4.527   3.592   3.951
  191SAPI  C21622045   4.567   3.803   3.929
  191SAPI  H16R22046   4.550   3.872   3.843
  191SAPI  H16S22047   4.673   3.819   3.961
  191SAPI  C21722048   4.471   3.834   4.049
  191SAPI  H17R22049   4.510   3.770   4.130
  191SAPI  H17S22050   4.361   3.824   4.035
  191SAPI  C21822051   4.509   3.970   4.106
  191SAPI  H18R22052   4.505   4.043   4.022
  191SAPI  H18S22053   4.614   3.970   4.141
  191SAPI  C21922054   4.413   4.016   4.218
  191SAPI  H19R22055   4.453   3.957   4.303
  191SAPI  H19S22056   4.307   3.987   4.201
  191SAPI  C22022057   4.424   4.168   4.238
  191SAPI  H20R22058   4.390   4.228   4.150
  191SAPI  H20S22059   4.525   4.207   4.262
  191SAPI  H20T22060   4.351   4.208   4.312
  191SAPI   C3322061   4.952   3.594   3.086
  191SAPI   H3X22062   5.046   3.535   3.085
  191SAPI   H3Y22063   4.860   3.536   3.067
  191SAPI   C3422064   4.951   3.670   3.220
  191SAPI   H4X22065   4.858   3.730   3.212
  191SAPI   H4Y22066   5.031   3.747   3.213
  191SAPI   C3522067   4.962   3.587   3.347
  191SAPI   H5X22068   5.053   3.523   3.347
  191SAPI   H5Y22069   4.879   3.513   3.347
  191SAPI   C3622070   4.961   3.679   3.474
  191SAPI   H6X22071   4.872   3.743   3.457
  191SAPI   H6Y22072   5.052   3.739   3.498
  191SAPI   C3722073   4.934   3.596   3.598
  191SAPI   H7X22074   5.001   3.508   3.600
  191SAPI   H7Y22075   4.829   3.562   3.587
  191SAPI   C3822076   4.945   3.677   3.725
  191SAPI   H8X22077   4.856   3.733   3.761
  191SAPI   H8Y22078   5.032   3.747   3.725
  191SAPI   C3922079   4.974   3.582   3.842
  191SAPI   H9X22080   5.072   3.531   3.843
  191SAPI   H9Y22081   4.890   3.509   3.837
  191SAPI  C31022082   4.961   3.649   3.978
  191SAPI  H10X22083   4.859   3.692   3.965
  191SAPI  H10Y22084   5.042   3.725   3.975
  191SAPI  C31122085   4.978   3.551   4.093
  191SAPI  H11X22086   5.032   3.592   4.181
  191SAPI  H11Y22087   5.030   3.462   4.050
  191SAPI  C31222088   4.843   3.506   4.152
  191SAPI  H12X22089   4.860   3.422   4.223
  191SAPI  H12Y22090   4.775   3.474   4.070
  191SAPI  C31322091   4.780   3.604   4.248
  191SAPI  H13X22092   4.754   3.698   4.196
  191SAPI  H13Y22093   4.839   3.624   4.340
  191SAPI  C31422094   4.639   3.553   4.287
  191SAPI  H14X22095   4.652   3.454   4.337
  191SAPI  H14Y22096   4.573   3.536   4.199
  191SAPI  C31522097   4.572   3.648   4.381
  191SAPI  H15X22098   4.565   3.750   4.337
  191SAPI  H15Y22099   4.639   3.663   4.468
  191SAPI  C31622100   4.443   3.601   4.434
  191SAPI  H16X22101   4.438   3.490   4.446
  191SAPI  H16Y22102   4.355   3.625   4.372
  191SAPI  C31722103   4.402   3.676   4.564
  191SAPI  H17X22104   4.398   3.784   4.539
  191SAPI  H17Y22105   4.482   3.674   4.641
  191SAPI  C31822106   4.280   3.614   4.623
  191SAPI  H18X22107   4.271   3.504   4.613
  191SAPI  H18Y22108   4.185   3.666   4.601
  191SAPI  H18Z22109   4.277   3.630   4.733
  192SAPI   C1222110   0.590   6.360   1.837
  192SAPI    H222111   0.535   6.398   1.926
  192SAPI    O222112   0.608   6.221   1.852
  192SAPI   HO222113   0.653   6.199   1.934
  192SAPI   C1322114   0.491   6.384   1.731
  192SAPI    H322115   0.495   6.494   1.718
  192SAPI    O322116   0.360   6.328   1.749
  192SAPI   HO322117   0.364   6.234   1.768
  192SAPI   C1422118   0.548   6.326   1.608
  192SAPI    H422119   0.557   6.216   1.624
  192SAPI    O422120   0.464   6.340   1.494
  192SAPI   HO422121   0.389   6.397   1.511
  192SAPI   C1522122   0.697   6.352   1.566
  192SAPI    H522123   0.703   6.447   1.509
  192SAPI    O522124   0.750   6.251   1.481
  192SAPI   HO522125   0.774   6.173   1.532
  192SAPI   C1622126   0.787   6.385   1.693
  192SAPI    H622127   0.820   6.287   1.735
  192SAPI    O622128   0.907   6.458   1.655
  192SAPI   HO622129   0.991   6.430   1.691
  192SAPI   C1122130   0.715   6.441   1.820
  192SAPI    H122131   0.686   6.542   1.785
  192SAPI     P22132   0.775   6.538   2.057
  192SAPI   O1322133   0.687   6.644   2.005
  192SAPI   O1422134   0.897   6.568   2.130
  192SAPI   O1222135   0.807   6.441   1.931
  192SAPI   O1122136   0.692   6.440   2.143
  192SAPI    C122137   0.752   6.320   2.195
  192SAPI    HA22138   0.777   6.246   2.116
  192SAPI    HB22139   0.854   6.342   2.233
  192SAPI    C222140   0.671   6.254   2.309
  192SAPI    HS22141   0.615   6.167   2.267
  192SAPI   O2122142   0.568   6.350   2.351
  192SAPI   C2122143   0.472   6.301   2.425
  192SAPI   O2222144   0.452   6.180   2.444
  192SAPI   C2222145   0.384   6.416   2.487
  192SAPI   H2R22146   0.425   6.512   2.448
  192SAPI   H2S22147   0.276   6.402   2.465
  192SAPI    C322148   0.753   6.201   2.430
  192SAPI    HX22149   0.834   6.155   2.370
  192SAPI    HY22150   0.687   6.126   2.477
  192SAPI   O3122151   0.790   6.297   2.526
  192SAPI   C3122152   0.840   6.244   2.640
  192SAPI   O3222153   0.855   6.126   2.663
  192SAPI   C3222154   0.881   6.360   2.722
  192SAPI   H2X22155   0.806   6.442   2.708
  192SAPI   H2Y22156   0.980   6.387   2.680
  192SAPI   C2322157   0.401   6.413   2.644
  192SAPI   H3R22158   0.508   6.438   2.657
  192SAPI   H3S22159   0.376   6.315   2.692
  192SAPI   C2422160   0.311   6.508   2.723
  192SAPI   H4R22161   0.202   6.488   2.712
  192SAPI   H4S22162   0.313   6.612   2.685
  192SAPI   C2522163   0.348   6.496   2.868
  192SAPI   H5R22164   0.432   6.553   2.909
  192SAPI   C2622165   0.274   6.430   2.962
  192SAPI   H6R22166   0.312   6.425   3.065
  192SAPI   C2722167   0.149   6.345   2.933
  192SAPI   H7R22168   0.151   6.307   2.829
  192SAPI   H7S22169   0.056   6.406   2.934
  192SAPI   C2822170   0.126   6.236   3.037
  192SAPI   H8R22171   0.147   6.131   3.011
  192SAPI   C2922172   0.091   6.258   3.163
  192SAPI   H9R22173   0.091   6.172   3.232
  192SAPI  C21022174   0.062   6.386   3.225
  192SAPI  H10R22175   6.834   6.440   3.173
  192SAPI  H10S22176   0.150   6.453   3.215
  192SAPI  C21122177   0.021   6.382   3.369
  192SAPI  H11R22178   6.768   6.402   3.386
  192SAPI  C21222179   0.106   6.371   3.471
  192SAPI  H12R22180   0.064   6.377   3.572
  192SAPI  C21322181   0.255   6.365   3.465
  192SAPI  H13R22182   0.294   6.309   3.378
  192SAPI  H13S22183   0.278   6.300   3.552
  192SAPI  C21422184   0.340   6.496   3.479
  192SAPI  H14R22185   0.346   6.543   3.380
  192SAPI  C21522186   0.388   6.553   3.588
  192SAPI  H15R22187   0.450   6.644   3.582
  192SAPI  C21622188   0.386   6.496   3.729
  192SAPI  H16R22189   0.483   6.467   3.775
  192SAPI  H16S22190   0.333   6.399   3.730
  192SAPI  C21722191   0.308   6.594   3.826
  192SAPI  H17R22192   0.199   6.579   3.813
  192SAPI  H17S22193   0.344   6.698   3.813
  192SAPI  C21822194   0.331   6.559   3.976
  192SAPI  H18R22195   0.441   6.555   3.988
  192SAPI  H18S22196   0.294   6.458   4.004
  192SAPI  C21922197   0.290   6.670   4.085
  192SAPI  H19R22198   0.315   6.640   4.189
  192SAPI  H19S22199   0.179   6.681   4.084
  192SAPI  C22022200   0.350   6.811   4.057
  192SAPI  H20R22201   0.313   0.021   4.140
  192SAPI  H20S22202   0.315   6.851   3.960
  192SAPI  H20T22203   0.461   6.805   4.047
  192SAPI   C3322204   0.895   6.327   2.872
  192SAPI   H3X22205   0.949   6.407   2.928
  192SAPI   H3Y22206   0.960   6.238   2.879
  192SAPI   C3422207   0.763   6.282   2.946
  192SAPI   H4X22208   0.775   6.236   3.047
  192SAPI   H4Y22209   0.699   6.213   2.886
  192SAPI   C3522210   0.666   6.399   2.965
  192SAPI   H5X22211   0.567   6.361   3.000
  192SAPI   H5Y22212   0.646   6.449   2.868
  192SAPI   C3622213   0.728   6.511   3.051
  192SAPI   H6X22214   0.644   6.583   3.062
  192SAPI   H6Y22215   0.815   6.549   2.993
  192SAPI   C3722216   0.777   6.467   3.191
  192SAPI   H7X22217   0.813   6.566   3.226
  192SAPI   H7Y22218   0.872   6.413   3.168
  192SAPI   C3822219   0.689   6.379   3.275
  192SAPI   H8X22220   0.677   6.276   3.236
  192SAPI   H8Y22221   0.586   6.423   3.279
  192SAPI   C3922222   0.739   6.369   3.416
  192SAPI   H9X22223   0.716   6.466   3.464
  192SAPI   H9Y22224   0.848   6.349   3.426
  192SAPI  C31022225   0.670   6.269   3.508
  192SAPI  H10X22226   0.647   6.175   3.454
  192SAPI  H10Y22227   0.567   6.307   3.524
  192SAPI  C31122228   0.731   6.244   3.640
  192SAPI  H11X22229   0.827   6.189   3.631
  192SAPI  H11Y22230   0.661   6.201   3.714
  192SAPI  C31222231   0.781   6.375   3.711
  192SAPI  H12X22232   0.693   6.443   3.713
  192SAPI  H12Y22233   0.874   6.417   3.667
  192SAPI  C31322234   0.830   6.350   3.857
  192SAPI  H13X22235   0.924   6.291   3.867
  192SAPI  H13Y22236   0.742   6.304   3.908
  192SAPI  C31422237   0.862   6.480   3.925
  192SAPI  H14X22238   0.917   6.558   3.869
  192SAPI  H14Y22239   0.944   6.460   3.997
  192SAPI  C31522240   0.738   6.548   3.984
  192SAPI  H15X22241   0.687   6.464   4.036
  192SAPI  H15Y22242   0.690   6.572   3.886
  192SAPI  C31622243   0.753   6.675   4.066
  192SAPI  H16X22244   0.646   6.695   4.085
  192SAPI  H16Y22245   0.800   6.751   4.001
  192SAPI  C31722246   0.820   6.662   4.203
  192SAPI  H17X22247   0.920   6.616   4.194
  192SAPI  H17Y22248   0.778   6.577   4.261
  192SAPI  C31822249   0.825   6.799   4.282
  192SAPI  H18X22250   0.723   6.843   4.293
  192SAPI  H18Y22251   0.888   0.012   4.219
  192SAPI  H18Z22252   0.878   6.785   4.379
  193SOD    SOD22253   3.786   4.296   1.337
  194SOD    SOD22254   2.445   5.483   7.289
  195SOD    SOD22255   5.797   5.900   1.093
  196SOD    SOD22256   1.906   1.233   1.569
  197SOD    SOD22257   3.828   0.042   6.265
  198SOD    SOD22258   6.805   6.277   7.514
  199SOD    SOD22259   5.853   1.628   6.380
  200SOD    SOD22260   5.951   0.726   8.162
  201SOD    SOD22261   6.645   5.897   2.409
  202SOD    SOD22262   4.439   3.852   2.293
  203SOD    SOD22263   3.792   3.083   2.002
  204SOD    SOD22264   4.005   4.647   7.047
  205SOD    SOD22265   0.142   6.759   7.254
  206SOD    SOD22266   6.003   2.600   7.642
  207SOD    SOD22267   2.210   6.157   7.164
  208SOD    SOD22268   3.681   0.392   6.336
  209SOD    SOD22269   5.296   1.910   0.960
  210SOD    SOD22270   1.545   1.720   7.250
  211SOD    SOD22271   0.552   1.918   0.108
  212SOD    SOD22272   3.647   4.070   6.289
  213SOD    SOD22273   2.692   2.332   1.618
  214SOD    SOD22274   2.760   5.388   0.186
  215SOD    SOD22275   1.875   4.847   6.555
  216SOD    SOD22276   2.108   1.369   8.210
  217SOD    SOD22277   6.149   6.565   7.330
  218SOD    SOD22278   3.731   2.809   1.091
  219SOD    SOD22279   5.356   5.553   7.306
  220SOD    SOD22280   3.778   3.311   1.184
  221SOD    SOD22281   4.531   1.932   0.022
  222SOD    SOD22282   0.145   4.629   7.809
  223SOD    SOD22283   5.602   5.146   2.021
  224SOD    SOD22284   3.560   3.678   6.807
  225SOD    SOD22285   5.569   6.679   7.333
  226SOD    SOD22286   4.418   0.338   2.107
  227SOD    SOD22287   6.539   2.159   2.103
  228SOD    SOD22288   4.851   2.553   0.310
  229SOD    SOD22289   3.899   1.544   6.905
  230SOD    SOD22290   6.301   5.781   0.756
  231SOD    SOD22291   0.161   2.718   6.647
  232SOD    SOD22292   6.650   1.098   0.215
  233SOD    SOD22293   2.681   1.529   2.075
  234CLA    CLA22294   1.953   6.122   7.228
  235CLA    CLA22295   6.407   5.097   7.707
  236CLA    CLA22296   2.405   1.346   8.131
  237CLA    CLA22297   3.995   4.145   0.893
  238CLA    CLA22298   2.158   0.518   8.374
  239CLA    CLA22299   4.293   1.913   0.869
  240CLA    CLA22300   6.315   1.011   7.888
  241CLA    CLA22301   4.036   2.235   8.261
  242CLA    CLA22302   0.068   6.624   7.805
  243CLA    CLA22303   3.516   0.531   8.015
  244CLA    CLA22304   2.619   5.277   0.659
  245CLA    CLA22305   3.228   5.490   7.595
  246CLA    CLA22306   0.715   1.527   7.418
  247CLA    CLA22307   0.653   2.219   7.191
  248CLA    CLA22308   5.696   2.130   7.207
  249CLA    CLA22309   4.526   5.196   7.618
  250CLA    CLA22310   2.455   6.052   8.162
  251TIP3   OH222311   2.006   4.073   1.234
  251TIP3    H122312   2.021   4.083   1.328
  251TIP3    H222313   2.073   4.127   1.193
  252TIP3   OH222314   0.397   5.188   1.869
  252TIP3    H122315   0.329   5.122   1.887
  252TIP3    H222316   0.355   5.272   1.888
  253TIP3   OH222317   1.932   0.998   1.514
  253TIP3    H122318   1.991   0.965   1.581
  253TIP3    H222319   1.965   0.961   1.432
  254TIP3   OH222320   4.505   0.991   6.520
  254TIP3    H122321   4.589   1.033   6.536
  254TIP3    H222322   4.513   0.953   6.433
  255TIP3   OH222323   4.153   6.477   7.622
  255TIP3    H122324   4.178   6.395   7.580
  255TIP3    H222325   4.143   6.539   7.550
  256TIP3   OH222326   0.731   1.572   6.950
  256TIP3    H122327   0.823   1.570   6.976
  256TIP3    H222328   0.733   1.614   6.863
  257TIP3   OH222329   1.175   6.848   6.504
  257TIP3    H122330   1.264   6.819   6.483
  257TIP3    H222331   1.123   6.768   6.502
  258TIP3   OH222332   4.419   6.224   7.873
  258TIP3    H122333   4.357   6.261   7.936
  258TIP3    H222334   4.365   6.166   7.818
  259TIP3   OH222335   6.355   0.624   6.946
  259TIP3    H122336   6.424   0.689   6.934
  259TIP3    H222337   6.398   0.553   6.994
  260TIP3   OH222338   2.277   1.456   2.004
  260TIP3    H122339   2.211   1.402   2.047
  260TIP3    H222340   2.349   1.461   2.067
  261TIP3   OH222341   6.102   3.381   7.235
  261TIP3    H122342   6.050   3.410   7.160
  261TIP3    H222343   6.037   3.347   7.297
  262TIP3   OH222344   2.724   2.282   0.106
  262TIP3    H122345   2.790   2.225   0.147
  262TIP3    H222346   2.724   2.361   0.161
  263TIP3   OH222347   2.249   1.963   7.851
  263TIP3    H122348   2.310   1.897   7.817
  263TIP3    H222349   2.202   1.918   7.921
  264TIP3   OH222350   3.187   6.760   0.865
  264TIP3    H122351   3.124   6.728   0.801
  264TIP3    H222352   3.261   6.792   0.813
  265TIP3   OH222353   4.866   2.053   1.326
  265TIP3    H122354   4.927   2.116   1.289
  265TIP3    H222355   4.903   2.030   1.411
  266TIP3   OH222356   5.264   6.801   0.875
  266TIP3    H122357   5.350   6.759   0.871
  266TIP3    H222358   5.275   0.017   0.939
  267TIP3   OH222359   6.523   1.646   7.073
  267TIP3    H122360   6.575   1.714   7.115
  267TIP3    H222361   6.541   1.656   6.979
  268TIP3   OH222362   3.202   5.737   1.223
  268TIP3    H122363   3.265   5.668   1.202
  268TIP3    H222364   3.197   5.789   1.143
  269TIP3   OH222365   0.051   3.949   7.594
  269TIP3    H122366   0.017   4.013   7.656
  269TIP3    H222367   0.127   3.911   7.639
  270TIP3   OH222368   6.007   6.288   1.753
  270TIP3    H122369   6.006   6.192   1.751
  270TIP3    H222370   6.075   6.313   1.692
  271TIP3   OH222371   3.810   2.475   0.184
  271TIP3    H122372   3.845   2.461   0.095
  271TIP3    H222373   3.888   2.488   0.238
  272TIP3   OH222374   4.766   5.843   8.211
  272TIP3    H122375   4.798   5.903   8.144
  272TIP3    H222376   4.721   5.774   8.161
  273TIP3   OH222377   6.754   6.277   0.042
  273TIP3    H122378   6.823   6.305   0.103
  273TIP3    H222379   6.725   6.192   0.076
  274TIP3   OH222380   1.982   4.167   0.643
  274TIP3    H122381   2.053   4.132   0.698
  274TIP3    H222382   1.980   4.261   0.664
  275TIP3   OH222383   0.950   1.807   8.346
  275TIP3    H122384   0.884   1.756   8.394
  275TIP3    H222385   1.016   1.742   8.321
  276TIP3   OH222386   1.507   1.127   1.031
  276TIP3    H122387   1.542   1.196   1.088
  276TIP3    H222388   1.441   1.083   1.085
  277TIP3   OH222389   3.629   5.746   0.230
  277TIP3    H122390   3.539   5.727   0.203
  277TIP3    H222391   3.661   5.808   0.165
  278TIP3   OH222392   5.939   2.779   8.201
  278TIP3    H122393   5.855   2.789   8.157
  278TIP3    H222394   5.933   2.695   8.247
  279TIP3   OH222395   0.967   1.562   7.592
  279TIP3    H122396   0.891   1.557   7.534
  279TIP3    H222397   0.932   1.549   7.680
  280TIP3   OH222398   5.861   4.007   7.170
  280TIP3    H122399   5.895   4.096   7.170
  280TIP3    H222400   5.771   4.016   7.200
  281TIP3   OH222401   4.792   4.993   0.197
  281TIP3    H122402   4.696   5.000   0.199
  281TIP3    H222403   4.809   4.914   0.145
  282TIP3   OH222404   5.293   0.092   2.240
  282TIP3    H122405   5.248   0.014   2.208
  282TIP3    H222406   5.335   0.129   2.163
  283TIP3   OH222407   6.679   3.963   7.223
  283TIP3    H122408   6.755   4.014   7.195
  283TIP3    H222409   6.644   3.926   7.143
  284TIP3   OH222410   4.651   2.178   7.076
  284TIP3    H122411   4.572   2.192   7.024
  284TIP3    H222412   4.695   2.263   7.076
  285TIP3   OH222413   1.088   0.584   2.111
  285TIP3    H122414   1.119   0.625   2.192
  285TIP3    H222415   1.060   0.497   2.138
  286TIP3   OH222416   6.745   1.472   6.038
  286TIP3    H122417   6.834   1.459   6.006
  286TIP3    H222418   6.756   1.526   6.116
  287TIP3   OH222419   2.151   5.575   8.047
  287TIP3    H122420   2.079   5.637   8.042
  287TIP3    H222421   2.229   5.629   8.062
  288TIP3   OH222422   0.365   3.924   2.321
  288TIP3    H122423   0.443   3.968   2.356
  288TIP3    H222424   0.395   3.880   2.242
  289TIP3   OH222425   2.815   1.912   0.395
  289TIP3    H122426   2.834   1.922   0.301
  289TIP3    H222427   2.824   1.818   0.411
  290TIP3   OH222428   6.201   1.915   6.645
  290TIP3    H122429   6.160   1.982   6.699
  290TIP3    H222430   6.162   1.927   6.558
  291TIP3   OH222431   2.966   4.864   0.360
  291TIP3    H122432   2.917   4.791   0.398
  291TIP3    H222433   3.039   4.822   0.314
  292TIP3   OH222434   5.766   4.827   0.751
  292TIP3    H122435   5.813   4.810   0.670
  292TIP3    H222436   5.735   4.741   0.780
  293TIP3   OH222437   1.061   2.979   8.250
  293TIP3    H122438   1.109   2.916   8.197
  293TIP3    H222439   0.976   2.940   8.265
  294TIP3   OH222440   4.480   4.763   8.652
  294TIP3    H122441   4.465   4.713   0.006
  294TIP3    H222442   4.405   4.823   8.647
  295TIP3   OH222443   6.009   3.785   7.164
  295TIP3    H122444   6.048   3.791   7.077
  295TIP3    H222445   5.954   3.863   7.171
  296TIP3   OH222446   6.771   5.578   2.147
  296TIP3    H122447   6.702   5.537   2.095
  296TIP3    H222448   6.848   5.523   2.133
  297TIP3   OH222449   4.688   2.826   1.473
  297TIP3    H122450   4.600   2.830   1.436
  297TIP3    H222451   4.731   2.906   1.444
  298TIP3   OH222452   0.447   2.678   0.482
  298TIP3    H122453   0.452   2.695   0.388
  298TIP3    H222454   0.410   2.759   0.518
  299TIP3   OH222455   5.229   5.196   0.865
  299TIP3    H122456   5.231   5.272   0.807
  299TIP3    H222457   5.272   5.225   0.945
  300TIP3   OH222458   0.264   5.723   0.583
  300TIP3    H122459   0.204   5.796   0.572
  300TIP3    H222460   0.282   5.692   0.494
  301TIP3   OH222461   6.527   0.595   7.397
  301TIP3    H122462   6.601   0.648   7.426
  301TIP3    H222463   6.450   0.637   7.436
  302TIP3   OH222464   0.281   0.588   6.651
  302TIP3    H122465   0.249   0.609   6.564
  302TIP3    H222466   0.297   0.674   6.692
  303TIP3   OH222467   5.956   6.580   1.281
  303TIP3    H122468   5.922   6.644   1.219
  303TIP3    H222469   5.954   6.624   1.366
  304TIP3   OH222470   1.615   3.570   1.451
  304TIP3    H122471   1.569   3.504   1.399
  304TIP3    H222472   1.556   3.645   1.453
  305TIP3   OH222473   4.314   0.334   8.600
  305TIP3    H122474   4.253   0.270   8.639
  305TIP3    H222475   4.302   0.413   8.652
  306TIP3   OH222476   3.574   2.634   8.331
  306TIP3    H122477   3.642   2.647   8.397
  306TIP3    H222478   3.523   2.715   8.334
  307TIP3   OH222479   4.472   6.713   1.520
  307TIP3    H122480   4.532   6.640   1.536
  307TIP3    H222481   4.527   6.791   1.527
  308TIP3   OH222482   1.003   6.541   0.694
  308TIP3    H122483   1.094   6.548   0.665
  308TIP3    H222484   0.980   6.630   0.721
  309TIP3   OH222485   6.545   0.264   7.405
  309TIP3    H122486   6.493   0.276   7.326
  309TIP3    H222487   6.487   0.291   7.476
  310TIP3   OH222488   0.584   3.025   0.653
  310TIP3    H122489   0.587   3.082   0.729
  310TIP3    H222490   0.646   2.955   0.673
  311TIP3   OH222491   5.733   6.431   1.574
  311TIP3    H122492   5.638   6.441   1.572
  311TIP3    H222493   5.757   6.453   1.664
  312TIP3   OH222494   6.368   1.087   1.704
  312TIP3    H122495   6.431   1.081   1.776
  312TIP3    H222496   6.285   1.061   1.744
  313TIP3   OH222497   0.016   0.598   7.078
  313TIP3    H122498   0.069   0.518   7.083
  313TIP3    H222499   6.786   0.573   7.115
  314TIP3   OH222500   4.721   0.597   7.000
  314TIP3    H122501   4.689   0.665   6.940
  314TIP3    H222502   4.793   0.639   7.048
  315TIP3   OH222503   5.603   2.139   0.688
  315TIP3    H122504   5.624   2.049   0.715
  315TIP3    H222505   5.684   2.188   0.704
  316TIP3   OH222506   5.704   3.236   1.260
  316TIP3    H122507   5.747   3.319   1.238
  316TIP3    H222508   5.610   3.257   1.261
  317TIP3   OH222509   2.116   2.208   8.678
  317TIP3    H122510   2.103   2.215   8.584
  317TIP3    H222511   2.210   2.224   8.691
  318TIP3   OH222512   1.906   5.979   0.835
  318TIP3    H122513   1.956   5.995   0.755
  318TIP3    H222514   1.973   5.960   0.901
  319TIP3   OH222515   0.263   1.471   7.171
  319TIP3    H122516   0.357   1.460   7.159
  319TIP3    H222517   0.244   1.427   7.254
  320TIP3   OH222518   2.457   4.969   7.861
  320TIP3    H122519   2.520   4.925   7.918
  320TIP3    H222520   2.390   5.003   7.921
  321TIP3   OH222521   1.480   6.273   0.203
  321TIP3    H122522   1.521   6.338   0.259
  321TIP3    H222523   1.400   6.316   0.171
  322TIP3   OH222524   1.994   4.494   0.108
  322TIP3    H122525   1.917   4.455   0.149
  322TIP3    H222526   1.991   4.586   0.136
  323TIP3   OH222527   3.440   3.126   6.545
  323TIP3    H122528   3.345   3.126   6.535
  323TIP3    H222529   3.456   3.077   6.626
  324TIP3   OH222530   2.205   3.711   8.176
  324TIP3    H122531   2.122   3.742   8.142
  324TIP3    H222532   2.270   3.772   8.142
  325TIP3   OH222533   4.080   6.301   1.124
  325TIP3    H122534   4.034   6.358   1.185
  325TIP3    H222535   4.117   6.232   1.178
  326TIP3   OH222536   2.218   6.651   1.197
  326TIP3    H122537   2.310   6.655   1.222
  326TIP3    H222538   2.201   6.558   1.181
  327TIP3   OH222539   2.861   4.833   6.825
  327TIP3    H122540   2.818   4.906   6.868
  327TIP3    H222541   2.829   4.835   6.735
  328TIP3   OH222542   2.616   1.273   1.365
  328TIP3    H122543   2.692   1.323   1.335
  328TIP3    H222544   2.629   1.186   1.327
  329TIP3   OH222545   6.186   2.680   8.431
  329TIP3    H122546   6.170   2.768   8.465
  329TIP3    H222547   6.099   2.641   8.423
  330TIP3   OH222548   2.333   5.837   1.211
  330TIP3    H122549   2.339   5.744   1.231
  330TIP3    H222550   2.293   5.876   1.289
  331TIP3   OH222551   3.060   4.260   8.502
  331TIP3    H122552   3.061   4.303   8.417
  331TIP3    H222553   3.075   4.167   8.483
  332TIP3   OH222554   4.744   6.169   2.024
  332TIP3    H122555   4.755   6.074   2.016
  332TIP3    H222556   4.649   6.182   2.026
  333TIP3   OH222557   0.308   4.376   7.254
  333TIP3    H122558   0.386   4.392   7.201
  333TIP3    H222559   0.283   4.286   7.233
  334TIP3   OH222560   3.882   1.333   7.041
  334TIP3    H122561   3.902   1.240   7.051
  334TIP3    H222562   3.817   1.351   7.109
  335TIP3   OH222563   0.046   3.264   1.687
  335TIP3    H122564   0.131   3.297   1.658
  335TIP3    H222565   0.025   3.317   1.763
  336TIP3   OH222566   6.494   4.472   8.231
  336TIP3    H122567   6.457   4.389   8.260
  336TIP3    H222568   6.418   4.523   8.201
  337TIP3   OH222569   2.789   4.118   0.544
  337TIP3    H122570   2.762   4.155   0.460
  337TIP3    H222571   2.885   4.124   0.544
  338TIP3   OH222572   1.536   0.358   0.432
  338TIP3    H122573   1.524   0.263   0.441
  338TIP3    H222574   1.616   0.367   0.381
  339TIP3   OH222575   2.422   1.619   1.601
  339TIP3    H122576   2.375   1.546   1.641
  339TIP3    H222577   2.508   1.583   1.580
  340TIP3   OH222578   1.603   3.382   1.248
  340TIP3    H122579   1.619   3.295   1.286
  340TIP3    H222580   1.662   3.386   1.173
  341TIP3   OH222581   1.548   5.293   8.048
  341TIP3    H122582   1.640   5.275   8.028
  341TIP3    H222583   1.538   5.269   8.140
  342TIP3   OH222584   5.645   0.053   2.084
  342TIP3    H122585   5.700   0.011   2.017
  342TIP3    H222586   5.701   0.118   2.125
  343TIP3   OH222587   3.587   1.236   7.350
  343TIP3    H122588   3.501   1.197   7.364
  343TIP3    H222589   3.626   1.240   7.438
  344TIP3   OH222590   4.122   4.118   7.050
  344TIP3    H122591   4.112   4.079   6.963
  344TIP3    H222592   4.195   4.070   7.089
  345TIP3   OH222593   4.695   3.700   0.303
  345TIP3    H122594   4.637   3.763   0.347
  345TIP3    H222595   4.749   3.664   0.373
  346TIP3   OH222596   4.793   0.535   7.923
  346TIP3    H122597   4.784   0.629   7.938
  346TIP3    H222598   4.704   0.501   7.929
  347TIP3   OH222599   1.191   1.382   7.096
  347TIP3    H122600   1.258   1.335   7.145
  347TIP3    H222601   1.114   1.380   7.152
  348TIP3   OH222602   2.170   6.409   6.677
  348TIP3    H122603   2.166   6.490   6.627
  348TIP3    H222604   2.213   6.433   6.759
  349TIP3   OH222605   6.737   2.789   1.286
  349TIP3    H122606   6.805   2.722   1.288
  349TIP3    H222607   6.662   2.746   1.246
  350TIP3   OH222608   6.206   1.919   2.221
  350TIP3    H122609   6.215   1.963   2.305
  350TIP3    H222610   6.153   1.842   2.239
  351TIP3   OH222611   1.239   4.900   0.817
  351TIP3    H122612   1.185   4.835   0.771
  351TIP3    H222613   1.267   4.961   0.749
  352TIP3   OH222614   1.157   2.265   8.060
  352TIP3    H122615   1.082   2.298   8.011
  352TIP3    H222616   1.232   2.283   8.005
  353TIP3   OH222617   0.878   4.934   0.834
  353TIP3    H122618   0.798   4.964   0.876
  353TIP3    H222619   0.947   4.951   0.898
  354TIP3   OH222620   4.842   6.156   1.331
  354TIP3    H122621   4.854   6.073   1.376
  354TIP3    H222622   4.931   6.190   1.320
  355TIP3   OH222623   5.771   6.472   0.935
  355TIP3    H122624   5.808   6.388   0.909
  355TIP3    H222625   5.846   6.521   0.970
  356TIP3   OH222626   5.531   4.373   7.580
  356TIP3    H122627   5.498   4.286   7.603
  356TIP3    H222628   5.501   4.387   7.490
  357TIP3   OH222629   3.195   3.047   8.546
  357TIP3    H122630   3.290   3.042   8.533
  357TIP3    H222631   3.174   2.966   8.594
  358TIP3   OH222632   1.182   3.595   7.702
  358TIP3    H122633   1.091   3.618   7.718
  358TIP3    H222634   1.225   3.678   7.681
  359TIP3   OH222635   6.167   5.864   6.952
  359TIP3    H122636   6.140   5.936   6.896
  359TIP3    H222637   6.134   5.786   6.908
  360TIP3   OH222638   6.822   0.585   1.400
  360TIP3    H122639   6.747   0.555   1.349
  360TIP3    H222640   0.010   0.651   1.345
  361TIP3   OH222641   2.380   0.926   7.312
  361TIP3    H122642   2.336   0.884   7.238
  361TIP3    H222643   2.457   0.967   7.274
  362TIP3   OH222644   5.880   2.994   7.145
  362TIP3    H122645   5.973   3.015   7.138
  362TIP3    H222646   5.846   3.004   7.055
  363TIP3   OH222647   6.792   6.504   1.402
  363TIP3    H122648   6.784   6.541   1.314
  363TIP3    H222649   0.027   6.526   1.429
  364TIP3   OH222650   3.668   5.314   6.647
  364TIP3    H122651   3.685   5.303   6.553
  364TIP3    H222652   3.595   5.254   6.665
  365TIP3   OH222653   2.626   3.346   0.012
  365TIP3    H122654   2.538   3.375   8.712
  365TIP3    H222655   2.647   3.276   8.675
  366TIP3   OH222656   4.709   2.642   6.792
  366TIP3    H122657   4.658   2.564   6.814
  366TIP3    H222658   4.644   2.709   6.775
  367TIP3   OH222659   3.387   1.180   8.611
  367TIP3    H122660   3.460   1.181   8.549
  367TIP3    H222661   3.311   1.159   8.557
  368TIP3   OH222662   2.275   4.950   8.718
  368TIP3    H122663   2.242   4.998   8.642
  368TIP3    H222664   2.349   4.900   8.685
  369TIP3   OH222665   3.491   6.846   0.487
  369TIP3    H122666   3.419   6.800   0.530
  369TIP3    H222667   3.548   6.776   0.454
  370TIP3   OH222668   5.958   5.574   7.420
  370TIP3    H122669   6.051   5.557   7.437
  370TIP3    H222670   5.958   5.652   7.365
  371TIP3   OH222671   1.745   5.106   1.360
  371TIP3    H122672   1.795   5.186   1.373
  371TIP3    H222673   1.811   5.039   1.343
  372TIP3   OH222674   2.503   2.765   8.187
  372TIP3    H122675   2.523   2.681   8.146
  372TIP3    H222676   2.545   2.830   8.130
  373TIP3   OH222677   2.990   4.663   8.712
  373TIP3    H122678   3.008   4.570   8.702
  373TIP3    H222679   2.984   4.696   8.623
  374TIP3   OH222680   1.960   4.187   8.689
  374TIP3    H122681   2.039   4.239   8.702
  374TIP3    H222682   1.990   4.096   8.691
  375TIP3   OH222683   2.799   5.948   2.657
  375TIP3    H122684   2.725   5.947   2.718
  375TIP3    H222685   2.817   6.041   2.644
  376TIP3   OH222686   5.387   4.322   0.785
  376TIP3    H122687   5.355   4.357   0.868
  376TIP3    H222688   5.355   4.232   0.782
  377TIP3   OH222689   3.721   4.827   0.396
  377TIP3    H122690   3.634   4.795   0.375
  377TIP3    H222691   3.778   4.789   0.329
  378TIP3   OH222692   6.092   5.980   8.494
  378TIP3    H122693   6.088   6.075   8.493
  378TIP3    H222694   6.131   5.956   8.410
  379TIP3   OH222695   0.884   4.800   1.208
  379TIP3    H122696   0.872   4.781   1.302
  379TIP3    H222697   0.976   4.776   1.192
  380TIP3   OH222698   4.159   6.666   0.570
  380TIP3    H122699   4.078   6.668   0.621
  380TIP3    H222700   4.215   6.603   0.617
  381TIP3   OH222701   5.768   4.983   7.159
  381TIP3    H122702   5.798   5.025   7.079
  381TIP3    H222703   5.786   4.890   7.146
  382TIP3   OH222704   2.217   4.291   8.179
  382TIP3    H122705   2.167   4.312   8.258
  382TIP3    H222706   2.309   4.300   8.206
  383TIP3   OH222707   3.788   5.134   7.208
  383TIP3    H122708   3.876   5.171   7.217
  383TIP3    H222709   3.785   5.101   7.118
  384TIP3   OH222710   6.820   3.104   7.342
  384TIP3    H122711   6.789   3.124   7.254
  384TIP3    H222712   0.061   3.108   7.336
  385TIP3   OH222713   3.518   2.782   8.059
  385TIP3    H122714   3.496   2.865   8.102
  385TIP3    H222715   3.459   2.718   8.100
  386TIP3   OH222716   4.626   4.730   0.989
  386TIP3    H122717   4.573   4.757   0.914
  386TIP3    H222718   4.682   4.805   1.006
  387TIP3   OH222719   4.150   3.969   1.412
  387TIP3    H122720   4.162   3.967   1.507
  387TIP3    H222721   4.216   4.031   1.381
  388TIP3   OH222722   6.809   4.361   2.512
  388TIP3    H122723   0.013   4.437   2.514
  388TIP3    H222724   6.723   4.395   2.537
  389TIP3   OH222725   1.424   0.750   1.842
  389TIP3    H122726   1.329   0.760   1.850
  389TIP3    H222727   1.437   0.714   1.754
  390TIP3   OH222728   5.237   4.577   8.249
  390TIP3    H122729   5.310   4.559   8.308
  390TIP3    H222730   5.162   4.590   8.306
  391TIP3   OH222731   3.294   0.919   0.941
  391TIP3    H122732   3.295   1.015   0.937
  391TIP3    H222733   3.365   0.891   0.883
  392TIP3   OH222734   0.525   0.423   7.062
  392TIP3    H122735   0.521   0.440   6.968
  392TIP3    H222736   0.543   0.509   7.101
  393TIP3   OH222737   0.564   4.450   0.405
  393TIP3    H122738   0.627   4.509   0.363
  393TIP3    H222739   0.549   4.488   0.491
  394TIP3   OH222740   4.521   0.418   1.908
  394TIP3    H122741   4.533   0.377   1.822
  394TIP3    H222742   4.560   0.505   1.898
  395TIP3   OH222743   6.766   5.012   8.476
  395TIP3    H122744   6.738   4.965   8.554
  395TIP3    H222745   0.006   5.022   8.486
  396TIP3   OH222746   1.779   5.888   1.592
  396TIP3    H122747   1.755   5.936   1.513
  396TIP3    H222748   1.795   5.799   1.562
  397TIP3   OH222749   2.439   3.034   0.352
  397TIP3    H122750   2.346   3.049   0.334
  397TIP3    H222751   2.483   3.111   0.316
  398TIP3   OH222752   6.766   2.418   0.062
  398TIP3    H122753   6.759   2.508   0.031
  398TIP3    H222754   6.845   2.416   0.115
  399TIP3   OH222755   3.530   5.239   6.934
  399TIP3    H122756   3.472   5.315   6.926
  399TIP3    H222757   3.616   5.273   6.909
  400TIP3   OH222758   0.350   0.574   8.649
  400TIP3    H122759   0.438   0.607   8.666
  400TIP3    H222760   0.325   0.528   0.004
  401TIP3   OH222761   4.976   4.794   7.178
  401TIP3    H122762   4.961   4.825   7.089
  401TIP3    H222763   5.012   4.870   7.224
  402TIP3   OH222764   4.581   1.415   0.094
  402TIP3    H122765   4.616   1.358   0.026
  402TIP3    H222766   4.595   1.366   0.175
  403TIP3   OH222767   1.425   4.769   1.218
  403TIP3    H122768   1.466   4.759   1.132
  403TIP3    H222769   1.485   4.826   1.267
  404TIP3   OH222770   2.329   1.453   0.786
  404TIP3    H122771   2.400   1.494   0.836
  404TIP3    H222772   2.330   1.499   0.702
  405TIP3   OH222773   4.023   1.251   0.354
  405TIP3    H122774   3.951   1.310   0.328
  405TIP3    H222775   4.018   1.178   0.292
  406TIP3   OH222776   6.681   3.332   7.654
  406TIP3    H122777   6.763   3.372   7.683
  406TIP3    H222778   6.662   3.266   7.720
  407TIP3   OH222779   0.734   4.616   6.913
  407TIP3    H122780   0.772   4.529   6.927
  407TIP3    H222781   0.794   4.660   6.853
  408TIP3   OH222782   3.002   6.696   0.676
  408TIP3    H122783   2.940   6.726   0.743
  408TIP3    H222784   2.966   6.729   0.594
  409TIP3   OH222785   2.487   0.503   7.518
  409TIP3    H122786   2.572   0.489   7.558
  409TIP3    H222787   2.504   0.501   7.424
  410TIP3   OH222788   4.305   4.718   1.392
  410TIP3    H122789   4.336   4.666   1.466
  410TIP3    H222790   4.221   4.679   1.368
  411TIP3   OH222791   3.170   2.285   7.303
  411TIP3    H122792   3.119   2.206   7.320
  411TIP3    H222793   3.118   2.334   7.239
  412TIP3   OH222794   4.261   3.875   0.303
  412TIP3    H122795   4.225   3.823   0.375
  412TIP3    H222796   4.186   3.894   0.247
  413TIP3   OH222797   2.817   5.811   1.652
  413TIP3    H122798   2.889   5.872   1.638
  413TIP3    H222799   2.857   5.725   1.640
  414TIP3   OH222800   6.536   1.075   0.888
  414TIP3    H122801   6.604   1.042   0.946
  414TIP3    H222802   6.454   1.048   0.929
  415TIP3   OH222803   4.858   4.394   1.561
  415TIP3    H122804   4.881   4.459   1.495
  415TIP3    H222805   4.895   4.312   1.528
  416TIP3   OH222806   0.839   1.995   1.451
  416TIP3    H122807   0.926   1.977   1.417
  416TIP3    H222808   0.855   2.049   1.529
  417TIP3   OH222809   6.056   6.496   0.835
  417TIP3    H122810   5.996   6.560   0.799
  417TIP3    H222811   6.046   6.419   0.779
  418TIP3   OH222812   4.886   2.906   7.890
  418TIP3    H122813   4.903   2.816   7.918
  418TIP3    H222814   4.855   2.950   7.969
  419TIP3   OH222815   5.492   3.982   0.777
  419TIP3    H122816   5.555   4.014   0.712
  419TIP3    H222817   5.426   3.936   0.726
  420TIP3   OH222818   3.261   6.641   6.138
  420TIP3    H122819   3.209   6.678   6.067
  420TIP3    H222820   3.261   6.547   6.121
  421TIP3   OH222821   1.372   3.458   0.171
  421TIP3    H122822   1.468   3.464   0.174
  421TIP3    H222823   1.349   3.482   0.081
  422TIP3   OH222824   2.139   3.169   0.473
  422TIP3    H122825   2.215   3.203   0.521
  422TIP3    H222826   2.076   3.144   0.541
  423TIP3   OH222827   6.593   3.723   7.423
  423TIP3    H122828   6.580   3.776   7.344
  423TIP3    H222829   6.686   3.701   7.421
  424TIP3   OH222830   0.240   5.027   1.264
  424TIP3    H122831   0.222   4.935   1.244
  424TIP3    H222832   0.268   5.027   1.356
  425TIP3   OH222833   5.674   0.871   6.865
  425TIP3    H122834   5.604   0.840   6.922
  425TIP3    H222835   5.647   0.846   6.777
  426TIP3   OH222836   5.239   3.595   1.926
  426TIP3    H122837   5.288   3.514   1.907
  426TIP3    H222838   5.237   3.600   2.021
  427TIP3   OH222839   5.701   3.401   8.044
  427TIP3    H122840   5.755   3.328   8.013
  427TIP3    H222841   5.671   3.374   8.130
  428TIP3   OH222842   1.139   2.035   0.215
  428TIP3    H122843   1.072   1.968   0.200
  428TIP3    H222844   1.192   2.000   0.286
  429TIP3   OH222845   4.730   2.622   8.017
  429TIP3    H122846   4.694   2.704   7.983
  429TIP3    H222847   4.704   2.555   7.953
  430TIP3   OH222848   2.670   6.526   0.778
  430TIP3    H122849   2.632   6.515   0.866
  430TIP3    H222850   2.764   6.533   0.794
  431TIP3   OH222851   0.872   5.721   0.883
  431TIP3    H122852   0.922   5.802   0.886
  431TIP3    H222853   0.803   5.738   0.818
  432TIP3   OH222854   1.894   2.791   7.098
  432TIP3    H122855   1.985   2.821   7.104
  432TIP3    H222856   1.872   2.764   7.187
  433TIP3   OH222857   3.876   1.494   0.287
  433TIP3    H122858   3.940   1.536   0.345
  433TIP3    H222859   3.794   1.538   0.305
  434TIP3   OH222860   5.053   3.354   2.117
  434TIP3    H122861   4.965   3.384   2.140
  434TIP3    H222862   5.110   3.427   2.141
  435TIP3   OH222863   3.064   3.497   1.577
  435TIP3    H122864   3.152   3.460   1.586
  435TIP3    H222865   3.008   3.440   1.630
  436TIP3   OH222866   0.566   4.915   0.195
  436TIP3    H122867   0.610   4.999   0.184
  436TIP3    H222868   0.490   4.920   0.137
  437TIP3   OH222869   4.051   2.559   2.023
  437TIP3    H122870   4.069   2.645   1.985
  437TIP3    H222871   4.135   2.513   2.019
  438TIP3   OH222872   0.404   1.990   0.498
  438TIP3    H122873   0.319   2.024   0.524
  438TIP3    H222874   0.466   2.031   0.559
  439TIP3   OH222875   1.958   1.923   0.366
  439TIP3    H122876   1.997   1.969   0.440
  439TIP3    H222877   1.966   1.985   0.293
  440TIP3   OH222878   2.193   2.702   0.094
  440TIP3    H122879   2.249   2.773   0.065
  440TIP3    H222880   2.247   2.623   0.084
  441TIP3   OH222881   1.721   2.631   6.285
  441TIP3    H122882   1.631   2.604   6.270
  441TIP3    H222883   1.756   2.567   6.346
  442TIP3   OH222884   3.101   5.366   1.694
  442TIP3    H122885   3.149   5.419   1.630
  442TIP3    H222886   3.037   5.318   1.641
  443TIP3   OH222887   3.356   3.980   8.091
  443TIP3    H122888   3.381   4.050   8.030
  443TIP3    H222889   3.266   3.959   8.067
  444TIP3   OH222890   2.297   6.258   1.817
  444TIP3    H122891   2.296   6.311   1.896
  444TIP3    H222892   2.388   6.259   1.788
  445TIP3   OH222893   0.475   0.481   8.151
  445TIP3    H122894   0.479   0.386   8.138
  445TIP3    H222895   0.418   0.492   8.228
  446TIP3   OH222896   6.512   2.055   0.765
  446TIP3    H122897   6.426   2.089   0.790
  446TIP3    H222898   6.524   2.083   0.675
  447TIP3   OH222899   0.728   6.479   1.271
  447TIP3    H122900   0.684   6.399   1.300
  447TIP3    H222901   0.756   6.521   1.352
  448TIP3   OH222902   6.575   5.111   1.757
  448TIP3    H122903   6.610   5.145   1.839
  448TIP3    H222904   6.569   5.187   1.699
  449TIP3   OH222905   0.545   5.671   0.068
  449TIP3    H122906   0.619   5.724   0.097
  449TIP3    H222907   0.483   5.675   0.141
  450TIP3   OH222908   2.392   0.099   0.721
  450TIP3    H122909   2.351   0.054   0.648
  450TIP3    H222910   2.458   0.038   0.753
  451TIP3   OH222911   0.214   0.730   0.714
  451TIP3    H122912   0.295   0.693   0.680
  451TIP3    H222913   0.153   0.656   0.718
  452TIP3   OH222914   1.070   4.537   0.236
  452TIP3    H122915   1.083   4.442   0.224
  452TIP3    H222916   1.119   4.576   0.163
  453TIP3   OH222917   0.680   1.697   8.059
  453TIP3    H122918   0.706   1.773   8.006
  453TIP3    H222919   0.641   1.736   8.138
  454TIP3   OH222920   1.427   4.131   0.973
  454TIP3    H122921   1.410   4.146   0.880
  454TIP3    H222922   1.430   4.036   0.982
  455TIP3   OH222923   2.847   6.849   6.871
  455TIP3    H122924   2.854   6.799   6.953
  455TIP3    H222925   2.896   0.075   6.889
  456TIP3   OH222926   3.158   0.495   0.557
  456TIP3    H122927   3.070   0.460   0.569
  456TIP3    H222928   3.191   0.451   0.479
  457TIP3   OH222929   5.228   2.453   7.153
  457TIP3    H122930   5.272   2.382   7.106
  457TIP3    H222931   5.299   2.499   7.198
  458TIP3   OH222932   0.271   6.532   1.423
  458TIP3    H122933   0.230   6.505   1.341
  458TIP3    H222934   0.348   6.582   1.395
  459TIP3   OH222935   1.775   5.895   6.897
  459TIP3    H122936   1.732   5.873   6.814
  459TIP3    H222937   1.761   5.989   6.907
  460TIP3   OH222938   3.589   4.514   0.252
  460TIP3    H122939   3.671   4.471   0.227
  460TIP3    H222940   3.576   4.488   0.343
  461TIP3   OH222941   1.702   5.973   7.306
  461TIP3    H122942   1.782   6.007   7.266
  461TIP3    H222943   1.632   5.998   7.245
  462TIP3   OH222944   4.175   2.819   2.396
  462TIP3    H122945   4.129   2.740   2.369
  462TIP3    H222946   4.248   2.788   2.450
  463TIP3   OH222947   1.396   2.071   7.114
  463TIP3    H122948   1.332   2.142   7.117
  463TIP3    H222949   1.350   1.999   7.071
  464TIP3   OH222950   4.431   5.908   0.736
  464TIP3    H122951   4.505   5.848   0.745
  464TIP3    H222952   4.411   5.908   0.643
  465TIP3   OH222953   3.094   3.084   7.160
  465TIP3    H122954   3.161   3.017   7.148
  465TIP3    H222955   3.125   3.137   7.233
  466TIP3   OH222956   3.599   3.759   0.482
  466TIP3    H122957   3.685   3.801   0.478
  466TIP3    H222958   3.565   3.767   0.393
  467TIP3   OH222959   0.124   4.276   1.392
  467TIP3    H122960   0.132   4.367   1.363
  467TIP3    H222961   0.057   4.279   1.460
  468TIP3   OH222962   1.718   0.066   0.252
  468TIP3    H122963   1.731   0.120   0.330
  468TIP3    H222964   1.623   0.052   0.248
  469TIP3   OH222965   6.427   5.607   0.648
  469TIP3    H122966   6.443   5.568   0.562
  469TIP3    H222967   6.375   5.541   0.694
  470TIP3   OH222968   5.510   3.192   7.338
  470TIP3    H122969   5.576   3.130   7.369
  470TIP3    H222970   5.555   3.276   7.338
  471TIP3   OH222971   6.616   3.196   0.943
  471TIP3    H122972   6.598   3.176   0.851
  471TIP3    H222973   6.656   3.116   0.977
  472TIP3   OH222974   2.156   6.197   2.078
  472TIP3    H122975   2.118   6.124   2.029
  472TIP3    H222976   2.250   6.180   2.078
  473TIP3   OH222977   4.905   3.472   1.247
  473TIP3    H122978   4.970   3.506   1.308
  473TIP3    H222979   4.864   3.550   1.210
  474TIP3   OH222980   0.353   5.339   7.290
  474TIP3    H122981   0.295   5.271   7.325
  474TIP3    H222982   0.441   5.307   7.308
  475TIP3   OH222983   6.521   3.038   0.089
  475TIP3    H122984   6.528   3.020   0.183
  475TIP3    H222985   6.428   3.033   0.070
  476TIP3   OH222986   5.621   3.448   6.365
  476TIP3    H122987   5.677   3.402   6.302
  476TIP3    H222988   5.682   3.499   6.419
  477TIP3   OH222989   2.928   4.582   0.414
  477TIP3    H122990   2.923   4.540   0.328
  477TIP3    H222991   2.967   4.516   0.471
  478TIP3   OH222992   3.545   6.171   8.105
  478TIP3    H122993   3.500   6.247   8.141
  478TIP3    H222994   3.486   6.098   8.122
  479TIP3   OH222995   4.769   6.753   7.823
  479TIP3    H122996   4.712   6.677   7.836
  479TIP3    H222997   4.782   6.789   7.911
  480TIP3   OH222998   0.738   1.172   1.731
  480TIP3    H122999   0.802   1.243   1.728
  480TIP3    H223000   0.721   1.152   1.639
  481TIP3   OH223001   5.427   4.862   7.596
  481TIP3    H123002   5.362   4.904   7.653
  481TIP3    H223003   5.460   4.789   7.649
  482TIP3   OH223004   3.502   5.183   8.110
  482TIP3    H123005   3.541   5.198   8.024
  482TIP3    H223006   3.527   5.260   8.162
  483TIP3   OH223007   4.480   1.485   8.379
  483TIP3    H123008   4.459   1.552   8.444
  483TIP3    H223009   4.404   1.483   8.321
  484TIP3   OH223010   6.371   3.884   1.562
  484TIP3    H123011   6.305   3.907   1.627
  484TIP3    H223012   6.433   3.829   1.610
  485TIP3   OH223013   2.108   0.051   0.339
  485TIP3    H123014   2.185   0.073   0.287
  485TIP3    H223015   2.035   0.050   0.277
  486TIP3   OH223016   0.874   5.436   0.937
  486TIP3    H123017   0.814   5.422   1.010
  486TIP3    H223018   0.874   5.531   0.925
  487TIP3   OH223019   0.270   1.215   8.073
  487TIP3    H123020   0.313   1.200   8.157
  487TIP3    H223021   0.253   1.309   8.071
  488TIP3   OH223022   0.923   6.813   0.750
  488TIP3    H123023   0.989   6.848   0.810
  488TIP3    H223024   0.839   6.830   0.793
  489TIP3   OH223025   1.923   1.306   0.015
  489TIP3    H123026   1.898   1.214   0.026
  489TIP3    H223027   1.874   1.335   8.665
  490TIP3   OH223028   2.627   2.511   8.130
  490TIP3    H123029   2.616   2.524   8.224
  490TIP3    H223030   2.580   2.429   8.112
  491TIP3   OH223031   5.718   5.211   2.205
  491TIP3    H123032   5.710   5.295   2.250
  491TIP3    H223033   5.788   5.166   2.252
  492TIP3   OH223034   1.607   0.076   8.643
  492TIP3    H123035   1.653   0.160   8.636
  492TIP3    H223036   1.519   0.099   8.674
  493TIP3   OH223037   0.257   2.438   1.626
  493TIP3    H123038   0.230   2.349   1.650
  493TIP3    H223039   0.192   2.494   1.667
  494TIP3   OH223040   6.022   0.177   1.572
  494TIP3    H123041   5.939   0.194   1.617
  494TIP3    H223042   6.084   0.239   1.610
  495TIP3   OH223043   0.834   0.227   7.744
  495TIP3    H123044   0.879   0.270   7.672
  495TIP3    H223045   0.900   0.222   7.814
  496TIP3   OH223046   0.526   5.840   7.893
  496TIP3    H123047   0.503   5.828   7.986
  496TIP3    H223048   0.556   5.754   7.865
  497TIP3   OH223049   1.025   4.338   8.401
  497TIP3    H123050   1.076   4.356   8.480
  497TIP3    H223051   0.994   4.423   8.372
  498TIP3   OH223052   4.793   3.668   7.434
  498TIP3    H123053   4.830   3.755   7.446
  498TIP3    H223054   4.804   3.626   7.520
  499TIP3   OH223055   5.056   5.786   0.068
  499TIP3    H123056   5.147   5.777   0.041
  499TIP3    H223057   5.006   5.766   8.714
  500TIP3   OH223058   5.723   0.101   6.955
  500TIP3    H123059   5.685   0.044   6.888
  500TIP3    H223060   5.678   0.184   6.943
  501TIP3   OH223061   0.712   5.755   7.602
  501TIP3    H123062   0.726   5.789   7.514
  501TIP3    H223063   0.701   5.833   7.656
  502TIP3   OH223064   0.323   6.099   0.543
  502TIP3    H123065   0.397   6.045   0.569
  502TIP3    H223066   0.360   6.162   0.481
  503TIP3   OH223067   0.223   4.886   0.582
  503TIP3    H123068   0.250   4.957   0.640
  503TIP3    H223069   0.291   4.885   0.514
  504TIP3   OH223070   3.855   2.083   7.857
  504TIP3    H123071   3.925   2.148   7.855
  504TIP3    H223072   3.827   2.076   7.765
  505TIP3   OH223073   4.065   6.125   0.763
  505TIP3    H123074   4.101   6.102   0.677
  505TIP3    H223075   4.116   6.073   0.825
  506TIP3   OH223076   3.322   0.376   8.423
  506TIP3    H123077   3.252   0.363   8.487
  506TIP3    H223078   3.276   0.402   8.343
  507TIP3   OH223079   3.230   3.623   8.168
  507TIP3    H123080   3.233   3.528   8.152
  507TIP3    H223081   3.309   3.657   8.128
  508TIP3   OH223082   3.923   1.179   1.963
  508TIP3    H123083   3.966   1.173   2.049
  508TIP3    H223084   3.840   1.223   1.981
  509TIP3   OH223085   0.903   1.711   1.571
  509TIP3    H123086   0.922   1.799   1.540
  509TIP3    H223087   0.986   1.664   1.565
  510TIP3   OH223088   3.831   5.977   6.776
  510TIP3    H123089   3.772   5.924   6.723
  510TIP3    H223090   3.897   6.009   6.714
  511TIP3   OH223091   6.822   3.544   8.445
  511TIP3    H123092   6.774   3.618   8.409
  511TIP3    H223093   6.789   3.534   8.534
  512TIP3   OH223094   5.618   2.497   6.996
  512TIP3    H123095   5.580   2.410   7.009
  512TIP3    H223096   5.608   2.541   7.080
  513TIP3   OH223097   4.613   4.137   0.439
  513TIP3    H123098   4.700   4.179   0.436
  513TIP3    H223099   4.569   4.180   0.513
  514TIP3   OH223100   6.852   6.366   8.491
  514TIP3    H123101   6.819   6.311   8.563
  514TIP3    H223102   0.071   6.415   8.530
  515TIP3   OH223103   0.562   6.703   2.550
  515TIP3    H123104   0.474   6.685   2.519
  515TIP3    H223105   0.558   6.791   2.587
  516TIP3   OH223106   4.695   6.347   0.682
  516TIP3    H123107   4.630   6.323   0.615
  516TIP3    H223108   4.643   6.367   0.760
  517TIP3   OH223109   4.576   0.374   7.130
  517TIP3    H123110   4.632   0.296   7.127
  517TIP3    H223111   4.606   0.428   7.056
  518TIP3   OH223112   1.790   4.093   1.581
  518TIP3    H123113   1.707   4.129   1.612
  518TIP3    H223114   1.857   4.152   1.616
  519TIP3   OH223115   4.161   0.252   1.461
  519TIP3    H123116   4.198   0.319   1.404
  519TIP3    H223117   4.150   0.175   1.405
  520TIP3   OH223118   4.374   3.634   2.212
  520TIP3    H123119   4.278   3.629   2.212
  520TIP3    H223120   4.396   3.660   2.122
  521TIP3   OH223121   2.493   4.340   1.920
  521TIP3    H123122   2.412   4.358   1.870
  521TIP3    H223123   2.463   4.291   1.996
  522TIP3   OH223124   3.573   5.741   2.048
  522TIP3    H123125   3.624   5.681   1.994
  522TIP3    H223126   3.600   5.722   2.138
  523TIP3   OH223127   0.000   0.366   8.606
  523TIP3    H123128   6.829   0.373   8.699
  523TIP3    H223129   0.083   0.414   8.600
  524TIP3   OH223130   0.396   2.666   6.682
  524TIP3    H123131   0.451   2.653   6.605
  524TIP3    H223132   0.426   2.749   6.720
  525TIP3   OH223133   6.073   1.413   2.271
  525TIP3    H123134   6.065   1.376   2.183
  525TIP3    H223135   6.067   1.338   2.330
  526TIP3   OH223136   3.537   2.302   1.806
  526TIP3    H123137   3.586   2.357   1.866
  526TIP3    H223138   3.534   2.216   1.849
  527TIP3   OH223139   6.590   4.863   0.431
  527TIP3    H123140   6.512   4.819   0.465
  527TIP3    H223141   6.557   4.934   0.378
  528TIP3   OH223142   4.451   6.167   6.904
  528TIP3    H123143   4.520   6.158   6.838
  528TIP3    H223144   4.499   6.180   6.986
  529TIP3   OH223145   1.103   5.835   8.596
  529TIP3    H123146   1.082   5.865   8.508
  529TIP3    H223147   1.033   5.774   8.619
  530TIP3   OH223148   6.513   6.803   1.771
  530TIP3    H123149   6.488   6.740   1.703
  530TIP3    H223150   6.602   6.779   1.794
  531TIP3   OH223151   6.129   3.235   8.527
  531TIP3    H123152   6.039   3.244   8.560
  531TIP3    H223153   6.144   3.313   8.475
  532TIP3   OH223154   2.428   4.229   6.194
  532TIP3    H123155   2.392   4.163   6.253
  532TIP3    H223156   2.472   4.292   6.251
  533TIP3   OH223157   0.403   4.398   1.744
  533TIP3    H123158   0.330   4.339   1.759
  533TIP3    H223159   0.463   4.349   1.688
  534TIP3   OH223160   5.352   3.840   0.584
  534TIP3    H123161   5.316   3.751   0.593
  534TIP3    H223162   5.383   3.844   0.494
  535TIP3   OH223163   5.394   2.249   8.701
  535TIP3    H123164   5.420   2.208   8.618
  535TIP3    H223165   5.386   2.175   0.036
  536TIP3   OH223166   5.321   2.813   1.721
  536TIP3    H123167   5.285   2.864   1.648
  536TIP3    H223168   5.246   2.765   1.756
  537TIP3   OH223169   0.743   2.955   8.292
  537TIP3    H123170   0.701   3.029   8.335
  537TIP3    H223171   0.793   2.993   8.221
  538TIP3   OH223172   2.109   0.687   1.921
  538TIP3    H123173   2.184   0.730   1.963
  538TIP3    H223174   2.042   0.684   1.990
  539TIP3   OH223175   5.572   5.894   2.530
  539TIP3    H123176   5.572   5.845   2.613
  539TIP3    H223177   5.663   5.894   2.502
  540TIP3   OH223178   2.272   5.800   6.322
  540TIP3    H123179   2.289   5.708   6.340
  540TIP3    H223180   2.177   5.810   6.328
  541TIP3   OH223181   2.706   2.707   7.211
  541TIP3    H123182   2.766   2.772   7.248
  541TIP3    H223183   2.642   2.690   7.281
  542TIP3   OH223184   5.561   0.520   1.912
  542TIP3    H123185   5.607   0.502   1.994
  542TIP3    H223186   5.518   0.438   1.890
  543TIP3   OH223187   1.179   2.580   1.825
  543TIP3    H123188   1.126   2.630   1.763
  543TIP3    H223189   1.269   2.604   1.804
  544TIP3   OH223190   1.067   0.524   0.820
  544TIP3    H123191   0.989   0.468   0.812
  544TIP3    H223192   1.040   0.594   0.880
  545TIP3   OH223193   0.420   4.872   8.070
  545TIP3    H123194   0.424   4.819   7.991
  545TIP3    H223195   0.511   4.895   8.089
  546TIP3   OH223196   0.893   4.418   0.030
  546TIP3    H123197   0.873   4.502   0.072
  546TIP3    H223198   0.979   4.431   8.716
  547TIP3   OH223199   3.879   5.682   0.401
  547TIP3    H123200   3.924   5.755   0.358
  547TIP3    H223201   3.811   5.656   0.339
  548TIP3   OH223202   5.068   5.455   1.436
  548TIP3    H123203   5.134   5.396   1.401
  548TIP3    H223204   4.986   5.405   1.432
  549TIP3   OH223205   0.304   3.204   6.866
  549TIP3    H123206   0.292   3.111   6.887
  549TIP3    H223207   0.312   3.205   6.770
  550TIP3   OH223208   5.320   5.197   7.842
  550TIP3    H123209   5.231   5.188   7.809
  550TIP3    H223210   5.368   5.126   7.799
  551TIP3   OH223211   6.052   0.806   7.100
  551TIP3    H123212   6.002   0.776   7.176
  551TIP3    H223213   6.141   0.816   7.132
  552TIP3   OH223214   0.398   5.188   7.672
  552TIP3    H123215   0.356   5.144   7.747
  552TIP3    H223216   0.329   5.244   7.636
  553TIP3   OH223217   0.414   2.950   6.849
  553TIP3    H123218   0.443   2.950   6.758
  553TIP3    H223219   0.347   2.881   6.853
  554TIP3   OH223220   3.173   6.663   1.506
  554TIP3    H123221   3.164   6.756   1.526
  554TIP3    H223222   3.268   6.648   1.503
  555TIP3   OH223223   4.108   5.532   8.716
  555TIP3    H123224   4.185   5.547   0.045
  555TIP3    H223225   4.052   5.475   0.042
  556TIP3   OH223226   4.053   5.181   8.043
  556TIP3    H123227   3.972   5.221   8.074
  556TIP3    H223228   4.106   5.254   8.013
  557TIP3   OH223229   5.867   0.934   7.736
  557TIP3    H123230   5.814   0.859   7.764
  557TIP3    H223231   5.946   0.928   7.789
  558TIP3   OH223232   2.899   6.084   1.340
  558TIP3    H123233   2.981   6.134   1.337
  558TIP3    H223234   2.926   5.993   1.353
  559TIP3   OH223235   3.143   3.725   0.805
  559TIP3    H123236   3.096   3.798   0.846
  559TIP3    H223237   3.224   3.717   0.856
  560TIP3   OH223238   5.691   6.115   6.951
  560TIP3    H123239   5.757   6.060   6.909
  560TIP3    H223240   5.652   6.165   6.879
  561TIP3   OH223241   6.546   6.589   1.588
  561TIP3    H123242   6.627   6.552   1.554
  561TIP3    H223243   6.491   6.513   1.610
  562TIP3   OH223244   2.333   2.165   0.413
  562TIP3    H123245   2.244   2.162   0.449
  562TIP3    H223246   2.376   2.234   0.463
  563TIP3   OH223247   1.364   3.526   7.297
  563TIP3    H123248   1.319   3.488   7.221
  563TIP3    H223249   1.447   3.478   7.302
  564TIP3   OH223250   1.508   1.072   0.307
  564TIP3    H123251   1.509   1.029   0.392
  564TIP3    H223252   1.501   1.165   0.327
  565TIP3   OH223253   6.435   0.111   7.865
  565TIP3    H123254   6.478   0.032   7.899
  565TIP3    H223255   6.448   0.106   7.770
  566TIP3   OH223256   3.817   3.647   0.957
  566TIP3    H123257   3.733   3.691   0.971
  566TIP3    H223258   3.877   3.716   0.930
  567TIP3   OH223259   4.639   3.252   1.960
  567TIP3    H123260   4.643   3.229   1.868
  567TIP3    H223261   4.725   3.227   1.995
  568TIP3   OH223262   2.739   2.690   2.479
  568TIP3    H123263   2.706   2.621   2.537
  568TIP3    H223264   2.664   2.749   2.467
  569TIP3   OH223265   1.212   5.444   6.787
  569TIP3    H123266   1.136   5.503   6.788
  569TIP3    H223267   1.183   5.369   6.839
  570TIP3   OH223268   2.574   5.520   0.237
  570TIP3    H123269   2.493   5.493   0.195
  570TIP3    H223270   2.562   5.614   0.254
  571TIP3   OH223271   0.868   5.401   8.624
  571TIP3    H123272   0.781   5.362   8.614
  571TIP3    H223273   0.923   5.330   8.656
  572TIP3   OH223274   3.624   6.795   6.336
  572TIP3    H123275   3.587   6.789   6.424
  572TIP3    H223276   3.548   6.801   6.278
  573TIP3   OH223277   2.512   2.696   8.619
  573TIP3    H123278   2.538   2.733   8.703
  573TIP3    H223279   2.454   2.761   8.581
  574TIP3   OH223280   1.170   5.558   7.206
  574TIP3    H123281   1.257   5.585   7.235
  574TIP3    H223282   1.164   5.590   7.116
  575TIP3   OH223283   0.158   3.958   2.500
  575TIP3    H123284   0.241   3.949   2.454
  575TIP3    H223285   0.169   4.037   2.553
  576TIP3   OH223286   2.537   0.188   8.393
  576TIP3    H123287   2.557   0.278   8.370
  576TIP3    H223288   2.450   0.172   8.356
  577TIP3   OH223289   3.921   3.151   8.336
  577TIP3    H123290   3.835   3.187   8.315
  577TIP3    H223291   3.945   3.101   8.258
  578TIP3   OH223292   4.992   4.876   0.492
  578TIP3    H123293   5.048   4.810   0.533
  578TIP3    H223294   4.993   4.855   0.399
  579TIP3   OH223295   2.038   0.462   8.675
  579TIP3    H123296   2.082   0.416   8.603
  579TIP3    H223297   2.053   0.555   8.656
  580TIP3   OH223298   0.494   4.740   7.274
  580TIP3    H123299   0.561   4.803   7.246
  580TIP3    H223300   0.464   4.699   7.192
  581TIP3   OH223301   3.894   1.256   0.914
  581TIP3    H123302   3.828   1.210   0.862
  581TIP3    H223303   3.932   1.320   0.854
  582TIP3   OH223304   0.389   5.750   6.587
  582TIP3    H123305   0.406   5.660   6.559
  582TIP3    H223306   0.339   5.789   6.516
  583TIP3   OH223307   4.538   3.607   7.836
  583TIP3    H123308   4.476   3.549   7.792
  583TIP3    H223309   4.606   3.549   7.869
  584TIP3   OH223310   3.976   5.940   1.475
  584TIP3    H123311   3.915   5.868   1.458
  584TIP3    H223312   3.946   6.011   1.419
  585TIP3   OH223313   6.639   3.748   0.284
  585TIP3    H123314   6.700   3.728   0.213
  585TIP3    H223315   6.600   3.832   0.261
  586TIP3   OH223316   0.289   5.827   7.701
  586TIP3    H123317   0.307   5.912   7.741
  586TIP3    H223318   0.374   5.785   7.693
  587TIP3   OH223319   3.969   3.895   7.395
  587TIP3    H123320   4.028   3.960   7.434
  587TIP3    H223321   3.913   3.866   7.467
  588TIP3   OH223322   4.380   4.666   0.402
  588TIP3    H123323   4.354   4.642   0.491
  588TIP3    H223324   4.359   4.588   0.350
  589TIP3   OH223325   1.455   1.547   1.265
  589TIP3    H123326   1.367   1.511   1.258
  589TIP3    H223327   1.503   1.506   1.193
  590TIP3   OH223328   5.838   1.490   7.963
  590TIP3    H123329   5.838   1.434   8.041
  590TIP3    H223330   5.746   1.500   7.940
  591TIP3   OH223331   2.381   5.147   0.867
  591TIP3    H123332   2.344   5.222   0.914
  591TIP3    H223333   2.457   5.182   0.821
  592TIP3   OH223334   6.127   5.630   1.168
  592TIP3    H123335   6.068   5.704   1.181
  592TIP3    H223336   6.094   5.562   1.226
  593TIP3   OH223337   4.244   0.131   0.148
  593TIP3    H123338   4.209   0.063   0.205
  593TIP3    H223339   4.171   0.154   0.091
  594TIP3   OH223340   6.531   6.385   7.668
  594TIP3    H123341   6.620   6.358   7.693
  594TIP3    H223342   6.500   6.315   7.611
  595TIP3   OH223343   5.649   6.573   1.349
  595TIP3    H123344   5.647   6.640   1.417
  595TIP3    H223345   5.711   6.508   1.382
  596TIP3   OH223346   2.185   6.665   0.032
  596TIP3    H123347   2.114   6.728   0.021
  596TIP3    H223348   2.195   6.625   8.672
  597TIP3   OH223349   6.725   3.545   6.686
  597TIP3    H123350   6.646   3.586   6.651
  597TIP3    H223351   6.729   3.459   6.642
  598TIP3   OH223352   1.403   1.565   7.306
  598TIP3    H123353   1.359   1.575   7.390
  598TIP3    H223354   1.361   1.489   7.265
  599TIP3   OH223355   6.182   4.018   8.134
  599TIP3    H123356   6.216   3.977   8.054
  599TIP3    H223357   6.201   4.112   8.122
  600TIP3   OH223358   0.237   0.773   7.558
  600TIP3    H123359   0.215   0.693   7.510
  600TIP3    H223360   0.227   0.843   7.493
  601TIP3   OH223361   0.797   3.714   0.198
  601TIP3    H123362   0.713   3.753   0.176
  601TIP3    H223363   0.777   3.622   0.215
  602TIP3   OH223364   4.274   0.759   0.474
  602TIP3    H123365   4.302   0.843   0.437
  602TIP3    H223366   4.266   0.776   0.568
  603TIP3   OH223367   3.178   2.898   1.115
  603TIP3    H123368   3.181   2.843   1.193
  603TIP3    H223369   3.198   2.839   1.043
  604TIP3   OH223370   3.104   1.099   1.801
  604TIP3    H123371   3.091   1.020   1.748
  604TIP3    H223372   3.196   1.094   1.827
  605TIP3   OH223373   1.453   2.592   1.747
  605TIP3    H123374   1.459   2.621   1.656
  605TIP3    H223375   1.518   2.521   1.753
  606TIP3   OH223376   3.524   4.879   0.967
  606TIP3    H123377   3.462   4.925   0.911
  606TIP3    H223378   3.606   4.879   0.916
  607TIP3   OH223379   2.892   5.159   1.039
  607TIP3    H123380   2.870   5.105   0.963
  607TIP3    H223381   2.988   5.159   1.041
  608TIP3   OH223382   0.109   1.636   0.228
  608TIP3    H123383   0.067   1.712   0.189
  608TIP3    H223384   0.130   1.579   0.155
  609TIP3   OH223385   2.833   2.958   0.080
  609TIP3    H123386   2.753   2.931   0.124
  609TIP3    H223387   2.851   3.046   0.114
  610TIP3   OH223388   1.176   0.939   8.053
  610TIP3    H123389   1.204   0.902   8.137
  610TIP3    H223390   1.252   0.929   7.996
  611TIP3   OH223391   6.387   4.573   0.813
  611TIP3    H123392   6.461   4.608   0.862
  611TIP3    H223393   6.325   4.543   0.880
  612TIP3   OH223394   6.476   0.835   1.863
  612TIP3    H123395   6.382   0.850   1.869
  612TIP3    H223396   6.490   0.804   1.773
  613TIP3   OH223397   2.685   3.871   0.179
  613TIP3    H123398   2.614   3.936   0.173
  613TIP3    H223399   2.690   3.833   0.092
  614TIP3   OH223400   1.960   1.234   7.537
  614TIP3    H123401   1.944   1.263   7.448
  614TIP3    H223402   2.004   1.150   7.527
  615TIP3   OH223403   4.239   0.416   1.259
  615TIP3    H123404   4.294   0.402   1.182
  615TIP3    H223405   4.211   0.508   1.251
  616TIP3   OH223406   5.581   1.188   0.482
  616TIP3    H123407   5.537   1.130   0.545
  616TIP3    H223408   5.529   1.268   0.483
  617TIP3   OH223409   5.071   3.575   8.368
  617TIP3    H123410   5.095   3.501   8.424
  617TIP3    H223411   5.148   3.590   8.313
  618TIP3   OH223412   1.828   4.749   0.051
  618TIP3    H123413   1.743   4.765   0.091
  618TIP3    H223414   1.886   4.815   0.089
  619TIP3   OH223415   0.114   4.576   1.803
  619TIP3    H123416   0.072   4.547   1.883
  619TIP3    H223417   0.190   4.519   1.792
  620TIP3   OH223418   5.229   3.984   6.419
  620TIP3    H123419   5.274   4.059   6.382
  620TIP3    H223420   5.254   3.910   6.363
  621TIP3   OH223421   6.269   3.206   0.679
  621TIP3    H123422   6.311   3.203   0.766
  621TIP3    H223423   6.178   3.184   0.696
  622TIP3   OH223424   6.515   0.832   8.062
  622TIP3    H123425   6.472   0.898   8.007
  622TIP3    H223426   6.495   0.749   8.018
  623TIP3   OH223427   2.014   3.373   1.325
  623TIP3    H123428   2.108   3.392   1.333
  623TIP3    H223429   1.972   3.459   1.328
  624TIP3   OH223430   5.713   0.720   7.782
  624TIP3    H123431   5.765   0.649   7.745
  624TIP3    H223432   5.625   0.683   7.793
  625TIP3   OH223433   0.217   0.935   0.069
  625TIP3    H123434   0.287   1.000   0.073
  625TIP3    H223435   0.223   0.898   8.706
  626TIP3   OH223436   3.343   5.777   0.156
  626TIP3    H123437   3.368   5.869   0.154
  626TIP3    H223438   3.319   5.761   0.247
  627TIP3   OH223439   3.749   5.906   0.552
  627TIP3    H123440   3.756   5.915   0.647
  627TIP3    H223441   3.756   5.811   0.536
  628TIP3   OH223442   6.359   4.170   1.601
  628TIP3    H123443   6.406   4.088   1.586
  628TIP3    H223444   6.294   4.148   1.668
  629TIP3   OH223445   6.555   0.800   1.307
  629TIP3    H123446   6.613   0.848   1.247
  629TIP3    H223447   6.589   0.711   1.306
  630TIP3   OH223448   3.582   0.542   6.473
  630TIP3    H123449   3.494   0.571   6.449
  630TIP3    H223450   3.632   0.623   6.482
  631TIP3   OH223451   5.086   3.659   7.207
  631TIP3    H123452   5.037   3.576   7.207
  631TIP3    H223453   5.048   3.709   7.135
  632TIP3   OH223454   3.162   1.397   7.018
  632TIP3    H123455   3.139   1.471   7.074
  632TIP3    H223456   3.200   1.437   6.940
  633TIP3   OH223457   2.097   1.557   0.935
  633TIP3    H123458   2.162   1.504   0.889
  633TIP3    H223459   2.133   1.570   1.023
  634TIP3   OH223460   5.386   6.479   1.376
  634TIP3    H123461   5.475   6.501   1.348
  634TIP3    H223462   5.397   6.404   1.435
  635TIP3   OH223463   2.993   5.195   0.672
  635TIP3    H123464   3.019   5.207   0.581
  635TIP3    H223465   2.946   5.276   0.694
  636TIP3   OH223466   6.792   6.115   1.840
  636TIP3    H123467   0.002   6.104   1.910
  636TIP3    H223468   6.763   6.027   1.820
  637TIP3   OH223469   5.330   3.289   0.317
  637TIP3    H123470   5.309   3.278   0.410
  637TIP3    H223471   5.276   3.225   0.272
  638TIP3   OH223472   4.745   0.032   0.377
  638TIP3    H123473   4.680   0.063   0.314
  638TIP3    H223474   4.807   6.836   0.325
  639TIP3   OH223475   3.959   0.950   0.896
  639TIP3    H123476   3.932   1.035   0.932
  639TIP3    H223477   3.882   0.921   0.846
  640TIP3   OH223478   5.387   0.399   7.212
  640TIP3    H123479   5.423   0.461   7.148
  640TIP3    H223480   5.302   0.435   7.234
  641TIP3   OH223481   1.414   2.442   0.808
  641TIP3    H123482   1.494   2.484   0.839
  641TIP3    H223483   1.348   2.512   0.811
  642TIP3   OH223484   3.815   4.216   1.560
  642TIP3    H123485   3.730   4.248   1.592
  642TIP3    H223486   3.851   4.166   1.633
  643TIP3   OH223487   1.146   5.199   0.625
  643TIP3    H123488   1.131   5.181   0.532
  643TIP3    H223489   1.232   5.162   0.643
  644TIP3   OH223490   5.118   3.380   8.532
  644TIP3    H123491   5.076   3.304   8.572
  644TIP3    H223492   5.208   3.378   8.565
  645TIP3   OH223493   5.661   6.743   1.572
  645TIP3    H123494   5.607   6.682   1.622
  645TIP3    H223495   5.645   6.828   1.614
  646TIP3   OH223496   0.434   2.251   8.147
  646TIP3    H123497   0.384   2.326   8.114
  646TIP3    H223498   0.499   2.233   8.079
  647TIP3   OH223499   1.434   5.290   6.880
  647TIP3    H123500   1.505   5.267   6.820
  647TIP3    H223501   1.373   5.341   6.827
  648TIP3   OH223502   4.509   3.366   1.687
  648TIP3    H123503   4.492   3.317   1.606
  648TIP3    H223504   4.444   3.436   1.686
  649TIP3   OH223505   1.079   2.330   6.357
  649TIP3    H123506   1.015   2.400   6.365
  649TIP3    H223507   1.039   2.268   6.297
  650TIP3   OH223508   0.164   2.738   1.412
  650TIP3    H123509   0.177   2.818   1.463
  650TIP3    H223510   0.159   2.767   1.322
  651TIP3   OH223511   4.646   2.226   8.444
  651TIP3    H123512   4.662   2.203   8.352
  651TIP3    H223513   4.662   2.320   8.448
  652TIP3   OH223514   5.068   1.041   8.440
  652TIP3    H123515   5.046   1.098   8.366
  652TIP3    H223516   5.079   0.954   8.401
  653TIP3   OH223517   6.336   5.550   1.475
  653TIP3    H123518   6.297   5.468   1.504
  653TIP3    H223519   6.406   5.524   1.415
  654TIP3   OH223520   3.601   3.581   7.056
  654TIP3    H123521   3.508   3.563   7.068
  654TIP3    H223522   3.631   3.611   7.142
  655TIP3   OH223523   4.519   1.469   1.887
  655TIP3    H123524   4.544   1.407   1.955
  655TIP3    H223525   4.541   1.555   1.924
  656TIP3   OH223526   3.380   6.718   1.832
  656TIP3    H123527   3.308   6.668   1.870
  656TIP3    H223528   3.340   6.766   1.759
  657TIP3   OH223529   3.649   5.416   0.270
  657TIP3    H123530   3.601   5.365   0.205
  657TIP3    H223531   3.581   5.456   0.324
  658TIP3   OH223532   4.980   3.605   8.013
  658TIP3    H123533   5.050   3.592   7.948
  658TIP3    H223534   4.965   3.700   8.013
  659TIP3   OH223535   5.903   6.709   8.114
  659TIP3    H123536   5.817   6.676   8.088
  659TIP3    H223537   5.917   6.672   8.201
  660TIP3   OH223538   0.400   2.282   1.328
  660TIP3    H123539   0.445   2.320   1.402
  660TIP3    H223540   0.353   2.355   1.288
  661TIP3   OH223541   1.048   5.804   1.633
  661TIP3    H123542   1.061   5.796   1.728
  661TIP3    H223543   1.124   5.761   1.595
  662TIP3   OH223544   5.631   4.945   2.120
  662TIP3    H123545   5.611   4.877   2.055
  662TIP3    H223546   5.695   4.903   2.178
  663TIP3   OH223547   3.749   2.130   0.679
  663TIP3    H123548   3.685   2.161   0.614
  663TIP3    H223549   3.826   2.106   0.628
  664TIP3   OH223550   2.916   1.544   0.736
  664TIP3    H123551   2.828   1.577   0.715
  664TIP3    H223552   2.943   1.596   0.811
  665TIP3   OH223553   0.735   0.638   2.422
  665TIP3    H123554   0.656   0.613   2.375
  665TIP3    H223555   0.802   0.578   2.390
  666TIP3   OH223556   6.646   3.862   1.161
  666TIP3    H123557   6.576   3.828   1.217
  666TIP3    H223558   6.705   3.788   1.149
  667TIP3   OH223559   5.560   3.811   7.213
  667TIP3    H123560   5.630   3.765   7.259
  667TIP3    H223561   5.483   3.755   7.224
  668TIP3   OH223562   5.340   0.071   2.502
  668TIP3    H123563   5.338   0.066   2.406
  668TIP3    H223564   5.289   0.149   2.523
  669TIP3   OH223565   2.181   3.237   6.649
  669TIP3    H123566   2.098   3.191   6.665
  669TIP3    H223567   2.181   3.255   6.554
  670TIP3   OH223568   3.692   4.295   6.280
  670TIP3    H123569   3.710   4.352   6.356
  670TIP3    H223570   3.775   4.293   6.232
  671TIP3   OH223571   0.651   5.474   1.473
  671TIP3    H123572   0.718   5.541   1.488
  671TIP3    H223573   0.623   5.447   1.560
  672TIP3   OH223574   2.473   6.683   1.295
  672TIP3    H123575   2.438   6.741   1.363
  672TIP3    H223576   2.510   6.609   1.344
  673TIP3   OH223577   2.198   4.705   1.269
  673TIP3    H123578   2.247   4.666   1.341
  673TIP3    H223579   2.123   4.648   1.257
  674TIP3   OH223580   3.312   5.172   8.706
  674TIP3    H123581   3.339   5.105   8.643
  674TIP3    H223582   3.253   5.228   8.656
  675TIP3   OH223583   0.882   5.008   7.616
  675TIP3    H123584   0.951   5.073   7.626
  675TIP3    H223585   0.879   4.991   7.522
  676TIP3   OH223586   1.648   5.036   1.746
  676TIP3    H123587   1.707   4.962   1.738
  676TIP3    H223588   1.697   5.110   1.710
  677TIP3   OH223589   3.243   6.190   1.621
  677TIP3    H123590   3.270   6.235   1.701
  677TIP3    H223591   3.276   6.244   1.550
  678TIP3   OH223592   3.686   4.256   1.977
  678TIP3    H123593   3.676   4.165   2.003
  678TIP3    H223594   3.747   4.254   1.903
  679TIP3   OH223595   5.378   3.615   7.194
  679TIP3    H123596   5.288   3.636   7.168
  679TIP3    H223597   5.370   3.580   7.282
  680TIP3   OH223598   6.089   0.680   7.597
  680TIP3    H123599   6.184   0.670   7.592
  680TIP3    H223600   6.073   0.728   7.678
  681TIP3   OH223601   3.411   5.874   0.922
  681TIP3    H123602   3.323   5.894   0.954
  681TIP3    H223603   3.413   5.908   0.833
  682TIP3   OH223604   4.264   3.672   8.340
  682TIP3    H123605   4.294   3.677   8.431
  682TIP3    H223606   4.169   3.683   8.346
  683TIP3   OH223607   0.714   1.600   1.414
  683TIP3    H123608   0.629   1.600   1.458
  683TIP3    H223609   0.775   1.628   1.482
  684TIP3   OH223610   0.495   0.503   1.719
  684TIP3    H123611   0.527   0.489   1.808
  684TIP3    H223612   0.471   0.415   1.688
  685TIP3   OH223613   0.236   6.485   8.577
  685TIP3    H123614   0.262   6.488   8.484
  685TIP3    H223615   0.308   6.529   8.623
  686TIP3   OH223616   2.331   4.110   1.582
  686TIP3    H123617   2.426   4.122   1.574
  686TIP3    H223618   2.318   4.071   1.668
  687TIP3   OH223619   0.568   0.694   7.057
  687TIP3    H123620   0.562   0.776   7.107
  687TIP3    H223621   0.494   0.696   6.997
  688TIP3   OH223622   1.013   5.754   7.634
  688TIP3    H123623   0.993   5.673   7.586
  688TIP3    H223624   0.964   5.746   7.716
  689TIP3   OH223625   2.441   4.597   0.191
  689TIP3    H123626   2.431   4.521   0.133
  689TIP3    H223627   2.533   4.623   0.181
  690TIP3   OH223628   5.697   5.797   2.767
  690TIP3    H123629   5.709   5.891   2.779
  690TIP3    H223630   5.760   5.772   2.700
  691TIP3   OH223631   1.333   1.484   0.731
  691TIP3    H123632   1.426   1.504   0.736
  691TIP3    H223633   1.326   1.414   0.667
  692TIP3   OH223634   1.948   3.051   8.068
  692TIP3    H123635   1.996   3.083   7.992
  692TIP3    H223636   1.919   3.130   8.113
  693TIP3   OH223637   5.484   1.782   8.588
  693TIP3    H123638   5.503   1.786   8.682
  693TIP3    H223639   5.560   1.737   8.551
  694TIP3   OH223640   5.749   1.846   6.283
  694TIP3    H123641   5.792   1.927   6.259
  694TIP3    H223642   5.659   1.856   6.253
  695TIP3   OH223643   6.401   5.209   7.406
  695TIP3    H123644   6.413   5.247   7.493
  695TIP3    H223645   6.372   5.119   7.422
  696TIP3   OH223646   2.091   6.468   6.391
  696TIP3    H123647   2.007   6.457   6.435
  696TIP3    H223648   2.139   6.529   6.447
  697TIP3   OH223649   0.418   5.740   1.683
  697TIP3    H123650   0.465   5.817   1.715
  697TIP3    H223651   0.443   5.731   1.591
  698TIP3   OH223652   4.475   5.936   1.489
  698TIP3    H123653   4.428   5.856   1.464
  698TIP3    H223654   4.510   5.916   1.576
  699TIP3   OH223655   0.341   2.844   8.674
  699TIP3    H123656   0.402   2.915   8.694
  699TIP3    H223657   0.333   2.846   8.579
  700TIP3   OH223658   6.342   0.334   8.372
  700TIP3    H123659   6.346   0.283   8.292
  700TIP3    H223660   6.416   0.302   8.424
  701TIP3   OH223661   5.610   1.393   1.229
  701TIP3    H123662   5.624   1.304   1.198
  701TIP3    H223663   5.514   1.403   1.233
  702TIP3   OH223664   5.318   6.646   6.631
  702TIP3    H123665   5.314   6.673   6.540
  702TIP3    H223666   5.395   6.591   6.636
  703TIP3   OH223667   3.563   1.168   8.393
  703TIP3    H123668   3.508   1.196   8.320
  703TIP3    H223669   3.648   1.207   8.375
  704TIP3   OH223670   3.709   6.390   2.525
  704TIP3    H123671   3.642   6.416   2.587
  704TIP3    H223672   3.771   6.463   2.523
  705TIP3   OH223673   0.471   0.019   7.762
  705TIP3    H123674   0.391   0.029   7.710
  705TIP3    H223675   0.450   6.805   7.825
  706TIP3   OH223676   2.746   4.265   7.273
  706TIP3    H123677   2.676   4.328   7.283
  706TIP3    H223678   2.825   4.312   7.301
  707TIP3   OH223679   0.660   2.149   1.021
  707TIP3    H123680   0.743   2.127   0.979
  707TIP3    H223681   0.656   2.091   1.097
  708TIP3   OH223682   1.788   6.697   7.215
  708TIP3    H123683   1.835   6.772   7.180
  708TIP3    H223684   1.848   6.623   7.204
  709TIP3   OH223685   6.794   5.922   8.249
  709TIP3    H123686   6.846   5.851   8.212
  709TIP3    H223687   6.833   5.938   8.335
  710TIP3   OH223688   2.258   4.259   0.353
  710TIP3    H123689   2.343   4.292   0.384
  710TIP3    H223690   2.200   4.334   0.361
  711TIP3   OH223691   1.010   6.229   1.937
  711TIP3    H123692   0.939   6.287   1.965
  711TIP3    H223693   1.055   6.278   1.867
  712TIP3   OH223694   0.039   1.922   0.855
  712TIP3    H123695   0.019   1.987   0.787
  712TIP3    H223696   6.814   1.920   0.909
  713TIP3   OH223697   0.321   2.154   7.573
  713TIP3    H123698   0.398   2.135   7.520
  713TIP3    H223699   0.256   2.089   7.547
  714TIP3   OH223700   5.533   5.647   0.988
  714TIP3    H123701   5.467   5.706   1.024
  714TIP3    H223702   5.486   5.591   0.927
  715TIP3   OH223703   2.944   1.426   8.528
  715TIP3    H123704   3.003   1.442   8.454
  715TIP3    H223705   2.858   1.455   8.498
  716TIP3   OH223706   2.464   2.369   0.547
  716TIP3    H123707   2.429   2.451   0.584
  716TIP3    H223708   2.548   2.393   0.509
  717TIP3   OH223709   3.064   2.027   0.949
  717TIP3    H123710   3.065   2.111   0.995
  717TIP3    H223711   3.005   2.041   0.875
  718TIP3   OH223712   4.610   1.619   7.257
  718TIP3    H123713   4.591   1.704   7.297
  718TIP3    H223714   4.705   1.620   7.243
  719TIP3   OH223715   6.471   1.766   0.209
  719TIP3    H123716   6.499   1.718   0.287
  719TIP3    H223717   6.531   1.736   0.141
  720TIP3   OH223718   3.967   0.419   2.121
  720TIP3    H123719   3.900   0.365   2.161
  720TIP3    H223720   3.921   0.497   2.091
  721TIP3   OH223721   3.932   2.098   7.216
  721TIP3    H123722   3.873   2.166   7.251
  721TIP3    H223723   3.894   2.076   7.131
  722TIP3   OH223724   2.119   3.439   2.155
  722TIP3    H123725   2.066   3.396   2.087
  722TIP3    H223726   2.104   3.387   2.234
  723TIP3   OH223727   4.227   2.417   0.078
  723TIP3    H123728   4.145   2.418   0.029
  723TIP3    H223729   4.200   2.429   0.170
  724TIP3   OH223730   1.939   4.574   2.360
  724TIP3    H123731   2.025   4.541   2.337
  724TIP3    H223732   1.949   4.608   2.449
  725TIP3   OH223733   0.420   6.388   7.998
  725TIP3    H123734   0.512   6.361   7.991
  725TIP3    H223735   0.402   6.382   8.092
  726TIP3   OH223736   0.247   2.263   0.811
  726TIP3    H123737   0.257   2.208   0.889
  726TIP3    H223738   0.326   2.316   0.809
  727TIP3   OH223739   6.214   2.527   0.770
  727TIP3    H123740   6.184   2.444   0.733
  727TIP3    H223741   6.139   2.560   0.818
  728TIP3   OH223742   0.942   2.704   7.194
  728TIP3    H123743   0.944   2.614   7.225
  728TIP3    H223744   0.988   2.753   7.262
  729TIP3   OH223745   4.565   4.497   8.185
  729TIP3    H123746   4.582   4.404   8.169
  729TIP3    H223747   4.477   4.511   8.149
  730TIP3   OH223748   6.424   1.599   0.693
  730TIP3    H123749   6.448   1.665   0.757
  730TIP3    H223750   6.344   1.560   0.727
  731TIP3   OH223751   1.308   6.788   7.583
  731TIP3    H123752   1.322   0.021   7.546
  731TIP3    H223753   1.377   6.779   7.649
  732TIP3   OH223754   5.551   3.674   0.734
  732TIP3    H123755   5.599   3.708   0.659
  732TIP3    H223756   5.485   3.741   0.753
  733TIP3   OH223757   4.960   0.957   1.370
  733TIP3    H123758   4.879   0.922   1.406
  733TIP3    H223759   5.017   0.970   1.446
  734TIP3   OH223760   2.980   1.296   7.663
  734TIP3    H123761   2.926   1.358   7.614
  734TIP3    H223762   3.018   1.239   7.597
  735TIP3   OH223763   2.061   6.071   0.633
  735TIP3    H123764   2.151   6.094   0.653
  735TIP3    H223765   2.067   6.012   0.557
  736TIP3   OH223766   6.088   0.958   6.276
  736TIP3    H123767   6.011   0.919   6.235
  736TIP3    H223768   6.109   0.899   6.348
  737TIP3   OH223769   6.524   5.917   1.965
  737TIP3    H123770   6.585   5.844   1.953
  737TIP3    H223771   6.512   5.952   1.877
  738TIP3   OH223772   1.648   4.654   1.501
  738TIP3    H123773   1.602   4.570   1.497
  738TIP3    H223774   1.678   4.669   1.412
  739TIP3   OH223775   6.595   5.057   0.775
  739TIP3    H123776   6.583   5.137   0.827
  739TIP3    H223777   6.689   5.038   0.781
  740TIP3   OH223778   0.359   3.282   7.108
  740TIP3    H123779   0.447   3.315   7.128
  740TIP3    H223780   0.355   3.281   7.012
  741TIP3   OH223781   1.852   4.403   1.460
  741TIP3    H123782   1.766   4.364   1.447
  741TIP3    H223783   1.847   4.443   1.547
  742TIP3   OH223784   5.785   5.049   1.888
  742TIP3    H123785   5.857   5.050   1.826
  742TIP3    H223786   5.776   4.957   1.914
  743TIP3   OH223787   1.372   6.313   0.991
  743TIP3    H123788   1.389   6.306   1.085
  743TIP3    H223789   1.283   6.349   0.985
  744TIP3   OH223790   3.193   2.785   2.647
  744TIP3    H123791   3.261   2.723   2.672
  744TIP3    H223792   3.141   2.738   2.581
  745TIP3   OH223793   5.690   1.142   2.671
  745TIP3    H123794   5.733   1.063   2.639
  745TIP3    H223795   5.671   1.193   2.592
  746TIP3   OH223796   0.176   3.640   6.586
  746TIP3    H123797   0.219   3.681   6.660
  746TIP3    H223798   0.203   3.692   6.510
  747TIP3   OH223799   1.148   2.083   8.672
  747TIP3    H123800   1.161   2.088   0.041
  747TIP3    H223801   1.173   2.170   8.640
  748TIP3   OH223802   6.463   0.245   6.612
  748TIP3    H123803   6.529   0.273   6.675
  748TIP3    H223804   6.495   0.161   6.580
  749TIP3   OH223805   3.450   4.982   0.737
  749TIP3    H123806   3.361   5.008   0.717
  749TIP3    H223807   3.501   5.063   0.729
  750TIP3   OH223808   4.914   4.495   6.987
  750TIP3    H123809   4.854   4.435   6.943
  750TIP3    H223810   4.860   4.542   7.051
  751TIP3   OH223811   1.497   1.916   0.910
  751TIP3    H123812   1.508   1.857   0.984
  751TIP3    H223813   1.586   1.946   0.890
  752TIP3   OH223814   4.668   0.851   0.495
  752TIP3    H123815   4.667   0.913   0.568
  752TIP3    H223816   4.679   0.765   0.536
  753TIP3   OH223817   5.389   0.229   6.813
  753TIP3    H123818   5.442   0.304   6.789
  753TIP3    H223819   5.303   0.247   6.774
  754TIP3   OH223820   3.009   4.167   7.614
  754TIP3    H123821   2.926   4.190   7.657
  754TIP3    H223822   3.020   4.074   7.633
  755TIP3   OH223823   2.625   5.877   6.830
  755TIP3    H123824   2.681   5.802   6.852
  755TIP3    H223825   2.680   5.953   6.847
  756TIP3   OH223826   6.388   5.759   1.209
  756TIP3    H123827   6.453   5.723   1.149
  756TIP3    H223828   6.335   5.683   1.236
  757TIP3   OH223829   6.539   2.659   0.497
  757TIP3    H123830   6.461   2.699   0.459
  757TIP3    H223831   6.535   2.567   0.468
  758TIP3   OH223832   2.836   3.494   2.104
  758TIP3    H123833   2.790   3.413   2.081
  758TIP3    H223834   2.890   3.471   2.179
  759TIP3   OH223835   5.339   6.019   2.402
  759TIP3    H123836   5.281   5.952   2.366
  759TIP3    H223837   5.411   5.971   2.440
  760TIP3   OH223838   0.870   2.018   7.243
  760TIP3    H123839   0.815   1.956   7.291
  760TIP3    H223840   0.818   2.098   7.239
  761TIP3   OH223841   4.997   3.827   2.230
  761TIP3    H123842   5.092   3.823   2.238
  761TIP3    H223843   4.973   3.747   2.185
  762TIP3   OH223844   1.403   2.056   7.793
  762TIP3    H123845   1.488   2.028   7.760
  762TIP3    H223846   1.341   1.993   7.756
  763TIP3   OH223847   2.651   5.669   1.827
  763TIP3    H123848   2.702   5.734   1.779
  763TIP3    H223849   2.564   5.672   1.787
  764TIP3   OH223850   5.179   6.555   6.073
  764TIP3    H123851   5.139   6.549   5.986
  764TIP3    H223852   5.106   6.539   6.133
  765TIP3   OH223853   4.589   1.376   0.648
  765TIP3    H123854   4.627   1.348   0.732
  765TIP3    H223855   4.559   1.294   0.607
  766TIP3   OH223856   0.822   6.576   7.324
  766TIP3    H123857   0.899   6.519   7.325
  766TIP3    H223858   0.858   6.664   7.336
  767TIP3   OH223859   6.059   2.302   6.920
  767TIP3    H123860   6.009   2.308   6.838
  767TIP3    H223861   5.998   2.331   6.988
  768TIP3   OH223862   3.847   2.596   1.791
  768TIP3    H123863   3.924   2.617   1.844
  768TIP3    H223864   3.790   2.547   1.849
  769TIP3   OH223865   5.619   3.436   7.374
  769TIP3    H123866   5.675   3.492   7.429
  769TIP3    H223867   5.530   3.455   7.404
  770TIP3   OH223868   3.017   4.340   1.861
  770TIP3    H123869   2.961   4.418   1.855
  770TIP3    H223870   2.957   4.269   1.884
  771TIP3   OH223871   6.758   4.932   2.399
  771TIP3    H123872   6.696   4.882   2.452
  771TIP3    H223873   6.723   5.022   2.401
  772TIP3   OH223874   4.235   4.614   7.076
  772TIP3    H123875   4.271   4.526   7.092
  772TIP3    H223876   4.312   4.670   7.069
  773TIP3   OH223877   4.195   5.927   7.086
  773TIP3    H123878   4.287   5.932   7.113
  773TIP3    H223879   4.145   5.932   7.168
  774TIP3   OH223880   3.368   5.215   7.160
  774TIP3    H123881   3.392   5.265   7.238
  774TIP3    H223882   3.440   5.231   7.099
  775TIP3   OH223883   0.953   0.104   0.513
  775TIP3    H123884   1.003   0.052   0.451
  775TIP3    H223885   0.943   0.047   0.590
  776TIP3   OH223886   4.667   3.350   7.154
  776TIP3    H123887   4.598   3.416   7.163
  776TIP3    H223888   4.620   3.269   7.134
  777TIP3   OH223889   4.807   3.287   1.432
  777TIP3    H123890   4.865   3.307   1.506
  777TIP3    H223891   4.848   3.331   1.358
  778TIP3   OH223892   2.908   0.872   6.697
  778TIP3    H123893   2.988   0.882   6.647
  778TIP3    H223894   2.891   0.959   6.734
  779TIP3   OH223895   6.434   3.401   7.521
  779TIP3    H123896   6.528   3.387   7.534
  779TIP3    H223897   6.425   3.496   7.515
  780TIP3   OH223898   0.662   3.930   1.914
  780TIP3    H123899   0.752   3.937   1.945
  780TIP3    H223900   0.651   4.005   1.855
  781TIP3   OH223901   3.416   2.885   8.322
  781TIP3    H123902   3.345   2.830   8.354
  781TIP3    H223903   3.455   2.921   8.402
  782TIP3   OH223904   3.898   0.438   6.565
  782TIP3    H123905   3.892   0.410   6.474
  782TIP3    H223906   3.989   0.418   6.590
  783TIP3   OH223907   5.123   1.117   8.705
  783TIP3    H123908   5.038   1.132   0.021
  783TIP3    H223909   5.101   1.105   8.612
  784TIP3   OH223910   0.147   5.516   8.644
  784TIP3    H123911   0.102   5.450   8.592
  784TIP3    H223912   0.197   5.568   8.581
  785TIP3   OH223913   2.516   1.799   0.079
  785TIP3    H123914   2.476   1.846   0.152
  785TIP3    H223915   2.509   1.859   0.005
  786TIP3   OH223916   2.651   2.833   6.850
  786TIP3    H123917   2.607   2.860   6.770
  786TIP3    H223918   2.633   2.739   6.856
  787TIP3   OH223919   4.549   3.466   2.305
  787TIP3    H123920   4.511   3.424   2.383
  787TIP3    H223921   4.479   3.522   2.272
  788TIP3   OH223922   6.572   2.347   7.432
  788TIP3    H123923   6.646   2.406   7.416
  788TIP3    H223924   6.495   2.404   7.430
  789TIP3   OH223925   6.635   5.448   7.203
  789TIP3    H123926   6.593   5.378   7.152
  789TIP3    H223927   6.709   5.405   7.246
  790TIP3   OH223928   1.067   1.208   1.403
  790TIP3    H123929   0.972   1.210   1.406
  790TIP3    H223930   1.093   1.297   1.378
  791TIP3   OH223931   2.829   5.953   0.412
  791TIP3    H123932   2.899   5.889   0.423
  791TIP3    H223933   2.755   5.918   0.460
  792TIP3   OH223934   5.713   3.306   8.349
  792TIP3    H123935   5.717   3.378   8.411
  792TIP3    H223936   5.638   3.253   8.378
  793TIP3   OH223937   6.230   0.527   7.247
  793TIP3    H123938   6.229   0.589   7.173
  793TIP3    H223939   6.286   0.569   7.312
  794TIP3   OH223940   5.046   2.877   8.677
  794TIP3    H123941   5.075   2.961   8.640
  794TIP3    H223942   4.951   2.880   8.671
  795TIP3   OH223943   1.828   3.660   1.011
  795TIP3    H123944   1.828   3.727   1.080
  795TIP3    H223945   1.910   3.612   1.024
  796TIP3   OH223946   6.812   6.736   0.887
  796TIP3    H123947   0.032   6.796   0.875
  796TIP3    H223948   6.762   6.773   0.959
  797TIP3   OH223949   0.413   6.255   8.343
  797TIP3    H123950   0.357   6.194   8.295
  797TIP3    H223951   0.379   6.342   8.320
  798TIP3   OH223952   5.343   6.289   0.817
  798TIP3    H123953   5.259   6.309   0.777
  798TIP3    H223954   5.399   6.363   0.793
  799TIP3   OH223955   0.592   6.096   7.093
  799TIP3    H123956   0.554   6.165   7.147
  799TIP3    H223957   0.679   6.129   7.070
  800TIP3   OH223958   6.326   1.536   1.621
  800TIP3    H123959   6.246   1.579   1.591
  800TIP3    H223960   6.397   1.585   1.578
  801TIP3   OH223961   0.430   3.082   1.954
  801TIP3    H123962   0.423   3.021   1.881
  801TIP3    H223963   0.348   3.074   2.001
  802TIP3   OH223964   2.966   5.351   6.696
  802TIP3    H123965   2.974   5.347   6.601
  802TIP3    H223966   2.872   5.347   6.713
  803TIP3   OH223967   6.514   2.197   7.931
  803TIP3    H123968   6.459   2.120   7.914
  803TIP3    H223969   6.534   2.232   7.844
  804TIP3   OH223970   4.717   4.852   2.260
  804TIP3    H123971   4.697   4.860   2.167
  804TIP3    H223972   4.725   4.758   2.276
  805TIP3   OH223973   0.271   3.836   7.743
  805TIP3    H123974   0.269   3.787   7.825
  805TIP3    H223975   0.323   3.781   7.684
  806TIP3   OH223976   3.005   2.644   2.468
  806TIP3    H123977   3.010   2.719   2.409
  806TIP3    H223978   2.912   2.633   2.486
  807TIP3   OH223979   2.772   5.254   0.381
  807TIP3    H123980   2.839   5.187   0.394
  807TIP3    H223981   2.719   5.250   0.461
  808TIP3   OH223982   0.131   4.944   8.069
  808TIP3    H123983   0.102   4.857   8.099
  808TIP3    H223984   0.226   4.943   8.080
  809TIP3   OH223985   3.901   6.273   7.543
  809TIP3    H123986   3.809   6.298   7.541
  809TIP3    H223987   3.940   6.330   7.610
  810TIP3   OH223988   6.063   2.460   7.447
  810TIP3    H123989   5.972   2.434   7.434
  810TIP3    H223990   6.115   2.386   7.416
  811TIP3   OH223991   0.767   5.166   8.261
  811TIP3    H123992   0.719   5.234   8.213
  811TIP3    H223993   0.744   5.085   8.215
  812TIP3   OH223994   2.876   6.538   7.580
  812TIP3    H123995   2.894   6.444   7.585
  812TIP3    H223996   2.789   6.548   7.620
  813TIP3   OH223997   2.601   5.522   6.192
  813TIP3    H123998   2.596   5.453   6.126
  813TIP3    H223999   2.540   5.589   6.160
  814TIP3   OH224000   6.761   0.559   8.423
  814TIP3    H124001   6.751   0.628   8.489
  814TIP3    H224002   6.779   0.480   8.474
  815TIP3   OH224003   4.979   1.233   1.499
  815TIP3    H124004   5.009   1.163   1.558
  815TIP3    H224005   4.895   1.201   1.466
  816TIP3   OH224006   6.816   3.746   6.847
  816TIP3    H124007   6.727   3.771   6.870
  816TIP3    H224008   6.807   3.662   6.802
  817TIP3   OH224009   4.358   4.434   8.002
  817TIP3    H124010   4.302   4.356   8.001
  817TIP3    H224011   4.300   4.505   8.031
  818TIP3   OH224012   0.618   2.775   8.694
  818TIP3    H124013   0.640   2.768   8.601
  818TIP3    H224014   0.679   2.839   0.003
  819TIP3   OH224015   4.758   1.943   8.705
  819TIP3    H124016   4.803   1.893   8.637
  819TIP3    H224017   4.800   1.916   0.060
  820TIP3   OH224018   0.970   0.433   1.680
  820TIP3    H124019   1.024   0.502   1.642
  820TIP3    H224020   0.949   0.466   1.768
  821TIP3   OH224021   6.118   4.626   6.381
  821TIP3    H124022   6.194   4.569   6.389
  821TIP3    H224023   6.153   4.710   6.354
  822TIP3   OH224024   2.192   5.487   1.688
  822TIP3    H124025   2.146   5.420   1.637
  822TIP3    H224026   2.239   5.438   1.755
  823TIP3   OH224027   2.215   2.681   0.405
  823TIP3    H124028   2.162   2.730   0.342
  823TIP3    H224029   2.302   2.676   0.365
  824TIP3   OH224030   1.614   1.739   1.097
  824TIP3    H124031   1.697   1.717   1.139
  824TIP3    H224032   1.574   1.654   1.077
  825TIP3   OH224033   6.725   4.224   1.257
  825TIP3    H124034   6.698   4.316   1.260
  825TIP3    H224035   6.819   4.226   1.278
  826TIP3   OH224036   3.567   5.214   0.067
  826TIP3    H124037   3.622   5.229   8.716
  826TIP3    H224038   3.481   5.193   0.032
  827TIP3   OH224039   3.091   4.839   1.188
  827TIP3    H124040   3.069   4.754   1.149
  827TIP3    H224041   3.007   4.874   1.218
  828TIP3   OH224042   5.990   3.263   6.396
  828TIP3    H124043   5.916   3.231   6.345
  828TIP3    H224044   6.047   3.306   6.332
  829TIP3   OH224045   5.630   1.110   7.650
  829TIP3    H124046   5.697   1.146   7.707
  829TIP3    H224047   5.635   1.016   7.663
  830TIP3   OH224048   6.420   5.567   6.235
  830TIP3    H124049   6.397   5.563   6.328
  830TIP3    H224050   6.401   5.657   6.209
  831TIP3   OH224051   1.657   0.713   0.435
  831TIP3    H124052   1.692   0.739   0.520
  831TIP3    H224053   1.568   0.745   0.435
  832TIP3   OH224054   1.258   0.218   0.622
  832TIP3    H124055   1.321   0.277   0.581
  832TIP3    H224056   1.204   0.187   0.549
  833TIP3   OH224057   1.702   0.445   6.737
  833TIP3    H124058   1.718   0.443   6.643
  833TIP3    H224059   1.606   0.441   6.745
  834TIP3   OH224060   5.475   2.869   0.095
  834TIP3    H124061   5.557   2.898   0.056
  834TIP3    H224062   5.481   2.773   0.095
  835TIP3   OH224063   1.367   4.403   1.103
  835TIP3    H124064   1.399   4.449   1.181
  835TIP3    H224065   1.339   4.318   1.135
  836TIP3   OH224066   5.085   2.614   7.638
  836TIP3    H124067   5.160   2.587   7.690
  836TIP3    H224068   5.069   2.540   7.579
  837TIP3   OH224069   4.226   5.447   1.672
  837TIP3    H124070   4.237   5.377   1.608
  837TIP3    H224071   4.299   5.437   1.732
  838TIP3   OH224072   6.235   6.459   0.087
  838TIP3    H124073   6.322   6.476   0.123
  838TIP3    H224074   6.179   6.523   0.130
  839TIP3   OH224075   4.937   0.810   0.079
  839TIP3    H124076   4.845   0.826   0.060
  839TIP3    H224077   4.948   0.837   0.170
  840TIP3   OH224078   3.728   0.706   0.870
  840TIP3    H124079   3.794   0.639   0.852
  840TIP3    H224080   3.720   0.707   0.966
  841TIP3   OH224081   0.699   2.340   2.218
  841TIP3    H124082   0.770   2.277   2.231
  841TIP3    H224083   0.714   2.407   2.285
  842TIP3   OH224084   4.418   4.090   0.737
  842TIP3    H124085   4.370   4.106   0.818
  842TIP3    H224086   4.395   4.164   0.681
  843TIP3   OH224087   6.677   3.341   7.333
  843TIP3    H124088   6.697   3.319   7.424
  843TIP3    H224089   6.758   3.380   7.300
  844TIP3   OH224090   1.310   0.678   1.259
  844TIP3    H124091   1.361   0.657   1.337
  844TIP3    H224092   1.375   0.706   1.194
  845TIP3   OH224093   6.128   0.496   0.688
  845TIP3    H124094   6.184   0.441   0.743
  845TIP3    H224095   6.043   0.495   0.732
  846TIP3   OH224096   4.773   1.118   2.082
  846TIP3    H124097   4.831   1.069   2.140
  846TIP3    H224098   4.830   1.146   2.010
  847TIP3   OH224099   6.200   5.889   0.354
  847TIP3    H124100   6.119   5.917   0.311
  847TIP3    H224101   6.269   5.918   0.294
  848TIP3   OH224102   0.812   2.191   8.373
  848TIP3    H124103   0.833   2.137   8.450
  848TIP3    H224104   0.839   2.138   8.298
  849TIP3   OH224105   0.645   0.961   7.123
  849TIP3    H124106   0.619   1.014   7.047
  849TIP3    H224107   0.688   1.024   7.182
  850TIP3   OH224108   3.318   5.390   1.857
  850TIP3    H124109   3.249   5.361   1.797
  850TIP3    H224110   3.343   5.312   1.905
  851TIP3   OH224111   3.832   2.245   1.980
  851TIP3    H124112   3.806   2.332   2.011
  851TIP3    H224113   3.763   2.186   2.012
  852TIP3   OH224114   2.828   0.578   1.278
  852TIP3    H124115   2.854   0.494   1.240
  852TIP3    H224116   2.759   0.611   1.221
  853TIP3   OH224117   6.202   4.861   6.278
  853TIP3    H124118   6.289   4.871   6.241
  853TIP3    H224119   6.180   4.948   6.312
  854TIP3   OH224120   6.166   5.753   0.585
  854TIP3    H124121   6.175   5.792   0.498
  854TIP3    H224122   6.093   5.691   0.576
  855TIP3   OH224123   3.368   3.675   1.652
  855TIP3    H124124   3.462   3.687   1.637
  855TIP3    H224125   3.329   3.756   1.621
  856TIP3   OH224126   5.381   2.254   7.067
  856TIP3    H124127   5.366   2.197   6.992
  856TIP3    H224128   5.442   2.206   7.123
  857TIP3   OH224129   3.342   1.834   6.804
  857TIP3    H124130   3.300   1.825   6.890
  857TIP3    H224131   3.434   1.849   6.824
  858TIP3   OH224132   3.943   4.691   0.367
  858TIP3    H124133   4.000   4.766   0.383
  858TIP3    H224134   3.915   4.664   0.455
  859TIP3   OH224135   1.619   4.319   7.492
  859TIP3    H124136   1.609   4.229   7.521
  859TIP3    H224137   1.708   4.343   7.517
  860TIP3   OH224138   0.807   2.081   0.650
  860TIP3    H124139   0.819   1.986   0.647
  860TIP3    H224140   0.854   2.108   0.729
  861TIP3   OH224141   6.768   5.143   1.122
  861TIP3    H124142   0.002   5.177   1.136
  861TIP3    H224143   6.720   5.167   1.202
  862TIP3   OH224144   1.593   1.382   8.175
  862TIP3    H124145   1.548   1.351   8.253
  862TIP3    H224146   1.612   1.474   8.192
  863TIP3   OH224147   5.430   3.619   1.333
  863TIP3    H124148   5.487   3.593   1.406
  863TIP3    H224149   5.382   3.695   1.365
  864TIP3   OH224150   3.380   3.431   7.845
  864TIP3    H124151   3.299   3.468   7.879
  864TIP3    H224152   3.414   3.377   7.916
  865TIP3   OH224153   5.977   1.837   8.484
  865TIP3    H124154   6.021   1.916   8.518
  865TIP3    H224155   5.922   1.869   8.413
  866TIP3   OH224156   0.464   0.703   7.346
  866TIP3    H124157   0.555   0.730   7.332
  866TIP3    H224158   0.470   0.631   7.409
  867TIP3   OH224159   2.738   4.689   7.341
  867TIP3    H124160   2.686   4.645   7.274
  867TIP3    H224161   2.695   4.774   7.353
  868TIP3   OH224162   5.484   2.056   7.657
  868TIP3    H124163   5.443   1.987   7.604
  868TIP3    H224164   5.431   2.061   7.736
  869TIP3   OH224165   2.776   3.259   8.130
  869TIP3    H124166   2.690   3.299   8.143
  869TIP3    H224167   2.828   3.288   8.204
  870TIP3   OH224168   6.691   1.601   7.978
  870TIP3    H124169   6.718   1.539   8.044
  870TIP3    H224170   6.771   1.623   7.931
  871TIP3   OH224171   3.172   4.450   0.635
  871TIP3    H124172   3.177   4.371   0.689
  871TIP3    H224173   3.221   4.515   0.684
  872TIP3   OH224174   6.068   1.903   1.973
  872TIP3    H124175   6.074   1.899   2.068
  872TIP3    H224176   6.077   1.812   1.944
  873TIP3   OH224177   0.779   3.263   1.409
  873TIP3    H124178   0.684   3.271   1.422
  873TIP3    H224179   0.807   3.350   1.381
  874TIP3   OH224180   6.446   6.223   1.150
  874TIP3    H124181   6.421   6.301   1.100
  874TIP3    H224182   6.524   6.249   1.198
  875TIP3   OH224183   6.772   1.186   8.465
  875TIP3    H124184   6.843   1.136   8.424
  875TIP3    H224185   6.693   1.136   8.444
  876TIP3   OH224186   2.744   0.493   7.588
  876TIP3    H124187   2.762   0.582   7.559
  876TIP3    H224188   2.800   0.480   7.664
  877TIP3   OH224189   3.812   5.338   8.072
  877TIP3    H124190   3.759   5.414   8.093
  877TIP3    H224191   3.759   5.288   8.009
  878TIP3   OH224192   5.249   2.096   6.769
  878TIP3    H124193   5.217   2.025   6.714
  878TIP3    H224194   5.306   2.053   6.833
  879TIP3   OH224195   5.933   6.768   1.499
  879TIP3    H124196   5.842   6.784   1.525
  879TIP3    H224197   5.981   6.843   1.534
  880TIP3   OH224198   2.442   1.951   2.040
  880TIP3    H124199   2.351   1.976   2.057
  880TIP3    H224200   2.492   2.031   2.051
  881TIP3   OH224201   6.237   3.899   7.522
  881TIP3    H124202   6.159   3.846   7.503
  881TIP3    H224203   6.218   3.984   7.483
  882TIP3   OH224204   5.212   4.480   8.641
  882TIP3    H124205   5.273   4.407   8.653
  882TIP3    H224206   5.134   4.439   8.602
  883TIP3   OH224207   4.606   4.575   8.447
  883TIP3    H124208   4.592   4.554   8.355
  883TIP3    H224209   4.532   4.632   8.469
  884TIP3   OH224210   4.905   4.167   6.978
  884TIP3    H124211   4.853   4.242   6.949
  884TIP3    H224212   4.982   4.168   6.921
  885TIP3   OH224213   3.982   4.848   7.687
  885TIP3    H124214   3.956   4.907   7.617
  885TIP3    H224215   4.015   4.906   7.756
  886TIP3   OH224216   1.504   5.060   0.209
  886TIP3    H124217   1.520   4.981   0.156
  886TIP3    H224218   1.543   5.131   0.157
  887TIP3   OH224219   3.389   4.674   8.662
  887TIP3    H124220   3.389   4.654   8.569
  887TIP3    H224221   3.405   4.589   8.705
  888TIP3   OH224222   6.054   4.528   1.618
  888TIP3    H124223   6.067   4.435   1.604
  888TIP3    H224224   6.141   4.563   1.636
  889TIP3   OH224225   5.217   0.359   2.289
  889TIP3    H124226   5.211   0.266   2.271
  889TIP3    H224227   5.303   0.370   2.331
  890TIP3   OH224228   6.065   4.785   0.078
  890TIP3    H124229   6.030   4.713   0.025
  890TIP3    H224230   6.059   4.753   0.168
  891TIP3   OH224231   4.801   3.249   0.447
  891TIP3    H124232   4.865   3.240   0.376
  891TIP3    H224233   4.761   3.162   0.454
  892TIP3   OH224234   2.437   1.249   2.303
  892TIP3    H124235   2.491   1.233   2.381
  892TIP3    H224236   2.380   1.172   2.298
  893TIP3   OH224237   0.217   3.710   8.483
  893TIP3    H124238   0.145   3.771   8.495
  893TIP3    H224239   0.202   3.671   8.397
  894TIP3   OH224240   0.082   3.482   7.308
  894TIP3    H124241   0.060   3.565   7.351
  894TIP3    H224242   0.147   3.506   7.242
  895TIP3   OH224243   3.874   2.389   1.177
  895TIP3    H124244   3.945   2.450   1.156
  895TIP3    H224245   3.847   2.353   1.093
  896TIP3   OH224246   5.588   0.763   6.606
  896TIP3    H124247   5.514   0.738   6.552
  896TIP3    H224248   5.655   0.697   6.590
  897TIP3   OH224249   5.137   3.238   7.405
  897TIP3    H124250   5.214   3.200   7.447
  897TIP3    H224251   5.148   3.220   7.312
  898TIP3   OH224252   0.213   3.441   8.590
  898TIP3    H124253   0.136   3.392   8.563
  898TIP3    H224254   0.206   3.524   8.542
  899TIP3   OH224255   2.102   6.755   7.224
  899TIP3    H124256   2.134   6.845   7.219
  899TIP3    H224257   2.154   6.708   7.158
  900TIP3   OH224258   4.837   5.018   1.869
  900TIP3    H124259   4.775   5.039   1.939
  900TIP3    H224260   4.918   5.063   1.894
  901TIP3   OH224261   1.897   4.037   0.980
  901TIP3    H124262   1.824   4.096   0.999
  901TIP3    H224263   1.915   3.994   1.064
  902TIP3   OH224264   4.500   2.265   7.689
  902TIP3    H124265   4.441   2.314   7.632
  902TIP3    H224266   4.448   2.191   7.719
  903TIP3   OH224267   1.061   2.765   7.461
  903TIP3    H124268   1.068   2.844   7.515
  903TIP3    H224269   1.139   2.767   7.406
  904TIP3   OH224270   4.460   3.422   1.171
  904TIP3    H124271   4.501   3.509   1.167
  904TIP3    H224272   4.397   3.423   1.099
  905TIP3   OH224273   4.956   3.002   7.196
  905TIP3    H124274   4.971   2.955   7.114
  905TIP3    H224275   4.903   3.078   7.170
  906TIP3   OH224276   4.925   2.688   1.213
  906TIP3    H124277   4.999   2.731   1.256
  906TIP3    H224278   4.906   2.744   1.137
  907TIP3   OH224279   6.444   4.702   8.683
  907TIP3    H124280   6.484   4.621   8.715
  907TIP3    H224281   6.478   4.770   0.015
  908TIP3   OH224282   5.938   4.733   0.552
  908TIP3    H124283   5.993   4.656   0.541
  908TIP3    H224284   5.996   4.807   0.531
  909TIP3   OH224285   1.687   2.999   0.104
  909TIP3    H124286   1.767   2.947   0.110
  909TIP3    H224287   1.654   2.981   0.016
  910TIP3   OH224288   2.105   4.267   7.345
  910TIP3    H124289   2.179   4.313   7.305
  910TIP3    H224290   2.092   4.189   7.290
  911TIP3   OH224291   6.587   4.430   7.262
  911TIP3    H124292   6.529   4.370   7.215
  911TIP3    H224293   6.666   4.433   7.209
  912TIP3   OH224294   1.607   1.364   0.106
  912TIP3    H124295   1.661   1.441   0.088
  912TIP3    H224296   1.617   1.350   0.200
  913TIP3   OH224297   1.970   2.536   8.542
  913TIP3    H124298   2.044   2.594   8.523
  913TIP3    H224299   2.008   2.465   8.593
  914TIP3   OH224300   2.066   5.754   0.983
  914TIP3    H124301   2.006   5.704   0.928
  914TIP3    H224302   2.136   5.781   0.924
  915TIP3   OH224303   4.480   4.729   2.574
  915TIP3    H124304   4.408   4.689   2.527
  915TIP3    H224305   4.559   4.694   2.532
  916TIP3   OH224306   6.328   4.093   6.862
  916TIP3    H124307   6.350   4.102   6.769
  916TIP3    H224308   6.338   4.181   6.898
  917TIP3   OH224309   0.717   1.292   6.734
  917TIP3    H124310   0.639   1.319   6.685
  917TIP3    H224311   0.785   1.355   6.708
  918TIP3   OH224312   0.600   2.304   6.910
  918TIP3    H124313   0.608   2.291   7.004
  918TIP3    H224314   0.545   2.381   6.901
  919TIP3   OH224315   3.492   1.190   0.137
  919TIP3    H124316   3.506   1.099   0.162
  919TIP3    H224317   3.450   1.185   0.051
  920TIP3   OH224318   3.757   2.267   0.952
  920TIP3    H124319   3.666   2.288   0.974
  920TIP3    H224320   3.753   2.227   0.866
  921TIP3   OH224321   5.080   1.873   1.043
  921TIP3    H124322   5.027   1.951   1.060
  921TIP3    H224323   5.017   1.808   1.011
  922TIP3   OH224324   3.434   3.106   0.189
  922TIP3    H124325   3.340   3.091   0.177
  922TIP3    H224326   3.446   3.199   0.170
  923TIP3   OH224327   1.235   2.262   0.868
  923TIP3    H124328   1.255   2.202   0.796
  923TIP3    H224329   1.298   2.333   0.859
  924TIP3   OH224330   6.454   6.455   6.790
  924TIP3    H124331   6.548   6.454   6.809
  924TIP3    H224332   6.417   6.518   6.852
  925TIP3   OH224333   1.936   3.712   0.250
  925TIP3    H124334   1.889   3.628   0.252
  925TIP3    H224335   1.991   3.707   0.172
  926TIP3   OH224336   0.280   5.664   2.113
  926TIP3    H124337   0.254   5.574   2.134
  926TIP3    H224338   0.307   5.701   2.197
  927TIP3   OH224339   0.208   0.416   7.826
  927TIP3    H124340   0.225   0.485   7.890
  927TIP3    H224341   0.113   0.412   7.818
  928TIP3   OH224342   3.086   2.700   0.927
  928TIP3    H124343   3.052   2.614   0.952
  928TIP3    H224344   3.154   2.682   0.863
  929TIP3   OH224345   3.742   3.097   7.557
  929TIP3    H124346   3.777   3.162   7.496
  929TIP3    H224347   3.734   3.018   7.504
  930TIP3   OH224348   1.134   1.266   7.537
  930TIP3    H124349   1.052   1.244   7.580
  930TIP3    H224350   1.125   1.235   7.447
  931TIP3   OH224351   5.106   5.603   7.378
  931TIP3    H124352   5.031   5.658   7.356
  931TIP3    H224353   5.080   5.514   7.352
  932TIP3   OH224354   4.187   6.194   8.623
  932TIP3    H124355   4.193   6.131   8.550
  932TIP3    H224356   4.264   6.174   8.678
  933TIP3   OH224357   1.156   0.043   8.517
  933TIP3    H124358   1.105   0.124   8.516
  933TIP3    H224359   1.187   0.034   8.427
  934TIP3   OH224360   2.637   6.133   8.420
  934TIP3    H124361   2.680   6.191   8.356
  934TIP3    H224362   2.561   6.099   8.373
  935TIP3   OH224363   6.415   2.590   8.542
  935TIP3    H124364   6.440   2.622   8.629
  935TIP3    H224365   6.329   2.628   8.526
  936TIP3   OH224366   6.766   4.124   7.821
  936TIP3    H124367   6.780   4.181   7.897
  936TIP3    H224368   6.675   4.137   7.797
  937TIP3   OH224369   3.361   0.934   0.570
  937TIP3    H124370   3.299   0.998   0.604
  937TIP3    H224371   3.436   0.986   0.541
  938TIP3   OH224372   4.370   5.378   1.893
  938TIP3    H124373   4.276   5.364   1.905
  938TIP3    H224374   4.405   5.377   1.982
  939TIP3   OH224375   2.077   3.756   0.724
  939TIP3    H124376   2.041   3.718   0.804
  939TIP3    H224377   2.027   3.716   0.653
  940TIP3   OH224378   0.577   1.817   6.410
  940TIP3    H124379   0.493   1.788   6.446
  940TIP3    H224380   0.641   1.757   6.446
  941TIP3   OH224381   5.116   1.067   7.953
  941TIP3    H124382   5.187   1.075   7.890
  941TIP3    H224383   5.040   1.106   7.909
  942TIP3   OH224384   1.509   2.341   1.392
  942TIP3    H124385   1.575   2.352   1.323
  942TIP3    H224386   1.471   2.255   1.374
  943TIP3   OH224387   2.936   2.657   1.879
  943TIP3    H124388   2.923   2.690   1.790
  943TIP3    H224389   2.974   2.570   1.868
  944TIP3   OH224390   0.178   5.372   7.640
  944TIP3    H124391   0.100   5.337   7.683
  944TIP3    H224392   0.207   5.444   7.696
  945TIP3   OH224393   4.165   2.057   7.922
  945TIP3    H124394   4.155   2.151   7.935
  945TIP3    H224395   4.168   2.021   8.011
  946TIP3   OH224396   1.184   2.193   2.453
  946TIP3    H124397   1.222   2.132   2.390
  946TIP3    H224398   1.113   2.236   2.406
  947TIP3   OH224399   2.920   1.100   7.858
  947TIP3    H124400   2.932   1.153   7.779
  947TIP3    H224401   2.831   1.119   7.886
  948TIP3   OH224402   1.540   4.314   7.209
  948TIP3    H124403   1.520   4.224   7.186
  948TIP3    H224404   1.577   4.309   7.297
  949TIP3   OH224405   4.504   4.035   8.009
  949TIP3    H124406   4.449   3.956   8.008
  949TIP3    H224407   4.480   4.082   7.929
  950TIP3   OH224408   5.377   5.555   8.264
  950TIP3    H124409   5.309   5.565   8.197
  950TIP3    H224410   5.458   5.578   8.219
  951TIP3   OH224411   4.333   5.030   6.815
  951TIP3    H124412   4.318   5.003   6.724
  951TIP3    H224413   4.380   5.113   6.807
  952TIP3   OH224414   5.607   1.774   8.178
  952TIP3    H124415   5.684   1.810   8.222
  952TIP3    H224416   5.626   1.782   8.085
  953TIP3   OH224417   1.653   3.274   6.773
  953TIP3    H124418   1.679   3.184   6.755
  953TIP3    H224419   1.558   3.273   6.772
  954TIP3   OH224420   5.847   3.451   1.179
  954TIP3    H124421   5.902   3.512   1.228
  954TIP3    H224422   5.787   3.506   1.130
  955TIP3   OH224423   6.280   5.504   7.531
  955TIP3    H124424   6.252   5.570   7.594
  955TIP3    H224425   6.225   5.428   7.550
  956TIP3   OH224426   6.355   4.842   8.466
  956TIP3    H124427   6.388   4.777   8.528
  956TIP3    H224428   6.262   4.823   8.458
  957TIP3   OH224429   3.396   5.964   1.582
  957TIP3    H124430   3.351   5.887   1.547
  957TIP3    H224431   3.327   6.029   1.591
  958TIP3   OH224432   2.666   1.167   7.977
  958TIP3    H124433   2.619   1.086   7.959
  958TIP3    H224434   2.599   1.226   8.011
  959TIP3   OH224435   2.575   4.111   7.981
  959TIP3    H124436   2.507   4.044   7.983
  959TIP3    H224437   2.536   4.184   7.932
  960TIP3   OH224438   4.954   0.690   1.603
  960TIP3    H124439   4.882   0.751   1.589
  960TIP3    H224440   4.929   0.640   1.681
  961TIP3   OH224441   3.574   3.910   6.805
  961TIP3    H124442   3.654   3.961   6.814
  961TIP3    H224443   3.509   3.957   6.857
  962TIP3   OH224444   5.385   1.763   2.492
  962TIP3    H124445   5.346   1.679   2.516
  962TIP3    H224446   5.471   1.762   2.535
  963TIP3   OH224447   0.274   2.719   8.255
  963TIP3    H124448   0.247   2.640   8.208
  963TIP3    H224449   0.313   2.687   8.336
  964TIP3   OH224450   2.580   6.666   6.774
  964TIP3    H124451   2.587   6.714   6.692
  964TIP3    H224452   2.656   6.607   6.774
  965TIP3   OH224453   6.202   1.540   2.944
  965TIP3    H124454   6.152   1.581   3.015
  965TIP3    H224455   6.212   1.449   2.971
  966TIP3   OH224456   4.779   5.955   7.187
  966TIP3    H124457   4.865   5.997   7.194
  966TIP3    H224458   4.757   5.958   7.094
  967TIP3   OH224459   2.545   3.017   7.255
  967TIP3    H124460   2.509   3.073   7.187
  967TIP3    H224461   2.597   2.952   7.208
  968TIP3   OH224462   4.603   5.322   8.691
  968TIP3    H124463   4.679   5.272   8.660
  968TIP3    H224464   4.599   5.398   8.632
  969TIP3   OH224465   3.735   4.556   2.246
  969TIP3    H124466   3.660   4.533   2.191
  969TIP3    H224467   3.742   4.483   2.308
  970TIP3   OH224468   0.729   0.052   1.985
  970TIP3    H124469   0.805   0.073   2.038
  970TIP3    H224470   0.745   6.817   1.954
  971TIP3   OH224471   0.974   2.335   7.889
  971TIP3    H124472   0.885   2.361   7.865
  971TIP3    H224473   1.019   2.325   7.805
  972TIP3   OH224474   0.291   4.494   7.660
  972TIP3    H124475   0.312   4.406   7.690
  972TIP3    H224476   0.358   4.513   7.594
  973TIP3   OH224477   5.820   5.297   8.131
  973TIP3    H124478   5.750   5.270   8.071
  973TIP3    H224479   5.776   5.315   8.213
  974TIP3   OH224480   2.335   2.350   0.922
  974TIP3    H124481   2.266   2.320   0.982
  974TIP3    H224482   2.383   2.416   0.972
  975TIP3   OH224483   4.370   0.556   2.126
  975TIP3    H124484   4.339   0.591   2.043
  975TIP3    H224485   4.458   0.594   2.138
  976TIP3   OH224486   0.970   2.631   0.817
  976TIP3    H124487   0.912   2.703   0.793
  976TIP3    H224488   0.969   2.572   0.742
  977TIP3   OH224489   3.187   0.050   6.452
  977TIP3    H124490   3.135   0.101   6.390
  977TIP3    H224491   3.222   0.115   6.513
  978TIP3   OH224492   1.273   1.345   7.779
  978TIP3    H124493   1.206   1.341   7.711
  978TIP3    H224494   1.251   1.273   7.838
  979TIP3   OH224495   6.118   5.908   7.908
  979TIP3    H124496   6.189   5.881   7.967
  979TIP3    H224497   6.044   5.853   7.933
  980TIP3   OH224498   2.118   4.842   7.143
  980TIP3    H124499   2.079   4.885   7.219
  980TIP3    H224500   2.210   4.868   7.145
  981TIP3   OH224501   1.297   3.101   7.353
  981TIP3    H124502   1.313   3.131   7.263
  981TIP3    H224503   1.384   3.102   7.394
  982TIP3   OH224504   6.106   2.077   1.158
  982TIP3    H124505   6.014   2.061   1.137
  982TIP3    H224506   6.106   2.163   1.200
  983TIP3   OH224507   4.665   0.823   6.842
  983TIP3    H124508   4.692   0.763   6.773
  983TIP3    H224509   4.699   0.908   6.815
  984TIP3   OH224510   1.018   0.744   7.953
  984TIP3    H124511   0.939   0.741   8.007
  984TIP3    H224512   1.074   0.809   7.995
  985TIP3   OH224513   5.462   1.940   7.219
  985TIP3    H124514   5.540   1.985   7.251
  985TIP3    H224515   5.426   1.895   7.296
  986TIP3   OH224516   5.228   4.865   0.876
  986TIP3    H124517   5.305   4.901   0.920
  986TIP3    H224518   5.263   4.816   0.802
  987TIP3   OH224519   3.007   5.440   6.383
  987TIP3    H124520   3.100   5.437   6.360
  987TIP3    H224521   2.985   5.351   6.410
  988TIP3   OH224522   5.847   6.322   8.612
  988TIP3    H124523   5.895   6.365   8.542
  988TIP3    H224524   5.915   6.285   8.670
  989TIP3   OH224525   2.456   1.054   8.110
  989TIP3    H124526   2.416   1.139   8.127
  989TIP3    H224527   2.388   1.004   8.066
  990TIP3   OH224528   3.514   1.237   2.307
  990TIP3    H124529   3.480   1.316   2.350
  990TIP3    H224530   3.445   1.212   2.246
  991TIP3   OH224531   3.077   4.165   1.320
  991TIP3    H124532   3.028   4.084   1.306
  991TIP3    H224533   3.124   4.180   1.238
  992TIP3   OH224534   3.183   5.317   8.253
  992TIP3    H124535   3.110   5.281   8.303
  992TIP3    H224536   3.218   5.386   8.309
  993TIP3   OH224537   5.427   5.295   1.069
  993TIP3    H124538   5.493   5.286   1.137
  993TIP3    H224539   5.453   5.373   1.020
  994TIP3   OH224540   4.828   1.486   1.121
  994TIP3    H124541   4.754   1.480   1.061
  994TIP3    H224542   4.890   1.419   1.090
  995TIP3   OH224543   6.460   5.257   2.093
  995TIP3    H124544   6.403   5.190   2.130
  995TIP3    H224545   6.454   5.330   2.155
  996TIP3   OH224546   5.425   3.214   6.924
  996TIP3    H124547   5.490   3.235   6.856
  996TIP3    H224548   5.387   3.132   6.895
  997TIP3   OH224549   4.021   2.563   7.518
  997TIP3    H124550   3.995   2.623   7.587
  997TIP3    H224551   4.048   2.483   7.564
  998TIP3   OH224552   6.354   5.241   1.048
  998TIP3    H124553   6.436   5.273   1.011
  998TIP3    H224554   6.370   5.149   1.068
  999TIP3   OH224555   1.828   2.376   7.590
  999TIP3    H124556   1.909   2.419   7.564
  999TIP3    H224557   1.826   2.296   7.537
 1000TIP3   OH224558   1.453   3.085   1.763
 1000TIP3    H124559   1.430   2.995   1.786
 1000TIP3    H224560   1.377   3.137   1.788
 1001TIP3   OH224561   2.242   5.409   0.531
 1001TIP3    H124562   2.284   5.396   0.447
 1001TIP3    H224563   2.151   5.383   0.517
 1002TIP3   OH224564   6.630   3.843   1.977
 1002TIP3    H124565   6.700   3.893   1.936
 1002TIP3    H224566   6.556   3.904   1.979
 1003TIP3   OH224567   4.504   4.141   7.038
 1003TIP3    H124568   4.540   4.211   7.092
 1003TIP3    H224569   4.501   4.065   7.096
 1004TIP3   OH224570   6.753   1.317   0.136
 1004TIP3    H124571   6.735   1.310   0.042
 1004TIP3    H224572   6.834   1.367   0.141
 1005TIP3   OH224573   4.589   0.491   0.208
 1005TIP3    H124574   4.597   0.587   0.201
 1005TIP3    H224575   4.509   0.477   0.258
 1006TIP3   OH224576   5.950   1.917   2.908
 1006TIP3    H124577   6.015   1.889   2.844
 1006TIP3    H224578   5.925   2.005   2.880
 1007TIP3   OH224579   0.615   3.402   0.510
 1007TIP3    H124580   0.637   3.314   0.477
 1007TIP3    H224581   0.681   3.459   0.470
 1008TIP3   OH224582   3.310   4.212   7.262
 1008TIP3    H124583   3.331   4.305   7.270
 1008TIP3    H224584   3.254   4.207   7.185
 1009TIP3   OH224585   3.656   1.458   0.881
 1009TIP3    H124586   3.705   1.539   0.887
 1009TIP3    H224587   3.701   1.397   0.939
 1010TIP3   OH224588   5.697   6.577   2.783
 1010TIP3    H124589   5.762   6.645   2.800
 1010TIP3    H224590   5.629   6.621   2.731
 1011TIP3   OH224591   5.987   6.513   8.429
 1011TIP3    H124592   6.070   6.543   8.391
 1011TIP3    H224593   5.935   6.593   8.438
 1012TIP3   OH224594   4.033   0.124   0.538
 1012TIP3    H124595   3.987   0.099   0.618
 1012TIP3    H224596   4.031   0.045   0.483
 1013TIP3   OH224597   3.087   4.863   7.504
 1013TIP3    H124598   3.177   4.867   7.537
 1013TIP3    H224599   3.058   4.774   7.525
 1014TIP3   OH224600   6.095   5.434   7.097
 1014TIP3    H124601   6.097   5.381   7.017
 1014TIP3    H224602   6.183   5.424   7.135
 1015TIP3   OH224603   1.277   0.574   7.907
 1015TIP3    H124604   1.194   0.606   7.944
 1015TIP3    H224605   1.316   0.522   7.977
 1016TIP3   OH224606   6.041   0.982   0.350
 1016TIP3    H124607   6.084   0.985   0.436
 1016TIP3    H224608   5.962   1.035   0.361
 1017TIP3   OH224609   0.733   0.274   0.517
 1017TIP3    H124610   0.694   0.263   0.430
 1017TIP3    H224611   0.805   0.211   0.518
 1018TIP3   OH224612   6.591   2.453   1.732
 1018TIP3    H124613   6.553   2.387   1.673
 1018TIP3    H224614   6.580   2.536   1.685
 1019TIP3   OH224615   3.003   1.810   0.068
 1019TIP3    H124616   3.044   1.811   8.708
 1019TIP3    H224617   3.000   1.717   0.092
 1020TIP3   OH224618   5.583   0.890   0.852
 1020TIP3    H124619   5.521   0.885   0.924
 1020TIP3    H224620   5.665   0.857   0.888
 1021TIP3   OH224621   6.230   6.387   0.487
 1021TIP3    H124622   6.201   6.307   0.444
 1021TIP3    H224623   6.152   6.421   0.530
 1022TIP3   OH224624   4.271   1.436   7.441
 1022TIP3    H124625   4.260   1.520   7.396
 1022TIP3    H224626   4.302   1.376   7.373
 1023TIP3   OH224627   0.167   1.945   8.668
 1023TIP3    H124628   0.154   2.015   0.006
 1023TIP3    H224629   0.084   1.897   8.668
 1024TIP3   OH224630   2.999   2.518   2.222
 1024TIP3    H124631   2.930   2.542   2.285
 1024TIP3    H224632   3.081   2.527   2.271
 1025TIP3   OH224633   1.484   5.939   7.894
 1025TIP3    H124634   1.403   5.890   7.876
 1025TIP3    H224635   1.499   5.989   7.814
 1026TIP3   OH224636   1.713   5.779   2.279
 1026TIP3    H124637   1.766   5.819   2.347
 1026TIP3    H224638   1.693   5.691   2.312
 1027TIP3   OH224639   1.980   0.102   8.240
 1027TIP3    H124640   2.028   0.178   8.209
 1027TIP3    H224641   1.914   0.137   8.300
 1028TIP3   OH224642   2.766   6.435   0.363
 1028TIP3    H124643   2.786   6.343   0.380
 1028TIP3    H224644   2.851   6.476   0.351
 1029TIP3   OH224645   2.618   2.255   7.818
 1029TIP3    H124646   2.676   2.270   7.893
 1029TIP3    H224647   2.616   2.339   7.772
 1030TIP3   OH224648   6.258   3.408   0.921
 1030TIP3    H124649   6.164   3.411   0.938
 1030TIP3    H224650   6.287   3.325   0.957
 1031TIP3   OH224651   6.267   1.307   6.332
 1031TIP3    H124652   6.186   1.268   6.363
 1031TIP3    H224653   6.335   1.272   6.389
 1032TIP3   OH224654   2.540   0.410   2.429
 1032TIP3    H124655   2.598   0.486   2.437
 1032TIP3    H224656   2.455   0.441   2.460
 1033TIP3   OH224657   2.236   4.787   0.199
 1033TIP3    H124658   2.314   4.733   0.208
 1033TIP3    H224659   2.249   4.835   0.117
 1034TIP3   OH224660   0.160   4.762   0.262
 1034TIP3    H124661   0.209   4.818   0.202
 1034TIP3    H224662   0.073   4.802   0.266
 1035TIP3   OH224663   5.367   0.499   1.389
 1035TIP3    H124664   5.305   0.489   1.317
 1035TIP3    H224665   5.327   0.452   1.462
 1036TIP3   OH224666   2.581   5.809   8.377
 1036TIP3    H124667   2.495   5.776   8.403
 1036TIP3    H224668   2.567   5.844   8.289
 1037TIP3   OH224669   3.123   0.714   0.976
 1037TIP3    H124670   3.173   0.794   0.991
 1037TIP3    H224671   3.189   0.646   0.966
 1038TIP3   OH224672   6.560   6.341   7.060
 1038TIP3    H124673   6.634   6.299   7.017
 1038TIP3    H224674   6.484   6.291   7.032
 1039TIP3   OH224675   2.979   4.623   7.798
 1039TIP3    H124676   3.015   4.709   7.820
 1039TIP3    H224677   2.981   4.620   7.702
 1040TIP3   OH224678   5.407   5.120   8.620
 1040TIP3    H124679   5.369   5.166   8.545
 1040TIP3    H224680   5.351   5.043   8.632
 1041TIP3   OH224681   4.787   0.096   0.707
 1041TIP3    H124682   4.757   0.077   0.619
 1041TIP3    H224683   4.732   0.168   0.737
 1042TIP3   OH224684   6.290   2.279   7.602
 1042TIP3    H124685   6.361   2.217   7.615
 1042TIP3    H224686   6.267   2.271   7.509
 1043TIP3   OH224687   2.532   6.461   1.560
 1043TIP3    H124688   2.437   6.449   1.569
 1043TIP3    H224689   2.553   6.419   1.476
 1044TIP3   OH224690   0.097   4.588   8.704
 1044TIP3    H124691   0.083   4.500   0.012
 1044TIP3    H224692   0.192   4.596   8.696
 1045TIP3   OH224693   3.498   6.850   6.624
 1045TIP3    H124694   3.403   6.842   6.635
 1045TIP3    H224695   3.519   0.081   6.663
 1046TIP3   OH224696   5.705   4.412   8.684
 1046TIP3    H124697   5.623   4.373   8.714
 1046TIP3    H224698   5.759   4.337   8.657
 1047TIP3   OH224699   4.197   3.239   1.390
 1047TIP3    H124700   4.140   3.268   1.462
 1047TIP3    H224701   4.281   3.282   1.409
 1048TIP3   OH224702   2.239   1.722   8.499
 1048TIP3    H124703   2.231   1.776   8.578
 1048TIP3    H224704   2.157   1.738   8.452
 1049TIP3   OH224705   3.458   0.922   1.174
 1049TIP3    H124706   3.392   0.853   1.169
 1049TIP3    H224707   3.446   0.960   1.261
 1050TIP3   OH224708   6.302   2.335   8.680
 1050TIP3    H124709   6.368   2.399   8.653
 1050TIP3    H224710   6.218   2.375   8.657
 1051TIP3   OH224711   4.397   5.595   7.760
 1051TIP3    H124712   4.339   5.535   7.713
 1051TIP3    H224713   4.482   5.583   7.719
 1052TIP3   OH224714   0.844   2.930   1.446
 1052TIP3    H124715   0.854   2.986   1.523
 1052TIP3    H224716   0.898   2.972   1.379
 1053TIP3   OH224717   3.577   3.272   8.631
 1053TIP3    H124718   3.502   3.330   8.624
 1053TIP3    H224719   3.615   3.271   8.543
 1054TIP3   OH224720   3.177   5.640   8.289
 1054TIP3    H124721   3.207   5.622   8.200
 1054TIP3    H224722   3.164   5.735   8.292
 1055TIP3   OH224723   1.554   2.709   2.280
 1055TIP3    H124724   1.615   2.709   2.354
 1055TIP3    H224725   1.473   2.744   2.317
 1056TIP3   OH224726   3.728   4.603   7.627
 1056TIP3    H124727   3.806   4.553   7.605
 1056TIP3    H224728   3.750   4.645   7.711
 1057TIP3   OH224729   1.510   1.273   7.628
 1057TIP3    H124730   1.493   1.333   7.701
 1057TIP3    H224731   1.563   1.324   7.567
 1058TIP3   OH224732   0.699   6.495   8.291
 1058TIP3    H124733   0.745   6.538   8.219
 1058TIP3    H224734   0.741   6.409   8.298
 1059TIP3   OH224735   2.162   3.738   1.194
 1059TIP3    H124736   2.092   3.732   1.128
 1059TIP3    H224737   2.147   3.662   1.251
 1060TIP3   OH224738   3.327   1.874   1.958
 1060TIP3    H124739   3.285   1.889   2.043
 1060TIP3    H224740   3.367   1.787   1.966
 1061TIP3   OH224741   0.432   6.485   7.499
 1061TIP3    H124742   0.388   6.473   7.583
 1061TIP3    H224743   0.518   6.446   7.511
 1062TIP3   OH224744   3.875   0.389   0.077
 1062TIP3    H124745   3.787   0.422   0.056
 1062TIP3    H224746   3.879   0.392   0.172
 1063TIP3   OH224747   5.356   6.242   7.383
 1063TIP3    H124748   5.405   6.193   7.316
 1063TIP3    H224749   5.267   6.247   7.347
 1064TIP3   OH224750   3.569   4.186   8.039
 1064TIP3    H124751   3.648   4.240   8.035
 1064TIP3    H224752   3.569   4.136   7.957
 1065TIP3   OH224753   4.234   0.394   1.703
 1065TIP3    H124754   4.295   0.321   1.712
 1065TIP3    H224755   4.163   0.359   1.649
 1066TIP3   OH224756   2.942   6.685   7.928
 1066TIP3    H124757   2.895   6.698   8.010
 1066TIP3    H224758   2.946   6.590   7.917
 1067TIP3   OH224759   0.687   1.730   1.150
 1067TIP3    H124760   0.732   1.695   1.227
 1067TIP3    H224761   0.668   1.821   1.174
 1068TIP3   OH224762   2.582   6.570   7.654
 1068TIP3    H124763   2.496   6.569   7.697
 1068TIP3    H224764   2.630   6.641   7.698
 1069TIP3   OH224765   2.298   2.956   1.545
 1069TIP3    H124766   2.347   2.912   1.476
 1069TIP3    H224767   2.257   2.885   1.595
 1070TIP3   OH224768   4.586   0.144   7.741
 1070TIP3    H124769   4.602   0.054   7.768
 1070TIP3    H224770   4.591   0.195   7.822
 1071TIP3   OH224771   1.901   1.464   1.648
 1071TIP3    H124772   1.975   1.485   1.705
 1071TIP3    H224773   1.874   1.548   1.612
 1072TIP3   OH224774   3.551   2.778   6.797
 1072TIP3    H124775   3.559   2.872   6.781
 1072TIP3    H224776   3.461   2.766   6.827
 1073TIP3   OH224777   3.815   5.745   1.169
 1073TIP3    H124778   3.791   5.653   1.178
 1073TIP3    H224779   3.772   5.788   1.244
 1074TIP3   OH224780   6.036   3.447   8.228
 1074TIP3    H124781   6.052   3.362   8.189
 1074TIP3    H224782   6.107   3.460   8.290
 1075TIP3   OH224783   4.598   5.629   7.379
 1075TIP3    H124784   4.527   5.682   7.416
 1075TIP3    H224785   4.553   5.555   7.338
 1076TIP3   OH224786   6.051   2.940   0.961
 1076TIP3    H124787   6.011   3.002   1.021
 1076TIP3    H224788   6.143   2.967   0.955
 1077TIP3   OH224789   3.336   0.879   8.596
 1077TIP3    H124790   3.324   0.875   8.691
 1077TIP3    H224791   3.250   0.861   8.560
 1078TIP3   OH224792   0.656   2.368   7.543
 1078TIP3    H124793   0.607   2.288   7.525
 1078TIP3    H224794   0.689   2.356   7.633
 1079TIP3   OH224795   6.517   2.379   2.002
 1079TIP3    H124796   6.545   2.394   1.911
 1079TIP3    H224797   6.464   2.456   2.024
 1080TIP3   OH224798   3.333   0.289   0.452
 1080TIP3    H124799   3.336   0.231   0.376
 1080TIP3    H224800   3.281   0.241   0.516
 1081TIP3   OH224801   2.308   6.219   6.138
 1081TIP3    H124802   2.218   6.187   6.150
 1081TIP3    H224803   2.303   6.312   6.162
 1082TIP3   OH224804   4.140   0.587   0.744
 1082TIP3    H124805   4.104   0.582   0.656
 1082TIP3    H224806   4.201   0.513   0.749
 1083TIP3   OH224807   6.041   1.125   7.967
 1083TIP3    H124808   6.071   1.211   7.996
 1083TIP3    H224809   6.118   1.084   7.929
 1084TIP3   OH224810   2.201   2.126   0.810
 1084TIP3    H124811   2.260   2.198   0.830
 1084TIP3    H224812   2.132   2.132   0.876
 1085TIP3   OH224813   6.366   6.691   7.627
 1085TIP3    H124814   6.280   6.733   7.636
 1085TIP3    H224815   6.428   6.763   7.626
 1086TIP3   OH224816   0.213   3.420   0.386
 1086TIP3    H124817   0.200   3.514   0.370
 1086TIP3    H224818   0.133   3.392   0.431
 1087TIP3   OH224819   2.546   2.750   0.713
 1087TIP3    H124820   2.576   2.761   0.803
 1087TIP3    H224821   2.556   2.836   0.673
 1088TIP3   OH224822   2.459   2.373   1.530
 1088TIP3    H124823   2.509   2.382   1.449
 1088TIP3    H224824   2.420   2.286   1.524
 1089TIP3   OH224825   6.553   3.749   8.182
 1089TIP3    H124826   6.461   3.732   8.162
 1089TIP3    H224827   6.601   3.685   8.129
 1090TIP3   OH224828   1.986   5.251   7.209
 1090TIP3    H124829   2.013   5.159   7.200
 1090TIP3    H224830   1.904   5.257   7.160
 1091TIP3   OH224831   6.594   2.253   6.950
 1091TIP3    H124832   6.588   2.320   7.018
 1091TIP3    H224833   6.687   2.253   6.925
 1092TIP3   OH224834   6.780   2.056   7.549
 1092TIP3    H124835   6.786   1.961   7.538
 1092TIP3    H224836   6.770   2.090   7.460
 1093TIP3   OH224837   2.027   6.706   8.374
 1093TIP3    H124838   2.017   6.728   8.466
 1093TIP3    H224839   2.032   6.790   8.329
 1094TIP3   OH224840   5.909   0.555   2.029
 1094TIP3    H124841   5.847   0.620   2.062
 1094TIP3    H224842   5.988   0.568   2.080
 1095TIP3   OH224843   4.172   2.119   7.545
 1095TIP3    H124844   4.105   2.059   7.510
 1095TIP3    H224845   4.124   2.200   7.563
 1096TIP3   OH224846   2.206   6.736   7.530
 1096TIP3    H124847   2.258   6.803   7.573
 1096TIP3    H224848   2.256   6.656   7.540
 1097TIP3   OH224849   0.223   2.114   1.024
 1097TIP3    H124850   0.277   2.045   1.060
 1097TIP3    H224851   0.156   2.069   0.973
 1098TIP3   OH224852   4.558   1.732   0.944
 1098TIP3    H124853   4.477   1.774   0.914
 1098TIP3    H224854   4.614   1.729   0.867
 1099TIP3   OH224855   5.993   3.463   6.652
 1099TIP3    H124856   5.934   3.489   6.582
 1099TIP3    H224857   5.956   3.381   6.686
 1100TIP3   OH224858   6.753   4.051   2.475
 1100TIP3    H124859   6.774   4.141   2.499
 1100TIP3    H224860   6.836   4.004   2.482
 1101TIP3   OH224861   2.336   5.673   7.204
 1101TIP3    H124862   2.376   5.714   7.128
 1101TIP3    H224863   2.285   5.742   7.245
 1102TIP3   OH224864   6.668   5.988   1.445
 1102TIP3    H124865   6.629   5.944   1.370
 1102TIP3    H224866   6.723   6.056   1.407
 1103TIP3   OH224867   0.063   3.999   0.126
 1103TIP3    H124868   0.092   3.950   0.203
 1103TIP3    H224869   0.130   4.066   0.113
 1104TIP3   OH224870   5.349   2.972   1.495
 1104TIP3    H124871   5.370   3.048   1.549
 1104TIP3    H224872   5.391   2.989   1.411
 1105TIP3   OH224873   0.884   4.825   8.459
 1105TIP3    H124874   0.880   4.748   8.403
 1105TIP3    H224875   0.833   4.801   8.536
 1106TIP3   OH224876   1.711   4.293   1.851
 1106TIP3    H124877   1.675   4.288   1.939
 1106TIP3    H224878   1.752   4.208   1.836
 1107TIP3   OH224879   4.588   2.057   0.828
 1107TIP3    H124880   4.506   2.008   0.826
 1107TIP3    H224881   4.633   2.026   0.906
 1108TIP3   OH224882   4.856   1.426   7.371
 1108TIP3    H124883   4.879   1.471   7.290
 1108TIP3    H224884   4.764   1.401   7.360
 1109TIP3   OH224885   2.740   4.129   8.458
 1109TIP3    H124886   2.727   4.052   8.514
 1109TIP3    H224887   2.805   4.100   8.393
 1110TIP3   OH224888   1.263   3.200   0.734
 1110TIP3    H124889   1.345   3.200   0.784
 1110TIP3    H224890   1.291   3.189   0.643
 1111TIP3   OH224891   1.005   0.266   8.545
 1111TIP3    H124892   0.927   0.303   8.505
 1111TIP3    H224893   1.044   0.338   8.594
 1112TIP3   OH224894   4.621   1.930   2.360
 1112TIP3    H124895   4.640   1.996   2.293
 1112TIP3    H224896   4.698   1.874   2.361
 1113TIP3   OH224897   5.914   1.396   2.575
 1113TIP3    H124898   5.972   1.332   2.533
 1113TIP3    H224899   5.973   1.452   2.627
 1114TIP3   OH224900   6.283   4.486   6.820
 1114TIP3    H124901   6.239   4.428   6.758
 1114TIP3    H224902   6.376   4.465   6.811
 1115TIP3   OH224903   1.547   1.956   6.630
 1115TIP3    H124904   1.510   1.872   6.603
 1115TIP3    H224905   1.607   1.934   6.701
 1116TIP3   OH224906   0.514   0.637   1.182
 1116TIP3    H124907   0.456   0.708   1.156
 1116TIP3    H224908   0.468   0.558   1.156
 1117TIP3   OH224909   5.079   5.268   1.128
 1117TIP3    H124910   5.078   5.349   1.077
 1117TIP3    H224911   5.133   5.289   1.205
 1118TIP3   OH224912   4.351   1.939   2.104
 1118TIP3    H124913   4.349   1.844   2.104
 1118TIP3    H224914   4.283   1.965   2.166
 1119TIP3   OH224915   3.091   6.759   1.123
 1119TIP3    H124916   3.149   6.744   1.048
 1119TIP3    H224917   3.035   6.681   1.126
 1120TIP3   OH224918   1.381   5.731   0.540
 1120TIP3    H124919   1.401   5.777   0.458
 1120TIP3    H224920   1.465   5.725   0.585
 1121TIP3   OH224921   6.423   3.716   1.794
 1121TIP3    H124922   6.421   3.697   1.888
 1121TIP3    H224923   6.346   3.672   1.759
 1122TIP3   OH224924   2.503   4.609   0.565
 1122TIP3    H124925   2.409   4.616   0.584
 1122TIP3    H224926   2.538   4.551   0.632
 1123TIP3   OH224927   3.135   3.547   8.459
 1123TIP3    H124928   3.227   3.553   8.433
 1123TIP3    H224929   3.123   3.617   8.524
 1124TIP3   OH224930   6.028   4.558   6.947
 1124TIP3    H124931   6.045   4.556   6.853
 1124TIP3    H224932   5.934   4.539   6.955
 1125TIP3   OH224933   3.964   3.020   2.170
 1125TIP3    H124934   3.954   2.925   2.162
 1125TIP3    H224935   4.057   3.033   2.191
 1126TIP3   OH224936   2.852   4.503   7.073
 1126TIP3    H124937   2.882   4.592   7.059
 1126TIP3    H224938   2.761   4.512   7.100
 1127TIP3   OH224939   2.876   1.378   8.216
 1127TIP3    H124940   2.827   1.385   8.297
 1127TIP3    H224941   2.935   1.304   8.229
 1128TIP3   OH224942   0.398   2.765   7.579
 1128TIP3    H124943   0.438   2.851   7.590
 1128TIP3    H224944   0.464   2.713   7.532
 1129TIP3   OH224945   0.423   1.378   8.505
 1129TIP3    H124946   0.403   1.441   8.574
 1129TIP3    H224947   0.515   1.396   8.483
 1130TIP3   OH224948   6.757   2.688   7.606
 1130TIP3    H124949   6.742   2.725   7.693
 1130TIP3    H224950   6.771   2.764   7.549
 1131TIP3   OH224951   5.749   2.518   0.232
 1131TIP3    H124952   5.671   2.495   0.182
 1131TIP3    H224953   5.730   2.491   0.322
 1132TIP3   OH224954   5.984   3.400   6.981
 1132TIP3    H124955   5.957   3.333   6.919
 1132TIP3    H224956   5.998   3.478   6.928
 1133TIP3   OH224957   3.819   2.784   0.578
 1133TIP3    H124958   3.888   2.795   0.514
 1133TIP3    H224959   3.861   2.801   0.663
 1134TIP3   OH224960   3.806   0.112   1.369
 1134TIP3    H124961   3.890   0.149   1.345
 1134TIP3    H224962   3.768   0.080   1.287
 1135TIP3   OH224963   5.032   1.942   6.360
 1135TIP3    H124964   5.115   1.973   6.397
 1135TIP3    H224965   5.047   1.849   6.344
 1136TIP3   OH224966   5.817   0.234   7.721
 1136TIP3    H124967   5.818   0.140   7.738
 1136TIP3    H224968   5.788   0.273   7.804
 1137TIP3   OH224969   1.054   5.023   7.150
 1137TIP3    H124970   0.962   4.996   7.147
 1137TIP3    H224971   1.092   4.969   7.219
 1138TIP3   OH224972   0.201   1.591   6.755
 1138TIP3    H124973   0.160   1.522   6.704
 1138TIP3    H224974   0.276   1.549   6.798
 1139TIP3   OH224975   4.636   6.522   1.632
 1139TIP3    H124976   4.726   6.494   1.616
 1139TIP3    H224977   4.603   6.460   1.698
 1140TIP3   OH224978   5.281   3.787   6.911
 1140TIP3    H124979   5.277   3.775   6.816
 1140TIP3    H224980   5.206   3.740   6.944
 1141TIP3   OH224981   2.838   6.003   7.842
 1141TIP3    H124982   2.754   5.960   7.859
 1141TIP3    H224983   2.892   5.982   7.918
 1142TIP3   OH224984   5.027   0.023   8.703
 1142TIP3    H124985   5.115   0.060   8.701
 1142TIP3    H224986   4.976   0.079   8.644
 1143TIP3   OH224987   4.015   1.503   0.790
 1143TIP3    H124988   4.061   1.519   0.873
 1143TIP3    H224989   4.075   1.446   0.741
 1144TIP3   OH224990   1.212   3.536   6.425
 1144TIP3    H124991   1.132   3.528   6.476
 1144TIP3    H224992   1.281   3.547   6.491
 1145TIP3   OH224993   0.981   2.867   0.995
 1145TIP3    H124994   1.004   2.897   0.907
 1145TIP3    H224995   1.057   2.891   1.048
 1146TIP3   OH224996   6.380   1.635   7.585
 1146TIP3    H124997   6.455   1.687   7.555
 1146TIP3    H224998   6.411   1.592   7.664
 1147TIP3   OH224999   3.755   1.577   2.420
 1147TIP3    H125000   3.712   1.495   2.445
 1147TIP3    H225001   3.685   1.631   2.382
 1148TIP3   OH225002   6.686   1.220   2.257
 1148TIP3    H125003   6.613   1.181   2.208
 1148TIP3    H225004   6.709   1.298   2.207
 1149TIP3   OH225005   1.347   5.329   8.574
 1149TIP3    H125006   1.300   5.337   8.491
 1149TIP3    H225007   1.293   5.270   8.627
 1150TIP3   OH225008   2.620   2.362   7.402
 1150TIP3    H125009   2.575   2.442   7.373
 1150TIP3    H225010   2.706   2.366   7.360
 1151TIP3   OH225011   0.650   4.960   7.748
 1151TIP3    H125012   0.728   4.972   7.694
 1151TIP3    H225013   0.628   5.048   7.779
 1152TIP3   OH225014   5.997   0.010   0.772
 1152TIP3    H125015   5.921   0.014   0.831
 1152TIP3    H225016   5.980   6.789   0.715
 1153TIP3   OH225017   6.547   0.030   7.594
 1153TIP3    H125018   6.535   0.048   7.500
 1153TIP3    H225019   6.607   6.810   7.596
 1154TIP3   OH225020   5.563   1.864   1.382
 1154TIP3    H125021   5.491   1.916   1.416
 1154TIP3    H225022   5.579   1.898   1.294
 1155TIP3   OH225023   5.983   1.861   0.109
 1155TIP3    H125024   6.037   1.849   0.031
 1155TIP3    H225025   6.015   1.796   0.171
 1156TIP3   OH225026   6.200   2.864   7.051
 1156TIP3    H125027   6.134   2.795   7.059
 1156TIP3    H225028   6.240   2.850   6.965
 1157TIP3   OH225029   3.977   4.925   7.959
 1157TIP3    H125030   3.985   4.881   8.043
 1157TIP3    H225031   4.017   5.011   7.973
 1158TIP3   OH225032   5.560   4.167   6.193
 1158TIP3    H125033   5.473   4.160   6.232
 1158TIP3    H225034   5.556   4.248   6.141
 1159TIP3   OH225035   1.513   4.256   7.954
 1159TIP3    H125036   1.558   4.208   7.885
 1159TIP3    H225037   1.582   4.304   8.000
 1160TIP3   OH225038   0.941   1.125   7.109
 1160TIP3    H125039   0.869   1.071   7.077
 1160TIP3    H225040   0.949   1.195   7.044
 1161TIP3   OH225041   4.994   1.719   8.002
 1161TIP3    H125042   5.032   1.642   7.958
 1161TIP3    H225043   5.060   1.744   8.067
 1162TIP3   OH225044   6.819   0.243   7.788
 1162TIP3    H125045   0.025   0.235   7.862
 1162TIP3    H225046   6.733   0.226   7.825
 1163TIP3   OH225047   6.282   4.968   7.432
 1163TIP3    H125048   6.198   4.936   7.463
 1163TIP3    H225049   6.338   4.966   7.510
 1164TIP3   OH225050   3.066   2.767   2.082
 1164TIP3    H125051   3.002   2.747   2.013
 1164TIP3    H225052   3.106   2.682   2.103
 1165TIP3   OH225053   2.899   4.829   0.868
 1165TIP3    H125054   2.827   4.891   0.855
 1165TIP3    H225055   2.890   4.766   0.797
 1166TIP3   OH225056   1.174   2.177   7.691
 1166TIP3    H125057   1.259   2.155   7.729
 1166TIP3    H225058   1.193   2.243   7.625
 1167TIP3   OH225059   4.122   4.976   0.958
 1167TIP3    H125060   4.111   4.925   0.878
 1167TIP3    H225061   4.209   4.951   0.990
 1168TIP3   OH225062   6.062   6.041   2.133
 1168TIP3    H125063   6.053   6.091   2.214
 1168TIP3    H225064   6.032   5.953   2.156
 1169TIP3   OH225065   2.431   6.197   7.059
 1169TIP3    H125066   2.436   6.102   7.066
 1169TIP3    H225067   2.519   6.227   7.084
 1170TIP3   OH225068   3.956   1.332   1.243
 1170TIP3    H125069   4.020   1.296   1.181
 1170TIP3    H225070   3.996   1.319   1.329
 1171TIP3   OH225071   2.220   0.015   7.977
 1171TIP3    H125072   2.166   0.075   7.925
 1171TIP3    H225073   2.174   6.785   7.971
 1172TIP3   OH225074   0.237   2.505   0.407
 1172TIP3    H125075   0.300   2.439   0.379
 1172TIP3    H225076   0.286   2.564   0.464
 1173TIP3   OH225077   4.795   5.361   2.338
 1173TIP3    H125078   4.786   5.285   2.395
 1173TIP3    H225079   4.706   5.379   2.308
 1174TIP3   OH225080   3.396   2.956   0.809
 1174TIP3    H125081   3.410   2.950   0.715
 1174TIP3    H225082   3.398   2.866   0.839
 1175TIP3   OH225083   6.405   5.620   0.278
 1175TIP3    H125084   6.316   5.627   0.314
 1175TIP3    H225085   6.443   5.707   0.292
 1176TIP3   OH225086   3.950   4.451   1.432
 1176TIP3    H125087   3.993   4.536   1.422
 1176TIP3    H225088   4.007   4.401   1.490
 1177TIP3   OH225089   1.195   5.897   6.614
 1177TIP3    H125090   1.119   5.953   6.604
 1177TIP3    H225091   1.175   5.843   6.691
 1178TIP3   OH225092   4.924   6.133   1.020
 1178TIP3    H125093   4.829   6.141   1.009
 1178TIP3    H225094   4.953   6.221   1.043
 1179TIP3   OH225095   3.717   4.700   8.647
 1179TIP3    H125096   3.727   4.630   8.712
 1179TIP3    H225097   3.663   4.765   8.691
 1180TIP3   OH225098   1.648   1.705   6.839
 1180TIP3    H125099   1.740   1.711   6.865
 1180TIP3    H225100   1.644   1.628   6.781
 1181TIP3   OH225101   0.150   3.407   7.767
 1181TIP3    H125102   0.222   3.440   7.714
 1181TIP3    H225103   0.113   3.485   7.808
 1182TIP3   OH225104   1.770   3.849   0.431
 1182TIP3    H125105   1.822   3.810   0.361
 1182TIP3    H225106   1.789   3.795   0.508
 1183TIP3   OH225107   4.611   6.044   0.287
 1183TIP3    H125108   4.638   6.114   0.228
 1183TIP3    H225109   4.625   5.963   0.238
 1184TIP3   OH225110   2.218   4.332   7.599
 1184TIP3    H125111   2.311   4.344   7.581
 1184TIP3    H225112   2.176   4.336   7.513
 1185TIP3   OH225113   2.796   6.289   7.678
 1185TIP3    H125114   2.812   6.328   7.764
 1185TIP3    H225115   2.804   6.194   7.693
 1186TIP3   OH225116   6.662   3.163   1.891
 1186TIP3    H125117   6.580   3.196   1.928
 1186TIP3    H225118   6.723   3.237   1.899
 1187TIP3   OH225119   0.771   1.459   2.182
 1187TIP3    H125120   0.737   1.376   2.215
 1187TIP3    H225121   0.750   1.523   2.251
 1188TIP3   OH225122   5.728   3.835   6.050
 1188TIP3    H125123   5.803   3.894   6.055
 1188TIP3    H225124   5.764   3.753   6.017
 1189TIP3   OH225125   6.744   2.216   8.135
 1189TIP3    H125126   6.667   2.226   8.077
 1189TIP3    H225127   6.808   2.170   8.081
 1190TIP3   OH225128   3.496   3.150   1.576
 1190TIP3    H125129   3.473   3.064   1.611
 1190TIP3    H225130   3.525   3.200   1.652
 1191TIP3   OH225131   3.656   5.154   1.220
 1191TIP3    H125132   3.598   5.090   1.262
 1191TIP3    H225133   3.736   5.150   1.272
 1192TIP3   OH225134   3.352   2.886   2.306
 1192TIP3    H125135   3.365   2.975   2.274
 1192TIP3    H225136   3.434   2.865   2.350
 1193TIP3   OH225137   5.884   1.688   2.115
 1193TIP3    H125138   5.882   1.640   2.198
 1193TIP3    H225139   5.939   1.634   2.058
 1194TIP3   OH225140   3.633   4.279   7.459
 1194TIP3    H125141   3.703   4.338   7.431
 1194TIP3    H225142   3.552   4.326   7.440
 1195TIP3   OH225143   5.253   6.738   8.404
 1195TIP3    H125144   5.179   6.798   8.391
 1195TIP3    H225145   5.225   6.679   8.474
 1196TIP3   OH225146   4.868   1.609   7.137
 1196TIP3    H125147   4.798   1.648   7.085
 1196TIP3    H225148   4.947   1.624   7.086
 1197TIP3   OH225149   2.451   3.185   7.012
 1197TIP3    H125150   2.409   3.114   6.965
 1197TIP3    H225151   2.504   3.229   6.946
 1198TIP3   OH225152   0.938   6.316   7.343
 1198TIP3    H125153   0.951   6.222   7.346
 1198TIP3    H225154   0.901   6.333   7.257
 1199TIP3   OH225155   0.853   0.451   1.959
 1199TIP3    H125156   0.792   0.379   1.939
 1199TIP3    H225157   0.917   0.412   2.019
 1200TIP3   OH225158   4.635   6.383   7.407
 1200TIP3    H125159   4.651   6.305   7.461
 1200TIP3    H225160   4.574   6.435   7.459
 1201TIP3   OH225161   6.596   6.765   0.387
 1201TIP3    H125162   6.531   6.788   0.321
 1201TIP3    H225163   6.680   6.790   0.349
 1202TIP3   OH225164   4.272   4.422   8.632
 1202TIP3    H125165   4.292   4.357   8.565
 1202TIP3    H225166   4.352   4.428   8.685
 1203TIP3   OH225167   5.096   2.053   0.783
 1203TIP3    H125168   5.134   2.028   0.699
 1203TIP3    H225169   5.114   2.147   0.791
 1204TIP3   OH225170   1.245   3.964   1.641
 1204TIP3    H125171   1.190   3.912   1.582
 1204TIP3    H225172   1.243   3.916   1.724
 1205TIP3   OH225173   2.890   4.390   1.213
 1205TIP3    H125174   2.897   4.303   1.253
 1205TIP3    H225175   2.797   4.401   1.194
 1206TIP3   OH225176   2.232   6.128   8.387
 1206TIP3    H125177   2.307   6.116   8.329
 1206TIP3    H225178   2.159   6.149   8.328
 1207TIP3   OH225179   2.829   2.119   1.238
 1207TIP3    H125180   2.760   2.079   1.184
 1207TIP3    H225181   2.884   2.045   1.263
 1208TIP3   OH225182   2.649   4.407   1.128
 1208TIP3    H125183   2.616   4.436   1.042
 1208TIP3    H225184   2.586   4.442   1.190
 1209TIP3   OH225185   0.983   5.408   1.305
 1209TIP3    H125186   0.954   5.480   1.249
 1209TIP3    H225187   1.019   5.344   1.244
 1210TIP3   OH225188   4.906   0.491   0.532
 1210TIP3    H125189   4.826   0.539   0.553
 1210TIP3    H225190   4.887   0.447   0.450
 1211TIP3   OH225191   4.190   0.885   0.062
 1211TIP3    H125192   4.224   0.925   0.142
 1211TIP3    H225193   4.097   0.870   0.080
 1212TIP3   OH225194   0.327   0.604   1.996
 1212TIP3    H125195   0.318   0.525   2.049
 1212TIP3    H225196   0.300   0.675   2.055
 1213TIP3   OH225197   2.786   3.318   1.406
 1213TIP3    H125198   2.858   3.354   1.354
 1213TIP3    H225199   2.825   3.243   1.451
 1214TIP3   OH225200   1.339   5.438   7.516
 1214TIP3    H125201   1.343   5.525   7.554
 1214TIP3    H225202   1.417   5.432   7.461
 1215TIP3   OH225203   0.069   2.133   1.272
 1215TIP3    H125204   0.121   2.109   1.349
 1215TIP3    H225205   0.130   2.181   1.216
 1216TIP3   OH225206   5.841   5.803   2.512
 1216TIP3    H125207   5.923   5.851   2.518
 1216TIP3    H225208   5.849   5.750   2.432
 1217TIP3   OH225209   2.006   3.821   8.040
 1217TIP3    H125210   1.947   3.779   7.978
 1217TIP3    H225211   2.025   3.906   8.001
 1218TIP3   OH225212   3.899   6.103   8.394
 1218TIP3    H125213   3.940   6.182   8.360
 1218TIP3    H225214   3.808   6.108   8.364
 1219TIP3   OH225215   3.770   5.478   1.229
 1219TIP3    H125216   3.683   5.461   1.192
 1219TIP3    H225217   3.768   5.436   1.315
 1220TIP3   OH225218   1.637   1.032   7.642
 1220TIP3    H125219   1.595   1.117   7.627
 1220TIP3    H225220   1.656   1.031   7.736
 1221TIP3   OH225221   3.394   3.644   1.262
 1221TIP3    H125222   3.412   3.589   1.338
 1221TIP3    H225223   3.398   3.733   1.296
 1222TIP3   OH225224   6.626   2.019   6.631
 1222TIP3    H125225   6.706   1.998   6.679
 1222TIP3    H225226   6.650   2.007   6.539
 1223TIP3   OH225227   5.692   5.645   8.645
 1223TIP3    H125228   5.606   5.605   8.632
 1223TIP3    H225229   5.753   5.585   8.600
 1224TIP3   OH225230   5.760   6.013   6.460
 1224TIP3    H125231   5.832   5.955   6.435
 1224TIP3    H225232   5.763   6.015   6.555
 1225TIP3   OH225233   5.772   4.269   8.080
 1225TIP3    H125234   5.684   4.261   8.044
 1225TIP3    H225235   5.763   4.332   8.152
 1226TIP3   OH225236   3.558   4.000   7.485
 1226TIP3    H125237   3.465   4.011   7.470
 1226TIP3    H225238   3.595   4.088   7.481
 1227TIP3   OH225239   1.460   0.338   7.556
 1227TIP3    H125240   1.391   0.286   7.514
 1227TIP3    H225241   1.540   0.290   7.536
 1228TIP3   OH225242   0.983   4.193   1.187
 1228TIP3    H125243   0.918   4.200   1.117
 1228TIP3    H225244   1.062   4.162   1.143
 1229TIP3   OH225245   6.284   5.115   8.389
 1229TIP3    H125246   6.267   5.085   8.300
 1229TIP3    H225247   6.327   5.041   8.431
 1230TIP3   OH225248   5.932   3.372   1.679
 1230TIP3    H125249   5.891   3.457   1.694
 1230TIP3    H225250   5.909   3.320   1.756
 1231TIP3   OH225251   4.756   4.512   0.055
 1231TIP3    H125252   4.709   4.430   0.040
 1231TIP3    H225253   4.847   4.486   0.072
 1232TIP3   OH225254   0.283   3.425   7.510
 1232TIP3    H125255   0.301   3.519   7.519
 1232TIP3    H225256   0.225   3.419   7.434
 1233TIP3   OH225257   1.588   6.701   1.485
 1233TIP3    H125258   1.550   6.618   1.456
 1233TIP3    H225259   1.649   6.725   1.415
 1234TIP3   OH225260   1.984   3.542   6.544
 1234TIP3    H125261   1.949   3.536   6.455
 1234TIP3    H225262   2.078   3.528   6.533
 1235TIP3   OH225263   5.672   3.011   7.428
 1235TIP3    H125264   5.641   2.928   7.464
 1235TIP3    H225265   5.756   2.989   7.386
 1236TIP3   OH225266   4.981   2.546   0.116
 1236TIP3    H125267   4.929   2.563   0.037
 1236TIP3    H225268   5.035   2.471   0.093
 1237TIP3   OH225269   5.159   1.838   6.646
 1237TIP3    H125270   5.107   1.761   6.623
 1237TIP3    H225271   5.196   1.867   6.562
 1238TIP3   OH225272   2.502   3.634   6.329
 1238TIP3    H125273   2.416   3.650   6.290
 1238TIP3    H225274   2.564   3.665   6.263
 1239TIP3   OH225275   3.709   0.408   1.113
 1239TIP3    H125276   3.775   0.469   1.145
 1239TIP3    H225277   3.756   0.327   1.096
 1240TIP3   OH225278   0.948   2.116   1.679
 1240TIP3    H125279   0.919   2.072   1.759
 1240TIP3    H225280   1.021   2.170   1.706
 1241TIP3   OH225281   0.410   3.275   2.403
 1241TIP3    H125282   0.329   3.242   2.443
 1241TIP3    H225283   0.386   3.362   2.370
 1242TIP3   OH225284   3.433   1.468   7.555
 1242TIP3    H125285   3.477   1.408   7.614
 1242TIP3    H225286   3.376   1.412   7.502
 1243TIP3   OH225287   3.938   0.140   1.679
 1243TIP3    H125288   3.942   0.060   1.627
 1243TIP3    H225289   3.942   0.110   1.770
 1244TIP3   OH225290   4.621   4.360   1.369
 1244TIP3    H125291   4.675   4.293   1.409
 1244TIP3    H225292   4.604   4.423   1.439
 1245TIP3   OH225293   0.317   0.308   7.384
 1245TIP3    H125294   0.372   0.270   7.315
 1245TIP3    H225295   0.276   0.233   7.427
 1246TIP3   OH225296   2.508   1.352   0.363
 1246TIP3    H125297   2.559   1.299   0.425
 1246TIP3    H225298   2.510   1.301   0.282
 1247TIP3   OH225299   5.235   2.879   0.616
 1247TIP3    H125300   5.302   2.923   0.562
 1247TIP3    H225301   5.284   2.815   0.667
 1248TIP3   OH225302   6.680   2.121   7.295
 1248TIP3    H125303   6.759   2.160   7.259
 1248TIP3    H225304   6.620   2.195   7.307
 1249TIP3   OH225305   6.330   2.108   2.008
 1249TIP3    H125306   6.249   2.159   2.018
 1249TIP3    H225307   6.314   2.028   2.059
 1250TIP3   OH225308   5.449   2.191   0.350
 1250TIP3    H125309   5.362   2.231   0.361
 1250TIP3    H225310   5.509   2.253   0.392
 1251TIP3   OH225311   2.414   6.232   8.635
 1251TIP3    H125312   2.481   6.227   8.567
 1251TIP3    H225313   2.463   6.238   8.717
 1252TIP3   OH225314   0.319   5.456   8.166
 1252TIP3    H125315   0.281   5.497   8.244
 1252TIP3    H225316   0.406   5.496   8.158
 1253TIP3   OH225317   5.777   3.578   7.542
 1253TIP3    H125318   5.693   3.612   7.573
 1253TIP3    H225319   5.816   3.537   7.619
 1254TIP3   OH225320   6.842   0.029   7.990
 1254TIP3    H125321   0.008   6.809   7.933
 1254TIP3    H225322   0.066   0.084   7.987
 1255TIP3   OH225323   4.531   4.960   0.241
 1255TIP3    H125324   4.448   4.912   0.250
 1255TIP3    H225325   4.506   5.046   0.208
 1256TIP3   OH225326   6.757   4.424   6.355
 1256TIP3    H125327   6.803   4.508   6.360
 1256TIP3    H225328   6.760   4.390   6.445
 1257TIP3   OH225329   3.682   0.772   8.208
 1257TIP3    H125330   3.629   0.709   8.161
 1257TIP3    H225331   3.623   0.811   8.272
 1258TIP3   OH225332   1.969   5.145   0.734
 1258TIP3    H125333   1.966   5.088   0.657
 1258TIP3    H225334   2.040   5.110   0.787
 1259TIP3   OH225335   6.402   1.880   8.126
 1259TIP3    H125336   6.426   1.853   8.038
 1259TIP3    H225337   6.486   1.896   8.170
 1260TIP3   OH225338   4.297   0.350   0.785
 1260TIP3    H125339   4.284   0.318   0.696
 1260TIP3    H225340   4.227   0.309   0.836
 1261TIP3   OH225341   0.053   2.455   7.737
 1261TIP3    H125342   6.849   2.513   7.786
 1261TIP3    H225343   0.085   2.508   7.664
 1262TIP3   OH225344   2.300   2.652   6.690
 1262TIP3    H125345   2.239   2.720   6.717
 1262TIP3    H225346   2.257   2.570   6.716
 1263TIP3   OH225347   4.550   2.841   7.204
 1263TIP3    H125348   4.487   2.792   7.151
 1263TIP3    H225349   4.612   2.876   7.140
 1264TIP3   OH225350   2.774   5.635   6.911
 1264TIP3    H125351   2.840   5.640   6.841
 1264TIP3    H225352   2.822   5.656   6.991
 1265TIP3   OH225353   2.941   2.691   8.498
 1265TIP3    H125354   2.970   2.610   8.540
 1265TIP3    H225355   2.855   2.669   8.461
 1266TIP3   OH225356   2.263   5.839   0.809
 1266TIP3    H125357   2.311   5.777   0.754
 1266TIP3    H225358   2.313   5.920   0.803
 1267TIP3   OH225359   5.899   5.674   8.343
 1267TIP3    H125360   5.948   5.756   8.346
 1267TIP3    H225361   5.924   5.628   8.423
 1268TIP3   OH225362   6.090   1.797   3.140
 1268TIP3    H125363   6.051   1.866   3.087
 1268TIP3    H225364   6.016   1.759   3.188
 1269TIP3   OH225365   6.110   0.176   7.671
 1269TIP3    H125366   6.046   0.176   7.743
 1269TIP3    H225367   6.136   0.084   7.663
 1270TIP3   OH225368   1.860   2.632   2.783
 1270TIP3    H125369   1.801   2.561   2.808
 1270TIP3    H225370   1.818   2.711   2.817
 1271TIP3   OH225371   3.513   0.849   0.805
 1271TIP3    H125372   3.597   0.811   0.827
 1271TIP3    H225373   3.465   0.778   0.762
 1272TIP3   OH225374   4.062   4.732   1.689
 1272TIP3    H125375   4.136   4.780   1.726
 1272TIP3    H225376   4.038   4.669   1.757
 1273TIP3   OH225377   2.647   4.011   2.086
 1273TIP3    H125378   2.559   4.044   2.068
 1273TIP3    H225379   2.706   4.076   2.048
 1274TIP3   OH225380   4.742   5.612   8.699
 1274TIP3    H125381   4.792   5.584   8.622
 1274TIP3    H225382   4.772   5.553   0.043
 1275TIP3   OH225383   5.018   2.646   0.451
 1275TIP3    H125384   5.047   2.637   0.542
 1275TIP3    H225385   5.030   2.738   0.431
 1276TIP3   OH225386   5.300   3.696   8.048
 1276TIP3    H125387   5.278   3.666   7.959
 1276TIP3    H225388   5.395   3.682   8.054
 1277TIP3   OH225389   4.947   3.345   6.670
 1277TIP3    H125390   5.035   3.315   6.693
 1277TIP3    H225391   4.900   3.348   6.753
 1278TIP3   OH225392   1.252   1.251   1.926
 1278TIP3    H125393   1.243   1.160   1.895
 1278TIP3    H225394   1.176   1.266   1.981
 1279TIP3   OH225395   0.549   5.965   1.761
 1279TIP3    H125396   0.603   6.039   1.733
 1279TIP3    H225397   0.484   6.005   1.819
 1280TIP3   OH225398   2.286   4.901   2.736
 1280TIP3    H125399   2.361   4.960   2.731
 1280TIP3    H225400   2.262   4.885   2.645
 1281TIP3   OH225401   5.607   0.517   0.842
 1281TIP3    H125402   5.578   0.596   0.798
 1281TIP3    H225403   5.653   0.549   0.920
 1282TIP3   OH225404   0.976   5.399   1.627
 1282TIP3    H125405   1.063   5.414   1.663
 1282TIP3    H225406   0.989   5.397   1.532
 1283TIP3   OH225407   6.742   5.522   8.213
 1283TIP3    H125408   6.781   5.548   8.297
 1283TIP3    H225409   6.669   5.466   8.238
 1284TIP3   OH225410   5.547   3.858   6.249
 1284TIP3    H125411   5.602   3.859   6.171
 1284TIP3    H225412   5.609   3.861   6.322
 1285TIP3   OH225413   0.581   1.537   7.697
 1285TIP3    H125414   0.490   1.519   7.672
 1285TIP3    H225415   0.624   1.562   7.616
 1286TIP3   OH225416   2.701   5.000   0.801
 1286TIP3    H125417   2.673   5.075   0.749
 1286TIP3    H225418   2.625   4.943   0.805
 1287TIP3   OH225419   0.343   5.572   1.047
 1287TIP3    H125420   0.339   5.534   0.959
 1287TIP3    H225421   0.352   5.497   1.106
 1288TIP3   OH225422   5.847   5.350   7.175
 1288TIP3    H125423   5.942   5.337   7.183
 1288TIP3    H225424   5.822   5.298   7.099
 1289TIP3   OH225425   6.211   0.247   6.467
 1289TIP3    H125426   6.293   0.248   6.516
 1289TIP3    H225427   6.226   0.185   6.395
 1290TIP3   OH225428   5.490   2.033   6.541
 1290TIP3    H125429   5.568   2.074   6.504
 1290TIP3    H225430   5.522   1.990   6.621
 1291TIP3   OH225431   5.543   4.545   1.873
 1291TIP3    H125432   5.575   4.511   1.956
 1291TIP3    H225433   5.536   4.639   1.887
 1292TIP3   OH225434   1.943   6.740   2.120
 1292TIP3    H125435   2.039   6.750   2.119
 1292TIP3    H225436   1.930   6.647   2.140
 1293TIP3   OH225437   5.030   0.594   1.338
 1293TIP3    H125438   5.039   0.567   1.429
 1293TIP3    H225439   4.942   0.632   1.333
 1294TIP3   OH225440   1.006   5.970   0.901
 1294TIP3    H125441   1.099   5.949   0.908
 1294TIP3    H225442   0.984   5.952   0.809
 1295TIP3   OH225443   3.526   2.026   1.160
 1295TIP3    H125444   3.588   2.094   1.188
 1295TIP3    H225445   3.572   1.980   1.090
 1296TIP3   OH225446   6.278   0.328   0.836
 1296TIP3    H125447   6.322   0.312   0.752
 1296TIP3    H225448   6.285   0.245   0.883
 1297TIP3   OH225449   2.165   3.448   0.446
 1297TIP3    H125450   2.257   3.464   0.423
 1297TIP3    H225451   2.157   3.352   0.446
 1298TIP3   OH225452   6.099   3.537   1.923
 1298TIP3    H125453   6.134   3.569   1.840
 1298TIP3    H225454   6.029   3.598   1.944
 1299TIP3   OH225455   1.363   0.160   1.895
 1299TIP3    H125456   1.279   0.172   1.940
 1299TIP3    H225457   1.352   0.206   1.812
 1300TIP3   OH225458   2.648   0.468   0.636
 1300TIP3    H125459   2.556   0.490   0.650
 1300TIP3    H225460   2.684   0.461   0.725
 1301TIP3   OH225461   2.288   3.179   8.589
 1301TIP3    H125462   2.381   3.193   8.571
 1301TIP3    H225463   2.265   3.247   8.652
 1302TIP3   OH225464   2.262   3.508   0.780
 1302TIP3    H125465   2.287   3.525   0.689
 1302TIP3    H225466   2.311   3.574   0.830
 1303TIP3   OH225467   2.089   0.678   0.583
 1303TIP3    H125468   2.084   0.583   0.594
 1303TIP3    H225469   2.042   0.696   0.502
 1304TIP3   OH225470   5.617   5.864   0.730
 1304TIP3    H125471   5.689   5.813   0.767
 1304TIP3    H225472   5.582   5.913   0.805
 1305TIP3   OH225473   6.528   4.423   1.054
 1305TIP3    H125474   6.528   4.519   1.055
 1305TIP3    H225475   6.559   4.398   1.141
 1306TIP3   OH225476   2.314   0.816   0.948
 1306TIP3    H125477   2.252   0.803   1.019
 1306TIP3    H225478   2.270   0.879   0.890
 1307TIP3   OH225479   2.619   0.388   8.714
 1307TIP3    H125480   2.579   0.456   8.660
 1307TIP3    H225481   2.617   0.310   8.659
 1308TIP3   OH225482   4.636   0.770   7.670
 1308TIP3    H125483   4.564   0.827   7.698
 1308TIP3    H225484   4.616   0.685   7.709
 1309TIP3   OH225485   6.427   2.033   0.260
 1309TIP3    H125486   6.360   2.070   0.202
 1309TIP3    H225487   6.428   1.940   0.239
 1310TIP3   OH225488   2.902   3.088   1.530
 1310TIP3    H125489   2.916   3.002   1.569
 1310TIP3    H225490   2.989   3.128   1.528
 1311TIP3   OH225491   1.658   2.807   0.584
 1311TIP3    H125492   1.658   2.739   0.517
 1311TIP3    H225493   1.675   2.888   0.536
 1312TIP3   OH225494   6.469   4.137   1.920
 1312TIP3    H125495   6.425   4.125   2.004
 1312TIP3    H225496   6.398   4.129   1.855
 1313TIP3   OH225497   5.341   3.459   7.423
 1313TIP3    H125498   5.278   3.388   7.434
 1313TIP3    H225499   5.326   3.516   7.498
 1314TIP3   OH225500   4.798   2.257   1.068
 1314TIP3    H125501   4.747   2.338   1.068
 1314TIP3    H225502   4.733   2.188   1.082
 1315TIP3   OH225503   1.043   0.635   1.269
 1315TIP3    H125504   1.039   0.553   1.318
 1315TIP3    H225505   1.137   0.651   1.257
 1316TIP3   OH225506   4.948   6.495   6.235
 1316TIP3    H125507   4.862   6.535   6.252
 1316TIP3    H225508   4.940   6.407   6.272
 1317TIP3   OH225509   3.539   0.040   7.004
 1317TIP3    H125510   3.565   0.100   6.934
 1317TIP3    H225511   3.504   0.097   7.072
 1318TIP3   OH225512   3.393   0.308   1.485
 1318TIP3    H125513   3.451   0.242   1.522
 1318TIP3    H225514   3.407   0.385   1.540
 1319TIP3   OH225515   5.599   5.519   7.288
 1319TIP3    H125516   5.641   5.572   7.356
 1319TIP3    H225517   5.667   5.457   7.261
 1320TIP3   OH225518   5.114   3.252   1.862
 1320TIP3    H125519   5.082   3.296   1.941
 1320TIP3    H225520   5.209   3.254   1.871
 1321TIP3   OH225521   1.415   1.250   1.413
 1321TIP3    H125522   1.345   1.280   1.355
 1321TIP3    H225523   1.380   1.263   1.502
 1322TIP3   OH225524   1.399   2.870   6.810
 1322TIP3    H125525   1.398   2.810   6.735
 1322TIP3    H225526   1.341   2.829   6.874
 1323TIP3   OH225527   2.057   3.048   7.227
 1323TIP3    H125528   2.025   3.069   7.139
 1323TIP3    H225529   2.135   3.102   7.237
 1324TIP3   OH225530   3.944   0.764   0.108
 1324TIP3    H125531   3.973   0.702   0.174
 1324TIP3    H225532   3.983   0.733   0.026
 1325TIP3   OH225533   6.453   1.743   6.428
 1325TIP3    H125534   6.528   1.784   6.384
 1325TIP3    H225535   6.427   1.672   6.370
 1326TIP3   OH225536   6.244   4.231   7.633
 1326TIP3    H125537   6.241   4.137   7.653
 1326TIP3    H225538   6.323   4.242   7.581
 1327TIP3   OH225539   0.110   2.075   7.993
 1327TIP3    H125540   0.192   2.026   7.985
 1327TIP3    H225541   0.133   2.164   7.966
 1328TIP3   OH225542   1.412   1.038   0.791
 1328TIP3    H125543   1.321   1.052   0.816
 1328TIP3    H225544   1.460   1.042   0.874
 1329TIP3   OH225545   0.374   4.352   2.585
 1329TIP3    H125546   0.404   4.441   2.563
 1329TIP3    H225547   0.445   4.295   2.553
 1330TIP3   OH225548   1.890   2.676   0.663
 1330TIP3    H125549   1.819   2.727   0.622
 1330TIP3    H225550   1.883   2.589   0.624
 1331TIP3   OH225551   5.353   4.895   1.235
 1331TIP3    H125552   5.436   4.913   1.191
 1331TIP3    H225553   5.286   4.926   1.174
 1332TIP3   OH225554   6.432   6.062   7.310
 1332TIP3    H125555   6.342   6.093   7.301
 1332TIP3    H225556   6.424   5.978   7.355
 1333TIP3   OH225557   1.874   2.725   0.940
 1333TIP3    H125558   1.902   2.726   0.849
 1333TIP3    H225559   1.866   2.817   0.964
 1334TIP3   OH225560   0.102   5.514   0.665
 1334TIP3    H125561   0.131   5.604   0.649
 1334TIP3    H225562   0.179   5.460   0.644
 1335TIP3   OH225563   4.608   1.297   7.396
 1335TIP3    H125564   4.656   1.217   7.415
 1335TIP3    H225565   4.520   1.268   7.371
 1336TIP3   OH225566   6.108   3.174   0.421
 1336TIP3    H125567   6.095   3.210   0.509
 1336TIP3    H225568   6.020   3.172   0.384
 1337TIP3   OH225569   3.296   5.626   8.016
 1337TIP3    H125570   3.252   5.668   7.942
 1337TIP3    H225571   3.388   5.621   7.991
 1338TIP3   OH225572   2.137   5.030   0.905
 1338TIP3    H125573   2.156   4.946   0.947
 1338TIP3    H225574   2.221   5.074   0.898
 1339TIP3   OH225575   1.311   0.101   6.759
 1339TIP3    H125576   1.225   0.072   6.727
 1339TIP3    H225577   1.372   0.036   6.724
 1340TIP3   OH225578   3.853   3.470   8.490
 1340TIP3    H125579   3.886   3.537   8.430
 1340TIP3    H225580   3.795   3.416   8.437
 1341TIP3   OH225581   0.956   1.578   8.709
 1341TIP3    H125582   1.026   1.529   0.027
 1341TIP3    H225583   0.947   1.536   8.624
 1342TIP3   OH225584   6.052   1.731   6.386
 1342TIP3    H125585   6.117   1.662   6.373
 1342TIP3    H225586   6.099   1.812   6.367
 1343TIP3   OH225587   6.068   0.001   7.924
 1343TIP3    H125588   6.014   6.805   7.985
 1343TIP3    H225589   6.158   6.840   7.954
 1344TIP3   OH225590   0.045   5.888   7.165
 1344TIP3    H125591   0.054   5.795   7.184
 1344TIP3    H225592   0.135   5.921   7.164
 1345TIP3   OH225593   5.142   3.854   7.393
 1345TIP3    H125594   5.127   3.795   7.319
 1345TIP3    H225595   5.178   3.933   7.354
 1346TIP3   OH225596   4.059   0.595   8.642
 1346TIP3    H125597   3.988   0.535   8.620
 1346TIP3    H225598   4.079   0.641   8.560
 1347TIP3   OH225599   0.994   6.785   6.881
 1347TIP3    H125600   0.985   0.007   6.824
 1347TIP3    H225601   1.066   6.807   6.940
 1348TIP3   OH225602   6.829   5.352   7.392
 1348TIP3    H125603   6.771   5.308   7.455
 1348TIP3    H225604   0.049   5.380   7.445
 1349TIP3   OH225605   5.945   1.366   8.613
 1349TIP3    H125606   5.993   1.449   8.617
 1349TIP3    H225607   5.869   1.380   8.670
 1350TIP3   OH225608   1.396   4.095   7.097
 1350TIP3    H125609   1.373   4.011   7.058
 1350TIP3    H225610   1.418   4.151   7.023
 1351TIP3   OH225611   2.497   6.184   0.174
 1351TIP3    H125612   2.449   6.133   0.240
 1351TIP3    H225613   2.575   6.215   0.219
 1352TIP3   OH225614   4.277   0.836   8.541
 1352TIP3    H125615   4.239   0.899   8.480
 1352TIP3    H225616   4.257   0.871   8.627
 1353TIP3   OH225617   6.184   2.238   7.332
 1353TIP3    H125618   6.211   2.247   7.241
 1353TIP3    H225619   6.131   2.158   7.334
 1354TIP3   OH225620   0.525   0.614   2.265
 1354TIP3    H125621   0.466   0.538   2.268
 1354TIP3    H225622   0.471   0.685   2.232
 1355TIP3   OH225623   6.537   5.715   7.872
 1355TIP3    H125624   6.591   5.716   7.792
 1355TIP3    H225625   6.532   5.807   7.898
 1356TIP3   OH225626   0.303   4.315   6.797
 1356TIP3    H125627   0.370   4.267   6.845
 1356TIP3    H225628   0.316   4.291   6.705
 1357TIP3   OH225629   2.254   2.830   2.220
 1357TIP3    H125630   2.185   2.876   2.268
 1357TIP3    H225631   2.277   2.756   2.276
 1358TIP3   OH225632   5.747   1.381   0.921
 1358TIP3    H125633   5.697   1.311   0.962
 1358TIP3    H225634   5.826   1.388   0.974
 1359TIP3   OH225635   2.309   0.613   1.526
 1359TIP3    H125636   2.281   0.562   1.601
 1359TIP3    H225637   2.350   0.550   1.467
 1360TIP3   OH225638   3.994   1.852   0.958
 1360TIP3    H125639   4.084   1.870   0.932
 1360TIP3    H225640   4.002   1.804   1.040
 1361TIP3   OH225641   6.846   6.121   7.329
 1361TIP3    H125642   6.832   6.039   7.282
 1361TIP3    H225643   0.001   6.187   7.260
 1362TIP3   OH225644   6.339   0.335   7.587
 1362TIP3    H125645   6.259   0.329   7.639
 1362TIP3    H225646   6.407   0.355   7.652
 1363TIP3   OH225647   6.026   1.713   6.862
 1363TIP3    H125648   5.978   1.704   6.944
 1363TIP3    H225649   6.068   1.799   6.868
 1364TIP3   OH225650   0.011   4.025   6.338
 1364TIP3    H125651   6.814   4.083   6.281
 1364TIP3    H225652   0.084   4.079   6.368
 1365TIP3   OH225653   6.694   1.153   0.446
 1365TIP3    H125654   6.772   1.176   0.497
 1365TIP3    H225655   6.624   1.204   0.487
 1366TIP3   OH225656   6.021   4.355   1.305
 1366TIP3    H125657   5.960   4.314   1.366
 1366TIP3    H225658   5.986   4.334   1.219
 1367TIP3   OH225659   1.032   5.505   7.497
 1367TIP3    H125660   1.093   5.507   7.423
 1367TIP3    H225661   1.049   5.422   7.540
 1368TIP3   OH225662   3.611   5.123   1.529
 1368TIP3    H125663   3.544   5.089   1.470
 1368TIP3    H225664   3.620   5.055   1.596
 1369TIP3   OH225665   3.252   3.838   7.366
 1369TIP3    H125666   3.160   3.840   7.339
 1369TIP3    H225667   3.300   3.866   7.288
 1370TIP3   OH225668   5.336   1.449   8.519
 1370TIP3    H125669   5.363   1.509   8.449
 1370TIP3    H225670   5.392   1.472   8.593
 1371TIP3   OH225671   3.665   4.965   7.397
 1371TIP3    H125672   3.571   4.959   7.385
 1371TIP3    H225673   3.697   5.007   7.317
 1372TIP3   OH225674   2.521   2.104   7.429
 1372TIP3    H125675   2.530   2.199   7.417
 1372TIP3    H225676   2.451   2.079   7.369
 1373TIP3   OH225677   5.578   5.211   0.089
 1373TIP3    H125678   5.529   5.206   0.007
 1373TIP3    H225679   5.567   5.124   0.129
 1374TIP3   OH225680   5.054   0.908   7.342
 1374TIP3    H125681   5.034   0.888   7.433
 1374TIP3    H225682   4.999   0.984   7.321
 1375TIP3   OH225683   0.349   0.430   8.384
 1375TIP3    H125684   0.385   0.342   8.399
 1375TIP3    H225685   0.348   0.470   8.471
 1376TIP3   OH225686   6.801   1.761   8.208
 1376TIP3    H125687   6.753   1.697   8.155
 1376TIP3    H225688   0.021   1.786   8.154
 1377TIP3   OH225689   1.607   2.085   1.103
 1377TIP3    H125690   1.564   2.068   1.019
 1377TIP3    H225691   1.597   2.004   1.153
 1378TIP3   OH225692   2.901   0.721   0.576
 1378TIP3    H125693   2.845   0.652   0.540
 1378TIP3    H225694   2.989   0.700   0.543
 1379TIP3   OH225695   5.679   2.926   8.047
 1379TIP3    H125696   5.616   2.989   8.011
 1379TIP3    H225697   5.749   2.980   8.082
 1380TIP3   OH225698   2.261   1.176   0.883
 1380TIP3    H125699   2.349   1.139   0.879
 1380TIP3    H225700   2.273   1.270   0.872
 1381TIP3   OH225701   1.948   3.476   8.309
 1381TIP3    H125702   1.905   3.396   8.280
 1381TIP3    H225703   2.003   3.502   8.235
 1382TIP3   OH225704   0.017   1.800   7.519
 1382TIP3    H125705   0.033   1.708   7.540
 1382TIP3    H225706   0.104   1.841   7.523
 1383TIP3   OH225707   2.497   2.822   2.447
 1383TIP3    H125708   2.489   2.908   2.407
 1383TIP3    H225709   2.428   2.821   2.514
 1384TIP3   OH225710   0.516   1.125   6.910
 1384TIP3    H125711   0.444   1.107   6.851
 1384TIP3    H225712   0.575   1.181   6.860
 1385TIP3   OH225713   1.694   2.029   1.668
 1385TIP3    H125714   1.767   1.969   1.652
 1385TIP3    H225715   1.710   2.065   1.755
 1386TIP3   OH225716   4.369   2.614   2.482
 1386TIP3    H125717   4.282   2.603   2.520
 1386TIP3    H225718   4.362   2.572   2.396
 1387TIP3   OH225719   5.414   0.738   1.966
 1387TIP3    H125720   5.358   0.671   2.004
 1387TIP3    H225721   5.489   0.690   1.931
 1388TIP3   OH225722   3.609   4.515   6.797
 1388TIP3    H125723   3.631   4.424   6.819
 1388TIP3    H225724   3.543   4.539   6.862
 1389TIP3   OH225725   1.367   3.147   7.833
 1389TIP3    H125726   1.364   3.229   7.882
 1389TIP3    H225727   1.331   3.169   7.747
 1390TIP3   OH225728   2.762   5.209   8.136
 1390TIP3    H125729   2.699   5.175   8.200
 1390TIP3    H225730   2.708   5.252   8.070
 1391TIP3   OH225731   5.099   2.788   1.971
 1391TIP3    H125732   5.146   2.794   2.055
 1391TIP3    H225733   5.076   2.696   1.963
 1392TIP3   OH225734   5.105   1.560   1.133
 1392TIP3    H125735   5.089   1.541   1.226
 1392TIP3    H225736   5.113   1.655   1.129
 1393TIP3   OH225737   3.030   1.938   1.312
 1393TIP3    H125738   3.064   1.910   1.397
 1393TIP3    H225739   3.084   2.013   1.288
 1394TIP3   OH225740   6.708   2.101   1.440
 1394TIP3    H125741   6.672   2.039   1.377
 1394TIP3    H225742   6.769   2.154   1.389
 1395TIP3   OH225743   4.918   0.772   7.562
 1395TIP3    H125744   4.851   0.765   7.494
 1395TIP3    H225745   4.871   0.756   7.644
 1396TIP3   OH225746   3.088   5.831   1.872
 1396TIP3    H125747   3.055   5.851   1.784
 1396TIP3    H225748   3.180   5.806   1.858
 1397TIP3   OH225749   6.231   1.817   1.021
 1397TIP3    H125750   6.245   1.885   1.087
 1397TIP3    H225751   6.231   1.735   1.071
 1398TIP3   OH225752   0.060   3.333   0.791
 1398TIP3    H125753   0.070   3.400   0.724
 1398TIP3    H225754   6.853   3.370   0.854
 1399TIP3   OH225755   1.942   4.141   8.162
 1399TIP3    H125756   1.995   4.158   8.240
 1399TIP3    H225757   1.925   4.047   8.165
 1400TIP3   OH225758   3.518   1.286   1.284
 1400TIP3    H125759   3.544   1.377   1.295
 1400TIP3    H225760   3.451   1.289   1.215
 1401TIP3   OH225761   3.428   5.297   7.790
 1401TIP3    H125762   3.373   5.278   7.866
 1401TIP3    H225763   3.401   5.384   7.762
 1402TIP3   OH225764   6.028   4.258   1.643
 1402TIP3    H125765   5.982   4.311   1.709
 1402TIP3    H225766   6.110   4.234   1.686
 1403TIP3   OH225767   4.313   2.905   1.679
 1403TIP3    H125768   4.235   2.851   1.688
 1403TIP3    H225769   4.310   2.964   1.753
 1404TIP3   OH225770   1.265   5.770   8.183
 1404TIP3    H125771   1.334   5.705   8.199
 1404TIP3    H225772   1.198   5.722   8.134
 1405TIP3   OH225773   0.857   5.703   7.920
 1405TIP3    H125774   0.870   5.683   8.013
 1405TIP3    H225775   0.902   5.632   7.874
 1406TIP3   OH225776   1.003   6.297   1.279
 1406TIP3    H125777   0.976   6.265   1.193
 1406TIP3    H225778   0.960   6.239   1.342
 1407TIP3   OH225779   4.224   4.065   8.489
 1407TIP3    H125780   4.209   3.990   8.545
 1407TIP3    H225781   4.190   4.039   8.404
 1408TIP3   OH225782   5.736   2.255   7.772
 1408TIP3    H125783   5.657   2.307   7.787
 1408TIP3    H225784   5.703   2.172   7.737
 1409TIP3   OH225785   2.306   1.889   1.037
 1409TIP3    H125786   2.339   1.800   1.052
 1409TIP3    H225787   2.220   1.889   1.080
 1410TIP3   OH225788   2.058   3.746   7.167
 1410TIP3    H125789   2.099   3.703   7.243
 1410TIP3    H225790   1.965   3.726   7.176
 1411TIP3   OH225791   1.564   2.984   2.549
 1411TIP3    H125792   1.495   2.938   2.501
 1411TIP3    H225793   1.517   3.039   2.612
 1412TIP3   OH225794   0.834   0.877   8.605
 1412TIP3    H125795   0.892   0.851   8.534
 1412TIP3    H225796   0.885   0.861   8.685
 1413TIP3   OH225797   4.145   5.240   0.766
 1413TIP3    H125798   4.080   5.223   0.698
 1413TIP3    H225799   4.128   5.173   0.832
 1414TIP3   OH225800   3.794   6.692   6.762
 1414TIP3    H125801   3.713   6.653   6.728
 1414TIP3    H225802   3.856   6.619   6.766
 1415TIP3   OH225803   6.801   3.504   0.259
 1415TIP3    H125804   0.004   3.472   0.189
 1415TIP3    H225805   6.712   3.485   0.228
 1416TIP3   OH225806   5.832   1.059   1.790
 1416TIP3    H125807   5.793   0.973   1.804
 1416TIP3    H225808   5.901   1.065   1.856
 1417TIP3   OH225809   3.244   3.923   1.524
 1417TIP3    H125810   3.202   4.007   1.546
 1417TIP3    H225811   3.172   3.863   1.509
 1418TIP3   OH225812   1.089   2.412   1.443
 1418TIP3    H125813   1.163   2.373   1.489
 1418TIP3    H225814   1.122   2.427   1.354
 1419TIP3   OH225815   6.210   5.311   1.532
 1419TIP3    H125816   6.206   5.260   1.451
 1419TIP3    H225817   6.175   5.253   1.599
 1420TIP3   OH225818   4.873   3.861   7.737
 1420TIP3    H125819   4.782   3.877   7.713
 1420TIP3    H225820   4.887   3.769   7.719
 1421TIP3   OH225821   5.262   1.900   8.480
 1421TIP3    H125822   5.323   1.831   8.508
 1421TIP3    H225823   5.317   1.978   8.470
 1422TIP3   OH225824   2.941   1.128   6.807
 1422TIP3    H125825   2.922   1.216   6.840
 1422TIP3    H225826   3.024   1.136   6.761
 1423TIP3   OH225827   6.628   5.248   1.338
 1423TIP3    H125828   6.606   5.334   1.303
 1423TIP3    H225829   6.553   5.224   1.392
 1424TIP3   OH225830   6.819   3.989   1.815
 1424TIP3    H125831   6.761   3.980   1.739
 1424TIP3    H225832   0.045   3.944   1.790
 1425TIP3   OH225833   5.315   0.076   1.227
 1425TIP3    H125834   5.246   0.013   1.249
 1425TIP3    H225835   5.268   0.157   1.207
 1426TIP3   OH225836   0.579   6.223   0.864
 1426TIP3    H125837   0.650   6.271   0.822
 1426TIP3    H225838   0.613   6.197   0.949
 1427TIP3   OH225839   6.651   6.689   8.269
 1427TIP3    H125840   6.579   6.708   8.329
 1427TIP3    H225841   6.659   6.594   8.269
 1428TIP3   OH225842   0.952   5.302   8.067
 1428TIP3    H125843   0.896   5.254   8.129
 1428TIP3    H225844   0.982   5.234   8.006
 1429TIP3   OH225845   0.563   2.115   1.556
 1429TIP3    H125846   0.621   2.038   1.556
 1429TIP3    H225847   0.491   2.090   1.614
 1430TIP3   OH225848   0.239   0.396   0.843
 1430TIP3    H125849   0.164   0.454   0.854
 1430TIP3    H225850   0.302   0.449   0.794
 1431TIP3   OH225851   4.967   0.189   0.381
 1431TIP3    H125852   4.906   0.119   0.404
 1431TIP3    H225853   4.912   0.256   0.340
 1432TIP3   OH225854   6.092   0.726   0.528
 1432TIP3    H125855   6.113   0.647   0.578
 1432TIP3    H225856   6.070   0.693   0.440
 1433TIP3   OH225857   1.741   2.595   7.756
 1433TIP3    H125858   1.757   2.518   7.702
 1433TIP3    H225859   1.785   2.666   7.710
 1434TIP3   OH225860   0.565   3.270   8.175
 1434TIP3    H125861   0.597   3.212   8.105
 1434TIP3    H225862   0.491   3.223   8.213
 1435TIP3   OH225863   3.135   1.982   7.952
 1435TIP3    H125864   3.190   1.934   8.014
 1435TIP3    H225865   3.052   1.933   7.950
 1436TIP3   OH225866   3.240   4.340   0.392
 1436TIP3    H125867   3.255   4.408   0.458
 1436TIP3    H225868   3.305   4.358   0.324
 1437TIP3   OH225869   5.684   3.536   1.471
 1437TIP3    H125870   5.692   3.564   1.562
 1437TIP3    H225871   5.768   3.559   1.431
 1438TIP3   OH225872   4.907   1.389   7.720
 1438TIP3    H125873   4.884   1.392   7.627
 1438TIP3    H225874   4.836   1.436   7.763
 1439TIP3   OH225875   5.723   1.857   7.406
 1439TIP3    H125876   5.804   1.805   7.402
 1439TIP3    H225877   5.728   1.915   7.329
 1440TIP3   OH225878   2.158   3.085   1.050
 1440TIP3    H125879   2.070   3.092   1.085
 1440TIP3    H225880   2.146   3.056   0.959
 1441TIP3   OH225881   0.214   1.217   1.386
 1441TIP3    H125882   0.147   1.181   1.328
 1441TIP3    H225883   0.179   1.301   1.414
 1442TIP3   OH225884   1.224   0.974   0.432
 1442TIP3    H125885   1.148   0.937   0.476
 1442TIP3    H225886   1.187   1.026   0.360
 1443TIP3   OH225887   5.724   0.629   7.280
 1443TIP3    H125888   5.810   0.669   7.288
 1443TIP3    H225889   5.673   0.669   7.351
 1444TIP3   OH225890   6.240   4.200   1.227
 1444TIP3    H125891   6.248   4.106   1.212
 1444TIP3    H225892   6.176   4.208   1.298
 1445TIP3   OH225893   0.432   2.504   6.930
 1445TIP3    H125894   0.465   2.568   6.994
 1445TIP3    H225895   0.406   2.557   6.855
 1446TIP3   OH225896   1.551   3.158   0.750
 1446TIP3    H125897   1.643   3.134   0.742
 1446TIP3    H225898   1.509   3.080   0.785
 1447TIP3   OH225899   2.750   6.309   1.081
 1447TIP3    H125900   2.840   6.318   1.052
 1447TIP3    H225901   2.739   6.214   1.095
 1448TIP3   OH225902   1.672   6.225   0.860
 1448TIP3    H125903   1.735   6.165   0.900
 1448TIP3    H225904   1.641   6.178   0.783
 1449TIP3   OH225905   6.213   0.831   0.204
 1449TIP3    H125906   6.260   0.815   0.286
 1449TIP3    H225907   6.145   0.895   0.226
 1450TIP3   OH225908   4.408   0.939   6.771
 1450TIP3    H125909   4.440   0.960   6.683
 1450TIP3    H225910   4.475   0.880   6.807
 1451TIP3   OH225911   6.788   5.031   2.118
 1451TIP3    H125912   6.816   5.099   2.179
 1451TIP3    H225913   6.740   4.968   2.172
 1452TIP3   OH225914   0.114   1.445   1.543
 1452TIP3    H125915   0.020   1.463   1.539
 1452TIP3    H225916   0.129   1.414   1.632
 1453TIP3   OH225917   6.724   4.870   1.877
 1453TIP3    H125918   6.738   4.904   1.965
 1453TIP3    H225919   6.665   4.932   1.835
 1454TIP3   OH225920   2.368   0.651   8.203
 1454TIP3    H125921   2.392   0.732   8.248
 1454TIP3    H225922   2.292   0.619   8.251
 1455TIP3   OH225923   1.058   4.565   1.382
 1455TIP3    H125924   1.001   4.578   1.458
 1455TIP3    H225925   1.113   4.491   1.406
 1456TIP3   OH225926   3.543   4.729   6.399
 1456TIP3    H125927   3.631   4.765   6.392
 1456TIP3    H225928   3.531   4.679   6.318
 1457TIP3   OH225929   4.029   1.675   8.053
 1457TIP3    H125930   3.966   1.713   7.992
 1457TIP3    H225931   4.040   1.743   8.121
 1458TIP3   OH225932   6.004   1.003   8.242
 1458TIP3    H125933   6.025   1.022   8.150
 1458TIP3    H225934   5.974   1.087   8.277
 1459TIP3   OH225935   4.008   6.314   8.260
 1459TIP3    H125936   4.010   6.406   8.287
 1459TIP3    H225937   3.969   6.315   8.173
 1460TIP3   OH225938   2.596   0.430   7.924
 1460TIP3    H125939   2.687   0.452   7.901
 1460TIP3    H225940   2.603   0.348   7.972
 1461TIP3   OH225941   5.433   0.484   1.066
 1461TIP3    H125942   5.353   0.476   1.118
 1461TIP3    H225943   5.422   0.420   0.995
 1462TIP3   OH225944   0.422   3.543   8.331
 1462TIP3    H125945   0.514   3.554   8.307
 1462TIP3    H225946   0.418   3.567   8.423
 1463TIP3   OH225947   4.651   0.212   6.475
 1463TIP3    H125948   4.744   0.237   6.475
 1463TIP3    H225949   4.646   0.139   6.414
 1464TIP3   OH225950   5.412   1.800   2.063
 1464TIP3    H125951   5.324   1.784   2.031
 1464TIP3    H225952   5.428   1.893   2.046
 1465TIP3   OH225953   5.194   0.063   1.563
 1465TIP3    H125954   5.245   0.038   1.485
 1465TIP3    H225955   5.245   0.030   1.637
 1466TIP3   OH225956   5.011   3.279   1.610
 1466TIP3    H125957   5.076   3.262   1.542
 1466TIP3    H225958   5.062   3.291   1.690
 1467TIP3   OH225959   0.734   2.478   1.754
 1467TIP3    H125960   0.774   2.402   1.713
 1467TIP3    H225961   0.746   2.549   1.690
 1468TIP3   OH225962   3.595   2.087   1.985
 1468TIP3    H125963   3.549   2.112   2.065
 1468TIP3    H225964   3.602   1.991   1.990
 1469TIP3   OH225965   0.312   4.011   6.544
 1469TIP3    H125966   0.404   4.007   6.569
 1469TIP3    H225967   0.293   4.105   6.535
 1470TIP3   OH225968   1.565   5.813   8.153
 1470TIP3    H125969   1.494   5.849   8.099
 1470TIP3    H225970   1.623   5.888   8.168
 1471TIP3   OH225971   2.296   4.262   1.300
 1471TIP3    H125972   2.296   4.346   1.348
 1471TIP3    H225973   2.359   4.275   1.229
 1472TIP3   OH225974   1.207   6.564   6.602
 1472TIP3    H125975   1.196   6.585   6.694
 1472TIP3    H225976   1.225   6.470   6.601
 1473TIP3   OH225977   3.730   0.198   7.199
 1473TIP3    H125978   3.661   0.137   7.173
 1473TIP3    H225979   3.717   0.211   7.293
 1474TIP3   OH225980   4.134   3.816   2.425
 1474TIP3    H125981   4.109   3.906   2.407
 1474TIP3    H225982   4.104   3.766   2.348
 1475TIP3   OH225983   3.894   0.304   0.350
 1475TIP3    H125984   3.961   0.265   0.407
 1475TIP3    H225985   3.811   0.276   0.388
 1476TIP3   OH225986   4.972   3.056   0.610
 1476TIP3    H125987   4.884   3.032   0.636
 1476TIP3    H225988   4.986   3.010   0.527
 1477TIP3   OH225989   3.488   0.536   0.113
 1477TIP3    H125990   3.452   0.549   0.026
 1477TIP3    H225991   3.571   0.583   0.112
 1478TIP3   OH225992   0.842   0.110   1.058
 1478TIP3    H125993   0.859   0.086   1.149
 1478TIP3    H225994   0.928   0.122   1.019
 1479TIP3   OH225995   4.885   6.205   7.771
 1479TIP3    H125996   4.978   6.205   7.753
 1479TIP3    H225997   4.843   6.199   7.685
 1480TIP3   OH225998   5.783   2.401   8.001
 1480TIP3    H125999   5.709   2.462   8.003
 1480TIP3    H226000   5.764   2.343   7.927
 1481TIP3   OH226001   6.566   6.763   1.324
 1481TIP3    H126002   6.489   6.735   1.374
 1481TIP3    H226003   6.637   6.763   1.388
 1482TIP3   OH226004   1.909   6.185   2.365
 1482TIP3    H126005   1.832   6.227   2.403
 1482TIP3    H226006   1.887   6.172   2.273
 1483TIP3   OH226007   1.104   1.805   2.470
 1483TIP3    H126008   1.145   1.781   2.553
 1483TIP3    H226009   1.177   1.838   2.416
 1484TIP3   OH226010   4.606   1.454   0.960
 1484TIP3    H126011   4.572   1.543   0.945
 1484TIP3    H226012   4.531   1.397   0.943
 1485TIP3   OH226013   6.750   4.344   0.316
 1485TIP3    H126014   6.677   4.284   0.302
 1485TIP3    H226015   6.756   4.354   0.411
 1486TIP3   OH226016   1.708   0.221   2.485
 1486TIP3    H126017   1.797   0.194   2.462
 1486TIP3    H226018   1.671   0.251   2.402
 1487TIP3   OH226019   2.467   6.014   7.751
 1487TIP3    H126020   2.512   5.996   7.668
 1487TIP3    H226021   2.535   6.052   7.807
 1488TIP3   OH226022   4.441   1.762   7.666
 1488TIP3    H126023   4.536   1.767   7.668
 1488TIP3    H226024   4.412   1.853   7.661
 1489TIP3   OH226025   4.936   6.491   0.703
 1489TIP3    H126026   4.854   6.447   0.681
 1489TIP3    H226027   5.002   6.445   0.650
 1490TIP3   OH226028   1.941   6.672   0.687
 1490TIP3    H126029   2.030   6.673   0.720
 1490TIP3    H226030   1.903   6.592   0.722
 1491TIP3   OH226031   6.159   5.096   1.721
 1491TIP3    H126032   6.121   5.085   1.808
 1491TIP3    H226033   6.152   5.009   1.681
 1492TIP3   OH226034   3.089   5.298   8.564
 1492TIP3    H126035   3.051   5.237   8.501
 1492TIP3    H226036   3.047   5.382   8.545
 1493TIP3   OH226037   3.177   1.208   1.541
 1493TIP3    H126038   3.139   1.248   1.620
 1493TIP3    H226039   3.193   1.283   1.483
 1494TIP3   OH226040   6.605   5.281   0.960
 1494TIP3    H126041   6.670   5.309   0.897
 1494TIP3    H226042   6.652   5.220   1.017
 1495TIP3   OH226043   3.254   4.239   7.746
 1495TIP3    H126044   3.267   4.189   7.665
 1495TIP3    H226045   3.163   4.269   7.741
 1496TIP3   OH226046   3.743   5.414   7.129
 1496TIP3    H126047   3.793   5.405   7.047
 1496TIP3    H226048   3.721   5.325   7.154
 1497TIP3   OH226049   0.128   5.926   2.664
 1497TIP3    H126050   0.181   5.927   2.585
 1497TIP3    H226051   0.173   5.865   2.723
 1498TIP3   OH226052   0.884   6.072   1.135
 1498TIP3    H126053   0.919   6.029   1.056
 1498TIP3    H226054   0.826   6.140   1.101
 1499TIP3   OH226055   2.174   2.159   7.647
 1499TIP3    H126056   2.220   2.112   7.578
 1499TIP3    H226057   2.172   2.097   7.720
 1500TIP3   OH226058   2.033   3.055   1.780
 1500TIP3    H126059   2.015   3.131   1.723
 1500TIP3    H226060   1.950   3.007   1.782
 1501TIP3   OH226061   5.717   5.956   0.432
 1501TIP3    H126062   5.665   5.944   0.353
 1501TIP3    H226063   5.669   5.907   0.499
 1502TIP3   OH226064   4.488   0.911   1.205
 1502TIP3    H126065   4.497   1.005   1.223
 1502TIP3    H226066   4.461   0.873   1.288
 1503TIP3   OH226067   6.557   6.147   6.767
 1503TIP3    H126068   6.472   6.159   6.809
 1503TIP3    H226069   6.590   6.235   6.754
 1504TIP3   OH226070   5.993   1.809   2.559
 1504TIP3    H126071   5.931   1.868   2.604
 1504TIP3    H226072   6.076   1.825   2.603
 1505TIP3   OH226073   1.811   0.891   1.924
 1505TIP3    H126074   1.838   0.828   1.990
 1505TIP3    H226075   1.775   0.837   1.853
 1506TIP3   OH226076   0.356   2.414   7.640
 1506TIP3    H126077   0.330   2.324   7.622
 1506TIP3    H226078   0.439   2.424   7.594
 1507TIP3   OH226079   2.820   5.495   8.710
 1507TIP3    H126080   2.772   5.526   8.632
 1507TIP3    H226081   2.911   5.515   8.691
 1508TIP3   OH226082   5.382   4.079   6.701
 1508TIP3    H126083   5.295   4.119   6.700
 1508TIP3    H226084   5.433   4.132   6.640
 1509TIP3   OH226085   6.562   0.594   8.221
 1509TIP3    H126086   6.618   0.592   8.299
 1509TIP3    H226087   6.493   0.656   8.242
 1510TIP3   OH226088   1.401   3.220   1.016
 1510TIP3    H126089   1.481   3.226   1.068
 1510TIP3    H226090   1.394   3.305   0.973
 1511TIP3   OH226091   1.930   6.729   8.661
 1511TIP3    H126092   1.880   6.810   8.659
 1511TIP3    H226093   1.865   6.661   8.677
 1512TIP3   OH226094   3.187   4.766   0.933
 1512TIP3    H126095   3.193   4.854   0.896
 1512TIP3    H226096   3.093   4.746   0.932
 1513TIP3   OH226097   3.292   1.266   7.434
 1513TIP3    H126098   3.252   1.241   7.351
 1513TIP3    H226099   3.263   1.197   7.495
 1514TIP3   OH226100   3.430   1.596   8.255
 1514TIP3    H126101   3.413   1.569   8.346
 1514TIP3    H226102   3.350   1.640   8.228
 1515TIP3   OH226103   6.790   0.763   8.603
 1515TIP3    H126104   6.794   0.719   8.688
 1515TIP3    H226105   0.026   0.790   8.585
 1516TIP3   OH226106   5.556   6.008   1.488
 1516TIP3    H126107   5.622   6.023   1.555
 1516TIP3    H226108   5.596   5.945   1.428
 1517TIP3   OH226109   3.648   2.088   1.646
 1517TIP3    H126110   3.614   2.148   1.712
 1517TIP3    H226111   3.582   2.019   1.639
 1518TIP3   OH226112   5.675   5.353   1.937
 1518TIP3    H126113   5.762   5.387   1.955
 1518TIP3    H226114   5.620   5.432   1.928
 1519TIP3   OH226115   6.852   3.409   1.954
 1519TIP3    H126116   6.792   3.484   1.952
 1519TIP3    H226117   0.062   3.432   2.022
 1520TIP3   OH226118   5.495   6.090   7.936
 1520TIP3    H126119   5.420   6.141   7.968
 1520TIP3    H226120   5.502   6.113   7.843
 1521TIP3   OH226121   0.468   5.598   7.746
 1521TIP3    H126122   0.415   5.525   7.776
 1521TIP3    H226123   0.552   5.559   7.722
 1522TIP3   OH226124   2.972   6.529   8.636
 1522TIP3    H126125   2.944   6.443   8.667
 1522TIP3    H226126   2.897   6.586   8.651
 1523TIP3   OH226127   1.068   3.003   0.762
 1523TIP3    H126128   1.139   3.067   0.766
 1523TIP3    H226129   1.052   2.990   0.668
 1524TIP3   OH226130   4.511   6.319   0.247
 1524TIP3    H126131   4.446   6.383   0.275
 1524TIP3    H226132   4.502   6.315   0.152
 1525TIP3   OH226133   5.938   4.025   0.461
 1525TIP3    H126134   5.992   3.989   0.531
 1525TIP3    H226135   5.887   4.093   0.503
 1526TIP3   OH226136   1.202   3.691   1.520
 1526TIP3    H126137   1.291   3.716   1.497
 1526TIP3    H226138   1.194   3.601   1.488
 1527TIP3   OH226139   4.580   5.774   1.948
 1527TIP3    H126140   4.621   5.802   2.030
 1527TIP3    H226141   4.571   5.855   1.897
 1528TIP3   OH226142   6.197   4.925   1.193
 1528TIP3    H126143   6.136   4.893   1.125
 1528TIP3    H226144   6.253   4.850   1.211
 1529TIP3   OH226145   0.472   6.773   0.639
 1529TIP3    H126146   0.378   6.777   0.627
 1529TIP3    H226147   0.490   6.831   0.713
 1530TIP3   OH226148   2.649   0.147   0.846
 1530TIP3    H126149   2.695   0.231   0.846
 1530TIP3    H226150   2.579   0.158   0.910
 1531TIP3   OH226151   4.871   2.202   1.739
 1531TIP3    H126152   4.871   2.271   1.674
 1531TIP3    H226153   4.908   2.243   1.818
 1532TIP3   OH226154   3.831   6.820   0.335
 1532TIP3    H126155   3.785   0.022   0.274
 1532TIP3    H226156   3.761   6.768   0.377
 1533TIP3   OH226157   2.914   3.913   2.056
 1533TIP3    H126158   2.829   3.918   2.100
 1533TIP3    H226159   2.913   3.828   2.012
 1534TIP3   OH226160   6.818   4.170   8.592
 1534TIP3    H126161   0.019   4.193   8.667
 1534TIP3    H226162   6.745   4.232   8.596
 1535TIP3   OH226163   1.936   0.800   0.951
 1535TIP3    H126164   1.976   0.888   0.952
 1535TIP3    H226165   1.923   0.780   1.044
 1536TIP3   OH226166   1.573   2.820   1.193
 1536TIP3    H126167   1.589   2.772   1.112
 1536TIP3    H226168   1.483   2.797   1.218
 1537TIP3   OH226169   1.106   1.189   0.339
 1537TIP3    H126170   1.112   1.194   0.243
 1537TIP3    H226171   1.071   1.274   0.365
 1538TIP3   OH226172   4.656   1.148   1.478
 1538TIP3    H126173   4.663   1.211   1.549
 1538TIP3    H226174   4.664   1.201   1.398
 1539TIP3   OH226175   2.316   2.963   0.034
 1539TIP3    H126176   2.265   2.959   0.115
 1539TIP3    H226177   2.288   3.045   8.719
 1540TIP3   OH226178   2.506   5.054   0.253
 1540TIP3    H126179   2.542   5.022   0.336
 1540TIP3    H226180   2.416   5.020   0.252
 1541TIP3   OH226181   6.417   4.348   0.518
 1541TIP3    H126182   6.407   4.278   0.583
 1541TIP3    H226183   6.472   4.413   0.562
 1542TIP3   OH226184   4.194   4.205   7.546
 1542TIP3    H126185   4.170   4.244   7.462
 1542TIP3    H226186   4.203   4.279   7.606
 1543TIP3   OH226187   3.701   4.524   8.441
 1543TIP3    H126188   3.696   4.592   8.508
 1543TIP3    H226189   3.660   4.563   8.364
 1544TIP3   OH226190   0.753   6.850   8.541
 1544TIP3    H126191   0.818   6.845   8.471
 1544TIP3    H226192   0.685   6.788   8.516
 1545TIP3   OH226193   3.672   1.601   6.907
 1545TIP3    H126194   3.693   1.692   6.886
 1545TIP3    H226195   3.610   1.607   6.980
 1546TIP3   OH226196   1.755   5.910   7.551
 1546TIP3    H126197   1.688   5.960   7.597
 1546TIP3    H226198   1.739   5.929   7.458
 1547TIP3   OH226199   5.005   2.250   8.365
 1547TIP3    H126200   4.983   2.337   8.333
 1547TIP3    H226201   4.921   2.212   8.390
 1548TIP3   OH226202   4.351   3.138   7.025
 1548TIP3    H126203   4.412   3.157   6.954
 1548TIP3    H226204   4.391   3.178   7.102
 1549TIP3   OH226205   2.365   3.242   0.588
 1549TIP3    H126206   2.437   3.265   0.529
 1549TIP3    H226207   2.407   3.225   0.672
 1550TIP3   OH226208   5.556   2.726   0.493
 1550TIP3    H126209   5.522   2.816   0.489
 1550TIP3    H226210   5.501   2.677   0.431
 1551TIP3   OH226211   6.473   5.276   6.631
 1551TIP3    H126212   6.521   5.353   6.662
 1551TIP3    H226213   6.495   5.270   6.538
 1552TIP3   OH226214   0.698   4.916   8.148
 1552TIP3    H126215   0.788   4.907   8.117
 1552TIP3    H226216   0.672   4.826   8.171
 1553TIP3   OH226217   1.653   0.418   0.850
 1553TIP3    H126218   1.727   0.479   0.844
 1553TIP3    H226219   1.692   0.337   0.882
 1554TIP3   OH226220   1.979   4.969   0.207
 1554TIP3    H126221   2.070   4.963   0.178
 1554TIP3    H226222   1.957   5.062   0.198
 1555TIP3   OH226223   6.010   4.623   2.005
 1555TIP3    H126224   5.945   4.675   1.958
 1555TIP3    H226225   6.073   4.687   2.037
 1556TIP3   OH226226   4.466   3.858   7.354
 1556TIP3    H126227   4.506   3.787   7.305
 1556TIP3    H226228   4.514   3.936   7.327
 1557TIP3   OH226229   4.809   3.646   2.122
 1557TIP3    H126230   4.811   3.586   2.196
 1557TIP3    H226231   4.716   3.656   2.102
 1558TIP3   OH226232   5.897   0.108   6.401
 1558TIP3    H126233   5.992   0.094   6.401
 1558TIP3    H226234   5.884   0.183   6.459
 1559TIP3   OH226235   6.106   2.082   8.491
 1559TIP3    H126236   6.146   2.163   8.524
 1559TIP3    H226237   6.113   2.089   8.396
 1560TIP3   OH226238   2.965   3.244   8.694
 1560TIP3    H126239   2.929   3.323   8.653
 1560TIP3    H226240   3.059   3.257   8.695
 1561TIP3   OH226241   4.579   1.686   0.059
 1561TIP3    H126242   4.526   1.683   8.706
 1561TIP3    H226243   4.612   1.596   0.069
 1562TIP3   OH226244   2.657   0.133   6.717
 1562TIP3    H126245   2.597   0.142   6.791
 1562TIP3    H226246   2.738   0.099   6.756
 1563TIP3   OH226247   3.911   5.886   8.244
 1563TIP3    H126248   3.923   5.937   8.323
 1563TIP3    H226249   3.911   5.950   8.173
 1564TIP3   OH226250   6.017   2.660   0.937
 1564TIP3    H126251   6.053   2.683   1.023
 1564TIP3    H226252   5.989   2.744   0.900
 1565TIP3   OH226253   4.591   2.777   2.363
 1565TIP3    H126254   4.671   2.725   2.368
 1565TIP3    H226255   4.527   2.728   2.415
 1566TIP3   OH226256   3.369   2.451   0.392
 1566TIP3    H126257   3.434   2.394   0.350
 1566TIP3    H226258   3.286   2.424   0.354
 1567TIP3   OH226259   0.357   4.032   0.595
 1567TIP3    H126260   0.307   4.091   0.652
 1567TIP3    H226261   0.448   4.050   0.618
 1568TIP3   OH226262   6.003   1.364   7.078
 1568TIP3    H126263   6.002   1.435   7.142
 1568TIP3    H226264   6.075   1.308   7.107
 1569TIP3   OH226265   3.765   1.481   1.835
 1569TIP3    H126266   3.738   1.441   1.918
 1569TIP3    H226267   3.683   1.513   1.796
 1570TIP3   OH226268   1.362   5.145   1.764
 1570TIP3    H126269   1.439   5.105   1.725
 1570TIP3    H226270   1.315   5.183   1.690
 1571TIP3   OH226271   4.926   0.985   6.907
 1571TIP3    H126272   4.869   1.015   6.836
 1571TIP3    H226273   4.954   0.898   6.879
 1572TIP3   OH226274   5.885   6.727   7.483
 1572TIP3    H126275   5.794   6.741   7.508
 1572TIP3    H226276   5.908   6.803   7.430
 1573TIP3   OH226277   2.588   3.231   1.652
 1573TIP3    H126278   2.531   3.189   1.587
 1573TIP3    H226279   2.608   3.162   1.714
 1574TIP3   OH226280   4.381   5.051   7.360
 1574TIP3    H126281   4.323   5.111   7.313
 1574TIP3    H226282   4.428   5.106   7.423
 1575TIP3   OH226283   5.197   3.558   7.834
 1575TIP3    H126284   5.205   3.464   7.818
 1575TIP3    H226285   5.216   3.598   7.750
 1576TIP3   OH226286   4.014   4.568   0.841
 1576TIP3    H126287   4.032   4.527   0.756
 1576TIP3    H226288   4.036   4.660   0.829
 1577TIP3   OH226289   6.110   5.151   7.296
 1577TIP3    H126290   6.198   5.141   7.331
 1577TIP3    H226291   6.054   5.157   7.374
 1578TIP3   OH226292   3.481   1.888   1.661
 1578TIP3    H126293   3.497   1.813   1.719
 1578TIP3    H226294   3.434   1.851   1.587
 1579TIP3   OH226295   5.081   2.314   6.804
 1579TIP3    H126296   5.126   2.337   6.723
 1579TIP3    H226297   5.126   2.236   6.835
 1580TIP3   OH226298   3.220   6.727   8.249
 1580TIP3    H126299   3.282   6.677   8.302
 1580TIP3    H226300   3.263   6.735   8.163
 1581TIP3   OH226301   1.028   2.263   1.071
 1581TIP3    H126302   0.989   2.348   1.051
 1581TIP3    H226303   1.084   2.243   0.996
 1582TIP3   OH226304   1.319   2.318   8.636
 1582TIP3    H126305   1.269   2.359   8.566
 1582TIP3    H226306   1.391   2.379   8.653
 1583TIP3   OH226307   6.023   1.728   0.620
 1583TIP3    H126308   6.090   1.785   0.584
 1583TIP3    H226309   6.034   1.645   0.573
 1584TIP3   OH226310   2.764   4.248   0.253
 1584TIP3    H126311   2.842   4.300   0.270
 1584TIP3    H226312   2.791   4.183   0.188
 1585TIP3   OH226313   4.639   3.994   0.170
 1585TIP3    H126314   4.585   4.066   0.203
 1585TIP3    H226315   4.575   3.928   0.143
 1586TIP3   OH226316   0.516   4.218   7.677
 1586TIP3    H126317   0.600   4.225   7.631
 1586TIP3    H226318   0.489   4.128   7.663
 1587TIP3   OH226319   3.636   2.456   8.123
 1587TIP3    H126320   3.580   2.449   8.046
 1587TIP3    H226321   3.588   2.515   8.182
 1588TIP3   OH226322   2.218   0.765   7.155
 1588TIP3    H126323   2.142   0.748   7.210
 1588TIP3    H226324   2.183   0.778   7.067
 1589TIP3   OH226325   3.241   6.318   1.901
 1589TIP3    H126326   3.205   6.388   1.955
 1589TIP3    H226327   3.214   6.238   1.944
 1590TIP3   OH226328   4.027   5.645   7.400
 1590TIP3    H126329   4.052   5.633   7.492
 1590TIP3    H226330   4.101   5.693   7.362
 1591TIP3   OH226331   4.726   1.769   0.694
 1591TIP3    H126332   4.780   1.696   0.726
 1591TIP3    H226333   4.787   1.842   0.686
 1592TIP3   OH226334   2.766   5.739   8.566
 1592TIP3    H126335   2.716   5.769   8.490
 1592TIP3    H226336   2.704   5.744   8.639
 1593TIP3   OH226337   4.705   1.785   7.756
 1593TIP3    H126338   4.759   1.858   7.788
 1593TIP3    H226339   4.750   1.756   7.676
 1594TIP3   OH226340   6.260   6.805   0.399
 1594TIP3    H126341   6.207   0.028   0.379
 1594TIP3    H226342   6.318   6.795   0.324
 1595TIP3   OH226343   3.284   2.629   2.223
 1595TIP3    H126344   3.335   2.626   2.142
 1595TIP3    H226345   3.302   2.717   2.258
 1596TIP3   OH226346   0.726   6.837   6.344
 1596TIP3    H126347   0.703   0.030   6.424
 1596TIP3    H226348   0.770   6.758   6.375
 1597TIP3   OH226349   3.456   4.770   0.246
 1597TIP3    H126350   3.483   4.828   0.175
 1597TIP3    H226351   3.506   4.689   0.230
 1598TIP3   OH226352   3.316   2.995   1.363
 1598TIP3    H126353   3.229   3.030   1.344
 1598TIP3    H226354   3.349   3.048   1.436
 1599TIP3   OH226355   2.782   2.679   0.620
 1599TIP3    H126356   2.689   2.692   0.641
 1599TIP3    H226357   2.796   2.585   0.632
 1600TIP3   OH226358   3.962   1.490   2.063
 1600TIP3    H126359   4.018   1.537   2.124
 1600TIP3    H226360   3.873   1.511   2.091
 1601TIP3   OH226361   3.562   0.145   7.684
 1601TIP3    H126362   3.496   0.208   7.655
 1601TIP3    H226363   3.513   0.064   7.699
 1602TIP3   OH226364   4.141   0.673   1.212
 1602TIP3    H126365   4.111   0.743   1.270
 1602TIP3    H226366   4.164   0.717   1.130
 1603TIP3   OH226367   4.675   5.623   8.075
 1603TIP3    H126368   4.620   5.545   8.075
 1603TIP3    H226369   4.758   5.593   8.038
 1604TIP3   OH226370   4.271   2.834   7.471
 1604TIP3    H126371   4.301   2.912   7.516
 1604TIP3    H226372   4.189   2.810   7.515
 1605TIP3   OH226373   3.004   2.139   0.146
 1605TIP3    H126374   3.094   2.115   0.167
 1605TIP3    H226375   3.011   2.196   0.069
 1606TIP3   OH226376   3.061   2.272   8.036
 1606TIP3    H126377   3.015   2.193   8.008
 1606TIP3    H226378   2.996   2.322   8.085
 1607TIP3   OH226379   4.598   3.874   2.129
 1607TIP3    H126380   4.685   3.915   2.134
 1607TIP3    H226381   4.576   3.878   2.036
 1608TIP3   OH226382   6.604   3.021   2.271
 1608TIP3    H126383   6.578   2.940   2.226
 1608TIP3    H226384   6.573   3.091   2.215
 1609TIP3   OH226385   2.951   6.332   1.836
 1609TIP3    H126386   3.044   6.311   1.842
 1609TIP3    H226387   2.922   6.340   1.926
 1610TIP3   OH226388   6.117   2.790   0.415
 1610TIP3    H126389   6.022   2.781   0.426
 1610TIP3    H226390   6.150   2.806   0.504
 1611TIP3   OH226391   4.412   2.495   7.588
 1611TIP3    H126392   4.466   2.522   7.513
 1611TIP3    H226393   4.397   2.576   7.637
 1612TIP3   OH226394   1.876   6.757   8.070
 1612TIP3    H126395   1.894   6.838   8.118
 1612TIP3    H226396   1.959   6.710   8.068
 1613TIP3   OH226397   0.968   0.228   8.155
 1613TIP3    H126398   1.040   0.273   8.202
 1613TIP3    H226399   1.011   0.188   8.079
 1614TIP3   OH226400   6.585   6.527   1.996
 1614TIP3    H126401   6.677   6.551   1.982
 1614TIP3    H226402   6.546   6.605   2.037
 1615TIP3   OH226403   3.906   4.199   1.844
 1615TIP3    H126404   3.992   4.220   1.807
 1615TIP3    H226405   3.915   4.109   1.874
 1616TIP3   OH226406   5.749   1.652   8.536
 1616TIP3    H126407   5.751   1.603   8.454
 1616TIP3    H226408   5.828   1.707   8.533
 1617TIP3   OH226409   2.968   1.997   0.686
 1617TIP3    H126410   3.037   1.937   0.715
 1617TIP3    H226411   2.992   2.021   0.597
 1618TIP3   OH226412   2.453   6.770   0.187
 1618TIP3    H126413   2.497   6.686   0.197
 1618TIP3    H226414   2.410   6.764   0.102
 1619TIP3   OH226415   4.728   1.527   0.416
 1619TIP3    H126416   4.717   1.473   0.494
 1619TIP3    H226417   4.690   1.475   0.345
 1620TIP3   OH226418   4.570   5.739   8.443
 1620TIP3    H126419   4.535   5.821   8.406
 1620TIP3    H226420   4.664   5.746   8.430
 1621TIP3   OH226421   0.529   1.353   6.528
 1621TIP3    H126422   0.470   1.279   6.517
 1621TIP3    H226423   0.563   1.371   6.441
 1622TIP3   OH226424   3.780   4.525   2.602
 1622TIP3    H126425   3.873   4.525   2.627
 1622TIP3    H226426   3.765   4.613   2.568
 1623TIP3   OH226427   5.211   0.342   0.354
 1623TIP3    H126428   5.197   0.404   0.283
 1623TIP3    H226429   5.131   0.289   0.358
 1624TIP3   OH226430   5.044   3.623   6.465
 1624TIP3    H126431   5.090   3.667   6.394
 1624TIP3    H226432   4.989   3.557   6.422
 1625TIP3   OH226433   6.071   4.999   7.812
 1625TIP3    H126434   6.166   5.012   7.811
 1625TIP3    H226435   6.051   4.965   7.725
 1626TIP3   OH226436   4.383   0.262   7.597
 1626TIP3    H126437   4.318   0.193   7.608
 1626TIP3    H226438   4.450   0.243   7.662
 1627TIP3   OH226439   1.649   0.561   1.212
 1627TIP3    H126440   1.692   0.509   1.144
 1627TIP3    H226441   1.595   0.624   1.163
 1628TIP3   OH226442   1.075   6.072   2.187
 1628TIP3    H126443   1.082   6.119   2.104
 1628TIP3    H226444   1.138   6.115   2.244
 1629TIP3   OH226445   1.093   3.028   7.529
 1629TIP3    H126446   1.156   3.057   7.463
 1629TIP3    H226447   1.040   3.105   7.547
 1630TIP3   OH226448   3.661   0.556   8.594
 1630TIP3    H126449   3.718   0.633   8.600
 1630TIP3    H226450   3.618   0.565   8.509
 1631TIP3   OH226451   4.416   1.404   1.413
 1631TIP3    H126452   4.392   1.455   1.490
 1631TIP3    H226453   4.506   1.432   1.394
 1632TIP3   OH226454   3.699   1.493   8.545
 1632TIP3    H126455   3.612   1.528   8.561
 1632TIP3    H226456   3.722   1.446   8.625
 1633TIP3   OH226457   5.354   5.652   0.188
 1633TIP3    H126458   5.296   5.578   0.169
 1633TIP3    H226459   5.339   5.712   0.115
 1634TIP3   OH226460   0.742   6.585   1.025
 1634TIP3    H126461   0.732   6.558   1.116
 1634TIP3    H226462   0.834   6.610   1.016
 1635TIP3   OH226463   4.373   2.416   7.984
 1635TIP3    H126464   4.461   2.422   7.948
 1635TIP3    H226465   4.382   2.444   8.075
 1636TIP3   OH226466   5.949   0.113   7.115
 1636TIP3    H126467   6.016   0.135   7.050
 1636TIP3    H226468   5.866   0.119   7.068
 1637TIP3   OH226469   6.717   4.608   0.466
 1637TIP3    H126470   6.704   4.554   0.389
 1637TIP3    H226471   6.673   4.691   0.446
 1638TIP3   OH226472   4.893   0.138   1.302
 1638TIP3    H126473   4.947   0.077   1.252
 1638TIP3    H226474   4.843   0.187   1.236
 1639TIP3   OH226475   4.572   5.954   8.646
 1639TIP3    H126476   4.663   5.951   8.617
 1639TIP3    H226477   4.536   5.869   8.623
 1640TIP3   OH226478   2.009   5.400   7.657
 1640TIP3    H126479   1.950   5.325   7.647
 1640TIP3    H226480   2.008   5.443   7.572
 1641TIP3   OH226481   5.963   4.373   1.899
 1641TIP3    H126482   5.978   4.453   1.949
 1641TIP3    H226483   5.875   4.383   1.864
 1642TIP3   OH226484   1.279   2.427   7.291
 1642TIP3    H126485   1.305   2.364   7.359
 1642TIP3    H226486   1.198   2.391   7.256
 1643TIP3   OH226487   6.183   3.462   7.646
 1643TIP3    H126488   6.159   3.400   7.578
 1643TIP3    H226489   6.271   3.492   7.622
 1644TIP3   OH226490   6.384   3.670   7.577
 1644TIP3    H126491   6.463   3.685   7.526
 1644TIP3    H226492   6.339   3.754   7.577
 1645TIP3   OH226493   3.141   4.174   1.614
 1645TIP3    H126494   3.093   4.221   1.683
 1645TIP3    H226495   3.098   4.201   1.533
 1646TIP3   OH226496   4.370   4.130   0.113
 1646TIP3    H126497   4.329   4.192   0.173
 1646TIP3    H226498   4.305   4.061   0.100
 1647TIP3   OH226499   6.284   3.102   1.461
 1647TIP3    H126500   6.312   3.024   1.509
 1647TIP3    H226501   6.344   3.171   1.491
 1648TIP3   OH226502   1.851   1.031   8.722
 1648TIP3    H126503   1.935   0.999   0.027
 1648TIP3    H226504   1.788   1.002   0.062
 1649TIP3   OH226505   2.155   2.569   7.236
 1649TIP3    H126506   2.083   2.619   7.275
 1649TIP3    H226507   2.168   2.610   7.150
 1650TIP3   OH226508   3.383   4.605   8.405
 1650TIP3    H126509   3.343   4.683   8.367
 1650TIP3    H226510   3.378   4.538   8.337
 1651TIP3   OH226511   0.341   6.731   6.788
 1651TIP3    H126512   0.258   6.743   6.741
 1651TIP3    H226513   0.363   6.639   6.774
 1652TIP3   OH226514   6.488   1.808   0.868
 1652TIP3    H126515   6.400   1.826   0.903
 1652TIP3    H226516   6.513   1.889   0.823
 1653TIP3   OH226517   2.899   3.378   8.375
 1653TIP3    H126518   2.981   3.426   8.383
 1653TIP3    H226519   2.920   3.289   8.405
 1654TIP3   OH226520   0.281   4.756   7.047
 1654TIP3    H126521   0.348   4.823   7.038
 1654TIP3    H226522   0.220   4.773   6.975
 1655TIP3   OH226523   0.517   0.968   2.336
 1655TIP3    H126524   0.492   0.952   2.427
 1655TIP3    H226525   0.460   0.911   2.285
 1656TIP3   OH226526   0.411   0.127   1.983
 1656TIP3    H126527   0.340   0.118   1.918
 1656TIP3    H226528   0.378   0.192   2.045
 1657TIP3   OH226529   6.466   5.770   6.464
 1657TIP3    H126530   6.432   5.683   6.486
 1657TIP3    H226531   6.398   5.830   6.494
 1658TIP3   OH226532   6.263   5.520   2.064
 1658TIP3    H126533   6.201   5.487   1.999
 1658TIP3    H226534   6.269   5.614   2.046
 1659TIP3   OH226535   3.291   4.087   7.516
 1659TIP3    H126536   3.295   4.152   7.445
 1659TIP3    H226537   3.250   4.011   7.475
 1660TIP3   OH226538   5.243   4.929   8.694
 1660TIP3    H126539   5.154   4.943   8.662
 1660TIP3    H226540   5.236   4.936   0.063
 1661TIP3   OH226541   5.164   6.394   7.214
 1661TIP3    H126542   5.104   6.393   7.140
 1661TIP3    H226543   5.107   6.399   7.291
 1662TIP3   OH226544   6.773   2.961   8.044
 1662TIP3    H126545   6.847   2.902   8.026
 1662TIP3    H226546   6.726   2.919   8.116
 1663TIP3   OH226547   5.866   4.009   7.514
 1663TIP3    H126548   5.794   3.974   7.566
 1663TIP3    H226549   5.910   3.932   7.478
 1664TIP3   OH226550   3.667   0.748   0.118
 1664TIP3    H126551   3.613   0.827   0.120
 1664TIP3    H226552   3.755   0.779   0.100
 1665TIP3   OH226553   0.408   5.278   8.603
 1665TIP3    H126554   0.456   5.212   8.553
 1665TIP3    H226555   0.465   5.354   8.603
 1666TIP3   OH226556   0.499   1.722   8.324
 1666TIP3    H126557   0.445   1.801   8.333
 1666TIP3    H226558   0.439   1.651   8.345
 1667TIP3   OH226559   4.544   6.606   1.114
 1667TIP3    H126560   4.628   6.645   1.090
 1667TIP3    H226561   4.568   6.529   1.166
 1668TIP3   OH226562   1.662   0.629   8.626
 1668TIP3    H126563   1.642   0.716   8.662
 1668TIP3    H226564   1.630   0.568   8.692
 1669TIP3   OH226565   5.384   2.869   6.432
 1669TIP3    H126566   5.324   2.811   6.478
 1669TIP3    H226567   5.379   2.952   6.480
 1670TIP3   OH226568   2.660   1.797   0.828
 1670TIP3    H126569   2.661   1.735   0.756
 1670TIP3    H226570   2.590   1.859   0.806
 1671TIP3   OH226571   4.454   6.324   1.128
 1671TIP3    H126572   4.479   6.284   1.211
 1671TIP3    H226573   4.495   6.267   1.062
 1672TIP3   OH226574   3.820   1.401   6.732
 1672TIP3    H126575   3.751   1.403   6.666
 1672TIP3    H226576   3.835   1.308   6.749
 1673TIP3   OH226577   2.638   3.803   1.497
 1673TIP3    H126578   2.642   3.878   1.438
 1673TIP3    H226579   2.608   3.839   1.580
 1674TIP3   OH226580   3.184   0.191   7.686
 1674TIP3    H126581   3.264   0.211   7.638
 1674TIP3    H226582   3.140   0.124   7.634
 1675TIP3   OH226583   0.604   3.874   7.758
 1675TIP3    H126584   0.625   3.785   7.787
 1675TIP3    H226585   0.605   3.926   7.838
 1676TIP3   OH226586   0.273   3.192   8.263
 1676TIP3    H126587   0.261   3.211   8.170
 1676TIP3    H226588   0.228   3.263   8.308
 1677TIP3   OH226589   5.907   1.972   6.543
 1677TIP3    H126590   5.896   1.878   6.528
 1677TIP3    H226591   5.907   2.010   6.455
 1678TIP3   OH226592   3.192   1.796   7.023
 1678TIP3    H126593   3.149   1.880   7.040
 1678TIP3    H226594   3.121   1.736   7.006
 1679TIP3   OH226595   6.393   6.835   8.341
 1679TIP3    H126596   6.419   0.059   8.389
 1679TIP3    H226597   6.371   6.771   8.410
 1680TIP3   OH226598   1.140   1.129   0.083
 1680TIP3    H126599   1.102   1.051   0.123
 1680TIP3    H226600   1.145   1.108   8.715
 1681TIP3   OH226601   1.593   3.495   7.707
 1681TIP3    H126602   1.523   3.494   7.641
 1681TIP3    H226603   1.669   3.458   7.662
 1682TIP3   OH226604   0.798   1.472   0.461
 1682TIP3    H126605   0.886   1.477   0.423
 1682TIP3    H226606   0.769   1.383   0.444
 1683TIP3   OH226607   3.619   3.790   1.067
 1683TIP3    H126608   3.658   3.876   1.051
 1683TIP3    H226609   3.633   3.775   1.161
 1684TIP3   OH226610   0.745   5.216   6.706
 1684TIP3    H126611   0.826   5.164   6.702
 1684TIP3    H226612   0.683   5.160   6.752
 1685TIP3   OH226613   2.254   5.135   8.468
 1685TIP3    H126614   2.251   5.209   8.407
 1685TIP3    H226615   2.183   5.077   8.439
 1686TIP3   OH226616   0.124   5.950   1.231
 1686TIP3    H126617   0.207   5.994   1.215
 1686TIP3    H226618   0.143   5.885   1.299
 1687TIP3   OH226619   5.302   0.665   8.416
 1687TIP3    H126620   5.378   0.714   8.385
 1687TIP3    H226621   5.296   0.687   8.509
 1688TIP3   OH226622   1.809   5.920   0.450
 1688TIP3    H126623   1.723   5.921   0.408
 1688TIP3    H226624   1.866   5.969   0.390
 1689TIP3   OH226625   2.101   5.760   0.031
 1689TIP3    H126626   2.024   5.799   0.074
 1689TIP3    H226627   2.151   5.721   0.103
 1690TIP3   OH226628   2.127   1.549   1.792
 1690TIP3    H126629   2.136   1.643   1.802
 1690TIP3    H226630   2.156   1.513   1.876
 1691TIP3   OH226631   6.765   5.718   0.803
 1691TIP3    H126632   6.822   5.764   0.865
 1691TIP3    H226633   6.809   5.634   0.789
 1692TIP3   OH226634   1.443   3.951   8.384
 1692TIP3    H126635   1.437   4.040   8.349
 1692TIP3    H226636   1.424   3.962   8.477
 1693TIP3   OH226637   0.178   0.972   1.783
 1693TIP3    H126638   0.260   0.923   1.772
 1693TIP3    H226639   0.188   1.018   1.866
 1694TIP3   OH226640   6.083   6.253   8.726
 1694TIP3    H126641   6.117   6.262   8.637
 1694TIP3    H226642   6.113   6.331   0.045
 1695TIP3   OH226643   1.947   3.288   1.971
 1695TIP3    H126644   1.912   3.201   1.950
 1695TIP3    H226645   1.877   3.348   1.945
 1696TIP3   OH226646   0.319   2.736   2.049
 1696TIP3    H126647   0.261   2.736   1.973
 1696TIP3    H226648   0.294   2.813   2.099
 1697TIP3   OH226649   1.619   0.309   8.301
 1697TIP3    H126650   1.705   0.352   8.301
 1697TIP3    H226651   1.637   0.217   8.319
 1698TIP3   OH226652   1.064   1.936   0.473
 1698TIP3    H126653   1.059   1.887   0.390
 1698TIP3    H226654   1.002   1.890   0.530
 1699TIP3   OH226655   3.197   3.252   6.646
 1699TIP3    H126656   3.168   3.205   6.567
 1699TIP3    H226657   3.194   3.344   6.620
 1700TIP3   OH226658   0.976   2.919   0.514
 1700TIP3    H126659   1.064   2.886   0.496
 1700TIP3    H226660   0.967   2.994   0.455
 1701TIP3   OH226661   6.000   4.381   2.224
 1701TIP3    H126662   6.070   4.317   2.230
 1701TIP3    H226663   5.959   4.380   2.310
 1702TIP3   OH226664   2.412   1.569   0.540
 1702TIP3    H126665   2.361   1.628   0.485
 1702TIP3    H226666   2.450   1.506   0.479
 1703TIP3   OH226667   2.322   6.243   1.282
 1703TIP3    H126668   2.415   6.222   1.284
 1703TIP3    H226669   2.305   6.286   1.366
 1704TIP3   OH226670   1.286   0.414   1.433
 1704TIP3    H126671   1.339   0.407   1.354
 1704TIP3    H226672   1.196   0.416   1.402
 1705TIP3   OH226673   3.225   0.747   8.281
 1705TIP3    H126674   3.306   0.783   8.316
 1705TIP3    H226675   3.173   0.725   8.358
 1706TIP3   OH226676   0.337   3.647   0.073
 1706TIP3    H126677   0.273   3.699   0.122
 1706TIP3    H226678   0.289   3.614   8.724
 1707TIP3   OH226679   1.641   0.312   2.223
 1707TIP3    H126680   1.632   0.245   2.155
 1707TIP3    H226681   1.654   0.394   2.174
 1708TIP3   OH226682   0.404   6.315   7.132
 1708TIP3    H126683   0.337   6.283   7.193
 1708TIP3    H226684   0.366   6.396   7.096
 1709TIP3   OH226685   4.495   0.846   7.119
 1709TIP3    H126686   4.419   0.863   7.174
 1709TIP3    H226687   4.484   0.755   7.091
 1710TIP3   OH226688   2.394   4.088   8.609
 1710TIP3    H126689   2.424   4.051   8.693
 1710TIP3    H226690   2.362   4.012   8.561
 1711TIP3   OH226691   0.221   3.089   7.251
 1711TIP3    H126692   0.266   3.158   7.202
 1711TIP3    H226693   0.272   3.010   7.234
 1712TIP3   OH226694   4.391   5.592   8.130
 1712TIP3    H126695   4.304   5.630   8.140
 1712TIP3    H226696   4.375   5.500   8.108
 1713TIP3   OH226697   2.556   2.873   0.134
 1713TIP3    H126698   2.546   2.892   0.228
 1713TIP3    H226699   2.478   2.909   0.093
 1714TIP3   OH226700   3.919   6.584   2.311
 1714TIP3    H126701   3.911   6.612   2.220
 1714TIP3    H226702   3.877   6.653   2.362
 1715TIP3   OH226703   2.698   1.044   2.281
 1715TIP3    H126704   2.776   1.016   2.234
 1715TIP3    H226705   2.636   0.971   2.271
 1716TIP3   OH226706   0.584   2.695   6.466
 1716TIP3    H126707   0.547   2.781   6.485
 1716TIP3    H226708   0.678   2.712   6.453
 1717TIP3   OH226709   0.917   0.115   0.071
 1717TIP3    H126710   0.937   0.131   8.705
 1717TIP3    H226711   0.927   0.020   0.082
 1718TIP3   OH226712   2.139   4.009   0.823
 1718TIP3    H126713   2.065   4.024   0.882
 1718TIP3    H226714   2.121   3.923   0.785
 1719TIP3   OH226715   1.990   5.459   7.409
 1719TIP3    H126716   1.941   5.529   7.366
 1719TIP3    H226717   1.982   5.385   7.350
 1720TIP3   OH226718   3.107   2.142   1.684
 1720TIP3    H126719   3.045   2.208   1.715
 1720TIP3    H226720   3.176   2.141   1.750
 1721TIP3   OH226721   6.059   2.062   0.330
 1721TIP3    H126722   6.060   2.158   0.338
 1721TIP3    H226723   6.054   2.046   0.235
 1722TIP3   OH226724   5.041   6.035   0.383
 1722TIP3    H126725   4.956   6.056   0.421
 1722TIP3    H226726   5.052   6.099   0.312
 1723TIP3   OH226727   2.412   3.200   1.047
 1723TIP3    H126728   2.450   3.193   0.960
 1723TIP3    H226729   2.342   3.134   1.048
 1724TIP3   OH226730   5.207   4.405   7.512
 1724TIP3    H126731   5.199   4.453   7.594
 1724TIP3    H226732   5.163   4.461   7.448
 1725TIP3   OH226733   3.110   2.241   6.966
 1725TIP3    H126734   3.140   2.332   6.974
 1725TIP3    H226735   3.040   2.245   6.902
 1726TIP3   OH226736   3.215   3.340   8.122
 1726TIP3    H126737   3.253   3.262   8.164
 1726TIP3    H226738   3.131   3.309   8.086
 1727TIP3   OH226739   3.664   3.321   8.363
 1727TIP3    H126740   3.659   3.245   8.305
 1727TIP3    H226741   3.611   3.388   8.320
 1728TIP3   OH226742   1.892   4.435   0.647
 1728TIP3    H126743   1.847   4.472   0.723
 1728TIP3    H226744   1.834   4.455   0.573
 1729TIP3   OH226745   6.318   3.680   2.064
 1729TIP3    H126746   6.309   3.769   2.097
 1729TIP3    H226747   6.231   3.641   2.074
 1730TIP3   OH226748   5.837   6.772   1.874
 1730TIP3    H126749   5.818   6.679   1.865
 1730TIP3    H226750   5.910   6.787   1.815
 1731TIP3   OH226751   5.866   5.607   0.396
 1731TIP3    H126752   5.804   5.603   0.323
 1731TIP3    H226753   5.820   5.565   0.469
 1732TIP3   OH226754   5.605   5.002   6.813
 1732TIP3    H126755   5.610   5.087   6.769
 1732TIP3    H226756   5.575   4.942   6.746
 1733TIP3   OH226757   1.491   1.711   6.521
 1733TIP3    H126758   1.567   1.672   6.564
 1733TIP3    H226759   1.488   1.671   6.435
 1734TIP3   OH226760   5.982   5.787   1.890
 1734TIP3    H126761   6.066   5.806   1.931
 1734TIP3    H226762   5.988   5.695   1.864
 1735TIP3   OH226763   1.174   1.379   8.438
 1735TIP3    H126764   1.213   1.320   8.373
 1735TIP3    H226765   1.081   1.380   8.416
 1736TIP3   OH226766   3.590   3.822   1.609
 1736TIP3    H126767   3.609   3.803   1.701
 1736TIP3    H226768   3.665   3.874   1.579
 1737TIP3   OH226769   1.643   0.613   7.414
 1737TIP3    H126770   1.736   0.630   7.427
 1737TIP3    H226771   1.599   0.676   7.471
 1738TIP3   OH226772   2.167   1.828   1.830
 1738TIP3    H126773   2.169   1.877   1.913
 1738TIP3    H226774   2.229   1.874   1.774
 1739TIP3   OH226775   3.866   2.898   8.488
 1739TIP3    H126776   3.836   2.924   8.401
 1739TIP3    H226777   3.881   2.980   8.534
 1740TIP3   OH226778   1.696   0.428   6.477
 1740TIP3    H126779   1.661   0.356   6.425
 1740TIP3    H226780   1.641   0.503   6.456
 1741TIP3   OH226781   1.161   1.665   6.786
 1741TIP3    H126782   1.226   1.596   6.775
 1741TIP3    H226783   1.104   1.658   6.710
 1742TIP3   OH226784   2.064   5.760   1.652
 1742TIP3    H126785   2.092   5.668   1.651
 1742TIP3    H226786   2.006   5.766   1.728
 1743TIP3   OH226787   2.582   2.545   6.760
 1743TIP3    H126788   2.611   2.486   6.690
 1743TIP3    H226789   2.500   2.582   6.728
 1744TIP3   OH226790   2.233   2.707   8.014
 1744TIP3    H126791   2.140   2.688   8.027
 1744TIP3    H226792   2.270   2.702   8.102
 1745TIP3   OH226793   1.134   2.257   6.624
 1745TIP3    H126794   1.124   2.279   6.532
 1745TIP3    H226795   1.128   2.341   6.670
 1746TIP3   OH226796   1.181   0.164   0.150
 1746TIP3    H126797   1.087   0.146   0.146
 1746TIP3    H226798   1.189   0.233   0.217
 1747TIP3   OH226799   2.034   3.283   2.346
 1747TIP3    H126800   2.107   3.222   2.345
 1747TIP3    H226801   1.988   3.264   2.428
 1748TIP3   OH226802   5.244   2.158   6.457
 1748TIP3    H126803   5.329   2.123   6.486
 1748TIP3    H226804   5.236   2.242   6.502
 1749TIP3   OH226805   5.978   6.274   0.652
 1749TIP3    H126806   6.022   6.190   0.662
 1749TIP3    H226807   5.907   6.273   0.716
 1750TIP3   OH226808   4.762   3.499   1.715
 1750TIP3    H126809   4.677   3.459   1.735
 1750TIP3    H226810   4.742   3.566   1.650
 1751TIP3   OH226811   0.445   1.174   1.780
 1751TIP3    H126812   0.523   1.206   1.826
 1751TIP3    H226813   0.475   1.159   1.691
 1752TIP3   OH226814   5.185   0.486   6.413
 1752TIP3    H126815   5.106   0.541   6.408
 1752TIP3    H226816   5.153   0.397   6.398
 1753TIP3   OH226817   2.422   5.964   1.730
 1753TIP3    H126818   2.439   5.874   1.755
 1753TIP3    H226819   2.327   5.969   1.722
 1754TIP3   OH226820   0.899   3.338   6.149
 1754TIP3    H126821   0.979   3.331   6.200
 1754TIP3    H226822   0.904   3.423   6.107
 1755TIP3   OH226823   1.016   0.155   6.689
 1755TIP3    H126824   1.026   0.122   6.599
 1755TIP3    H226825   1.027   0.249   6.680
 1756TIP3   OH226826   0.322   0.461   1.359
 1756TIP3    H126827   0.386   0.409   1.310
 1756TIP3    H226828   0.237   0.430   1.327
 1757TIP3   OH226829   0.814   6.797   7.761
 1757TIP3    H126830   0.875   6.819   7.691
 1757TIP3    H226831   0.776   0.026   7.788
 1758TIP3   OH226832   2.914   5.904   7.362
 1758TIP3    H126833   2.881   5.983   7.321
 1758TIP3    H226834   2.999   5.929   7.399
 1759TIP3   OH226835   4.275   0.872   7.925
 1759TIP3    H126836   4.197   0.838   7.882
 1759TIP3    H226837   4.273   0.966   7.909
 1760TIP3   OH226838   4.467   6.096   6.386
 1760TIP3    H126839   4.557   6.123   6.367
 1760TIP3    H226840   4.473   6.003   6.404
 1761TIP3   OH226841   1.362   3.229   6.203
 1761TIP3    H126842   1.278   3.185   6.187
 1761TIP3    H226843   1.405   3.174   6.269
 1762TIP3   OH226844   5.513   4.149   1.560
 1762TIP3    H126845   5.448   4.218   1.573
 1762TIP3    H226846   5.527   4.113   1.648
 1763TIP3   OH226847   1.136   6.247   0.731
 1763TIP3    H126848   1.161   6.161   0.762
 1763TIP3    H226849   1.216   6.299   0.734
 1764TIP3   OH226850   4.681   2.003   1.117
 1764TIP3    H126851   4.634   1.922   1.139
 1764TIP3    H226852   4.736   2.021   1.193
 1765TIP3   OH226853   4.533   0.309   7.961
 1765TIP3    H126854   4.555   0.367   8.034
 1765TIP3    H226855   4.441   0.326   7.944
 1766TIP3   OH226856   0.804   4.165   8.405
 1766TIP3    H126857   0.883   4.193   8.359
 1766TIP3    H226858   0.816   4.199   8.494
 1767TIP3   OH226859   0.904   4.574   6.632
 1767TIP3    H126860   0.926   4.490   6.671
 1767TIP3    H226861   0.941   4.639   6.692
 1768TIP3   OH226862   1.805   0.352   0.338
 1768TIP3    H126863   1.824   0.379   0.428
 1768TIP3    H226864   1.881   0.383   0.288
 1769TIP3   OH226865   3.737   1.041   7.804
 1769TIP3    H126866   3.645   1.036   7.780
 1769TIP3    H226867   3.747   0.977   7.875
 1770TIP3   OH226868   4.983   0.213   2.030
 1770TIP3    H126869   5.002   0.134   2.080
 1770TIP3    H226870   4.966   0.280   2.096
 1771TIP3   OH226871   2.060   0.404   0.224
 1771TIP3    H126872   2.064   0.466   0.151
 1771TIP3    H226873   2.121   0.334   0.200
 1772TIP3   OH226874   0.010   2.504   1.773
 1772TIP3    H126875   6.778   2.537   1.798
 1772TIP3    H226876   0.005   2.409   1.789
 1773TIP3   OH226877   2.162   2.268   1.151
 1773TIP3    H126878   2.215   2.210   1.206
 1773TIP3    H226879   2.134   2.338   1.211
 1774TIP3   OH226880   5.422   0.805   7.028
 1774TIP3    H126881   5.374   0.806   7.111
 1774TIP3    H226882   5.383   0.733   6.979
 1775TIP3   OH226883   6.731   2.969   1.051
 1775TIP3    H126884   6.727   2.915   0.972
 1775TIP3    H226885   6.724   2.907   1.123
 1776TIP3   OH226886   1.761   1.302   2.079
 1776TIP3    H126887   1.743   1.285   2.171
 1776TIP3    H226888   1.674   1.314   2.039
 1777TIP3   OH226889   0.405   4.593   2.098
 1777TIP3    H126890   0.345   4.648   2.047
 1777TIP3    H226891   0.413   4.637   2.182
 1778TIP3   OH226892   5.844   3.115   8.184
 1778TIP3    H126893   5.923   3.095   8.234
 1778TIP3    H226894   5.790   3.168   8.243
 1779TIP3   OH226895   5.461   5.356   1.509
 1779TIP3    H126896   5.456   5.436   1.560
 1779TIP3    H226897   5.518   5.298   1.560
 1780TIP3   OH226898   1.461   3.675   6.312
 1780TIP3    H126899   1.394   3.728   6.356
 1780TIP3    H226900   1.412   3.612   6.260
 1781TIP3   OH226901   4.422   3.786   7.993
 1781TIP3    H126902   4.478   3.745   7.928
 1781TIP3    H226903   4.356   3.719   8.014
 1782TIP3   OH226904   1.741   4.332   8.090
 1782TIP3    H126905   1.762   4.367   8.176
 1782TIP3    H226906   1.804   4.261   8.077
 1783TIP3   OH226907   6.133   6.171   8.149
 1783TIP3    H126908   6.157   6.240   8.087
 1783TIP3    H226909   6.048   6.141   8.119
 1784TIP3   OH226910   6.308   3.454   1.560
 1784TIP3    H126911   6.380   3.395   1.536
 1784TIP3    H226912   6.260   3.408   1.628
 1785TIP3   OH226913   4.473   2.102   8.606
 1785TIP3    H126914   4.389   2.101   8.559
 1785TIP3    H226915   4.538   2.123   8.538
 1786TIP3   OH226916   4.114   2.940   0.684
 1786TIP3    H126917   4.116   2.892   0.601
 1786TIP3    H226918   4.200   2.981   0.690
 1787TIP3   OH226919   3.303   1.337   1.129
 1787TIP3    H126920   3.220   1.332   1.082
 1787TIP3    H226921   3.313   1.430   1.150
 1788TIP3   OH226922   2.937   4.079   7.332
 1788TIP3    H126923   2.877   4.153   7.333
 1788TIP3    H226924   2.942   4.051   7.423
 1789TIP3   OH226925   1.886   5.774   1.898
 1789TIP3    H126926   1.838   5.856   1.911
 1789TIP3    H226927   1.896   5.737   1.985
 1790TIP3   OH226928   4.923   5.484   8.541
 1790TIP3    H126929   4.956   5.404   8.501
 1790TIP3    H226930   4.936   5.551   8.474
 1791TIP3   OH226931   6.203   4.507   7.583
 1791TIP3    H126932   6.264   4.535   7.516
 1791TIP3    H226933   6.230   4.418   7.605
 1792TIP3   OH226934   4.269   0.546   0.061
 1792TIP3    H126935   4.304   0.633   0.075
 1792TIP3    H226936   4.187   0.560   0.013
 1793TIP3   OH226937   4.024   0.311   7.906
 1793TIP3    H126938   3.987   0.393   7.873
 1793TIP3    H226939   3.949   0.259   7.933
 1794TIP3   OH226940   5.606   4.820   6.353
 1794TIP3    H126941   5.525   4.779   6.383
 1794TIP3    H226942   5.665   4.746   6.336
 1795TIP3   OH226943   3.579   3.121   1.870
 1795TIP3    H126944   3.499   3.166   1.844
 1795TIP3    H226945   3.572   3.034   1.829
 1796TIP3   OH226946   1.416   4.955   2.547
 1796TIP3    H126947   1.504   4.994   2.548
 1796TIP3    H226948   1.426   4.875   2.598
 1797TIP3   OH226949   1.585   4.273   1.538
 1797TIP3    H126950   1.532   4.201   1.503
 1797TIP3    H226951   1.570   4.270   1.633
 1798TIP3   OH226952   1.941   0.243   1.986
 1798TIP3    H126953   2.021   0.191   1.994
 1798TIP3    H226954   1.956   0.319   2.042
 1799TIP3   OH226955   2.080   0.855   6.901
 1799TIP3    H126956   2.103   0.798   6.827
 1799TIP3    H226957   2.134   0.933   6.889
 1800TIP3   OH226958   4.956   1.874   6.822
 1800TIP3    H126959   4.874   1.878   6.773
 1800TIP3    H226960   5.024   1.889   6.757
 1801TIP3   OH226961   6.304   4.256   0.976
 1801TIP3    H126962   6.283   4.236   1.067
 1801TIP3    H226963   6.387   4.303   0.979
 1802TIP3   OH226964   3.982   1.821   1.286
 1802TIP3    H126965   3.930   1.820   1.366
 1802TIP3    H226966   3.944   1.752   1.232
 1803TIP3   OH226967   3.580   5.217   0.646
 1803TIP3    H126968   3.616   5.287   0.700
 1803TIP3    H226969   3.561   5.259   0.562
 1804TIP3   OH226970   0.355   1.044   7.882
 1804TIP3    H126971   0.339   1.108   7.952
 1804TIP3    H226972   0.408   1.092   7.818
 1805TIP3   OH226973   4.090   2.636   7.769
 1805TIP3    H126974   4.092   2.576   7.844
 1805TIP3    H226975   4.179   2.670   7.764
 1806TIP3   OH226976   3.536   4.755   7.086
 1806TIP3    H126977   3.473   4.793   7.148
 1806TIP3    H226978   3.492   4.761   7.001
 1807TIP3   OH226979   6.699   1.986   7.820
 1807TIP3    H126980   6.702   2.040   7.741
 1807TIP3    H226981   6.757   2.031   7.881
 1808TIP3   OH226982   2.096   2.424   0.767
 1808TIP3    H126983   2.043   2.451   0.692
 1808TIP3    H226984   2.180   2.467   0.752
 1809TIP3   OH226985   1.915   2.844   0.062
 1809TIP3    H126986   1.985   2.904   0.034
 1809TIP3    H226987   1.961   2.765   0.089
 1810TIP3   OH226988   3.664   0.165   6.170
 1810TIP3    H126989   3.570   0.147   6.171
 1810TIP3    H226990   3.673   0.242   6.113
 1811TIP3   OH226991   1.596   5.611   7.926
 1811TIP3    H126992   1.635   5.640   7.843
 1811TIP3    H226993   1.608   5.686   7.985
 1812TIP3   OH226994   4.171   4.699   8.720
 1812TIP3    H126995   4.091   4.697   8.668
 1812TIP3    H226996   4.224   4.627   8.686
 1813TIP3   OH226997   2.725   3.376   7.247
 1813TIP3    H126998   2.742   3.470   7.232
 1813TIP3    H226999   2.733   3.337   7.160
 1814TIP3   OH227000   3.713   4.040   1.033
 1814TIP3    H127001   3.692   4.104   0.965
 1814TIP3    H227002   3.801   4.064   1.062
 1815TIP3   OH227003   6.193   0.566   2.757
 1815TIP3    H127004   6.107   0.602   2.778
 1815TIP3    H227005   6.253   0.609   2.819
 1816TIP3   OH227006   4.738   2.932   0.860
 1816TIP3    H127007   4.771   2.913   0.772
 1816TIP3    H227008   4.660   2.986   0.845
 1817TIP3   OH227009   5.278   3.665   0.898
 1817TIP3    H127010   5.350   3.701   0.949
 1817TIP3    H227011   5.244   3.594   0.952
 1818TIP3   OH227012   3.668   1.664   0.300
 1818TIP3    H127013   3.616   1.622   0.370
 1818TIP3    H227014   3.653   1.757   0.312
 1819TIP3   OH227015   3.117   4.480   1.384
 1819TIP3    H127016   3.087   4.446   1.468
 1819TIP3    H227017   3.038   4.491   1.332
 1820TIP3   OH227018   2.493   3.494   1.160
 1820TIP3    H127019   2.439   3.416   1.145
 1820TIP3    H227020   2.502   3.500   1.255
 1821TIP3   OH227021   0.173   3.696   0.307
 1821TIP3    H127022   0.169   3.789   0.329
 1821TIP3    H227023   0.092   3.680   0.257
 1822TIP3   OH227024   1.407   1.992   7.455
 1822TIP3    H127025   1.466   1.982   7.380
 1822TIP3    H227026   1.330   2.036   7.420
 1823TIP3   OH227027   5.314   5.835   1.101
 1823TIP3    H127028   5.222   5.840   1.075
 1823TIP3    H227029   5.322   5.898   1.173
 1824TIP3   OH227030   2.600   4.832   2.395
 1824TIP3    H127031   2.666   4.788   2.448
 1824TIP3    H227032   2.648   4.900   2.348
 1825TIP3   OH227033   6.172   2.896   6.583
 1825TIP3    H127034   6.129   2.977   6.612
 1825TIP3    H227035   6.138   2.881   6.495
 1826TIP3   OH227036   3.238   1.919   7.477
 1826TIP3    H127037   3.300   1.866   7.527
 1826TIP3    H227038   3.252   2.008   7.510
 1827TIP3   OH227039   1.756   1.830   0.184
 1827TIP3    H127040   1.833   1.848   0.238
 1827TIP3    H227041   1.756   1.735   0.172
 1828TIP3   OH227042   3.592   3.835   6.260
 1828TIP3    H127043   3.501   3.805   6.263
 1828TIP3    H227044   3.643   3.758   6.285
 1829TIP3   OH227045   2.101   3.684   0.011
 1829TIP3    H127046   2.076   3.610   8.682
 1829TIP3    H227047   2.180   3.655   0.056
 1830TIP3   OH227048   2.599   5.848   0.524
 1830TIP3    H127049   2.553   5.901   0.589
 1830TIP3    H227050   2.564   5.760   0.535
 1831TIP3   OH227051   4.498   5.342   1.432
 1831TIP3    H127052   4.539   5.330   1.518
 1831TIP3    H227053   4.406   5.322   1.446
 1832TIP3   OH227054   5.078   6.082   1.661
 1832TIP3    H127055   4.996   6.051   1.698
 1832TIP3    H227056   5.135   6.005   1.661
 1833TIP3   OH227057   1.457   0.935   0.546
 1833TIP3    H127058   1.363   0.947   0.533
 1833TIP3    H227059   1.477   0.988   0.623
 1834TIP3   OH227060   4.576   5.263   1.186
 1834TIP3    H127061   4.542   5.286   1.272
 1834TIP3    H227062   4.502   5.279   1.127
 1835TIP3   OH227063   1.856   1.667   0.553
 1835TIP3    H127064   1.886   1.733   0.615
 1835TIP3    H227065   1.932   1.649   0.497
 1836TIP3   OH227066   3.065   6.203   7.759
 1836TIP3    H127067   2.993   6.148   7.791
 1836TIP3    H227068   3.142   6.145   7.761
 1837TIP3   OH227069   5.000   4.876   7.538
 1837TIP3    H127070   4.975   4.956   7.583
 1837TIP3    H227071   5.079   4.846   7.584
 1838TIP3   OH227072   0.970   5.465   7.863
 1838TIP3    H127073   1.034   5.422   7.806
 1838TIP3    H227074   0.970   5.412   7.943
 1839TIP3   OH227075   0.825   6.315   0.743
 1839TIP3    H127076   0.850   6.236   0.695
 1839TIP3    H227077   0.892   6.380   0.719
 1840TIP3   OH227078   6.100   2.329   6.565
 1840TIP3    H127079   6.041   2.382   6.619
 1840TIP3    H227080   6.157   2.285   6.628
 1841TIP3   OH227081   2.754   3.024   7.489
 1841TIP3    H127082   2.758   3.104   7.542
 1841TIP3    H227083   2.679   3.039   7.431
 1842TIP3   OH227084   4.150   2.042   6.488
 1842TIP3    H127085   4.171   2.133   6.511
 1842TIP3    H227086   4.233   2.005   6.459
 1843TIP3   OH227087   0.776   2.267   6.542
 1843TIP3    H127088   0.845   2.321   6.506
 1843TIP3    H227089   0.759   2.201   6.475
 1844TIP3   OH227090   0.752   4.286   7.549
 1844TIP3    H127091   0.748   4.380   7.565
 1844TIP3    H227092   0.844   4.263   7.561
 1845TIP3   OH227093   4.593   6.178   0.959
 1845TIP3    H127094   4.539   6.134   0.893
 1845TIP3    H227095   4.613   6.109   1.022
 1846TIP3   OH227096   5.833   0.253   0.855
 1846TIP3    H127097   5.766   0.321   0.849
 1846TIP3    H227098   5.899   0.289   0.913
 1847TIP3   OH227099   2.563   4.804   0.025
 1847TIP3    H127100   2.578   4.873   0.089
 1847TIP3    H227101   2.628   4.736   0.048
 1848TIP3   OH227102   5.996   0.906   8.684
 1848TIP3    H127103   6.037   0.988   8.711
 1848TIP3    H227104   6.056   0.870   8.618
 1849TIP3   OH227105   0.559   3.432   7.688
 1849TIP3    H127106   0.618   3.370   7.731
 1849TIP3    H227107   0.522   3.382   7.615
 1850TIP3   OH227108   1.530   0.591   7.764
 1850TIP3    H127109   1.559   0.508   7.727
 1850TIP3    H227110   1.454   0.568   7.818
 1851TIP3   OH227111   4.656   6.323   6.380
 1851TIP3    H127112   4.746   6.324   6.414
 1851TIP3    H227113   4.642   6.412   6.346
 1852TIP3   OH227114   3.786   2.326   7.638
 1852TIP3    H127115   3.695   2.313   7.666
 1852TIP3    H227116   3.829   2.362   7.716
 1853TIP3   OH227117   1.705   0.059   6.619
 1853TIP3    H127118   1.743   6.827   6.601
 1853TIP3    H227119   1.773   0.106   6.667
 1854TIP3   OH227120   0.312   5.350   1.602
 1854TIP3    H127121   0.393   5.372   1.648
 1854TIP3    H227122   0.255   5.315   1.670
 1855TIP3   OH227123   2.328   4.411   7.293
 1855TIP3    H127124   2.338   4.498   7.332
 1855TIP3    H227125   2.368   4.419   7.207
 1856TIP3   OH227126   5.926   1.569   8.286
 1856TIP3    H127127   5.911   1.626   8.211
 1856TIP3    H227128   5.843   1.522   8.297
 1857TIP3   OH227129   5.598   5.119   8.429
 1857TIP3    H127130   5.626   5.210   8.414
 1857TIP3    H227131   5.540   5.124   8.505
 1858TIP3   OH227132   1.925   2.710   1.529
 1858TIP3    H127133   1.942   2.617   1.542
 1858TIP3    H227134   1.987   2.754   1.587
 1859TIP3   OH227135   3.974   2.165   6.901
 1859TIP3    H127136   4.020   2.096   6.852
 1859TIP3    H227137   3.893   2.124   6.930
 1860TIP3   OH227138   1.078   5.125   7.915
 1860TIP3    H127139   1.045   5.036   7.918
 1860TIP3    H227140   1.173   5.116   7.906
 1861TIP3   OH227141   0.427   4.522   1.143
 1861TIP3    H127142   0.509   4.506   1.190
 1861TIP3    H227143   0.433   4.467   1.065
 1862TIP3   OH227144   5.579   3.682   8.061
 1862TIP3    H127145   5.629   3.604   8.090
 1862TIP3    H227146   5.646   3.742   8.028
 1863TIP3   OH227147   3.818   4.698   0.615
 1863TIP3    H127148   3.766   4.729   0.541
 1863TIP3    H227149   3.757   4.701   0.689
 1864TIP3   OH227150   1.438   4.414   8.710
 1864TIP3    H127151   1.508   4.363   8.670
 1864TIP3    H227152   1.468   4.430   0.073
 1865TIP3   OH227153   5.220   3.131   2.205
 1865TIP3    H127154   5.181   3.217   2.190
 1865TIP3    H227155   5.309   3.150   2.234
 1866TIP3   OH227156   1.071   4.393   0.727
 1866TIP3    H127157   1.077   4.298   0.729
 1866TIP3    H227158   1.101   4.421   0.814
 1867TIP3   OH227159   1.911   6.275   8.573
 1867TIP3    H127160   1.868   6.215   8.634
 1867TIP3    H227161   1.982   6.314   8.624
 1868TIP3   OH227162   4.388   5.310   8.095
 1868TIP3    H127163   4.443   5.266   8.159
 1868TIP3    H227164   4.303   5.320   8.139
 1869TIP3   OH227165   6.830   3.313   0.030
 1869TIP3    H127166   6.821   3.226   0.068
 1869TIP3    H227167   0.027   3.300   8.676
 1870TIP3   OH227168   5.924   3.263   7.410
 1870TIP3    H127169   5.868   3.302   7.477
 1870TIP3    H227170   5.919   3.168   7.427
 1871TIP3   OH227171   1.957   2.232   7.882
 1871TIP3    H127172   1.885   2.175   7.907
 1871TIP3    H227173   1.941   2.253   7.790
 1872TIP3   OH227174   3.547   1.115   0.536
 1872TIP3    H127175   3.604   1.125   0.613
 1872TIP3    H227176   3.579   1.179   0.473
 1873TIP3   OH227177   5.698   4.645   8.467
 1873TIP3    H127178   5.722   4.636   8.559
 1873TIP3    H227179   5.739   4.726   8.439
 1874TIP3   OH227180   0.983   0.795   2.550
 1874TIP3    H127181   0.943   0.873   2.588
 1874TIP3    H227182   0.911   0.748   2.509
 1875TIP3   OH227183   1.216   6.834   1.251
 1875TIP3    H127184   1.242   6.759   1.305
 1875TIP3    H227185   1.296   0.032   1.244
 1876TIP3   OH227186   3.594   5.528   7.371
 1876TIP3    H127187   3.650   5.557   7.300
 1876TIP3    H227188   3.641   5.554   7.451
 1877TIP3   OH227189   3.984   2.210   0.409
 1877TIP3    H127190   4.019   2.151   0.475
 1877TIP3    H227191   3.929   2.271   0.457
 1878TIP3   OH227192   1.316   0.886   0.167
 1878TIP3    H127193   1.335   0.972   0.204
 1878TIP3    H227194   1.351   0.824   0.231
 1879TIP3   OH227195   1.001   1.554   6.983
 1879TIP3    H127196   1.029   1.603   6.906
 1879TIP3    H227197   1.081   1.517   7.019
 1880TIP3   OH227198   3.002   5.690   7.535
 1880TIP3    H127199   3.017   5.754   7.465
 1880TIP3    H227200   3.081   5.637   7.537
 1881TIP3   OH227201   6.431   6.268   0.860
 1881TIP3    H127202   6.515   6.242   0.820
 1881TIP3    H227203   6.397   6.335   0.801
 1882TIP3   OH227204   4.675   0.784   7.334
 1882TIP3    H127205   4.622   0.793   7.255
 1882TIP3    H227206   4.637   0.710   7.381
 1883TIP3   OH227207   0.815   1.140   1.361
 1883TIP3    H127208   0.781   1.196   1.292
 1883TIP3    H227209   0.826   1.054   1.320
 1884TIP3   OH227210   1.114   5.003   1.017
 1884TIP3    H127211   1.156   4.964   0.941
 1884TIP3    H227212   1.148   4.952   1.091
 1885TIP3   OH227213   3.623   0.511   8.306
 1885TIP3    H127214   3.674   0.430   8.311
 1885TIP3    H227215   3.575   0.503   8.223
 1886TIP3   OH227216   5.000   5.787   8.497
 1886TIP3    H127217   5.092   5.771   8.517
 1886TIP3    H227218   4.988   5.751   8.409
 1887TIP3   OH227219   3.011   2.104   8.514
 1887TIP3    H127220   3.033   2.188   8.556
 1887TIP3    H227221   3.018   2.122   8.420
 1888TIP3   OH227222   2.756   5.269   7.745
 1888TIP3    H127223   2.847   5.296   7.757
 1888TIP3    H227224   2.751   5.182   7.786
 1889TIP3   OH227225   1.929   3.047   7.483
 1889TIP3    H127226   1.846   3.094   7.485
 1889TIP3    H227227   1.957   3.053   7.391
 1890TIP3   OH227228   3.566   4.010   0.006
 1890TIP3    H127229   3.494   4.065   8.701
 1890TIP3    H227230   3.603   4.058   0.080
 1891TIP3   OH227231   2.528   0.148   0.319
 1891TIP3    H127232   2.581   0.108   0.388
 1891TIP3    H227233   2.497   0.075   0.267
 1892TIP3   OH227234   2.042   5.865   6.846
 1892TIP3    H127235   1.952   5.872   6.879
 1892TIP3    H227236   2.032   5.862   6.751
 1893TIP3   OH227237   1.222   3.757   7.470
 1893TIP3    H127238   1.128   3.741   7.460
 1893TIP3    H227239   1.264   3.681   7.429
 1894TIP3   OH227240   1.405   2.590   1.458
 1894TIP3    H127241   1.322   2.588   1.409
 1894TIP3    H227242   1.446   2.506   1.441
 1895TIP3   OH227243   6.202   2.452   0.258
 1895TIP3    H127244   6.268   2.457   0.188
 1895TIP3    H227245   6.244   2.495   0.333
 1896TIP3   OH227246   2.389   6.832   1.517
 1896TIP3    H127247   2.398   6.763   1.583
 1896TIP3    H227248   2.334   0.044   1.558
 1897TIP3   OH227249   3.953   2.836   8.012
 1897TIP3    H127250   3.913   2.771   7.954
 1897TIP3    H227251   3.943   2.919   7.965
 1898TIP3   OH227252   0.971   0.980   7.785
 1898TIP3    H127253   1.017   0.897   7.796
 1898TIP3    H227254   0.890   0.958   7.739
 1899TIP3   OH227255   5.361   1.068   7.801
 1899TIP3    H127256   5.430   1.055   7.867
 1899TIP3    H227257   5.369   0.992   7.743
 1900TIP3   OH227258   5.374   5.712   7.120
 1900TIP3    H127259   5.468   5.730   7.119
 1900TIP3    H227260   5.357   5.669   7.036
 1901TIP3   OH227261   4.957   0.366   7.756
 1901TIP3    H127262   4.897   0.420   7.807
 1901TIP3    H227263   4.974   0.290   7.811
 1902TIP3   OH227264   2.228   2.199   7.969
 1902TIP3    H127265   2.138   2.218   7.941
 1902TIP3    H227266   2.242   2.108   7.945
 1903TIP3   OH227267   1.403   0.577   1.618
 1903TIP3    H127268   1.364   0.515   1.556
 1903TIP3    H227269   1.468   0.525   1.665
 1904TIP3   OH227270   6.234   2.105   0.092
 1904TIP3    H127271   6.274   2.044   0.030
 1904TIP3    H227272   6.227   2.187   0.042
 1905TIP3   OH227273   4.486   3.812   0.682
 1905TIP3    H127274   4.500   3.835   0.590
 1905TIP3    H227275   4.455   3.894   0.722
 1906TIP3   OH227276   2.435   4.903   7.155
 1906TIP3    H127277   2.449   4.826   7.100
 1906TIP3    H227278   2.488   4.886   7.233
 1907TIP3   OH227279   5.810   3.256   1.902
 1907TIP3    H127280   5.739   3.216   1.853
 1907TIP3    H227281   5.767   3.319   1.960
 1908TIP3   OH227282   5.683   5.648   8.180
 1908TIP3    H127283   5.756   5.671   8.238
 1908TIP3    H227284   5.640   5.731   8.162
 1909TIP3   OH227285   4.388   3.616   1.657
 1909TIP3    H127286   4.423   3.637   1.571
 1909TIP3    H227287   4.305   3.572   1.639
 1910TIP3   OH227288   0.545   0.924   2.616
 1910TIP3    H127289   0.641   0.931   2.612
 1910TIP3    H227290   0.529   0.837   2.654
 1911TIP3   OH227291   0.396   2.482   6.084
 1911TIP3    H127292   0.332   2.501   6.015
 1911TIP3    H227293   0.452   2.560   6.086
 1912TIP3   OH227294   5.106   6.445   1.400
 1912TIP3    H127295   5.066   6.439   1.313
 1912TIP3    H227296   5.185   6.498   1.386
 1913TIP3   OH227297   6.424   3.776   1.301
 1913TIP3    H127298   6.442   3.819   1.385
 1913TIP3    H227299   6.382   3.693   1.326
 1914TIP3   OH227300   1.766   1.071   8.434
 1914TIP3    H127301   1.746   1.055   8.526
 1914TIP3    H227302   1.702   1.019   8.386
 1915TIP3   OH227303   4.747   6.536   8.191
 1915TIP3    H127304   4.785   6.508   8.108
 1915TIP3    H227305   4.661   6.495   8.194
 1916TIP3   OH227306   4.983   2.481   6.990
 1916TIP3    H127307   5.006   2.423   6.918
 1916TIP3    H227308   5.058   2.478   7.049
 1917TIP3   OH227309   6.103   0.075   8.295
 1917TIP3    H127310   6.128   6.836   8.292
 1917TIP3    H227311   6.008   0.075   8.284
 1918TIP3   OH227312   5.854   6.795   6.725
 1918TIP3    H127313   5.872   6.725   6.663
 1918TIP3    H227314   5.894   6.765   6.807
 1919TIP3   OH227315   3.445   1.029   7.833
 1919TIP3    H127316   3.380   1.011   7.765
 1919TIP3    H227317   3.410   0.988   7.911
 1920TIP3   OH227318   3.672   3.413   0.871
 1920TIP3    H127319   3.597   3.441   0.820
 1920TIP3    H227320   3.733   3.486   0.868
 1921TIP3   OH227321   0.384   0.788   7.797
 1921TIP3    H127322   0.334   0.774   7.716
 1921TIP3    H227323   0.373   0.881   7.816
 1922TIP3   OH227324   4.782   6.793   8.097
 1922TIP3    H127325   4.754   6.701   8.102
 1922TIP3    H227326   4.758   6.831   8.181
 1923TIP3   OH227327   3.652   2.845   7.228
 1923TIP3    H127328   3.730   2.883   7.187
 1923TIP3    H227329   3.686   2.792   7.300
 1924TIP3   OH227330   5.257   1.668   1.694
 1924TIP3    H127331   5.268   1.690   1.602
 1924TIP3    H227332   5.270   1.751   1.741
 1925TIP3   OH227333   5.599   6.655   7.987
 1925TIP3    H127334   5.562   6.593   7.924
 1925TIP3    H227335   5.570   6.622   8.072
 1926TIP3   OH227336   4.386   6.755   1.267
 1926TIP3    H127337   4.446   6.707   1.211
 1926TIP3    H227338   4.406   6.724   1.355
 1927TIP3   OH227339   0.410   3.863   8.338
 1927TIP3    H127340   0.505   3.863   8.332
 1927TIP3    H227341   0.391   3.809   8.415
 1928TIP3   OH227342   0.895   4.531   2.578
 1928TIP3    H127343   0.804   4.541   2.607
 1928TIP3    H227344   0.913   4.437   2.589
 1929TIP3   OH227345   2.743   2.958   8.527
 1929TIP3    H127346   2.775   2.949   8.617
 1929TIP3    H227347   2.732   2.868   8.497
 1930TIP3   OH227348   2.777   2.499   1.150
 1930TIP3    H127349   2.685   2.506   1.126
 1930TIP3    H227350   2.824   2.521   1.070
 1931TIP3   OH227351   4.259   1.625   7.848
 1931TIP3    H127352   4.284   1.659   7.762
 1931TIP3    H227353   4.182   1.675   7.872
 1932TIP3   OH227354   1.610   2.088   0.549
 1932TIP3    H127355   1.547   2.019   0.568
 1932TIP3    H227356   1.568   2.141   0.481
 1933TIP3   OH227357   4.014   5.377   1.003
 1933TIP3    H127358   3.958   5.341   0.934
 1933TIP3    H227359   3.953   5.409   1.069
 1934TIP3   OH227360   0.082   5.760   1.003
 1934TIP3    H127361   0.083   5.841   1.053
 1934TIP3    H227362   0.165   5.717   1.025
 1935TIP3   OH227363   1.596   1.403   1.725
 1935TIP3    H127364   1.537   1.391   1.799
 1935TIP3    H227365   1.666   1.340   1.740
 1936TIP3   OH227366   2.824   6.039   1.063
 1936TIP3    H127367   2.752   5.977   1.056
 1936TIP3    H227368   2.842   6.045   1.157
 1937TIP3   OH227369   0.165   0.134   1.447
 1937TIP3    H127370   0.235   0.184   1.488
 1937TIP3    H227371   0.189   0.043   1.462
 1938TIP3   OH227372   3.403   0.122   0.871
 1938TIP3    H127373   3.424   0.097   0.962
 1938TIP3    H227374   3.336   0.189   0.880
 1939TIP3   OH227375   2.530   1.261   8.404
 1939TIP3    H127376   2.571   1.198   8.345
 1939TIP3    H227377   2.464   1.304   8.349
 1940TIP3   OH227378   4.221   1.880   0.326
 1940TIP3    H127379   4.210   1.851   0.416
 1940TIP3    H227380   4.213   1.975   0.330
 1941TIP3   OH227381   4.697   5.170   0.610
 1941TIP3    H127382   4.633   5.100   0.599
 1941TIP3    H227383   4.769   5.148   0.551
 1942TIP3   OH227384   3.770   2.638   1.260
 1942TIP3    H127385   3.790   2.544   1.257
 1942TIP3    H227386   3.714   2.648   1.337
 1943TIP3   OH227387   0.726   5.468   1.192
 1943TIP3    H127388   0.781   5.546   1.190
 1943TIP3    H227389   0.718   5.446   1.285
 1944TIP3   OH227390   0.453   1.470   6.772
 1944TIP3    H127391   0.518   1.526   6.815
 1944TIP3    H227392   0.492   1.449   6.687
 1945TIP3   OH227393   6.038   5.800   8.689
 1945TIP3    H127394   6.073   5.858   8.622
 1945TIP3    H227395   5.994   5.859   0.024
 1946TIP3   OH227396   2.062   4.732   0.771
 1946TIP3    H127397   1.991   4.736   0.835
 1946TIP3    H227398   2.085   4.640   0.766
 1947TIP3   OH227399   1.150   4.520   0.962
 1947TIP3    H127400   1.219   4.466   1.001
 1947TIP3    H227401   1.170   4.609   0.991
 1948TIP3   OH227402   6.726   4.871   1.228
 1948TIP3    H127403   6.715   4.805   1.160
 1948TIP3    H227404   6.722   4.954   1.181
 1949TIP3   OH227405   2.615   5.827   6.396
 1949TIP3    H127406   2.575   5.830   6.310
 1949TIP3    H227407   2.692   5.771   6.385
 1950TIP3   OH227408   0.966   6.789   1.362
 1950TIP3    H127409   0.970   6.735   1.441
 1950TIP3    H227410   1.055   6.824   1.353
 1951TIP3   OH227411   3.156   6.082   2.008
 1951TIP3    H127412   3.233   6.073   2.064
 1951TIP3    H227413   3.132   5.993   1.985
 1952TIP3   OH227414   5.285   0.859   0.493
 1952TIP3    H127415   5.264   0.874   0.401
 1952TIP3    H227416   5.265   0.767   0.508
 1953TIP3   OH227417   1.848   5.399   8.441
 1953TIP3    H127418   1.938   5.390   8.410
 1953TIP3    H227419   1.811   5.469   8.387
 1954TIP3   OH227420   0.508   0.663   0.309
 1954TIP3    H127421   0.490   0.607   0.234
 1954TIP3    H227422   0.538   0.603   0.377
 1955TIP3   OH227423   5.236   1.363   1.755
 1955TIP3    H127424   5.292   1.426   1.801
 1955TIP3    H227425   5.191   1.316   1.825
 1956TIP3   OH227426   4.793   2.646   8.641
 1956TIP3    H127427   4.719   2.603   8.598
 1956TIP3    H227428   4.805   2.728   8.593
 1957TIP3   OH227429   1.094   3.012   8.605
 1957TIP3    H127430   1.100   3.106   8.624
 1957TIP3    H227431   1.044   3.008   8.523
 1958TIP3   OH227432   0.542   5.843   0.464
 1958TIP3    H127433   0.480   5.874   0.397
 1958TIP3    H227434   0.569   5.923   0.509
 1959TIP3   OH227435   5.454   1.232   0.883
 1959TIP3    H127436   5.427   1.171   0.814
 1959TIP3    H227437   5.546   1.210   0.900
 1960TIP3   OH227438   4.513   4.299   1.614
 1960TIP3    H127439   4.475   4.212   1.630
 1960TIP3    H227440   4.594   4.300   1.664
 1961TIP3   OH227441   1.003   0.554   8.328
 1961TIP3    H127442   0.923   0.503   8.324
 1961TIP3    H227443   0.978   0.636   8.370
 1962TIP3   OH227444   6.625   5.017   7.374
 1962TIP3    H127445   6.584   5.102   7.356
 1962TIP3    H227446   6.652   5.021   7.465
 1963TIP3   OH227447   0.970   3.243   8.022
 1963TIP3    H127448   1.025   3.278   8.093
 1963TIP3    H227449   0.956   3.151   8.046
 1964TIP3   OH227450   5.720   5.593   7.543
 1964TIP3    H127451   5.737   5.670   7.597
 1964TIP3    H227452   5.803   5.576   7.499
 1965TIP3   OH227453   1.343   1.694   1.464
 1965TIP3    H127454   1.423   1.741   1.488
 1965TIP3    H227455   1.369   1.640   1.389
 1966TIP3   OH227456   5.250   2.863   7.798
 1966TIP3    H127457   5.241   2.841   7.891
 1966TIP3    H227458   5.188   2.805   7.754
 1967TIP3   OH227459   4.527   6.018   1.818
 1967TIP3    H127460   4.580   6.047   1.744
 1967TIP3    H227461   4.504   6.098   1.864
 1968TIP3   OH227462   2.952   3.916   1.311
 1968TIP3    H127463   2.981   3.840   1.361
 1968TIP3    H227464   2.885   3.882   1.252
 1969TIP3   OH227465   6.455   2.016   6.835
 1969TIP3    H127466   6.490   2.098   6.871
 1969TIP3    H227467   6.501   2.006   6.751
 1970TIP3   OH227468   2.561   3.182   7.746
 1970TIP3    H127469   2.622   3.228   7.689
 1970TIP3    H227470   2.486   3.162   7.690
 1971TIP3   OH227471   0.671   1.986   1.263
 1971TIP3    H127472   0.740   1.965   1.326
 1971TIP3    H227473   0.639   2.071   1.292
 1972TIP3   OH227474   5.143   2.325   0.037
 1972TIP3    H127475   5.099   2.241   0.025
 1972TIP3    H227476   5.231   2.312   0.003
 1973TIP3   OH227477   3.969   3.384   1.292
 1973TIP3    H127478   4.048   3.331   1.305
 1973TIP3    H227479   3.934   3.397   1.380
 1974TIP3   OH227480   6.299   2.098   1.565
 1974TIP3    H127481   6.294   2.054   1.480
 1974TIP3    H227482   6.229   2.059   1.617
 1975TIP3   OH227483   2.820   5.024   7.898
 1975TIP3    H127484   2.890   4.959   7.889
 1975TIP3    H227485   2.830   5.057   7.987
 1976TIP3   OH227486   5.880   2.174   6.706
 1976TIP3    H127487   5.898   2.116   6.632
 1976TIP3    H227488   5.847   2.254   6.667
 1977TIP3   OH227489   6.605   1.760   7.501
 1977TIP3    H127490   6.579   1.829   7.441
 1977TIP3    H227491   6.699   1.775   7.516
 1978TIP3   OH227492   6.635   4.035   6.754
 1978TIP3    H127493   6.603   3.945   6.759
 1978TIP3    H227494   6.578   4.083   6.814
 1979TIP3   OH227495   1.887   0.052   7.072
 1979TIP3    H127496   1.954   0.113   7.103
 1979TIP3    H227497   1.932   0.000   7.005
 1980TIP3   OH227498   0.536   0.478   7.461
 1980TIP3    H127499   0.467   0.422   7.424
 1980TIP3    H227500   0.526   0.468   7.556
 1981TIP3   OH227501   2.830   6.791   0.862
 1981TIP3    H127502   2.762   0.004   0.864
 1981TIP3    H227503   2.840   6.763   0.953
 1982TIP3   OH227504   5.631   0.418   2.155
 1982TIP3    H127505   5.600   0.335   2.118
 1982TIP3    H227506   5.673   0.393   2.238
 1983TIP3   OH227507   3.859   4.540   0.138
 1983TIP3    H127508   3.895   4.608   0.195
 1983TIP3    H227509   3.931   4.479   0.124
 1984TIP3   OH227510   1.668   5.012   7.298
 1984TIP3    H127511   1.702   4.935   7.345
 1984TIP3    H227512   1.730   5.082   7.319
 1985TIP3   OH227513   3.893   6.425   0.077
 1985TIP3    H127514   3.887   6.370   0.155
 1985TIP3    H227515   3.968   6.391   0.029
 1986TIP3   OH227516   0.094   6.353   0.219
 1986TIP3    H127517   0.182   6.322   0.195
 1986TIP3    H227518   0.091   6.344   0.314
 1987TIP3   OH227519   2.918   5.239   1.490
 1987TIP3    H127520   2.873   5.154   1.494
 1987TIP3    H227521   2.862   5.292   1.432
 1988TIP3   OH227522   2.225   4.450   1.841
 1988TIP3    H127523   2.180   4.535   1.842
 1988TIP3    H227524   2.194   4.408   1.761
 1989TIP3   OH227525   2.568   5.697   1.395
 1989TIP3    H127526   2.573   5.633   1.466
 1989TIP3    H227527   2.500   5.663   1.337
 1990TIP3   OH227528   5.068   4.069   6.654
 1990TIP3    H127529   5.128   3.999   6.628
 1990TIP3    H227530   5.083   4.138   6.589
 1991TIP3   OH227531   3.122   4.379   7.504
 1991TIP3    H127532   3.091   4.377   7.414
 1991TIP3    H227533   3.102   4.291   7.537
 1992TIP3   OH227534   3.036   6.402   0.656
 1992TIP3    H127535   3.010   6.488   0.689
 1992TIP3    H227536   3.130   6.409   0.641
 1993TIP3   OH227537   6.024   3.650   6.873
 1993TIP3    H127538   5.992   3.638   6.784
 1993TIP3    H227539   6.116   3.671   6.864
 1994TIP3   OH227540   4.497   2.334   0.055
 1994TIP3    H127541   4.490   2.260   8.722
 1994TIP3    H227542   4.409   2.372   0.057
 1995TIP3   OH227543   0.567   2.539   0.968
 1995TIP3    H127544   0.507   2.541   1.043
 1995TIP3    H227545   0.606   2.626   0.967
 1996TIP3   OH227546   5.782   1.209   7.873
 1996TIP3    H127547   5.823   1.282   7.827
 1996TIP3    H227548   5.856   1.160   7.910
 1997TIP3   OH227549   3.671   5.293   1.822
 1997TIP3    H127550   3.596   5.236   1.840
 1997TIP3    H227551   3.747   5.240   1.841
 1998TIP3   OH227552   3.466   2.251   7.459
 1998TIP3    H127553   3.382   2.221   7.424
 1998TIP3    H227554   3.471   2.343   7.431
 1999TIP3   OH227555   6.586   6.017   7.841
 1999TIP3    H127556   6.668   6.012   7.791
 1999TIP3    H227557   6.517   6.021   7.774
 2000TIP3   OH227558   2.934   0.256   0.278
 2000TIP3    H127559   3.025   0.263   0.250
 2000TIP3    H227560   2.937   0.270   0.373
 2001TIP3   OH227561   5.796   0.775   1.565
 2001TIP3    H127562   5.787   0.782   1.660
 2001TIP3    H227563   5.715   0.733   1.536
 2002TIP3   OH227564   3.811   2.885   1.849
 2002TIP3    H127565   3.757   2.808   1.866
 2002TIP3    H227566   3.862   2.862   1.772
 2003TIP3   OH227567   0.460   1.806   7.004
 2003TIP3    H127568   0.471   1.768   6.917
 2003TIP3    H227569   0.526   1.875   7.009
 2004TIP3   OH227570   6.156   1.260   6.846
 2004TIP3    H127571   6.239   1.303   6.826
 2004TIP3    H227572   6.179   1.192   6.909
 2005TIP3   OH227573   2.522   0.295   6.936
 2005TIP3    H127574   2.569   0.379   6.942
 2005TIP3    H227575   2.499   0.273   7.026
 2006TIP3   OH227576   0.168   2.507   8.137
 2006TIP3    H127577   0.081   2.529   8.170
 2006TIP3    H227578   0.152   2.442   8.069
 2007TIP3   OH227579   6.745   4.348   0.588
 2007TIP3    H127580   6.687   4.302   0.648
 2007TIP3    H227581   6.770   4.428   0.634
 2008TIP3   OH227582   5.295   5.844   7.642
 2008TIP3    H127583   5.200   5.840   7.643
 2008TIP3    H227584   5.315   5.938   7.638
 2009TIP3   OH227585   2.989   2.489   7.159
 2009TIP3    H127586   2.913   2.458   7.109
 2009TIP3    H227587   3.058   2.499   7.094
 2010TIP3   OH227588   3.753   0.744   7.535
 2010TIP3    H127589   3.709   0.750   7.620
 2010TIP3    H227590   3.688   0.705   7.477
 2011TIP3   OH227591   4.346   5.344   0.926
 2011TIP3    H127592   4.273   5.338   0.864
 2011TIP3    H227593   4.395   5.263   0.911
 2012TIP3   OH227594   1.081   1.707   1.108
 2012TIP3    H127595   1.130   1.782   1.140
 2012TIP3    H227596   1.041   1.737   1.026
 2013TIP3   OH227597   3.598   6.038   8.384
 2013TIP3    H127598   3.556   6.119   8.414
 2013TIP3    H227599   3.559   6.022   8.298
 2014TIP3   OH227600   2.096   4.014   7.205
 2014TIP3    H127601   2.004   4.001   7.228
 2014TIP3    H227602   2.117   3.943   7.144
 2015TIP3   OH227603   4.356   6.453   6.911
 2015TIP3    H127604   4.388   6.363   6.904
 2015TIP3    H227605   4.311   6.469   6.828
 2016TIP3   OH227606   4.399   2.300   0.832
 2016TIP3    H127607   4.427   2.302   0.923
 2016TIP3    H227608   4.464   2.246   0.787
 2017TIP3   OH227609   1.449   2.110   6.151
 2017TIP3    H127610   1.452   2.175   6.222
 2017TIP3    H227611   1.511   2.042   6.178
 2018TIP3   OH227612   1.980   0.191   1.691
 2018TIP3    H127613   1.967   0.097   1.701
 2018TIP3    H227614   1.935   0.229   1.767
 2019TIP3   OH227615   3.098   4.421   8.705
 2019TIP3    H127616   3.192   4.415   8.722
 2019TIP3    H227617   3.085   4.376   8.622
 2020TIP3   OH227618   0.533   6.106   7.953
 2020TIP3    H127619   0.446   6.145   7.948
 2020TIP3    H227620   0.519   6.014   7.929
 2021TIP3   OH227621   3.935   2.397   7.020
 2021TIP3    H127622   3.963   2.314   6.982
 2021TIP3    H227623   3.985   2.463   6.972
 2022TIP3   OH227624   1.547   4.840   0.052
 2022TIP3    H127625   1.598   4.866   8.702
 2022TIP3    H227626   1.474   4.790   0.017
 2023TIP3   OH227627   1.192   0.347   8.301
 2023TIP3    H127628   1.274   0.392   8.321
 2023TIP3    H227629   1.124   0.411   8.323
 2024TIP3   OH227630   6.005   3.758   7.515
 2024TIP3    H127631   6.018   3.667   7.487
 2024TIP3    H227632   5.981   3.751   7.608
 2025TIP3   OH227633   3.354   1.446   0.144
 2025TIP3    H127634   3.414   1.371   0.145
 2025TIP3    H227635   3.407   1.519   0.113
 2026TIP3   OH227636   6.417   3.458   1.270
 2026TIP3    H127637   6.465   3.385   1.233
 2026TIP3    H227638   6.325   3.430   1.271
 2027TIP3   OH227639   5.055   3.104   1.160
 2027TIP3    H127640   5.060   3.121   1.066
 2027TIP3    H227641   5.102   3.177   1.200
 2028TIP3   OH227642   2.574   0.740   8.714
 2028TIP3    H127643   2.484   0.761   0.015
 2028TIP3    H227644   2.620   0.824   8.719
 2029TIP3   OH227645   0.600   0.685   8.655
 2029TIP3    H127646   0.674   0.741   8.677
 2029TIP3    H227647   0.603   0.678   8.560
 2030TIP3   OH227648   1.017   4.043   0.919
 2030TIP3    H127649   0.942   4.090   0.955
 2030TIP3    H227650   0.978   3.979   0.859
 2031TIP3   OH227651   4.111   6.772   0.321
 2031TIP3    H127652   4.015   6.764   0.321
 2031TIP3    H227653   4.139   6.728   0.401
 2032TIP3   OH227654   5.092   1.117   6.349
 2032TIP3    H127655   5.141   1.195   6.374
 2032TIP3    H227656   5.008   1.150   6.318
 2033TIP3   OH227657   2.882   5.667   7.779
 2033TIP3    H127658   2.955   5.692   7.724
 2033TIP3    H227659   2.807   5.712   7.741
 2034TIP3   OH227660   4.214   5.822   1.173
 2034TIP3    H127661   4.186   5.888   1.110
 2034TIP3    H227662   4.257   5.755   1.119
 2035TIP3   OH227663   6.756   3.102   0.489
 2035TIP3    H127664   6.711   3.067   0.566
 2035TIP3    H227665   6.819   3.035   0.465
 2036TIP3   OH227666   3.565   0.247   8.524
 2036TIP3    H127667   3.597   0.328   8.564
 2036TIP3    H227668   3.477   0.269   8.494
 2037TIP3   OH227669   1.249   3.445   7.930
 2037TIP3    H127670   1.179   3.482   7.984
 2037TIP3    H227671   1.259   3.507   7.858
 2038TIP3   OH227672   4.542   4.916   7.190
 2038TIP3    H127673   4.536   4.832   7.235
 2038TIP3    H227674   4.489   4.976   7.242
 2039TIP3   OH227675   3.354   2.090   1.799
 2039TIP3    H127676   3.345   2.035   1.877
 2039TIP3    H227677   3.413   2.041   1.742
 2040TIP3   OH227678   1.492   2.199   6.555
 2040TIP3    H127679   1.528   2.256   6.623
 2040TIP3    H227680   1.519   2.111   6.580
 2041TIP3   OH227681   2.513   3.880   1.134
 2041TIP3    H127682   2.477   3.902   1.220
 2041TIP3    H227683   2.449   3.820   1.096
 2042TIP3   OH227684   0.708   4.538   1.232
 2042TIP3    H127685   0.761   4.538   1.153
 2042TIP3    H227686   0.760   4.488   1.296
 2043TIP3   OH227687   0.671   4.333   8.610
 2043TIP3    H127688   0.632   4.287   8.685
 2043TIP3    H227689   0.763   4.343   8.633
 2044TIP3   OH227690   5.849   4.793   2.209
 2044TIP3    H127691   5.853   4.747   2.125
 2044TIP3    H227692   5.932   4.841   2.215
 2045TIP3   OH227693   5.898   3.383   7.710
 2045TIP3    H127694   5.885   3.324   7.784
 2045TIP3    H227695   5.984   3.422   7.727
 2046TIP3   OH227696   1.313   5.218   2.016
 2046TIP3    H127697   1.375   5.164   2.066
 2046TIP3    H227698   1.312   5.179   1.929
 2047TIP3   OH227699   4.760   0.848   1.090
 2047TIP3    H127700   4.760   0.937   1.125
 2047TIP3    H227701   4.668   0.825   1.083
 2048TIP3   OH227702   3.765   5.060   8.383
 2048TIP3    H127703   3.762   5.152   8.410
 2048TIP3    H227704   3.845   5.026   8.423
 2049TIP3   OH227705   6.668   5.241   7.636
 2049TIP3    H127706   6.695   5.193   7.714
 2049TIP3    H227707   6.576   5.219   7.624
 2050TIP3   OH227708   6.726   3.937   1.539
 2050TIP3    H127709   6.651   3.950   1.481
 2050TIP3    H227710   6.777   3.867   1.498
 2051TIP3   OH227711   0.298   6.812   2.468
 2051TIP3    H127712   0.230   6.769   2.416
 2051TIP3    H227713   0.303   0.047   2.431
 2052TIP3   OH227714   1.355   5.240   7.872
 2052TIP3    H127715   1.404   5.169   7.832
 2052TIP3    H227716   1.408   5.266   7.948
 2053TIP3   OH227717   5.139   0.284   6.729
 2053TIP3    H127718   5.122   0.271   6.636
 2053TIP3    H227719   5.093   0.366   6.751
 2054TIP3   OH227720   0.578   6.665   8.456
 2054TIP3    H127721   0.525   6.615   8.517
 2054TIP3    H227722   0.588   6.608   8.380
 2055TIP3   OH227723   0.199   5.998   8.395
 2055TIP3    H127724   0.279   5.958   8.430
 2055TIP3    H227725   0.135   5.988   8.465
 2056TIP3   OH227726   2.893   6.768   6.597
 2056TIP3    H127727   2.902   6.792   6.689
 2056TIP3    H227728   2.843   6.686   6.599
 2057TIP3   OH227729   3.112   1.204   8.545
 2057TIP3    H127730   3.054   1.281   8.542
 2057TIP3    H227731   3.099   1.169   8.634
 2058TIP3   OH227732   2.505   6.001   1.406
 2058TIP3    H127733   2.538   5.911   1.415
 2058TIP3    H227734   2.414   5.996   1.436
 2059TIP3   OH227735   4.656   1.111   8.685
 2059TIP3    H127736   4.642   1.111   8.591
 2059TIP3    H227737   4.607   1.035   8.717
 2060TIP3   OH227738   4.312   1.930   8.310
 2060TIP3    H127739   4.378   1.918   8.379
 2060TIP3    H227740   4.337   2.012   8.267
 2061TIP3   OH227741   1.450   6.155   6.964
 2061TIP3    H127742   1.525   6.108   6.999
 2061TIP3    H227743   1.443   6.125   6.873
 2062TIP3   OH227744   0.125   0.561   1.834
 2062TIP3    H127745   0.206   0.574   1.884
 2062TIP3    H227746   0.153   0.518   1.753
 2063TIP3   OH227747   4.067   4.917   1.970
 2063TIP3    H127748   4.113   4.945   2.049
 2063TIP3    H227749   3.996   4.861   2.002
 2064TIP3   OH227750   0.306   6.045   1.883
 2064TIP3    H127751   0.311   6.104   1.958
 2064TIP3    H227752   0.228   5.992   1.900
 2065TIP3   OH227753   1.856   5.130   8.484
 2065TIP3    H127754   1.924   5.183   8.527
 2065TIP3    H227755   1.837   5.177   8.403
 2066TIP3   OH227756   3.736   1.975   0.356
 2066TIP3    H127757   3.808   1.999   0.414
 2066TIP3    H227758   3.702   2.059   0.324
 2067TIP3   OH227759   4.054   3.309   7.104
 2067TIP3    H127760   4.135   3.284   7.149
 2067TIP3    H227761   4.013   3.225   7.080
 2068TIP3   OH227762   0.959   6.035   8.012
 2068TIP3    H127763   0.925   6.114   8.054
 2068TIP3    H227764   0.905   6.024   7.934
 2069TIP3   OH227765   5.594   0.143   0.507
 2069TIP3    H127766   5.548   0.211   0.459
 2069TIP3    H227767   5.550   0.061   0.482
 2070TIP3   OH227768   4.364   3.441   7.678
 2070TIP3    H127769   4.300   3.498   7.635
 2070TIP3    H227770   4.364   3.362   7.624
 2071TIP3   OH227771   1.301   0.569   6.579
 2071TIP3    H127772   1.353   0.506   6.629
 2071TIP3    H227773   1.364   0.634   6.548
 2072TIP3   OH227774   6.446   6.486   1.100
 2072TIP3    H127775   6.502   6.481   1.022
 2072TIP3    H227776   6.479   6.560   1.149
 2073TIP3   OH227777   1.454   3.884   7.359
 2073TIP3    H127778   1.474   3.895   7.266
 2073TIP3    H227779   1.366   3.846   7.360
 2074TIP3   OH227780   5.419   4.051   7.233
 2074TIP3    H127781   5.454   4.120   7.289
 2074TIP3    H227782   5.482   3.979   7.242
 2075TIP3   OH227783   3.442   2.372   0.664
 2075TIP3    H127784   3.436   2.283   0.699
 2075TIP3    H227785   3.420   2.363   0.572
 2076TIP3   OH227786   0.104   1.352   8.560
 2076TIP3    H127787   0.077   1.436   8.523
 2076TIP3    H227788   0.034   1.291   8.535
 2077TIP3   OH227789   1.919   4.082   0.403
 2077TIP3    H127790   1.869   4.007   0.435
 2077TIP3    H227791   1.949   4.126   0.483
 2078TIP3   OH227792   1.372   6.267   1.859
 2078TIP3    H127793   1.430   6.271   1.935
 2078TIP3    H227794   1.332   6.180   1.864
 2079TIP3   OH227795   5.073   1.039   0.728
 2079TIP3    H127796   5.164   1.021   0.705
 2079TIP3    H227797   5.065   1.010   0.819
 2080TIP3   OH227798   3.780   5.998   7.674
 2080TIP3    H127799   3.837   6.061   7.630
 2080TIP3    H227800   3.703   6.049   7.699
 2081TIP3   OH227801   1.223   4.834   6.357
 2081TIP3    H127802   1.298   4.791   6.396
 2081TIP3    H227803   1.256   4.920   6.329
 2082TIP3   OH227804   0.382   4.834   1.899
 2082TIP3    H127805   0.390   4.856   1.806
 2082TIP3    H227806   0.468   4.802   1.924
 2083TIP3   OH227807   3.385   1.490   8.526
 2083TIP3    H127808   3.378   1.554   8.597
 2083TIP3    H227809   3.373   1.405   8.569
 2084TIP3   OH227810   1.549   4.667   0.554
 2084TIP3    H127811   1.520   4.578   0.573
 2084TIP3    H227812   1.476   4.708   0.507
 2085TIP3   OH227813   3.667   0.699   0.402
 2085TIP3    H127814   3.678   0.703   0.308
 2085TIP3    H227815   3.595   0.637   0.415
 2086TIP3   OH227816   0.166   3.974   0.382
 2086TIP3    H127817   0.242   3.979   0.440
 2086TIP3    H227818   0.094   4.012   0.432
 2087TIP3   OH227819   2.252   3.769   1.752
 2087TIP3    H127820   2.258   3.855   1.794
 2087TIP3    H227821   2.232   3.709   1.824
 2088TIP3   OH227822   1.687   0.043   8.378
 2088TIP3    H127823   1.749   6.829   8.353
 2088TIP3    H227824   1.657   0.018   8.465
 2089TIP3   OH227825   1.993   0.089   0.595
 2089TIP3    H127826   2.053   0.073   0.522
 2089TIP3    H227827   1.978   0.003   0.634
 2090TIP3   OH227828   6.682   5.562   0.215
 2090TIP3    H127829   6.713   5.553   0.305
 2090TIP3    H227830   6.607   5.621   0.221
 2091TIP3   OH227831   2.245   5.387   0.977
 2091TIP3    H127832   2.288   5.460   0.932
 2091TIP3    H227833   2.169   5.368   0.922
 2092TIP3   OH227834   0.796   1.344   0.950
 2092TIP3    H127835   0.862   1.386   0.895
 2092TIP3    H227836   0.827   1.254   0.960
 2093TIP3   OH227837   4.137   3.371   6.581
 2093TIP3    H127838   4.103   3.282   6.589
 2093TIP3    H227839   4.151   3.400   6.671
 2094TIP3   OH227840   5.344   5.470   7.850
 2094TIP3    H127841   5.277   5.478   7.782
 2094TIP3    H227842   5.361   5.376   7.857
 2095TIP3   OH227843   0.826   6.015   1.593
 2095TIP3    H127844   0.795   5.929   1.565
 2095TIP3    H227845   0.818   6.014   1.688
 2096TIP3   OH227846   2.914   4.157   8.066
 2096TIP3    H127847   2.879   4.099   7.998
 2096TIP3    H227848   2.855   4.146   8.140
 2097TIP3   OH227849   5.459   5.696   7.795
 2097TIP3    H127850   5.382   5.724   7.745
 2097TIP3    H227851   5.437   5.608   7.825
 2098TIP3   OH227852   4.082   3.005   8.674
 2098TIP3    H127853   4.021   3.077   8.684
 2098TIP3    H227854   4.094   2.970   0.036
 2099TIP3   OH227855   6.809   2.835   7.368
 2099TIP3    H127856   0.031   2.800   7.413
 2099TIP3    H227857   6.818   2.930   7.373
 2100TIP3   OH227858   2.065   6.220   6.282
 2100TIP3    H127859   2.081   6.303   6.326
 2100TIP3    H227860   1.974   6.226   6.251
 2101TIP3   OH227861   4.031   4.823   0.741
 2101TIP3    H127862   3.965   4.777   0.688
 2101TIP3    H227863   4.069   4.886   0.680
 2102TIP3   OH227864   4.948   2.855   7.583
 2102TIP3    H127865   4.895   2.840   7.661
 2102TIP3    H227866   4.986   2.770   7.562
 2103TIP3   OH227867   4.930   0.712   8.537
 2103TIP3    H127868   4.949   0.707   8.631
 2103TIP3    H227869   4.858   0.776   8.531
 2104TIP3   OH227870   2.882   1.364   6.961
 2104TIP3    H127871   2.868   1.420   6.885
 2104TIP3    H227872   2.967   1.393   6.996
 2105TIP3   OH227873   1.214   4.867   8.114
 2105TIP3    H127874   1.309   4.881   8.109
 2105TIP3    H227875   1.204   4.773   8.124
 2106TIP3   OH227876   4.383   1.159   1.562
 2106TIP3    H127877   4.461   1.186   1.513
 2106TIP3    H227878   4.411   1.157   1.653
 2107TIP3   OH227879   3.748   0.189   6.470
 2107TIP3    H127880   3.684   0.146   6.527
 2107TIP3    H227881   3.828   0.192   6.521
 2108TIP3   OH227882   5.545   4.173   6.960
 2108TIP3    H127883   5.461   4.199   6.922
 2108TIP3    H227884   5.542   4.077   6.961
 2109TIP3   OH227885   4.495   0.270   1.601
 2109TIP3    H127886   4.475   0.245   1.511
 2109TIP3    H227887   4.571   0.217   1.624
 2110TIP3   OH227888   1.872   5.835   0.176
 2110TIP3    H127889   1.790   5.839   0.127
 2110TIP3    H227890   1.887   5.924   0.207
 2111TIP3   OH227891   2.534   1.478   1.901
 2111TIP3    H127892   2.535   1.550   1.838
 2111TIP3    H227893   2.444   1.475   1.933
 2112TIP3   OH227894   1.735   0.773   7.708
 2112TIP3    H127895   1.657   0.722   7.731
 2112TIP3    H227896   1.701   0.847   7.658
 2113TIP3   OH227897   5.674   0.502   1.614
 2113TIP3    H127898   5.621   0.543   1.683
 2113TIP3    H227899   5.667   0.408   1.631
 2114TIP3   OH227900   3.108   0.831   7.533
 2114TIP3    H127901   3.042   0.801   7.596
 2114TIP3    H227902   3.090   0.782   7.453
 2115TIP3   OH227903   1.657   2.381   1.156
 2115TIP3    H127904   1.752   2.380   1.143
 2115TIP3    H227905   1.630   2.290   1.141
 2116TIP3   OH227906   4.048   3.286   8.567
 2116TIP3    H127907   4.032   3.236   8.487
 2116TIP3    H227908   3.975   3.347   8.572
 2117TIP3   OH227909   1.075   1.455   2.656
 2117TIP3    H127910   1.027   1.483   2.578
 2117TIP3    H227911   1.149   1.515   2.662
 2118TIP3   OH227912   3.088   3.141   6.415
 2118TIP3    H127913   3.013   3.183   6.374
 2118TIP3    H227914   3.125   3.086   6.346
 2119TIP3   OH227915   0.325   2.913   0.629
 2119TIP3    H127916   0.328   2.847   0.699
 2119TIP3    H227917   0.404   2.966   0.643
 2120TIP3   OH227918   5.526   2.541   7.535
 2120TIP3    H127919   5.544   2.447   7.531
 2120TIP3    H227920   5.473   2.552   7.613
 2121TIP3   OH227921   6.810   2.487   7.408
 2121TIP3    H127922   6.803   2.551   7.479
 2121TIP3    H227923   0.026   2.521   7.352
 2122TIP3   OH227924   3.183   5.840   7.392
 2122TIP3    H127925   3.228   5.872   7.470
 2122TIP3    H227926   3.235   5.765   7.364
 2123TIP3   OH227927   4.236   5.832   7.869
 2123TIP3    H127928   4.205   5.809   7.956
 2123TIP3    H227929   4.323   5.792   7.863
 2124TIP3   OH227930   6.259   5.312   7.971
 2124TIP3    H127931   6.182   5.353   8.009
 2124TIP3    H227932   6.262   5.224   8.010
 2125TIP3   OH227933   5.309   3.009   1.967
 2125TIP3    H127934   5.261   3.029   2.047
 2125TIP3    H227935   5.261   2.937   1.927
 2126TIP3   OH227936   6.263   0.589   0.044
 2126TIP3    H127937   6.305   0.593   8.684
 2126TIP3    H227938   6.263   0.680   0.074
 2127TIP3   OH227939   3.551   0.636   1.390
 2127TIP3    H127940   3.481   0.675   1.442
 2127TIP3    H227941   3.560   0.547   1.425
 2128TIP3   OH227942   2.981   2.459   0.877
 2128TIP3    H127943   3.023   2.447   0.792
 2128TIP3    H227944   2.913   2.391   0.880
 2129TIP3   OH227945   5.452   1.813   7.449
 2129TIP3    H127946   5.547   1.818   7.446
 2129TIP3    H227947   5.434   1.726   7.485
 2130TIP3   OH227948   3.016   3.012   8.130
 2130TIP3    H127949   2.989   3.083   8.071
 2130TIP3    H227950   2.984   3.039   8.216
 2131TIP3   OH227951   4.928   0.450   2.202
 2131TIP3    H127952   4.922   0.540   2.169
 2131TIP3    H227953   4.989   0.455   2.275
 2132TIP3   OH227954   5.599   3.357   0.341
 2132TIP3    H127955   5.546   3.326   0.415
 2132TIP3    H227956   5.536   3.370   0.271
 2133TIP3   OH227957   0.570   5.095   0.629
 2133TIP3    H127958   0.605   5.184   0.618
 2133TIP3    H227959   0.588   5.074   0.721
 2134TIP3   OH227960   0.324   4.770   8.398
 2134TIP3    H127961   0.251   4.708   8.403
 2134TIP3    H227962   0.388   4.728   8.341
 2135TIP3   OH227963   2.125   2.795   1.335
 2135TIP3    H127964   2.086   2.880   1.358
 2135TIP3    H227965   2.108   2.740   1.411
 2136TIP3   OH227966   5.573   6.474   7.792
 2136TIP3    H127967   5.567   6.438   7.703
 2136TIP3    H227968   5.647   6.428   7.831
 2137TIP3   OH227969   5.134   3.576   1.386
 2137TIP3    H127970   5.139   3.589   1.481
 2137TIP3    H227971   5.147   3.664   1.349
 2138TIP3   OH227972   1.891   2.671   7.353
 2138TIP3    H127973   1.802   2.649   7.380
 2138TIP3    H227974   1.940   2.677   7.435
 2139TIP3   OH227975   6.711   0.190   0.766
 2139TIP3    H127976   6.629   0.193   0.717
 2139TIP3    H227977   6.737   0.098   0.764
 2140TIP3   OH227978   1.410   6.059   6.706
 2140TIP3    H127979   1.476   5.991   6.692
 2140TIP3    H227980   1.328   6.018   6.681
 2141TIP3   OH227981   1.838   1.640   8.440
 2141TIP3    H127982   1.860   1.547   8.443
 2141TIP3    H227983   1.821   1.663   8.532
 2142TIP3   OH227984   6.223   0.245   7.336
 2142TIP3    H127985   6.256   0.266   7.423
 2142TIP3    H227986   6.225   0.328   7.288
 2143TIP3   OH227987   1.220   4.181   8.574
 2143TIP3    H127988   1.284   4.129   8.623
 2143TIP3    H227989   1.135   4.150   8.606
 2144TIP3   OH227990   3.734   4.894   6.790
 2144TIP3    H127991   3.761   4.815   6.744
 2144TIP3    H227992   3.639   4.898   6.778
 2145TIP3   OH227993   4.866   5.214   7.984
 2145TIP3    H127994   4.838   5.146   7.923
 2145TIP3    H227995   4.837   5.296   7.944
 2146TIP3   OH227996   2.338   3.901   7.385
 2146TIP3    H127997   2.269   3.950   7.341
 2146TIP3    H227998   2.420   3.937   7.348
 2147TIP3   OH227999   4.627   5.755   0.933
 2147TIP3    H128000   4.656   5.817   1.000
 2147TIP3    H228001   4.677   5.778   0.855
 2148TIP3   OH228002   3.202   6.496   7.544
 2148TIP3    H128003   3.286   6.488   7.590
 2148TIP3    H228004   3.157   6.414   7.562
 2149TIP3   OH228005   5.420   0.413   0.666
 2149TIP3    H128006   5.448   0.370   0.585
 2149TIP3    H228007   5.502   0.428   0.714
 2150TIP3   OH228008   5.167   5.683   0.851
 2150TIP3    H128009   5.120   5.663   0.770
 2150TIP3    H228010   5.122   5.760   0.886
 2151TIP3   OH228011   6.423   2.020   7.656
 2151TIP3    H128012   6.510   2.058   7.657
 2151TIP3    H228013   6.403   2.009   7.563
 2152TIP3   OH228014   5.974   1.720   7.384
 2152TIP3    H128015   5.974   1.629   7.414
 2152TIP3    H228016   6.043   1.762   7.434
 2153TIP3   OH228017   1.608   1.663   8.170
 2153TIP3    H128018   1.561   1.726   8.116
 2153TIP3    H228019   1.611   1.704   8.257
 2154TIP3   OH228020   4.370   1.803   1.588
 2154TIP3    H128021   4.458   1.809   1.551
 2154TIP3    H228022   4.364   1.876   1.649
 2155TIP3   OH228023   5.743   2.748   7.185
 2155TIP3    H128024   5.767   2.839   7.169
 2155TIP3    H228025   5.759   2.704   7.101
 2156TIP3   OH228026   1.261   6.647   0.206
 2156TIP3    H128027   1.280   6.645   0.300
 2156TIP3    H228028   1.348   6.652   0.165
 2157TIP3   OH228029   0.591   2.472   6.337
 2157TIP3    H128030   0.515   2.449   6.283
 2157TIP3    H228031   0.564   2.551   6.383
 2158TIP3   OH228032   3.733   6.574   6.483
 2158TIP3    H128033   3.825   6.566   6.509
 2158TIP3    H228034   3.734   6.638   6.411
 2159TIP3   OH228035   6.845   5.297   7.963
 2159TIP3    H128036   6.831   5.389   7.938
 2159TIP3    H228037   6.760   5.255   7.947
 2160TIP3   OH228038   2.861   2.545   0.217
 2160TIP3    H128039   2.850   2.553   0.122
 2160TIP3    H228040   2.875   2.635   0.247
 2161TIP3   OH228041   0.979   1.417   0.753
 2161TIP3    H128042   0.926   1.447   0.680
 2161TIP3    H228043   1.031   1.346   0.717
 2162TIP3   OH228044   4.095   6.744   1.362
 2162TIP3    H128045   4.103   6.759   1.456
 2162TIP3    H228046   4.182   6.763   1.327
 2163TIP3   OH228047   6.310   0.460   1.363
 2163TIP3    H128048   6.263   0.544   1.362
 2163TIP3    H228049   6.294   0.422   1.277
 2164TIP3   OH228050   5.763   0.238   1.741
 2164TIP3    H128051   5.684   0.190   1.718
 2164TIP3    H228052   5.767   0.232   1.837
 2165TIP3   OH228053   3.445   4.846   7.851
 2165TIP3    H128054   3.529   4.864   7.809
 2165TIP3    H228055   3.407   4.774   7.801
 2166TIP3   OH228056   5.422   3.069   1.243
 2166TIP3    H128057   5.398   3.055   1.152
 2166TIP3    H228058   5.414   3.164   1.256
 2167TIP3   OH228059   6.264   5.922   6.530
 2167TIP3    H128060   6.169   5.915   6.524
 2167TIP3    H228061   6.279   5.996   6.589
 2168TIP3   OH228062   1.335   4.093   2.547
 2168TIP3    H128063   1.428   4.069   2.554
 2168TIP3    H228064   1.300   4.079   2.635
 2169TIP3   OH228065   5.177   4.120   8.428
 2169TIP3    H128066   5.137   4.034   8.415
 2169TIP3    H228067   5.106   4.175   8.462
 2170TIP3   OH228068   5.254   6.381   8.467
 2170TIP3    H128069   5.205   6.450   8.513
 2170TIP3    H228070   5.257   6.410   8.376
 2171TIP3   OH228071   1.169   3.309   8.640
 2171TIP3    H128072   1.215   3.393   8.636
 2171TIP3    H228073   1.096   3.318   8.579
 2172TIP3   OH228074   0.956   1.388   7.263
 2172TIP3    H128075   0.880   1.434   7.300
 2172TIP3    H228076   0.928   1.297   7.256
 2173TIP3   OH228077   5.084   6.564   7.835
 2173TIP3    H128078   5.094   6.621   7.911
 2173TIP3    H228079   4.990   6.545   7.831
 2174TIP3   OH228080   0.278   1.828   1.062
 2174TIP3    H128081   0.239   1.792   0.982
 2174TIP3    H228082   0.321   1.753   1.103
 2175TIP3   OH228083   3.619   3.063   0.377
 2175TIP3    H128084   3.578   3.128   0.435
 2175TIP3    H228085   3.568   3.069   0.296
 2176TIP3   OH228086   2.314   2.574   0.635
 2176TIP3    H128087   2.364   2.646   0.673
 2176TIP3    H228088   2.280   2.609   0.553
 2177TIP3   OH228089   4.740   6.178   7.543
 2177TIP3    H128090   4.825   6.152   7.507
 2177TIP3    H228091   4.704   6.098   7.582
 2178TIP3   OH228092   2.262   2.438   2.054
 2178TIP3    H128093   2.195   2.375   2.079
 2178TIP3    H228094   2.338   2.416   2.108
 2179TIP3   OH228095   1.843   3.953   7.292
 2179TIP3    H128096   1.805   4.014   7.355
 2179TIP3    H228097   1.880   3.883   7.345
 2180TIP3   OH228098   0.993   5.091   6.788
 2180TIP3    H128099   1.054   5.062   6.719
 2180TIP3    H228100   1.049   5.134   6.853
 2181TIP3   OH228101   0.164   1.715   0.743
 2181TIP3    H128102   0.127   1.790   0.790
 2181TIP3    H228103   0.108   1.705   0.666
 2182TIP3   OH228104   3.198   6.805   7.867
 2182TIP3    H128105   3.125   6.742   7.872
 2182TIP3    H228106   3.170   0.015   7.803
 2183TIP3   OH228107   0.943   3.262   7.565
 2183TIP3    H128108   0.926   3.290   7.655
 2183TIP3    H228109   0.945   3.343   7.514
 2184TIP3   OH228110   3.645   5.691   7.103
 2184TIP3    H128111   3.678   5.601   7.103
 2184TIP3    H228112   3.570   5.689   7.044
 2185TIP3   OH228113   0.171   4.489   6.976
 2185TIP3    H128114   0.233   4.550   7.016
 2185TIP3    H228115   0.227   4.428   6.927
 2186TIP3   OH228116   1.222   1.802   8.694
 2186TIP3    H128117   1.226   1.895   8.671
 2186TIP3    H228118   1.141   1.793   0.018
 2187TIP3   OH228119   1.455   5.548   8.236
 2187TIP3    H128120   1.519   5.592   8.181
 2187TIP3    H228121   1.499   5.468   8.265
 2188TIP3   OH228122   5.517   5.019   7.273
 2188TIP3    H128123   5.592   4.971   7.237
 2188TIP3    H228124   5.460   4.951   7.308
 2189TIP3   OH228125   4.987   3.921   7.132
 2189TIP3    H128126   5.073   3.953   7.106
 2189TIP3    H228127   4.925   3.968   7.075
 2190TIP3   OH228128   0.432   1.235   2.660
 2190TIP3    H128129   0.491   1.173   2.701
 2190TIP3    H228130   0.357   1.183   2.633
 2191TIP3   OH228131   6.065   6.019   0.655
 2191TIP3    H128132   6.135   5.964   0.693
 2191TIP3    H228133   6.039   5.972   0.576
 2192TIP3   OH228134   6.634   6.387   8.029
 2192TIP3    H128135   6.676   6.349   7.952
 2192TIP3    H228136   6.564   6.443   7.993
 2193TIP3   OH228137   3.002   5.846   1.384
 2193TIP3    H128138   3.078   5.804   1.345
 2193TIP3    H228139   2.937   5.776   1.391
 2194TIP3   OH228140   5.927   0.141   7.366
 2194TIP3    H128141   5.994   0.208   7.385
 2194TIP3    H228142   5.933   0.128   7.271
 2195TIP3   OH228143   3.537   6.636   0.013
 2195TIP3    H128144   3.517   6.721   8.698
 2195TIP3    H228145   3.633   6.634   0.017
 2196TIP3   OH228146   2.480   2.279   8.102
 2196TIP3    H128147   2.523   2.215   8.158
 2196TIP3    H228148   2.396   2.238   8.079
 2197TIP3   OH228149   5.537   4.453   1.516
 2197TIP3    H128150   5.577   4.419   1.596
 2197TIP3    H228151   5.443   4.451   1.533
 2198TIP3   OH228152   6.746   2.218   2.209
 2198TIP3    H128153   6.778   2.263   2.287
 2198TIP3    H228154   6.825   2.180   2.169
 2199TIP3   OH228155   3.920   5.735   7.068
 2199TIP3    H128156   3.827   5.745   7.088
 2199TIP3    H228157   3.954   5.825   7.066
 2200TIP3   OH228158   0.884   2.734   1.992
 2200TIP3    H128159   0.933   2.682   2.056
 2200TIP3    H228160   0.792   2.712   2.008
 2201TIP3   OH228161   1.800   4.943   6.764
 2201TIP3    H128162   1.805   5.031   6.727
 2201TIP3    H228163   1.850   4.948   6.845
 2202TIP3   OH228164   1.653   2.348   8.045
 2202TIP3    H128165   1.643   2.442   8.030
 2202TIP3    H228166   1.669   2.341   8.139
 2203TIP3   OH228167   4.680   3.259   8.201
 2203TIP3    H128168   4.651   3.304   8.280
 2203TIP3    H228169   4.775   3.272   8.200
 2204TIP3   OH228170   5.928   1.288   0.666
 2204TIP3    H128171   6.011   1.282   0.713
 2204TIP3    H228172   5.861   1.286   0.734
 2205TIP3   OH228173   1.053   1.118   6.616
 2205TIP3    H128174   1.113   1.045   6.626
 2205TIP3    H228175   0.982   1.083   6.562
 2206TIP3   OH228176   0.956   4.837   8.027
 2206TIP3    H128177   1.037   4.879   8.056
 2206TIP3    H228178   0.975   4.743   8.031
 2207TIP3   OH228179   6.617   4.377   8.581
 2207TIP3    H128180   6.556   4.421   8.522
 2207TIP3    H228181   6.583   4.394   8.669
 2208TIP3   OH228182   6.378   1.956   7.353
 2208TIP3    H128183   6.401   1.875   7.307
 2208TIP3    H228184   6.348   2.016   7.284
 2209TIP3   OH228185   0.066   3.653   1.834
 2209TIP3    H128186   6.844   3.623   1.785
 2209TIP3    H228187   0.115   3.573   1.853
 2210TIP3   OH228188   6.724   5.151   0.231
 2210TIP3    H128189   6.675   5.207   0.171
 2210TIP3    H228190   6.674   5.154   0.313
 2211TIP3   OH228191   1.204   0.214   1.105
 2211TIP3    H128192   1.208   0.121   1.130
 2211TIP3    H228193   1.285   0.251   1.141
 2212TIP3   OH228194   5.317   3.077   7.560
 2212TIP3    H128195   5.285   3.020   7.629
 2212TIP3    H228196   5.352   3.017   7.494
 2213TIP3   OH228197   6.592   0.975   8.484
 2213TIP3    H128198   6.528   0.923   8.435
 2213TIP3    H228199   6.662   0.913   8.503
 2214TIP3   OH228200   6.434   3.663   1.056
 2214TIP3    H128201   6.440   3.574   1.091
 2214TIP3    H228202   6.411   3.716   1.132
 2215TIP3   OH228203   1.285   6.639   8.243
 2215TIP3    H128204   1.373   6.673   8.224
 2215TIP3    H228205   1.251   6.614   8.157
 2216TIP3   OH228206   0.758   0.394   8.270
 2216TIP3    H128207   0.784   0.302   8.271
 2216TIP3    H228208   0.719   0.407   8.183
 2217TIP3   OH228209   6.783   1.558   8.719
 2217TIP3    H128210   6.691   1.540   0.010
 2217TIP3    H228211   6.788   1.575   8.625
 2218TIP3   OH228212   3.225   4.309   2.016
 2218TIP3    H128213   3.158   4.362   1.973
 2218TIP3    H228214   3.176   4.242   2.064
 2219TIP3   OH228215   3.800   5.723   0.849
 2219TIP3    H128216   3.799   5.816   0.826
 2219TIP3    H228217   3.799   5.722   0.944
 2220TIP3   OH228218   2.817   4.395   8.500
 2220TIP3    H128219   2.895   4.412   8.448
 2220TIP3    H228220   2.803   4.301   8.494
 2221TIP3   OH228221   2.355   2.324   7.439
 2221TIP3    H128222   2.358   2.330   7.534
 2221TIP3    H228223   2.442   2.351   7.410
 2222TIP3   OH228224   0.944   6.526   8.629
 2222TIP3    H128225   0.983   6.607   8.661
 2222TIP3    H228226   0.937   6.540   8.534
 2223TIP3   OH228227   1.089   1.415   6.463
 2223TIP3    H128228   1.148   1.361   6.516
 2223TIP3    H228229   1.010   1.425   6.517
 2224TIP3   OH228230   5.822   1.695   0.370
 2224TIP3    H128231   5.803   1.605   0.397
 2224TIP3    H228232   5.912   1.692   0.339
 2225TIP3   OH228233   0.331   5.982   7.123
 2225TIP3    H128234   0.341   5.908   7.183
 2225TIP3    H228235   0.419   6.019   7.115
 2226TIP3   OH228236   2.304   0.104   8.254
 2226TIP3    H128237   2.337   0.017   8.234
 2226TIP3    H228238   2.284   0.142   8.168
 2227TIP3   OH228239   3.264   4.790   8.249
 2227TIP3    H128240   3.180   4.763   8.210
 2227TIP3    H228241   3.290   4.866   8.198
 2228TIP3   OH228242   5.381   3.546   0.077
 2228TIP3    H128243   5.288   3.564   0.066
 2228TIP3    H228244   5.425   3.622   0.039
 2229TIP3   OH228245   4.968   1.269   0.957
 2229TIP3    H128246   5.005   1.237   1.039
 2229TIP3    H228247   4.901   1.205   0.934
 2230TIP3   OH228248   4.302   2.816   8.608
 2230TIP3    H128249   4.305   2.834   8.514
 2230TIP3    H228250   4.251   2.888   8.644
 2231TIP3   OH228251   1.692   6.535   0.802
 2231TIP3    H128252   1.681   6.604   0.866
 2231TIP3    H228253   1.662   6.455   0.847
 2232TIP3   OH228254   2.940   5.218   8.330
 2232TIP3    H128255   2.901   5.147   8.379
 2232TIP3    H228256   2.895   5.217   8.245
 2233TIP3   OH228257   5.223   1.812   0.284
 2233TIP3    H128258   5.217   1.860   0.367
 2233TIP3    H228259   5.176   1.730   0.300
 2234TIP3   OH228260   5.730   0.150   8.431
 2234TIP3    H128261   5.639   0.121   8.420
 2234TIP3    H228262   5.743   0.154   8.525
 2235TIP3   OH228263   2.091   1.271   2.123
 2235TIP3    H128264   2.017   1.218   2.093
 2235TIP3    H228265   2.087   1.266   2.218
 2236TIP3   OH228266   2.667   0.104   0.553
 2236TIP3    H128267   2.638   0.101   0.644
 2236TIP3    H228268   2.730   0.176   0.550
 2237TIP3   OH228269   1.012   6.087   7.647
 2237TIP3    H128270   0.952   6.052   7.712
 2237TIP3    H228271   1.017   6.019   7.580
 2238TIP3   OH228272   2.513   1.880   1.450
 2238TIP3    H128273   2.540   1.800   1.405
 2238TIP3    H228274   2.517   1.948   1.382
 2239TIP3   OH228275   1.103   0.699   7.426
 2239TIP3    H128276   1.179   0.687   7.483
 2239TIP3    H228277   1.038   0.638   7.461
 2240TIP3   OH228278   5.991   5.331   2.001
 2240TIP3    H128279   5.932   5.306   2.072
 2240TIP3    H228280   6.047   5.254   1.988
 2241TIP3   OH228281   4.917   4.123   1.437
 2241TIP3    H128282   4.946   4.116   1.346
 2241TIP3    H228283   4.832   4.078   1.439
 2242TIP3   OH228284   0.545   6.476   0.220
 2242TIP3    H128285   0.634   6.487   0.253
 2242TIP3    H228286   0.531   6.382   0.219
 2243TIP3   OH228287   1.516   6.719   7.743
 2243TIP3    H128288   1.562   6.664   7.680
 2243TIP3    H228289   1.581   6.738   7.811
 2244TIP3   OH228290   1.140   1.018   8.572
 2244TIP3    H128291   1.176   0.934   8.543
 2244TIP3    H228292   1.127   1.068   8.491
 2245TIP3   OH228293   3.442   1.566   7.100
 2245TIP3    H128294   3.368   1.572   7.039
 2245TIP3    H228295   3.416   1.620   7.175
 2246TIP3   OH228296   6.510   5.703   8.224
 2246TIP3    H128297   6.593   5.654   8.219
 2246TIP3    H228298   6.470   5.673   8.306
 2247TIP3   OH228299   3.827   1.029   8.380
 2247TIP3    H128300   3.830   1.121   8.355
 2247TIP3    H228301   3.742   0.998   8.348
 2248TIP3   OH228302   1.640   0.009   7.961
 2248TIP3    H128303   1.683   0.073   7.904
 2248TIP3    H228304   1.713   6.814   8.000
 2249TIP3   OH228305   4.136   5.421   8.211
 2249TIP3    H128306   4.098   5.502   8.177
 2249TIP3    H228307   4.121   5.426   8.306
 2250TIP3   OH228308   3.034   4.645   6.890
 2250TIP3    H128309   3.119   4.682   6.867
 2250TIP3    H228310   2.972   4.715   6.872
 2251TIP3   OH228311   4.580   3.718   1.204
 2251TIP3    H128312   4.562   3.759   1.119
 2251TIP3    H228313   4.671   3.689   1.197
 2252TIP3   OH228314   1.546   1.941   8.009
 2252TIP3    H128315   1.577   1.966   8.096
 2252TIP3    H228316   1.452   1.960   8.010
 2253TIP3   OH228317   3.502   5.484   1.683
 2253TIP3    H128318   3.434   5.443   1.737
 2253TIP3    H228319   3.585   5.453   1.721
 2254TIP3   OH228320   0.710   3.819   8.226
 2254TIP3    H128321   0.691   3.726   8.228
 2254TIP3    H228322   0.799   3.826   8.261
 2255TIP3   OH228323   0.676   0.076   7.997
 2255TIP3    H128324   0.707   6.845   8.028
 2255TIP3    H228325   0.650   0.061   7.907
 2256TIP3   OH228326   1.052   5.545   8.457
 2256TIP3    H128327   0.984   5.497   8.505
 2256TIP3    H228328   1.131   5.492   8.467
 2257TIP3   OH228329   6.046   4.072   0.201
 2257TIP3    H128330   6.028   4.053   0.293
 2257TIP3    H228331   6.113   4.141   0.203
 2258TIP3   OH228332   6.404   4.250   7.185
 2258TIP3    H128333   6.331   4.261   7.124
 2258TIP3    H228334   6.374   4.183   7.247
 2259TIP3   OH228335   0.753   1.845   0.382
 2259TIP3    H128336   0.707   1.918   0.341
 2259TIP3    H228337   0.685   1.781   0.402
 2260TIP3   OH228338   6.789   5.230   6.969
 2260TIP3    H128339   6.694   5.218   6.979
 2260TIP3    H228340   6.797   5.310   6.917
 2261TIP3   OH228341   2.828   2.782   0.379
 2261TIP3    H128342   2.880   2.863   0.385
 2261TIP3    H228343   2.813   2.757   0.470
 2262TIP3   OH228344   0.232   3.143   1.375
 2262TIP3    H128345   0.153   3.151   1.321
 2262TIP3    H228346   0.202   3.164   1.464
 2263TIP3   OH228347   5.268   2.603   1.257
 2263TIP3    H128348   5.197   2.647   1.303
 2263TIP3    H228349   5.324   2.673   1.225
 2264TIP3   OH228350   4.065   6.831   0.834
 2264TIP3    H128351   4.152   6.811   0.800
 2264TIP3    H228352   4.047   6.763   0.899
 2265TIP3   OH228353   3.477   3.924   1.344
 2265TIP3    H128354   3.546   3.871   1.385
 2265TIP3    H228355   3.422   3.951   1.418
 2266TIP3   OH228356   0.416   6.481   2.136
 2266TIP3    H128357   0.422   6.478   2.041
 2266TIP3    H228358   0.503   6.508   2.165
 2267TIP3   OH228359   5.426   0.252   8.260
 2267TIP3    H128360   5.480   0.177   8.288
 2267TIP3    H228361   5.359   0.260   8.328
 2268TIP3   OH228362   6.716   6.309   1.094
 2268TIP3    H128363   6.710   6.317   0.998
 2268TIP3    H228364   6.680   6.391   1.127
 2269TIP3   OH228365   3.980   1.088   0.118
 2269TIP3    H128366   4.017   1.174   0.097
 2269TIP3    H228367   3.920   1.070   0.046
 2270TIP3   OH228368   4.306   4.531   6.716
 2270TIP3    H128369   4.301   4.617   6.676
 2270TIP3    H228370   4.371   4.541   6.786
 2271TIP3   OH228371   0.154   4.224   6.476
 2271TIP3    H128372   0.158   4.311   6.437
 2271TIP3    H228373   0.080   4.229   6.538
 2272TIP3   OH228374   1.464   4.573   7.156
 2272TIP3    H128375   1.421   4.598   7.238
 2272TIP3    H228376   1.488   4.481   7.168
 2273TIP3   OH228377   1.484   2.086   8.683
 2273TIP3    H128378   1.471   2.126   0.043
 2273TIP3    H228379   1.420   2.130   8.626
 2274TIP3   OH228380   2.121   6.633   8.057
 2274TIP3    H128381   2.103   6.555   8.004
 2274TIP3    H228382   2.195   6.608   8.112
 2275TIP3   OH228383   3.380   2.990   7.276
 2275TIP3    H128384   3.392   3.082   7.250
 2275TIP3    H228385   3.467   2.951   7.265
 2276TIP3   OH228386   2.472   5.303   0.388
 2276TIP3    H128387   2.487   5.312   0.482
 2276TIP3    H228388   2.507   5.217   0.366
 2277TIP3   OH228389   0.708   4.717   8.705
 2277TIP3    H128390   0.619   4.752   8.711
 2277TIP3    H228391   0.740   4.718   0.069
 2278TIP3   OH228392   4.038   5.389   7.835
 2278TIP3    H128393   4.014   5.297   7.828
 2278TIP3    H228394   3.955   5.435   7.850
 2279TIP3   OH228395   4.470   0.126   8.516
 2279TIP3    H128396   4.426   0.120   8.431
 2279TIP3    H228397   4.440   0.210   8.552
 2280TIP3   OH228398   2.106   4.213   6.236
 2280TIP3    H128399   2.176   4.179   6.292
 2280TIP3    H228400   2.092   4.144   6.171
 2281TIP3   OH228401   1.770   2.659   2.496
 2281TIP3    H128402   1.788   2.752   2.479
 2281TIP3    H228403   1.802   2.644   2.585
 2282TIP3   OH228404   6.626   5.345   0.056
 2282TIP3    H128405   6.535   5.364   0.033
 2282TIP3    H228406   6.654   5.421   0.107
 2283TIP3   OH228407   5.650   2.208   6.912
 2283TIP3    H128408   5.668   2.177   7.001
 2283TIP3    H228409   5.714   2.162   6.857
 2284TIP3   OH228410   0.483   4.356   8.198
 2284TIP3    H128411   0.482   4.349   8.103
 2284TIP3    H228412   0.512   4.270   8.228
 2285TIP3   OH228413   5.349   0.892   1.414
 2285TIP3    H128414   5.271   0.914   1.465
 2285TIP3    H228415   5.321   0.820   1.358
 2286TIP3   OH228416   0.717   5.862   1.277
 2286TIP3    H128417   0.654   5.870   1.206
 2286TIP3    H228418   0.786   5.924   1.256
 2287TIP3   OH228419   1.332   3.701   2.082
 2287TIP3    H128420   1.308   3.610   2.097
 2287TIP3    H228421   1.337   3.739   2.170
 2288TIP3   OH228422   1.246   3.857   8.090
 2288TIP3    H128423   1.287   3.839   8.175
 2288TIP3    H228424   1.174   3.916   8.110
 2289TIP3   OH228425   3.590   2.632   7.683
 2289TIP3    H128426   3.578   2.632   7.588
 2289TIP3    H228427   3.574   2.541   7.709
 2290TIP3   OH228428   6.470   2.828   0.718
 2290TIP3    H128429   6.560   2.842   0.749
 2290TIP3    H228430   6.477   2.754   0.658
 2291TIP3   OH228431   3.594   4.220   0.830
 2291TIP3    H128432   3.680   4.260   0.814
 2291TIP3    H228433   3.577   4.167   0.752
 2292TIP3   OH228434   3.359   5.503   8.442
 2292TIP3    H128435   3.281   5.533   8.396
 2292TIP3    H228436   3.344   5.529   8.533
 2293TIP3   OH228437   6.825   5.293   0.793
 2293TIP3    H128438   0.031   5.358   0.756
 2293TIP3    H228439   6.811   5.230   0.722
 2294TIP3   OH228440   4.251   0.041   1.070
 2294TIP3    H128441   4.301   6.828   1.116
 2294TIP3    H228442   4.252   0.013   0.978
 2295TIP3   OH228443   3.678   4.690   7.371
 2295TIP3    H128444   3.666   4.784   7.388
 2295TIP3    H228445   3.711   4.655   7.454
 2296TIP3   OH228446   3.165   5.466   0.954
 2296TIP3    H128447   3.222   5.480   1.030
 2296TIP3    H228448   3.217   5.414   0.894
 2297TIP3   OH228449   1.728   1.592   7.160
 2297TIP3    H128450   1.768   1.598   7.074
 2297TIP3    H228451   1.706   1.500   7.171
 2298TIP3   OH228452   1.196   6.231   7.489
 2298TIP3    H128453   1.143   6.191   7.558
 2298TIP3    H228454   1.133   6.268   7.428
 2299TIP3   OH228455   0.662   1.637   0.610
 2299TIP3    H128456   0.706   1.569   0.559
 2299TIP3    H228457   0.710   1.637   0.694
 2300TIP3   OH228458   0.184   6.590   0.753
 2300TIP3    H128459   0.221   6.514   0.709
 2300TIP3    H228460   0.095   6.598   0.717
 2301TIP3   OH228461   6.270   1.601   1.171
 2301TIP3    H128462   6.363   1.580   1.168
 2301TIP3    H228463   6.231   1.532   1.225
 2302TIP3   OH228464   0.804   1.060   7.979
 2302TIP3    H128465   0.896   1.064   7.954
 2302TIP3    H228466   0.757   1.098   7.904
 2303TIP3   OH228467   0.373   1.540   1.469
 2303TIP3    H128468   0.286   1.511   1.496
 2303TIP3    H228469   0.432   1.505   1.536
 2304TIP3   OH228470   1.743   6.084   6.491
 2304TIP3    H128471   1.820   6.119   6.537
 2304TIP3    H228472   1.757   6.107   6.399
 2305TIP3   OH228473   4.549   6.769   8.670
 2305TIP3    H128474   4.626   6.818   8.699
 2305TIP3    H228475   4.488   6.835   8.640
 2306TIP3   OH228476   4.611   1.237   7.827
 2306TIP3    H128477   4.633   1.299   7.758
 2306TIP3    H228478   4.529   1.270   7.864
 2307TIP3   OH228479   6.732   2.271   8.553
 2307TIP3    H128480   6.677   2.314   8.488
 2307TIP3    H228481   6.729   2.328   8.629
 2308TIP3   OH228482   5.805   6.536   6.612
 2308TIP3    H128483   5.818   6.449   6.576
 2308TIP3    H228484   5.710   6.544   6.622
 2309TIP3   OH228485   5.123   6.757   8.067
 2309TIP3    H128486   5.066   6.750   8.144
 2309TIP3    H228487   5.183   6.829   8.088
 2310TIP3   OH228488   3.110   3.334   7.020
 2310TIP3    H128489   3.084   3.268   7.084
 2310TIP3    H228490   3.036   3.339   6.960
 2311TIP3   OH228491   5.247   4.892   7.819
 2311TIP3    H128492   5.276   4.801   7.823
 2311TIP3    H228493   5.209   4.910   7.905
 2312TIP3   OH228494   6.214   1.845   0.477
 2312TIP3    H128495   6.180   1.928   0.446
 2312TIP3    H228496   6.308   1.847   0.458
 2313TIP3   OH228497   6.400   5.477   2.288
 2313TIP3    H128498   6.342   5.484   2.211
 2313TIP3    H228499   6.345   5.506   2.361
 2314TIP3   OH228500   0.268   6.389   7.775
 2314TIP3    H128501   0.232   6.478   7.780
 2314TIP3    H228502   0.329   6.384   7.848
 2315TIP3   OH228503   0.971   1.945   7.002
 2315TIP3    H128504   0.898   1.896   6.964
 2315TIP3    H228505   0.936   1.981   7.084
 2316TIP3   OH228506   2.771   1.810   8.357
 2316TIP3    H128507   2.713   1.758   8.303
 2316TIP3    H228508   2.747   1.901   8.338
 2317TIP3   OH228509   4.065   5.663   1.746
 2317TIP3    H128510   4.033   5.643   1.834
 2317TIP3    H228511   4.115   5.585   1.720
 2318TIP3   OH228512   3.847   1.824   7.919
 2318TIP3    H128513   3.857   1.793   7.829
 2318TIP3    H228514   3.858   1.919   7.913
 2319TIP3   OH228515   0.361   6.695   7.943
 2319TIP3    H128516   0.276   6.692   7.900
 2319TIP3    H228517   0.393   6.605   7.939
 2320TIP3   OH228518   2.804   4.703   0.644
 2320TIP3    H128519   2.812   4.659   0.560
 2320TIP3    H228520   2.814   4.633   0.709
 2321TIP3   OH228521   4.588   4.282   0.011
 2321TIP3    H128522   4.663   4.223   0.004
 2321TIP3    H228523   4.513   4.224   0.022
 2322TIP3   OH228524   1.927   2.429   1.001
 2322TIP3    H128525   1.998   2.444   0.938
 2322TIP3    H228526   1.897   2.516   1.025
 2323TIP3   OH228527   2.442   0.418   1.401
 2323TIP3    H128528   2.377   0.371   1.348
 2323TIP3    H228529   2.504   0.350   1.427
 2324TIP3   OH228530   0.834   3.074   2.117
 2324TIP3    H128531   0.843   3.037   2.205
 2324TIP3    H228532   0.866   3.005   2.059
 2325TIP3   OH228533   1.998   5.802   7.596
 2325TIP3    H128534   1.913   5.823   7.556
 2325TIP3    H228535   1.976   5.771   7.684
 2326TIP3   OH228536   2.093   0.532   1.711
 2326TIP3    H128537   2.008   0.564   1.682
 2326TIP3    H228538   2.103   0.569   1.799
 2327TIP3   OH228539   3.302   2.649   8.451
 2327TIP3    H128540   3.232   2.585   8.465
 2327TIP3    H228541   3.355   2.644   8.531
 2328TIP3   OH228542   3.251   1.489   0.855
 2328TIP3    H128543   3.284   1.579   0.855
 2328TIP3    H228544   3.314   1.441   0.801
 2329TIP3   OH228545   1.099   2.304   1.850
 2329TIP3    H128546   1.137   2.384   1.813
 2329TIP3    H228547   1.020   2.334   1.895
 2330TIP3   OH228548   3.382   1.072   1.401
 2330TIP3    H128549   3.434   1.150   1.380
 2330TIP3    H228550   3.317   1.103   1.464
 2331TIP3   OH228551   4.610   2.149   7.930
 2331TIP3    H128552   4.680   2.117   7.874
 2331TIP3    H228553   4.587   2.235   7.895
 2332TIP3   OH228554   6.036   3.210   1.477
 2332TIP3    H128555   6.105   3.165   1.526
 2332TIP3    H228556   5.995   3.269   1.541
 2333TIP3   OH228557   0.619   1.541   0.208
 2333TIP3    H128558   0.611   1.539   0.303
 2333TIP3    H228559   0.690   1.480   0.188
 2334TIP3   OH228560   2.022   4.090   7.535
 2334TIP3    H128561   2.085   4.134   7.477
 2334TIP3    H228562   1.950   4.152   7.543
 2335TIP3   OH228563   3.439   5.933   8.163
 2335TIP3    H128564   3.364   5.894   8.208
 2335TIP3    H228565   3.479   5.860   8.115
 2336TIP3   OH228566   5.773   4.861   6.555
 2336TIP3    H128567   5.698   4.858   6.614
 2336TIP3    H228568   5.736   4.880   6.469
 2337TIP3   OH228569   4.842   4.693   1.428
 2337TIP3    H128570   4.894   4.677   1.348
 2337TIP3    H228571   4.755   4.715   1.395
 2338TIP3   OH228572   0.594   1.479   1.093
 2338TIP3    H128573   0.641   1.558   1.120
 2338TIP3    H228574   0.657   1.430   1.041
 2339TIP3   OH228575   3.757   2.696   7.438
 2339TIP3    H128576   3.827   2.694   7.504
 2339TIP3    H228577   3.787   2.637   7.369
 2340TIP3   OH228578   2.192   5.139   0.409
 2340TIP3    H128579   2.172   5.056   0.452
 2340TIP3    H228580   2.265   5.175   0.459
 2341TIP3   OH228581   6.239   1.298   1.029
 2341TIP3    H128582   6.216   1.258   1.113
 2341TIP3    H228583   6.329   1.327   1.040
 2342TIP3   OH228584   2.250   4.837   1.055
 2342TIP3    H128585   2.230   4.797   1.139
 2342TIP3    H228586   2.214   4.777   0.990
 2343TIP3   OH228587   3.102   5.860   8.002
 2343TIP3    H128588   3.070   5.771   7.987
 2343TIP3    H228589   3.141   5.857   8.090
 2344TIP3   OH228590   6.218   4.599   8.233
 2344TIP3    H128591   6.201   4.632   8.321
 2344TIP3    H228592   6.138   4.619   8.185
 2345TIP3   OH228593   4.245   3.023   2.232
 2345TIP3    H128594   4.244   2.975   2.149
 2345TIP3    H228595   4.221   2.957   2.298
 2346TIP3   OH228596   3.013   6.461   1.400
 2346TIP3    H128597   3.066   6.533   1.433
 2346TIP3    H228598   2.952   6.441   1.472
 2347TIP3   OH228599   3.841   5.086   6.934
 2347TIP3    H128600   3.931   5.057   6.919
 2347TIP3    H228601   3.787   5.021   6.889
 2348TIP3   OH228602   2.264   1.355   1.614
 2348TIP3    H128603   2.287   1.275   1.661
 2348TIP3    H228604   2.212   1.405   1.677
 2349TIP3   OH228605   0.992   4.925   2.434
 2349TIP3    H128606   0.949   4.995   2.385
 2349TIP3    H228607   1.045   4.970   2.499
 2350TIP3   OH228608   2.212   1.337   7.681
 2350TIP3    H128609   2.271   1.317   7.608
 2350TIP3    H228610   2.129   1.360   7.639
 2351TIP3   OH228611   6.798   0.994   8.149
 2351TIP3    H128612   6.702   0.999   8.147
 2351TIP3    H228613   6.818   0.905   8.122
 2352TIP3   OH228614   4.649   2.801   7.640
 2352TIP3    H128615   4.720   2.746   7.674
 2352TIP3    H228616   4.586   2.806   7.711
 2353TIP3   OH228617   2.115   5.367   6.259
 2353TIP3    H128618   2.032   5.324   6.283
 2353TIP3    H228619   2.163   5.300   6.211
 2354TIP3   OH228620   1.549   3.374   6.348
 2354TIP3    H128621   1.486   3.332   6.290
 2354TIP3    H228622   1.500   3.443   6.392
 2355TIP3   OH228623   1.388   1.151   7.965
 2355TIP3    H128624   1.405   1.063   7.930
 2355TIP3    H228625   1.447   1.208   7.915
 2356TIP3   OH228626   6.607   3.953   0.116
 2356TIP3    H128627   6.701   3.939   0.102
 2356TIP3    H228628   6.575   3.986   0.032
 2357TIP3   OH228629   5.516   0.677   0.542
 2357TIP3    H128630   5.454   0.750   0.550
 2357TIP3    H228631   5.460   0.599   0.543
 2358TIP3   OH228632   0.272   0.317   6.732
 2358TIP3    H128633   0.270   0.407   6.700
 2358TIP3    H228634   0.334   0.273   6.676
 2359TIP3   OH228635   1.564   0.814   8.347
 2359TIP3    H128636   1.564   0.806   8.443
 2359TIP3    H228637   1.525   0.899   8.331
 2360TIP3   OH228638   0.151   4.250   0.494
 2360TIP3    H128639   0.063   4.282   0.512
 2360TIP3    H228640   0.166   4.272   0.402
 2361TIP3   OH228641   3.481   4.964   6.901
 2361TIP3    H128642   3.402   4.976   6.848
 2361TIP3    H228643   3.511   5.054   6.919
 2362TIP3   OH228644   2.240   5.567   2.020
 2362TIP3    H128645   2.248   5.480   1.981
 2362TIP3    H228646   2.187   5.554   2.098
 2363TIP3   OH228647   4.455   0.737   1.432
 2363TIP3    H128648   4.507   0.659   1.452
 2363TIP3    H228649   4.365   0.711   1.453
 2364TIP3   OH228650   4.037   4.701   1.354
 2364TIP3    H128651   4.002   4.654   1.278
 2364TIP3    H228652   3.994   4.786   1.352
 2365TIP3   OH228653   5.334   6.535   8.210
 2365TIP3    H128654   5.282   6.616   8.206
 2365TIP3    H228655   5.388   6.545   8.288
 2366TIP3   OH228656   2.605   1.106   2.534
 2366TIP3    H128657   2.654   1.090   2.453
 2366TIP3    H228658   2.584   1.018   2.566
 2367TIP3   OH228659   3.432   1.709   0.871
 2367TIP3    H128660   3.495   1.680   0.805
 2367TIP3    H228661   3.485   1.730   0.948
 2368TIP3   OH228662   5.254   4.861   7.070
 2368TIP3    H128663   5.228   4.942   7.113
 2368TIP3    H228664   5.341   4.843   7.105
 2369TIP3   OH228665   3.934   5.040   7.476
 2369TIP3    H128666   3.841   5.029   7.455
 2369TIP3    H228667   3.965   5.108   7.416
 2370TIP3   OH228668   2.500   4.388   0.388
 2370TIP3    H128669   2.458   4.472   0.368
 2370TIP3    H228670   2.593   4.409   0.394
 2371TIP3   OH228671   2.389   4.152   2.332
 2371TIP3    H128672   2.465   4.098   2.354
 2371TIP3    H228673   2.376   4.138   2.239
 2372TIP3   OH228674   2.361   0.712   7.786
 2372TIP3    H128675   2.405   0.629   7.768
 2372TIP3    H228676   2.270   0.687   7.803
 2373TIP3   OH228677   4.827   2.411   1.440
 2373TIP3    H128678   4.808   2.492   1.394
 2373TIP3    H228679   4.743   2.382   1.475
 2374TIP3   OH228680   2.520   5.719   6.645
 2374TIP3    H128681   2.555   5.760   6.566
 2374TIP3    H228682   2.552   5.774   6.717
 2375TIP3   OH228683   4.186   4.676   7.823
 2375TIP3    H128684   4.258   4.704   7.766
 2375TIP3    H228685   4.111   4.729   7.796
 2376TIP3   OH228686   1.102   2.554   6.661
 2376TIP3    H128687   1.099   2.639   6.617
 2376TIP3    H228688   1.026   2.555   6.720
 2377TIP3   OH228689   3.297   2.712   7.397
 2377TIP3    H128690   3.276   2.773   7.326
 2377TIP3    H228691   3.213   2.697   7.441
 2378TIP3   OH228692   4.899   3.733   1.857
 2378TIP3    H128693   4.883   3.720   1.950
 2378TIP3    H228694   4.870   3.651   1.816
 2379TIP3   OH228695   0.605   1.366   1.909
 2379TIP3    H128696   0.700   1.365   1.921
 2379TIP3    H228697   0.576   1.445   1.955
 2380TIP3   OH228698   1.655   5.535   2.376
 2380TIP3    H128699   1.590   5.466   2.372
 2380TIP3    H228700   1.708   5.515   2.453
 2381TIP3   OH228701   1.741   0.365   7.314
 2381TIP3    H128702   1.737   0.286   7.366
 2381TIP3    H228703   1.728   0.437   7.376
 2382TIP3   OH228704   0.451   0.427   0.182
 2382TIP3    H128705   0.390   0.359   0.152
 2382TIP3    H228706   0.522   0.378   0.223
 2383TIP3   OH228707   0.148   5.252   8.219
 2383TIP3    H128708   0.196   5.328   8.186
 2383TIP3    H228709   0.077   5.239   8.155
 2384TIP3   OH228710   4.112   1.240   1.484
 2384TIP3    H128711   4.070   1.237   1.570
 2384TIP3    H228712   4.204   1.221   1.501
 2385TIP3   OH228713   1.761   1.332   8.505
 2385TIP3    H128714   1.743   1.246   8.466
 2385TIP3    H228715   1.675   1.370   8.520
 2386TIP3   OH228716   3.304   3.088   8.152
 2386TIP3    H128717   3.216   3.050   8.149
 2386TIP3    H228718   3.358   3.022   8.195
 2387TIP3   OH228719   4.475   6.501   0.846
 2387TIP3    H128720   4.453   6.468   0.934
 2387TIP3    H228721   4.519   6.584   0.862
 2388TIP3   OH228722   0.606   2.104   7.923
 2388TIP3    H128723   0.684   2.049   7.933
 2388TIP3    H228724   0.540   2.046   7.886
 2389TIP3   OH228725   5.829   2.145   8.163
 2389TIP3    H128726   5.893   2.193   8.111
 2389TIP3    H228727   5.750   2.142   8.109
 2390TIP3   OH228728   6.192   3.633   1.407
 2390TIP3    H128729   6.187   3.586   1.324
 2390TIP3    H228730   6.224   3.567   1.469
 2391TIP3   OH228731   5.549   2.559   7.259
 2391TIP3    H128732   5.525   2.539   7.350
 2391TIP3    H228733   5.607   2.635   7.266
 2392TIP3   OH228734   5.916   2.152   0.555
 2392TIP3    H128735   5.927   2.216   0.485
 2392TIP3    H228736   5.894   2.071   0.509
 2393TIP3   OH228737   5.663   6.125   7.555
 2393TIP3    H128738   5.731   6.178   7.597
 2393TIP3    H228739   5.600   6.189   7.523
 2394TIP3   OH228740   4.961   2.785   0.924
 2394TIP3    H128741   4.886   2.838   0.897
 2394TIP3    H228742   4.925   2.697   0.936
 2395TIP3   OH228743   6.449   6.739   2.111
 2395TIP3    H128744   6.384   6.760   2.044
 2395TIP3    H228745   6.398   6.725   2.191
 2396TIP3   OH228746   0.870   6.535   7.645
 2396TIP3    H128747   0.890   6.606   7.706
 2396TIP3    H228748   0.943   6.473   7.656
 2397TIP3   OH228749   1.057   0.445   6.640
 2397TIP3    H128750   1.051   0.396   6.558
 2397TIP3    H228751   1.147   0.477   6.643
 2398TIP3   OH228752   2.615   1.570   7.810
 2398TIP3    H128753   2.537   1.516   7.821
 2398TIP3    H228754   2.670   1.548   7.885
 2399TIP3   OH228755   3.912   1.954   2.627
 2399TIP3    H128756   4.001   1.987   2.613
 2399TIP3    H228757   3.921   1.859   2.619
 2400TIP3   OH228758   4.986   0.194   1.712
 2400TIP3    H128759   4.974   0.155   1.798
 2400TIP3    H228760   5.016   0.121   1.657
 2401TIP3   OH228761   0.893   4.733   1.863
 2401TIP3    H128762   0.904   4.823   1.893
 2401TIP3    H228763   0.966   4.685   1.902
 2402TIP3   OH228764   3.573   1.978   8.691
 2402TIP3    H128765   3.639   1.909   8.689
 2402TIP3    H228766   3.496   1.939   8.650
 2403TIP3   OH228767   6.200   4.309   6.627
 2403TIP3    H128768   6.132   4.310   6.559
 2403TIP3    H228769   6.266   4.248   6.594
 2404TIP3   OH228770   3.498   5.708   6.873
 2404TIP3    H128771   3.479   5.795   6.838
 2404TIP3    H228772   3.517   5.654   6.797
 2405TIP3   OH228773   1.468   1.409   1.970
 2405TIP3    H128774   1.429   1.473   2.030
 2405TIP3    H228775   1.403   1.339   1.963
 2406TIP3   OH228776   5.308   5.894   1.496
 2406TIP3    H128777   5.237   5.937   1.448
 2406TIP3    H228778   5.387   5.933   1.460
 2407TIP3   OH228779   5.787   1.619   2.405
 2407TIP3    H128780   5.831   1.568   2.472
 2407TIP3    H228781   5.760   1.699   2.450
 2408TIP3   OH228782   1.263   5.344   8.309
 2408TIP3    H128783   1.317   5.412   8.269
 2408TIP3    H228784   1.298   5.262   8.273
 2409TIP3   OH228785   4.935   2.517   8.335
 2409TIP3    H128786   4.927   2.595   8.280
 2409TIP3    H228787   4.974   2.549   8.416
 2410TIP3   OH228788   3.602   6.680   0.310
 2410TIP3    H128789   3.628   6.596   0.349
 2410TIP3    H228790   3.590   6.661   0.217
 2411TIP3   OH228791   5.410   3.758   1.739
 2411TIP3    H128792   5.392   3.722   1.826
 2411TIP3    H228793   5.490   3.810   1.751
 2412TIP3   OH228794   0.329   2.345   7.133
 2412TIP3    H128795   0.331   2.378   7.043
 2412TIP3    H228796   0.419   2.321   7.152
 2413TIP3   OH228797   1.065   4.054   8.200
 2413TIP3    H128798   1.051   4.089   8.112
 2413TIP3    H228799   1.144   4.099   8.231
 2414TIP3   OH228800   0.963   4.774   6.805
 2414TIP3    H128801   0.986   4.866   6.818
 2414TIP3    H228802   1.018   4.727   6.867
 2415TIP3   OH228803   0.700   3.196   7.201
 2415TIP3    H128804   0.783   3.150   7.208
 2415TIP3    H228805   0.640   3.149   7.260
 2416TIP3   OH228806   2.171   0.194   7.127
 2416TIP3    H128807   2.100   0.249   7.159
 2416TIP3    H228808   2.174   0.210   7.033
 2417TIP3   OH228809   2.864   0.439   7.856
 2417TIP3    H128810   2.943   0.384   7.858
 2417TIP3    H228811   2.869   0.492   7.935
 2418TIP3   OH228812   0.792   0.637   0.265
 2418TIP3    H128813   0.781   0.565   0.204
 2418TIP3    H228814   0.704   0.672   0.279
 2419TIP3   OH228815   5.873   1.671   7.116
 2419TIP3    H128816   5.810   1.648   7.184
 2419TIP3    H228817   5.948   1.707   7.163
 2420TIP3   OH228818   3.136   1.549   7.509
 2420TIP3    H128819   3.197   1.486   7.548
 2420TIP3    H228820   3.070   1.494   7.466
 2421TIP3   OH228821   4.072   1.944   6.739
 2421TIP3    H128822   4.135   1.876   6.763
 2421TIP3    H228823   4.095   1.966   6.649
 2422TIP3   OH228824   6.645   6.015   6.546
 2422TIP3    H128825   6.593   5.938   6.521
 2422TIP3    H228826   6.596   6.055   6.618
 2423TIP3   OH228827   6.837   5.552   1.205
 2423TIP3    H128828   0.022   5.606   1.137
 2423TIP3    H228829   0.014   5.463   1.186
 2424TIP3   OH228830   1.122   2.993   0.270
 2424TIP3    H128831   1.189   2.978   0.336
 2424TIP3    H228832   1.137   3.083   0.241
 2425TIP3   OH228833   3.135   6.092   0.714
 2425TIP3    H128834   3.089   6.009   0.704
 2425TIP3    H228835   3.148   6.123   0.624
 2426TIP3   OH228836   5.548   0.217   0.117
 2426TIP3    H128837   5.581   0.135   0.155
 2426TIP3    H228838   5.605   0.233   0.042
 2427TIP3   OH228839   2.410   3.147   7.482
 2427TIP3    H128840   2.330   3.107   7.517
 2427TIP3    H228841   2.441   3.085   7.416
 2428TIP3   OH228842   2.085   2.251   8.403
 2428TIP3    H128843   2.138   2.173   8.419
 2428TIP3    H228844   2.139   2.304   8.344
 2429TIP3   OH228845   3.912   5.849   7.872
 2429TIP3    H128846   3.907   5.899   7.790
 2429TIP3    H228847   3.896   5.914   7.940
 2430TIP3   OH228848   2.857   3.971   8.273
 2430TIP3    H128849   2.769   3.943   8.246
 2430TIP3    H228850   2.916   3.923   8.214
 2431TIP3   OH228851   0.678   2.751   7.976
 2431TIP3    H128852   0.586   2.780   7.979
 2431TIP3    H228853   0.682   2.679   8.039
 2432TIP3   OH228854   5.760   1.939   7.686
 2432TIP3    H128855   5.755   1.887   7.606
 2432TIP3    H228856   5.835   1.997   7.673
 2433TIP3   OH228857   5.480   2.066   8.496
 2433TIP3    H128858   5.511   1.975   8.503
 2433TIP3    H228859   5.560   2.118   8.491
 2434TIP3   OH228860   4.167   2.429   1.654
 2434TIP3    H128861   4.214   2.363   1.602
 2434TIP3    H228862   4.095   2.458   1.596
 2435TIP3   OH228863   5.474   5.891   0.325
 2435TIP3    H128864   5.446   5.805   0.295
 2435TIP3    H228865   5.437   5.899   0.413
 2436TIP3   OH228866   5.497   3.177   8.457
 2436TIP3    H128867   5.498   3.086   8.427
 2436TIP3    H228868   5.430   3.219   8.404
 2437TIP3   OH228869   4.839   0.615   1.901
 2437TIP3    H128870   4.875   0.669   1.972
 2437TIP3    H228871   4.758   0.660   1.876
 2438TIP3   OH228872   3.228   3.354   1.265
 2438TIP3    H128873   3.253   3.302   1.189
 2438TIP3    H228874   3.217   3.443   1.230
 2439TIP3   OH228875   0.735   0.381   8.535
 2439TIP3    H128876   0.680   0.306   8.559
 2439TIP3    H228877   0.708   0.402   8.445
 2440TIP3   OH228878   3.267   2.839   0.246
 2440TIP3    H128879   3.219   2.783   0.307
 2440TIP3    H228880   3.329   2.779   0.203
 2441TIP3   OH228881   1.631   0.170   2.752
 2441TIP3    H128882   1.670   0.083   2.756
 2441TIP3    H228883   1.645   0.199   2.662
 2442TIP3   OH228884   1.168   3.409   6.866
 2442TIP3    H128885   1.109   3.353   6.916
 2442TIP3    H228886   1.162   3.495   6.908
 2443TIP3   OH228887   5.926   5.165   2.348
 2443TIP3    H128888   5.974   5.202   2.421
 2443TIP3    H228889   5.991   5.115   2.299
 2444TIP3   OH228890   6.755   3.287   6.646
 2444TIP3    H128891   6.792   3.322   6.726
 2444TIP3    H228892   6.785   3.196   6.643
 2445TIP3   OH228893   4.967   5.933   0.684
 2445TIP3    H128894   4.903   6.000   0.659
 2445TIP3    H228895   4.957   5.926   0.779
 2446TIP3   OH228896   1.664   6.598   7.543
 2446TIP3    H128897   1.604   6.604   7.469
 2446TIP3    H228898   1.740   6.652   7.517
 2447TIP3   OH228899   5.160   5.861   2.270
 2447TIP3    H128900   5.161   5.774   2.311
 2447TIP3    H228901   5.069   5.876   2.247
 2448TIP3   OH228902   3.849   2.304   1.657
 2448TIP3    H128903   3.877   2.325   1.746
 2448TIP3    H228904   3.837   2.209   1.657
 2449TIP3   OH228905   0.219   2.678   1.057
 2449TIP3    H128906   0.247   2.766   1.033
 2449TIP3    H228907   0.139   2.664   1.006
 2450TIP3   OH228908   2.853   5.621   2.260
 2450TIP3    H128909   2.859   5.559   2.332
 2450TIP3    H228910   2.825   5.703   2.300
 2451TIP3   OH228911   4.612   1.930   8.118
 2451TIP3    H128912   4.607   2.008   8.063
 2451TIP3    H228913   4.547   1.870   8.079
 2452TIP3   OH228914   0.458   1.229   7.599
 2452TIP3    H128915   0.482   1.144   7.561
 2452TIP3    H228916   0.363   1.224   7.612
 2453TIP3   OH228917   5.922   3.074   1.250
 2453TIP3    H128918   5.839   3.121   1.250
 2453TIP3    H228919   5.960   3.090   1.336
 2454TIP3   OH228920   3.056   0.050   8.371
 2454TIP3    H128921   3.108   6.837   8.326
 2454TIP3    H228922   3.023   0.106   8.301
 2455TIP3   OH228923   4.763   3.147   7.767
 2455TIP3    H128924   4.824   3.175   7.699
 2455TIP3    H228925   4.795   3.061   7.795
 2456TIP3   OH228926   1.287   3.494   6.159
 2456TIP3    H128927   1.287   3.399   6.170
 2456TIP3    H228928   1.258   3.528   6.243
 2457TIP3   OH228929   5.924   6.429   0.391
 2457TIP3    H128930   5.863   6.449   0.463
 2457TIP3    H228931   5.959   6.342   0.412
 2458TIP3   OH228932   5.472   6.824   5.844
 2458TIP3    H128933   5.389   6.850   5.804
 2458TIP3    H228934   5.489   0.038   5.909
 2459TIP3   OH228935   5.771   2.413   7.397
 2459TIP3    H128936   5.791   2.355   7.323
 2459TIP3    H228937   5.699   2.368   7.443
 2460TIP3   OH228938   5.774   2.221   0.088
 2460TIP3    H128939   5.812   2.276   0.156
 2460TIP3    H228940   5.744   2.143   0.134
 2461TIP3   OH228941   1.902   0.374   7.648
 2461TIP3    H128942   1.962   0.447   7.629
 2461TIP3    H228943   1.926   0.306   7.584
 2462TIP3   OH228944   3.477   3.459   1.964
 2462TIP3    H128945   3.551   3.511   1.933
 2462TIP3    H228946   3.510   3.415   2.043
 2463TIP3   OH228947   5.118   2.053   8.677
 2463TIP3    H128948   5.186   2.065   0.017
 2463TIP3    H228949   5.149   1.981   8.623
 2464TIP3   OH228950   4.906   1.827   0.179
 2464TIP3    H128951   4.992   1.850   0.215
 2464TIP3    H228952   4.848   1.823   0.256
 2465TIP3   OH228953   1.345   2.973   0.006
 2465TIP3    H128954   1.392   2.931   8.660
 2465TIP3    H228955   1.254   2.947   8.720
 2466TIP3   OH228956   3.005   5.582   8.497
 2466TIP3    H128957   3.055   5.604   8.418
 2466TIP3    H228958   2.944   5.655   8.507
 2467TIP3   OH228959   4.932   0.233   8.169
 2467TIP3    H128960   4.927   0.147   8.126
 2467TIP3    H228961   4.859   0.233   8.231
 2468TIP3   OH228962   4.403   5.146   0.094
 2468TIP3    H128963   4.353   5.121   0.016
 2468TIP3    H228964   4.455   5.221   0.066
 2469TIP3   OH228965   2.742   3.532   1.048
 2469TIP3    H128966   2.653   3.521   1.082
 2469TIP3    H228967   2.790   3.457   1.083
 2470TIP3   OH228968   6.247   0.413   0.258
 2470TIP3    H128969   6.293   0.449   0.182
 2470TIP3    H228970   6.189   0.485   0.286
 2471TIP3   OH228971   6.280   5.966   8.274
 2471TIP3    H128972   6.224   6.027   8.226
 2471TIP3    H228973   6.365   5.972   8.231
 2472TIP3   OH228974   2.687   6.440   7.203
 2472TIP3    H128975   2.596   6.468   7.212
 2472TIP3    H228976   2.711   6.408   7.290
 2473TIP3   OH228977   1.350   2.638   0.342
 2473TIP3    H128978   1.433   2.592   0.353
 2473TIP3    H228979   1.283   2.577   0.375
 2474TIP3   OH228980   5.036   1.661   6.240
 2474TIP3    H128981   4.990   1.646   6.323
 2474TIP3    H228982   5.122   1.622   6.254
 2475TIP3   OH228983   1.320   0.475   1.980
 2475TIP3    H128984   1.245   0.526   2.007
 2475TIP3    H228985   1.290   0.427   1.902
 2476TIP3   OH228986   3.510   2.536   7.400
 2476TIP3    H128987   3.583   2.596   7.386
 2476TIP3    H228988   3.432   2.591   7.401
 2477TIP3   OH228989   1.444   5.804   0.245
 2477TIP3    H128990   1.377   5.765   0.189
 2477TIP3    H228991   1.526   5.785   0.200
 2478TIP3   OH228992   1.421   2.965   0.269
 2478TIP3    H128993   1.378   2.980   0.185
 2478TIP3    H228994   1.514   2.952   0.247
 2479TIP3   OH228995   3.267   2.011   2.318
 2479TIP3    H128996   3.202   1.965   2.265
 2479TIP3    H228997   3.223   2.090   2.348
 2480TIP3   OH228998   0.094   5.731   8.149
 2480TIP3    H128999   0.027   5.663   8.157
 2480TIP3    H229000   0.125   5.722   8.059
 2481TIP3   OH229001   0.273   2.611   7.789
 2481TIP3    H129002   0.271   2.525   7.747
 2481TIP3    H229003   0.323   2.666   7.729
 2482TIP3   OH229004   5.975   4.343   6.458
 2482TIP3    H129005   5.931   4.288   6.393
 2482TIP3    H229006   5.907   4.401   6.491
 2483TIP3   OH229007   4.855   5.702   6.764
 2483TIP3    H129008   4.847   5.622   6.711
 2483TIP3    H229009   4.949   5.720   6.766
 2484TIP3   OH229010   4.948   6.689   6.945
 2484TIP3    H129011   4.980   6.762   6.892
 2484TIP3    H229012   5.013   6.680   7.015
 2485TIP3   OH229013   2.394   2.135   1.433
 2485TIP3    H129014   2.450   2.125   1.356
 2485TIP3    H229015   2.309   2.101   1.404
 2486TIP3   OH229016   4.845   1.520   0.767
 2486TIP3    H129017   4.833   1.452   0.700
 2486TIP3    H229018   4.896   1.476   0.836
 2487TIP3   OH229019   6.852   0.623   0.119
 2487TIP3    H129020   0.076   0.589   0.164
 2487TIP3    H229021   6.789   0.551   0.123
 2488TIP3   OH229022   5.494   6.829   7.789
 2488TIP3    H129023   5.442   0.036   7.841
 2488TIP3    H229024   5.545   6.779   7.853
 2489TIP3   OH229025   6.607   2.235   7.686
 2489TIP3    H129026   6.583   2.284   7.607
 2489TIP3    H229027   6.701   2.222   7.678
 2490TIP3   OH229028   0.171   0.914   7.344
 2490TIP3    H129029   0.089   0.884   7.305
 2490TIP3    H229030   0.160   1.008   7.354
 2491TIP3   OH229031   2.097   0.984   0.484
 2491TIP3    H129032   2.069   0.900   0.448
 2491TIP3    H229033   2.045   1.049   0.437
 2492TIP3   OH229034   3.107   1.166   8.253
 2492TIP3    H129035   3.097   1.162   8.348
 2492TIP3    H229036   3.081   1.079   8.223
 2493TIP3   OH229037   5.064   1.385   6.512
 2493TIP3    H129038   4.996   1.324   6.543
 2493TIP3    H229039   5.146   1.339   6.530
 2494TIP3   OH229040   0.296   6.623   6.301
 2494TIP3    H129041   0.336   6.655   6.382
 2494TIP3    H229042   0.325   6.532   6.294
 2495TIP3   OH229043   1.590   5.410   7.352
 2495TIP3    H129044   1.626   5.497   7.372
 2495TIP3    H229045   1.576   5.411   7.257
 2496TIP3   OH229046   4.099   4.382   0.124
 2496TIP3    H129047   4.137   4.429   0.050
 2496TIP3    H229048   4.065   4.301   0.086
 2497TIP3   OH229049   1.913   6.728   1.028
 2497TIP3    H129050   1.955   6.791   0.970
 2497TIP3    H229051   1.823   6.721   0.996
 2498TIP3   OH229052   2.463   2.607   7.358
 2498TIP3    H129053   2.450   2.604   7.453
 2498TIP3    H229054   2.378   2.633   7.323
 2499TIP3   OH229055   6.351   1.051   8.192
 2499TIP3    H129056   6.313   1.047   8.104
 2499TIP3    H229057   6.386   1.140   8.199
 2500TIP3   OH229058   5.374   3.334   1.940
 2500TIP3    H129059   5.463   3.328   1.907
 2500TIP3    H229060   5.381   3.321   2.034
 2501TIP3   OH229061   5.234   4.323   6.636
 2501TIP3    H129062   5.142   4.326   6.611
 2501TIP3    H229063   5.233   4.324   6.732
 2502TIP3   OH229064   5.700   4.437   6.355
 2502TIP3    H129065   5.769   4.490   6.316
 2502TIP3    H229066   5.666   4.384   6.283
 2503TIP3   OH229067   2.076   6.296   1.199
 2503TIP3    H129068   2.094   6.338   1.115
 2503TIP3    H229069   2.162   6.265   1.229
 2504TIP3   OH229070   3.493   3.201   7.996
 2504TIP3    H129071   3.418   3.175   8.049
 2504TIP3    H229072   3.482   3.153   7.913
 2505TIP3   OH229073   3.987   6.079   1.813
 2505TIP3    H129074   3.933   6.000   1.819
 2505TIP3    H229075   4.066   6.050   1.768
 2506TIP3   OH229076   3.790   4.735   7.856
 2506TIP3    H129077   3.778   4.748   7.950
 2506TIP3    H229078   3.861   4.794   7.832
 2507TIP3   OH229079   5.243   3.932   1.193
 2507TIP3    H129080   5.311   3.871   1.165
 2507TIP3    H229081   5.276   3.970   1.274
 2508TIP3   OH229082   0.235   5.620   8.371
 2508TIP3    H129083   0.191   5.664   8.299
 2508TIP3    H229084   0.259   5.690   8.432
 2509TIP3   OH229085   2.673   1.108   8.243
 2509TIP3    H129086   2.717   1.141   8.166
 2509TIP3    H229087   2.588   1.077   8.211
 2510TIP3   OH229088   5.867   0.241   8.196
 2510TIP3    H129089   5.950   0.272   8.232
 2510TIP3    H229090   5.828   0.191   8.267
 2511TIP3   OH229091   5.476   2.048   0.933
 2511TIP3    H129092   5.530   2.071   0.857
 2511TIP3    H229093   5.498   2.114   0.999
 2512TIP3   OH229094   2.222   5.658   0.251
 2512TIP3    H129095   2.254   5.571   0.231
 2512TIP3    H229096   2.291   5.698   0.305
 2513TIP3   OH229097   4.448   3.650   1.932
 2513TIP3    H129098   4.467   3.556   1.924
 2513TIP3    H229099   4.417   3.675   1.846
 2514TIP3   OH229100   1.848   3.414   0.310
 2514TIP3    H129101   1.831   3.435   0.402
 2514TIP3    H229102   1.765   3.377   0.278
 2515TIP3   OH229103   6.635   1.966   8.264
 2515TIP3    H129104   6.662   1.875   8.274
 2515TIP3    H229105   6.714   2.011   8.233
 2516TIP3   OH229106   2.170   6.158   0.271
 2516TIP3    H129107   2.194   6.247   0.246
 2516TIP3    H229108   2.202   6.148   0.361
 2517TIP3   OH229109   5.127   4.256   0.293
 2517TIP3    H129110   5.186   4.242   0.367
 2517TIP3    H229111   5.115   4.168   0.256
 2518TIP3   OH229112   4.601   3.150   2.294
 2518TIP3    H129113   4.520   3.185   2.331
 2518TIP3    H229114   4.573   3.076   2.241
 2519TIP3   OH229115   1.129   0.382   0.324
 2519TIP3    H129116   1.113   0.408   0.415
 2519TIP3    H229117   1.112   0.461   0.273
 2520TIP3   OH229118   5.913   5.659   7.072
 2520TIP3    H129119   5.925   5.677   6.978
 2520TIP3    H229120   5.970   5.584   7.089
 2521TIP3   OH229121   5.722   4.580   2.421
 2521TIP3    H129122   5.676   4.649   2.469
 2521TIP3    H229123   5.736   4.616   2.334
 2522TIP3   OH229124   4.401   1.301   0.889
 2522TIP3    H129125   4.308   1.321   0.901
 2522TIP3    H229126   4.402   1.227   0.828
 2523TIP3   OH229127   0.927   2.522   0.577
 2523TIP3    H129128   0.954   2.502   0.487
 2523TIP3    H229129   0.836   2.550   0.569
 2524TIP3   OH229130   0.617   5.191   1.391
 2524TIP3    H129131   0.661   5.275   1.407
 2524TIP3    H229132   0.672   5.147   1.326
 2525TIP3   OH229133   4.596   0.532   1.548
 2525TIP3    H129134   4.509   0.504   1.518
 2525TIP3    H229135   4.641   0.451   1.570
 2526TIP3   OH229136   2.099   0.243   7.506
 2526TIP3    H129137   2.122   0.178   7.439
 2526TIP3    H229138   2.154   0.318   7.487
 2527TIP3   OH229139   2.086   2.345   0.298
 2527TIP3    H129140   2.172   2.312   0.271
 2527TIP3    H229141   2.077   2.316   0.389
 2528TIP3   OH229142   1.062   1.226   6.274
 2528TIP3    H129143   1.015   1.153   6.315
 2528TIP3    H229144   1.082   1.286   6.347
 2529TIP3   OH229145   3.008   0.725   6.383
 2529TIP3    H129146   3.054   0.736   6.299
 2529TIP3    H229147   3.059   0.777   6.445
 2530TIP3   OH229148   6.796   5.129   0.538
 2530TIP3    H129149   6.797   5.034   0.548
 2530TIP3    H229150   0.029   5.150   0.505
 2531TIP3   OH229151   1.821   1.995   7.936
 2531TIP3    H129152   1.728   1.973   7.937
 2531TIP3    H229153   1.843   2.011   8.027
 2532TIP3   OH229154   1.265   0.656   6.137
 2532TIP3    H129155   1.301   0.745   6.140
 2532TIP3    H229156   1.212   0.649   6.217
 2533TIP3   OH229157   3.323   3.835   7.803
 2533TIP3    H129158   3.286   3.920   7.828
 2533TIP3    H229159   3.264   3.802   7.735
 2534TIP3   OH229160   5.699   5.892   8.555
 2534TIP3    H129161   5.722   5.806   8.590
 2534TIP3    H229162   5.624   5.920   8.607
 2535TIP3   OH229163   4.148   1.037   8.418
 2535TIP3    H129164   4.126   1.130   8.422
 2535TIP3    H229165   4.064   0.992   8.431
 2536TIP3   OH229166   0.960   4.411   7.075
 2536TIP3    H129167   0.885   4.370   7.032
 2536TIP3    H229168   1.014   4.444   7.002
 2537TIP3   OH229169   1.997   2.507   7.958
 2537TIP3    H129170   1.992   2.412   7.941
 2537TIP3    H229171   1.944   2.520   8.036
 2538TIP3   OH229172   3.304   4.685   7.632
 2538TIP3    H129173   3.355   4.608   7.656
 2538TIP3    H229174   3.318   4.696   7.538
 2539TIP3   OH229175   3.313   0.240   6.613
 2539TIP3    H129176   3.366   0.286   6.679
 2539TIP3    H229177   3.247   0.304   6.587
 2540TIP3   OH229178   2.110   2.676   7.740
 2540TIP3    H129179   2.078   2.629   7.817
 2540TIP3    H229180   2.205   2.683   7.754
 2541TIP3   OH229181   2.015   1.825   8.345
 2541TIP3    H129182   1.968   1.893   8.298
 2541TIP3    H229183   1.950   1.785   8.403
 2542TIP3   OH229184   0.192   5.123   8.467
 2542TIP3    H129185   0.144   5.131   8.385
 2542TIP3    H229186   0.247   5.201   8.470
 2543TIP3   OH229187   0.236   1.449   8.275
 2543TIP3    H129188   0.215   1.527   8.326
 2543TIP3    H229189   0.291   1.396   8.333
 2544TIP3   OH229190   5.399   2.383   1.419
 2544TIP3    H129191   5.492   2.395   1.402
 2544TIP3    H229192   5.358   2.463   1.387
 2545TIP3   OH229193   0.630   3.617   7.885
 2545TIP3    H129194   0.602   3.591   7.972
 2545TIP3    H229195   0.589   3.552   7.827
 2546TIP3   OH229196   1.425   6.048   2.107
 2546TIP3    H129197   1.514   6.028   2.077
 2546TIP3    H229198   1.429   6.141   2.132
 2547TIP3   OH229199   1.586   1.942   7.264
 2547TIP3    H129200   1.674   1.973   7.246
 2547TIP3    H229201   1.533   1.977   7.192
 2548TIP3   OH229202   3.837   2.518   7.243
 2548TIP3    H129203   3.861   2.453   7.177
 2548TIP3    H229204   3.876   2.599   7.211
 2549TIP3   OH229205   3.036   1.040   1.355
 2549TIP3    H129206   3.077   1.090   1.426
 2549TIP3    H229207   3.054   0.949   1.377
 2550TIP3   OH229208   5.964   5.978   7.682
 2550TIP3    H129209   5.896   5.915   7.705
 2550TIP3    H229210   6.030   5.970   7.752
 2551TIP3   OH229211   2.342   3.667   1.003
 2551TIP3    H129212   2.389   3.602   1.054
 2551TIP3    H229213   2.269   3.694   1.059
 2552TIP3   OH229214   3.045   3.464   7.312
 2552TIP3    H129215   3.126   3.512   7.331
 2552TIP3    H229216   3.072   3.372   7.309
 2553TIP3   OH229217   0.834   3.666   1.083
 2553TIP3    H129218   0.790   3.714   1.012
 2553TIP3    H229219   0.781   3.587   1.095
 2554TIP3   OH229220   1.554   4.239   8.360
 2554TIP3    H129221   1.612   4.304   8.322
 2554TIP3    H229222   1.577   4.238   8.453
 2555TIP3   OH229223   0.550   1.105   0.980
 2555TIP3    H129224   0.532   1.173   0.915
 2555TIP3    H229225   0.561   1.154   1.062
 2556TIP3   OH229226   6.021   6.630   0.263
 2556TIP3    H129227   6.020   6.548   0.313
 2556TIP3    H229228   6.008   6.698   0.329
 2557TIP3   OH229229   4.060   0.669   0.352
 2557TIP3    H129230   4.001   0.629   0.415
 2557TIP3    H229231   4.147   0.660   0.390
 2558TIP3   OH229232   6.625   0.555   1.204
 2558TIP3    H129233   6.551   0.497   1.221
 2558TIP3    H229234   6.614   0.582   1.112
 2559TIP3   OH229235   6.276   5.763   8.059
 2559TIP3    H129236   6.332   5.778   8.136
 2559TIP3    H229237   6.318   5.691   8.013
 2560TIP3   OH229238   4.745   3.709   6.975
 2560TIP3    H129239   4.822   3.675   6.930
 2560TIP3    H229240   4.690   3.744   6.906
 2561TIP3   OH229241   2.601   0.737   0.356
 2561TIP3    H129242   2.512   0.717   0.327
 2561TIP3    H229243   2.652   0.659   0.332
 2562TIP3   OH229244   4.879   5.417   7.354
 2562TIP3    H129245   4.824   5.445   7.281
 2562TIP3    H229246   4.869   5.322   7.355
 2563TIP3   OH229247   1.811   6.850   7.685
 2563TIP3    H129248   1.844   6.790   7.752
 2563TIP3    H229249   1.847   6.816   7.603
 2564TIP3   OH229250   1.750   2.193   2.523
 2564TIP3    H129251   1.705   2.264   2.476
 2564TIP3    H229252   1.827   2.175   2.470
 2565TIP3   OH229253   1.253   0.286   1.687
 2565TIP3    H129254   1.284   0.312   1.600
 2565TIP3    H229255   1.158   0.300   1.683
 2566TIP3   OH229256   1.960   1.274   0.282
 2566TIP3    H129257   2.048   1.308   0.299
 2566TIP3    H229258   1.936   1.309   0.196
 2567TIP3   OH229259   6.050   1.192   6.437
 2567TIP3    H129260   6.059   1.127   6.368
 2567TIP3    H229261   6.021   1.142   6.513
 2568TIP3   OH229262   1.568   6.034   0.325
 2568TIP3    H129263   1.544   6.113   0.276
 2568TIP3    H229264   1.500   5.971   0.304
 2569TIP3   OH229265   1.170   1.990   8.386
 2569TIP3    H129266   1.145   2.027   8.470
 2569TIP3    H229267   1.209   2.063   8.338
 2570TIP3   OH229268   6.750   6.349   1.694
 2570TIP3    H129269   6.764   6.272   1.748
 2570TIP3    H229270   6.785   6.326   1.608
 2571TIP3   OH229271   0.987   4.173   1.480
 2571TIP3    H129272   0.989   4.079   1.494
 2571TIP3    H229273   1.025   4.185   1.393
 2572TIP3   OH229274   4.685   2.083   2.014
 2572TIP3    H129275   4.646   2.077   1.927
 2572TIP3    H229276   4.745   2.158   2.008
 2573TIP3   OH229277   0.611   6.577   7.729
 2573TIP3    H129278   0.666   6.504   7.759
 2573TIP3    H229279   0.660   6.656   7.753
 2574TIP3   OH229280   6.503   2.663   0.094
 2574TIP3    H129281   6.464   2.717   0.162
 2574TIP3    H229282   6.593   2.696   0.085
 2575TIP3   OH229283   1.137   3.847   1.123
 2575TIP3    H129284   1.141   3.764   1.075
 2575TIP3    H229285   1.047   3.877   1.111
 2576TIP3   OH229286   6.825   0.281   1.812
 2576TIP3    H129287   6.792   0.260   1.724
 2576TIP3    H229288   6.844   0.375   1.808
 2577TIP3   OH229289   3.304   6.714   0.605
 2577TIP3    H129290   3.209   6.721   0.617
 2577TIP3    H229291   3.329   6.638   0.657
 2578TIP3   OH229292   2.668   0.502   7.056
 2578TIP3    H129293   2.706   0.506   6.969
 2578TIP3    H229294   2.736   0.537   7.114
 2579TIP3   OH229295   1.135   6.048   6.897
 2579TIP3    H129296   1.124   6.143   6.907
 2579TIP3    H229297   1.046   6.015   6.886
 2580TIP3   OH229298   1.437   3.833   1.026
 2580TIP3    H129299   1.342   3.822   1.022
 2580TIP3    H229300   1.468   3.803   0.941
 2581TIP3   OH229301   5.514   2.930   8.336
 2581TIP3    H129302   5.513   2.929   8.240
 2581TIP3    H229303   5.564   2.853   8.360
 2582TIP3   OH229304   3.904   2.393   8.677
 2582TIP3    H129305   3.855   2.458   8.627
 2582TIP3    H229306   3.976   2.367   8.619
 2583TIP3   OH229307   5.590   2.264   1.064
 2583TIP3    H129308   5.674   2.232   1.096
 2583TIP3    H229309   5.583   2.353   1.099
 2584TIP3   OH229310   2.725   1.750   7.025
 2584TIP3    H129311   2.659   1.809   7.060
 2584TIP3    H229312   2.803   1.804   7.013
 2585TIP3   OH229313   2.050   2.443   1.323
 2585TIP3    H129314   1.992   2.498   1.270
 2585TIP3    H229315   2.092   2.503   1.384
 2586TIP3   OH229316   5.318   2.563   7.761
 2586TIP3    H129317   5.374   2.638   7.782
 2586TIP3    H229318   5.366   2.487   7.795
 2587TIP3   OH229319   1.358   5.969   8.528
 2587TIP3    H129320   1.412   5.894   8.501
 2587TIP3    H229321   1.268   5.935   8.525
 2588TIP3   OH229322   4.874   5.186   8.719
 2588TIP3    H129323   4.908   5.275   0.008
 2588TIP3    H229324   4.823   5.167   0.071
 2589TIP3   OH229325   1.324   3.928   1.927
 2589TIP3    H129326   1.407   3.959   1.963
 2589TIP3    H229327   1.310   3.843   1.968
 2590TIP3   OH229328   1.012   5.892   0.293
 2590TIP3    H129329   1.059   5.921   0.215
 2590TIP3    H229330   1.040   5.952   0.362
 2591TIP3   OH229331   1.469   6.200   1.597
 2591TIP3    H129332   1.555   6.158   1.591
 2591TIP3    H229333   1.453   6.208   1.691
 2592TIP3   OH229334   0.058   3.699   0.049
 2592TIP3    H129335   0.075   3.759   8.702
 2592TIP3    H229336   6.834   3.651   0.024
 2593TIP3   OH229337   0.178   3.103   1.003
 2593TIP3    H129338   0.239   3.046   1.051
 2593TIP3    H229339   0.092   3.080   1.038
 2594TIP3   OH229340   0.328   0.308   0.497
 2594TIP3    H129341   0.293   0.274   0.415
 2594TIP3    H229342   0.285   0.255   0.565
 2595TIP3   OH229343   4.998   4.765   0.217
 2595TIP3    H129344   5.026   4.810   0.137
 2595TIP3    H229345   5.049   4.684   0.218
 2596TIP3   OH229346   1.210   0.759   6.911
 2596TIP3    H129347   1.275   0.690   6.905
 2596TIP3    H229348   1.216   0.790   7.002
 2597TIP3   OH229349   0.365   5.629   2.369
 2597TIP3    H129350   0.308   5.553   2.377
 2597TIP3    H229351   0.432   5.617   2.437
 2598TIP3   OH229352   5.954   1.172   1.059
 2598TIP3    H129353   5.999   1.134   1.134
 2598TIP3    H229354   6.012   1.157   0.985
 2599TIP3   OH229355   2.698   2.672   8.379
 2599TIP3    H129356   2.637   2.609   8.417
 2599TIP3    H229357   2.653   2.705   8.302
 2600TIP3   OH229358   3.032   6.765   5.940
 2600TIP3    H129359   2.955   6.802   5.984
 2600TIP3    H229360   3.071   6.840   5.894
 2601TIP3   OH229361   2.341   6.093   0.473
 2601TIP3    H129362   2.388   6.166   0.513
 2601TIP3    H229363   2.405   6.022   0.468
 2602TIP3   OH229364   5.693   5.836   1.285
 2602TIP3    H129365   5.770   5.840   1.341
 2602TIP3    H229366   5.662   5.746   1.292
 2603TIP3   OH229367   0.520   3.571   1.924
 2603TIP3    H129368   0.493   3.564   2.016
 2603TIP3    H229369   0.546   3.483   1.900
 2604TIP3   OH229370   3.666   5.215   7.883
 2604TIP3    H129371   3.601   5.246   7.819
 2604TIP3    H229372   3.749   5.215   7.834
 2605TIP3   OH229373   6.406   6.727   0.923
 2605TIP3    H129374   6.334   6.672   0.956
 2605TIP3    H229375   6.382   6.745   0.832
 2606TIP3   OH229376   4.414   0.596   6.997
 2606TIP3    H129377   4.403   0.562   6.909
 2606TIP3    H229378   4.412   0.518   7.054
 2607TIP3   OH229379   3.561   2.000   7.457
 2607TIP3    H129380   3.585   2.001   7.364
 2607TIP3    H229381   3.508   2.079   7.468
 2608TIP3   OH229382   5.135   3.955   7.704
 2608TIP3    H129383   5.121   4.021   7.637
 2608TIP3    H229384   5.050   3.911   7.714
 2609TIP3   OH229385   2.530   2.464   8.447
 2609TIP3    H129386   2.516   2.377   8.483
 2609TIP3    H229387   2.449   2.512   8.469
 2610TIP3   OH229388   3.771   5.652   7.522
 2610TIP3    H129389   3.758   5.737   7.479
 2610TIP3    H229390   3.848   5.615   7.480
 2611TIP3   OH229391   3.660   6.465   0.499
 2611TIP3    H129392   3.584   6.408   0.514
 2611TIP3    H229393   3.736   6.408   0.511
 2612TIP3   OH229394   4.476   5.699   0.387
 2612TIP3    H129395   4.437   5.701   0.474
 2612TIP3    H229396   4.571   5.700   0.402
 2613TIP3   OH229397   0.942   2.253   7.001
 2613TIP3    H129398   0.892   2.196   7.059
 2613TIP3    H229399   0.907   2.236   6.913
 2614TIP3   OH229400   5.057   5.245   1.724
 2614TIP3    H129401   5.013   5.308   1.780
 2614TIP3    H229402   4.986   5.204   1.674
 2615TIP3   OH229403   4.366   2.407   8.506
 2615TIP3    H129404   4.348   2.314   8.521
 2615TIP3    H229405   4.462   2.412   8.504
 2616TIP3   OH229406   5.994   3.147   0.679
 2616TIP3    H129407   5.941   3.223   0.704
 2616TIP3    H229408   5.939   3.072   0.698
 2617TIP3   OH229409   2.594   4.164   1.643
 2617TIP3    H129410   2.634   4.174   1.557
 2617TIP3    H229411   2.612   4.247   1.687
 2618TIP3   OH229412   4.344   5.012   7.936
 2618TIP3    H129413   4.317   4.979   7.851
 2618TIP3    H229414   4.329   5.106   7.931
 2619TIP3   OH229415   1.979   3.296   0.116
 2619TIP3    H129416   1.892   3.300   0.077
 2619TIP3    H229417   1.970   3.340   0.200
 2620TIP3   OH229418   4.321   5.199   2.156
 2620TIP3    H129419   4.285   5.112   2.175
 2620TIP3    H229420   4.246   5.250   2.127
 2621TIP3   OH229421   3.038   0.005   7.567
 2621TIP3    H129422   2.992   6.797   7.622
 2621TIP3    H229423   3.009   6.840   7.478
 2622TIP3   OH229424   5.227   3.689   7.599
 2622TIP3    H129425   5.144   3.641   7.586
 2622TIP3    H229426   5.214   3.772   7.555
 2623TIP3   OH229427   4.407   5.194   0.394
 2623TIP3    H129428   4.469   5.259   0.362
 2623TIP3    H229429   4.361   5.165   0.316
 2624TIP3   OH229430   2.238   5.876   2.026
 2624TIP3    H129431   2.244   5.903   2.117
 2624TIP3    H229432   2.183   5.798   2.027
 2625TIP3   OH229433   6.331   0.207   8.083
 2625TIP3    H129434   6.358   0.177   7.996
 2625TIP3    H229435   6.279   0.135   8.118
 2626TIP3   OH229436   5.639   4.970   1.545
 2626TIP3    H129437   5.559   4.928   1.578
 2626TIP3    H229438   5.661   5.034   1.613
 2627TIP3   OH229439   3.200   0.525   2.119
 2627TIP3    H129440   3.190   0.452   2.058
 2627TIP3    H229441   3.279   0.571   2.089
 2628TIP3   OH229442   6.603   5.171   7.927
 2628TIP3    H129443   6.564   5.258   7.929
 2628TIP3    H229444   6.546   5.120   7.869
 2629TIP3   OH229445   0.429   1.038   0.526
 2629TIP3    H129446   0.424   1.021   0.620
 2629TIP3    H229447   0.374   0.971   0.486
 2630TIP3   OH229448   5.655   3.996   0.520
 2630TIP3    H129449   5.687   3.906   0.512
 2630TIP3    H229450   5.576   3.999   0.465
 2631TIP3   OH229451   4.861   6.716   0.160
 2631TIP3    H129452   4.845   6.770   0.083
 2631TIP3    H229453   4.954   6.695   0.156
 2632TIP3   OH229454   1.913   6.313   1.423
 2632TIP3    H129455   1.956   6.284   1.342
 2632TIP3    H229456   1.921   6.237   1.482
 2633TIP3   OH229457   2.185   4.467   0.822
 2633TIP3    H129458   2.222   4.406   0.759
 2633TIP3    H229459   2.114   4.419   0.864
 2634TIP3   OH229460   4.840   6.403   7.956
 2634TIP3    H129461   4.753   6.423   7.923
 2634TIP3    H229462   4.875   6.339   7.894
 2635TIP3   OH229463   5.464   6.439   1.979
 2635TIP3    H129464   5.467   6.406   2.068
 2635TIP3    H229465   5.374   6.472   1.969
 2636TIP3   OH229466   3.184   0.281   0.197
 2636TIP3    H129467   3.199   0.365   0.155
 2636TIP3    H229468   3.258   0.226   0.169
 2637TIP3   OH229469   5.435   6.496   7.210
 2637TIP3    H129470   5.357   6.448   7.240
 2637TIP3    H229471   5.451   6.462   7.122
 2638TIP3   OH229472   4.706   4.499   1.133
 2638TIP3    H129473   4.699   4.474   1.225
 2638TIP3    H229474   4.690   4.594   1.133
 2639TIP3   OH229475   4.341   6.163   6.630
 2639TIP3    H129476   4.265   6.149   6.686
 2639TIP3    H229477   4.365   6.076   6.599
 2640TIP3   OH229478   3.417   4.453   8.182
 2640TIP3    H129479   3.467   4.381   8.144
 2640TIP3    H229480   3.363   4.486   8.110
 2641TIP3   OH229481   2.541   3.614   7.573
 2641TIP3    H129482   2.472   3.657   7.521
 2641TIP3    H229483   2.512   3.524   7.581
 2642TIP3   OH229484   1.208   3.249   8.249
 2642TIP3    H129485   1.278   3.313   8.264
 2642TIP3    H229486   1.248   3.165   8.268
 2643TIP3   OH229487   1.878   5.019   7.078
 2643TIP3    H129488   1.796   4.985   7.115
 2643TIP3    H229489   1.938   4.945   7.079
 2644TIP3   OH229490   5.701   0.825   1.815
 2644TIP3    H129491   5.616   0.824   1.772
 2644TIP3    H229492   5.682   0.803   1.906
 2645TIP3   OH229493   2.336   0.685   6.917
 2645TIP3    H129494   2.273   0.638   6.972
 2645TIP3    H229495   2.336   0.638   6.834
 2646TIP3   OH229496   5.906   6.816   0.443
 2646TIP3    H129497   5.955   0.040   0.466
 2646TIP3    H229498   5.837   6.848   0.384
 2647TIP3   OH229499   1.511   2.883   0.789
 2647TIP3    H129500   1.498   2.794   0.821
 2647TIP3    H229501   1.572   2.873   0.716
 2648TIP3   OH229502   0.460   3.273   8.581
 2648TIP3    H129503   0.385   3.291   8.525
 2648TIP3    H229504   0.473   3.354   8.630
 2649TIP3   OH229505   3.193   3.659   7.648
 2649TIP3    H129506   3.159   3.604   7.719
 2649TIP3    H229507   3.280   3.622   7.630
 2650TIP3   OH229508   6.256   1.472   7.410
 2650TIP3    H129509   6.286   1.503   7.495
 2650TIP3    H229510   6.287   1.539   7.348
 2651TIP3   OH229511   2.001   2.301   1.877
 2651TIP3    H129512   1.949   2.223   1.862
 2651TIP3    H229513   2.005   2.310   1.972
 2652TIP3   OH229514   3.132   4.018   7.902
 2652TIP3    H129515   3.051   3.982   7.937
 2652TIP3    H229516   3.118   4.113   7.901
 2653TIP3   OH229517   6.371   5.272   8.601
 2653TIP3    H129518   6.318   5.215   8.545
 2653TIP3    H229519   6.311   5.343   8.627
 2654TIP3   OH229520   5.178   6.254   2.136
 2654TIP3    H129521   5.246   6.304   2.181
 2654TIP3    H229522   5.132   6.207   2.206
 2655TIP3   OH229523   3.069   0.478   8.230
 2655TIP3    H129524   3.133   0.546   8.214
 2655TIP3    H229525   2.986   0.514   8.196
 2656TIP3   OH229526   1.358   1.624   0.154
 2656TIP3    H129527   1.383   1.678   0.229
 2656TIP3    H229528   1.340   1.687   0.084
 2657TIP3   OH229529   6.752   3.554   1.041
 2657TIP3    H129530   6.846   3.572   1.044
 2657TIP3    H229531   6.716   3.626   0.989
 2658TIP3   OH229532   4.969   4.334   6.538
 2658TIP3    H129533   4.905   4.266   6.516
 2658TIP3    H229534   4.917   4.413   6.553
 2659TIP3   OH229535   4.117   4.335   6.818
 2659TIP3    H129536   4.132   4.257   6.763
 2659TIP3    H229537   4.197   4.386   6.808
 2660TIP3   OH229538   5.059   3.180   7.866
 2660TIP3    H129539   5.064   3.089   7.836
 2660TIP3    H229540   5.124   3.226   7.813
 2661TIP3   OH229541   6.487   2.367   0.201
 2661TIP3    H129542   6.542   2.421   0.144
 2661TIP3    H229543   6.425   2.325   0.142
 2662TIP3   OH229544   6.238   3.443   8.399
 2662TIP3    H129545   6.313   3.408   8.350
 2662TIP3    H229546   6.276   3.477   8.480
 2663TIP3   OH229547   5.518   1.910   0.392
 2663TIP3    H129548   5.614   1.906   0.390
 2663TIP3    H229549   5.498   2.002   0.409
 2664TIP3   OH229550   6.436   6.105   8.658
 2664TIP3    H129551   6.409   6.014   8.647
 2664TIP3    H229552   6.472   6.130   8.573
 2665TIP3   OH229553   5.131   4.298   1.200
 2665TIP3    H129554   5.197   4.243   1.157
 2665TIP3    H229555   5.051   4.284   1.149
 2666TIP3   OH229556   4.688   1.049   7.474
 2666TIP3    H129557   4.657   0.968   7.435
 2666TIP3    H229558   4.661   1.044   7.565
 2667TIP3   OH229559   5.622   2.341   0.489
 2667TIP3    H129560   5.697   2.395   0.514
 2667TIP3    H229561   5.627   2.265   0.546
 2668TIP3   OH229562   4.563   0.512   8.157
 2668TIP3    H129563   4.647   0.554   8.174
 2668TIP3    H229564   4.501   0.585   8.148
 2669TIP3   OH229565   1.426   3.403   8.274
 2669TIP3    H129566   1.433   3.493   8.305
 2669TIP3    H229567   1.457   3.407   8.183
 2670TIP3   OH229568   0.706   6.821   1.303
 2670TIP3    H129569   0.793   6.793   1.331
 2670TIP3    H229570   0.701   0.059   1.326
 2671TIP3   OH229571   4.887   2.228   7.560
 2671TIP3    H129572   4.825   2.286   7.516
 2671TIP3    H229573   4.912   2.165   7.493
 2672TIP3   OH229574   4.078   3.828   1.963
 2672TIP3    H129575   4.073   3.767   2.037
 2672TIP3    H229576   3.993   3.873   1.964
 2673TIP3   OH229577   3.363   5.456   6.917
 2673TIP3    H129578   3.427   5.521   6.947
 2673TIP3    H229579   3.300   5.508   6.866
 2674TIP3   OH229580   3.384   4.109   0.422
 2674TIP3    H129581   3.325   4.183   0.433
 2674TIP3    H229582   3.325   4.034   0.408
 2675TIP3   OH229583   1.364   1.274   7.263
 2675TIP3    H129584   1.429   1.226   7.314
 2675TIP3    H229585   1.288   1.217   7.261
 2676TIP3   OH229586   6.377   3.089   0.360
 2676TIP3    H129587   6.294   3.135   0.376
 2676TIP3    H229588   6.444   3.156   0.372
 2677TIP3   OH229589   5.280   4.294   1.592
 2677TIP3    H129590   5.233   4.353   1.533
 2677TIP3    H229591   5.227   4.214   1.594
 2678TIP3   OH229592   1.156   4.632   8.239
 2678TIP3    H129593   1.204   4.551   8.223
 2678TIP3    H229594   1.064   4.606   8.244
 2679TIP3   OH229595   6.096   4.920   7.108
 2679TIP3    H129596   6.076   4.949   7.019
 2679TIP3    H229597   6.060   4.989   7.163
 2680TIP3   OH229598   6.676   5.211   2.400
 2680TIP3    H129599   6.649   5.303   2.392
 2680TIP3    H229600   6.768   5.211   2.376
 2681TIP3   OH229601   2.482   4.091   0.161
 2681TIP3    H129602   2.530   4.157   0.212
 2681TIP3    H229603   2.423   4.050   0.225
 2682TIP3   OH229604   4.193   2.647   7.301
 2682TIP3    H129605   4.274   2.678   7.342
 2682TIP3    H229606   4.142   2.610   7.373
 2683TIP3   OH229607   3.729   1.179   0.298
 2683TIP3    H129608   3.656   1.176   0.236
 2683TIP3    H229609   3.797   1.126   0.259
 2684TIP3   OH229610   2.350   6.018   7.303
 2684TIP3    H129611   2.319   5.969   7.380
 2684TIP3    H229612   2.445   6.012   7.307
 2685TIP3   OH229613   4.301   4.403   0.313
 2685TIP3    H129614   4.284   4.350   0.390
 2685TIP3    H229615   4.226   4.386   0.256
 2686TIP3   OH229616   2.052   2.437   1.654
 2686TIP3    H129617   2.014   2.368   1.599
 2686TIP3    H229618   2.051   2.401   1.743
 2687TIP3   OH229619   4.906   5.481   7.624
 2687TIP3    H129620   4.816   5.504   7.647
 2687TIP3    H229621   4.904   5.462   7.530
 2688TIP3   OH229622   6.763   2.006   1.681
 2688TIP3    H129623   6.749   2.030   1.590
 2688TIP3    H229624   6.679   1.969   1.710
 2689TIP3   OH229625   2.134   0.078   1.162
 2689TIP3    H129626   2.159   6.852   1.207
 2689TIP3    H229627   2.149   0.059   1.069
 2690TIP3   OH229628   4.198   4.362   1.522
 2690TIP3    H129629   4.262   4.430   1.541
 2690TIP3    H229630   4.183   4.319   1.606
 2691TIP3   OH229631   1.895   5.251   8.183
 2691TIP3    H129632   1.946   5.231   8.105
 2691TIP3    H229633   1.861   5.339   8.169
 2692TIP3   OH229634   3.227   3.807   8.587
 2692TIP3    H129635   3.232   3.867   8.662
 2692TIP3    H229636   3.287   3.844   8.523
 2693TIP3   OH229637   0.981   0.312   6.424
 2693TIP3    H129638   0.912   0.369   6.390
 2693TIP3    H229639   1.010   0.262   6.348
 2694TIP3   OH229640   3.360   4.322   1.460
 2694TIP3    H129641   3.327   4.411   1.444
 2694TIP3    H229642   3.281   4.268   1.463
 2695TIP3   OH229643   5.804   0.808   0.109
 2695TIP3    H129644   5.774   0.872   0.175
 2695TIP3    H229645   5.859   0.859   0.050
 2696TIP3   OH229646   1.002   5.765   1.905
 2696TIP3    H129647   0.962   5.695   1.854
 2696TIP3    H229648   1.024   5.723   1.989
 2697TIP3   OH229649   4.648   3.743   1.591
 2697TIP3    H129650   4.560   3.772   1.613
 2697TIP3    H229651   4.685   3.816   1.541
 2698TIP3   OH229652   4.657   2.526   0.192
 2698TIP3    H129653   4.641   2.607   0.144
 2698TIP3    H229654   4.629   2.457   0.132
 2699TIP3   OH229655   2.576   1.556   7.136
 2699TIP3    H129656   2.631   1.614   7.083
 2699TIP3    H229657   2.635   1.523   7.204
 2700TIP3   OH229658   0.322   4.795   7.830
 2700TIP3    H129659   0.314   4.889   7.817
 2700TIP3    H229660   0.396   4.769   7.776
 2701TIP3   OH229661   1.826   5.256   1.679
 2701TIP3    H129662   1.911   5.225   1.712
 2701TIP3    H229663   1.848   5.304   1.599
 2702TIP3   OH229664   2.120   0.906   1.705
 2702TIP3    H129665   2.094   0.833   1.760
 2702TIP3    H229666   2.214   0.896   1.693
 2703TIP3   OH229667   0.734   3.853   1.610
 2703TIP3    H129668   0.746   3.928   1.668
 2703TIP3    H229669   0.764   3.884   1.524
 2704TIP3   OH229670   4.879   4.644   0.834
 2704TIP3    H129671   4.794   4.608   0.859
 2704TIP3    H229672   4.867   4.739   0.839
 2705TIP3   OH229673   4.027   0.977   7.179
 2705TIP3    H129674   3.977   1.014   7.107
 2705TIP3    H229675   3.961   0.953   7.244
 2706TIP3   OH229676   5.811   2.067   1.703
 2706TIP3    H129677   5.730   2.116   1.684
 2706TIP3    H229678   5.795   1.981   1.665
 2707TIP3   OH229679   6.626   6.515   8.664
 2707TIP3    H129680   6.669   6.431   8.679
 2707TIP3    H229681   6.601   6.514   8.572
 2708TIP3   OH229682   1.596   1.492   0.995
 2708TIP3    H129683   1.677   1.441   0.999
 2708TIP3    H229684   1.570   1.489   0.903
 2709TIP3   OH229685   2.975   1.089   0.581
 2709TIP3    H129686   2.934   1.048   0.657
 2709TIP3    H229687   3.005   1.174   0.613
 2710TIP3   OH229688   5.440   4.124   7.639
 2710TIP3    H129689   5.401   4.054   7.586
 2710TIP3    H229690   5.368   4.157   7.692
 2711TIP3   OH229691   2.753   1.210   8.604
 2711TIP3    H129692   2.713   1.282   8.554
 2711TIP3    H229693   2.820   1.253   8.657
 2712TIP3   OH229694   2.184   4.856   8.437
 2712TIP3    H129695   2.193   4.769   8.476
 2712TIP3    H229696   2.219   4.846   8.348
 2713TIP3   OH229697   4.051   1.349   0.056
 2713TIP3    H129698   4.006   1.421   0.102
 2713TIP3    H229699   4.138   1.385   0.036
 2714TIP3   OH229700   6.280   1.195   0.349
 2714TIP3    H129701   6.191   1.169   0.372
 2714TIP3    H229702   6.301   1.265   0.411
 2715TIP3   OH229703   3.332   5.718   1.506
 2715TIP3    H129704   3.372   5.670   1.434
 2715TIP3    H229705   3.284   5.652   1.556
 2716TIP3   OH229706   6.612   1.394   0.384
 2716TIP3    H129707   6.676   1.398   0.313
 2716TIP3    H229708   6.664   1.392   0.464
 2717TIP3   OH229709   1.017   2.193   0.509
 2717TIP3    H129710   0.930   2.176   0.544
 2717TIP3    H229711   1.046   2.108   0.475
 2718TIP3   OH229712   5.400   4.480   1.037
 2718TIP3    H129713   5.448   4.417   1.091
 2718TIP3    H229714   5.458   4.556   1.033
 2719TIP3   OH229715   0.453   6.232   6.822
 2719TIP3    H129716   0.456   6.251   6.916
 2719TIP3    H229717   0.501   6.150   6.813
 2720TIP3   OH229718   4.134   5.083   1.738
 2720TIP3    H129719   4.229   5.072   1.731
 2720TIP3    H229720   4.107   5.017   1.801
 2721TIP3   OH229721   2.931   3.326   1.135
 2721TIP3    H129722   2.958   3.260   1.071
 2721TIP3    H229723   3.013   3.364   1.167
 2722TIP3   OH229724   4.885   0.161   6.888
 2722TIP3    H129725   4.954   0.168   6.822
 2722TIP3    H229726   4.841   0.246   6.886
 2723TIP3   OH229727   1.948   0.554   0.823
 2723TIP3    H129728   1.992   0.574   0.740
 2723TIP3    H229729   1.958   0.633   0.875
 2724TIP3   OH229730   3.927   5.122   1.320
 2724TIP3    H129731   3.952   5.213   1.307
 2724TIP3    H229732   3.917   5.112   1.414
 2725TIP3   OH229733   4.733   5.519   1.663
 2725TIP3    H129734   4.768   5.460   1.729
 2725TIP3    H229735   4.641   5.529   1.685
 2726TIP3   OH229736   2.539   2.244   8.610
 2726TIP3    H129737   2.534   2.150   8.590
 2726TIP3    H229738   2.589   2.248   8.692
 2727TIP3   OH229739   2.713   5.342   1.368
 2727TIP3    H129740   2.649   5.403   1.331
 2727TIP3    H229741   2.696   5.260   1.323
 2728TIP3   OH229742   1.312   2.197   8.283
 2728TIP3    H129743   1.266   2.238   8.209
 2728TIP3    H229744   1.390   2.251   8.296
 2729TIP3   OH229745   4.296   4.999   1.385
 2729TIP3    H129746   4.253   4.996   1.299
 2729TIP3    H229747   4.306   4.907   1.410
 2730TIP3   OH229748   2.643   1.798   8.064
 2730TIP3    H129749   2.637   1.703   8.053
 2730TIP3    H229750   2.554   1.829   8.047
 2731TIP3   OH229751   6.598   2.462   1.351
 2731TIP3    H129752   6.544   2.413   1.413
 2731TIP3    H229753   6.670   2.495   1.403
 2732TIP3   OH229754   2.308   2.797   8.393
 2732TIP3    H129755   2.355   2.799   8.310
 2732TIP3    H229756   2.277   2.887   8.404
 2733TIP3   OH229757   6.274   6.663   1.311
 2733TIP3    H129758   6.194   6.716   1.304
 2733TIP3    H229759   6.275   6.610   1.232
 2734TIP3   OH229760   1.535   5.857   6.235
 2734TIP3    H129761   1.479   5.859   6.312
 2734TIP3    H229762   1.541   5.765   6.211
 2735TIP3   OH229763   0.098   4.827   6.742
 2735TIP3    H129764   0.029   4.784   6.692
 2735TIP3    H229765   0.175   4.770   6.730
 2736TIP3   OH229766   4.025   2.082   1.542
 2736TIP3    H129767   4.104   2.136   1.551
 2736TIP3    H229768   3.999   2.093   1.451
 2737TIP3   OH229769   6.155   4.085   7.348
 2737TIP3    H129770   6.089   4.109   7.283
 2737TIP3    H229771   6.224   4.041   7.297
 2738TIP3   OH229772   4.133   2.262   0.908
 2738TIP3    H129773   4.223   2.244   0.881
 2738TIP3    H229774   4.115   2.197   0.976
 2739TIP3   OH229775   6.160   5.613   2.411
 2739TIP3    H129776   6.170   5.692   2.464
 2739TIP3    H229777   6.089   5.564   2.452
 2740TIP3   OH229778   5.234   4.567   7.752
 2740TIP3    H129779   5.329   4.560   7.743
 2740TIP3    H229780   5.220   4.601   7.841
 2741TIP3   OH229781   4.426   4.859   2.292
 2741TIP3    H129782   4.521   4.867   2.296
 2741TIP3    H229783   4.411   4.766   2.273
 2742TIP3   OH229784   4.184   6.249   7.990
 2742TIP3    H129785   4.094   6.281   7.992
 2742TIP3    H229786   4.198   6.213   8.078
 2743TIP3   OH229787   6.169   3.825   0.351
 2743TIP3    H129788   6.211   3.889   0.294
 2743TIP3    H229789   6.193   3.741   0.314
 2744TIP3   OH229790   5.621   0.065   7.364
 2744TIP3    H129791   5.697   0.122   7.380
 2744TIP3    H229792   5.550   0.125   7.343
 2745TIP3   OH229793   0.721   4.045   0.060
 2745TIP3    H129794   0.730   4.095   0.141
 2745TIP3    H229795   0.644   3.989   0.074
 2746TIP3   OH229796   2.097   1.637   7.814
 2746TIP3    H129797   2.037   1.635   7.740
 2746TIP3    H229798   2.066   1.709   7.869
 2747TIP3   OH229799   0.178   2.835   6.848
 2747TIP3    H129800   0.154   2.833   6.940
 2747TIP3    H229801   0.139   2.915   6.814
 2748TIP3   OH229802   0.974   4.405   7.778
 2748TIP3    H129803   0.883   4.433   7.772
 2748TIP3    H229804   1.014   4.467   7.839
 2749TIP3   OH229805   0.784   2.141   6.807
 2749TIP3    H129806   0.774   2.160   6.713
 2749TIP3    H229807   0.722   2.201   6.850
 2750TIP3   OH229808   1.787   5.507   8.115
 2750TIP3    H129809   1.751   5.524   8.028
 2750TIP3    H229810   1.821   5.592   8.144
 2751TIP3   OH229811   4.969   4.163   7.975
 2751TIP3    H129812   4.952   4.236   8.034
 2751TIP3    H229813   4.906   4.174   7.904
 2752TIP3   OH229814   4.281   5.365   0.563
 2752TIP3    H129815   4.288   5.311   0.484
 2752TIP3    H229816   4.216   5.321   0.617
 2753TIP3   OH229817   3.902   5.537   0.659
 2753TIP3    H129818   3.933   5.576   0.578
 2753TIP3    H229819   3.865   5.610   0.709
 2754TIP3   OH229820   6.502   4.258   7.529
 2754TIP3    H129821   6.542   4.173   7.512
 2754TIP3    H229822   6.571   4.321   7.510
 2755TIP3   OH229823   0.468   1.180   1.497
 2755TIP3    H129824   0.476   1.087   1.476
 2755TIP3    H229825   0.380   1.203   1.467
 2756TIP3   OH229826   4.931   5.101   8.359
 2756TIP3    H129827   4.964   5.064   8.441
 2756TIP3    H229828   4.944   5.032   8.294
 2757TIP3   OH229829   3.581   0.108   1.503
 2757TIP3    H129830   3.588   0.032   1.561
 2757TIP3    H229831   3.669   0.119   1.467
 2758TIP3   OH229832   6.817   0.423   0.654
 2758TIP3    H129833   6.843   0.486   0.721
 2758TIP3    H229834   6.814   0.339   0.700
 2759TIP3   OH229835   5.644   1.257   0.183
 2759TIP3    H129836   5.550   1.265   0.199
 2759TIP3    H229837   5.657   1.297   0.097
 2760TIP3   OH229838   0.791   6.307   1.050
 2760TIP3    H129839   0.846   6.359   0.990
 2760TIP3    H229840   0.764   6.369   1.118
 2761TIP3   OH229841   0.388   4.354   8.478
 2761TIP3    H129842   0.420   4.347   8.388
 2761TIP3    H229843   0.465   4.340   8.533
 2762TIP3   OH229844   2.257   6.610   8.484
 2762TIP3    H129845   2.308   6.626   8.404
 2762TIP3    H229846   2.166   6.607   8.454
 2763TIP3   OH229847   2.566   4.932   7.430
 2763TIP3    H129848   2.630   4.907   7.497
 2763TIP3    H229849   2.596   5.018   7.400
 2764TIP3   OH229850   4.352   4.727   7.584
 2764TIP3    H129851   4.306   4.660   7.534
 2764TIP3    H229852   4.439   4.730   7.545
 2765TIP3   OH229853   5.665   5.265   1.668
 2765TIP3    H129854   5.664   5.278   1.763
 2765TIP3    H229855   5.731   5.326   1.635
 2766TIP3   OH229856   5.902   3.562   7.991
 2766TIP3    H129857   5.956   3.520   8.058
 2766TIP3    H229858   5.817   3.519   7.997
 2767TIP3   OH229859   0.850   5.912   2.158
 2767TIP3    H129860   0.860   5.830   2.206
 2767TIP3    H229861   0.930   5.961   2.177
 2768TIP3   OH229862   1.484   3.038   6.360
 2768TIP3    H129863   1.551   3.019   6.295
 2768TIP3    H229864   1.484   2.962   6.419
 2769TIP3   OH229865   3.748   5.912   7.423
 2769TIP3    H129866   3.656   5.915   7.397
 2769TIP3    H229867   3.746   5.917   7.519
 2770TIP3   OH229868   4.311   5.786   8.657
 2770TIP3    H129869   4.324   5.706   8.607
 2770TIP3    H229870   4.303   5.756   0.022
 2771TIP3   OH229871   1.302   6.561   2.363
 2771TIP3    H129872   1.393   6.545   2.336
 2771TIP3    H229873   1.294   6.656   2.366
 2772TIP3   OH229874   3.592   5.784   1.672
 2772TIP3    H129875   3.542   5.857   1.634
 2772TIP3    H229876   3.525   5.728   1.710
 2773TIP3   OH229877   3.893   3.339   0.394
 2773TIP3    H129878   3.907   3.261   0.447
 2773TIP3    H229879   3.798   3.347   0.387
 2774TIP3   OH229880   3.949   2.953   7.420
 2774TIP3    H129881   4.002   3.031   7.438
 2774TIP3    H229882   3.925   2.919   7.506
 2775TIP3   OH229883   3.316   2.126   7.801
 2775TIP3    H129884   3.253   2.072   7.849
 2775TIP3    H229885   3.401   2.085   7.820
 2776TIP3   OH229886   4.633   1.125   8.404
 2776TIP3    H129887   4.588   1.142   8.322
 2776TIP3    H229888   4.695   1.197   8.413
 2777TIP3   OH229889   1.768   4.699   7.222
 2777TIP3    H129890   1.700   4.718   7.157
 2777TIP3    H229891   1.821   4.631   7.182
 2778TIP3   OH229892   1.575   5.276   8.336
 2778TIP3    H129893   1.653   5.306   8.382
 2778TIP3    H229894   1.524   5.230   8.403
 2779TIP3   OH229895   4.807   4.599   2.355
 2779TIP3    H129896   4.736   4.559   2.406
 2779TIP3    H229897   4.852   4.656   2.417
 2780TIP3   OH229898   1.061   0.357   7.638
 2780TIP3    H129899   1.089   0.399   7.557
 2780TIP3    H229900   1.012   0.426   7.684
 2781TIP3   OH229901   5.980   0.523   1.707
 2781TIP3    H129902   5.937   0.492   1.627
 2781TIP3    H229903   5.953   0.615   1.713
 2782TIP3   OH229904   2.859   3.851   7.762
 2782TIP3    H129905   2.909   3.850   7.681
 2782TIP3    H229906   2.869   3.763   7.798
 2783TIP3   OH229907   3.536   6.203   7.818
 2783TIP3    H129908   3.461   6.159   7.778
 2783TIP3    H229909   3.542   6.167   7.906
 2784TIP3   OH229910   0.140   4.536   0.410
 2784TIP3    H129911   0.154   4.609   0.350
 2784TIP3    H229912   0.045   4.519   0.405
 2785TIP3   OH229913   0.984   3.837   8.332
 2785TIP3    H129914   0.953   3.860   8.420
 2785TIP3    H229915   1.021   3.919   8.298
 2786TIP3   OH229916   5.915   2.944   1.746
 2786TIP3    H129917   5.881   2.924   1.833
 2786TIP3    H229918   5.993   2.996   1.762
 2787TIP3   OH229919   5.086   0.986   0.988
 2787TIP3    H129920   5.142   1.059   1.012
 2787TIP3    H229921   5.135   0.908   1.015
 2788TIP3   OH229922   2.373   6.841   8.647
 2788TIP3    H129923   2.342   0.040   8.573
 2788TIP3    H229924   2.324   6.760   8.640
 2789TIP3   OH229925   0.488   0.505   7.734
 2789TIP3    H129926   0.400   0.478   7.708
 2789TIP3    H229927   0.513   0.443   7.802
 2790TIP3   OH229928   1.051   1.724   0.834
 2790TIP3    H129929   1.094   1.640   0.825
 2790TIP3    H229930   1.001   1.734   0.753
 2791TIP3   OH229931   0.711   5.073   7.266
 2791TIP3    H129932   0.674   5.021   7.196
 2791TIP3    H229933   0.640   5.082   7.330
 2792TIP3   OH229934   6.311   2.513   0.500
 2792TIP3    H129935   6.385   2.453   0.491
 2792TIP3    H229936   6.290   2.512   0.593
 2793TIP3   OH229937   1.756   1.992   0.859
 2793TIP3    H129938   1.787   1.902   0.865
 2793TIP3    H229939   1.822   2.043   0.905
 2794TIP3   OH229940   5.791   4.715   7.136
 2794TIP3    H129941   5.821   4.645   7.195
 2794TIP3    H229942   5.750   4.669   7.063
 2795TIP3   OH229943   6.787   1.850   0.149
 2795TIP3    H129944   6.750   1.821   0.065
 2795TIP3    H229945   6.762   1.943   0.154
 2796TIP3   OH229946   1.693   5.615   1.044
 2796TIP3    H129947   1.673   5.702   1.009
 2796TIP3    H229948   1.776   5.591   1.003
 2797TIP3   OH229949   2.409   1.542   0.041
 2797TIP3    H129950   2.487   1.498   0.006
 2797TIP3    H229951   2.438   1.632   0.057
 2798TIP3   OH229952   6.078   5.502   1.807
 2798TIP3    H129953   6.040   5.440   1.869
 2798TIP3    H229954   6.165   5.466   1.787
 2799TIP3   OH229955   3.388   5.460   0.339
 2799TIP3    H129956   3.385   5.368   0.365
 2799TIP3    H229957   3.308   5.473   0.287
 2800TIP3   OH229958   4.993   5.751   0.349
 2800TIP3    H129959   5.015   5.840   0.374
 2800TIP3    H229960   5.036   5.738   0.264
 2801TIP3   OH229961   3.457   0.301   6.329
 2801TIP3    H129962   3.396   0.279   6.399
 2801TIP3    H229963   3.402   0.336   6.259
 2802TIP3   OH229964   0.080   0.809   1.285
 2802TIP3    H129965   0.121   0.863   1.217
 2802TIP3    H229966   0.100   0.854   1.367
 2803TIP3   OH229967   6.444   2.883   1.350
 2803TIP3    H129968   6.386   2.958   1.368
 2803TIP3    H229969   6.449   2.879   1.255
 2804TIP3   OH229970   6.102   2.566   2.472
 2804TIP3    H129971   6.116   2.474   2.450
 2804TIP3    H229972   6.190   2.605   2.466
 2805TIP3   OH229973   1.977   1.103   1.044
 2805TIP3    H129974   1.997   1.133   0.955
 2805TIP3    H229975   2.055   1.124   1.094
 2806TIP3   OH229976   1.516   6.252   1.239
 2806TIP3    H129977   1.448   6.254   1.307
 2806TIP3    H229978   1.593   6.287   1.283
 2807TIP3   OH229979   5.251   2.281   1.655
 2807TIP3    H129980   5.196   2.298   1.578
 2807TIP3    H229981   5.338   2.310   1.627
 2808TIP3   OH229982   2.096   1.378   7.974
 2808TIP3    H129983   2.111   1.445   7.908
 2808TIP3    H229984   2.038   1.314   7.932
 2809TIP3   OH229985   0.458   3.275   1.325
 2809TIP3    H129986   0.407   3.210   1.372
 2809TIP3    H229987   0.405   3.296   1.248
 2810TIP3   OH229988   1.845   2.992   8.435
 2810TIP3    H129989   1.840   2.980   8.340
 2810TIP3    H229990   1.938   2.986   8.455
 2811TIP3   OH229991   0.101   2.100   0.177
 2811TIP3    H129992   0.011   2.087   0.209
 2811TIP3    H229993   0.118   2.193   0.195
 2812TIP3   OH229994   0.251   3.876   7.010
 2812TIP3    H129995   0.284   3.791   6.982
 2812TIP3    H229996   0.197   3.907   6.937
 2813TIP3   OH229997   1.519   2.816   6.512
 2813TIP3    H129998   1.606   2.850   6.528
 2813TIP3    H229999   1.532   2.722   6.499
 2814TIP3   OH230000   2.803   1.144   0.239
 2814TIP3    H130001   2.816   1.226   0.286
 2814TIP3    H230002   2.783   1.080   0.307
 2815TIP3   OH230003   4.083   1.562   1.538
 2815TIP3    H130004   4.176   1.541   1.532
 2815TIP3    H230005   4.063   1.556   1.631
 2816TIP3   OH230006   3.377   4.516   6.972
 2816TIP3    H130007   3.340   4.431   6.948
 2816TIP3    H230008   3.437   4.495   7.044
 2817TIP3   OH230009   4.074   2.565   2.331
 2817TIP3    H130010   4.002   2.505   2.350
 2817TIP3    H230011   4.111   2.534   2.248
 2818TIP3   OH230012   6.153   0.211   8.525
 2818TIP3    H130013   6.226   0.266   8.498
 2818TIP3    H230014   6.125   0.165   8.445
 2819TIP3   OH230015   3.722   1.850   8.160
 2819TIP3    H130016   3.748   1.942   8.163
 2819TIP3    H230017   3.725   1.827   8.067
 2820TIP3   OH230018   4.256   3.174   0.338
 2820TIP3    H130019   4.347   3.146   0.352
 2820TIP3    H230020   4.245   3.172   0.243
 2821TIP3   OH230021   1.734   6.520   8.715
 2821TIP3    H130022   1.747   6.468   8.635
 2821TIP3    H230023   1.788   6.475   0.054
 2822TIP3   OH230024   2.903   0.270   8.253
 2822TIP3    H130025   2.923   0.231   8.168
 2822TIP3    H230026   2.969   0.338   8.265
 2823TIP3   OH230027   4.618   1.527   7.573
 2823TIP3    H130028   4.533   1.569   7.567
 2823TIP3    H230029   4.620   1.465   7.499
 2824TIP3   OH230030   1.335   1.551   2.142
 2824TIP3    H130031   1.334   1.641   2.176
 2824TIP3    H230032   1.248   1.516   2.165
 2825TIP3   OH230033   1.220   1.917   6.902
 2825TIP3    H130034   1.201   1.830   6.865
 2825TIP3    H230035   1.138   1.942   6.946
 2826TIP3   OH230036   4.642   0.318   0.796
 2826TIP3    H130037   4.562   0.305   0.745
 2826TIP3    H230038   4.633   0.406   0.834
 2827TIP3   OH230039   6.180   5.020   8.717
 2827TIP3    H130040   6.272   4.997   8.713
 2827TIP3    H230041   6.135   4.937   0.003
 2828TIP3   OH230042   0.642   1.999   6.977
 2828TIP3    H130043   0.694   2.036   6.906
 2828TIP3    H230044   0.661   2.056   7.052
 2829TIP3   OH230045   0.321   0.789   6.830
 2829TIP3    H130046   0.289   0.809   6.917
 2829TIP3    H230047   0.316   0.872   6.783
 2830TIP3   OH230048   3.918   0.493   0.878
 2830TIP3    H130049   3.919   0.507   0.973
 2830TIP3    H230050   3.994   0.541   0.846
 2831TIP3   OH230051   5.534   2.996   7.094
 2831TIP3    H130052   5.613   3.002   7.039
 2831TIP3    H230053   5.491   3.081   7.083
 2832TIP3   OH230054   0.314   0.908   7.088
 2832TIP3    H130055   0.343   0.991   7.126
 2832TIP3    H230056   0.277   0.860   7.161
 2833TIP3   OH230057   5.637   1.765   0.084
 2833TIP3    H130058   5.684   1.833   0.131
 2833TIP3    H230059   5.697   1.739   0.014
 2834TIP3   OH230060   5.160   6.179   7.814
 2834TIP3    H130061   5.209   6.236   7.873
 2834TIP3    H230062   5.114   6.118   7.873
 2835TIP3   OH230063   1.089   2.555   7.667
 2835TIP3    H130064   1.057   2.482   7.614
 2835TIP3    H230065   1.058   2.633   7.621
 2836TIP3   OH230066   4.682   5.433   6.847
 2836TIP3    H130067   4.606   5.375   6.848
 2836TIP3    H230068   4.677   5.478   6.762
 2837TIP3   OH230069   6.619   2.479   7.117
 2837TIP3    H130070   6.666   2.453   7.196
 2837TIP3    H230071   6.674   2.547   7.078
 2838TIP3   OH230072   1.962   6.491   2.231
 2838TIP3    H130073   1.891   6.432   2.206
 2838TIP3    H230074   2.024   6.436   2.277
 2839TIP3   OH230075   6.482   5.429   7.882
 2839TIP3    H130076   6.409   5.380   7.919
 2839TIP3    H230077   6.464   5.520   7.906
 2840TIP3   OH230078   2.338   3.947   7.969
 2840TIP3    H130079   2.333   4.013   7.899
 2840TIP3    H230080   2.357   3.865   7.923
 2841TIP3   OH230081   0.612   4.539   7.903
 2841TIP3    H130082   0.536   4.485   7.926
 2841TIP3    H230083   0.578   4.603   7.840
 2842TIP3   OH230084   4.903   6.372   2.136
 2842TIP3    H130085   4.993   6.341   2.130
 2842TIP3    H230086   4.850   6.299   2.103
 2843TIP3   OH230087   2.770   3.066   7.941
 2843TIP3    H130088   2.709   3.089   7.871
 2843TIP3    H230089   2.743   3.120   8.015
 2844TIP3   OH230090   2.776   1.497   7.597
 2844TIP3    H130091   2.735   1.487   7.682
 2844TIP3    H230092   2.740   1.579   7.562
 2845TIP3   OH230093   4.061   4.321   1.148
 2845TIP3    H130094   4.044   4.414   1.135
 2845TIP3    H230095   4.031   4.280   1.067
 2846TIP3   OH230096   4.359   1.467   0.444
 2846TIP3    H130097   4.379   1.534   0.509
 2846TIP3    H230098   4.334   1.516   0.365
 2847TIP3   OH230099   3.476   6.269   0.611
 2847TIP3    H130100   3.517   6.194   0.567
 2847TIP3    H230101   3.434   6.318   0.541
 2848TIP3   OH230102   1.527   1.954   6.350
 2848TIP3    H130103   1.557   1.980   6.437
 2848TIP3    H230104   1.548   1.861   6.344
 2849TIP3   OH230105   6.138   1.362   0.786
 2849TIP3    H130106   6.134   1.458   0.782
 2849TIP3    H230107   6.166   1.343   0.875
 2850TIP3   OH230108   3.243   3.158   0.470
 2850TIP3    H130109   3.279   3.245   0.488
 2850TIP3    H230110   3.262   3.108   0.549
 2851TIP3   OH230111   3.670   4.929   0.065
 2851TIP3    H130112   3.598   4.984   0.032
 2851TIP3    H230113   3.737   4.991   0.093
 2852TIP3   OH230114   3.683   4.480   1.259
 2852TIP3    H130115   3.713   4.569   1.240
 2852TIP3    H230116   3.603   4.470   1.207
 2853TIP3   OH230117   1.223   3.231   1.821
 2853TIP3    H130118   1.255   3.237   1.911
 2853TIP3    H230119   1.131   3.205   1.830
 2854TIP3   OH230120   2.814   5.635   1.328
 2854TIP3    H130121   2.800   5.602   1.239
 2854TIP3    H230122   2.736   5.688   1.346
 2855TIP3   OH230123   5.277   5.827   8.410
 2855TIP3    H130124   5.298   5.741   8.376
 2855TIP3    H230125   5.312   5.888   8.345
 2856TIP3   OH230126   0.895   3.761   0.706
 2856TIP3    H130127   0.852   3.769   0.791
 2856TIP3    H230128   0.848   3.690   0.662
 2857TIP3   OH230129   5.257   2.150   7.796
 2857TIP3    H130130   5.188   2.088   7.822
 2857TIP3    H230131   5.210   2.222   7.755
 2858TIP3   OH230132   5.793   5.020   7.447
 2858TIP3    H130133   5.801   5.115   7.460
 2858TIP3    H230134   5.771   5.010   7.354
 2859TIP3   OH230135   0.480   4.026   0.273
 2859TIP3    H130136   0.504   4.000   0.362
 2859TIP3    H230137   0.397   4.073   0.283
 2860TIP3   OH230138   4.078   2.565   1.087
 2860TIP3    H130139   4.086   2.607   1.002
 2860TIP3    H230140   4.075   2.637   1.150
 2861TIP3   OH230141   6.523   1.181   7.770
 2861TIP3    H130142   6.473   1.194   7.690
 2861TIP3    H230143   6.462   1.138   7.830
 2862TIP3   OH230144   0.063   3.546   7.023
 2862TIP3    H130145   0.040   3.618   6.966
 2862TIP3    H230146   6.835   3.522   7.066
 2863TIP3   OH230147   3.933   4.291   8.616
 2863TIP3    H130148   3.845   4.264   8.591
 2863TIP3    H230149   3.947   4.250   8.702
 2864TIP3   OH230150   0.127   2.865   0.447
 2864TIP3    H130151   0.165   2.897   0.365
 2864TIP3    H230152   0.183   2.903   0.515
 2865TIP3   OH230153   3.563   3.512   8.190
 2865TIP3    H130154   3.538   3.601   8.167
 2865TIP3    H230155   3.611   3.479   8.115
 2866TIP3   OH230156   2.250   6.367   1.572
 2866TIP3    H130157   2.167   6.407   1.547
 2866TIP3    H230158   2.230   6.318   1.652
 2867TIP3   OH230159   6.411   6.461   0.661
 2867TIP3    H130160   6.348   6.429   0.595
 2867TIP3    H230161   6.422   6.553   0.640
 2868TIP3   OH230162   4.579   3.299   0.247
 2868TIP3    H130163   4.548   3.211   0.227
 2868TIP3    H230164   4.651   3.285   0.310
 2869TIP3   OH230165   6.640   3.500   1.462
 2869TIP3    H130166   6.618   3.408   1.476
 2869TIP3    H230167   6.570   3.533   1.406
 2870TIP3   OH230168   5.153   6.025   8.097
 2870TIP3    H130169   5.076   6.082   8.110
 2870TIP3    H230170   5.208   6.042   8.173
 2871TIP3   OH230171   6.607   5.800   8.712
 2871TIP3    H130172   6.516   5.801   8.681
 2871TIP3    H230173   6.656   5.760   8.640
 2872TIP3   OH230174   0.787   6.763   0.282
 2872TIP3    H130175   0.878   6.764   0.312
 2872TIP3    H230176   0.737   6.784   0.361
 2873TIP3   OH230177   2.873   2.366   2.444
 2873TIP3    H130178   2.819   2.308   2.499
 2873TIP3    H230179   2.831   2.363   2.358
 2874TIP3   OH230180   4.318   3.439   0.936
 2874TIP3    H130181   4.323   3.432   0.841
 2874TIP3    H230182   4.251   3.505   0.952
 2875TIP3   OH230183   4.371   2.306   0.348
 2875TIP3    H130184   4.435   2.246   0.387
 2875TIP3    H230185   4.303   2.248   0.312
 2876TIP3   OH230186   1.248   2.465   1.229
 2876TIP3    H130187   1.253   2.504   1.141
 2876TIP3    H230188   1.291   2.380   1.220
 2877TIP3   OH230189   2.389   0.208   0.973
 2877TIP3    H130190   2.302   0.222   1.010
 2877TIP3    H230191   2.373   0.192   0.880
 2878TIP3   OH230192   5.975   2.326   0.347
 2878TIP3    H130193   6.062   2.365   0.339
 2878TIP3    H230194   5.920   2.395   0.384
 2879TIP3   OH230195   4.693   1.818   0.409
 2879TIP3    H130196   4.644   1.811   0.491
 2879TIP3    H230197   4.687   1.731   0.371
 2880TIP3   OH230198   6.085   2.835   7.954
 2880TIP3    H130199   6.056   2.798   8.037
 2880TIP3    H230200   6.171   2.873   7.973
 2881TIP3   OH230201   2.774   5.393   0.930
 2881TIP3    H130202   2.795   5.308   0.968
 2881TIP3    H230203   2.712   5.374   0.860
 2882TIP3   OH230204   5.759   0.863   8.129
 2882TIP3    H130205   5.712   0.800   8.184
 2882TIP3    H230206   5.798   0.925   8.191
 2883TIP3   OH230207   1.376   4.928   8.545
 2883TIP3    H130208   1.390   4.833   8.546
 2883TIP3    H230209   1.363   4.948   8.452
 2884TIP3   OH230210   2.212   3.635   8.462
 2884TIP3    H130211   2.138   3.586   8.497
 2884TIP3    H230212   2.186   3.657   8.373
 2885TIP3   OH230213   5.804   4.742   1.602
 2885TIP3    H130214   5.733   4.807   1.596
 2885TIP3    H230215   5.828   4.724   1.511
 2886TIP3   OH230216   2.323   4.110   7.735
 2886TIP3    H130217   2.279   4.183   7.778
 2886TIP3    H230218   2.371   4.149   7.663
 2887TIP3   OH230219   2.173   2.750   7.031
 2887TIP3    H130220   2.165   2.811   6.958
 2887TIP3    H230221   2.268   2.740   7.043
 2888TIP3   OH230222   5.754   3.588   1.737
 2888TIP3    H130223   5.731   3.553   1.824
 2888TIP3    H230224   5.764   3.682   1.751
 2889TIP3   OH230225   4.293   5.416   1.207
 2889TIP3    H130226   4.301   5.423   1.111
 2889TIP3    H230227   4.342   5.492   1.240
 2890TIP3   OH230228   3.163   4.947   0.687
 2890TIP3    H130229   3.203   4.929   0.602
 2890TIP3    H230230   3.084   4.998   0.665
 2891TIP3   OH230231   4.109   2.324   7.932
 2891TIP3    H130232   4.179   2.372   7.977
 2891TIP3    H230233   4.028   2.356   7.971
 2892TIP3   OH230234   4.522   2.942   2.160
 2892TIP3    H130235   4.442   2.910   2.119
 2892TIP3    H230236   4.550   2.872   2.218
 2893TIP3   OH230237   3.816   6.563   0.907
 2893TIP3    H130238   3.838   6.580   0.998
 2893TIP3    H230239   3.891   6.515   0.873
 2894TIP3   OH230240   4.150   1.197   1.060
 2894TIP3    H130241   4.084   1.238   1.005
 2894TIP3    H230242   4.207   1.151   0.999
 2895TIP3   OH230243   5.797   4.583   0.859
 2895TIP3    H130244   5.741   4.507   0.840
 2895TIP3    H230245   5.883   4.559   0.826
 2896TIP3   OH230246   1.232   5.109   8.686
 2896TIP3    H130247   1.148   5.089   8.645
 2896TIP3    H230248   1.293   5.046   8.648
 2897TIP3   OH230249   3.106   1.070   0.326
 2897TIP3    H130250   3.144   0.982   0.333
 2897TIP3    H230251   3.059   1.083   0.408
 2898TIP3   OH230252   2.175   5.250   8.725
 2898TIP3    H130253   2.150   5.315   8.660
 2898TIP3    H230254   2.206   5.175   8.675
 2899TIP3   OH230255   6.335   3.965   7.182
 2899TIP3    H130256   6.275   3.947   7.110
 2899TIP3    H230257   6.416   3.921   7.158
 2900TIP3   OH230258   4.043   5.230   7.320
 2900TIP3    H130259   4.075   5.279   7.395
 2900TIP3    H230260   4.119   5.224   7.261
 2901TIP3   OH230261   3.813   4.356   0.759
 2901TIP3    H130262   3.847   4.433   0.804
 2901TIP3    H230263   3.861   4.283   0.796
 2902TIP3   OH230264   0.112   1.020   8.377
 2902TIP3    H130265   0.120   0.928   8.402
 2902TIP3    H230266   0.074   1.017   8.289
 2903TIP3   OH230267   0.288   1.117   8.591
 2903TIP3    H130268   0.261   1.208   8.581
 2903TIP3    H230269   0.225   1.068   8.538
 2904TIP3   OH230270   0.438   2.981   2.304
 2904TIP3    H130271   0.438   3.056   2.244
 2904TIP3    H230272   0.379   3.007   2.375
 2905TIP3   OH230273   5.555   6.544   1.073
 2905TIP3    H130274   5.571   6.616   1.134
 2905TIP3    H230275   5.641   6.526   1.035
 2906TIP3   OH230276   3.346   3.993   6.938
 2906TIP3    H130277   3.256   3.966   6.954
 2906TIP3    H230278   3.347   4.087   6.956
 2907TIP3   OH230279   4.883   4.791   2.533
 2907TIP3    H130280   4.826   4.846   2.586
 2907TIP3    H230281   4.966   4.839   2.529
 2908TIP3   OH230282   3.547   6.324   1.535
 2908TIP3    H130283   3.566   6.250   1.592
 2908TIP3    H230284   3.508   6.285   1.457
 2909TIP3   OH230285   4.795   4.703   1.715
 2909TIP3    H130286   4.806   4.687   1.621
 2909TIP3    H230287   4.765   4.794   1.720
 2910TIP3   OH230288   3.078   0.545   8.652
 2910TIP3    H130289   3.002   0.604   8.650
 2910TIP3    H230290   3.069   0.492   8.574
 2911TIP3   OH230291   3.170   2.047   7.140
 2911TIP3    H130292   3.168   2.126   7.086
 2911TIP3    H230293   3.108   2.064   7.211
 2912TIP3   OH230294   4.238   2.752   6.388
 2912TIP3    H130295   4.220   2.771   6.295
 2912TIP3    H230296   4.197   2.825   6.435
 2913TIP3   OH230297   2.294   3.392   1.409
 2913TIP3    H130298   2.351   3.321   1.381
 2913TIP3    H230299   2.354   3.460   1.441
 2914TIP3   OH230300   5.440   6.573   5.950
 2914TIP3    H130301   5.358   6.590   5.997
 2914TIP3    H230302   5.452   6.650   5.895
 2915TIP3   OH230303   0.412   2.102   6.313
 2915TIP3    H130304   0.374   2.019   6.285
 2915TIP3    H230305   0.349   2.137   6.376
 2916TIP3   OH230306   4.734   1.401   8.416
 2916TIP3    H130307   4.771   1.443   8.493
 2916TIP3    H230308   4.643   1.430   8.414
 2917TIP3   OH230309   0.363   3.323   1.004
 2917TIP3    H130310   0.279   3.278   1.002
 2917TIP3    H230311   0.350   3.396   1.065
 2918TIP3   OH230312   3.692   2.558   0.527
 2918TIP3    H130313   3.723   2.645   0.554
 2918TIP3    H230314   3.644   2.526   0.603
 2919TIP3   OH230315   4.728   2.450   7.101
 2919TIP3    H130316   4.821   2.471   7.091
 2919TIP3    H230317   4.692   2.459   7.013
 2920TIP3   OH230318   1.825   1.574   0.140
 2920TIP3    H130319   1.889   1.598   0.072
 2920TIP3    H230320   1.870   1.511   0.195
 2921TIP3   OH230321   4.154   2.132   0.222
 2921TIP3    H130322   4.089   2.162   0.285
 2921TIP3    H230323   4.106   2.123   0.140
 2922TIP3   OH230324   4.911   4.654   1.972
 2922TIP3    H130325   4.884   4.649   1.881
 2922TIP3    H230326   4.830   4.670   2.021
 2923TIP3   OH230327   6.071   0.530   1.213
 2923TIP3    H130328   6.030   0.606   1.254
 2923TIP3    H230329   6.010   0.503   1.145
 2924TIP3   OH230330   5.556   5.987   0.064
 2924TIP3    H130331   5.516   5.980   0.151
 2924TIP3    H230332   5.502   6.051   0.018
 2925TIP3   OH230333   6.680   0.629   7.716
 2925TIP3    H130334   6.766   0.636   7.757
 2925TIP3    H230335   6.693   0.666   7.628
 2926TIP3   OH230336   1.012   0.758   6.659
 2926TIP3    H130337   1.028   0.706   6.738
 2926TIP3    H230338   0.930   0.725   6.624
 2927TIP3   OH230339   2.760   5.848   2.408
 2927TIP3    H130340   2.777   5.882   2.495
 2927TIP3    H230341   2.683   5.896   2.378
 2928TIP3   OH230342   3.591   2.911   0.050
 2928TIP3    H130343   3.543   2.986   0.086
 2928TIP3    H230344   3.606   2.853   0.124
 2929TIP3   OH230345   2.638   6.175   7.926
 2929TIP3    H130346   2.596   6.146   8.007
 2929TIP3    H230347   2.725   6.137   7.930
 2930TIP3   OH230348   3.823   3.292   6.780
 2930TIP3    H130349   3.897   3.241   6.747
 2930TIP3    H230350   3.767   3.227   6.824
 2931TIP3   OH230351   0.633   0.369   7.905
 2931TIP3    H130352   0.714   0.380   7.856
 2931TIP3    H230353   0.640   0.282   7.944
 2932TIP3   OH230354   6.521   3.086   0.687
 2932TIP3    H130355   6.449   3.137   0.650
 2932TIP3    H230356   6.487   2.998   0.695
 2933TIP3   OH230357   3.842   2.226   2.609
 2933TIP3    H130358   3.884   2.143   2.628
 2933TIP3    H230359   3.761   2.202   2.564
 2934TIP3   OH230360   3.892   2.748   2.164
 2934TIP3    H130361   3.808   2.702   2.153
 2934TIP3    H230362   3.957   2.679   2.168
 2935TIP3   OH230363   4.328   0.426   6.760
 2935TIP3    H130364   4.403   0.366   6.754
 2935TIP3    H230365   4.262   0.387   6.702
 2936TIP3   OH230366   3.400   0.329   7.570
 2936TIP3    H130367   3.364   0.369   7.491
 2936TIP3    H230368   3.363   0.380   7.642
 2937TIP3   OH230369   5.785   3.592   8.279
 2937TIP3    H130370   5.845   3.517   8.281
 2937TIP3    H230371   5.830   3.658   8.227
 2938TIP3   OH230372   0.448   2.707   0.191
 2938TIP3    H130373   0.534   2.667   0.178
 2938TIP3    H230374   0.448   2.782   0.131
 2939TIP3   OH230375   2.094   0.024   0.892
 2939TIP3    H130376   2.060   0.105   0.853
 2939TIP3    H230377   2.180   0.012   0.852
 2940TIP3   OH230378   6.606   6.256   0.554
 2940TIP3    H130379   6.556   6.336   0.569
 2940TIP3    H230380   6.578   6.226   0.467
 2941TIP3   OH230381   5.803   4.769   1.890
 2941TIP3    H130382   5.816   4.749   1.797
 2941TIP3    H230383   5.708   4.773   1.901
 2942TIP3   OH230384   6.655   4.623   1.721
 2942TIP3    H130385   6.705   4.699   1.750
 2942TIP3    H230386   6.702   4.548   1.757
 2943TIP3   OH230387   5.624   5.577   1.384
 2943TIP3    H130388   5.621   5.481   1.388
 2943TIP3    H230389   5.540   5.605   1.420
 2944TIP3   OH230390   3.835   3.120   8.697
 2944TIP3    H130391   3.781   3.188   0.011
 2944TIP3    H230392   3.795   3.038   8.724
 2945TIP3   OH230393   4.140   0.123   7.728
 2945TIP3    H130394   4.083   0.177   7.783
 2945TIP3    H230395   4.093   0.115   7.646
 2946TIP3   OH230396   3.373   6.620   8.429
 2946TIP3    H130397   3.405   6.674   8.501
 2946TIP3    H230398   3.295   6.577   8.464
 2947TIP3   OH230399   2.008   0.623   7.356
 2947TIP3    H130400   2.054   0.539   7.347
 2947TIP3    H230401   2.018   0.645   7.449
 2948TIP3   OH230402   1.763   2.398   8.645
 2948TIP3    H130403   1.822   2.464   8.608
 2948TIP3    H230404   1.744   2.340   8.572
 2949TIP3   OH230405   3.753   5.793   1.454
 2949TIP3    H130406   3.709   5.770   1.536
 2949TIP3    H230407   3.832   5.740   1.453
 2950TIP3   OH230408   3.664   3.500   7.384
 2950TIP3    H130409   3.688   3.579   7.336
 2950TIP3    H230410   3.603   3.530   7.451
 2951TIP3   OH230411   3.342   5.080   7.565
 2951TIP3    H130412   3.383   5.098   7.650
 2951TIP3    H230413   3.374   5.149   7.507
 2952TIP3   OH230414   6.248   6.412   8.059
 2952TIP3    H130415   6.306   6.470   8.009
 2952TIP3    H230416   6.307   6.347   8.097
 2953TIP3   OH230417   6.586   1.432   7.505
 2953TIP3    H130418   6.579   1.425   7.410
 2953TIP3    H230419   6.530   1.506   7.528
 2954TIP3   OH230420   4.932   3.365   8.174
 2954TIP3    H130421   4.973   3.384   8.258
 2954TIP3    H230422   4.939   3.446   8.124
 2955TIP3   OH230423   1.478   3.478   0.432
 2955TIP3    H130424   1.433   3.463   0.349
 2955TIP3    H230425   1.476   3.573   0.444
 2956TIP3   OH230426   5.767   3.492   0.120
 2956TIP3    H130427   5.857   3.514   0.145
 2956TIP3    H230428   5.717   3.570   0.141
 2957TIP3   OH230429   1.391   5.052   7.044
 2957TIP3    H130430   1.345   4.996   6.981
 2957TIP3    H230431   1.455   5.100   6.990
 2958TIP3   OH230432   5.003   2.654   8.019
 2958TIP3    H130433   4.911   2.640   8.040
 2958TIP3    H230434   5.033   2.569   7.986
 2959TIP3   OH230435   3.212   1.780   1.065
 2959TIP3    H130436   3.277   1.780   0.995
 2959TIP3    H230437   3.187   1.872   1.074
 2960TIP3   OH230438   0.641   1.065   8.623
 2960TIP3    H130439   0.629   1.065   8.528
 2960TIP3    H230440   0.710   1.000   8.639
 2961TIP3   OH230441   5.079   6.135   2.361
 2961TIP3    H130442   5.034   6.052   2.344
 2961TIP3    H230443   5.149   6.112   2.422
 2962TIP3   OH230444   6.508   3.076   7.094
 2962TIP3    H130445   6.431   3.122   7.126
 2962TIP3    H230446   6.507   2.992   7.140
 2963TIP3   OH230447   5.072   4.474   0.748
 2963TIP3    H130448   5.025   4.547   0.787
 2963TIP3    H230449   5.010   4.402   0.748
 2964TIP3   OH230450   1.221   0.177   7.420
 2964TIP3    H130451   1.258   0.168   7.332
 2964TIP3    H230452   1.153   0.245   7.411
 2965TIP3   OH230453   5.438   5.698   7.451
 2965TIP3    H130454   5.521   5.672   7.490
 2965TIP3    H230455   5.405   5.768   7.508
 2966TIP3   OH230456   6.826   6.693   7.091
 2966TIP3    H130457   6.813   6.671   6.999
 2966TIP3    H230458   6.738   6.693   7.129
 2967TIP3   OH230459   0.893   3.512   7.432
 2967TIP3    H130460   0.812   3.558   7.410
 2967TIP3    H230461   0.945   3.516   7.352
 2968TIP3   OH230462   1.385   2.235   0.178
 2968TIP3    H130463   1.450   2.305   0.164
 2968TIP3    H230464   1.318   2.251   0.112
 2969TIP3   OH230465   2.995   1.025   1.086
 2969TIP3    H130466   2.988   1.000   1.178
 2969TIP3    H230467   3.085   1.001   1.062
 2970TIP3   OH230468   0.566   1.755   1.656
 2970TIP3    H130469   0.641   1.780   1.711
 2970TIP3    H230470   0.560   1.660   1.667
 2971TIP3   OH230471   2.266   6.587   2.196
 2971TIP3    H130472   2.215   6.525   2.249
 2971TIP3    H230473   2.323   6.631   2.260
 2972TIP3   OH230474   6.357   5.000   7.158
 2972TIP3    H130475   6.268   4.976   7.132
 2972TIP3    H230476   6.360   4.980   7.252
 2973TIP3   OH230477   2.008   4.132   1.764
 2973TIP3    H130478   2.088   4.115   1.814
 2973TIP3    H230479   1.937   4.106   1.822
 2974TIP3   OH230480   5.354   2.544   8.555
 2974TIP3    H130481   5.350   2.457   8.516
 2974TIP3    H230482   5.263   2.574   8.556
 2975TIP3   OH230483   2.726   3.299   7.513
 2975TIP3    H130484   2.805   3.351   7.530
 2975TIP3    H230485   2.720   3.297   7.418
 2976TIP3   OH230486   0.743   2.680   1.550
 2976TIP3    H130487   0.763   2.772   1.532
 2976TIP3    H230488   0.704   2.648   1.469
 2977TIP3   OH230489   2.401   0.884   1.689
 2977TIP3    H130490   2.492   0.892   1.717
 2977TIP3    H230491   2.402   0.822   1.617
 2978TIP3   OH230492   1.351   0.702   0.397
 2978TIP3    H130493   1.290   0.644   0.443
 2978TIP3    H230494   1.378   0.767   0.462
 2979TIP3   OH230495   3.106   5.913   6.778
 2979TIP3    H130496   3.188   5.917   6.729
 2979TIP3    H230497   3.131   5.926   6.869
 2980TIP3   OH230498   0.323   4.116   8.116
 2980TIP3    H130499   0.315   4.057   8.190
 2980TIP3    H230500   0.243   4.169   8.119
 2981TIP3   OH230501   5.384   2.540   8.225
 2981TIP3    H130502   5.328   2.467   8.251
 2981TIP3    H230503   5.422   2.571   8.307
 2982TIP3   OH230504   0.528   1.518   7.144
 2982TIP3    H130505   0.577   1.491   7.065
 2982TIP3    H230506   0.589   1.575   7.191
 2983TIP3   OH230507   1.883   0.216   6.759
 2983TIP3    H130508   1.839   0.299   6.776
 2983TIP3    H230509   1.975   0.233   6.777
 2984TIP3   OH230510   0.870   2.491   6.360
 2984TIP3    H130511   0.777   2.474   6.372
 2984TIP3    H230512   0.878   2.586   6.371
 2985TIP3   OH230513   4.115   6.838   8.248
 2985TIP3    H130514   4.113   0.047   8.321
 2985TIP3    H230515   4.164   0.029   8.179
 2986TIP3   OH230516   4.848   1.969   7.394
 2986TIP3    H130517   4.759   1.996   7.418
 2986TIP3    H230518   4.853   1.877   7.421
 2987TIP3   OH230519   5.378   0.663   7.900
 2987TIP3    H130520   5.385   0.753   7.867
 2987TIP3    H230521   5.348   0.673   7.990
 2988TIP3   OH230522   1.700   0.260   1.287
 2988TIP3    H130523   1.728   0.207   1.212
 2988TIP3    H230524   1.777   0.265   1.344
 2989TIP3   OH230525   2.943   3.612   6.675
 2989TIP3    H130526   2.969   3.570   6.757
 2989TIP3    H230527   2.899   3.693   6.701
 2990TIP3   OH230528   3.498   3.142   7.737
 2990TIP3    H130529   3.530   3.133   7.647
 2990TIP3    H230530   3.467   3.054   7.760
 2991TIP3   OH230531   5.977   3.913   8.709
 2991TIP3    H130532   6.019   3.976   0.042
 2991TIP3    H230533   5.977   3.956   8.623
 2992TIP3   OH230534   2.554   1.214   0.123
 2992TIP3    H130535   2.634   1.161   0.120
 2992TIP3    H230536   2.505   1.188   0.044
 2993TIP3   OH230537   2.324   5.350   1.872
 2993TIP3    H130538   2.274   5.275   1.906
 2993TIP3    H230539   2.408   5.312   1.846
 2994TIP3   OH230540   3.140   2.648   0.445
 2994TIP3    H130541   3.215   2.592   0.424
 2994TIP3    H230542   3.063   2.591   0.431
 2995TIP3   OH230543   3.130   4.833   7.864
 2995TIP3    H130544   3.189   4.792   7.801
 2995TIP3    H230545   3.169   4.919   7.881
 2996TIP3   OH230546   4.668   6.570   7.201
 2996TIP3    H130547   4.750   6.609   7.234
 2996TIP3    H230548   4.644   6.507   7.269
 2997TIP3   OH230549   4.254   6.364   0.669
 2997TIP3    H130550   4.314   6.405   0.732
 2997TIP3    H230551   4.185   6.327   0.723
 2998TIP3   OH230552   1.097   1.892   1.447
 2998TIP3    H130553   1.138   1.974   1.421
 2998TIP3    H230554   1.169   1.829   1.450
 2999TIP3   OH230555   5.271   5.249   8.424
 2999TIP3    H130556   5.268   5.234   8.330
 2999TIP3    H230557   5.300   5.340   8.433
 3000TIP3   OH230558   5.855   4.111   7.864
 3000TIP3    H130559   5.809   4.102   7.948
 3000TIP3    H230560   5.904   4.193   7.874
 3001TIP3   OH230561   0.834   2.993   2.377
 3001TIP3    H130562   0.773   3.040   2.434
 3001TIP3    H230563   0.908   2.971   2.435
 3002TIP3   OH230564   3.304   5.386   1.244
 3002TIP3    H130565   3.285   5.293   1.261
 3002TIP3    H230566   3.392   5.399   1.279
 3003TIP3   OH230567   5.245   1.521   6.339
 3003TIP3    H130568   5.326   1.476   6.363
 3003TIP3    H230569   5.179   1.482   6.396
 3004TIP3   OH230570   0.513   4.476   7.086
 3004TIP3    H130571   0.558   4.535   7.026
 3004TIP3    H230572   0.575   4.403   7.098
 3005TIP3   OH230573   3.370   1.769   7.640
 3005TIP3    H130574   3.355   1.749   7.733
 3005TIP3    H230575   3.414   1.692   7.606
 3006TIP3   OH230576   2.878   2.484   7.415
 3006TIP3    H130577   2.889   2.401   7.461
 3006TIP3    H230578   2.922   2.471   7.331
 3007TIP3   OH230579   1.281   1.302   0.947
 3007TIP3    H130580   1.366   1.264   0.925
 3007TIP3    H230581   1.281   1.387   0.904
 3008TIP3   OH230582   2.664   6.175   0.425
 3008TIP3    H130583   2.677   6.208   0.514
 3008TIP3    H230584   2.715   6.094   0.421
 3009TIP3   OH230585   4.410   1.707   8.571
 3009TIP3    H130586   4.441   1.759   8.496
 3009TIP3    H230587   4.319   1.688   8.551
 3010TIP3   OH230588   0.576   5.318   1.721
 3010TIP3    H130589   0.521   5.249   1.757
 3010TIP3    H230590   0.644   5.271   1.672
 3011TIP3   OH230591   0.886   1.081   0.999
 3011TIP3    H130592   0.915   1.042   1.082
 3011TIP3    H230593   0.818   1.022   0.967
 3012TIP3   OH230594   4.851   4.633   7.451
 3012TIP3    H130595   4.887   4.719   7.471
 3012TIP3    H230596   4.860   4.584   7.533
 3013TIP3   OH230597   0.685   6.410   7.476
 3013TIP3    H130598   0.716   6.431   7.388
 3013TIP3    H230599   0.738   6.465   7.534
 3014TIP3   OH230600   5.072   5.026   8.040
 3014TIP3    H130601   5.008   5.094   8.017
 3014TIP3    H230602   5.027   4.971   8.104
 3015TIP3   OH230603   4.451   3.938   1.583
 3015TIP3    H130604   4.420   4.001   1.648
 3015TIP3    H230605   4.379   3.930   1.520
 3016TIP3   OH230606   1.823   4.192   6.883
 3016TIP3    H130607   1.862   4.169   6.798
 3016TIP3    H230608   1.730   4.172   6.872
 3017TIP3   OH230609   0.183   5.529   1.465
 3017TIP3    H130610   0.200   5.451   1.518
 3017TIP3    H230611   0.109   5.505   1.409
 3018TIP3   OH230612   1.038   6.348   7.762
 3018TIP3    H130613   1.130   6.366   7.780
 3018TIP3    H230614   1.037   6.258   7.729
 3019TIP3   OH230615   3.989   4.534   7.563
 3019TIP3    H130616   4.032   4.600   7.618
 3019TIP3    H230617   4.056   4.467   7.550
 3020TIP3   OH230618   0.828   3.064   6.128
 3020TIP3    H130619   0.860   3.151   6.104
 3020TIP3    H230620   0.861   3.050   6.216
 3021TIP3   OH230621   0.650   4.352   7.297
 3021TIP3    H130622   0.660   4.317   7.386
 3021TIP3    H230623   0.702   4.432   7.298
 3022TIP3   OH230624   6.594   6.140   8.434
 3022TIP3    H130625   6.584   6.085   8.356
 3022TIP3    H230626   6.687   6.133   8.456
 3023TIP3   OH230627   6.040   4.462   0.760
 3023TIP3    H130628   6.077   4.518   0.828
 3023TIP3    H230629   6.063   4.373   0.787
 3024TIP3   OH230630   3.860   6.094   2.169
 3024TIP3    H130631   3.856   6.173   2.222
 3024TIP3    H230632   3.848   6.022   2.232
 3025TIP3   OH230633   6.782   1.314   7.764
 3025TIP3    H130634   6.700   1.281   7.728
 3025TIP3    H230635   6.804   1.252   7.834
 3026TIP3   OH230636   0.772   3.545   1.486
 3026TIP3    H130637   0.731   3.626   1.515
 3026TIP3    H230638   0.809   3.566   1.400
 3027TIP3   OH230639   2.481   4.646   1.220
 3027TIP3    H130640   2.485   4.726   1.273
 3027TIP3    H230641   2.389   4.620   1.223
 3028TIP3   OH230642   0.506   4.851   0.459
 3028TIP3    H130643   0.527   4.864   0.367
 3028TIP3    H230644   0.534   4.931   0.502
 3029TIP3   OH230645   5.752   4.945   0.348
 3029TIP3    H130646   5.843   4.958   0.375
 3029TIP3    H230647   5.731   5.023   0.297
 3030TIP3   OH230648   1.063   3.654   8.026
 3030TIP3    H130649   1.138   3.709   8.047
 3030TIP3    H230650   0.989   3.715   8.017
 3031TIP3   OH230651   4.226   0.950   1.418
 3031TIP3    H130652   4.188   0.933   1.504
 3031TIP3    H230653   4.286   1.023   1.432
 3032TIP3   OH230654   2.285   1.813   0.480
 3032TIP3    H130655   2.375   1.832   0.508
 3032TIP3    H230656   2.230   1.842   0.553
 3033TIP3   OH230657   1.546   2.398   7.691
 3033TIP3    H130658   1.531   2.312   7.730
 3033TIP3    H230659   1.641   2.408   7.692
 3034TIP3   OH230660   0.750   1.146   0.323
 3034TIP3    H130661   0.762   1.170   0.231
 3034TIP3    H230662   0.694   1.069   0.320
 3035TIP3   OH230663   4.297   1.615   0.216
 3035TIP3    H130664   4.214   1.613   0.169
 3035TIP3    H230665   4.350   1.679   0.169
 3036TIP3   OH230666   2.838   4.977   0.134
 3036TIP3    H130667   2.833   4.930   0.217
 3036TIP3    H230668   2.901   4.926   0.082
 3037TIP3   OH230669   5.951   4.246   7.468
 3037TIP3    H130670   5.941   4.154   7.490
 3037TIP3    H230671   6.041   4.255   7.438
 3038TIP3   OH230672   4.550   6.319   2.458
 3038TIP3    H130673   4.577   6.227   2.465
 3038TIP3    H230674   4.455   6.316   2.464
 3039TIP3   OH230675   4.047   3.171   8.018
 3039TIP3    H130676   4.052   3.247   8.076
 3039TIP3    H230677   4.092   3.199   7.938
 3040TIP3   OH230678   3.677   1.490   8.148
 3040TIP3    H130679   3.686   1.424   8.217
 3040TIP3    H230680   3.615   1.554   8.184
 3041TIP3   OH230681   5.043   2.208   1.168
 3041TIP3    H130682   5.100   2.275   1.129
 3041TIP3    H230683   4.963   2.212   1.116
 3042TIP3   OH230684   0.715   1.189   2.285
 3042TIP3    H130685   0.785   1.132   2.251
 3042TIP3    H230686   0.650   1.129   2.321
 3043TIP3   OH230687   4.614   4.321   7.200
 3043TIP3    H130688   4.578   4.396   7.151
 3043TIP3    H230689   4.565   4.321   7.282
 3044TIP3   OH230690   1.957   2.160   0.948
 3044TIP3    H130691   1.974   2.114   1.030
 3044TIP3    H230692   1.958   2.253   0.972
 3045TIP3   OH230693   1.684   4.737   6.911
 3045TIP3    H130694   1.719   4.800   6.848
 3045TIP3    H230695   1.735   4.657   6.895
 3046TIP3   OH230696   5.180   0.504   7.393
 3046TIP3    H130697   5.099   0.458   7.376
 3046TIP3    H230698   5.216   0.463   7.472
 3047TIP3   OH230699   5.418   5.631   1.567
 3047TIP3    H130700   5.388   5.609   1.655
 3047TIP3    H230701   5.380   5.717   1.548
 3048TIP3   OH230702   0.479   5.835   8.190
 3048TIP3    H130703   0.459   5.752   8.234
 3048TIP3    H230704   0.527   5.886   8.256
 3049TIP3   OH230705   4.559   4.360   7.490
 3049TIP3    H130706   4.626   4.298   7.519
 3049TIP3    H230707   4.514   4.386   7.570
 3050TIP3   OH230708   1.706   4.224   1.034
 3050TIP3    H130709   1.620   4.196   1.004
 3050TIP3    H230710   1.688   4.285   1.106
 3051TIP3   OH230711   1.321   5.774   2.116
 3051TIP3    H130712   1.349   5.857   2.153
 3051TIP3    H230713   1.264   5.735   2.182
 3052TIP3   OH230714   0.274   3.377   1.589
 3052TIP3    H130715   0.343   3.416   1.535
 3052TIP3    H230716   0.304   3.387   1.679
 3053TIP3   OH230717   1.152   5.027   2.664
 3053TIP3    H130718   1.245   5.039   2.644
 3053TIP3    H230719   1.117   5.116   2.666
 3054TIP3   OH230720   5.577   6.188   2.328
 3054TIP3    H130721   5.661   6.144   2.316
 3054TIP3    H230722   5.519   6.120   2.362
 3055TIP3   OH230723   6.763   5.500   0.467
 3055TIP3    H130724   6.847   5.523   0.506
 3055TIP3    H230725   6.728   5.430   0.523
 3056TIP3   OH230726   1.425   6.231   8.500
 3056TIP3    H130727   1.495   6.214   8.437
 3056TIP3    H230728   1.404   6.146   8.537
 3057TIP3   OH230729   3.489   2.179   2.249
 3057TIP3    H130730   3.566   2.161   2.304
 3057TIP3    H230731   3.415   2.142   2.299
 3058TIP3   OH230732   3.407   6.713   7.512
 3058TIP3    H130733   3.329   6.660   7.498
 3058TIP3    H230734   3.414   6.766   7.432
 3059TIP3   OH230735   0.122   5.332   1.221
 3059TIP3    H130736   0.070   5.298   1.293
 3059TIP3    H230737   0.212   5.334   1.256
 3060TIP3   OH230738   4.931   5.575   5.878
 3060TIP3    H130739   4.869   5.583   5.806
 3060TIP3    H230740   4.878   5.539   5.950
 3061TIP3   OH230741   3.189   5.164   1.378
 3061TIP3    H130742   3.111   5.166   1.434
 3061TIP3    H230743   3.228   5.078   1.393
 3062TIP3   OH230744   4.478   0.114   2.109
 3062TIP3    H130745   4.427   0.038   2.082
 3062TIP3    H230746   4.539   0.080   2.175
 3063TIP3   OH230747   5.310   1.839   6.400
 3063TIP3    H130748   5.379   1.888   6.445
 3063TIP3    H230749   5.357   1.780   6.341
 3064TIP3   OH230750   0.022   1.736   7.810
 3064TIP3    H130751   0.017   1.680   7.733
 3064TIP3    H230752   6.821   1.811   7.789
 3065TIP3   OH230753   0.132   1.441   1.153
 3065TIP3    H130754   0.052   1.470   1.197
 3065TIP3    H230755   0.200   1.500   1.184
 3066TIP3   OH230756   4.795   0.392   6.825
 3066TIP3    H130757   4.746   0.462   6.866
 3066TIP3    H230758   4.870   0.435   6.784
 3067TIP3   OH230759   0.635   6.132   7.461
 3067TIP3    H130760   0.666   6.196   7.397
 3067TIP3    H230761   0.683   6.153   7.541
 3068TIP3   OH230762   2.056   6.584   1.451
 3068TIP3    H130763   1.989   6.527   1.412
 3068TIP3    H230764   2.107   6.614   1.376
 3069TIP3   OH230765   4.341   4.604   1.109
 3069TIP3    H130766   4.309   4.531   1.163
 3069TIP3    H230767   4.382   4.663   1.172
 3070TIP3   OH230768   4.242   1.229   8.154
 3070TIP3    H130769   4.337   1.215   8.151
 3070TIP3    H230770   4.224   1.250   8.246
 3071TIP3   OH230771   6.802   0.779   6.881
 3071TIP3    H130772   6.839   0.702   6.923
 3071TIP3    H230773   6.840   0.779   6.793
 3072TIP3   OH230774   5.333   5.207   0.315
 3072TIP3    H130775   5.405   5.154   0.281
 3072TIP3    H230776   5.331   5.187   0.409
 3073TIP3   OH230777   3.292   2.436   1.441
 3073TIP3    H130778   3.214   2.393   1.406
 3073TIP3    H230779   3.265   2.527   1.455
 3074TIP3   OH230780   0.519   5.710   1.407
 3074TIP3    H130781   0.589   5.761   1.365
 3074TIP3    H230782   0.555   5.621   1.413
 3075TIP3   OH230783   0.621   4.069   0.741
 3075TIP3    H130784   0.623   4.115   0.657
 3075TIP3    H230785   0.657   4.131   0.804
 3076TIP3   OH230786   4.323   4.503   7.433
 3076TIP3    H130787   4.384   4.430   7.446
 3076TIP3    H230788   4.246   4.463   7.392
 3077TIP3   OH230789   6.180   3.874   6.961
 3077TIP3    H130790   6.211   3.803   6.904
 3077TIP3    H230791   6.211   3.954   6.918
 3078TIP3   OH230792   3.222   6.422   8.605
 3078TIP3    H130793   3.128   6.444   8.604
 3078TIP3    H230794   3.242   6.407   8.697
 3079TIP3   OH230795   0.697   1.430   8.468
 3079TIP3    H130796   0.721   1.523   8.471
 3079TIP3    H230797   0.775   1.386   8.434
 3080TIP3   OH230798   0.637   2.406   8.670
 3080TIP3    H130799   0.588   2.324   8.673
 3080TIP3    H230800   0.604   2.456   0.019
 3081TIP3   OH230801   2.291   0.881   7.973
 3081TIP3    H130802   2.319   0.793   7.951
 3081TIP3    H230803   2.265   0.919   7.889
 3082TIP3   OH230804   6.087   2.950   2.352
 3082TIP3    H130805   6.167   2.951   2.299
 3082TIP3    H230806   6.022   2.908   2.296
 3083TIP3   OH230807   6.699   2.987   8.608
 3083TIP3    H130808   6.771   2.975   8.669
 3083TIP3    H230809   6.620   2.972   8.660
 3084TIP3   OH230810   3.834   3.097   7.180
 3084TIP3    H130811   3.812   3.173   7.235
 3084TIP3    H230812   3.887   3.041   7.237
 3085TIP3   OH230813   6.139   0.176   0.327
 3085TIP3    H130814   6.170   0.263   0.299
 3085TIP3    H230815   6.096   0.192   0.411
 3086TIP3   OH230816   0.278   6.829   0.881
 3086TIP3    H130817   0.357   6.802   0.929
 3086TIP3    H230818   0.248   6.750   0.837
 3087TIP3   OH230819   3.894   1.805   6.900
 3087TIP3    H130820   3.861   1.876   6.955
 3087TIP3    H230821   3.947   1.849   6.834
 3088TIP3   OH230822   2.484   0.946   7.576
 3088TIP3    H130823   2.451   0.971   7.489
 3088TIP3    H230824   2.427   0.991   7.637
 3089TIP3   OH230825   3.106   1.905   0.308
 3089TIP3    H130826   3.071   1.894   0.220
 3089TIP3    H230827   3.064   1.837   0.360
 3090TIP3   OH230828   2.259   4.066   6.389
 3090TIP3    H130829   2.242   4.099   6.477
 3090TIP3    H230830   2.281   3.974   6.401
 3091TIP3   OH230831   5.853   6.270   7.784
 3091TIP3    H130832   5.901   6.328   7.844
 3091TIP3    H230833   5.915   6.199   7.766
 3092TIP3   OH230834   4.851   6.275   1.793
 3092TIP3    H130835   4.942   6.295   1.814
 3092TIP3    H230836   4.818   6.226   1.868
 3093TIP3   OH230837   3.064   1.520   0.105
 3093TIP3    H130838   3.020   1.459   0.047
 3093TIP3    H230839   3.152   1.484   0.116
 3094TIP3   OH230840   0.186   6.024   0.004
 3094TIP3    H130841   0.160   5.954   0.065
 3094TIP3    H230842   0.191   6.102   0.059
 3095TIP3   OH230843   6.341   5.835   7.448
 3095TIP3    H130844   6.416   5.844   7.508
 3095TIP3    H230845   6.269   5.808   7.504
 3096TIP3   OH230846   6.584   2.075   0.503
 3096TIP3    H130847   6.669   2.030   0.507
 3096TIP3    H230848   6.543   2.039   0.424
 3097TIP3   OH230849   4.386   5.793   7.439
 3097TIP3    H130850   4.417   5.860   7.377
 3097TIP3    H230851   4.295   5.816   7.455
 3098TIP3   OH230852   0.132   2.487   6.742
 3098TIP3    H130853   0.109   2.505   6.833
 3098TIP3    H230854   0.049   2.466   6.700
 3099TIP3   OH230855   0.078   1.685   7.153
 3099TIP3    H130856   0.087   1.738   7.074
 3099TIP3    H230857   0.156   1.630   7.155
 3100TIP3   OH230858   3.183   0.341   7.142
 3100TIP3    H130859   3.137   0.261   7.116
 3100TIP3    H230860   3.130   0.412   7.104
 3101TIP3   OH230861   4.777   6.093   0.535
 3101TIP3    H130862   4.707   6.079   0.472
 3101TIP3    H230863   4.743   6.159   0.595
 3102TIP3   OH230864   2.847   6.043   6.802
 3102TIP3    H130865   2.931   5.999   6.804
 3102TIP3    H230866   2.857   6.112   6.736
 3103TIP3   OH230867   1.052   5.131   1.847
 3103TIP3    H130868   1.090   5.219   1.850
 3103TIP3    H230869   1.107   5.084   1.784
 3104TIP3   OH230870   3.522   2.374   7.784
 3104TIP3    H130871   3.479   2.363   7.869
 3104TIP3    H230872   3.457   2.344   7.720
 3105TIP3   OH230873   5.339   4.224   0.467
 3105TIP3    H130874   5.305   4.260   0.549
 3105TIP3    H230875   5.395   4.293   0.431
 3106TIP3   OH230876   0.433   1.582   0.454
 3106TIP3    H130877   0.444   1.495   0.414
 3106TIP3    H230878   0.500   1.585   0.523
 3107TIP3   OH230879   2.070   6.064   7.582
 3107TIP3    H130880   1.991   6.118   7.572
 3107TIP3    H230881   2.036   5.975   7.593
 3108TIP3   OH230882   2.374   1.878   8.161
 3108TIP3    H130883   2.337   1.831   8.087
 3108TIP3    H230884   2.425   1.813   8.209
 3109TIP3   OH230885   6.747   1.344   1.836
 3109TIP3    H130886   6.750   1.295   1.754
 3109TIP3    H230887   6.715   1.431   1.810
 3110TIP3   OH230888   6.847   5.770   2.364
 3110TIP3    H130889   0.083   5.796   2.385
 3110TIP3    H230890   0.001   5.715   2.286
 3111TIP3   OH230891   0.470   3.647   0.404
 3111TIP3    H130892   0.397   3.645   0.343
 3111TIP3    H230893   0.472   3.559   0.442
 3112TIP3   OH230894   3.307   5.699   0.438
 3112TIP3    H130895   3.329   5.606   0.439
 3112TIP3    H230896   3.290   5.721   0.529
 3113TIP3   OH230897   4.874   6.424   1.561
 3113TIP3    H130898   4.957   6.427   1.513
 3113TIP3    H230899   4.894   6.371   1.638
 3114TIP3   OH230900   4.955   2.775   1.628
 3114TIP3    H130901   4.879   2.804   1.577
 3114TIP3    H230902   4.996   2.855   1.658
 3115TIP3   OH230903   1.851   3.260   7.772
 3115TIP3    H130904   1.774   3.211   7.744
 3115TIP3    H230905   1.914   3.193   7.797
 3116TIP3   OH230906   1.730   1.252   1.421
 3116TIP3    H130907   1.638   1.273   1.439
 3116TIP3    H230908   1.727   1.187   1.351
 3117TIP3   OH230909   1.980   4.786   8.100
 3117TIP3    H130910   1.911   4.848   8.122
 3117TIP3    H230911   2.050   4.805   8.162
 3118TIP3   OH230912   6.421   1.355   1.966
 3118TIP3    H130913   6.479   1.422   2.000
 3118TIP3    H230914   6.474   1.276   1.963
 3119TIP3   OH230915   0.663   5.798   7.097
 3119TIP3    H130916   0.615   5.858   7.040
 3119TIP3    H230917   0.711   5.741   7.037
 3120TIP3   OH230918   5.259   0.342   0.864
 3120TIP3    H130919   5.217   0.429   0.868
 3120TIP3    H230920   5.325   0.350   0.796
 3121TIP3   OH230921   2.109   5.237   1.591
 3121TIP3    H130922   2.088   5.226   1.683
 3121TIP3    H230923   2.149   5.154   1.565
 3122TIP3   OH230924   3.451   4.223   6.686
 3122TIP3    H130925   3.371   4.180   6.657
 3122TIP3    H230926   3.432   4.249   6.776
 3123TIP3   OH230927   4.589   3.044   8.429
 3123TIP3    H130928   4.538   3.069   8.506
 3123TIP3    H230929   4.597   3.124   8.378
 3124TIP3   OH230930   1.125   6.393   0.173
 3124TIP3    H130931   1.113   6.334   0.098
 3124TIP3    H230932   1.183   6.462   0.140
 3125TIP3   OH230933   4.406   3.757   0.979
 3125TIP3    H130934   4.469   3.826   0.959
 3125TIP3    H230935   4.358   3.789   1.055
 3126TIP3   OH230936   6.711   2.076   6.170
 3126TIP3    H130937   6.769   2.094   6.243
 3126TIP3    H230938   6.765   2.086   6.092
 3127TIP3   OH230939   2.122   1.901   8.711
 3127TIP3    H130940   2.160   1.923   0.070
 3127TIP3    H230941   2.124   1.984   8.662
 3128TIP3   OH230942   3.374   5.206   0.430
 3128TIP3    H130943   3.464   5.173   0.425
 3128TIP3    H230944   3.319   5.132   0.404
 3129TIP3   OH230945   1.807   2.204   8.432
 3129TIP3    H130946   1.816   2.123   8.483
 3129TIP3    H230947   1.896   2.230   8.413
 3130TIP3   OH230948   5.048   6.575   5.840
 3130TIP3    H130949   4.968   6.523   5.834
 3130TIP3    H230950   5.051   6.625   5.759
 3131TIP3   OH230951   3.623   0.466   7.146
 3131TIP3    H130952   3.661   0.379   7.139
 3131TIP3    H230953   3.697   0.522   7.171
 3132TIP3   OH230954   4.131   4.355   7.310
 3132TIP3    H130955   4.049   4.308   7.291
 3132TIP3    H230956   4.173   4.365   7.224
 3133TIP3   OH230957   6.530   1.117   1.943
 3133TIP3    H130958   6.611   1.088   1.902
 3133TIP3    H230959   6.490   1.036   1.976
 3134TIP3   OH230960   5.663   2.554   1.632
 3134TIP3    H130961   5.689   2.521   1.718
 3134TIP3    H230962   5.637   2.645   1.649
 3135TIP3   OH230963   0.325   2.641   0.752
 3135TIP3    H130964   0.353   2.575   0.689
 3135TIP3    H230965   0.242   2.607   0.787
 3136TIP3   OH230966   2.239   4.841   8.153
 3136TIP3    H130967   2.328   4.870   8.177
 3136TIP3    H230968   2.216   4.895   8.078
 3137TIP3   OH230969   2.121   6.060   8.615
 3137TIP3    H130970   2.151   6.101   8.535
 3137TIP3    H230971   2.144   6.122   8.684
 3138TIP3   OH230972   1.708   0.900   0.209
 3138TIP3    H130973   1.656   0.973   0.243
 3138TIP3    H230974   1.672   0.822   0.253
 3139TIP3   OH230975   1.280   6.104   1.400
 3139TIP3    H130976   1.276   6.198   1.383
 3139TIP3    H230977   1.247   6.094   1.489
 3140TIP3   OH230978   4.578   3.973   1.076
 3140TIP3    H130979   4.668   3.961   1.045
 3140TIP3    H230980   4.559   4.065   1.058
 3141TIP3   OH230981   2.247   3.354   0.058
 3141TIP3    H130982   2.276   3.397   0.139
 3141TIP3    H230983   2.152   3.370   0.056
 3142TIP3   OH230984   6.568   6.806   6.674
 3142TIP3    H130985   6.558   6.769   6.586
 3142TIP3    H230986   6.495   6.770   6.724
 3143TIP3   OH230987   5.839   2.728   8.625
 3143TIP3    H130988   5.818   2.811   8.668
 3143TIP3    H230989   5.911   2.692   8.676
 3144TIP3   OH230990   6.338   3.126   0.942
 3144TIP3    H130991   6.299   3.093   1.023
 3144TIP3    H230992   6.431   3.133   0.961
 3145TIP3   OH230993   2.645   5.224   0.079
 3145TIP3    H130994   2.616   5.150   0.131
 3145TIP3    H230995   2.597   5.216   8.722
 3146TIP3   OH230996   5.881   6.341   2.019
 3146TIP3    H130997   5.944   6.342   2.091
 3146TIP3    H230998   5.929   6.301   1.946
 3147TIP3   OH230999   5.830   1.134   7.092
 3147TIP3    H131000   5.883   1.213   7.087
 3147TIP3    H231001   5.858   1.082   7.017
 3148TIP3   OH231002   6.695   1.844   8.614
 3148TIP3    H131003   6.668   1.923   8.567
 3148TIP3    H231004   6.641   1.775   8.576
 3149TIP3   OH231005   2.486   2.544   1.183
 3149TIP3    H131006   2.435   2.549   1.264
 3149TIP3    H231007   2.497   2.636   1.157
 3150TIP3   OH231008   2.216   0.199   0.091
 3150TIP3    H131009   2.284   0.158   0.038
 3150TIP3    H231010   2.136   0.187   0.041
 3151TIP3   OH231011   2.978   5.854   0.782
 3151TIP3    H131012   2.924   5.847   0.703
 3151TIP3    H231013   2.943   5.787   0.841
 3152TIP3   OH231014   0.544   3.819   0.096
 3152TIP3    H131015   0.474   3.754   0.086
 3152TIP3    H231016   0.512   3.878   0.164
 3153TIP3   OH231017   6.097   0.797   7.829
 3153TIP3    H131018   6.131   0.737   7.895
 3153TIP3    H231019   6.150   0.877   7.839
 3154TIP3   OH231020   5.234   2.305   7.406
 3154TIP3    H131021   5.228   2.373   7.338
 3154TIP3    H231022   5.238   2.223   7.357
 3155TIP3   OH231023   6.121   3.876   0.712
 3155TIP3    H131024   6.140   3.859   0.620
 3155TIP3    H231025   6.207   3.887   0.752
 3156TIP3   OH231026   3.776   4.490   6.438
 3156TIP3    H131027   3.865   4.473   6.467
 3156TIP3    H231028   3.771   4.585   6.427
 3157TIP3   OH231029   6.205   1.381   1.384
 3157TIP3    H131030   6.280   1.389   1.444
 3157TIP3    H231031   6.200   1.288   1.365
 3158TIP3   OH231032   1.258   4.912   0.296
 3158TIP3    H131033   1.338   4.958   0.270
 3158TIP3    H231034   1.195   4.982   0.313
 3159TIP3   OH231035   1.155   4.940   7.544
 3159TIP3    H131036   1.215   4.984   7.483
 3159TIP3    H231037   1.082   4.911   7.489
 3160TIP3   OH231038   5.380   1.219   0.196
 3160TIP3    H131039   5.349   1.219   0.286
 3160TIP3    H231040   5.321   1.279   0.150
 3161TIP3   OH231041   3.373   6.384   6.285
 3161TIP3    H131042   3.341   6.367   6.197
 3161TIP3    H231043   3.338   6.311   6.337
 3162TIP3   OH231044   1.139   4.451   8.628
 3162TIP3    H131045   1.158   4.545   8.630
 3162TIP3    H231046   1.224   4.409   8.613
 3163TIP3   OH231047   3.157   2.581   8.702
 3163TIP3    H131048   3.140   2.674   8.688
 3163TIP3    H231049   3.224   2.579   0.045
 3164TIP3   OH231050   4.026   0.765   7.877
 3164TIP3    H131051   3.946   0.816   7.888
 3164TIP3    H231052   4.007   0.682   7.920
 3165TIP3   OH231053   1.548   3.076   7.529
 3165TIP3    H131054   1.588   3.163   7.527
 3165TIP3    H231055   1.586   3.034   7.606
 3166TIP3   OH231056   1.436   5.815   6.508
 3166TIP3    H131057   1.346   5.826   6.538
 3166TIP3    H231058   1.459   5.725   6.531
 3167TIP3   OH231059   3.378   4.372   1.800
 3167TIP3    H131060   3.332   4.354   1.881
 3167TIP3    H231061   3.320   4.430   1.751
 3168TIP3   OH231062   6.119   1.730   1.532
 3168TIP3    H131063   6.150   1.801   1.476
 3168TIP3    H231064   6.061   1.772   1.595
 3169TIP3   OH231065   6.559   3.278   8.645
 3169TIP3    H131066   6.620   3.321   8.706
 3169TIP3    H231067   6.554   3.188   8.675
 3170TIP3   OH231068   6.365   0.145   1.546
 3170TIP3    H131069   6.304   0.207   1.586
 3170TIP3    H231070   6.348   0.062   1.591
 3171TIP3   OH231071   0.264   1.886   7.454
 3171TIP3    H131072   0.313   1.810   7.424
 3171TIP3    H231073   0.272   1.950   7.384
 3172TIP3   OH231074   3.638   3.745   7.259
 3172TIP3    H131075   3.703   3.812   7.280
 3172TIP3    H231076   3.555   3.792   7.257
 3173TIP3   OH231077   5.000   2.509   7.400
 3173TIP3    H131078   4.993   2.427   7.351
 3173TIP3    H231079   4.957   2.574   7.345
 3174TIP3   OH231080   1.641   1.308   7.908
 3174TIP3    H131081   1.590   1.388   7.898
 3174TIP3    H231082   1.637   1.288   8.001
 3175TIP3   OH231083   4.386   4.908   1.053
 3175TIP3    H131084   4.462   4.947   1.096
 3175TIP3    H231085   4.418   4.824   1.020
 3176TIP3   OH231086   1.919   2.140   0.123
 3176TIP3    H131087   1.842   2.135   0.066
 3176TIP3    H231088   1.986   2.179   0.068
 3177TIP3   OH231089   5.611   5.268   7.935
 3177TIP3    H131090   5.650   5.243   7.851
 3177TIP3    H231091   5.522   5.294   7.914
 3178TIP3   OH231092   0.329   4.918   0.029
 3178TIP3    H131093   0.276   4.840   0.009
 3178TIP3    H231094   0.265   4.989   0.030
 3179TIP3   OH231095   5.460   6.691   2.597
 3179TIP3    H131096   5.413   6.773   2.585
 3179TIP3    H231097   5.425   6.633   2.529
 3180TIP3   OH231098   3.270   3.509   6.563
 3180TIP3    H131099   3.334   3.495   6.494
 3180TIP3    H231100   3.311   3.572   6.621
 3181TIP3   OH231101   5.641   5.765   7.109
 3181TIP3    H131102   5.730   5.734   7.126
 3181TIP3    H231103   5.647   5.860   7.118
 3182TIP3   OH231104   5.475   5.027   0.989
 3182TIP3    H131105   5.536   5.004   0.919
 3182TIP3    H231106   5.453   5.118   0.972
 3183TIP3   OH231107   4.913   2.227   7.233
 3183TIP3    H131108   4.997   2.225   7.188
 3183TIP3    H231109   4.882   2.137   7.230
 3184TIP3   OH231110   6.382   3.062   8.289
 3184TIP3    H131111   6.425   3.036   8.207
 3184TIP3    H231112   6.424   3.144   8.313
 3185TIP3   OH231113   3.571   0.664   6.954
 3185TIP3    H131114   3.608   0.626   6.874
 3185TIP3    H231115   3.564   0.591   7.014
 3186TIP3   OH231116   3.317   3.529   7.097
 3186TIP3    H131117   3.240   3.480   7.068
 3186TIP3    H231118   3.325   3.508   7.190
 3187TIP3   OH231119   3.248   4.614   1.723
 3187TIP3    H131120   3.291   4.653   1.647
 3187TIP3    H231121   3.159   4.650   1.722
 3188TIP3   OH231122   1.236   0.776   8.436
 3188TIP3    H131123   1.327   0.746   8.444
 3188TIP3    H231124   1.190   0.704   8.393
 3189TIP3   OH231125   1.885   2.061   0.614
 3189TIP3    H131126   1.866   2.056   0.708
 3189TIP3    H231127   1.800   2.050   0.572
 3190TIP3   OH231128   1.342   3.826   7.824
 3190TIP3    H131129   1.337   3.854   7.915
 3190TIP3    H231130   1.272   3.874   7.780
 3191TIP3   OH231131   5.907   5.487   8.538
 3191TIP3    H131132   5.927   5.501   8.630
 3191TIP3    H231133   5.969   5.420   8.509
 3192TIP3   OH231134   0.878   1.506   7.847
 3192TIP3    H131135   0.964   1.498   7.887
 3192TIP3    H231136   0.822   1.539   7.917
 3193TIP3   OH231137   0.567   6.024   0.673
 3193TIP3    H131138   0.529   5.963   0.737
 3193TIP3    H231139   0.571   6.107   0.719
 3194TIP3   OH231140   0.289   4.131   0.007
 3194TIP3    H131141   0.371   4.157   0.048
 3194TIP3    H231142   0.309   4.128   8.639
 3195TIP3   OH231143   3.471   1.007   7.498
 3195TIP3    H131144   3.389   1.001   7.548
 3195TIP3    H231145   3.528   0.942   7.538
 3196TIP3   OH231146   0.492   6.746   1.873
 3196TIP3    H131147   0.491   6.827   1.924
 3196TIP3    H231148   0.576   6.706   1.893
 3197TIP3   OH231149   6.071   2.013   6.857
 3197TIP3    H131150   6.102   2.090   6.905
 3197TIP3    H231151   5.989   2.042   6.816
 3198TIP3   OH231152   3.786   3.069   0.663
 3198TIP3    H131153   3.808   3.040   0.575
 3198TIP3    H231154   3.708   3.123   0.653
 3199TIP3   OH231155   4.383   3.304   7.417
 3199TIP3    H131156   4.349   3.371   7.358
 3199TIP3    H231157   4.422   3.239   7.359
 3200TIP3   OH231158   4.840   3.033   1.360
 3200TIP3    H131159   4.811   3.122   1.381
 3200TIP3    H231160   4.914   3.045   1.300
 3201TIP3   OH231161   1.682   1.060   2.546
 3201TIP3    H131162   1.777   1.067   2.554
 3201TIP3    H231163   1.660   0.973   2.578
 3202TIP3   OH231164   3.879   5.467   0.170
 3202TIP3    H131165   3.852   5.540   0.115
 3202TIP3    H231166   3.798   5.433   0.207
 3203TIP3   OH231167   6.263   3.085   8.721
 3203TIP3    H131168   6.228   2.996   0.005
 3203TIP3    H231169   6.225   3.116   8.639
 3204TIP3   OH231170   5.556   0.500   7.617
 3204TIP3    H131171   5.647   0.480   7.637
 3204TIP3    H231172   5.536   0.446   7.541
 3205TIP3   OH231173   3.790   6.700   1.503
 3205TIP3    H131174   3.720   6.699   1.568
 3205TIP3    H231175   3.815   6.792   1.495
 3206TIP3   OH231176   3.154   3.948   0.305
 3206TIP3    H131177   3.065   3.924   0.331
 3206TIP3    H231178   3.190   3.868   0.268
 3207TIP3   OH231179   5.798   2.971   0.004
 3207TIP3    H131180   5.828   3.052   8.689
 3207TIP3    H231181   5.855   2.960   0.080
 3208TIP3   OH231182   6.757   1.215   1.574
 3208TIP3    H131183   6.748   1.121   1.590
 3208TIP3    H231184   6.756   1.223   1.478
 3209TIP3   OH231185   0.685   0.489   1.492
 3209TIP3    H131186   0.659   0.580   1.486
 3209TIP3    H231187   0.656   0.461   1.579
 3210TIP3   OH231188   2.873   0.169   0.016
 3210TIP3    H131189   2.795   0.133   8.701
 3210TIP3    H231190   2.840   0.230   0.082
 3211TIP3   OH231191   4.980   6.245   8.143
 3211TIP3    H131192   4.926   6.233   8.221
 3211TIP3    H231193   4.918   6.270   8.075
 3212TIP3   OH231194   4.683   5.911   7.597
 3212TIP3    H131195   4.646   5.871   7.518
 3212TIP3    H231196   4.638   5.867   7.669
 3213TIP3   OH231197   0.133   0.974   1.510
 3213TIP3    H131198   0.166   0.974   1.600
 3213TIP3    H231199   0.178   1.047   1.468
 3214TIP3   OH231200   1.377   6.430   8.708
 3214TIP3    H131201   1.409   6.363   8.647
 3214TIP3    H231202   1.357   6.505   8.653
 3215TIP3   OH231203   6.465   6.335   1.652
 3215TIP3    H131204   6.547   6.347   1.603
 3215TIP3    H231205   6.493   6.320   1.742
 3216TIP3   OH231206   0.177   6.278   7.558
 3216TIP3    H131207   0.224   6.316   7.632
 3216TIP3    H231208   0.241   6.220   7.516
 3217TIP3   OH231209   5.623   6.702   7.559
 3217TIP3    H131210   5.593   6.781   7.605
 3217TIP3    H231211   5.624   6.634   7.626
 3218TIP3   OH231212   1.631   2.029   7.636
 3218TIP3    H131213   1.555   2.042   7.579
 3218TIP3    H231214   1.705   2.058   7.583
 3219TIP3   OH231215   4.390   1.678   2.032
 3219TIP3    H131216   4.391   1.610   2.099
 3219TIP3    H231217   4.328   1.647   1.967
 3220TIP3   OH231218   3.085   0.750   1.381
 3220TIP3    H131219   3.105   0.683   1.315
 3220TIP3    H231220   3.166   0.757   1.432
 3221TIP3   OH231221   4.108   2.708   8.370
 3221TIP3    H131222   4.113   2.620   8.407
 3221TIP3    H231223   4.021   2.739   8.392
 3222TIP3   OH231224   3.711   6.662   7.856
 3222TIP3    H131225   3.720   6.601   7.929
 3222TIP3    H231226   3.632   6.711   7.875
 3223TIP3   OH231227   2.321   2.451   8.721
 3223TIP3    H131228   2.280   2.486   8.642
 3223TIP3    H231229   2.411   2.430   8.695
 3224TIP3   OH231230   2.505   5.507   1.555
 3224TIP3    H131231   2.543   5.439   1.610
 3224TIP3    H231232   2.418   5.474   1.533
 3225TIP3   OH231233   5.386   2.898   7.356
 3225TIP3    H131234   5.332   2.825   7.326
 3225TIP3    H231235   5.430   2.930   7.277
 3226TIP3   OH231236   3.260   5.398   0.669
 3226TIP3    H131237   3.289   5.369   0.583
 3226TIP3    H231238   3.273   5.322   0.726
 3227TIP3   OH231239   1.619   3.066   7.960
 3227TIP3    H131240   1.548   3.126   7.937
 3227TIP3    H231241   1.653   3.035   7.875
 3228TIP3   OH231242   5.664   6.293   8.014
 3228TIP3    H131243   5.741   6.265   7.964
 3228TIP3    H231244   5.594   6.234   7.986
 3229TIP3   OH231245   3.070   5.947   1.622
 3229TIP3    H131246   3.059   5.922   1.531
 3229TIP3    H231247   3.101   6.038   1.618
 3230TIP3   OH231248   0.605   3.141   0.385
 3230TIP3    H131249   0.517   3.175   0.370
 3230TIP3    H231250   0.603   3.109   0.475
 3231TIP3   OH231251   0.295   6.218   2.092
 3231TIP3    H131252   0.324   6.181   2.175
 3231TIP3    H231253   0.317   6.311   2.098
 3232TIP3   OH231254   0.215   1.303   1.746
 3232TIP3    H131255   0.156   1.232   1.720
 3232TIP3    H231256   0.297   1.259   1.768
 3233TIP3   OH231257   3.170   1.195   7.198
 3233TIP3    H131258   3.153   1.113   7.151
 3233TIP3    H231259   3.158   1.263   7.132
 3234TIP3   OH231260   1.942   3.266   1.600
 3234TIP3    H131261   1.950   3.307   1.514
 3234TIP3    H231262   1.851   3.278   1.625
 3235TIP3   OH231263   2.357   5.723   8.499
 3235TIP3    H131264   2.278   5.774   8.480
 3235TIP3    H231265   2.370   5.734   8.594
 3236TIP3   OH231266   1.334   3.948   0.505
 3236TIP3    H131267   1.396   3.876   0.498
 3236TIP3    H231268   1.254   3.908   0.538
 3237TIP3   OH231269   2.376   3.904   0.370
 3237TIP3    H131270   2.296   3.928   0.323
 3237TIP3    H231271   2.394   3.814   0.342
 3238TIP3   OH231272   1.311   0.022   6.190
 3238TIP3    H131273   1.225   0.052   6.161
 3238TIP3    H231274   1.373   0.080   6.145
 3239TIP3   OH231275   5.040   1.873   6.059
 3239TIP3    H131276   5.037   1.784   6.094
 3239TIP3    H231277   5.074   1.926   6.131
 3240TIP3   OH231278   4.776   4.899   0.707
 3240TIP3    H131279   4.850   4.953   0.734
 3240TIP3    H231280   4.812   4.840   0.640
 3241TIP3   OH231281   5.258   5.939   7.234
 3241TIP3    H131282   5.350   5.951   7.211
 3241TIP3    H231283   5.247   5.844   7.238
 3242TIP3   OH231284   5.952   2.700   7.430
 3242TIP3    H131285   5.867   2.663   7.407
 3242TIP3    H231286   6.016   2.639   7.393
 3243TIP3   OH231287   3.343   6.474   2.294
 3243TIP3    H131288   3.260   6.430   2.276
 3243TIP3    H231289   3.319   6.562   2.322
 3244TIP3   OH231290   3.057   3.828   8.105
 3244TIP3    H131291   3.012   3.754   8.064
 3244TIP3    H231292   3.128   3.788   8.156
 3245TIP3   OH231293   2.181   0.227   6.850
 3245TIP3    H131294   2.185   0.138   6.815
 3245TIP3    H231295   2.268   0.263   6.834
 3246TIP3   OH231296   2.554   1.883   0.504
 3246TIP3    H131297   2.649   1.888   0.491
 3246TIP3    H231298   2.516   1.927   0.428
 3247TIP3   OH231299   1.838   6.585   0.361
 3247TIP3    H131300   1.798   6.623   0.283
 3247TIP3    H231301   1.768   6.586   0.427
 3248TIP3   OH231302   1.075   1.977   7.830
 3248TIP3    H131303   1.087   1.920   7.754
 3248TIP3    H231304   1.103   2.064   7.798
 3249TIP3   OH231305   4.708   1.093   1.107
 3249TIP3    H131306   4.637   1.156   1.114
 3249TIP3    H231307   4.787   1.142   1.131
 3250TIP3   OH231308   1.662   0.922   1.538
 3250TIP3    H131309   1.741   0.965   1.504
 3250TIP3    H231310   1.663   0.835   1.498
 3251TIP3   OH231311   4.752   3.411   8.657
 3251TIP3    H131312   4.778   3.453   8.575
 3251TIP3    H231313   4.657   3.418   8.659
 3252TIP3   OH231314   1.584   3.818   7.695
 3252TIP3    H131315   1.618   3.733   7.725
 3252TIP3    H231316   1.501   3.827   7.740
 3253TIP3   OH231317   5.776   2.664   7.643
 3253TIP3    H131318   5.721   2.742   7.651
 3253TIP3    H231319   5.717   2.598   7.607
 3254TIP3   OH231320   4.802   1.733   8.196
 3254TIP3    H131321   4.729   1.787   8.167
 3254TIP3    H231322   4.857   1.723   8.118
 3255TIP3   OH231323   5.969   4.652   8.120
 3255TIP3    H131324   5.924   4.727   8.081
 3255TIP3    H231325   5.900   4.588   8.135
 3256TIP3   OH231326   2.084   5.390   0.756
 3256TIP3    H131327   2.108   5.404   0.664
 3256TIP3    H231328   2.026   5.313   0.754
 3257TIP3   OH231329   1.289   0.585   7.595
 3257TIP3    H131330   1.301   0.611   7.686
 3257TIP3    H231331   1.335   0.502   7.587
 3258TIP3   OH231332   4.147   3.455   0.274
 3258TIP3    H131333   4.238   3.447   0.303
 3258TIP3    H231334   4.099   3.393   0.329
 3259TIP3   OH231335   5.477   4.862   0.735
 3259TIP3    H131336   5.573   4.863   0.736
 3259TIP3    H231337   5.454   4.770   0.747
 3260TIP3   OH231338   0.619   2.641   1.298
 3260TIP3    H131339   0.670   2.564   1.274
 3260TIP3    H231340   0.528   2.611   1.298
 3261TIP3   OH231341   3.096   5.581   6.955
 3261TIP3    H131342   3.134   5.660   6.994
 3261TIP3    H231343   3.087   5.601   6.862
 3262TIP3   OH231344   6.537   2.239   6.017
 3262TIP3    H131345   6.574   2.172   6.075
 3262TIP3    H231346   6.598   2.312   6.023
 3263TIP3   OH231347   0.202   2.649   0.071
 3263TIP3    H131348   0.235   2.657   0.160
 3263TIP3    H231349   0.253   2.713   0.021
 3264TIP3   OH231350   5.941   0.645   6.829
 3264TIP3    H131351   5.877   0.587   6.788
 3264TIP3    H231352   5.890   0.693   6.895
 3265TIP3   OH231353   2.953   3.489   0.444
 3265TIP3    H131354   3.010   3.433   0.391
 3265TIP3    H231355   2.884   3.517   0.384
 3266TIP3   OH231356   2.455   2.080   1.179
 3266TIP3    H131357   2.530   2.052   1.126
 3266TIP3    H231358   2.380   2.042   1.136
 3267TIP3   OH231359   6.468   2.682   1.612
 3267TIP3    H131360   6.463   2.758   1.554
 3267TIP3    H231361   6.478   2.720   1.699
 3268TIP3   OH231362   6.336   1.683   7.243
 3268TIP3    H131363   6.255   1.720   7.206
 3268TIP3    H231364   6.398   1.684   7.170
 3269TIP3   OH231365   4.026   0.226   8.403
 3269TIP3    H131366   3.955   0.249   8.344
 3269TIP3    H231367   4.098   0.285   8.379
 3270TIP3   OH231368   6.161   5.127   0.829
 3270TIP3    H131369   6.093   5.060   0.835
 3270TIP3    H231370   6.202   5.128   0.915
 3271TIP3   OH231371   6.138   6.226   1.064
 3271TIP3    H131372   6.172   6.148   1.107
 3271TIP3    H231373   6.155   6.298   1.126
 3272TIP3   OH231374   3.396   4.956   7.309
 3272TIP3    H131375   3.378   5.020   7.241
 3272TIP3    H231376   3.346   4.987   7.385
 3273TIP3   OH231377   2.243   2.596   1.549
 3273TIP3    H131378   2.191   2.616   1.627
 3273TIP3    H231379   2.275   2.507   1.563
 3274TIP3   OH231380   4.766   3.149   1.721
 3274TIP3    H131381   4.856   3.117   1.713
 3274TIP3    H231382   4.756   3.211   1.649
 3275TIP3   OH231383   4.690   3.229   0.913
 3275TIP3    H131384   4.663   3.246   1.003
 3275TIP3    H231385   4.785   3.235   0.916
 3276TIP3   OH231386   2.744   1.487   1.067
 3276TIP3    H131387   2.793   1.417   1.109
 3276TIP3    H231388   2.810   1.538   1.019
 3277TIP3   OH231389   2.513   4.877   8.186
 3277TIP3    H131390   2.590   4.836   8.147
 3277TIP3    H231391   2.534   4.882   8.280
 3278TIP3   OH231392   3.980   4.174   0.446
 3278TIP3    H131393   3.942   4.097   0.488
 3278TIP3    H231394   4.038   4.211   0.513
 3279TIP3   OH231395   5.245   6.796   0.565
 3279TIP3    H131396   5.152   6.793   0.543
 3279TIP3    H231397   5.249   6.846   0.647
 3280TIP3   OH231398   0.998   0.387   1.396
 3280TIP3    H131399   0.938   0.352   1.330
 3280TIP3    H231400   0.940   0.426   1.462
 3281TIP3   OH231401   2.341   0.467   7.984
 3281TIP3    H131402   2.427   0.450   7.947
 3281TIP3    H231403   2.356   0.537   8.048
 3282TIP3   OH231404   5.400   2.091   1.439
 3282TIP3    H131405   5.392   2.078   1.534
 3282TIP3    H231406   5.417   2.185   1.430
 3283TIP3   OH231407   6.706   1.772   1.308
 3283TIP3    H131408   6.800   1.785   1.301
 3283TIP3    H231409   6.669   1.817   1.232
 3284TIP3   OH231410   1.247   6.379   1.334
 3284TIP3    H131411   1.165   6.362   1.288
 3284TIP3    H231412   1.255   6.475   1.334
 3285TIP3   OH231413   3.138   1.421   1.746
 3285TIP3    H131414   3.116   1.513   1.733
 3285TIP3    H231415   3.223   1.423   1.789
 3286TIP3   OH231416   4.170   5.328   7.575
 3286TIP3    H131417   4.099   5.339   7.638
 3286TIP3    H231418   4.249   5.325   7.628
 3287TIP3   OH231419   1.853   5.914   2.468
 3287TIP3    H131420   1.862   5.935   2.560
 3287TIP3    H231421   1.864   5.998   2.423
 3288TIP3   OH231422   0.650   0.879   1.131
 3288TIP3    H131423   0.613   0.791   1.141
 3288TIP3    H231424   0.584   0.927   1.080
 3289TIP3   OH231425   2.976   1.668   0.963
 3289TIP3    H131426   3.055   1.639   1.008
 3289TIP3    H231427   2.966   1.760   0.988
 3290TIP3   OH231428   4.257   3.439   7.219
 3290TIP3    H131429   4.329   3.462   7.159
 3290TIP3    H231430   4.192   3.508   7.205
 3291TIP3   OH231431   0.548   2.260   8.405
 3291TIP3    H131432   0.643   2.264   8.414
 3291TIP3    H231433   0.533   2.251   8.311
 3292TIP3   OH231434   6.554   6.271   1.908
 3292TIP3    H131435   6.644   6.245   1.891
 3292TIP3    H231436   6.561   6.354   1.956
 3293TIP3   OH231437   1.654   3.072   2.134
 3293TIP3    H131438   1.562   3.052   2.151
 3293TIP3    H231439   1.652   3.133   2.061
 3294TIP3   OH231440   2.521   6.752   7.029
 3294TIP3    H131441   2.568   6.834   7.044
 3294TIP3    H231442   2.549   6.724   6.942
 3295TIP3   OH231443   1.050   4.196   0.227
 3295TIP3    H131444   1.038   4.252   0.303
 3295TIP3    H231445   1.141   4.165   0.234
 3296TIP3   OH231446   4.192   5.875   0.882
 3296TIP3    H131447   4.188   5.780   0.875
 3296TIP3    H231448   4.281   5.897   0.852
 3297TIP3   OH231449   5.447   6.410   2.233
 3297TIP3    H131450   5.489   6.329   2.263
 3297TIP3    H231451   5.382   6.430   2.301
 3298TIP3   OH231452   5.341   2.032   0.139
 3298TIP3    H131453   5.304   1.957   0.184
 3298TIP3    H231454   5.412   2.062   0.196
 3299TIP3   OH231455   0.380   3.680   7.494
 3299TIP3    H131456   0.472   3.679   7.468
 3299TIP3    H231457   0.335   3.722   7.421
 3300TIP3   OH231458   5.466   6.516   1.695
 3300TIP3    H131459   5.375   6.543   1.698
 3300TIP3    H231460   5.476   6.455   1.768
 3301TIP3   OH231461   6.446   1.984   1.170
 3301TIP3    H131462   6.534   1.973   1.132
 3301TIP3    H231463   6.427   2.077   1.158
 3302TIP3   OH231464   0.613   3.890   6.707
 3302TIP3    H131465   0.686   3.889   6.645
 3302TIP3    H231466   0.648   3.933   6.785
 3303TIP3   OH231467   0.307   6.134   1.076
 3303TIP3    H131468   0.394   6.147   1.113
 3303TIP3    H231469   0.318   6.061   1.014
 3304TIP3   OH231470   6.388   4.634   7.036
 3304TIP3    H131471   6.319   4.624   7.102
 3304TIP3    H231472   6.363   4.575   6.965
 3305TIP3   OH231473   5.412   1.575   7.560
 3305TIP3    H131474   5.428   1.503   7.620
 3305TIP3    H231475   5.351   1.539   7.494
 3306TIP3   OH231476   4.065   3.141   7.727
 3306TIP3    H131477   4.134   3.205   7.746
 3306TIP3    H231478   4.045   3.153   7.634
 3307TIP3   OH231479   4.520   0.146   1.346
 3307TIP3    H131480   4.486   0.060   1.319
 3307TIP3    H231481   4.490   0.205   1.277
 3308TIP3   OH231482   4.113   3.017   6.895
 3308TIP3    H131483   4.102   3.066   6.813
 3308TIP3    H231484   4.187   3.059   6.938
 3309TIP3   OH231485   5.294   5.157   8.153
 3309TIP3    H131486   5.213   5.117   8.124
 3309TIP3    H231487   5.334   5.192   8.073
 3310TIP3   OH231488   5.507   2.475   6.506
 3310TIP3    H131489   5.443   2.428   6.558
 3310TIP3    H231490   5.457   2.547   6.466
 3311TIP3   OH231491   6.516   2.374   8.355
 3311TIP3    H131492   6.468   2.452   8.383
 3311TIP3    H231493   6.528   2.386   8.261
 3312TIP3   OH231494   5.144   5.002   1.115
 3312TIP3    H131495   5.139   4.992   1.020
 3312TIP3    H231496   5.146   5.097   1.129
 3313TIP3   OH231497   2.727   4.604   0.120
 3313TIP3    H131498   2.819   4.619   0.098
 3313TIP3    H231499   2.721   4.509   0.135
 3314TIP3   OH231500   6.263   1.269   8.503
 3314TIP3    H131501   6.357   1.260   8.514
 3314TIP3    H231502   6.253   1.350   8.452
 3315TIP3   OH231503   5.893   4.586   6.241
 3315TIP3    H131504   5.971   4.583   6.296
 3315TIP3    H231505   5.909   4.659   6.181
 3316TIP3   OH231506   3.986   6.026   0.524
 3316TIP3    H131507   4.032   5.959   0.472
 3316TIP3    H231508   3.898   5.991   0.537
 3317TIP3   OH231509   1.394   3.070   0.525
 3317TIP3    H131510   1.462   3.044   0.463
 3317TIP3    H231511   1.440   3.082   0.608
 3318TIP3   OH231512   2.237   6.004   6.941
 3318TIP3    H131513   2.225   6.090   6.901
 3318TIP3    H231514   2.160   5.954   6.916
 3319TIP3   OH231515   5.185   4.270   7.153
 3319TIP3    H131516   5.093   4.288   7.130
 3319TIP3    H231517   5.193   4.175   7.143
 3320TIP3   OH231518   5.563   4.323   1.176
 3320TIP3    H131519   5.560   4.321   1.272
 3320TIP3    H231520   5.532   4.237   1.150
 3321TIP3   OH231521   2.715   1.472   8.411
 3321TIP3    H131522   2.699   1.534   8.482
 3321TIP3    H231523   2.634   1.472   8.361
 3322TIP3   OH231524   6.519   4.203   0.232
 3322TIP3    H131525   6.503   4.167   0.319
 3322TIP3    H231526   6.532   4.127   0.176
 3323TIP3   OH231527   1.480   1.887   1.620
 3323TIP3    H131528   1.476   1.815   1.683
 3323TIP3    H231529   1.547   1.946   1.654
 3324TIP3   OH231530   6.660   4.043   7.478
 3324TIP3    H131531   6.668   4.029   7.383
 3324TIP3    H231532   6.738   4.002   7.515
 3325TIP3   OH231533   5.358   0.488   6.677
 3325TIP3    H131534   5.446   0.462   6.651
 3325TIP3    H231535   5.307   0.487   6.596
 3326TIP3   OH231536   4.158   2.656   8.051
 3326TIP3    H131537   4.141   2.636   8.143
 3326TIP3    H231538   4.109   2.737   8.034
 3327TIP3   OH231539   5.041   0.513   0.798
 3327TIP3    H131540   5.000   0.595   0.826
 3327TIP3    H231541   4.981   0.478   0.731
 3328TIP3   OH231542   3.893   1.611   1.147
 3328TIP3    H131543   3.960   1.567   1.094
 3328TIP3    H231544   3.872   1.548   1.216
 3329TIP3   OH231545   2.811   4.845   1.277
 3329TIP3    H131546   2.773   4.805   1.199
 3329TIP3    H231547   2.770   4.932   1.282
 3330TIP3   OH231548   5.544   4.326   2.165
 3330TIP3    H131549   5.545   4.236   2.133
 3330TIP3    H231550   5.553   4.318   2.260
 3331TIP3   OH231551   3.909   2.851   6.927
 3331TIP3    H131552   3.925   2.813   7.014
 3331TIP3    H231553   3.994   2.884   6.899
 3332TIP3   OH231554   2.036   3.065   8.699
 3332TIP3    H131555   2.054   3.086   8.607
 3332TIP3    H231556   2.036   3.150   0.017
 3333TIP3   OH231557   0.078   5.854   1.955
 3333TIP3    H131558   0.100   5.831   1.865
 3333TIP3    H231559   0.105   5.778   2.007
 3334TIP3   OH231560   2.537   5.197   8.550
 3334TIP3    H131561   2.469   5.143   8.509
 3334TIP3    H231562   2.501   5.286   8.547
 3335TIP3   OH231563   1.438   2.431   7.044
 3335TIP3    H131564   1.416   2.440   7.136
 3335TIP3    H231565   1.354   2.420   7.000
 3336TIP3   OH231566   2.980   4.889   7.112
 3336TIP3    H131567   2.895   4.889   7.067
 3336TIP3    H231568   2.963   4.933   7.195
 3337TIP3   OH231569   3.020   3.117   7.647
 3337TIP3    H131570   3.100   3.165   7.667
 3337TIP3    H231571   3.008   3.128   7.553
 3338TIP3   OH231572   6.007   5.882   1.234
 3338TIP3    H131573   6.015   5.844   1.322
 3338TIP3    H231574   6.061   5.962   1.238
 3339TIP3   OH231575   2.943   6.282   0.025
 3339TIP3    H131576   2.949   6.246   0.114
 3339TIP3    H231577   2.929   6.205   8.695
 3340TIP3   OH231578   5.203   3.100   8.618
 3340TIP3    H131579   5.217   3.061   8.532
 3340TIP3    H231580   5.270   3.168   8.625
 3341TIP3   OH231581   1.831   1.617   1.910
 3341TIP3    H131582   1.872   1.639   1.827
 3341TIP3    H231583   1.825   1.522   1.910
 3342TIP3   OH231584   3.074   0.852   8.539
 3342TIP3    H131585   2.994   0.800   8.547
 3342TIP3    H231586   3.042   0.943   8.535
 3343TIP3   OH231587   5.848   1.691   6.633
 3343TIP3    H131588   5.767   1.736   6.655
 3343TIP3    H231589   5.910   1.718   6.700
 3344TIP3   OH231590   3.694   1.532   7.523
 3344TIP3    H131591   3.660   1.572   7.442
 3344TIP3    H231592   3.616   1.499   7.568
 3345TIP3   OH231593   3.048   0.893   1.646
 3345TIP3    H131594   3.053   0.840   1.567
 3345TIP3    H231595   3.025   0.831   1.715
 3346TIP3   OH231596   4.241   1.777   7.394
 3346TIP3    H131597   4.186   1.815   7.326
 3346TIP3    H231598   4.192   1.793   7.475
 3347TIP3   OH231599   5.489   0.844   8.324
 3347TIP3    H131600   5.445   0.924   8.353
 3347TIP3    H231601   5.573   0.846   8.370
 3348TIP3   OH231602   3.739   3.602   8.719
 3348TIP3    H131603   3.793   3.602   0.072
 3348TIP3    H231604   3.789   3.549   8.656
 3349TIP3   OH231605   2.572   3.829   7.809
 3349TIP3    H131606   2.516   3.849   7.735
 3349TIP3    H231607   2.660   3.854   7.781
 3350TIP3   OH231608   1.439   4.519   1.348
 3350TIP3    H131609   1.376   4.508   1.420
 3350TIP3    H231610   1.435   4.613   1.328
 3351TIP3   OH231611   1.973   0.502   6.560
 3351TIP3    H131612   1.888   0.459   6.547
 3351TIP3    H231613   2.038   0.438   6.531
 3352TIP3   OH231614   6.301   2.493   1.525
 3352TIP3    H131615   6.360   2.566   1.543
 3352TIP3    H231616   6.298   2.444   1.607
 3353TIP3   OH231617   1.274   1.413   6.802
 3353TIP3    H131618   1.346   1.353   6.782
 3353TIP3    H231619   1.250   1.392   6.893
 3354TIP3   OH231620   4.429   5.289   6.821
 3354TIP3    H131621   4.403   5.359   6.761
 3354TIP3    H231622   4.388   5.313   6.904
 3355TIP3   OH231623   3.767   2.679   7.882
 3355TIP3    H131624   3.701   2.676   7.952
 3355TIP3    H231625   3.717   2.692   7.802
 3356TIP3   OH231626   6.476   0.758   1.595
 3356TIP3    H131627   6.563   0.724   1.616
 3356TIP3    H231628   6.488   0.804   1.512
 3357TIP3   OH231629   3.396   0.662   1.998
 3357TIP3    H131630   3.428   0.751   2.012
 3357TIP3    H231631   3.471   0.616   1.960
 3358TIP3   OH231632   5.625   0.346   6.916
 3358TIP3    H131633   5.587   0.416   6.970
 3358TIP3    H231634   5.663   0.392   6.841
 3359TIP3   OH231635   3.328   0.820   8.030
 3359TIP3    H131636   3.274   0.786   8.101
 3359TIP3    H231637   3.401   0.758   8.023
 3360TIP3   OH231638   0.038   4.499   2.050
 3360TIP3    H131639   6.849   4.422   2.012
 3360TIP3    H231640   0.081   4.467   2.129
 3361TIP3   OH231641   4.540   5.342   2.254
 3361TIP3    H131642   4.459   5.293   2.241
 3361TIP3    H231643   4.521   5.428   2.216
 3362TIP3   OH231644   4.032   0.173   1.211
 3362TIP3    H131645   4.108   0.135   1.168
 3362TIP3    H231646   4.027   0.262   1.177
 3363TIP3   OH231647   4.446   6.493   8.708
 3363TIP3    H131648   4.375   6.496   0.046
 3363TIP3    H231649   4.494   6.575   8.722
 3364TIP3   OH231650   0.395   5.768   7.305
 3364TIP3    H131651   0.461   5.718   7.257
 3364TIP3    H231652   0.356   5.706   7.366
 3365TIP3   OH231653   1.002   5.090   0.123
 3365TIP3    H131654   1.083   5.097   0.073
 3365TIP3    H231655   1.031   5.075   0.213
 3366TIP3   OH231656   5.719   2.852   1.098
 3366TIP3    H131657   5.753   2.939   1.122
 3366TIP3    H231658   5.755   2.794   1.165
 3367TIP3   OH231659   6.405   0.962   7.432
 3367TIP3    H131660   6.386   1.053   7.457
 3367TIP3    H231661   6.424   0.919   7.515
 3368TIP3   OH231662   4.208   0.300   2.041
 3368TIP3    H131663   4.138   0.362   2.062
 3368TIP3    H231664   4.169   0.239   1.979
 3369TIP3   OH231665   1.934   3.056   6.970
 3369TIP3    H131666   1.963   3.059   6.878
 3369TIP3    H231667   1.910   2.964   6.984
 3370TIP3   OH231668   4.380   3.145   1.102
 3370TIP3    H131669   4.401   3.238   1.111
 3370TIP3    H231670   4.358   3.117   1.191
 3371TIP3   OH231671   0.569   0.357   1.949
 3371TIP3    H131672   0.561   0.262   1.948
 3371TIP3    H231673   0.489   0.388   1.992
 3372TIP3   OH231674   2.264   1.631   2.329
 3372TIP3    H131675   2.169   1.635   2.330
 3372TIP3    H231676   2.293   1.716   2.360
 3373TIP3   OH231677   3.602   1.724   1.079
 3373TIP3    H131678   3.666   1.653   1.077
 3373TIP3    H231679   3.646   1.798   1.037
 3374TIP3   OH231680   0.552   0.457   6.797
 3374TIP3    H131681   0.590   0.445   6.710
 3374TIP3    H231682   0.483   0.522   6.783
 3375TIP3   OH231683   1.454   2.058   1.406
 3375TIP3    H131684   1.530   2.096   1.452
 3375TIP3    H231685   1.424   1.988   1.464
 3376TIP3   OH231686   5.013   2.807   8.290
 3376TIP3    H131687   5.091   2.851   8.324
 3376TIP3    H231688   5.004   2.840   8.200
 3377TIP3   OH231689   3.946   0.808   1.849
 3377TIP3    H131690   4.003   0.873   1.809
 3377TIP3    H231691   3.952   0.824   1.943
 3378TIP3   OH231692   1.287   4.928   2.241
 3378TIP3    H131693   1.296   4.846   2.291
 3378TIP3    H231694   1.361   4.981   2.270
 3379TIP3   OH231695   3.251   0.340   0.803
 3379TIP3    H131696   3.338   0.376   0.782
 3379TIP3    H231697   3.194   0.375   0.735
 3380TIP3   OH231698   1.277   3.327   7.607
 3380TIP3    H131699   1.258   3.351   7.517
 3380TIP3    H231700   1.227   3.389   7.660
 3381TIP3   OH231701   1.773   3.844   8.720
 3381TIP3    H131702   1.856   3.857   0.038
 3381TIP3    H231703   1.791   3.867   8.628
 3382TIP3   OH231704   3.419   1.299   8.179
 3382TIP3    H131705   3.325   1.312   8.191
 3382TIP3    H231706   3.454   1.387   8.165
 3383TIP3   OH231707   3.332   0.676   1.160
 3383TIP3    H131708   3.308   0.649   1.249
 3383TIP3    H231709   3.415   0.633   1.143
 3384TIP3   OH231710   0.558   4.711   7.680
 3384TIP3    H131711   0.571   4.670   7.594
 3384TIP3    H231712   0.607   4.793   7.675
 3385TIP3   OH231713   6.840   5.320   1.492
 3385TIP3    H131714   0.011   5.262   1.564
 3385TIP3    H231715   6.755   5.287   1.464
 3386TIP3   OH231716   5.621   2.605   6.737
 3386TIP3    H131717   5.587   2.560   6.659
 3386TIP3    H231718   5.607   2.543   6.808
 3387TIP3   OH231719   1.346   5.342   1.085
 3387TIP3    H131720   1.265   5.348   1.033
 3387TIP3    H231721   1.416   5.356   1.022
 3388TIP3   OH231722   3.380   4.429   7.439
 3388TIP3    H131723   3.384   4.510   7.389
 3388TIP3    H231724   3.288   4.421   7.464
 3389TIP3   OH231725   3.835   5.581   8.251
 3389TIP3    H131726   3.887   5.533   8.315
 3389TIP3    H231727   3.881   5.665   8.240
 3390TIP3   OH231728   5.546   1.084   1.394
 3390TIP3    H131729   5.489   1.160   1.380
 3390TIP3    H231730   5.492   1.009   1.369
 3391TIP3   OH231731   2.008   1.641   8.676
 3391TIP3    H131732   2.038   1.721   8.719
 3391TIP3    H231733   2.087   1.588   8.666
 3392TIP3   OH231734   3.492   2.336   0.977
 3392TIP3    H131735   3.408   2.297   0.952
 3392TIP3    H231736   3.470   2.401   1.043
 3393TIP3   OH231737   0.737   4.097   2.162
 3393TIP3    H131738   0.804   4.028   2.156
 3393TIP3    H231739   0.654   4.050   2.164
 3394TIP3   OH231740   3.776   2.600   8.559
 3394TIP3    H131741   3.845   2.660   8.591
 3394TIP3    H231742   3.797   2.587   8.467
 3395TIP3   OH231743   2.873   1.703   1.347
 3395TIP3    H131744   2.918   1.785   1.330
 3395TIP3    H231745   2.842   1.712   1.438
 3396TIP3   OH231746   2.605   5.377   7.988
 3396TIP3    H131747   2.655   5.426   7.923
 3396TIP3    H231748   2.521   5.421   7.993
 3397TIP3   OH231749   0.689   2.065   6.376
 3397TIP3    H131750   0.610   2.112   6.349
 3397TIP3    H231751   0.662   1.973   6.380
 3398TIP3   OH231752   1.613   4.437   0.244
 3398TIP3    H131753   1.667   4.483   0.308
 3398TIP3    H231754   1.674   4.376   0.201
 3399TIP3   OH231755   5.260   2.755   8.067
 3399TIP3    H131756   5.170   2.738   8.093
 3399TIP3    H231757   5.306   2.673   8.083
 3400TIP3   OH231758   6.614   0.960   2.726
 3400TIP3    H131759   6.521   0.939   2.729
 3400TIP3    H231760   6.620   1.034   2.666
 3401TIP3   OH231761   5.797   2.556   1.908
 3401TIP3    H131762   5.792   2.652   1.905
 3401TIP3    H231763   5.735   2.531   1.976
 3402TIP3   OH231764   5.891   3.495   2.577
 3402TIP3    H131765   5.900   3.436   2.652
 3402TIP3    H231766   5.797   3.496   2.558
 3403TIP3   OH231767   3.604   6.083   0.407
 3403TIP3    H131768   3.667   6.017   0.437
 3403TIP3    H231769   3.635   6.107   0.319
 3404TIP3   OH231770   0.553   5.978   0.027
 3404TIP3    H131771   0.516   6.049   8.701
 3404TIP3    H231772   0.624   5.943   8.698
 3405TIP3   OH231773   3.990   0.307   6.857
 3405TIP3    H131774   3.944   0.230   6.824
 3405TIP3    H231775   4.013   0.285   6.947
 3406TIP3   OH231776   5.097   2.908   2.299
 3406TIP3    H131777   5.009   2.932   2.270
 3406TIP3    H231778   5.153   2.979   2.268
 3407TIP3   OH231779   5.990   5.321   0.704
 3407TIP3    H131780   5.935   5.318   0.626
 3407TIP3    H231781   6.010   5.229   0.723
 3408TIP3   OH231782   4.349   1.814   6.935
 3408TIP3    H131783   4.425   1.866   6.963
 3408TIP3    H231784   4.380   1.767   6.858
 3409TIP3   OH231785   4.326   6.507   0.246
 3409TIP3    H131786   4.324   6.600   0.265
 3409TIP3    H231787   4.251   6.471   0.293
 3410TIP3   OH231788   2.509   2.025   0.249
 3410TIP3    H131789   2.599   2.011   0.219
 3410TIP3    H231790   2.516   2.099   0.310
 3411TIP3   OH231791   0.628   1.251   0.564
 3411TIP3    H131792   0.694   1.188   0.534
 3411TIP3    H231793   0.545   1.213   0.537
 3412TIP3   OH231794   4.289   5.019   7.670
 3412TIP3    H131795   4.318   4.936   7.631
 3412TIP3    H231796   4.352   5.083   7.638
 3413TIP3   OH231797   2.438   3.542   8.598
 3413TIP3    H131798   2.469   3.508   8.513
 3413TIP3    H231799   2.349   3.573   8.580
 3414TIP3   OH231800   5.242   4.129   0.951
 3414TIP3    H131801   5.294   4.069   1.003
 3414TIP3    H231802   5.178   4.074   0.906
 3415TIP3   OH231803   6.214   2.899   0.652
 3415TIP3    H131804   6.235   2.982   0.609
 3415TIP3    H231805   6.293   2.876   0.701
 3416TIP3   OH231806   6.511   3.804   7.069
 3416TIP3    H131807   6.503   3.809   6.974
 3416TIP3    H231808   6.457   3.728   7.094
 3417TIP3   OH231809   6.568   5.692   2.313
 3417TIP3    H131810   6.649   5.661   2.272
 3417TIP3    H231811   6.507   5.619   2.303
 3418TIP3   OH231812   2.818   0.176   1.328
 3418TIP3    H131813   2.731   0.205   1.301
 3418TIP3    H231814   2.803   0.089   1.366
 3419TIP3   OH231815   3.566   0.470   1.935
 3419TIP3    H131816   3.626   0.399   1.914
 3419TIP3    H231817   3.491   0.426   1.975
 3420TIP3   OH231818   0.605   5.946   2.039
 3420TIP3    H131819   0.686   5.961   2.088
 3420TIP3    H231820   0.634   5.920   1.951
 3421TIP3   OH231821   2.475   5.532   8.269
 3421TIP3    H131822   2.428   5.607   8.232
 3421TIP3    H231823   2.567   5.557   8.267
 3422TIP3   OH231824   2.699   0.006   1.737
 3422TIP3    H131825   2.777   6.811   1.711
 3422TIP3    H231826   2.733   0.087   1.774
 3423TIP3   OH231827   5.745   1.293   8.129
 3423TIP3    H131828   5.670   1.239   8.156
 3423TIP3    H231829   5.765   1.264   8.041
 3424TIP3   OH231830   1.619   2.536   0.335
 3424TIP3    H131831   1.641   2.477   0.407
 3424TIP3    H231832   1.622   2.481   0.257
 3425TIP3   OH231833   1.372   2.868   1.949
 3425TIP3    H131834   1.279   2.850   1.935
 3425TIP3    H231835   1.375   2.917   2.032
 3426TIP3   OH231836   5.577   4.731   0.378
 3426TIP3    H131837   5.607   4.670   0.311
 3426TIP3    H231838   5.656   4.779   0.404
 3427TIP3   OH231839   4.717   3.397   7.913
 3427TIP3    H131840   4.765   3.356   7.985
 3427TIP3    H231841   4.685   3.323   7.861
 3428TIP3   OH231842   6.542   4.412   6.782
 3428TIP3    H131843   6.626   4.441   6.747
 3428TIP3    H231844   6.564   4.353   6.854
 3429TIP3   OH231845   6.458   1.741   1.965
 3429TIP3    H131846   6.511   1.662   1.975
 3429TIP3    H231847   6.369   1.710   1.955
 3430TIP3   OH231848   6.518   1.516   7.792
 3430TIP3    H131849   6.564   1.576   7.850
 3430TIP3    H231850   6.587   1.456   7.761
 3431TIP3   OH231851   0.357   3.203   0.431
 3431TIP3    H131852   0.392   3.212   0.520
 3431TIP3    H231853   0.300   3.280   0.420
 3432TIP3   OH231854   4.109   0.802   6.597
 3432TIP3    H131855   4.034   0.799   6.537
 3432TIP3    H231856   4.074   0.844   6.676
 3433TIP3   OH231857   3.081   1.328   0.646
 3433TIP3    H131858   3.049   1.414   0.675
 3433TIP3    H231859   3.126   1.346   0.563
 3434TIP3   OH231860   2.818   0.601   7.276
 3434TIP3    H131861   2.861   0.536   7.331
 3434TIP3    H231862   2.761   0.649   7.336
 3435TIP3   OH231863   1.475   0.840   8.634
 3435TIP3    H131864   1.436   0.822   8.719
 3435TIP3    H231865   1.431   0.920   8.604
 3436TIP3   OH231866   4.994   1.151   7.701
 3436TIP3    H131867   4.916   1.097   7.709
 3436TIP3    H231868   4.963   1.241   7.716
 3437TIP3   OH231869   0.741   0.227   7.262
 3437TIP3    H131870   0.766   0.317   7.284
 3437TIP3    H231871   0.775   0.214   7.174
 3438TIP3   OH231872   1.481   1.515   7.861
 3438TIP3    H131873   1.488   1.594   7.808
 3438TIP3    H231874   1.390   1.487   7.851
 3439TIP3   OH231875   2.818   1.574   1.904
 3439TIP3    H131876   2.876   1.646   1.927
 3439TIP3    H231877   2.759   1.611   1.838
 3440TIP3   OH231878   5.344   6.583   6.921
 3440TIP3    H131879   5.273   6.618   6.974
 3440TIP3    H231880   5.390   6.661   6.889
 3441TIP3   OH231881   1.201   5.609   0.352
 3441TIP3    H131882   1.261   5.608   0.426
 3441TIP3    H231883   1.115   5.623   0.391
 3442TIP3   OH231884   2.399   5.765   6.963
 3442TIP3    H131885   2.489   5.780   6.934
 3442TIP3    H231886   2.355   5.848   6.946
 3443TIP3   OH231887   3.038   2.983   0.388
 3443TIP3    H131888   3.125   2.998   0.425
 3443TIP3    H231889   3.048   2.999   0.295
 3444TIP3   OH231890   6.132   5.108   1.386
 3444TIP3    H131891   6.147   5.053   1.309
 3444TIP3    H231892   6.132   5.047   1.460
 3445TIP3   OH231893   6.147   4.889   0.493
 3445TIP3    H131894   6.201   4.931   0.560
 3445TIP3    H231895   6.149   4.950   0.419
 3446TIP3   OH231896   4.017   3.893   6.761
 3446TIP3    H131897   4.011   3.980   6.722
 3446TIP3    H231898   4.108   3.887   6.791
 3447TIP3   OH231899   0.832   2.330   1.530
 3447TIP3    H131900   0.910   2.356   1.481
 3447TIP3    H231901   0.852   2.243   1.564
 3448TIP3   OH231902   4.483   1.749   2.565
 3448TIP3    H131903   4.491   1.804   2.643
 3448TIP3    H231904   4.525   1.800   2.495
 3449TIP3   OH231905   3.127   4.671   7.164
 3449TIP3    H131906   3.078   4.751   7.148
 3449TIP3    H231907   3.144   4.635   7.077
 3450TIP3   OH231908   6.245   3.332   1.831
 3450TIP3    H131909   6.188   3.406   1.854
 3450TIP3    H231910   6.324   3.346   1.884
 3451TIP3   OH231911   3.178   4.786   0.160
 3451TIP3    H131912   3.269   4.766   0.139
 3451TIP3    H231913   3.128   4.751   0.086
 3452TIP3   OH231914   4.847   6.320   7.179
 3452TIP3    H131915   4.842   6.372   7.259
 3452TIP3    H231916   4.919   6.259   7.195
 3453TIP3   OH231917   2.318   1.671   7.979
 3453TIP3    H131918   2.256   1.659   7.907
 3453TIP3    H231919   2.359   1.585   7.991
 3454TIP3   OH231920   5.375   0.720   6.431
 3454TIP3    H131921   5.340   0.776   6.363
 3454TIP3    H231922   5.310   0.650   6.440
 3455TIP3   OH231923   1.948   0.735   8.331
 3455TIP3    H131924   2.025   0.688   8.362
 3455TIP3    H231925   1.896   0.751   8.410
 3456TIP3   OH231926   5.958   4.009   8.440
 3456TIP3    H131927   6.013   4.083   8.415
 3456TIP3    H231928   5.960   3.951   8.364
 3457TIP3   OH231929   4.880   4.193   7.268
 3457TIP3    H131930   4.856   4.285   7.278
 3457TIP3    H231931   4.873   4.177   7.173
 3458TIP3   OH231932   5.665   4.131   7.385
 3458TIP3    H131933   5.722   4.202   7.355
 3458TIP3    H231934   5.719   4.081   7.446
 3459TIP3   OH231935   2.482   5.446   6.695
 3459TIP3    H131936   2.474   5.430   6.601
 3459TIP3    H231937   2.504   5.539   6.702
 3460TIP3   OH231938   4.284   3.929   2.127
 3460TIP3    H131939   4.205   3.973   2.160
 3460TIP3    H231940   4.251   3.867   2.062
 3461TIP3   OH231941   3.354   2.058   0.921
 3461TIP3    H131942   3.403   2.056   1.004
 3461TIP3    H231943   3.279   2.115   0.939
 3462TIP3   OH231944   6.402   3.585   7.150
 3462TIP3    H131945   6.374   3.622   7.234
 3462TIP3    H231946   6.339   3.515   7.133
 3463TIP3   OH231947   6.763   1.512   1.264
 3463TIP3    H131948   6.780   1.586   1.322
 3463TIP3    H231949   6.714   1.550   1.191
 3464TIP3   OH231950   1.488   0.899   7.293
 3464TIP3    H131951   1.453   0.883   7.381
 3464TIP3    H231952   1.545   0.975   7.303
 3465TIP3   OH231953   6.344   0.894   8.682
 3465TIP3    H131954   6.274   0.911   8.619
 3465TIP3    H231955   6.301   0.901   0.042
 3466TIP3   OH231956   3.712   6.521   7.403
 3466TIP3    H131957   3.684   6.606   7.437
 3466TIP3    H231958   3.639   6.492   7.349
 3467TIP3   OH231959   1.473   4.982   8.019
 3467TIP3    H131960   1.427   4.986   7.935
 3467TIP3    H231961   1.557   4.942   7.999
 3468TIP3   OH231962   0.451   0.911   1.425
 3468TIP3    H131963   0.451   0.832   1.480
 3468TIP3    H231964   0.426   0.879   1.338
 3469TIP3   OH231965   5.927   6.750   0.029
 3469TIP3    H131966   5.938   6.842   0.051
 3469TIP3    H231967   5.956   6.703   0.107
 3470TIP3   OH231968   4.320   6.770   7.616
 3470TIP3    H131969   4.407   6.741   7.589
 3470TIP3    H231970   4.329   6.789   7.710
 3471TIP3   OH231971   1.371   3.300   6.738
 3471TIP3    H131972   1.312   3.326   6.809
 3471TIP3    H231973   1.407   3.382   6.705
 3472TIP3   OH231974   3.797   4.345   8.109
 3472TIP3    H131975   3.751   4.409   8.163
 3472TIP3    H231976   3.852   4.296   8.170
 3473TIP3   OH231977   2.958   3.436   7.600
 3473TIP3    H131978   3.037   3.457   7.651
 3473TIP3    H231979   2.974   3.474   7.514
 3474TIP3   OH231980   6.218   2.518   6.202
 3474TIP3    H131981   6.284   2.579   6.168
 3474TIP3    H231982   6.140   2.572   6.214
 3475TIP3   OH231983   2.336   4.528   7.735
 3475TIP3    H131984   2.287   4.608   7.757
 3475TIP3    H231985   2.271   4.472   7.693
 3476TIP3   OH231986   2.297   5.408   0.205
 3476TIP3    H131987   2.366   5.356   0.247
 3476TIP3    H231988   2.269   5.355   0.130
 3477TIP3   OH231989   0.003   2.371   0.781
 3477TIP3    H131990   6.854   2.366   0.685
 3477TIP3    H231991   0.089   2.336   0.804
 3478TIP3   OH231992   3.413   6.432   8.197
 3478TIP3    H131993   3.433   6.483   8.276
 3478TIP3    H231994   3.332   6.386   8.217
 3479TIP3   OH231995   0.981   1.859   7.569
 3479TIP3    H131996   0.886   1.853   7.565
 3479TIP3    H231997   1.012   1.776   7.534
 3480TIP3   OH231998   4.237   2.804   1.108
 3480TIP3    H131999   4.304   2.745   1.143
 3480TIP3    H232000   4.252   2.804   1.013
 3481TIP3   OH232001   6.173   5.310   0.413
 3481TIP3    H132002   6.159   5.396   0.372
 3481TIP3    H232003   6.259   5.318   0.455
 3482TIP3   OH232004   4.695   2.949   1.130
 3482TIP3    H132005   4.783   2.966   1.165
 3482TIP3    H232006   4.703   2.965   1.036
 3483TIP3   OH232007   1.294   1.279   0.538
 3483TIP3    H132008   1.379   1.234   0.538
 3483TIP3    H232009   1.255   1.258   0.453
 3484TIP3   OH232010   0.209   6.396   1.159
 3484TIP3    H132011   0.179   6.305   1.151
 3484TIP3    H232012   0.294   6.397   1.114
 3485TIP3   OH232013   4.579   2.319   1.873
 3485TIP3    H132014   4.625   2.389   1.918
 3485TIP3    H232015   4.582   2.344   1.780
 3486TIP3   OH232016   1.413   6.615   7.366
 3486TIP3    H132017   1.391   6.524   7.386
 3486TIP3    H232018   1.353   6.666   7.420
 3487TIP3   OH232019   2.922   2.901   0.830
 3487TIP3    H132020   2.964   2.843   0.892
 3487TIP3    H232021   2.885   2.843   0.763
 3488TIP3   OH232022   6.811   6.568   1.144
 3488TIP3    H132023   6.798   6.605   1.056
 3488TIP3    H232024   0.047   6.537   1.143
 3489TIP3   OH232025   5.924   5.315   7.827
 3489TIP3    H132026   5.885   5.230   7.804
 3489TIP3    H232027   5.849   5.373   7.840
 3490TIP3   OH232028   3.324   5.243   0.900
 3490TIP3    H132029   3.401   5.236   0.957
 3490TIP3    H232030   3.250   5.223   0.957
 3491TIP3   OH232031   3.943   0.203   7.548
 3491TIP3    H132032   3.970   0.295   7.547
 3491TIP3    H232033   3.858   0.203   7.504
 3492TIP3   OH232034   2.039   3.923   8.396
 3492TIP3    H132035   2.066   3.945   8.485
 3492TIP3    H232036   1.947   3.901   8.404
 3493TIP3   OH232037   1.878   0.516   6.938
 3493TIP3    H132038   1.834   0.558   7.012
 3493TIP3    H232039   1.807   0.492   6.879
 3494TIP3   OH232040   0.494   5.008   8.522
 3494TIP3    H132041   0.473   4.971   8.608
 3494TIP3    H232042   0.453   4.950   8.459
 3495TIP3   OH232043   0.962   2.566   0.238
 3495TIP3    H132044   1.014   2.485   0.244
 3495TIP3    H232045   1.026   2.634   0.218
 3496TIP3   OH232046   2.627   3.768   6.599
 3496TIP3    H132047   2.714   3.802   6.616
 3496TIP3    H232048   2.640   3.701   6.531
 3497TIP3   OH232049   4.176   6.099   6.872
 3497TIP3    H132050   4.263   6.136   6.888
 3497TIP3    H232051   4.164   6.034   6.941
 3498TIP3   OH232052   5.971   1.120   6.704
 3498TIP3    H132053   5.949   1.059   6.774
 3498TIP3    H232054   6.035   1.180   6.743
 3499TIP3   OH232055   5.389   5.045   6.564
 3499TIP3    H132056   5.445   4.969   6.579
 3499TIP3    H232057   5.447   5.120   6.574
 3500TIP3   OH232058   2.824   6.391   1.592
 3500TIP3    H132059   2.837   6.368   1.684
 3500TIP3    H232060   2.731   6.410   1.586
 3501TIP3   OH232061   0.781   3.826   7.507
 3501TIP3    H132062   0.735   3.764   7.450
 3501TIP3    H232063   0.715   3.892   7.528
 3502TIP3   OH232064   6.221   6.212   7.197
 3502TIP3    H132065   6.239   6.302   7.170
 3502TIP3    H232066   6.127   6.213   7.220
 3503TIP3   OH232067   6.660   5.710   1.849
 3503TIP3    H132068   6.659   5.629   1.900
 3503TIP3    H232069   6.739   5.756   1.879
 3504TIP3   OH232070   6.739   6.798   1.535
 3504TIP3    H132071   6.669   6.769   1.594
 3504TIP3    H232072   6.819   6.762   1.574
 3505TIP3   OH232073   2.578   2.014   7.692
 3505TIP3    H132074   2.595   2.105   7.715
 3505TIP3    H232075   2.547   2.017   7.602
 3506TIP3   OH232076   4.679   0.395   1.175
 3506TIP3    H132077   4.693   0.468   1.235
 3506TIP3    H232078   4.640   0.436   1.097
 3507TIP3   OH232079   2.643   1.733   1.779
 3507TIP3    H132080   2.610   1.759   1.866
 3507TIP3    H232081   2.580   1.771   1.718
 3508TIP3   OH232082   2.547   0.230   1.600
 3508TIP3    H132083   2.451   0.229   1.604
 3508TIP3    H232084   2.571   0.137   1.605
 3509TIP3   OH232085   1.243   4.401   8.077
 3509TIP3    H132086   1.326   4.408   8.030
 3509TIP3    H232087   1.242   4.311   8.109
 3510TIP3   OH232088   5.476   0.023   8.431
 3510TIP3    H132089   5.496   6.847   8.520
 3510TIP3    H232090   5.392   6.835   8.409
 3511TIP3   OH232091   6.387   3.479   8.631
 3511TIP3    H132092   6.464   3.422   8.639
 3511TIP3    H232093   6.317   3.431   8.674
 3512TIP3   OH232094   6.164   0.078   1.330
 3512TIP3    H132095   6.250   0.085   1.371
 3512TIP3    H232096   6.102   0.107   1.397
 3513TIP3   OH232097   3.807   5.604   7.803
 3513TIP3    H132098   3.793   5.624   7.710
 3513TIP3    H232099   3.840   5.685   7.840
 3514TIP3   OH232100   0.855   2.532   8.230
 3514TIP3    H132101   0.934   2.578   8.203
 3514TIP3    H232102   0.887   2.459   8.283
 3515TIP3   OH232103   6.054   5.271   8.438
 3515TIP3    H132104   6.043   5.188   8.391
 3515TIP3    H232105   6.139   5.304   8.409
 3516TIP3   OH232106   3.482   3.335   2.236
 3516TIP3    H132107   3.506   3.408   2.293
 3516TIP3    H232108   3.543   3.265   2.258
 3517TIP3   OH232109   3.194   0.948   7.098
 3517TIP3    H132110   3.249   0.918   7.026
 3517TIP3    H232111   3.157   0.868   7.136
 3518TIP3   OH232112   3.073   4.602   8.098
 3518TIP3    H132113   3.163   4.577   8.078
 3518TIP3    H232114   3.038   4.635   8.016
 3519TIP3   OH232115   2.064   5.334   2.081
 3519TIP3    H132116   2.148   5.290   2.072
 3519TIP3    H232117   2.069   5.380   2.165
 3520TIP3   OH232118   0.967   4.760   7.674
 3520TIP3    H132119   0.974   4.744   7.769
 3520TIP3    H232120   0.976   4.855   7.665
 3521TIP3   OH232121   2.479   4.245   7.531
 3521TIP3    H132122   2.435   4.231   7.447
 3521TIP3    H232123   2.548   4.308   7.511
 3522TIP3   OH232124   3.020   2.707   8.191
 3522TIP3    H132125   3.012   2.740   8.280
 3522TIP3    H232126   3.002   2.783   8.136
 3523TIP3   OH232127   5.583   2.820   1.667
 3523TIP3    H132128   5.488   2.828   1.667
 3523TIP3    H232129   5.613   2.885   1.603
 3524TIP3   OH232130   2.943   6.197   0.304
 3524TIP3    H132131   3.029   6.213   0.344
 3524TIP3    H232132   2.915   6.114   0.341
 3525TIP3   OH232133   0.019   3.300   6.894
 3525TIP3    H132134   0.036   3.381   6.943
 3525TIP3    H232135   0.104   3.256   6.890
 3526TIP3   OH232136   0.476   6.575   8.692
 3526TIP3    H132137   0.541   6.645   8.698
 3526TIP3    H232138   0.488   6.525   0.046
 3527TIP3   OH232139   6.597   3.748   8.445
 3527TIP3    H132140   6.594   3.842   8.465
 3527TIP3    H232141   6.578   3.743   8.351
 3528TIP3   OH232142   3.893   1.687   7.655
 3528TIP3    H132143   3.945   1.607   7.643
 3528TIP3    H232144   3.802   1.657   7.649
 3529TIP3   OH232145   5.063   3.163   6.938
 3529TIP3    H132146   5.132   3.187   7.000
 3529TIP3    H232147   5.105   3.171   6.852
 3530TIP3   OH232148   1.273   6.296   6.696
 3530TIP3    H132149   1.218   6.266   6.768
 3530TIP3    H232150   1.328   6.220   6.674
 3531TIP3   OH232151   1.038   3.293   1.036
 3531TIP3    H132152   1.003   3.291   0.946
 3531TIP3    H232153   1.107   3.227   1.036
 3532TIP3   OH232154   1.108   6.029   0.086
 3532TIP3    H132155   1.108   5.961   0.019
 3532TIP3    H232156   1.099   6.111   0.038
 3533TIP3   OH232157   4.526   3.012   0.228
 3533TIP3    H132158   4.478   2.929   0.226
 3533TIP3    H232159   4.595   2.998   0.292
 3534TIP3   OH232160   6.348   3.245   7.235
 3534TIP3    H132161   6.283   3.314   7.244
 3534TIP3    H232162   6.405   3.255   7.311
 3535TIP3   OH232163   5.771   0.330   0.579
 3535TIP3    H132164   5.712   0.272   0.531
 3535TIP3    H232165   5.776   0.292   0.667
 3536TIP3   OH232166   3.932   4.440   7.012
 3536TIP3    H132167   3.858   4.379   7.012
 3536TIP3    H232168   4.001   4.393   6.965
 3537TIP3   OH232169   4.678   6.434   1.304
 3537TIP3    H132170   4.701   6.342   1.298
 3537TIP3    H232171   4.710   6.461   1.390
 3538TIP3   OH232172   1.107   2.029   7.399
 3538TIP3    H132173   1.068   2.018   7.485
 3538TIP3    H232174   1.039   2.001   7.338
 3539TIP3   OH232175   2.085   5.867   2.299
 3539TIP3    H132176   2.033   5.889   2.376
 3539TIP3    H232177   2.171   5.905   2.317
 3540TIP3   OH232178   6.594   1.611   6.796
 3540TIP3    H132179   6.665   1.670   6.770
 3540TIP3    H232180   6.618   1.526   6.759
 3541TIP3   OH232181   2.685   4.718   1.042
 3541TIP3    H132182   2.639   4.770   0.976
 3541TIP3    H232183   2.615   4.686   1.100
 3542TIP3   OH232184   2.741   2.085   1.561
 3542TIP3    H132185   2.835   2.065   1.554
 3542TIP3    H232186   2.698   2.000   1.557
 3543TIP3   OH232187   4.031   0.956   0.339
 3543TIP3    H132188   3.995   0.869   0.355
 3543TIP3    H232189   4.007   0.976   0.249
 3544TIP3   OH232190   5.065   0.791   8.315
 3544TIP3    H132191   5.142   0.737   8.296
 3544TIP3    H232192   5.028   0.752   8.394
 3545TIP3   OH232193   6.666   3.591   2.022
 3545TIP3    H132194   6.643   3.673   1.978
 3545TIP3    H232195   6.668   3.614   2.115
 3546TIP3   OH232196   4.024   5.654   1.317
 3546TIP3    H132197   4.094   5.718   1.319
 3546TIP3    H232198   3.974   5.675   1.238
 3547TIP3   OH232199   6.007   0.427   8.646
 3547TIP3    H132200   6.034   0.337   8.625
 3547TIP3    H232201   6.089   0.471   8.670
 3548TIP3   OH232202   4.605   0.337   8.691
 3548TIP3    H132203   4.634   0.413   8.641
 3548TIP3    H232204   4.601   0.368   0.056
 3549TIP3   OH232205   6.009   6.703   7.186
 3549TIP3    H132206   5.965   6.674   7.106
 3549TIP3    H232207   6.014   6.798   7.178
 3550TIP3   OH232208   0.598   3.448   7.151
 3550TIP3    H132209   0.656   3.473   7.080
 3550TIP3    H232210   0.636   3.367   7.186
 3551TIP3   OH232211   4.061   1.935   8.191
 3551TIP3    H132212   4.133   1.935   8.254
 3551TIP3    H232213   4.029   2.025   8.190
 3552TIP3   OH232214   5.636   6.723   7.116
 3552TIP3    H132215   5.651   6.671   7.037
 3552TIP3    H232216   5.676   6.808   7.097
 3553TIP3   OH232217   5.527   5.155   7.535
 3553TIP3    H132218   5.586   5.105   7.591
 3553TIP3    H232219   5.533   5.114   7.449
 3554TIP3   OH232220   4.858   5.254   1.292
 3554TIP3    H132221   4.912   5.269   1.214
 3554TIP3    H232222   4.769   5.273   1.263
 3555TIP3   OH232223   6.401   1.260   7.177
 3555TIP3    H132224   6.309   1.237   7.163
 3555TIP3    H232225   6.418   1.235   7.268
 3556TIP3   OH232226   1.137   2.461   8.496
 3556TIP3    H132227   1.043   2.450   8.488
 3556TIP3    H232228   1.149   2.554   8.514
 3557TIP3   OH232229   4.789   5.526   7.082
 3557TIP3    H132230   4.841   5.606   7.084
 3557TIP3    H232231   4.748   5.525   6.996
 3558TIP3   OH232232   2.240   2.995   0.808
 3558TIP3    H132233   2.217   2.935   0.736
 3558TIP3    H232234   2.335   2.990   0.814
 3559TIP3   OH232235   4.994   5.038   0.846
 3559TIP3    H132236   5.070   4.983   0.829
 3559TIP3    H232237   5.030   5.127   0.854
 3560TIP3   OH232238   0.448   2.667   1.662
 3560TIP3    H132239   0.533   2.680   1.620
 3560TIP3    H232240   0.407   2.595   1.614
 3561TIP3   OH232241   0.552   5.586   8.302
 3561TIP3    H132242   0.605   5.604   8.380
 3561TIP3    H232243   0.592   5.509   8.263
 3562TIP3   OH232244   0.608   4.067   7.285
 3562TIP3    H132245   0.607   4.163   7.284
 3562TIP3    H232246   0.566   4.043   7.368
 3563TIP3   OH232247   3.018   2.960   1.874
 3563TIP3    H132248   3.055   2.935   1.959
 3563TIP3    H232249   2.947   3.021   1.895
 3564TIP3   OH232250   3.504   3.578   0.695
 3564TIP3    H132251   3.424   3.525   0.691
 3564TIP3    H232252   3.492   3.644   0.627
 3565TIP3   OH232253   4.324   0.586   7.446
 3565TIP3    H132254   4.269   0.561   7.520
 3565TIP3    H232255   4.402   0.531   7.455
 3566TIP3   OH232256   2.111   4.897   0.559
 3566TIP3    H132257   2.098   4.846   0.638
 3566TIP3    H232258   2.202   4.927   0.565
 3567TIP3   OH232259   4.886   0.690   7.195
 3567TIP3    H132260   4.817   0.721   7.255
 3567TIP3    H232261   4.961   0.746   7.213
 3568TIP3   OH232262   3.945   4.339   7.835
 3568TIP3    H132263   3.879   4.284   7.793
 3568TIP3    H232264   3.902   4.376   7.911
 3569TIP3   OH232265   3.432   0.534   1.655
 3569TIP3    H132266   3.493   0.548   1.728
 3569TIP3    H232267   3.348   0.567   1.687
 3570TIP3   OH232268   1.894   1.252   7.827
 3570TIP3    H132269   1.807   1.286   7.845
 3570TIP3    H232270   1.896   1.237   7.732
 3571TIP3   OH232271   5.491   6.238   1.039
 3571TIP3    H132272   5.430   6.252   0.966
 3571TIP3    H232273   5.548   6.315   1.037
 3572TIP3   OH232274   4.128   3.560   1.144
 3572TIP3    H132275   4.102   3.549   1.052
 3572TIP3    H232276   4.070   3.501   1.192
 3573TIP3   OH232277   4.421   0.193   8.215
 3573TIP3    H132278   4.397   0.139   8.139
 3573TIP3    H232279   4.513   0.214   8.201
 3574TIP3   OH232280   0.107   3.679   7.956
 3574TIP3    H132281   0.177   3.679   8.022
 3574TIP3    H232282   0.040   3.621   7.992
 3575TIP3   OH232283   5.144   1.714   1.959
 3575TIP3    H132284   5.149   1.628   2.000
 3575TIP3    H232285   5.053   1.742   1.971
 3576TIP3   OH232286   4.255   3.796   7.033
 3576TIP3    H132287   4.299   3.721   6.990
 3576TIP3    H232288   4.262   3.866   6.969
 3577TIP3   OH232289   0.708   1.740   0.058
 3577TIP3    H132290   0.663   1.689   0.125
 3577TIP3    H232291   0.783   1.686   0.032
 3578TIP3   OH232292   5.772   0.198   1.229
 3578TIP3    H132293   5.804   0.252   1.157
 3578TIP3    H232294   5.831   0.218   1.302
 3579TIP3   OH232295   0.558   3.188   1.681
 3579TIP3    H132296   0.478   3.181   1.629
 3579TIP3    H232297   0.542   3.134   1.758
 3580TIP3   OH232298   6.222   4.356   8.604
 3580TIP3    H132299   6.174   4.435   8.629
 3580TIP3    H232300   6.313   4.384   8.596
 3581TIP3   OH232301   2.990   1.347   7.367
 3581TIP3    H132302   2.899   1.320   7.368
 3581TIP3    H232303   3.033   1.287   7.306
 3582TIP3   OH232304   2.881   2.485   7.857
 3582TIP3    H132305   2.945   2.552   7.831
 3582TIP3    H232306   2.930   2.427   7.915
 3583TIP3   OH232307   5.211   2.074   7.247
 3583TIP3    H132308   5.156   2.001   7.219
 3583TIP3    H232309   5.299   2.050   7.219
 3584TIP3   OH232310   0.159   4.629   0.660
 3584TIP3    H132311   0.166   4.593   0.571
 3584TIP3    H232312   0.187   4.720   0.651
 3585TIP3   OH232313   5.654   4.370   7.156
 3585TIP3    H132314   5.568   4.398   7.188
 3585TIP3    H232315   5.635   4.300   7.094
 3586TIP3   OH232316   3.954   4.714   8.134
 3586TIP3    H132317   3.999   4.637   8.099
 3586TIP3    H232318   3.868   4.681   8.161
 3587TIP3   OH232319   4.946   1.319   0.588
 3587TIP3    H132320   5.013   1.360   0.534
 3587TIP3    H232321   4.986   1.236   0.616
 3588TIP3   OH232322   4.855   4.906   1.030
 3588TIP3    H132323   4.923   4.850   1.067
 3588TIP3    H232324   4.903   4.969   0.975
 3589TIP3   OH232325   0.360   6.592   0.405
 3589TIP3    H132326   0.412   6.593   0.325
 3589TIP3    H232327   0.410   6.537   0.466
 3590TIP3   OH232328   1.376   2.325   6.340
 3590TIP3    H132329   1.403   2.270   6.413
 3590TIP3    H232330   1.280   2.323   6.343
 3591TIP3   OH232331   3.215   3.356   8.687
 3591TIP3    H132332   3.298   3.400   8.709
 3591TIP3    H232333   3.197   3.383   8.597
 3592TIP3   OH232334   6.068   1.957   1.679
 3592TIP3    H132335   6.094   1.941   1.770
 3592TIP3    H232336   5.986   2.006   1.686
 3593TIP3   OH232337   0.738   6.212   8.092
 3593TIP3    H132338   0.668   6.175   8.038
 3593TIP3    H232339   0.720   6.179   8.180
 3594TIP3   OH232340   4.162   0.869   1.673
 3594TIP3    H132341   4.164   0.773   1.675
 3594TIP3    H232342   4.248   0.896   1.705
 3595TIP3   OH232343   6.224   1.917   1.355
 3595TIP3    H132344   6.287   1.892   1.287
 3595TIP3    H232345   6.172   1.986   1.315
 3596TIP3   OH232346   0.015   1.396   6.623
 3596TIP3    H132347   0.028   1.302   6.629
 3596TIP3    H232348   6.774   1.407   6.624
 3597TIP3   OH232349   3.907   0.586   0.548
 3597TIP3    H132350   3.830   0.619   0.502
 3597TIP3    H232351   3.885   0.495   0.570
 3598TIP3   OH232352   3.839   3.930   1.528
 3598TIP3    H132353   3.822   3.988   1.453
 3598TIP3    H232354   3.922   3.962   1.564
 3599TIP3   OH232355   0.025   4.045   1.132
 3599TIP3    H132356   6.794   4.073   1.165
 3599TIP3    H232357   0.014   3.951   1.114
 3600TIP3   OH232358   5.525   1.677   6.694
 3600TIP3    H132359   5.440   1.704   6.729
 3600TIP3    H232360   5.584   1.749   6.717
 3601TIP3   OH232361   5.960   5.771   2.212
 3601TIP3    H132362   5.879   5.787   2.163
 3601TIP3    H232363   5.982   5.679   2.193
 3602TIP3   OH232364   4.045   4.782   2.338
 3602TIP3    H132365   4.105   4.708   2.350
 3602TIP3    H232366   3.960   4.748   2.366
 3603TIP3   OH232367   5.430   4.271   8.538
 3603TIP3    H132368   5.352   4.227   8.572
 3603TIP3    H232369   5.497   4.202   8.534
 3604TIP3   OH232370   3.400   1.349   1.724
 3604TIP3    H132371   3.381   1.259   1.753
 3604TIP3    H232372   3.384   1.348   1.630
 3605TIP3   OH232373   2.001   1.503   7.552
 3605TIP3    H132374   1.951   1.432   7.511
 3605TIP3    H232375   2.004   1.572   7.486
 3606TIP3   OH232376   1.387   5.598   6.319
 3606TIP3    H132377   1.366   5.561   6.233
 3606TIP3    H232378   1.306   5.641   6.347
 3607TIP3   OH232379   4.500   4.993   2.543
 3607TIP3    H132380   4.432   4.999   2.476
 3607TIP3    H232381   4.502   4.900   2.566
 3608TIP3   OH232382   3.619   0.223   6.766
 3608TIP3    H132383   3.638   0.307   6.807
 3608TIP3    H232384   3.704   0.190   6.737
 3609TIP3   OH232385   2.230   6.688   6.995
 3609TIP3    H132386   2.271   6.610   6.957
 3609TIP3    H232387   2.202   6.739   6.919
 3610TIP3   OH232388   1.686   0.625   7.102
 3610TIP3    H132389   1.634   0.549   7.128
 3610TIP3    H232390   1.664   0.692   7.166
 3611TIP3   OH232391   4.098   5.010   6.930
 3611TIP3    H132392   4.067   4.920   6.936
 3611TIP3    H232393   4.176   5.006   6.875
 3612TIP3   OH232394   0.277   6.544   7.046
 3612TIP3    H132395   0.301   6.637   7.045
 3612TIP3    H232396   0.204   6.537   6.985
 3613TIP3   OH232397   2.308   0.522   2.509
 3613TIP3    H132398   2.224   0.494   2.544
 3613TIP3    H232399   2.294   0.612   2.481
 3614TIP3   OH232400   0.920   0.020   8.328
 3614TIP3    H132401   0.933   0.002   8.235
 3614TIP3    H232402   0.942   0.112   8.338
 3615TIP3   OH232403   1.242   4.838   1.981
 3615TIP3    H132404   1.268   4.878   2.065
 3615TIP3    H232405   1.154   4.872   1.966
 3616TIP3   OH232406   0.166   1.170   0.263
 3616TIP3    H132407   0.128   1.163   0.350
 3616TIP3    H232408   0.163   1.081   0.228
 3617TIP3   OH232409   2.920   5.081   7.338
 3617TIP3    H132410   2.945   5.026   7.413
 3617TIP3    H232411   2.979   5.156   7.343
 3618TIP3   OH232412   2.156   4.317   7.918
 3618TIP3    H132413   2.191   4.318   8.007
 3618TIP3    H232414   2.140   4.409   7.898
 3619TIP3   OH232415   6.342   5.533   6.539
 3619TIP3    H132416   6.279   5.532   6.612
 3619TIP3    H232417   6.394   5.454   6.552
 3620TIP3   OH232418   3.529   3.768   8.130
 3620TIP3    H132419   3.471   3.829   8.084
 3620TIP3    H232420   3.617   3.794   8.105
 3621TIP3   OH232421   4.604   3.934   1.846
 3621TIP3    H132422   4.532   3.993   1.824
 3621TIP3    H232423   4.571   3.847   1.824
 3622TIP3   OH232424   1.983   0.905   7.547
 3622TIP3    H132425   1.980   0.813   7.573
 3622TIP3    H232426   1.920   0.948   7.605
 3623TIP3   OH232427   4.620   4.994   1.171
 3623TIP3    H132428   4.623   5.085   1.200
 3623TIP3    H232429   4.706   4.978   1.133
 3624TIP3   OH232430   1.902   2.061   7.552
 3624TIP3    H132431   1.984   2.071   7.505
 3624TIP3    H232432   1.898   2.137   7.610
 3625TIP3   OH232433   3.795   6.657   0.013
 3625TIP3    H132434   3.847   6.578   0.025
 3625TIP3    H232435   3.855   6.720   8.700
 3626TIP3   OH232436   5.936   4.661   1.338
 3626TIP3    H132437   5.977   4.574   1.337
 3626TIP3    H232438   5.843   4.643   1.325
 3627TIP3   OH232439   4.413   5.852   8.232
 3627TIP3    H132440   4.432   5.761   8.209
 3627TIP3    H232441   4.449   5.903   8.160
 3628TIP3   OH232442   0.319   4.372   0.301
 3628TIP3    H132443   0.257   4.442   0.321
 3628TIP3    H232444   0.383   4.376   0.373
 3629TIP3   OH232445   0.688   6.040   6.803
 3629TIP3    H132446   0.740   6.120   6.805
 3629TIP3    H232447   0.746   5.972   6.837
 3630TIP3   OH232448   0.097   5.083   8.703
 3630TIP3    H132449   0.140   5.103   8.619
 3630TIP3    H232450   0.043   5.160   8.720
 3631TIP3   OH232451   6.308   4.664   1.627
 3631TIP3    H132452   6.343   4.588   1.581
 3631TIP3    H232453   6.364   4.737   1.599
 3632TIP3   OH232454   1.953   6.749   6.847
 3632TIP3    H132455   1.954   6.674   6.788
 3632TIP3    H232456   2.025   6.804   6.818
 3633TIP3   OH232457   0.862   0.191   1.599
 3633TIP3    H132458   0.818   0.223   1.520
 3633TIP3    H232459   0.897   0.270   1.640
 3634TIP3   OH232460   5.150   1.758   8.244
 3634TIP3    H132461   5.194   1.675   8.265
 3634TIP3    H232462   5.173   1.816   8.317
 3635TIP3   OH232463   5.307   0.158   7.076
 3635TIP3    H132464   5.347   0.235   7.117
 3635TIP3    H232465   5.319   0.174   6.982
 3636TIP3   OH232466   2.984   5.644   6.703
 3636TIP3    H132467   3.058   5.597   6.663
 3636TIP3    H232468   3.007   5.736   6.696
 3637TIP3   OH232469   1.012   0.900   0.676
 3637TIP3    H132470   1.077   0.928   0.740
 3637TIP3    H232471   0.973   0.982   0.644
 3638TIP3   OH232472   0.097   3.158   7.668
 3638TIP3    H132473   0.133   3.241   7.697
 3638TIP3    H232474   0.007   3.178   7.643
 3639TIP3   OH232475   0.688   1.861   7.406
 3639TIP3    H132476   0.617   1.817   7.361
 3639TIP3    H232477   0.739   1.791   7.446
 3640TIP3   OH232478   5.359   3.319   8.646
 3640TIP3    H132479   5.373   3.410   8.672
 3640TIP3    H232480   5.436   3.297   8.595
 3641TIP3   OH232481   5.584   4.324   2.443
 3641TIP3    H132482   5.616   4.412   2.461
 3641TIP3    H232483   5.622   4.270   2.513
 3642TIP3   OH232484   5.688   1.410   7.610
 3642TIP3    H132485   5.675   1.342   7.543
 3642TIP3    H232486   5.662   1.491   7.566
 3643TIP3   OH232487   4.766   4.078   0.681
 3643TIP3    H132488   4.831   4.014   0.651
 3643TIP3    H232489   4.697   4.024   0.720
 3644TIP3   OH232490   0.611   0.675   7.997
 3644TIP3    H132491   0.538   0.718   7.954
 3644TIP3    H232492   0.580   0.587   8.016
 3645TIP3   OH232493   1.805   1.024   6.711
 3645TIP3    H132494   1.773   1.106   6.749
 3645TIP3    H232495   1.809   0.964   6.785
 3646TIP3   OH232496   5.244   5.785   6.590
 3646TIP3    H132497   5.178   5.788   6.522
 3646TIP3    H232498   5.234   5.697   6.628
 3647TIP3   OH232499   1.964   6.237   6.591
 3647TIP3    H132500   2.049   6.278   6.609
 3647TIP3    H232501   1.907   6.309   6.565
 3648TIP3   OH232502   6.467   0.976   0.295
 3648TIP3    H132503   6.400   1.042   0.312
 3648TIP3    H232504   6.433   0.897   0.339
 3649TIP3   OH232505   6.293   3.973   8.395
 3649TIP3    H132506   6.254   3.985   8.308
 3649TIP3    H232507   6.289   3.878   8.410
 3650TIP3   OH232508   2.792   3.129   0.886
 3650TIP3    H132509   2.852   3.195   0.854
 3650TIP3    H232510   2.835   3.046   0.867
 3651TIP3   OH232511   2.958   5.263   0.101
 3651TIP3    H132512   2.913   5.179   0.095
 3651TIP3    H232513   3.001   5.273   0.015
 3652TIP3   OH232514   1.460   5.432   7.112
 3652TIP3    H132515   1.463   5.373   7.038
 3652TIP3    H232516   1.445   5.519   7.074
 3653TIP3   OH232517   5.264   4.749   0.359
 3653TIP3    H132518   5.356   4.723   0.365
 3653TIP3    H232519   5.216   4.667   0.369
 3654TIP3   OH232520   0.439   5.431   0.439
 3654TIP3    H132521   0.459   5.376   0.363
 3654TIP3    H232522   0.409   5.514   0.402
 3655TIP3   OH232523   1.318   6.758   0.929
 3655TIP3    H132524   1.276   6.840   0.904
 3655TIP3    H232525   1.302   6.699   0.855
 3656TIP3   OH232526   0.300   3.321   1.859
 3656TIP3    H132527   0.357   3.252   1.892
 3656TIP3    H232528   0.268   3.365   1.938
 3657TIP3   OH232529   3.024   5.763   0.481
 3657TIP3    H132530   3.013   5.700   0.553
 3657TIP3    H232531   3.112   5.746   0.448
 3658TIP3   OH232532   5.231   4.265   7.832
 3658TIP3    H132533   5.223   4.315   7.913
 3658TIP3    H232534   5.146   4.223   7.821
 3659TIP3   OH232535   5.523   3.912   6.957
 3659TIP3    H132536   5.528   3.890   7.050
 3659TIP3    H232537   5.440   3.873   6.928
 3660TIP3   OH232538   4.659   4.236   8.121
 3660TIP3    H132539   4.678   4.252   8.029
 3660TIP3    H232540   4.593   4.166   8.119
 3661TIP3   OH232541   1.905   1.774   0.963
 3661TIP3    H132542   1.820   1.740   0.989
 3661TIP3    H232543   1.956   1.696   0.938
 3662TIP3   OH232544   1.382   3.071   7.012
 3662TIP3    H132545   1.474   3.054   7.034
 3662TIP3    H232546   1.368   3.026   6.929
 3663TIP3   OH232547   6.580   1.267   0.700
 3663TIP3    H132548   6.541   1.207   0.763
 3663TIP3    H232549   6.624   1.333   0.754
 3664TIP3   OH232550   4.334   5.998   0.113
 3664TIP3    H132551   4.394   6.065   0.079
 3664TIP3    H232552   4.348   5.922   0.057
 3665TIP3   OH232553   4.541   5.392   0.239
 3665TIP3    H132554   4.546   5.408   0.145
 3665TIP3    H232555   4.521   5.477   0.278
 3666TIP3   OH232556   5.023   5.582   6.280
 3666TIP3    H132557   5.015   5.669   6.241
 3666TIP3    H232558   5.116   5.573   6.300
 3667TIP3   OH232559   6.089   6.414   2.200
 3667TIP3    H132560   6.095   6.471   2.277
 3667TIP3    H232561   6.067   6.328   2.236
 3668TIP3   OH232562   2.738   2.837   1.760
 3668TIP3    H132563   2.826   2.873   1.750
 3668TIP3    H232564   2.680   2.910   1.736
 3669TIP3   OH232565   1.988   6.468   7.526
 3669TIP3    H132566   1.955   6.473   7.436
 3669TIP3    H232567   1.957   6.548   7.567
 3670TIP3   OH232568   4.994   5.596   8.285
 3670TIP3    H132569   5.082   5.612   8.251
 3670TIP3    H232570   4.968   5.512   8.246
 3671TIP3   OH232571   5.826   6.322   6.441
 3671TIP3    H132572   5.810   6.399   6.386
 3671TIP3    H232573   5.746   6.270   6.434
 3672TIP3   OH232574   5.572   0.574   7.059
 3672TIP3    H132575   5.533   0.661   7.054
 3672TIP3    H232576   5.620   0.574   7.142
 3673TIP3   OH232577   6.716   2.158   0.918
 3673TIP3    H132578   6.655   2.153   0.844
 3673TIP3    H232579   6.780   2.224   0.893
 3674TIP3   OH232580   1.605   2.626   7.486
 3674TIP3    H132581   1.586   2.668   7.570
 3674TIP3    H232582   1.579   2.535   7.497
 3675TIP3   OH232583   1.156   2.369   0.314
 3675TIP3    H132584   1.221   2.311   0.276
 3675TIP3    H232585   1.121   2.321   0.390
 3676TIP3   OH232586   3.719   1.374   0.078
 3676TIP3    H132587   3.797   1.383   0.132
 3676TIP3    H232588   3.667   1.306   0.121
 3677TIP3   OH232589   6.803   1.438   0.570
 3677TIP3    H132590   6.780   1.467   0.659
 3677TIP3    H232591   6.846   1.513   0.530
 3678TIP3   OH232592   6.670   2.706   7.876
 3678TIP3    H132593   6.764   2.704   7.894
 3678TIP3    H232594   6.630   2.662   7.951
 3679TIP3   OH232595   2.652   1.536   1.532
 3679TIP3    H132596   2.713   1.490   1.474
 3679TIP3    H232597   2.703   1.611   1.564
 3680TIP3   OH232598   6.119   2.211   7.809
 3680TIP3    H132599   6.183   2.235   7.742
 3680TIP3    H232600   6.164   2.146   7.863
 3681TIP3   OH232601   4.414   5.299   8.421
 3681TIP3    H132602   4.509   5.303   8.426
 3681TIP3    H232603   4.395   5.212   8.386
 3682TIP3   OH232604   3.813   2.467   8.317
 3682TIP3    H132605   3.869   2.391   8.302
 3682TIP3    H232606   3.759   2.474   8.239
 3683TIP3   OH232607   4.207   6.734   1.597
 3683TIP3    H132608   4.296   6.744   1.564
 3683TIP3    H232609   4.211   6.767   1.687
 3684TIP3   OH232610   3.562   1.720   7.377
 3684TIP3    H132611   3.468   1.708   7.368
 3684TIP3    H232612   3.572   1.808   7.413
 3685TIP3   OH232613   2.249   0.442   7.400
 3685TIP3    H132614   2.318   0.444   7.465
 3685TIP3    H232615   2.289   0.480   7.321
 3686TIP3   OH232616   0.790   3.914   8.539
 3686TIP3    H132617   0.774   3.968   8.616
 3686TIP3    H232618   0.809   3.977   8.469
 3687TIP3   OH232619   3.944   4.009   7.750
 3687TIP3    H132620   3.860   3.990   7.708
 3687TIP3    H232621   3.967   4.097   7.721
 3688TIP3   OH232622   1.856   1.830   7.714
 3688TIP3    H132623   1.854   1.888   7.790
 3688TIP3    H232624   1.878   1.887   7.641
 3689TIP3   OH232625   3.105   1.705   1.796
 3689TIP3    H132626   3.052   1.747   1.864
 3689TIP3    H232627   3.164   1.647   1.844
 3690TIP3   OH232628   3.000   4.389   0.237
 3690TIP3    H132629   3.082   4.367   0.281
 3690TIP3    H232630   3.023   4.390   0.144
 3691TIP3   OH232631   5.420   1.403   0.500
 3691TIP3    H132632   5.330   1.378   0.481
 3691TIP3    H232633   5.433   1.485   0.453
 3692TIP3   OH232634   1.676   3.042   0.425
 3692TIP3    H132635   1.729   3.121   0.428
 3692TIP3    H232636   1.695   3.003   0.340
 3693TIP3   OH232637   4.066   1.181   1.737
 3693TIP3    H132638   4.149   1.152   1.776
 3693TIP3    H232639   4.002   1.173   1.807
 3694TIP3   OH232640   6.840   3.916   7.989
 3694TIP3    H132641   0.010   3.826   7.965
 3694TIP3    H232642   6.808   3.955   7.908
 3695TIP3   OH232643   6.595   0.818   2.285
 3695TIP3    H132644   6.564   0.727   2.286
 3695TIP3    H232645   6.662   0.819   2.217
 3696TIP3   OH232646   5.211   1.768   7.162
 3696TIP3    H132647   5.245   1.678   7.169
 3696TIP3    H232648   5.136   1.760   7.103
 3697TIP3   OH232649   1.282   4.174   7.868
 3697TIP3    H132650   1.284   4.091   7.821
 3697TIP3    H232651   1.369   4.182   7.907
 3698TIP3   OH232652   5.269   3.948   8.687
 3698TIP3    H132653   5.311   3.928   8.603
 3698TIP3    H232654   5.255   4.042   8.684
 3699TIP3   OH232655   0.742   2.553   6.675
 3699TIP3    H132656   0.743   2.464   6.641
 3699TIP3    H232657   0.684   2.601   6.617
 3700TIP3   OH232658   4.627   2.033   1.709
 3700TIP3    H132659   4.708   2.085   1.706
 3700TIP3    H232660   4.628   1.982   1.628
 3701TIP3   OH232661   2.613   4.789   8.474
 3701TIP3    H132662   2.606   4.769   8.567
 3701TIP3    H232663   2.587   4.708   8.430
 3702TIP3   OH232664   4.536   4.257   1.111
 3702TIP3    H132665   4.612   4.297   1.152
 3702TIP3    H232666   4.462   4.281   1.168
 3703TIP3   OH232667   2.950   0.113   8.040
 3703TIP3    H132668   2.958   0.034   7.986
 3703TIP3    H232669   3.007   0.177   7.998
 3704TIP3   OH232670   3.490   2.380   8.460
 3704TIP3    H132671   3.494   2.474   8.439
 3704TIP3    H232672   3.568   2.365   8.513
 3705TIP3   OH232673   4.293   0.994   0.325
 3705TIP3    H132674   4.200   0.981   0.345
 3705TIP3    H232675   4.317   1.074   0.372
 3706TIP3   OH232676   5.865   5.467   1.562
 3706TIP3    H132677   5.805   5.538   1.583
 3706TIP3    H232678   5.935   5.474   1.626
 3707TIP3   OH232679   1.087   0.001   7.137
 3707TIP3    H132680   1.170   0.045   7.158
 3707TIP3    H232681   1.031   0.020   7.212
 3708TIP3   OH232682   3.406   3.641   0.941
 3708TIP3    H132683   3.460   3.654   0.863
 3708TIP3    H232684   3.445   3.697   1.007
 3709TIP3   OH232685   4.300   5.694   0.195
 3709TIP3    H132686   4.374   5.702   0.254
 3709TIP3    H232687   4.253   5.616   0.225
 3710TIP3   OH232688   5.773   1.984   0.220
 3710TIP3    H132689   5.793   1.989   0.314
 3710TIP3    H232690   5.847   1.938   0.182
 3711TIP3   OH232691   1.716   3.011   1.774
 3711TIP3    H132692   1.635   3.058   1.795
 3711TIP3    H232693   1.697   2.964   1.693
 3712TIP3   OH232694   6.207   4.287   8.082
 3712TIP3    H132695   6.144   4.275   8.012
 3712TIP3    H232696   6.240   4.376   8.070
 3713TIP3   OH232697   1.857   4.719   6.313
 3713TIP3    H132698   1.841   4.633   6.274
 3713TIP3    H232699   1.770   4.758   6.323
 3714TIP3   OH232700   2.709   3.140   1.152
 3714TIP3    H132701   2.729   3.133   1.058
 3714TIP3    H232702   2.794   3.151   1.194
 3715TIP3   OH232703   6.294   1.734   8.333
 3715TIP3    H132704   6.296   1.764   8.242
 3715TIP3    H232705   6.254   1.806   8.382
 3716TIP3   OH232706   5.370   3.909   8.385
 3716TIP3    H132707   5.284   3.913   8.344
 3716TIP3    H232708   5.396   3.817   8.379
 3717TIP3   OH232709   1.529   5.367   1.292
 3717TIP3    H132710   1.461   5.354   1.226
 3717TIP3    H232711   1.611   5.362   1.243
 3718TIP3   OH232712   2.920   0.331   7.335
 3718TIP3    H132713   2.828   0.310   7.345
 3718TIP3    H232714   2.939   0.316   7.242
 3719TIP3   OH232715   1.157   4.748   1.205
 3719TIP3    H132716   1.122   4.692   1.274
 3719TIP3    H232717   1.248   4.766   1.232
 3720TIP3   OH232718   2.193   0.138   1.939
 3720TIP3    H132719   2.197   0.043   1.927
 3720TIP3    H232720   2.271   0.159   1.991
 3721TIP3   OH232721   0.192   1.808   6.933
 3721TIP3    H132722   0.206   1.742   6.866
 3721TIP3    H232723   0.277   1.817   6.976
 3722TIP3   OH232724   0.746   1.063   7.397
 3722TIP3    H132725   0.706   1.137   7.349
 3722TIP3    H232726   0.812   1.104   7.453
 3723TIP3   OH232727   4.621   4.984   7.976
 3723TIP3    H132728   4.529   5.006   7.956
 3723TIP3    H232729   4.672   5.035   7.913
 3724TIP3   OH232730   6.775   3.061   7.008
 3724TIP3    H132731   6.692   3.074   7.053
 3724TIP3    H232732   6.798   3.147   6.974
 3725TIP3   OH232733   4.427   2.683   0.758
 3725TIP3    H132734   4.368   2.628   0.706
 3725TIP3    H232735   4.480   2.620   0.808
 3726TIP3   OH232736   1.237   5.821   7.847
 3726TIP3    H132737   1.183   5.868   7.783
 3726TIP3    H232738   1.226   5.729   7.825
 3727TIP3   OH232739   5.192   2.511   2.527
 3727TIP3    H132740   5.159   2.599   2.508
 3727TIP3    H232741   5.271   2.526   2.580
 3728TIP3   OH232742   6.059   4.319   7.819
 3728TIP3    H132743   6.101   4.277   7.743
 3728TIP3    H232744   6.115   4.394   7.838
 3729TIP3   OH232745   6.695   0.813   0.912
 3729TIP3    H132746   6.621   0.754   0.899
 3729TIP3    H232747   6.712   0.850   0.825
 3730TIP3   OH232748   0.157   0.847   0.955
 3730TIP3    H132749   0.112   0.925   0.921
 3730TIP3    H232750   0.172   0.793   0.877
 3731TIP3   OH232751   0.653   1.284   7.259
 3731TIP3    H132752   0.676   1.359   7.315
 3731TIP3    H232753   0.608   1.322   7.184
 3732TIP3   OH232754   0.455   6.721   1.384
 3732TIP3    H132755   0.404   6.787   1.336
 3732TIP3    H232756   0.546   6.747   1.371
 3733TIP3   OH232757   5.383   4.408   0.150
 3733TIP3    H132758   5.428   4.325   0.166
 3733TIP3    H232759   5.442   4.475   0.184
 3734TIP3   OH232760   2.728   1.265   7.408
 3734TIP3    H132761   2.703   1.176   7.434
 3734TIP3    H232762   2.701   1.319   7.482
 3735TIP3   OH232763   1.528   5.093   6.524
 3735TIP3    H132764   1.492   5.041   6.596
 3735TIP3    H232765   1.552   5.176   6.565
 3736TIP3   OH232766   2.271   4.005   8.287
 3736TIP3    H132767   2.251   4.034   8.198
 3736TIP3    H232768   2.188   3.973   8.321
 3737TIP3   OH232769   4.542   2.112   0.547
 3737TIP3    H132770   4.566   2.089   0.637
 3737TIP3    H232771   4.622   2.100   0.497
 3738TIP3   OH232772   1.127   5.335   7.678
 3738TIP3    H132773   1.210   5.365   7.641
 3738TIP3    H232774   1.150   5.263   7.735
 3739TIP3   OH232775   1.467   0.511   0.648
 3739TIP3    H132776   1.482   0.450   0.575
 3739TIP3    H232777   1.534   0.488   0.713
 3740TIP3   OH232778   5.087   1.959   2.285
 3740TIP3    H132779   5.017   1.985   2.345
 3740TIP3    H232780   5.043   1.910   2.216
 3741TIP3   OH232781   5.560   1.466   7.900
 3741TIP3    H132782   5.473   1.473   7.940
 3741TIP3    H232783   5.544   1.433   7.812
 3742TIP3   OH232784   5.674   0.527   1.157
 3742TIP3    H132785   5.668   0.561   1.246
 3742TIP3    H232786   5.583   0.511   1.131
 3743TIP3   OH232787   6.136   3.080   1.854
 3743TIP3    H132788   6.156   3.082   1.948
 3743TIP3    H232789   6.164   3.165   1.821
 3744TIP3   OH232790   1.616   2.964   8.563
 3744TIP3    H132791   1.542   2.972   8.503
 3744TIP3    H232792   1.693   2.985   8.509
 3745TIP3   OH232793   6.067   4.636   0.985
 3745TIP3    H132794   5.977   4.655   1.013
 3745TIP3    H232795   6.087   4.705   0.922
 3746TIP3   OH232796   1.829   5.738   7.120
 3746TIP3    H132797   1.794   5.807   7.063
 3746TIP3    H232798   1.901   5.780   7.167
 3747TIP3   OH232799   6.847   4.936   1.473
 3747TIP3    H132800   6.831   4.897   1.388
 3747TIP3    H232801   0.063   4.884   1.511
 3748TIP3   OH232802   5.128   3.875   1.853
 3748TIP3    H132803   5.178   3.809   1.804
 3748TIP3    H232804   5.049   3.828   1.881
 3749TIP3   OH232805   4.212   3.700   0.786
 3749TIP3    H132806   4.136   3.755   0.807
 3749TIP3    H232807   4.282   3.734   0.841
 3750TIP3   OH232808   2.876   6.208   7.276
 3750TIP3    H132809   2.921   6.274   7.329
 3750TIP3    H232810   2.938   6.185   7.207
 3751TIP3   OH232811   2.353   1.385   1.348
 3751TIP3    H132812   2.331   1.381   1.441
 3751TIP3    H232813   2.444   1.356   1.343
 3752TIP3   OH232814   4.395   5.076   1.687
 3752TIP3    H132815   4.457   5.142   1.718
 3752TIP3    H232816   4.344   5.122   1.619
 3753TIP3   OH232817   4.377   3.077   6.487
 3753TIP3    H132818   4.371   2.992   6.530
 3753TIP3    H232819   4.308   3.074   6.420
 3754TIP3   OH232820   0.562   2.411   1.513
 3754TIP3    H132821   0.648   2.390   1.477
 3754TIP3    H232822   0.557   2.360   1.594
 3755TIP3   OH232823   4.157   4.208   7.989
 3755TIP3    H132824   4.072   4.229   7.950
 3755TIP3    H232825   4.136   4.178   8.077
 3756TIP3   OH232826   3.156   0.305   1.185
 3756TIP3    H132827   3.152   0.235   1.250
 3756TIP3    H232828   3.247   0.304   1.154
 3757TIP3   OH232829   3.610   4.494   0.925
 3757TIP3    H132830   3.590   4.450   0.842
 3757TIP3    H232831   3.542   4.465   0.985
 3758TIP3   OH232832   2.043   5.829   8.486
 3758TIP3    H132833   2.017   5.805   8.575
 3758TIP3    H232834   2.110   5.896   8.498
 3759TIP3   OH232835   3.975   1.888   7.421
 3759TIP3    H132836   3.956   1.923   7.334
 3759TIP3    H232837   3.929   1.804   7.424
 3760TIP3   OH232838   4.162   6.354   6.106
 3760TIP3    H132839   4.165   6.447   6.087
 3760TIP3    H232840   4.085   6.342   6.161
 3761TIP3   OH232841   1.726   3.699   6.408
 3761TIP3    H132842   1.715   3.616   6.454
 3761TIP3    H232843   1.638   3.724   6.381
 3762TIP3   OH232844   2.194   1.981   1.381
 3762TIP3    H132845   2.199   1.895   1.424
 3762TIP3    H232846   2.132   1.969   1.310
 3763TIP3   OH232847   0.096   5.871   0.217
 3763TIP3    H132848   0.118   5.884   0.309
 3763TIP3    H232849   0.075   5.778   0.210
 3764TIP3   OH232850   3.812   2.437   6.754
 3764TIP3    H132851   3.860   2.399   6.828
 3764TIP3    H232852   3.813   2.369   6.687
 3765TIP3   OH232853   6.803   6.476   2.541
 3765TIP3    H132854   6.710   6.468   2.561
 3765TIP3    H232855   6.817   6.571   2.533
 3766TIP3   OH232856   2.632   6.613   0.512
 3766TIP3    H132857   2.643   6.592   0.605
 3766TIP3    H232858   2.690   6.552   0.466
 3767TIP3   OH232859   0.423   1.302   0.327
 3767TIP3    H132860   0.328   1.293   0.320
 3767TIP3    H232861   0.457   1.243   0.260
 3768TIP3   OH232862   0.322   5.668   6.950
 3768TIP3    H132863   0.372   5.588   6.967
 3768TIP3    H232864   0.388   5.732   6.923
 3769TIP3   OH232865   4.383   1.363   7.930
 3769TIP3    H132866   4.348   1.428   7.869
 3769TIP3    H232867   4.331   1.374   8.009
 3770TIP3   OH232868   2.414   0.312   6.681
 3770TIP3    H132869   2.474   0.298   6.754
 3770TIP3    H232870   2.404   0.407   6.676
 3771TIP3   OH232871   3.620   3.037   2.165
 3771TIP3    H132872   3.625   3.054   2.259
 3771TIP3    H232873   3.540   2.985   2.154
 3772TIP3   OH232874   2.851   1.598   2.265
 3772TIP3    H132875   2.862   1.693   2.265
 3772TIP3    H232876   2.924   1.565   2.316
 3773TIP3   OH232877   1.816   4.462   7.159
 3773TIP3    H132878   1.856   4.454   7.246
 3773TIP3    H232879   1.725   4.434   7.172
 3774TIP3   OH232880   0.201   0.357   7.062
 3774TIP3    H132881   0.267   0.387   7.125
 3774TIP3    H232882   0.245   0.288   7.012
 3775TIP3   OH232883   1.858   6.142   2.094
 3775TIP3    H132884   1.938   6.161   2.045
 3775TIP3    H232885   1.803   6.219   2.081
 3776TIP3   OH232886   0.054   5.742   7.623
 3776TIP3    H132887   0.134   5.778   7.661
 3776TIP3    H232888   0.082   5.704   7.540
 3777TIP3   OH232889   4.402   3.806   2.513
 3777TIP3    H132890   4.310   3.784   2.528
 3777TIP3    H232891   4.440   3.815   2.601
 3778TIP3   OH232892   5.173   3.469   1.034
 3778TIP3    H132893   5.182   3.405   0.963
 3778TIP3    H232894   5.085   3.455   1.068
 3779TIP3   OH232895   3.958   2.782   7.212
 3779TIP3    H132896   3.926   2.839   7.282
 3779TIP3    H232897   4.053   2.788   7.219
 3780TIP3   OH232898   6.747   4.582   8.212
 3780TIP3    H132899   6.795   4.608   8.290
 3780TIP3    H232900   6.657   4.569   8.243
 3781TIP3   OH232901   2.092   0.896   0.749
 3781TIP3    H132902   2.083   0.807   0.715
 3781TIP3    H232903   2.128   0.946   0.675
 3782TIP3   OH232904   2.023   3.828   6.645
 3782TIP3    H132905   2.116   3.842   6.627
 3782TIP3    H232906   2.001   3.748   6.598
 3783TIP3   OH232907   1.676   3.979   1.367
 3783TIP3    H132908   1.730   4.020   1.434
 3783TIP3    H232909   1.600   4.037   1.359
 3784TIP3   OH232910   6.550   0.379   1.536
 3784TIP3    H132911   6.536   0.433   1.458
 3784TIP3    H232912   6.637   0.342   1.525
 3785TIP3   OH232913   0.964   0.816   6.247
 3785TIP3    H132914   0.967   0.743   6.186
 3785TIP3    H232915   1.019   0.789   6.320
 3786TIP3   OH232916   4.985   3.447   0.704
 3786TIP3    H132917   4.942   3.432   0.619
 3786TIP3    H232918   5.058   3.506   0.683
 3787TIP3   OH232919   2.788   4.166   7.013
 3787TIP3    H132920   2.722   4.096   7.013
 3787TIP3    H232921   2.801   4.187   7.105
 3788TIP3   OH232922   1.238   1.568   7.534
 3788TIP3    H132923   1.143   1.560   7.542
 3788TIP3    H232924   1.269   1.477   7.523
 3789TIP3   OH232925   5.107   4.550   0.473
 3789TIP3    H132926   5.021   4.564   0.433
 3789TIP3    H232927   5.088   4.519   0.561
 3790TIP3   OH232928   6.691   3.718   0.555
 3790TIP3    H132929   6.684   3.735   0.461
 3790TIP3    H232930   6.630   3.779   0.595
 3791TIP3   OH232931   6.352   0.293   0.561
 3791TIP3    H132932   6.393   0.207   0.551
 3791TIP3    H232933   6.313   0.311   0.475
 3792TIP3   OH232934   6.130   1.176   7.653
 3792TIP3    H132935   6.186   1.163   7.730
 3792TIP3    H232936   6.058   1.230   7.684
 3793TIP3   OH232937   0.818   6.427   7.931
 3793TIP3    H132938   0.897   6.406   7.881
 3793TIP3    H232939   0.802   6.349   7.985
 3794TIP3   OH232940   6.814   0.720   8.101
 3794TIP3    H132941   0.001   0.634   8.115
 3794TIP3    H232942   6.720   0.702   8.109
 3795TIP3   OH232943   2.279   2.054   8.358
 3795TIP3    H132944   2.268   1.986   8.292
 3795TIP3    H232945   2.370   2.084   8.347
 3796TIP3   OH232946   3.915   5.121   6.534
 3796TIP3    H132947   3.832   5.103   6.578
 3796TIP3    H232948   3.947   5.034   6.509
 3797TIP3   OH232949   3.513   3.260   7.263
 3797TIP3    H132950   3.558   3.288   7.343
 3797TIP3    H232951   3.579   3.272   7.194
 3798TIP3   OH232952   4.726   0.998   7.110
 3798TIP3    H132953   4.640   0.956   7.110
 3798TIP3    H232954   4.766   0.971   7.028
 3799TIP3   OH232955   4.259   6.554   1.091
 3799TIP3    H132956   4.353   6.560   1.074
 3799TIP3    H232957   4.245   6.463   1.117
 3800TIP3   OH232958   4.070   0.245   0.892
 3800TIP3    H132959   4.061   0.150   0.878
 3800TIP3    H232960   3.996   0.268   0.948
 3801TIP3   OH232961   5.857   6.745   8.453
 3801TIP3    H132962   5.798   6.815   8.422
 3801TIP3    H232963   5.825   6.724   8.540
 3802TIP3   OH232964   2.057   0.728   1.426
 3802TIP3    H132965   2.124   0.710   1.492
 3802TIP3    H232966   2.017   0.643   1.409
 3803TIP3   OH232967   0.127   5.674   7.882
 3803TIP3    H132968   0.068   5.635   7.817
 3803TIP3    H232969   0.199   5.709   7.830
 3804TIP3   OH232970   0.380   0.811   8.355
 3804TIP3    H132971   0.339   0.831   8.271
 3804TIP3    H232972   0.464   0.772   8.333
 3805TIP3   OH232973   5.632   4.981   1.252
 3805TIP3    H132974   5.620   5.067   1.214
 3805TIP3    H232975   5.653   4.998   1.344
 3806TIP3   OH232976   4.988   3.817   1.558
 3806TIP3    H132977   4.941   3.855   1.632
 3806TIP3    H232978   5.018   3.731   1.590
 3807TIP3   OH232979   4.551   6.138   1.308
 3807TIP3    H132980   4.646   6.141   1.318
 3807TIP3    H232981   4.522   6.076   1.375
 3808TIP3   OH232982   2.287   0.505   1.063
 3808TIP3    H132983   2.256   0.492   0.974
 3808TIP3    H232984   2.258   0.427   1.110
 3809TIP3   OH232985   6.145   0.811   6.517
 3809TIP3    H132986   6.238   0.809   6.496
 3809TIP3    H232987   6.140   0.777   6.607
 3810TIP3   OH232988   4.585   5.832   7.891
 3810TIP3    H132989   4.514   5.769   7.879
 3810TIP3    H232990   4.655   5.781   7.933
 3811TIP3   OH232991   0.817   0.817   8.129
 3811TIP3    H132992   0.753   0.758   8.090
 3811TIP3    H232993   0.811   0.897   8.078
 3812TIP3   OH232994   5.603   0.632   1.392
 3812TIP3    H132995   5.640   0.599   1.473
 3812TIP3    H232996   5.519   0.588   1.383
 3813TIP3   OH232997   3.977   1.251   7.758
 3813TIP3    H132998   3.991   1.326   7.700
 3813TIP3    H232999   3.910   1.282   7.819
 3814TIP3   OH233000   2.673   6.586   8.173
 3814TIP3    H133001   2.665   6.680   8.190
 3814TIP3    H233002   2.609   6.569   8.103
 3815TIP3   OH233003   1.781   3.455   0.575
 3815TIP3    H133004   1.706   3.510   0.598
 3815TIP3    H233005   1.858   3.510   0.595
 3816TIP3   OH233006   3.341   4.576   0.830
 3816TIP3    H133007   3.313   4.664   0.853
 3816TIP3    H233008   3.297   4.519   0.893
 3817TIP3   OH233009   6.339   0.469   1.068
 3817TIP3    H133010   6.356   0.414   0.991
 3817TIP3    H233011   6.244   0.482   1.068
 3818TIP3   OH233012   2.891   5.564   1.578
 3818TIP3    H133013   2.860   5.594   1.493
 3818TIP3    H233014   2.965   5.506   1.558
 3819TIP3   OH233015   1.883   6.057   8.417
 3819TIP3    H133016   1.922   6.138   8.448
 3819TIP3    H233017   1.922   5.989   8.471
 3820TIP3   OH233018   4.654   3.694   7.216
 3820TIP3    H133019   4.698   3.681   7.132
 3820TIP3    H233020   4.723   3.685   7.281
 3821TIP3   OH233021   4.084   0.584   8.197
 3821TIP3    H133022   4.031   0.513   8.162
 3821TIP3    H233023   4.145   0.541   8.258
 3822TIP3   OH233024   0.111   2.765   7.951
 3822TIP3    H133025   0.165   2.719   7.887
 3822TIP3    H233026   0.154   2.749   8.035
 3823TIP3   OH233027   2.218   5.021   1.419
 3823TIP3    H133028   2.184   5.092   1.364
 3823TIP3    H233029   2.173   4.943   1.387
 3824TIP3   OH233030   5.571   3.719   0.260
 3824TIP3    H133031   5.652   3.771   0.266
 3824TIP3    H233032   5.531   3.747   0.177
 3825TIP3   OH233033   1.291   2.619   7.846
 3825TIP3    H133034   1.315   2.529   7.868
 3825TIP3    H233035   1.215   2.609   7.788
 3826TIP3   OH233036   0.915   3.893   7.963
 3826TIP3    H133037   0.945   3.983   7.949
 3826TIP3    H233038   0.928   3.850   7.879
 3827TIP3   OH233039   1.823   4.506   6.805
 3827TIP3    H133040   1.904   4.456   6.809
 3827TIP3    H233041   1.768   4.458   6.744
 3828TIP3   OH233042   0.746   4.690   0.788
 3828TIP3    H133043   0.657   4.726   0.796
 3828TIP3    H233044   0.802   4.766   0.777
 3829TIP3   OH233045   1.437   4.116   0.697
 3829TIP3    H133046   1.529   4.092   0.709
 3829TIP3    H233047   1.399   4.042   0.649
 3830TIP3   OH233048   5.377   1.046   2.049
 3830TIP3    H133049   5.317   1.102   2.097
 3830TIP3    H233050   5.428   1.105   1.994
 3831TIP3   OH233051   1.431   0.556   8.371
 3831TIP3    H133052   1.494   0.503   8.419
 3831TIP3    H233053   1.477   0.639   8.354
 3832TIP3   OH233054   2.650   1.768   2.054
 3832TIP3    H133055   2.570   1.821   2.053
 3832TIP3    H233056   2.720   1.828   2.077
 3833TIP3   OH233057   1.775   4.523   0.899
 3833TIP3    H133058   1.686   4.514   0.866
 3833TIP3    H233059   1.768   4.584   0.972
 3834TIP3   OH233060   4.868   0.156   8.515
 3834TIP3    H133061   4.890   0.248   8.497
 3834TIP3    H233062   4.777   0.148   8.488
 3835TIP3   OH233063   6.733   1.007   1.797
 3835TIP3    H133064   6.828   1.020   1.796
 3835TIP3    H233065   6.713   0.970   1.711
 3836TIP3   OH233066   6.197   2.194   8.264
 3836TIP3    H133067   6.144   2.256   8.216
 3836TIP3    H233068   6.282   2.196   8.220
 3837TIP3   OH233069   5.123   4.491   1.428
 3837TIP3    H133070   5.179   4.558   1.389
 3837TIP3    H233071   5.122   4.421   1.363
 3838TIP3   OH233072   3.605   4.020   6.519
 3838TIP3    H133073   3.594   3.926   6.532
 3838TIP3    H233074   3.562   4.059   6.595
 3839TIP3   OH233075   3.092   2.340   0.651
 3839TIP3    H133076   3.025   2.297   0.704
 3839TIP3    H233077   3.107   2.280   0.578
 3840TIP3   OH233078   3.723   4.065   6.999
 3840TIP3    H133079   3.666   4.082   7.074
 3840TIP3    H233080   3.775   3.989   7.025
 3841TIP3   OH233081   5.962   6.132   7.307
 3841TIP3    H133082   5.949   6.066   7.239
 3841TIP3    H233083   5.993   6.083   7.383
 3842TIP3   OH233084   1.916   0.139   0.067
 3842TIP3    H133085   1.839   0.105   0.112
 3842TIP3    H233086   1.893   0.230   0.045
 3843TIP3   OH233087   1.033   1.257   5.992
 3843TIP3    H133088   1.032   1.255   6.088
 3843TIP3    H233089   1.080   1.178   5.967
 3844TIP3   OH233090   2.841   3.615   7.207
 3844TIP3    H133091   2.858   3.672   7.132
 3844TIP3    H233092   2.914   3.554   7.208
 3845TIP3   OH233093   5.859   3.256   0.291
 3845TIP3    H133094   5.824   3.289   0.373
 3845TIP3    H233095   5.797   3.286   0.224
 3846TIP3   OH233096   6.555   4.969   8.294
 3846TIP3    H133097   6.491   4.909   8.333
 3846TIP3    H233098   6.626   4.972   8.359
 3847TIP3   OH233099   3.599   6.208   7.232
 3847TIP3    H133100   3.551   6.291   7.229
 3847TIP3    H233101   3.570   6.161   7.155
 3848TIP3   OH233102   3.924   4.169   0.136
 3848TIP3    H133103   3.899   4.216   0.216
 3848TIP3    H233104   3.875   4.087   0.140
 3849TIP3   OH233105   3.679   1.465   7.186
 3849TIP3    H133106   3.658   1.403   7.256
 3849TIP3    H233107   3.594   1.501   7.160
 3850TIP3   OH233108   3.082   0.074   1.332
 3850TIP3    H133109   2.991   0.102   1.320
 3850TIP3    H233110   3.095   0.007   1.264
 3851TIP3   OH233111   1.677   0.156   7.503
 3851TIP3    H133112   1.659   0.083   7.444
 3851TIP3    H233113   1.705   0.115   7.585
 3852TIP3   OH233114   3.340   1.725   7.910
 3852TIP3    H133115   3.331   1.730   8.005
 3852TIP3    H233116   3.340   1.632   7.889
 3853TIP3   OH233117   2.600   2.827   7.935
 3853TIP3    H133118   2.675   2.881   7.910
 3853TIP3    H233119   2.621   2.740   7.902
 3854TIP3   OH233120   6.141   0.573   2.165
 3854TIP3    H133121   6.209   0.523   2.211
 3854TIP3    H233122   6.132   0.654   2.216
 3855TIP3   OH233123   3.156   0.946   7.845
 3855TIP3    H133124   3.078   0.990   7.877
 3855TIP3    H233125   3.181   0.886   7.916
 3856TIP3   OH233126   2.321   3.962   1.325
 3856TIP3    H133127   2.308   4.051   1.357
 3856TIP3    H233128   2.246   3.945   1.269
 3857TIP3   OH233129   3.257   5.776   0.729
 3857TIP3    H133130   3.175   5.803   0.771
 3857TIP3    H233131   3.288   5.703   0.782
 3858TIP3   OH233132   0.156   3.135   8.588
 3858TIP3    H133133   0.185   3.091   8.508
 3858TIP3    H233134   0.174   3.073   8.658
 3859TIP3   OH233135   1.939   0.344   7.140
 3859TIP3    H133136   1.929   0.406   7.069
 3859TIP3    H233137   1.867   0.363   7.200
 3860TIP3   OH233138   3.865   3.968   6.340
 3860TIP3    H133139   3.871   3.887   6.389
 3860TIP3    H233140   3.892   4.036   6.401
 3861TIP3   OH233141   4.674   6.845   7.005
 3861TIP3    H133142   4.714   6.763   7.037
 3861TIP3    H233143   4.747   0.038   6.966
 3862TIP3   OH233144   2.161   4.601   8.235
 3862TIP3    H133145   2.137   4.536   8.169
 3862TIP3    H233146   2.199   4.673   8.186
 3863TIP3   OH233147   1.235   5.445   1.712
 3863TIP3    H133148   1.290   5.435   1.634
 3863TIP3    H233149   1.264   5.527   1.752
 3864TIP3   OH233150   5.486   5.443   0.747
 3864TIP3    H133151   5.436   5.474   0.672
 3864TIP3    H233152   5.481   5.347   0.743
 3865TIP3   OH233153   0.366   2.567   1.263
 3865TIP3    H133154   0.318   2.606   1.336
 3865TIP3    H233155   0.313   2.587   1.186
 3866TIP3   OH233156   3.370   1.580   1.193
 3866TIP3    H133157   3.458   1.616   1.205
 3866TIP3    H233158   3.317   1.654   1.165
 3867TIP3   OH233159   4.665   4.479   0.869
 3867TIP3    H133160   4.679   4.491   0.963
 3867TIP3    H233161   4.574   4.451   0.862
 3868TIP3   OH233162   6.711   0.975   1.130
 3868TIP3    H133163   6.724   0.926   1.049
 3868TIP3    H233164   6.800   0.994   1.161
 3869TIP3   OH233165   1.426   0.406   1.202
 3869TIP3    H133166   1.516   0.436   1.193
 3869TIP3    H233167   1.378   0.454   1.134
 3870TIP3   OH233168   3.292   4.732   6.860
 3870TIP3    H133169   3.337   4.654   6.892
 3870TIP3    H233170   3.346   4.761   6.786
 3871TIP3   OH233171   1.895   2.124   1.257
 3871TIP3    H133172   1.929   2.213   1.265
 3871TIP3    H233173   1.817   2.122   1.311
 3872TIP3   OH233174   6.561   4.282   0.780
 3872TIP3    H133175   6.547   4.209   0.840
 3872TIP3    H233176   6.572   4.358   0.838
 3873TIP3   OH233177   2.112   0.625   7.875
 3873TIP3    H133178   2.140   0.552   7.930
 3873TIP3    H233179   2.034   0.659   7.919
 3874TIP3   OH233180   4.783   3.560   8.429
 3874TIP3    H133181   4.720   3.623   8.393
 3874TIP3    H233182   4.869   3.599   8.411
 3875TIP3   OH233183   4.672   0.327   8.307
 3875TIP3    H133184   4.631   0.338   8.393
 3875TIP3    H233185   4.631   0.394   8.253
 3876TIP3   OH233186   5.425   0.368   2.521
 3876TIP3    H133187   5.422   0.370   2.617
 3876TIP3    H233188   5.513   0.337   2.501
 3877TIP3   OH233189   6.497   2.447   8.062
 3877TIP3    H133190   6.418   2.498   8.044
 3877TIP3    H233191   6.482   2.363   8.018
 3878TIP3   OH233192   0.078   6.145   0.736
 3878TIP3    H133193   0.124   6.066   0.762
 3878TIP3    H233194   6.841   6.117   0.724
 3879TIP3   OH233195   4.456   3.273   8.044
 3879TIP3    H133196   4.405   3.283   8.125
 3879TIP3    H233197   4.547   3.275   8.073
 3880TIP3   OH233198   0.741   2.733   7.661
 3880TIP3    H133199   0.708   2.685   7.736
 3880TIP3    H233200   0.777   2.814   7.698
 3881TIP3   OH233201   6.301   0.813   7.210
 3881TIP3    H133202   6.373   0.820   7.147
 3881TIP3    H233203   6.332   0.861   7.287
 3882TIP3   OH233204   0.808   4.582   7.564
 3882TIP3    H133205   0.795   4.611   7.473
 3882TIP3    H233206   0.853   4.655   7.606
 3883TIP3   OH233207   1.265   4.222   7.362
 3883TIP3    H133208   1.311   4.305   7.353
 3883TIP3    H233209   1.281   4.176   7.279
 3884TIP3   OH233210   3.949   3.203   0.824
 3884TIP3    H133211   3.898   3.151   0.762
 3884TIP3    H233212   4.037   3.165   0.820
 3885TIP3   OH233213   1.462   2.826   7.803
 3885TIP3    H133214   1.390   2.768   7.827
 3885TIP3    H233215   1.423   2.913   7.801
 3886TIP3   OH233216   4.852   0.416   0.259
 3886TIP3    H133217   4.915   0.434   0.188
 3886TIP3    H233218   4.769   0.451   0.226
 3887TIP3   OH233219   2.693   4.407   1.760
 3887TIP3    H133220   2.636   4.411   1.837
 3887TIP3    H233221   2.750   4.483   1.768
 3888TIP3   OH233222   1.431   0.357   6.664
 3888TIP3    H133223   1.377   0.312   6.598
 3888TIP3    H233224   1.402   0.320   6.747
 3889TIP3   OH233225   2.524   3.431   8.328
 3889TIP3    H133226   2.454   3.433   8.263
 3889TIP3    H233227   2.572   3.513   8.313
 3890TIP3   OH233228   1.280   5.930   0.860
 3890TIP3    H133229   1.353   5.974   0.904
 3890TIP3    H233230   1.313   5.842   0.840
 3891TIP3   OH233231   6.467   1.335   8.047
 3891TIP3    H133232   6.489   1.423   8.016
 3891TIP3    H233233   6.493   1.277   7.976
 3892TIP3   OH233234   4.348   1.533   1.640
 3892TIP3    H133235   4.387   1.494   1.718
 3892TIP3    H233236   4.343   1.627   1.661
 3893TIP3   OH233237   5.063   2.925   0.350
 3893TIP3    H133238   5.123   2.959   0.416
 3893TIP3    H233239   5.114   2.860   0.302
 3894TIP3   OH233240   4.701   1.395   1.358
 3894TIP3    H133241   4.747   1.448   1.423
 3894TIP3    H233242   4.748   1.411   1.276
 3895TIP3   OH233243   4.548   1.902   7.093
 3895TIP3    H133244   4.519   1.890   7.183
 3895TIP3    H233245   4.602   1.981   7.094
 3896TIP3   OH233246   3.538   2.633   0.748
 3896TIP3    H133247   3.493   2.549   0.737
 3896TIP3    H233248   3.486   2.695   0.698
 3897TIP3   OH233249   5.193   1.699   7.647
 3897TIP3    H133250   5.142   1.709   7.567
 3897TIP3    H233251   5.275   1.658   7.619
 3898TIP3   OH233252   4.871   2.203   8.688
 3898TIP3    H133253   4.798   2.141   8.692
 3898TIP3    H233254   4.943   2.152   8.651
 3899TIP3   OH233255   6.045   2.401   8.614
 3899TIP3    H133256   6.035   2.454   8.534
 3899TIP3    H233257   5.981   2.438   8.675
 3900TIP3   OH233258   2.646   5.993   7.562
 3900TIP3    H133259   2.640   5.898   7.560
 3900TIP3    H233260   2.659   6.018   7.470
 3901TIP3   OH233261   5.364   3.002   0.979
 3901TIP3    H133262   5.353   2.910   1.004
 3901TIP3    H233263   5.290   3.021   0.922
 3902TIP3   OH233264   5.850   0.290   2.009
 3902TIP3    H133265   5.846   0.385   2.011
 3902TIP3    H233266   5.878   0.265   2.097
 3903TIP3   OH233267   6.220   3.673   7.340
 3903TIP3    H133268   6.150   3.666   7.275
 3903TIP3    H233269   6.226   3.767   7.359
 3904TIP3   OH233270   1.692   6.450   1.089
 3904TIP3    H133271   1.748   6.380   1.057
 3904TIP3    H233272   1.610   6.406   1.112
 3905TIP3   OH233273   3.093   2.134   8.267
 3905TIP3    H133274   3.106   2.187   8.188
 3905TIP3    H233275   3.131   2.049   8.245
 3906TIP3   OH233276   1.810   5.632   1.329
 3906TIP3    H133277   1.733   5.640   1.386
 3906TIP3    H233278   1.776   5.600   1.246
 3907TIP3   OH233279   0.050   6.297   0.485
 3907TIP3    H133280   0.118   6.255   0.538
 3907TIP3    H233281   6.824   6.286   0.537
 3908TIP3   OH233282   5.099   1.657   7.408
 3908TIP3    H133283   5.135   1.568   7.405
 3908TIP3    H233284   5.145   1.704   7.339
 3909TIP3   OH233285   4.067   0.969   1.186
 3909TIP3    H133286   4.119   0.969   1.267
 3909TIP3    H233287   4.098   1.046   1.138
 3910TIP3   OH233288   6.558   6.642   2.403
 3910TIP3    H133289   6.598   6.691   2.475
 3910TIP3    H233290   6.468   6.674   2.401
 3911TIP3   OH233291   5.887   2.451   2.601
 3911TIP3    H133292   5.957   2.407   2.648
 3911TIP3    H233293   5.931   2.518   2.549
 3912TIP3   OH233294   6.715   5.776   0.528
 3912TIP3    H133295   6.769   5.761   0.605
 3912TIP3    H233296   6.687   5.689   0.500
 3913TIP3   OH233297   1.686   3.609   8.236
 3913TIP3    H133298   1.757   3.548   8.260
 3913TIP3    H233299   1.695   3.619   8.141
 3914TIP3   OH233300   4.620   1.461   8.114
 3914TIP3    H133301   4.627   1.473   8.208
 3914TIP3    H233302   4.562   1.531   8.085
 3915TIP3   OH233303   1.745   3.400   1.006
 3915TIP3    H133304   1.758   3.493   0.985
 3915TIP3    H233305   1.834   3.364   1.009
 3916TIP3   OH233306   5.328   1.724   1.435
 3916TIP3    H133307   5.419   1.741   1.412
 3916TIP3    H233308   5.277   1.760   1.362
 3917TIP3   OH233309   4.506   0.773   0.258
 3917TIP3    H133310   4.578   0.803   0.312
 3917TIP3    H233311   4.428   0.814   0.296
 3918TIP3   OH233312   0.758   0.511   1.208
 3918TIP3    H133313   0.841   0.558   1.217
 3918TIP3    H233314   0.691   0.578   1.219
 3919TIP3   OH233315   0.115   2.211   1.659
 3919TIP3    H133316   0.169   2.171   1.590
 3919TIP3    H233317   0.040   2.153   1.668
 3920TIP3   OH233318   5.563   5.241   7.054
 3920TIP3    H133319   5.643   5.232   7.002
 3920TIP3    H233320   5.576   5.182   7.128
 3921TIP3   OH233321   4.779   4.798   7.753
 3921TIP3    H133322   4.802   4.718   7.704
 3921TIP3    H233323   4.749   4.766   7.838
 3922TIP3   OH233324   2.902   6.198   8.072
 3922TIP3    H133325   2.844   6.236   8.137
 3922TIP3    H233326   2.913   6.107   8.100
 3923TIP3   OH233327   6.529   3.910   0.689
 3923TIP3    H133328   6.572   3.961   0.758
 3923TIP3    H233329   6.464   3.858   0.735
 3924TIP3   OH233330   2.887   6.665   1.650
 3924TIP3    H133331   2.978   6.674   1.624
 3924TIP3    H233332   2.863   6.576   1.625
 3925TIP3   OH233333   5.691   5.602   0.179
 3925TIP3    H133334   5.703   5.618   0.086
 3925TIP3    H233335   5.597   5.586   0.189
 3926TIP3   OH233336   6.345   6.499   7.424
 3926TIP3    H133337   6.359   6.562   7.495
 3926TIP3    H233338   6.433   6.481   7.391
 3927TIP3   OH233339   1.226   1.970   8.062
 3927TIP3    H133340   1.183   1.968   7.977
 3927TIP3    H233341   1.221   2.062   8.089
 3928TIP3   OH233342   1.691   1.414   7.488
 3928TIP3    H133343   1.742   1.371   7.419
 3928TIP3    H233344   1.757   1.448   7.549
 3929TIP3   OH233345   5.118   6.540   0.360
 3929TIP3    H133346   5.070   6.601   0.415
 3929TIP3    H233347   5.149   6.592   0.286
 3930TIP3   OH233348   5.030   3.659   6.899
 3930TIP3    H133349   5.037   3.670   6.804
 3930TIP3    H233350   5.012   3.565   6.910
 3931TIP3   OH233351   2.978   6.503   1.123
 3931TIP3    H133352   3.054   6.464   1.081
 3931TIP3    H233353   2.988   6.483   1.216
 3932TIP3   OH233354   6.531   1.713   1.519
 3932TIP3    H133355   6.511   1.788   1.576
 3932TIP3    H233356   6.601   1.745   1.461
 3933TIP3   OH233357   4.575   4.749   1.305
 3933TIP3    H133358   4.487   4.763   1.341
 3933TIP3    H233359   4.596   4.832   1.261
 3934TIP3   OH233360   6.242   2.526   8.025
 3934TIP3    H133361   6.173   2.471   8.061
 3934TIP3    H233362   6.205   2.561   7.944
 3935TIP3   OH233363   2.661   4.760   1.758
 3935TIP3    H133364   2.708   4.829   1.805
 3935TIP3    H233365   2.581   4.747   1.808
 3936TIP3   OH233366   6.268   1.573   6.259
 3936TIP3    H133367   6.266   1.479   6.279
 3936TIP3    H233368   6.340   1.582   6.197
 3937TIP3   OH233369   0.138   0.013   8.658
 3937TIP3    H133370   0.082   0.035   8.583
 3937TIP3    H233371   0.104   6.784   8.689
 3938TIP3   OH233372   5.339   4.615   0.779
 3938TIP3    H133373   5.260   4.586   0.825
 3938TIP3    H233374   5.364   4.539   0.725
 3939TIP3   OH233375   5.299   0.097   7.533
 3939TIP3    H133376   5.248   0.178   7.529
 3939TIP3    H233377   5.383   0.123   7.571
 3940TIP3   OH233378   5.673   6.548   8.230
 3940TIP3    H133379   5.619   6.564   8.308
 3940TIP3    H233380   5.704   6.458   8.241
 3941TIP3   OH233381   6.252   0.982   2.070
 3941TIP3    H133382   6.287   1.018   2.152
 3941TIP3    H233383   6.191   0.914   2.098
 3942TIP3   OH233384   6.255   3.486   0.641
 3942TIP3    H133385   6.322   3.541   0.681
 3942TIP3    H233386   6.268   3.400   0.681
 3943TIP3   OH233387   3.303   0.476   7.794
 3943TIP3    H133388   3.258   0.561   7.791
 3943TIP3    H233389   3.377   0.490   7.854
 3944TIP3   OH233390   3.561   5.430   8.252
 3944TIP3    H133391   3.482   5.480   8.272
 3944TIP3    H233392   3.607   5.424   8.336
 3945TIP3   OH233393   5.088   0.456   0.106
 3945TIP3    H133394   5.160   0.518   0.116
 3945TIP3    H233395   5.114   0.399   0.034
 3946TIP3   OH233396   6.442   6.283   8.174
 3946TIP3    H133397   6.527   6.321   8.155
 3946TIP3    H233398   6.442   6.199   8.127
 3947TIP3   OH233399   3.758   5.759   6.608
 3947TIP3    H133400   3.677   5.707   6.603
 3947TIP3    H233401   3.822   5.708   6.559
 3948TIP3   OH233402   0.767   6.096   0.451
 3948TIP3    H133403   0.757   6.071   0.360
 3948TIP3    H233404   0.861   6.112   0.462
 3949TIP3   OH233405   6.222   0.667   0.867
 3949TIP3    H133406   6.149   0.642   0.810
 3949TIP3    H233407   6.194   0.639   0.955
 3950TIP3   OH233408   2.170   3.205   8.199
 3950TIP3    H133409   2.252   3.170   8.163
 3950TIP3    H233410   2.149   3.278   8.142
 3951TIP3   OH233411   3.646   2.250   8.665
 3951TIP3    H133412   3.738   2.275   8.672
 3951TIP3    H233413   3.645   2.156   8.679
 3952TIP3   OH233414   2.054   5.268   7.903
 3952TIP3    H133415   2.029   5.332   7.836
 3952TIP3    H233416   2.014   5.186   7.875
 3953TIP3   OH233417   0.522   5.312   0.208
 3953TIP3    H133418   0.591   5.250   0.188
 3953TIP3    H233419   0.452   5.292   0.146
 3954TIP3   OH233420   5.960   2.985   7.445
 3954TIP3    H133421   6.032   2.980   7.383
 3954TIP3    H233422   5.940   2.894   7.466
 3955TIP3   OH233423   3.327   2.109   0.200
 3955TIP3    H133424   3.292   2.026   0.169
 3955TIP3    H233425   3.344   2.159   0.120
 3956TIP3   OH233426   0.297   3.526   0.643
 3956TIP3    H133427   0.305   3.435   0.671
 3956TIP3    H233428   0.271   3.521   0.551
 3957TIP3   OH233429   1.075   1.186   7.934
 3957TIP3    H133430   1.042   1.136   7.859
 3957TIP3    H233431   1.127   1.122   7.984
 3958TIP3   OH233432   2.160   6.276   6.952
 3958TIP3    H133433   2.198   6.363   6.954
 3958TIP3    H233434   2.066   6.290   6.946
 3959TIP3   OH233435   4.237   4.871   0.217
 3959TIP3    H133436   4.188   4.822   0.151
 3959TIP3    H233437   4.297   4.807   0.255
 3960TIP3   OH233438   1.723   0.149   0.583
 3960TIP3    H133439   1.693   0.149   0.674
 3960TIP3    H233440   1.819   0.154   0.590
 3961TIP3   OH233441   1.805   5.811   7.844
 3961TIP3    H133442   1.788   5.759   7.766
 3961TIP3    H233443   1.784   5.901   7.817
 3962TIP3   OH233444   0.747   5.491   7.674
 3962TIP3    H133445   0.743   5.577   7.632
 3962TIP3    H233446   0.840   5.477   7.693
 3963TIP3   OH233447   0.361   2.061   0.139
 3963TIP3    H133448   0.371   2.119   0.064
 3963TIP3    H233449   0.274   2.082   0.173
 3964TIP3   OH233450   1.071   4.716   0.018
 3964TIP3    H133451   1.076   4.765   8.662
 3964TIP3    H233452   1.020   4.773   0.076
 3965TIP3   OH233453   1.236   5.856   7.468
 3965TIP3    H133454   1.149   5.827   7.498
 3965TIP3    H233455   1.234   5.843   7.374
 3966TIP3   OH233456   3.770   4.887   0.844
 3966TIP3    H133457   3.743   4.923   0.759
 3966TIP3    H233458   3.862   4.914   0.852
 3967TIP3   OH233459   0.233   4.431   2.238
 3967TIP3    H133460   0.271   4.465   2.319
 3967TIP3    H233461   0.301   4.445   2.173
 3968TIP3   OH233462   3.794   2.117   8.119
 3968TIP3    H133463   3.869   2.153   8.167
 3968TIP3    H233464   3.828   2.102   8.030
 3969TIP3   OH233465   6.757   1.862   0.441
 3969TIP3    H133466   6.803   1.857   0.357
 3969TIP3    H233467   6.704   1.782   0.444
 3970TIP3   OH233468   0.732   3.404   1.701
 3970TIP3    H133469   0.699   3.316   1.684
 3970TIP3    H233470   0.759   3.436   1.615
 3971TIP3   OH233471   0.298   0.000   7.449
 3971TIP3    H133472   0.262   0.012   7.537
 3971TIP3    H233473   0.392   6.843   7.463
 3972TIP3   OH233474   0.201   2.417   8.546
 3972TIP3    H133475   0.164   2.378   8.467
 3972TIP3    H233476   0.128   2.460   8.590
 3973TIP3   OH233477   0.023   6.818   0.346
 3973TIP3    H133478   0.088   6.844   0.280
 3973TIP3    H233479   0.055   6.733   0.378
 3974TIP3   OH233480   6.185   0.963   0.578
 3974TIP3    H133481   6.141   0.880   0.560
 3974TIP3    H233482   6.275   0.938   0.598
 3975TIP3   OH233483   6.663   4.336   1.809
 3975TIP3    H133484   6.739   4.315   1.865
 3975TIP3    H233485   6.602   4.264   1.824
 3976TIP3   OH233486   6.600   4.132   8.297
 3976TIP3    H133487   6.562   4.141   8.209
 3976TIP3    H233488   6.655   4.054   8.290
 3977TIP3   OH233489   0.929   1.380   8.282
 3977TIP3    H133490   0.979   1.405   8.205
 3977TIP3    H233491   0.845   1.350   8.248
 3978TIP3   OH233492   1.452   4.395   0.596
 3978TIP3    H133493   1.402   4.370   0.519
 3978TIP3    H233494   1.472   4.311   0.640
 3979TIP3   OH233495   1.366   5.380   0.603
 3979TIP3    H133496   1.423   5.406   0.676
 3979TIP3    H233497   1.279   5.371   0.642
 3980TIP3   OH233498   0.109   0.125   7.200
 3980TIP3    H133499   0.091   0.170   7.117
 3980TIP3    H233500   0.133   0.195   7.261
 3981TIP3   OH233501   4.966   0.702   0.975
 3981TIP3    H133502   5.025   0.668   1.043
 3981TIP3    H233503   4.901   0.754   1.022
 3982TIP3   OH233504   1.396   6.719   0.476
 3982TIP3    H133505   1.489   6.697   0.486
 3982TIP3    H233506   1.382   6.792   0.537
 3983TIP3   OH233507   1.156   0.674   2.372
 3983TIP3    H133508   1.094   0.739   2.406
 3983TIP3    H233509   1.139   0.596   2.425
 3984TIP3   OH233510   0.341   1.601   1.198
 3984TIP3    H133511   0.372   1.590   1.287
 3984TIP3    H233512   0.403   1.552   1.144
 3985TIP3   OH233513   3.675   0.769   1.182
 3985TIP3    H133514   3.609   0.837   1.181
 3985TIP3    H233515   3.641   0.703   1.243
 3986TIP3   OH233516   5.693   3.861   1.677
 3986TIP3    H133517   5.754   3.906   1.620
 3986TIP3    H233518   5.643   3.931   1.719
 3987TIP3   OH233519   6.170   1.086   1.499
 3987TIP3    H133520   6.099   1.035   1.539
 3987TIP3    H233521   6.229   1.104   1.572
 3988TIP3   OH233522   5.044   6.096   7.173
 3988TIP3    H133523   5.041   6.122   7.081
 3988TIP3    H233524   5.111   6.029   7.178
 3989TIP3   OH233525   5.053   5.867   1.058
 3989TIP3    H133526   5.019   5.956   1.051
 3989TIP3    H233527   5.022   5.836   1.143
 3990TIP3   OH233528   3.906   5.182   1.914
 3990TIP3    H133529   3.973   5.244   1.943
 3990TIP3    H233530   3.914   5.108   1.974
 3991TIP3   OH233531   6.533   2.362   0.460
 3991TIP3    H133532   6.514   2.355   0.366
 3991TIP3    H233533   6.542   2.271   0.489
 3992TIP3   OH233534   2.638   1.581   0.685
 3992TIP3    H133535   2.559   1.580   0.631
 3992TIP3    H233536   2.647   1.490   0.715
 3993TIP3   OH233537   5.494   2.307   1.909
 3993TIP3    H133538   5.414   2.359   1.908
 3993TIP3    H233539   5.549   2.348   1.976
 3994TIP3   OH233540   5.105   5.715   0.595
 3994TIP3    H133541   5.054   5.796   0.600
 3994TIP3    H233542   5.075   5.674   0.514
 3995TIP3   OH233543   2.150   3.032   8.418
 3995TIP3    H133544   2.131   3.099   8.352
 3995TIP3    H233545   2.205   3.077   8.482
 3996TIP3   OH233546   0.824   5.304   0.366
 3996TIP3    H133547   0.896   5.329   0.423
 3996TIP3    H233548   0.785   5.387   0.340
 3997TIP3   OH233549   0.266   5.780   1.411
 3997TIP3    H133550   0.361   5.770   1.419
 3997TIP3    H233551   0.231   5.693   1.430
 3998TIP3   OH233552   0.068   2.329   2.417
 3998TIP3    H133553   0.133   2.260   2.434
 3998TIP3    H233554   0.113   2.410   2.440
 3999TIP3   OH233555   1.892   1.289   8.163
 3999TIP3    H133556   1.802   1.297   8.196
 3999TIP3    H233557   1.882   1.265   8.071
 4000TIP3   OH233558   4.435   5.418   7.282
 4000TIP3    H133559   4.416   5.389   7.371
 4000TIP3    H233560   4.496   5.354   7.247
 4001TIP3   OH233561   1.701   4.098   7.789
 4001TIP3    H133562   1.760   4.034   7.829
 4001TIP3    H233563   1.679   4.060   7.704
 4002TIP3   OH233564   4.498   1.011   7.683
 4002TIP3    H133565   4.528   1.082   7.740
 4002TIP3    H233566   4.405   1.028   7.669
 4003TIP3   OH233567   1.867   2.431   0.553
 4003TIP3    H133568   1.813   2.391   0.621
 4003TIP3    H233569   1.870   2.367   0.483
 4004TIP3   OH233570   1.277   5.053   1.269
 4004TIP3    H133571   1.269   5.121   1.202
 4004TIP3    H233572   1.370   5.052   1.293
 4005TIP3   OH233573   2.323   2.897   1.201
 4005TIP3    H133574   2.267   2.961   1.157
 4005TIP3    H233575   2.261   2.837   1.243
 4006TIP3   OH233576   1.541   3.314   7.213
 4006TIP3    H133577   1.604   3.275   7.151
 4006TIP3    H233578   1.456   3.303   7.170
 4007TIP3   OH233579   4.024   4.563   8.542
 4007TIP3    H133580   3.947   4.512   8.569
 4007TIP3    H233581   4.088   4.497   8.516
 4008TIP3   OH233582   2.351   3.398   7.644
 4008TIP3    H133583   2.286   3.356   7.587
 4008TIP3    H233584   2.420   3.333   7.653
 4009TIP3   OH233585   0.835   2.472   0.986
 4009TIP3    H133586   0.894   2.537   0.947
 4009TIP3    H233587   0.747   2.501   0.963
 4010TIP3   OH233588   0.834   0.853   1.327
 4010TIP3    H133589   0.767   0.847   1.258
 4010TIP3    H233590   0.916   0.862   1.279
 4011TIP3   OH233591   2.275   5.319   8.206
 4011TIP3    H133592   2.202   5.372   8.174
 4011TIP3    H233593   2.352   5.375   8.192
 4012TIP3   OH233594   1.620   1.138   7.297
 4012TIP3    H133595   1.694   1.098   7.342
 4012TIP3    H233596   1.656   1.215   7.254
 4013TIP3   OH233597   4.994   4.039   1.173
 4013TIP3    H133598   5.085   4.013   1.157
 4013TIP3    H233599   4.951   4.028   1.088
 4014TIP3   OH233600   3.118   6.093   8.562
 4014TIP3    H133601   3.027   6.079   8.589
 4014TIP3    H233602   3.158   6.139   8.636
 4015TIP3   OH233603   5.809   0.691   8.555
 4015TIP3    H133604   5.865   0.757   8.597
 4015TIP3    H233605   5.777   0.637   8.627
 4016TIP3   OH233606   1.767   2.328   0.229
 4016TIP3    H133607   1.797   2.386   0.159
 4016TIP3    H233608   1.816   2.247   0.217
 4017TIP3   OH233609   2.465   0.514   7.217
 4017TIP3    H133610   2.433   0.592   7.171
 4017TIP3    H233611   2.534   0.479   7.160
 4018TIP3   OH233612   2.412   6.767   0.486
 4018TIP3    H133613   2.497   6.724   0.492
 4018TIP3    H233614   2.395   6.773   0.392
 4019TIP3   OH233615   5.758   1.799   1.579
 4019TIP3    H133616   5.781   1.712   1.548
 4019TIP3    H233617   5.692   1.830   1.516
 4020TIP3   OH233618   2.088   1.817   8.055
 4020TIP3    H133619   2.129   1.763   8.122
 4020TIP3    H233620   2.015   1.860   8.100
 4021TIP3   OH233621   0.626   3.250   2.087
 4021TIP3    H133622   0.555   3.210   2.036
 4021TIP3    H233623   0.687   3.178   2.103
 4022TIP3   OH233624   2.907   4.608   1.798
 4022TIP3    H133625   2.933   4.668   1.728
 4022TIP3    H233626   2.838   4.655   1.845
 4023TIP3   OH233627   5.914   3.946   0.854
 4023TIP3    H133628   5.980   4.014   0.860
 4023TIP3    H233629   5.943   3.891   0.781
 4024TIP3   OH233630   5.202   0.349   7.635
 4024TIP3    H133631   5.109   0.341   7.659
 4024TIP3    H233632   5.248   0.345   7.719
 4025TIP3   OH233633   0.310   6.338   0.746
 4025TIP3    H133634   0.262   6.261   0.717
 4025TIP3    H233635   0.383   6.303   0.797
 4026TIP3   OH233636   3.133   3.211   1.466
 4026TIP3    H133637   3.162   3.268   1.396
 4026TIP3    H233638   3.199   3.221   1.535
 4027TIP3   OH233639   3.672   0.267   7.454
 4027TIP3    H133640   3.646   0.358   7.470
 4027TIP3    H233641   3.656   0.223   7.538
 4028TIP3   OH233642   1.508   5.001   1.433
 4028TIP3    H133643   1.572   5.059   1.391
 4028TIP3    H233644   1.549   4.977   1.517
 4029TIP3   OH233645   1.952   4.426   6.309
 4029TIP3    H133646   2.018   4.357   6.302
 4029TIP3    H233647   1.898   4.416   6.231
 4030TIP3   OH233648   5.063   2.515   1.620
 4030TIP3    H133649   5.031   2.491   1.533
 4030TIP3    H233650   5.027   2.603   1.636
 4031TIP3   OH233651   1.322   2.684   7.280
 4031TIP3    H133652   1.416   2.701   7.288
 4031TIP3    H233653   1.312   2.591   7.301
 4032TIP3   OH233654   3.815   3.416   1.524
 4032TIP3    H133655   3.740   3.421   1.584
 4032TIP3    H233656   3.855   3.503   1.527
 4033TIP3   OH233657   4.210   2.377   1.237
 4033TIP3    H133658   4.169   2.437   1.175
 4033TIP3    H233659   4.148   2.304   1.244
 4034TIP3   OH233660   3.364   6.425   0.408
 4034TIP3    H133661   3.382   6.415   0.315
 4034TIP3    H233662   3.373   6.519   0.425
 4035TIP3   OH233663   5.486   0.364   0.389
 4035TIP3    H133664   5.392   0.375   0.370
 4035TIP3    H233665   5.519   0.311   0.317
 4036TIP3   OH233666   6.593   4.554   2.430
 4036TIP3    H133667   6.688   4.560   2.428
 4036TIP3    H233668   6.564   4.643   2.449
 4037TIP3   OH233669   4.751   6.321   8.700
 4037TIP3    H133670   4.803   6.241   8.686
 4037TIP3    H233671   4.795   6.365   0.047
 4038TIP3   OH233672   2.418   0.055   2.130
 4038TIP3    H133673   2.425   0.089   2.219
 4038TIP3    H233674   2.443   6.817   2.137
 4039TIP3   OH233675   5.265   5.312   1.327
 4039TIP3    H133676   5.330   5.310   1.257
 4039TIP3    H233677   5.317   5.314   1.408
 4040TIP3   OH233678   6.476   2.659   7.676
 4040TIP3    H133679   6.522   2.653   7.592
 4040TIP3    H233680   6.545   2.661   7.742
 4041TIP3   OH233681   3.111   1.897   1.575
 4041TIP3    H133682   3.141   1.840   1.645
 4041TIP3    H233683   3.126   1.986   1.608
 4042TIP3   OH233684   6.400   4.934   0.226
 4042TIP3    H133685   6.449   4.976   0.155
 4042TIP3    H233686   6.323   4.989   0.239
 4043TIP3   OH233687   5.273   6.293   8.040
 4043TIP3    H133688   5.180   6.303   8.062
 4043TIP3    H233689   5.315   6.367   8.083
 4044TIP3   OH233690   2.112   6.476   0.988
 4044TIP3    H133691   2.084   6.564   1.012
 4044TIP3    H233692   2.052   6.450   0.918
 4045TIP3   OH233693   4.700   5.445   0.553
 4045TIP3    H133694   4.630   5.493   0.598
 4045TIP3    H233695   4.676   5.353   0.563
 4046TIP3   OH233696   5.451   1.042   8.508
 4046TIP3    H133697   5.359   1.043   8.532
 4046TIP3    H233698   5.498   1.035   8.592
 4047TIP3   OH233699   3.805   1.308   8.345
 4047TIP3    H133700   3.881   1.352   8.307
 4047TIP3    H233701   3.764   1.375   8.400
 4048TIP3   OH233702   5.990   2.600   6.718
 4048TIP3    H133703   6.046   2.634   6.788
 4048TIP3    H233704   5.955   2.678   6.676
 4049TIP3   OH233705   5.838   2.199   0.877
 4049TIP3    H133706   5.900   2.127   0.881
 4049TIP3    H233707   5.801   2.203   0.966
 4050TIP3   OH233708   4.201   1.270   7.071
 4050TIP3    H133709   4.154   1.269   7.154
 4050TIP3    H233710   4.156   1.206   7.016
 4051TIP3   OH233711   0.281   0.865   8.105
 4051TIP3    H133712   0.296   0.922   8.030
 4051TIP3    H233713   0.264   0.778   8.067
 4052TIP3   OH233714   1.446   0.594   6.873
 4052TIP3    H133715   1.526   0.590   6.924
 4052TIP3    H233716   1.465   0.656   6.802
 4053TIP3   OH233717   3.719   4.717   1.132
 4053TIP3    H133718   3.750   4.807   1.142
 4053TIP3    H233719   3.690   4.712   1.041
 4054TIP3   OH233720   3.677   3.213   1.377
 4054TIP3    H133721   3.597   3.184   1.421
 4054TIP3    H233722   3.734   3.242   1.449
 4055TIP3   OH233723   3.047   4.367   8.272
 4055TIP3    H133724   3.059   4.448   8.223
 4055TIP3    H233725   3.055   4.298   8.207
 4056TIP3   OH233726   6.423   2.166   2.286
 4056TIP3    H133727   6.466   2.232   2.340
 4056TIP3    H233728   6.336   2.155   2.326
 4057TIP3   OH233729   1.689   6.005   1.358
 4057TIP3    H133730   1.603   5.987   1.320
 4057TIP3    H233731   1.751   5.988   1.287
 4058TIP3   OH233732   3.837   2.074   8.496
 4058TIP3    H133733   3.744   2.081   8.474
 4058TIP3    H233734   3.882   2.119   8.425
 4059TIP3   OH233735   6.050   6.062   1.586
 4059TIP3    H133736   6.103   5.990   1.554
 4059TIP3    H233737   6.108   6.138   1.580
 4060TIP3   OH233738   3.816   1.263   0.558
 4060TIP3    H133739   3.802   1.238   0.467
 4060TIP3    H233740   3.911   1.265   0.568
 4061TIP3   OH233741   5.874   2.724   1.306
 4061TIP3    H133742   5.966   2.715   1.283
 4061TIP3    H233743   5.871   2.709   1.401
 4062TIP3   OH233744   4.365   2.692   7.791
 4062TIP3    H133745   4.342   2.624   7.854
 4062TIP3    H233746   4.414   2.757   7.843
 4063TIP3   OH233747   0.229   6.564   1.806
 4063TIP3    H133748   0.267   6.487   1.765
 4063TIP3    H233749   0.299   6.600   1.860
 4064TIP3   OH233750   2.710   1.055   1.259
 4064TIP3    H133751   2.706   1.005   1.177
 4064TIP3    H233752   2.766   1.002   1.316
 4065TIP3   OH233753   4.870   3.535   0.141
 4065TIP3    H133754   4.796   3.579   0.184
 4065TIP3    H233755   4.829   3.485   0.070
 4066TIP3   OH233756   3.564   1.720   6.627
 4066TIP3    H133757   3.549   1.744   6.719
 4066TIP3    H233758   3.551   1.801   6.578
 4067TIP3   OH233759   3.195   4.031   0.059
 4067TIP3    H133760   3.131   4.099   0.039
 4067TIP3    H233761   3.191   4.021   0.154
 4068TIP3   OH233762   4.470   1.164   2.318
 4068TIP3    H133763   4.389   1.202   2.352
 4068TIP3    H233764   4.529   1.165   2.393
 4069TIP3   OH233765   2.207   0.845   1.231
 4069TIP3    H133766   2.296   0.811   1.237
 4069TIP3    H233767   2.162   0.807   1.307
 4070TIP3   OH233768   2.413   5.237   2.439
 4070TIP3    H133769   2.425   5.236   2.344
 4070TIP3    H233770   2.495   5.201   2.473
 4071TIP3   OH233771   4.363   2.019   7.726
 4071TIP3    H133772   4.312   2.027   7.807
 4071TIP3    H233773   4.302   2.047   7.657
 4072TIP3   OH233774   4.588   2.010   0.232
 4072TIP3    H133775   4.589   1.957   0.312
 4072TIP3    H233776   4.639   2.088   0.255
 4073TIP3   OH233777   6.053   4.220   0.876
 4073TIP3    H133778   6.001   4.242   0.952
 4073TIP3    H233779   6.143   4.215   0.908
 4074TIP3   OH233780   6.702   6.002   0.179
 4074TIP3    H133781   6.797   5.992   0.174
 4074TIP3    H233782   6.668   5.944   0.111
 4075TIP3   OH233783   0.939   6.068   7.257
 4075TIP3    H133784   0.869   6.018   7.299
 4075TIP3    H233785   0.900   6.102   7.177
 4076TIP3   OH233786   1.321   5.082   7.358
 4076TIP3    H133787   1.386   5.097   7.289
 4076TIP3    H233788   1.266   5.161   7.355
 4077TIP3   OH233789   6.717   3.179   8.396
 4077TIP3    H133790   6.757   3.127   8.466
 4077TIP3    H233791   6.651   3.232   8.442
 4078TIP3   OH233792   4.444   2.288   1.088
 4078TIP3    H133793   4.366   2.329   1.127
 4078TIP3    H233794   4.432   2.194   1.104
 4079TIP3   OH233795   1.510   4.285   2.383
 4079TIP3    H133796   1.422   4.298   2.348
 4079TIP3    H233797   1.502   4.210   2.442
 4080TIP3   OH233798   2.185   2.787   7.423
 4080TIP3    H133799   2.184   2.863   7.364
 4080TIP3    H233800   2.245   2.812   7.493
 4081TIP3   OH233801   5.280   2.342   8.363
 4081TIP3    H133802   5.313   2.271   8.308
 4081TIP3    H233803   5.188   2.321   8.377
 4082TIP3   OH233804   6.193   0.510   1.876
 4082TIP3    H133805   6.212   0.530   1.968
 4082TIP3    H233806   6.098   0.515   1.870
 4083TIP3   OH233807   1.861   5.575   0.307
 4083TIP3    H133808   1.894   5.637   0.242
 4083TIP3    H233809   1.783   5.537   0.267
 4084TIP3   OH233810   4.589   3.563   0.690
 4084TIP3    H133811   4.548   3.649   0.701
 4084TIP3    H233812   4.604   3.532   0.779
 4085TIP3   OH233813   5.929   4.920   8.025
 4085TIP3    H133814   5.842   4.933   7.987
 4085TIP3    H233815   5.990   4.944   7.954
 4086TIP3   OH233816   4.505   1.678   7.975
 4086TIP3    H133817   4.538   1.683   7.885
 4086TIP3    H233818   4.414   1.648   7.965
 4087TIP3   OH233819   0.800   4.454   8.090
 4087TIP3    H133820   0.724   4.494   8.046
 4087TIP3    H233821   0.772   4.365   8.109
 4088TIP3   OH233822   5.290   4.656   7.992
 4088TIP3    H133823   5.250   4.619   8.071
 4088TIP3    H233824   5.379   4.679   8.019
 4089TIP3   OH233825   4.033   3.138   0.513
 4089TIP3    H133826   4.110   3.133   0.457
 4089TIP3    H233827   4.060   3.097   0.595
 4090TIP3   OH233828   6.287   4.506   7.862
 4090TIP3    H133829   6.248   4.536   7.780
 4090TIP3    H233830   6.339   4.581   7.892
 4091TIP3   OH233831   2.724   4.884   7.639
 4091TIP3    H133832   2.777   4.811   7.607
 4091TIP3    H233833   2.777   4.924   7.708
 4092TIP3   OH233834   2.577   0.819   2.552
 4092TIP3    H133835   2.571   0.819   2.456
 4092TIP3    H233836   2.495   0.781   2.581
 4093TIP3   OH233837   0.219   1.377   0.094
 4093TIP3    H133838   0.205   1.290   0.130
 4093TIP3    H233839   0.167   1.378   0.013
 4094TIP3   OH233840   6.782   4.329   8.046
 4094TIP3    H133841   6.829   4.412   8.054
 4094TIP3    H233842   6.730   4.324   8.126
 4095TIP3   OH233843   0.350   2.910   1.767
 4095TIP3    H133844   0.255   2.897   1.765
 4095TIP3    H233845   0.386   2.826   1.738
 4096TIP3   OH233846   2.758   4.042   1.455
 4096TIP3    H133847   2.832   3.986   1.432
 4096TIP3    H233848   2.791   4.131   1.444
 4097TIP3   OH233849   2.235   6.161   0.819
 4097TIP3    H133850   2.276   6.241   0.851
 4097TIP3    H233851   2.232   6.103   0.895
 4098TIP3   OH233852   2.079   5.827   0.446
 4098TIP3    H133853   1.986   5.849   0.455
 4098TIP3    H233854   2.082   5.771   0.368
 4099TIP3   OH233855   4.678   2.548   8.396
 4099TIP3    H133856   4.676   2.644   8.394
 4099TIP3    H233857   4.760   2.525   8.353
 4100TIP3   OH233858   6.105   5.553   0.293
 4100TIP3    H133859   6.067   5.536   0.207
 4100TIP3    H233860   6.035   5.595   0.343
 4101TIP3   OH233861   6.334   2.942   7.530
 4101TIP3    H133862   6.288   2.916   7.451
 4101TIP3    H233863   6.418   2.975   7.499
 4102TIP3   OH233864   4.232   2.142   8.512
 4102TIP3    H133865   4.211   2.151   8.419
 4102TIP3    H233866   4.155   2.101   8.551
 4103TIP3   OH233867   2.489   6.842   8.023
 4103TIP3    H133868   2.505   0.080   8.045
 4103TIP3    H233869   2.399   6.841   7.988
 4104TIP3   OH233870   2.424   5.448   8.531
 4104TIP3    H133871   2.455   5.447   8.440
 4104TIP3    H233872   2.410   5.540   8.551
 4105TIP3   OH233873   1.845   1.684   1.260
 4105TIP3    H133874   1.879   1.715   1.344
 4105TIP3    H233875   1.910   1.620   1.230
 4106TIP3   OH233876   0.257   4.492   7.982
 4106TIP3    H133877   0.256   4.511   8.076
 4106TIP3    H233878   0.328   4.429   7.972
 4107TIP3   OH233879   0.896   2.377   2.009
 4107TIP3    H133880   0.845   2.433   1.951
 4107TIP3    H233881   0.833   2.316   2.046
 4108TIP3   OH233882   5.887   0.507   7.722
 4108TIP3    H133883   5.864   0.415   7.707
 4108TIP3    H233884   5.963   0.522   7.667
 4109TIP3   OH233885   0.924   4.883   7.363
 4109TIP3    H133886   0.864   4.920   7.298
 4109TIP3    H233887   0.973   4.817   7.315
 4110TIP3   OH233888   4.107   2.291   1.891
 4110TIP3    H133889   4.024   2.327   1.922
 4110TIP3    H233890   4.129   2.344   1.815
 4111TIP3   OH233891   4.443   3.529   0.387
 4111TIP3    H133892   4.515   3.589   0.367
 4111TIP3    H233893   4.477   3.443   0.363
 4112TIP3   OH233894   1.973   5.681   2.140
 4112TIP3    H133895   1.936   5.624   2.208
 4112TIP3    H233896   2.012   5.754   2.188
 4113TIP3   OH233897   1.868   1.999   7.216
 4113TIP3    H133898   1.915   1.998   7.132
 4113TIP3    H233899   1.933   1.971   7.280
 4114TIP3   OH233900   1.081   1.440   8.018
 4114TIP3    H133901   1.084   1.355   7.976
 4114TIP3    H233902   1.173   1.461   8.034
 4115TIP3   OH233903   2.414   3.474   0.299
 4115TIP3    H133904   2.465   3.531   0.356
 4115TIP3    H233905   2.477   3.409   0.266
 4116TIP3   OH233906   0.658   3.166   2.492
 4116TIP3    H133907   0.562   3.161   2.490
 4116TIP3    H233908   0.678   3.252   2.454
 4117TIP3   OH233909   6.793   3.716   1.400
 4117TIP3    H133910   0.015   3.669   1.367
 4117TIP3    H233911   6.738   3.649   1.440
 4118TIP3   OH233912   2.547   1.027   7.146
 4118TIP3    H133913   2.484   1.086   7.103
 4118TIP3    H233914   2.632   1.059   7.118
 4119TIP3   OH233915   6.853   1.420   8.129
 4119TIP3    H133916   0.041   1.361   8.067
 4119TIP3    H233917   0.069   1.443   8.190
 4120TIP3   OH233918   2.175   1.434   0.240
 4120TIP3    H133919   2.269   1.440   0.225
 4120TIP3    H233920   2.152   1.519   0.278
 4121TIP3   OH233921   2.729   1.776   7.470
 4121TIP3    H133922   2.821   1.794   7.448
 4121TIP3    H233923   2.692   1.862   7.492
 4122TIP3   OH233924   5.321   5.367   7.456
 4122TIP3    H133925   5.240   5.316   7.452
 4122TIP3    H233926   5.389   5.302   7.477
 4123TIP3   OH233927   6.234   2.539   7.714
 4123TIP3    H133928   6.320   2.580   7.714
 4123TIP3    H233929   6.242   2.468   7.650
 4124TIP3   OH233930   0.494   3.978   7.518
 4124TIP3    H133931   0.405   4.013   7.514
 4124TIP3    H233932   0.501   3.939   7.605
 4125TIP3   OH233933   4.416   3.633   1.372
 4125TIP3    H133934   4.490   3.677   1.329
 4125TIP3    H233935   4.391   3.563   1.312
 4126TIP3   OH233936   1.856   4.831   7.447
 4126TIP3    H133937   1.785   4.818   7.509
 4126TIP3    H233938   1.834   4.776   7.372
 4127TIP3   OH233939   1.161   6.050   1.661
 4127TIP3    H133940   1.102   5.975   1.651
 4127TIP3    H233941   1.209   6.032   1.742
 4128TIP3   OH233942   2.305   2.386   7.724
 4128TIP3    H133943   2.268   2.297   7.725
 4128TIP3    H233944   2.335   2.400   7.814
 4129TIP3   OH233945   5.590   5.385   7.665
 4129TIP3    H133946   5.615   5.448   7.597
 4129TIP3    H233947   5.588   5.301   7.621
 4130TIP3   OH233948   3.525   2.138   8.043
 4130TIP3    H133949   3.613   2.136   8.081
 4130TIP3    H233950   3.530   2.081   7.967
 4131TIP3   OH233951   2.543   0.396   6.301
 4131TIP3    H133952   2.608   0.417   6.234
 4131TIP3    H233953   2.537   0.474   6.355
 4132TIP3   OH233954   2.680   5.106   1.223
 4132TIP3    H133955   2.750   5.123   1.160
 4132TIP3    H233956   2.610   5.066   1.172
 4133TIP3   OH233957   3.562   5.605   7.928
 4133TIP3    H133958   3.649   5.611   7.888
 4133TIP3    H233959   3.571   5.652   8.011
 4134TIP3   OH233960   3.736   3.834   8.585
 4134TIP3    H133961   3.723   3.751   8.631
 4134TIP3    H233962   3.695   3.900   8.641
 4135TIP3   OH233963   0.645   4.244   2.469
 4135TIP3    H133964   0.652   4.149   2.460
 4135TIP3    H233965   0.732   4.272   2.497
 4136TIP3   OH233966   2.269   1.647   7.583
 4136TIP3    H133967   2.304   1.702   7.653
 4136TIP3    H233968   2.213   1.584   7.628
 4137TIP3   OH233969   0.945   3.511   8.200
 4137TIP3    H133970   0.958   3.577   8.269
 4137TIP3    H233971   0.998   3.542   8.127
 4138TIP3   OH233972   3.859   5.112   0.199
 4138TIP3    H133973   3.837   5.191   0.151
 4138TIP3    H233974   3.954   5.116   0.211
 4139TIP3   OH233975   4.557   2.507   0.975
 4139TIP3    H133976   4.499   2.440   1.011
 4139TIP3    H233977   4.590   2.554   1.051
 4140TIP3   OH233978   3.388   0.024   8.073
 4140TIP3    H133979   3.369   0.116   8.053
 4140TIP3    H233980   3.373   6.832   7.991
 4141TIP3   OH233981   1.979   2.580   0.195
 4141TIP3    H133982   2.057   2.618   0.156
 4141TIP3    H233983   2.007   2.494   0.228
 4142TIP3   OH233984   2.887   1.027   8.414
 4142TIP3    H133985   2.874   1.085   8.490
 4142TIP3    H233986   2.806   1.035   8.364
 4143TIP3   OH233987   6.710   6.748   0.084
 4143TIP3    H133988   6.786   6.714   0.132
 4143TIP3    H233989   6.680   6.673   0.032
 4144TIP3   OH233990   6.555   0.825   7.011
 4144TIP3    H133991   6.527   0.916   7.005
 4144TIP3    H233992   6.620   0.815   6.942
 4145TIP3   OH233993   5.856   2.353   7.081
 4145TIP3    H133994   5.786   2.397   7.033
 4145TIP3    H233995   5.820   2.267   7.103
 4146TIP3   OH233996   0.933   4.955   2.015
 4146TIP3    H133997   0.966   5.031   1.967
 4146TIP3    H233998   0.929   4.984   2.106
 4147TIP3   OH233999   0.024   4.672   6.404
 4147TIP3    H134000   6.848   4.655   6.493
 4147TIP3    H234001   6.841   4.757   6.382
 4148TIP3   OH234002   5.445   1.512   1.930
 4148TIP3    H134003   5.375   1.545   1.987
 4148TIP3    H234004   5.456   1.579   1.863
 4149TIP3   OH234005   6.212   5.661   0.917
 4149TIP3    H134006   6.181   5.661   1.008
 4149TIP3    H234007   6.203   5.570   0.888
 4150TIP3   OH234008   2.492   4.846   0.820
 4150TIP3    H134009   2.454   4.838   0.732
 4150TIP3    H234010   2.468   4.765   0.864
 4151TIP3   OH234011   5.301   5.508   2.094
 4151TIP3    H134012   5.288   5.563   2.016
 4151TIP3    H234013   5.376   5.548   2.139
 4152TIP3   OH234014   3.354   0.702   7.596
 4152TIP3    H134015   3.393   0.688   7.510
 4152TIP3    H234016   3.267   0.737   7.577
 4153TIP3   OH234017   4.542   0.530   7.757
 4153TIP3    H134018   4.454   0.512   7.789
 4153TIP3    H234019   4.549   0.482   7.675
 4154TIP3   OH234020   3.424   2.610   0.153
 4154TIP3    H134021   3.467   2.550   0.092
 4154TIP3    H234022   3.448   2.576   0.240
 4155TIP3   OH234023   4.510   0.663   1.144
 4155TIP3    H134024   4.515   0.756   1.165
 4155TIP3    H234025   4.417   0.644   1.139
 4156TIP3   OH234026   5.838   2.523   0.508
 4156TIP3    H134027   5.820   2.540   0.600
 4156TIP3    H234028   5.846   2.610   0.468
 4157TIP3   OH234029   5.160   5.599   7.690
 4157TIP3    H134030   5.082   5.573   7.641
 4157TIP3    H234031   5.215   5.644   7.626
 4158TIP3   OH234032   1.029   4.158   7.955
 4158TIP3    H134033   0.972   4.212   7.899
 4158TIP3    H234034   1.118   4.185   7.932
 4159TIP3   OH234035   6.100   1.584   7.987
 4159TIP3    H134036   6.145   1.507   8.022
 4159TIP3    H234037   6.014   1.551   7.960
 4160TIP3   OH234038   3.347   2.353   8.052
 4160TIP3    H134039   3.383   2.265   8.059
 4160TIP3    H234040   3.254   2.339   8.034
 4161TIP3   OH234041   0.795   6.099   0.158
 4161TIP3    H134042   0.729   6.085   0.089
 4161TIP3    H234043   0.870   6.136   0.112
 4162TIP3   OH234044   6.190   1.977   6.347
 4162TIP3    H134045   6.172   2.063   6.309
 4162TIP3    H234046   6.273   1.951   6.306
 4163TIP3   OH234047   4.684   3.842   8.149
 4163TIP3    H134048   4.762   3.868   8.099
 4163TIP3    H234049   4.611   3.886   8.105
 4164TIP3   OH234050   4.694   0.023   1.555
 4164TIP3    H134051   4.679   0.084   1.484
 4164TIP3    H234052   4.779   6.837   1.536
 4165TIP3   OH234053   5.883   4.221   8.601
 4165TIP3    H134054   5.904   4.174   8.520
 4165TIP3    H234055   5.968   4.255   8.632
 4166TIP3   OH234056   2.768   5.047   8.446
 4166TIP3    H134057   2.705   5.104   8.490
 4166TIP3    H234058   2.739   4.958   8.466
 4167TIP3   OH234059   3.153   3.059   0.729
 4167TIP3    H134060   3.084   2.994   0.738
 4167TIP3    H234061   3.227   3.023   0.778
 4168TIP3   OH234062   1.416   5.869   1.370
 4168TIP3    H134063   1.408   5.814   1.292
 4168TIP3    H234064   1.352   5.939   1.356
 4169TIP3   OH234065   5.119   5.154   7.423
 4169TIP3    H134066   5.107   5.145   7.518
 4169TIP3    H234067   5.035   5.128   7.386
 4170TIP3   OH234068   2.003   6.415   8.330
 4170TIP3    H134069   1.997   6.511   8.327
 4170TIP3    H234070   1.976   6.393   8.419
 4171TIP3   OH234071   5.097   1.279   6.859
 4171TIP3    H134072   5.053   1.360   6.834
 4171TIP3    H234073   5.028   1.224   6.896
 4172TIP3   OH234074   3.159   6.778   8.599
 4172TIP3    H134075   3.087   6.730   8.640
 4172TIP3    H234076   3.117   6.834   8.534
 4173TIP3   OH234077   3.815   0.888   8.015
 4173TIP3    H134078   3.872   0.961   8.040
 4173TIP3    H234079   3.776   0.858   8.097
 4174TIP3   OH234080   2.882   5.958   8.274
 4174TIP3    H134081   2.805   5.926   8.227
 4174TIP3    H234082   2.845   5.998   8.353
 4175TIP3   OH234083   3.473   3.462   1.456
 4175TIP3    H134084   3.392   3.454   1.507
 4175TIP3    H234085   3.530   3.392   1.489
 4176TIP3   OH234086   5.354   4.207   8.211
 4176TIP3    H134087   5.393   4.123   8.188
 4176TIP3    H234088   5.284   4.185   8.273
 4177TIP3   OH234089   1.034   5.514   0.146
 4177TIP3    H134090   1.046   5.422   0.170
 4177TIP3    H234091   1.104   5.560   0.193
 4178TIP3   OH234092   6.854   2.219   6.878
 4178TIP3    H134093   0.010   2.125   6.863
 4178TIP3    H234094   6.852   2.257   6.790
 4179TIP3   OH234095   0.365   6.131   7.368
 4179TIP3    H134096   0.308   6.063   7.333
 4179TIP3    H234097   0.426   6.084   7.425
 4180TIP3   OH234098   5.739   5.062   7.704
 4180TIP3    H134099   5.783   5.047   7.620
 4180TIP3    H234100   5.746   4.979   7.750
 4181TIP3   OH234101   2.499   1.960   8.579
 4181TIP3    H134102   2.473   1.954   8.487
 4181TIP3    H234103   2.592   1.941   8.579
 4182TIP3   OH234104   6.551   5.803   2.615
 4182TIP3    H134105   6.457   5.801   2.601
 4182TIP3    H234106   6.574   5.713   2.639
 4183TIP3   OH234107   3.541   0.946   0.286
 4183TIP3    H134108   3.453   0.914   0.305
 4183TIP3    H234109   3.589   0.935   0.368
 4184TIP3   OH234110   4.920   1.166   7.347
 4184TIP3    H134111   4.840   1.118   7.367
 4184TIP3    H234112   4.904   1.254   7.381
 4185TIP3   OH234113   2.307   0.593   0.364
 4185TIP3    H134114   2.264   0.564   0.444
 4185TIP3    H234115   2.361   0.519   0.337
 4186TIP3   OH234116   3.089   1.445   2.191
 4186TIP3    H134117   3.043   1.385   2.133
 4186TIP3    H234118   3.065   1.417   2.279
 4187TIP3   OH234119   4.959   6.749   1.534
 4187TIP3    H134120   5.048   6.724   1.558
 4187TIP3    H234121   4.955   6.736   1.439
 4188TIP3   OH234122   2.871   2.744   1.325
 4188TIP3    H134123   2.841   2.654   1.313
 4188TIP3    H234124   2.793   2.798   1.310
 4189TIP3   OH234125   4.113   2.587   2.603
 4189TIP3    H134126   4.071   2.589   2.517
 4189TIP3    H234127   4.043   2.562   2.663
 4190TIP3   OH234128   3.903   6.365   8.017
 4190TIP3    H134129   3.947   6.424   7.956
 4190TIP3    H234130   3.817   6.403   8.030
 4191TIP3   OH234131   1.895   1.889   1.774
 4191TIP3    H134132   1.980   1.848   1.789
 4191TIP3    H234133   1.873   1.932   1.856
 4192TIP3   OH234134   1.994   0.282   0.812
 4192TIP3    H134135   1.966   0.371   0.829
 4192TIP3    H234136   2.002   0.277   0.716
 4193TIP3   OH234137   4.319   0.192   7.321
 4193TIP3    H134138   4.387   0.127   7.305
 4193TIP3    H234139   4.333   0.220   7.412
 4194TIP3   OH234140   3.732   3.345   7.058
 4194TIP3    H134141   3.681   3.426   7.045
 4194TIP3    H234142   3.822   3.375   7.069
 4195TIP3   OH234143   3.288   0.447   6.811
 4195TIP3    H134144   3.333   0.520   6.767
 4195TIP3    H234145   3.230   0.490   6.875
 4196TIP3   OH234146   6.013   2.678   7.069
 4196TIP3    H134147   5.945   2.667   7.003
 4196TIP3    H234148   5.965   2.699   7.149
 4197TIP3   OH234149   5.940   3.603   0.728
 4197TIP3    H134150   6.013   3.660   0.751
 4197TIP3    H234151   5.966   3.561   0.646
 4198TIP3   OH234152   6.385   1.961   2.626
 4198TIP3    H134153   6.457   1.992   2.571
 4198TIP3    H234154   6.308   2.007   2.593
 4199TIP3   OH234155   1.980   4.513   1.232
 4199TIP3    H134156   1.987   4.434   1.179
 4199TIP3    H234157   1.947   4.482   1.316
 4200TIP3   OH234158   1.719   2.943   7.722
 4200TIP3    H134159   1.781   2.877   7.693
 4200TIP3    H234160   1.646   2.893   7.760
 4201TIP3   OH234161   2.565   2.230   1.798
 4201TIP3    H134162   2.470   2.227   1.787
 4201TIP3    H234163   2.580   2.207   1.890
 4202TIP3   OH234164   4.226   0.106   8.011
 4202TIP3    H134165   4.261   0.046   7.945
 4202TIP3    H234166   4.184   0.176   7.960
 4203TIP3   OH234167   5.722   1.482   0.026
 4203TIP3    H134168   5.675   1.531   0.094
 4203TIP3    H234169   5.714   1.536   8.673
 4204TIP3   OH234170   5.496   3.660   7.640
 4204TIP3    H134171   5.405   3.667   7.611
 4204TIP3    H234172   5.526   3.750   7.647
 4205TIP3   OH234173   6.550   1.669   8.437
 4205TIP3    H134174   6.546   1.574   8.429
 4205TIP3    H234175   6.472   1.701   8.391
 4206TIP3   OH234176   5.339   0.602   0.144
 4206TIP3    H134177   5.419   0.568   0.182
 4206TIP3    H234178   5.368   0.665   0.077
 4207TIP3   OH234179   2.672   4.135   1.035
 4207TIP3    H134180   2.603   4.070   1.046
 4207TIP3    H234181   2.637   4.215   1.074
 4208TIP3   OH234182   5.083   1.349   2.474
 4208TIP3    H134183   5.017   1.417   2.470
 4208TIP3    H234184   5.100   1.327   2.382
 4209TIP3   OH234185   6.176   1.631   0.802
 4209TIP3    H134186   6.125   1.683   0.740
 4209TIP3    H234187   6.174   1.681   0.883
 4210TIP3   OH234188   1.630   5.208   0.040
 4210TIP3    H134189   1.654   5.159   8.687
 4210TIP3    H234190   1.692   5.281   0.043
 4211TIP3   OH234191   3.788   1.012   8.673
 4211TIP3    H134192   3.697   1.030   8.652
 4211TIP3    H234193   3.831   0.998   8.589
 4212TIP3   OH234194   0.653   0.836   6.231
 4212TIP3    H134195   0.747   0.854   6.228
 4212TIP3    H234196   0.647   0.741   6.239
 4213TIP3   OH234197   6.286   2.180   0.884
 4213TIP3    H134198   6.217   2.159   0.947
 4213TIP3    H234199   6.243   2.235   0.819
 4214TIP3   OH234200   1.038   6.795   8.078
 4214TIP3    H134201   1.106   6.822   8.140
 4214TIP3    H234202   1.085   6.742   8.013
 4215TIP3   OH234203   2.764   2.002   0.141
 4215TIP3    H134204   2.854   2.034   0.132
 4215TIP3    H234205   2.746   1.959   0.057
 4216TIP3   OH234206   5.888   6.036   0.050
 4216TIP3    H134207   5.943   6.111   0.028
 4216TIP3    H234208   5.823   6.032   8.706
 4217TIP3   OH234209   5.072   5.759   6.059
 4217TIP3    H134210   5.157   5.755   6.016
 4217TIP3    H234211   5.016   5.702   6.006
 4218TIP3   OH234212   6.714   5.575   8.497
 4218TIP3    H134213   6.618   5.573   8.494
 4218TIP3    H234214   6.739   5.485   8.516
 4219TIP3   OH234215   3.748   1.264   7.588
 4219TIP3    H134216   3.785   1.347   7.559
 4219TIP3    H234217   3.824   1.212   7.617
 4220TIP3   OH234218   2.642   2.590   1.674
 4220TIP3    H134219   2.575   2.625   1.616
 4220TIP3    H234220   2.688   2.666   1.708
 4221TIP3   OH234221   6.112   6.582   1.983
 4221TIP3    H134222   6.129   6.532   2.062
 4221TIP3    H234223   6.148   6.669   2.001
 4222TIP3   OH234224   6.190   2.966   8.453
 4222TIP3    H134225   6.272   2.963   8.405
 4222TIP3    H234226   6.163   3.058   8.448
 4223TIP3   OH234227   2.736   5.618   8.242
 4223TIP3    H134228   2.730   5.711   8.264
 4223TIP3    H234229   2.830   5.600   8.240
 4224TIP3   OH234230   4.901   3.825   0.604
 4224TIP3    H134231   4.969   3.836   0.538
 4224TIP3    H234232   4.867   3.737   0.589
 4225TIP3   OH234233   6.154   5.075   0.293
 4225TIP3    H134234   6.184   5.162   0.318
 4225TIP3    H234235   6.111   5.088   0.208
 4226TIP3   OH234236   4.946   1.192   1.231
 4226TIP3    H134237   4.973   1.108   1.268
 4226TIP3    H234238   4.978   1.257   1.294
 4227TIP3   OH234239   3.275   3.651   2.195
 4227TIP3    H134240   3.275   3.589   2.122
 4227TIP3    H234241   3.367   3.662   2.218
 4228TIP3   OH234242   6.432   3.000   7.858
 4228TIP3    H134243   6.387   2.927   7.900
 4228TIP3    H234244   6.365   3.068   7.849
 4229TIP3   OH234245   0.743   1.265   0.027
 4229TIP3    H134246   0.699   1.194   8.705
 4229TIP3    H234247   0.732   1.342   8.698
 4230TIP3   OH234248   4.823   3.729   6.668
 4230TIP3    H134249   4.838   3.674   6.591
 4230TIP3    H234250   4.728   3.725   6.682
 4231TIP3   OH234251   1.276   3.152   6.511
 4231TIP3    H134252   1.297   3.188   6.597
 4231TIP3    H234253   1.353   3.100   6.487
 4232TIP3   OH234254   3.471   0.067   1.988
 4232TIP3    H134255   3.556   0.028   1.968
 4232TIP3    H234256   3.407   0.002   1.960
 4233TIP3   OH234257   5.132   4.499   1.018
 4233TIP3    H134258   5.222   4.479   1.043
 4233TIP3    H234259   5.116   4.444   0.941
 4234TIP3   OH234260   3.168   3.576   1.120
 4234TIP3    H134261   3.136   3.627   1.046
 4234TIP3    H234262   3.255   3.612   1.138
 4235TIP3   OH234263   3.600   4.164   1.301
 4235TIP3    H134264   3.525   4.138   1.355
 4235TIP3    H234265   3.604   4.097   1.233
 4236TIP3   OH234266   2.389   3.832   8.441
 4236TIP3    H134267   2.341   3.750   8.454
 4236TIP3    H234268   2.337   3.881   8.378
 4237TIP3   OH234269   2.227   3.855   7.665
 4237TIP3    H134270   2.261   3.942   7.687
 4237TIP3    H234271   2.251   3.842   7.573
 4238TIP3   OH234272   1.544   2.437   0.058
 4238TIP3    H134273   1.616   2.375   0.044
 4238TIP3    H234274   1.555   2.503   8.716
 4239TIP3   OH234275   0.126   5.247   0.322
 4239TIP3    H134276   0.040   5.211   0.299
 4239TIP3    H234277   0.164   5.273   0.238
 4240TIP3   OH234278   2.189   3.138   2.025
 4240TIP3    H134279   2.232   3.076   1.967
 4240TIP3    H234280   2.115   3.172   1.975
 4241TIP3   OH234281   1.486   6.187   8.065
 4241TIP3    H134282   1.394   6.163   8.075
 4241TIP3    H234283   1.518   6.132   7.993
 4242TIP3   OH234284   0.441   1.917   0.832
 4242TIP3    H134285   0.394   1.913   0.749
 4242TIP3    H234286   0.447   2.010   0.852
 4243TIP3   OH234287   3.030   0.416   7.569
 4243TIP3    H134288   2.993   0.368   7.494
 4243TIP3    H234289   3.059   0.347   7.629
 4244TIP3   OH234290   4.466   0.888   2.205
 4244TIP3    H134291   4.492   0.969   2.249
 4244TIP3    H234292   4.390   0.913   2.152
 4245TIP3   OH234293   1.721   4.889   8.532
 4245TIP3    H134294   1.770   4.966   8.503
 4245TIP3    H234295   1.779   4.847   8.596
 4246TIP3   OH234296   3.971   2.879   1.030
 4246TIP3    H134297   4.055   2.843   1.058
 4246TIP3    H234298   3.984   2.901   0.938
 4247TIP3   OH234299   1.897   0.139   2.267
 4247TIP3    H134300   1.883   0.056   2.220
 4247TIP3    H234301   1.896   0.206   2.199
 4248TIP3   OH234302   0.164   1.738   8.056
 4248TIP3    H134303   0.138   1.749   7.964
 4248TIP3    H234304   0.208   1.654   8.058
 4249TIP3   OH234305   2.376   1.144   2.043
 4249TIP3    H134306   2.367   1.069   2.102
 4249TIP3    H234307   2.428   1.207   2.094
 4250TIP3   OH234308   4.658   2.599   1.232
 4250TIP3    H134309   4.747   2.633   1.242
 4250TIP3    H234310   4.603   2.677   1.228
 4251TIP3   OH234311   1.938   4.772   2.558
 4251TIP3    H134312   1.984   4.823   2.492
 4251TIP3    H234313   1.882   4.836   2.603
 4252TIP3   OH234314   4.122   5.659   7.675
 4252TIP3    H134315   4.152   5.701   7.756
 4252TIP3    H234316   4.053   5.598   7.704
 4253TIP3   OH234317   1.117   6.496   0.447
 4253TIP3    H134318   1.119   6.458   0.359
 4253TIP3    H234319   1.180   6.445   0.497
 4254TIP3   OH234320   3.647   4.984   7.691
 4254TIP3    H134321   3.660   4.978   7.596
 4254TIP3    H234322   3.717   4.931   7.728
 4255TIP3   OH234323   1.947   0.245   1.420
 4255TIP3    H134324   1.925   0.152   1.418
 4255TIP3    H234325   1.963   0.264   1.513
 4256TIP3   OH234326   3.240   6.430   1.039
 4256TIP3    H134327   3.275   6.478   0.964
 4256TIP3    H234328   3.248   6.338   1.014
 4257TIP3   OH234329   2.197   6.720   0.680
 4257TIP3    H134330   2.183   6.682   0.593
 4257TIP3    H234331   2.292   6.726   0.688
 4258TIP3   OH234332   2.378   4.668   7.406
 4258TIP3    H134333   2.447   4.669   7.472
 4258TIP3    H234334   2.363   4.760   7.385
 4259TIP3   OH234335   4.632   0.658   2.144
 4259TIP3    H134336   4.584   0.736   2.173
 4259TIP3    H234337   4.723   0.686   2.141
 4260TIP3   OH234338   5.328   4.941   6.316
 4260TIP3    H134339   5.422   4.929   6.306
 4260TIP3    H234340   5.317   4.990   6.397
 4261TIP3   OH234341   3.566   6.355   6.487
 4261TIP3    H134342   3.642   6.414   6.495
 4261TIP3    H234343   3.518   6.388   6.411
 4262TIP3   OH234344   6.574   0.144   0.067
 4262TIP3    H134345   6.502   0.113   0.122
 4262TIP3    H234346   6.637   0.072   0.066
 4263TIP3   OH234347   2.645   5.568   0.554
 4263TIP3    H134348   2.616   5.533   0.470
 4263TIP3    H234349   2.640   5.493   0.614
 4264TIP3   OH234350   5.784   6.042   2.271
 4264TIP3    H134351   5.869   6.083   2.287
 4264TIP3    H234352   5.805   5.950   2.253
 4265TIP3   OH234353   4.866   1.254   0.022
 4265TIP3    H134354   4.880   1.319   8.679
 4265TIP3    H234355   4.803   1.192   8.710
 4266TIP3   OH234356   4.634   1.819   1.486
 4266TIP3    H134357   4.622   1.796   1.394
 4266TIP3    H234358   4.710   1.767   1.514
 4267TIP3   OH234359   1.959   5.244   0.170
 4267TIP3    H134360   2.034   5.206   0.125
 4267TIP3    H234361   1.923   5.307   0.108
 4268TIP3   OH234362   1.426   0.973   1.388
 4268TIP3    H134363   1.489   0.937   1.450
 4268TIP3    H234364   1.438   1.068   1.394
 4269TIP3   OH234365   5.303   6.692   6.368
 4269TIP3    H134366   5.298   6.649   6.282
 4269TIP3    H234367   5.213   6.714   6.390
 4270TIP3   OH234368   3.457   0.531   0.426
 4270TIP3    H134369   3.439   0.439   0.445
 4270TIP3    H234370   3.457   0.536   0.330
 4271TIP3   OH234371   4.780   3.554   0.512
 4271TIP3    H134372   4.786   3.458   0.507
 4271TIP3    H234373   4.697   3.570   0.556
 4272TIP3   OH234374   5.778   4.453   6.606
 4272TIP3    H134375   5.710   4.497   6.658
 4272TIP3    H234376   5.741   4.448   6.518
 4273TIP3   OH234377   0.179   4.238   1.765
 4273TIP3    H134378   0.100   4.237   1.710
 4273TIP3    H234379   0.158   4.180   1.838
 4274TIP3   OH234380   2.058   3.419   8.019
 4274TIP3    H134381   2.085   3.504   7.985
 4274TIP3    H234382   1.981   3.396   7.966
 4275TIP3   OH234383   2.041   1.319   1.397
 4275TIP3    H134384   2.083   1.258   1.337
 4275TIP3    H234385   2.112   1.373   1.431
 4276TIP3   OH234386   3.847   0.574   7.260
 4276TIP3    H134387   3.808   0.661   7.256
 4276TIP3    H234388   3.873   0.563   7.351
 4277TIP3   OH234389   4.535   1.780   1.220
 4277TIP3    H134390   4.531   1.767   1.125
 4277TIP3    H234391   4.443   1.789   1.247
 4278TIP3   OH234392   2.698   0.712   8.364
 4278TIP3    H134393   2.691   0.780   8.297
 4278TIP3    H234394   2.613   0.715   8.409
 4279TIP3   OH234395   4.016   2.817   1.661
 4279TIP3    H134396   4.002   2.897   1.610
 4279TIP3    H234397   4.009   2.746   1.597
 4280TIP3   OH234398   6.645   3.608   2.321
 4280TIP3    H134399   6.573   3.545   2.327
 4280TIP3    H234400   6.701   3.588   2.396
 4281TIP3   OH234401   4.130   6.341   0.443
 4281TIP3    H134402   4.153   6.285   0.369
 4281TIP3    H234403   4.203   6.331   0.504
 4282TIP3   OH234404   5.524   4.145   7.923
 4282TIP3    H134405   5.491   4.200   7.853
 4282TIP3    H234406   5.446   4.114   7.969
 4283TIP3   OH234407   5.858   2.271   1.930
 4283TIP3    H134408   5.859   2.366   1.925
 4283TIP3    H234409   5.861   2.241   1.839
 4284TIP3   OH234410   0.576   1.664   1.957
 4284TIP3    H134411   0.624   1.744   1.936
 4284TIP3    H234412   0.504   1.694   2.013
 4285TIP3   OH234413   5.713   5.519   0.606
 4285TIP3    H134414   5.658   5.497   0.530
 4285TIP3    H234415   5.663   5.485   0.681
 4286TIP3   OH234416   6.677   6.631   7.628
 4286TIP3    H134417   6.748   6.589   7.677
 4286TIP3    H234418   6.601   6.574   7.644
 4287TIP3   OH234419   3.758   5.354   8.641
 4287TIP3    H134420   3.781   5.343   8.549
 4287TIP3    H234421   3.757   5.448   8.654
 4288TIP3   OH234422   4.461   0.715   8.375
 4288TIP3    H134423   4.413   0.725   8.293
 4288TIP3    H234424   4.402   0.749   8.442
 4289TIP3   OH234425   2.535   1.925   7.166
 4289TIP3    H134426   2.595   1.978   7.219
 4289TIP3    H234427   2.449   1.964   7.180
 4290TIP3   OH234428   2.244   3.754   6.281
 4290TIP3    H134429   2.251   3.808   6.202
 4290TIP3    H234430   2.153   3.725   6.283
 4291TIP3   OH234431   3.225   5.566   6.633
 4291TIP3    H134432   3.239   5.472   6.641
 4291TIP3    H234433   3.261   5.589   6.548
 4292TIP3   OH234434   2.163   6.329   8.670
 4292TIP3    H134435   2.253   6.344   8.643
 4292TIP3    H234436   2.159   6.360   0.035
 4293TIP3   OH234437   0.319   5.669   0.308
 4293TIP3    H134438   0.333   5.764   0.303
 4293TIP3    H234439   0.250   5.651   0.246
 4294TIP3   OH234440   3.368   6.607   6.463
 4294TIP3    H134441   3.329   6.693   6.444
 4294TIP3    H234442   3.354   6.556   6.384
 4295TIP3   OH234443   0.354   3.080   7.799
 4295TIP3    H134444   0.262   3.054   7.793
 4295TIP3    H234445   0.382   3.092   7.708
 4296TIP3   OH234446   6.719   4.433   7.508
 4296TIP3    H134447   6.811   4.431   7.482
 4296TIP3    H234448   6.671   4.432   7.425
 4297TIP3   OH234449   0.659   4.489   2.716
 4297TIP3    H134450   0.616   4.439   2.785
 4297TIP3    H234451   0.591   4.500   2.649
 4298TIP3   OH234452   6.686   3.591   1.716
 4298TIP3    H134453   6.610   3.648   1.707
 4298TIP3    H234454   6.683   3.535   1.639
 4299TIP3   OH234455   5.182   4.604   1.926
 4299TIP3    H134456   5.092   4.612   1.956
 4299TIP3    H234457   5.215   4.694   1.923
 4300TIP3   OH234458   1.328   4.640   7.423
 4300TIP3    H134459   1.242   4.609   7.454
 4300TIP3    H234460   1.391   4.592   7.476
 4301TIP3   OH234461   0.423   5.802   0.814
 4301TIP3    H134462   0.366   5.772   0.743
 4301TIP3    H234463   0.498   5.743   0.812
 4302TIP3   OH234464   4.729   2.817   8.436
 4302TIP3    H134465   4.808   2.851   8.394
 4302TIP3    H234466   4.669   2.891   8.441
 4303TIP3   OH234467   3.174   2.135   0.459
 4303TIP3    H134468   3.236   2.095   0.520
 4303TIP3    H234469   3.175   2.078   0.383
 4304TIP3   OH234470   0.657   4.358   0.739
 4304TIP3    H134471   0.679   4.308   0.661
 4304TIP3    H234472   0.652   4.449   0.709
 4305TIP3   OH234473   2.671   1.518   8.076
 4305TIP3    H134474   2.750   1.480   8.116
 4305TIP3    H234475   2.599   1.465   8.110
 4306TIP3   OH234476   1.563   3.749   0.129
 4306TIP3    H134477   1.635   3.777   0.073
 4306TIP3    H234478   1.487   3.797   0.097
 4307TIP3   OH234479   6.108   1.557   2.685
 4307TIP3    H134480   6.170   1.540   2.757
 4307TIP3    H234481   6.063   1.637   2.711
 4308TIP3   OH234482   3.981   2.428   1.460
 4308TIP3    H134483   3.919   2.397   1.525
 4308TIP3    H234484   3.968   2.369   1.385
 4309TIP3   OH234485   4.143   1.862   7.133
 4309TIP3    H134486   4.215   1.860   7.070
 4309TIP3    H234487   4.064   1.849   7.080
 4310TIP3   OH234488   3.815   2.028   7.609
 4310TIP3    H134489   3.739   2.044   7.553
 4310TIP3    H234490   3.863   1.958   7.565
 4311TIP3   OH234491   1.571   6.432   0.425
 4311TIP3    H134492   1.666   6.418   0.434
 4311TIP3    H234493   1.534   6.390   0.503
 4312TIP3   OH234494   3.507   4.081   7.789
 4312TIP3    H134495   3.496   4.021   7.715
 4312TIP3    H234496   3.439   4.147   7.776
 4313TIP3   OH234497   0.212   1.744   8.339
 4313TIP3    H134498   0.217   1.763   8.245
 4313TIP3    H234499   0.218   1.830   8.381
 4314TIP3   OH234500   0.866   4.514   0.987
 4314TIP3    H134501   0.815   4.543   0.911
 4314TIP3    H234502   0.957   4.514   0.956
 4315TIP3   OH234503   3.250   0.473   7.396
 4315TIP3    H134504   3.233   0.426   7.314
 4315TIP3    H234505   3.174   0.454   7.451
 4316TIP3   OH234506   0.668   5.617   0.416
 4316TIP3    H134507   0.612   5.693   0.432
 4316TIP3    H234508   0.615   5.558   0.363
 4317TIP3   OH234509   5.982   2.609   0.093
 4317TIP3    H134510   5.900   2.576   0.130
 4317TIP3    H234511   6.050   2.570   0.148
 4318TIP3   OH234512   5.850   5.283   7.451
 4318TIP3    H134513   5.848   5.330   7.368
 4318TIP3    H234514   5.912   5.332   7.505
 4319TIP3   OH234515   5.508   4.594   7.732
 4319TIP3    H134516   5.570   4.568   7.801
 4319TIP3    H234517   5.514   4.524   7.667
 4320TIP3   OH234518   4.241   3.592   8.082
 4320TIP3    H134519   4.156   3.550   8.072
 4320TIP3    H234520   4.254   3.599   8.176
 4321TIP3   OH234521   5.679   2.411   8.377
 4321TIP3    H134522   5.687   2.329   8.426
 4321TIP3    H234523   5.596   2.403   8.331
 4322TIP3   OH234524   6.667   3.623   8.685
 4322TIP3    H134525   6.605   3.585   0.020
 4322TIP3    H234526   6.614   3.647   8.609
 4323TIP3   OH234527   4.215   2.063   0.598
 4323TIP3    H134528   4.284   2.120   0.564
 4323TIP3    H234529   4.249   2.031   0.682
 4324TIP3   OH234530   5.141   2.186   1.892
 4324TIP3    H134531   5.180   2.228   1.816
 4324TIP3    H234532   5.055   2.226   1.900
 4325TIP3   OH234533   6.131   1.848   7.129
 4325TIP3    H134534   6.201   1.894   7.080
 4325TIP3    H234535   6.102   1.912   7.193
 4326TIP3   OH234536   5.430   3.364   1.188
 4326TIP3    H134537   5.390   3.356   1.102
 4326TIP3    H234538   5.432   3.458   1.205
 4327TIP3   OH234539   5.997   2.026   7.306
 4327TIP3    H134540   5.912   2.038   7.264
 4327TIP3    H234541   5.979   2.028   7.400
 4328TIP3   OH234542   3.295   1.694   7.307
 4328TIP3    H134543   3.271   1.643   7.384
 4328TIP3    H234544   3.244   1.775   7.315
 4329TIP3   OH234545   3.058   4.155   0.571
 4329TIP3    H134546   3.098   4.203   0.499
 4329TIP3    H234547   3.117   4.171   0.645
 4330TIP3   OH234548   2.724   6.657   8.633
 4330TIP3    H134549   2.654   6.635   8.572
 4330TIP3    H234550   2.716   6.751   8.648
 4331TIP3   OH234551   6.677   4.080   2.198
 4331TIP3    H134552   6.679   4.101   2.292
 4331TIP3    H234553   6.585   4.092   2.173
 4332TIP3   OH234554   3.329   4.635   1.437
 4332TIP3    H134555   3.249   4.611   1.391
 4332TIP3    H234556   3.386   4.670   1.369
 4333TIP3   OH234557   3.556   6.438   1.005
 4333TIP3    H134558   3.632   6.484   0.972
 4333TIP3    H234559   3.523   6.493   1.077
 4334TIP3   OH234560   6.332   1.341   0.564
 4334TIP3    H134561   6.408   1.378   0.609
 4334TIP3    H234562   6.304   1.268   0.620
 4335TIP3   OH234563   2.386   6.650   8.239
 4335TIP3    H134564   2.426   6.565   8.220
 4335TIP3    H234565   2.454   6.714   8.219
 4336TIP3   OH234566   6.788   3.954   8.244
 4336TIP3    H134567   6.731   3.883   8.215
 4336TIP3    H234568   6.849   3.967   8.171
 4337TIP3   OH234569   3.970   3.666   8.304
 4337TIP3    H134570   4.008   3.679   8.216
 4337TIP3    H234571   3.911   3.740   8.316
 4338TIP3   OH234572   0.920   5.648   1.145
 4338TIP3    H134573   0.897   5.672   1.055
 4338TIP3    H234574   0.955   5.728   1.183
 4339TIP3   OH234575   0.804   4.569   6.234
 4339TIP3    H134576   0.729   4.629   6.235
 4339TIP3    H234577   0.872   4.616   6.281
 4340TIP3   OH234578   3.637   6.007   2.015
 4340TIP3    H134579   3.626   5.913   2.006
 4340TIP3    H234580   3.729   6.017   2.040
 4341TIP3   OH234581   5.184   0.477   2.619
 4341TIP3    H134582   5.129   0.507   2.547
 4341TIP3    H234583   5.260   0.438   2.577
 4342TIP3   OH234584   2.117   2.818   1.728
 4342TIP3    H134585   2.095   2.902   1.767
 4342TIP3    H234586   2.178   2.777   1.790
 4343TIP3   OH234587   4.895   5.927   1.834
 4343TIP3    H134588   4.841   5.927   1.913
 4343TIP3    H234589   4.975   5.883   1.860
 4344TIP3   OH234590   0.694   2.366   7.808
 4344TIP3    H134591   0.675   2.280   7.844
 4344TIP3    H234592   0.623   2.422   7.840
 4345TIP3   OH234593   5.121   2.344   7.646
 4345TIP3    H134594   5.181   2.332   7.573
 4345TIP3    H234595   5.037   2.310   7.615
 4346TIP3   OH234596   1.299   5.113   6.329
 4346TIP3    H134597   1.263   5.194   6.365
 4346TIP3    H234598   1.374   5.093   6.386
 4347TIP3   OH234599   5.076   6.429   6.954
 4347TIP3    H134600   5.132   6.432   6.876
 4347TIP3    H234601   5.025   6.348   6.944
 4348TIP3   OH234602   1.579   2.314   8.336
 4348TIP3    H134603   1.600   2.406   8.351
 4348TIP3    H234604   1.654   2.266   8.371
 4349TIP3   OH234605   5.190   5.404   0.680
 4349TIP3    H134606   5.224   5.494   0.676
 4349TIP3    H234607   5.112   5.406   0.625
 4350TIP3   OH234608   5.585   6.695   6.833
 4350TIP3    H134609   5.641   6.633   6.881
 4350TIP3    H234610   5.547   6.643   6.762
 4351TIP3   OH234611   4.055   5.216   8.419
 4351TIP3    H134612   4.050   5.164   8.339
 4351TIP3    H234613   4.146   5.209   8.447
 4352TIP3   OH234614   4.025   5.126   7.732
 4352TIP3    H134615   4.118   5.105   7.718
 4352TIP3    H234616   3.985   5.116   7.645
 4353TIP3   OH234617   3.898   2.381   2.378
 4353TIP3    H134618   3.890   2.341   2.465
 4353TIP3    H234619   3.913   2.307   2.319
 4354TIP3   OH234620   3.306   1.547   6.842
 4354TIP3    H134621   3.287   1.492   6.766
 4354TIP3    H234622   3.316   1.635   6.806
 4355TIP3   OH234623   6.339   1.229   7.481
 4355TIP3    H134624   6.336   1.315   7.440
 4355TIP3    H234625   6.257   1.223   7.531
 4356TIP3   OH234626   1.079   2.141   1.299
 4356TIP3    H134627   1.026   2.195   1.240
 4356TIP3    H234628   1.146   2.201   1.332
 4357TIP3   OH234629   5.756   4.001   1.347
 4357TIP3    H134630   5.817   3.995   1.420
 4357TIP3    H234631   5.744   4.095   1.332
 4358TIP3   OH234632   4.148   2.366   7.674
 4358TIP3    H134633   4.234   2.408   7.674
 4358TIP3    H234634   4.126   2.356   7.767
 4359TIP3   OH234635   1.825   2.989   0.952
 4359TIP3    H134636   1.828   3.039   0.871
 4359TIP3    H234637   1.840   3.054   1.021
 4360TIP3   OH234638   3.866   3.912   8.350
 4360TIP3    H134639   3.790   3.952   8.308
 4360TIP3    H234640   3.833   3.884   8.436
 4361TIP3   OH234641   6.320   0.706   2.498
 4361TIP3    H134642   6.327   0.772   2.567
 4361TIP3    H234643   6.366   0.744   2.423
 4362TIP3   OH234644   4.593   1.033   1.865
 4362TIP3    H134645   4.593   1.127   1.843
 4362TIP3    H234646   4.604   1.031   1.960
 4363TIP3   OH234647   6.072   6.242   8.413
 4363TIP3    H134648   6.049   6.335   8.414
 4363TIP3    H234649   6.111   6.227   8.327
 4364TIP3   OH234650   4.987   5.756   7.058
 4364TIP3    H134651   4.924   5.810   7.010
 4364TIP3    H234652   5.035   5.709   6.990
 4365TIP3   OH234653   5.179   2.750   0.189
 4365TIP3    H134654   5.225   2.778   0.109
 4365TIP3    H234655   5.097   2.711   0.157
 4366TIP3   OH234656   2.445   6.370   2.079
 4366TIP3    H134657   2.523   6.358   2.024
 4366TIP3    H234658   2.414   6.281   2.097
 4367TIP3   OH234659   5.792   3.374   0.569
 4367TIP3    H134660   5.769   3.414   0.653
 4367TIP3    H234661   5.726   3.407   0.508
 4368TIP3   OH234662   1.484   0.444   7.231
 4368TIP3    H134663   1.524   0.357   7.234
 4368TIP3    H234664   1.529   0.493   7.300
 4369TIP3   OH234665   4.314   2.787   2.104
 4369TIP3    H134666   4.250   2.775   2.035
 4369TIP3    H234667   4.310   2.706   2.155
 4370TIP3   OH234668   2.759   3.538   0.779
 4370TIP3    H134669   2.770   3.547   0.874
 4370TIP3    H234670   2.716   3.620   0.752
 4371TIP3   OH234671   3.699   1.291   2.071
 4371TIP3    H134672   3.604   1.283   2.065
 4371TIP3    H234673   3.714   1.379   2.104
 4372TIP3   OH234674   6.295   6.609   8.514
 4372TIP3    H134675   6.332   6.532   8.557
 4372TIP3    H234676   6.235   6.646   8.579
 4373TIP3   OH234677   2.839   4.903   1.913
 4373TIP3    H134678   2.882   4.968   1.858
 4373TIP3    H234679   2.797   4.954   1.982
 4374TIP3   OH234680   3.569   5.569   6.606
 4374TIP3    H134681   3.490   5.535   6.564
 4374TIP3    H234682   3.615   5.490   6.635
 4375TIP3   OH234683   6.356   5.023   0.621
 4375TIP3    H134684   6.301   5.074   0.680
 4375TIP3    H234685   6.440   5.016   0.667
 4376TIP3   OH234686   3.756   6.310   1.168
 4376TIP3    H134687   3.786   6.398   1.148
 4376TIP3    H234688   3.684   6.295   1.107
 4377TIP3   OH234689   3.229   1.393   6.614
 4377TIP3    H134690   3.238   1.418   6.522
 4377TIP3    H234691   3.198   1.302   6.611
 4378TIP3   OH234692   6.715   4.719   2.200
 4378TIP3    H134693   6.745   4.758   2.282
 4378TIP3    H234694   6.795   4.711   2.147
 4379TIP3   OH234695   5.920   6.247   0.922
 4379TIP3    H134696   5.874   6.205   0.995
 4379TIP3    H234697   6.008   6.263   0.956
 4380TIP3   OH234698   5.900   5.687   0.742
 4380TIP3    H134699   5.830   5.627   0.719
 4380TIP3    H234700   5.955   5.639   0.804
 4381TIP3   OH234701   4.709   1.002   0.824
 4381TIP3    H134702   4.777   0.952   0.780
 4381TIP3    H234703   4.750   1.031   0.906
 4382TIP3   OH234704   4.452   0.902   1.686
 4382TIP3    H134705   4.524   0.948   1.728
 4382TIP3    H234706   4.482   0.886   1.597
 4383TIP3   OH234707   1.390   2.623   6.683
 4383TIP3    H134708   1.315   2.564   6.689
 4383TIP3    H234709   1.445   2.586   6.614
 4384TIP3   OH234710   1.771   0.344   8.669
 4384TIP3    H134711   1.856   0.381   8.644
 4384TIP3    H234712   1.737   0.404   0.009
 4385TIP3   OH234713   3.699   0.776   6.526
 4385TIP3    H134714   3.710   0.871   6.538
 4385TIP3    H234715   3.781   0.747   6.486
 4386TIP3   OH234716   1.446   3.650   8.366
 4386TIP3    H134717   1.535   3.648   8.332
 4386TIP3    H234718   1.427   3.743   8.378
 4387TIP3   OH234719   5.416   0.974   7.398
 4387TIP3    H134720   5.385   0.890   7.363
 4387TIP3    H234721   5.440   0.954   7.489
 4388TIP3   OH234722   0.816   3.245   0.206
 4388TIP3    H134723   0.795   3.210   0.120
 4388TIP3    H234724   0.760   3.195   0.266
 4389TIP3   OH234725   2.869   0.306   0.574
 4389TIP3    H134726   2.892   0.278   0.663
 4389TIP3    H234727   2.798   0.369   0.586
 4390TIP3   OH234728   5.473   2.324   7.875
 4390TIP3    H134729   5.399   2.265   7.861
 4390TIP3    H234730   5.459   2.361   7.962
 4391TIP3   OH234731   6.039   0.192   0.585
 4391TIP3    H134732   6.033   0.287   0.596
 4391TIP3    H234733   6.026   0.157   0.674
 4392TIP3   OH234734   6.560   1.644   0.445
 4392TIP3    H134735   6.563   1.556   0.408
 4392TIP3    H234736   6.488   1.641   0.508
 4393TIP3   OH234737   0.382   0.786   1.770
 4393TIP3    H134738   0.394   0.745   1.685
 4393TIP3    H234739   0.350   0.716   1.827
 4394TIP3   OH234740   4.138   1.032   7.524
 4394TIP3    H134741   4.151   1.041   7.619
 4394TIP3    H234742   4.056   0.985   7.515
 4395TIP3   OH234743   2.898   0.635   8.071
 4395TIP3    H134744   2.943   0.715   8.043
 4395TIP3    H234745   2.805   0.654   8.059
 4396TIP3   OH234746   2.270   4.605   8.493
 4396TIP3    H134747   2.363   4.592   8.473
 4396TIP3    H234748   2.226   4.585   8.410
 4397TIP3   OH234749   3.205   6.116   7.496
 4397TIP3    H134750   3.299   6.105   7.480
 4397TIP3    H234751   3.199   6.132   7.590
 4398TIP3   OH234752   0.512   6.236   0.408
 4398TIP3    H134753   0.521   6.316   0.460
 4398TIP3    H234754   0.590   6.185   0.429
 4399TIP3   OH234755   1.985   5.830   8.079
 4399TIP3    H134756   1.950   5.828   7.990
 4399TIP3    H234757   2.061   5.887   8.073
 4400TIP3   OH234758   5.927   4.534   7.319
 4400TIP3    H134759   6.017   4.565   7.317
 4400TIP3    H234760   5.914   4.501   7.408
 4401TIP3   OH234761   5.936   1.762   8.099
 4401TIP3    H134762   5.879   1.770   8.023
 4401TIP3    H234763   6.017   1.724   8.064
 4402TIP3   OH234764   2.732   6.486   1.311
 4402TIP3    H134765   2.748   6.469   1.218
 4402TIP3    H234766   2.783   6.419   1.356
 4403TIP3   OH234767   1.417   4.056   1.436
 4403TIP3    H134768   1.362   4.061   1.358
 4403TIP3    H234769   1.360   4.021   1.504
 4404TIP3   OH234770   5.482   0.757   1.639
 4404TIP3    H134771   5.482   0.802   1.555
 4404TIP3    H234772   5.402   0.704   1.638
 4405TIP3   OH234773   4.001   3.531   0.598
 4405TIP3    H134774   4.017   3.497   0.687
 4405TIP3    H234775   4.027   3.459   0.540
 4406TIP3   OH234776   5.371   6.756   1.441
 4406TIP3    H134777   5.386   6.662   1.432
 4406TIP3    H234778   5.412   6.794   1.364
 4407TIP3   OH234779   3.480   0.524   0.879
 4407TIP3    H134780   3.576   0.530   0.880
 4407TIP3    H234781   3.452   0.589   0.815
 4408TIP3   OH234782   6.099   3.685   1.110
 4408TIP3    H134783   6.124   3.631   1.035
 4408TIP3    H234784   6.071   3.768   1.072
 4409TIP3   OH234785   1.450   6.748   6.652
 4409TIP3    H134786   1.460   6.686   6.581
 4409TIP3    H234787   1.535   6.792   6.659
 4410TIP3   OH234788   5.334   3.226   1.622
 4410TIP3    H134789   5.389   3.305   1.614
 4410TIP3    H234790   5.282   3.241   1.701
 4411TIP3   OH234791   2.214   2.408   8.233
 4411TIP3    H134792   2.267   2.363   8.168
 4411TIP3    H234793   2.140   2.443   8.183
 4412TIP3   OH234794   5.352   1.907   8.126
 4412TIP3    H134795   5.415   1.838   8.147
 4412TIP3    H234796   5.266   1.865   8.137
 4413TIP3   OH234797   6.101   4.231   8.377
 4413TIP3    H134798   6.168   4.288   8.413
 4413TIP3    H234799   6.102   4.248   8.283
 4414TIP3   OH234800   4.009   3.838   0.919
 4414TIP3    H134801   4.065   3.824   0.996
 4414TIP3    H234802   3.996   3.933   0.915
 4415TIP3   OH234803   5.125   1.542   7.865
 4415TIP3    H134804   5.048   1.492   7.837
 4415TIP3    H234805   5.151   1.592   7.788
 4416TIP3   OH234806   5.642   3.503   8.589
 4416TIP3    H134807   5.724   3.528   8.633
 4416TIP3    H234808   5.573   3.533   8.648
 4417TIP3   OH234809   6.528   5.040   8.715
 4417TIP3    H134810   6.608   5.005   8.675
 4417TIP3    H234811   6.509   5.119   8.665
 4418TIP3   OH234812   0.464   0.209   8.138
 4418TIP3    H134813   0.451   0.156   8.216
 4418TIP3    H234814   0.528   0.160   8.086
 4419TIP3   OH234815   5.508   3.790   6.645
 4419TIP3    H134816   5.490   3.882   6.664
 4419TIP3    H234817   5.583   3.791   6.585
 4420TIP3   OH234818   2.996   2.460   1.485
 4420TIP3    H134819   2.952   2.429   1.564
 4420TIP3    H234820   3.055   2.529   1.516
 4421TIP3   OH234821   1.562   0.477   0.139
 4421TIP3    H134822   1.512   0.397   0.121
 4421TIP3    H234823   1.532   0.504   0.226
 4422TIP3   OH234824   4.237   0.891   2.032
 4422TIP3    H134825   4.260   0.803   2.005
 4422TIP3    H234826   4.143   0.888   2.048
 4423TIP3   OH234827   5.958   1.431   6.793
 4423TIP3    H134828   5.983   1.515   6.832
 4423TIP3    H234829   6.006   1.365   6.843
 4424TIP3   OH234830   1.040   4.486   1.971
 4424TIP3    H134831   0.973   4.423   1.998
 4424TIP3    H234832   1.072   4.522   2.054
 4425TIP3   OH234833   4.134   5.138   0.205
 4425TIP3    H134834   4.152   5.135   0.111
 4425TIP3    H234835   4.185   5.065   0.241
 4426TIP3   OH234836   6.675   0.066   6.924
 4426TIP3    H134837   6.621   0.066   6.844
 4426TIP3    H234838   6.758   0.104   6.897
 4427TIP3   OH234839   1.980   1.496   2.278
 4427TIP3    H134840   2.058   1.456   2.239
 4427TIP3    H234841   1.907   1.441   2.248
 4428TIP3   OH234842   3.863   4.013   0.624
 4428TIP3    H134843   3.775   4.048   0.640
 4428TIP3    H234844   3.916   4.050   0.694
 4429TIP3   OH234845   0.031   5.780   8.554
 4429TIP3    H134846   6.853   5.690   8.562
 4429TIP3    H234847   0.122   5.775   8.582
 4430TIP3   OH234848   2.049   4.585   7.919
 4430TIP3    H134849   2.099   4.647   7.865
 4430TIP3    H234850   2.021   4.636   7.995
 4431TIP3   OH234851   5.278   0.631   8.157
 4431TIP3    H134852   5.191   0.592   8.161
 4431TIP3    H234853   5.311   0.625   8.246
 4432TIP3   OH234854   3.782   1.066   7.316
 4432TIP3    H134855   3.697   1.109   7.318
 4432TIP3    H234856   3.803   1.049   7.407
 4433TIP3   OH234857   6.561   1.132   0.011
 4433TIP3    H134858   6.489   1.186   0.044
 4433TIP3    H234859   6.523   1.081   8.666
 4434TIP3   OH234860   3.852   1.000   7.567
 4434TIP3    H134861   3.823   0.909   7.567
 4434TIP3    H234862   3.835   1.031   7.656
 4435TIP3   OH234863   4.769   4.789   8.712
 4435TIP3    H134864   4.678   4.783   8.683
 4435TIP3    H234865   4.791   4.700   0.014
 4436TIP3   OH234866   5.516   2.654   1.910
 4436TIP3    H134867   5.518   2.596   1.986
 4436TIP3    H234868   5.448   2.618   1.854
 4437TIP3   OH234869   1.927   3.532   7.693
 4437TIP3    H134870   1.896   3.444   7.716
 4437TIP3    H234871   1.992   3.517   7.625
 4438TIP3   OH234872   4.996   3.281   0.907
 4438TIP3    H134873   5.062   3.216   0.882
 4438TIP3    H234874   5.006   3.352   0.843
 4439TIP3   OH234875   5.351   2.314   0.670
 4439TIP3    H134876   5.366   2.377   0.600
 4439TIP3    H234877   5.438   2.286   0.697
 4440TIP3   OH234878   1.134   0.615   6.365
 4440TIP3    H134879   1.049   0.585   6.396
 4440TIP3    H234880   1.196   0.581   6.430
 4441TIP3   OH234881   2.355   4.953   2.432
 4441TIP3    H134882   2.370   5.047   2.431
 4441TIP3    H234883   2.441   4.915   2.414
 4442TIP3   OH234884   5.542   1.117   7.159
 4442TIP3    H134885   5.636   1.106   7.146
 4442TIP3    H234886   5.518   1.048   7.221
 4443TIP3   OH234887   6.254   4.252   0.230
 4443TIP3    H134888   6.346   4.227   0.243
 4443TIP3    H234889   6.237   4.318   0.297
 4444TIP3   OH234890   5.230   2.392   1.095
 4444TIP3    H134891   5.321   2.364   1.083
 4444TIP3    H234892   5.235   2.467   1.154
 4445TIP3   OH234893   1.478   1.343   8.424
 4445TIP3    H134894   1.431   1.423   8.449
 4445TIP3    H234895   1.473   1.288   8.502
 4446TIP3   OH234896   0.891   2.431   7.232
 4446TIP3    H134897   0.910   2.408   7.140
 4446TIP3    H234898   0.800   2.406   7.244
 4447TIP3   OH234899   5.665   6.185   0.651
 4447TIP3    H134900   5.628   6.132   0.721
 4447TIP3    H234901   5.733   6.130   0.613
 4448TIP3   OH234902   1.350   2.808   8.264
 4448TIP3    H134903   1.433   2.834   8.223
 4448TIP3    H234904   1.304   2.757   8.197
 4449TIP3   OH234905   4.262   1.794   1.336
 4449TIP3    H134906   4.168   1.779   1.329
 4449TIP3    H234907   4.281   1.785   1.429
 4450TIP3   OH234908   2.953   3.322   0.755
 4450TIP3    H134909   2.888   3.389   0.736
 4450TIP3    H234910   3.030   3.371   0.784
 4451TIP3   OH234911   4.167   5.642   0.573
 4451TIP3    H134912   4.199   5.554   0.552
 4451TIP3    H234913   4.155   5.641   0.667
 4452TIP3   OH234914   2.918   6.818   0.433
 4452TIP3    H134915   2.846   0.023   0.453
 4452TIP3    H234916   2.913   6.805   0.339
 4453TIP3   OH234917   1.196   4.255   6.787
 4453TIP3    H134918   1.151   4.332   6.822
 4453TIP3    H234919   1.146   4.231   6.709
 4454TIP3   OH234920   4.225   2.462   0.691
 4454TIP3    H134921   4.143   2.415   0.677
 4454TIP3    H234922   4.277   2.403   0.745
 4455TIP3   OH234923   5.919   5.506   2.488
 4455TIP3    H134924   5.949   5.415   2.490
 4455TIP3    H234925   5.833   5.503   2.446
 4456TIP3   OH234926   4.225   3.353   7.906
 4456TIP3    H134927   4.269   3.405   7.840
 4456TIP3    H234928   4.293   3.331   7.970
 4457TIP3   OH234929   1.353   4.390   0.350
 4457TIP3    H134930   1.323   4.481   0.354
 4457TIP3    H234931   1.435   4.394   0.300
 4458TIP3   OH234932   4.026   3.669   7.674
 4458TIP3    H134933   3.992   3.735   7.613
 4458TIP3    H234934   4.101   3.711   7.715
 4459TIP3   OH234935   5.530   4.066   1.054
 4459TIP3    H134936   5.495   4.026   0.975
 4459TIP3    H234937   5.542   3.993   1.115
 4460TIP3   OH234938   3.971   4.572   1.109
 4460TIP3    H134939   3.997   4.565   1.017
 4460TIP3    H234940   3.885   4.613   1.106
 4461TIP3   OH234941   5.977   6.393   7.276
 4461TIP3    H134942   5.921   6.398   7.198
 4461TIP3    H234943   5.960   6.306   7.312
 4462TIP3   OH234944   5.416   1.031   0.684
 4462TIP3    H134945   5.483   0.971   0.717
 4462TIP3    H234946   5.373   0.983   0.614
 4463TIP3   OH234947   0.828   0.679   0.662
 4463TIP3    H134948   0.747   0.679   0.712
 4463TIP3    H234949   0.875   0.757   0.693
 4464TIP3   OH234950   4.265   5.993   8.464
 4464TIP3    H134951   4.253   5.938   8.542
 4464TIP3    H234952   4.311   5.937   8.402
 4465TIP3   OH234953   1.696   4.062   0.729
 4465TIP3    H134954   1.779   4.074   0.683
 4465TIP3    H234955   1.714   3.994   0.794
 4466TIP3   OH234956   3.494   4.439   2.080
 4466TIP3    H134957   3.541   4.365   2.042
 4466TIP3    H234958   3.403   4.408   2.086
 4467TIP3   OH234959   6.688   1.512   1.580
 4467TIP3    H134960   6.654   1.433   1.537
 4467TIP3    H234961   6.629   1.582   1.553
 4468TIP3   OH234962   5.658   3.982   7.690
 4468TIP3    H134963   5.709   4.008   7.767
 4468TIP3    H234964   5.584   4.044   7.689
 4469TIP3   OH234965   6.812   2.827   8.330
 4469TIP3    H134966   6.790   2.895   8.394
 4469TIP3    H234967   0.048   2.804   8.350
 4470TIP3   OH234968   1.263   6.342   8.304
 4470TIP3    H134969   1.271   6.435   8.283
 4470TIP3    H234970   1.330   6.326   8.371
 4471TIP3   OH234971   1.165   0.863   1.833
 4471TIP3    H134972   1.151   0.903   1.919
 4471TIP3    H234973   1.160   0.935   1.772
 4472TIP3   OH234974   5.714   6.490   0.571
 4472TIP3    H134975   5.646   6.554   0.555
 4472TIP3    H234976   5.669   6.416   0.613
 4473TIP3   OH234977   4.222   1.127   7.804
 4473TIP3    H134978   4.147   1.183   7.787
 4473TIP3    H234979   4.283   1.183   7.853
 4474TIP3   OH234980   1.835   0.713   6.715
 4474TIP3    H134981   1.866   0.703   6.805
 4474TIP3    H234982   1.871   0.638   6.668
 4475TIP3   OH234983   2.292   5.820   7.493
 4475TIP3    H134984   2.338   5.751   7.540
 4475TIP3    H234985   2.217   5.841   7.548
 4476TIP3   OH234986   5.335   3.552   8.273
 4476TIP3    H134987   5.416   3.579   8.315
 4476TIP3    H234988   5.327   3.609   8.196
 4477TIP3   OH234989   6.450   2.477   0.927
 4477TIP3    H134990   6.475   2.418   0.856
 4477TIP3    H234991   6.369   2.517   0.898
 4478TIP3   OH234992   0.853   3.331   0.785
 4478TIP3    H134993   0.776   3.367   0.741
 4478TIP3    H234994   0.833   3.238   0.796
 4479TIP3   OH234995   2.037   5.184   1.836
 4479TIP3    H134996   2.048   5.242   1.911
 4479TIP3    H234997   2.080   5.102   1.863
 4480TIP3   OH234998   1.536   0.768   0.809
 4480TIP3    H134999   1.598   0.832   0.773
 4480TIP3    H235000   1.495   0.728   0.732
 4481TIP3   OH235001   6.756   4.587   0.735
 4481TIP3    H135002   6.851   4.584   0.737
 4481TIP3    H235003   6.734   4.609   0.644
 4482TIP3   OH235004   4.269   1.606   8.197
 4482TIP3    H135005   4.187   1.597   8.149
 4482TIP3    H235006   4.290   1.699   8.190
 4483TIP3   OH235007   4.879   3.052   6.414
 4483TIP3    H135008   4.877   3.138   6.455
 4483TIP3    H235009   4.931   3.065   6.334
 4484TIP3   OH235010   5.146   4.053   1.637
 4484TIP3    H135011   5.070   4.053   1.579
 4484TIP3    H235012   5.128   3.982   1.699
 4485TIP3   OH235013   2.668   6.362   1.951
 4485TIP3    H135014   2.711   6.443   1.925
 4485TIP3    H235015   2.675   6.305   1.875
 4486TIP3   OH235016   4.101   0.604   7.653
 4486TIP3    H135017   4.029   0.563   7.605
 4486TIP3    H235018   4.059   0.671   7.707
 4487TIP3   OH235019   5.415   0.174   1.991
 4487TIP3    H135020   5.342   0.115   1.973
 4487TIP3    H235021   5.489   0.115   2.011
 4488TIP3   OH235022   1.869   0.378   8.344
 4488TIP3    H135023   1.819   0.385   8.426
 4488TIP3    H235024   1.952   0.421   8.363
 4489TIP3   OH235025   5.542   4.764   8.112
 4489TIP3    H135026   5.502   4.850   8.120
 4489TIP3    H235027   5.523   4.720   8.195
 4490TIP3   OH235028   3.361   2.751   0.986
 4490TIP3    H135029   3.325   2.662   0.980
 4490TIP3    H235030   3.404   2.754   1.071
 4491TIP3   OH235031   2.037   4.701   1.580
 4491TIP3    H135032   2.093   4.630   1.551
 4491TIP3    H235033   2.029   4.688   1.674
 4492TIP3   OH235034   2.573   2.971   0.572
 4492TIP3    H135035   2.652   3.005   0.531
 4492TIP3    H235036   2.505   2.977   0.505
 4493TIP3   OH235037   5.807   2.404   6.614
 4493TIP3    H135038   5.842   2.465   6.679
 4493TIP3    H235039   5.743   2.456   6.564
 4494TIP3   OH235040   2.467   6.663   1.747
 4494TIP3    H135041   2.536   6.728   1.732
 4494TIP3    H235042   2.495   6.587   1.697
 4495TIP3   OH235043   5.350   4.810   7.344
 4495TIP3    H135044   5.371   4.855   7.426
 4495TIP3    H235045   5.329   4.721   7.369
 4496TIP3   OH235046   5.677   5.859   7.713
 4496TIP3    H135047   5.646   5.949   7.706
 4496TIP3    H235048   5.602   5.810   7.747
 4497TIP3   OH235049   0.198   0.159   0.691
 4497TIP3    H135050   0.246   0.097   0.746
 4497TIP3    H235051   0.196   0.240   0.742
 4498TIP3   OH235052   5.737   3.829   8.555
 4498TIP3    H135053   5.800   3.881   8.606
 4498TIP3    H235054   5.783   3.810   8.473
 4499TIP3   OH235055   2.230   0.808   8.560
 4499TIP3    H135056   2.158   0.870   8.566
 4499TIP3    H235057   2.212   0.757   8.481
 4500TIP3   OH235058   3.265   4.473   7.944
 4500TIP3    H135059   3.309   4.450   7.862
 4500TIP3    H235060   3.180   4.429   7.939
 4501TIP3   OH235061   1.929   4.735   1.074
 4501TIP3    H135062   1.869   4.783   1.131
 4501TIP3    H235063   1.961   4.663   1.129
 4502TIP3   OH235064   3.716   3.622   6.377
 4502TIP3    H135065   3.751   3.608   6.465
 4502TIP3    H235066   3.755   3.553   6.323
 4503TIP3   OH235067   5.382   2.081   2.003
 4503TIP3    H135068   5.293   2.115   1.999
 4503TIP3    H235069   5.431   2.136   1.942
 4504TIP3   OH235070   4.898   5.915   1.454
 4504TIP3    H135071   4.948   5.892   1.533
 4504TIP3    H235072   4.852   5.835   1.430
 4505TIP3   OH235073   3.247   6.483   7.238
 4505TIP3    H135074   3.241   6.387   7.232
 4505TIP3    H235075   3.192   6.506   7.313
 4506TIP3   OH235076   0.357   0.130   6.920
 4506TIP3    H135077   0.338   0.198   6.855
 4506TIP3    H235078   0.363   0.049   6.869
 4507TIP3   OH235079   5.515   6.109   7.169
 4507TIP3    H135080   5.580   6.140   7.106
 4507TIP3    H235081   5.564   6.051   7.228
 4508TIP3   OH235082   4.010   6.689   1.098
 4508TIP3    H135083   4.093   6.643   1.087
 4508TIP3    H235084   4.024   6.745   1.175
 4509TIP3   OH235085   4.668   1.687   6.977
 4509TIP3    H135086   4.623   1.698   6.893
 4509TIP3    H235087   4.631   1.756   7.032
 4510TIP3   OH235088   3.959   0.233   6.219
 4510TIP3    H135089   3.944   0.318   6.261
 4510TIP3    H235090   4.052   0.215   6.236
 4511TIP3   OH235091   1.193   0.524   0.572
 4511TIP3    H135092   1.131   0.503   0.642
 4511TIP3    H235093   1.278   0.523   0.614
 4512TIP3   OH235094   2.597   0.895   0.713
 4512TIP3    H135095   2.538   0.822   0.732
 4512TIP3    H235096   2.627   0.879   0.624
 4513TIP3   OH235097   5.909   4.844   1.133
 4513TIP3    H135098   5.843   4.895   1.180
 4513TIP3    H235099   5.953   4.794   1.202
 4514TIP3   OH235100   5.341   5.554   1.817
 4514TIP3    H135101   5.385   5.481   1.860
 4514TIP3    H235102   5.249   5.528   1.814
 4515TIP3   OH235103   2.857   0.713   0.852
 4515TIP3    H135104   2.944   0.687   0.884
 4515TIP3    H235105   2.868   0.720   0.757
 4516TIP3   OH235106   1.694   5.942   2.045
 4516TIP3    H135107   1.767   6.000   2.069
 4516TIP3    H235108   1.675   5.893   2.125
 4517TIP3   OH235109   0.400   1.158   7.208
 4517TIP3    H135110   0.459   1.199   7.271
 4517TIP3    H235111   0.450   1.152   7.127
 4518TIP3   OH235112   2.308   4.285   0.648
 4518TIP3    H135113   2.248   4.325   0.586
 4518TIP3    H235114   2.350   4.215   0.598
 4519TIP3   OH235115   1.132   4.984   1.625
 4519TIP3    H135116   1.219   5.023   1.620
 4519TIP3    H235117   1.109   4.964   1.534
 4520TIP3   OH235118   1.337   5.614   0.921
 4520TIP3    H135119   1.265   5.565   0.880
 4520TIP3    H235120   1.410   5.553   0.921
 4521TIP3   OH235121   0.090   6.572   0.453
 4521TIP3    H135122   0.063   6.481   0.467
 4521TIP3    H235123   0.180   6.566   0.423
 4522TIP3   OH235124   0.039   4.125   7.237
 4522TIP3    H135125   0.118   4.111   7.185
 4522TIP3    H235126   0.071   4.138   7.326
 4523TIP3   OH235127   6.141   5.512   6.728
 4523TIP3    H135128   6.101   5.437   6.773
 4523TIP3    H235129   6.092   5.587   6.759
 4524TIP3   OH235130   4.950   4.608   1.174
 4524TIP3    H135131   5.031   4.577   1.132
 4524TIP3    H235132   4.884   4.544   1.148
 4525TIP3   OH235133   0.301   4.099   0.944
 4525TIP3    H135134   0.222   4.080   0.995
 4525TIP3    H235135   0.288   4.189   0.913
 4526TIP3   OH235136   5.499   0.791   8.705
 4526TIP3    H135137   5.409   0.807   8.680
 4526TIP3    H235138   5.538   0.878   8.714
 4527TIP3   OH235139   6.489   2.093   8.441
 4527TIP3    H135140   6.493   2.187   8.425
 4527TIP3    H235141   6.535   2.054   8.366
 4528TIP3   OH235142   5.809   0.342   0.270
 4528TIP3    H135143   5.737   0.389   0.228
 4528TIP3    H235144   5.827   0.392   0.350
 4529TIP3   OH235145   3.002   3.947   8.537
 4529TIP3    H135146   3.043   3.864   8.557
 4529TIP3    H235147   2.959   3.933   8.452
 4530TIP3   OH235148   6.423   4.723   1.161
 4530TIP3    H135149   6.363   4.650   1.177
 4530TIP3    H235150   6.493   4.711   1.225
 4531TIP3   OH235151   5.159   5.362   0.148
 4531TIP3    H135152   5.208   5.307   0.208
 4531TIP3    H235153   5.076   5.316   0.134
 4532TIP3   OH235154   3.757   3.821   7.549
 4532TIP3    H135155   3.691   3.871   7.502
 4532TIP3    H235156   3.710   3.782   7.623
 4533TIP3   OH235157   1.407   0.430   8.102
 4533TIP3    H135158   1.472   0.426   8.173
 4533TIP3    H235159   1.395   0.339   8.075
 4534TIP3   OH235160   2.364   5.315   1.392
 4534TIP3    H135161   2.303   5.251   1.356
 4534TIP3    H235162   2.376   5.287   1.483
 4535TIP3   OH235163   4.801   6.811   7.537
 4535TIP3    H135164   4.888   6.799   7.499
 4535TIP3    H235165   4.813   6.796   7.631
 4536TIP3   OH235166   2.260   3.572   6.568
 4536TIP3    H135167   2.317   3.510   6.524
 4536TIP3    H235168   2.295   3.658   6.545
 4537TIP3   OH235169   5.263   3.290   0.851
 4537TIP3    H135170   5.234   3.302   0.760
 4537TIP3    H235171   5.355   3.264   0.843
 4538TIP3   OH235172   0.822   1.035   6.794
 4538TIP3    H135173   0.914   1.036   6.768
 4538TIP3    H235174   0.793   1.125   6.783
 4539TIP3   OH235175   4.683   0.863   8.415
 4539TIP3    H135176   4.610   0.822   8.371
 4539TIP3    H235177   4.663   0.957   8.413
 4540TIP3   OH235178   0.619   2.790   2.335
 4540TIP3    H135179   0.697   2.846   2.339
 4540TIP3    H235180   0.546   2.851   2.329
 4541TIP3   OH235181   1.590   6.180   0.607
 4541TIP3    H135182   1.682   6.205   0.593
 4541TIP3    H235183   1.575   6.107   0.547
 4542TIP3   OH235184   4.270   3.258   8.286
 4542TIP3    H135185   4.220   3.308   8.350
 4542TIP3    H235186   4.258   3.167   8.312
 4543TIP3   OH235187   3.303   3.406   1.662
 4543TIP3    H135188   3.311   3.360   1.746
 4543TIP3    H235189   3.302   3.499   1.685
 4544TIP3   OH235190   2.758   0.270   2.245
 4544TIP3    H135191   2.757   0.366   2.245
 4544TIP3    H235192   2.831   0.247   2.188
 4545TIP3   OH235193   6.379   0.659   7.626
 4545TIP3    H135194   6.412   0.728   7.685
 4545TIP3    H235195   6.420   0.579   7.658
 4546TIP3   OH235196   2.259   3.730   1.492
 4546TIP3    H135197   2.325   3.784   1.449
 4546TIP3    H235198   2.275   3.743   1.586
 4547TIP3   OH235199   1.302   6.372   7.877
 4547TIP3    H135200   1.290   6.315   7.953
 4547TIP3    H235201   1.361   6.323   7.820
 4548TIP3   OH235202   1.527   5.417   0.848
 4548TIP3    H135203   1.585   5.341   0.854
 4548TIP3    H235204   1.585   5.492   0.855
 4549TIP3   OH235205   5.459   6.504   0.336
 4549TIP3    H135206   5.546   6.498   0.296
 4549TIP3    H235207   5.448   6.419   0.380
 4550TIP3   OH235208   6.447   4.901   1.613
 4550TIP3    H135209   6.472   4.967   1.677
 4550TIP3    H235210   6.507   4.916   1.539
 4551TIP3   OH235211   2.965   4.620   7.531
 4551TIP3    H135212   2.913   4.606   7.452
 4551TIP3    H235213   3.025   4.546   7.533
 4552TIP3   OH235214   2.397   2.646   7.624
 4552TIP3    H135215   2.466   2.653   7.689
 4552TIP3    H235216   2.344   2.572   7.653
 4553TIP3   OH235217   3.898   0.610   1.110
 4553TIP3    H135218   3.826   0.659   1.150
 4553TIP3    H235219   3.977   0.648   1.148
 4554TIP3   OH235220   5.435   1.524   0.725
 4554TIP3    H135221   5.359   1.496   0.775
 4554TIP3    H235222   5.454   1.451   0.666
 4555TIP3   OH235223   3.100   2.644   7.855
 4555TIP3    H135224   3.065   2.730   7.879
 4555TIP3    H235225   3.173   2.630   7.914
 4556TIP3   OH235226   4.574   0.554   6.554
 4556TIP3    H135227   4.630   0.616   6.602
 4556TIP3    H235228   4.601   0.564   6.463
 4557TIP3   OH235229   2.791   2.747   7.612
 4557TIP3    H135230   2.788   2.813   7.543
 4557TIP3    H235231   2.871   2.766   7.661
 4558TIP3   OH235232   2.709   0.434   0.905
 4558TIP3    H135233   2.774   0.405   0.969
 4558TIP3    H235234   2.668   0.511   0.946
 4559TIP3   OH235235   3.886   6.299   0.532
 4559TIP3    H135236   3.956   6.336   0.477
 4559TIP3    H235237   3.909   6.206   0.540
 4560TIP3   OH235238   0.022   2.286   7.177
 4560TIP3    H135239   0.027   2.285   7.081
 4560TIP3    H235240   0.096   2.341   7.204
 4561TIP3   OH235241   3.953   4.276   8.328
 4561TIP3    H135242   3.971   4.275   8.422
 4561TIP3    H235243   4.019   4.218   8.290
 4562TIP3   OH235244   0.454   0.959   7.491
 4562TIP3    H135245   0.399   0.963   7.413
 4562TIP3    H235246   0.477   0.867   7.500
 4563TIP3   OH235247   4.778   5.031   6.815
 4563TIP3    H135248   4.855   4.977   6.834
 4563TIP3    H235249   4.764   5.020   6.720
 4564TIP3   OH235250   5.681   1.611   0.834
 4564TIP3    H135251   5.609   1.578   0.780
 4564TIP3    H235252   5.720   1.533   0.874
 4565TIP3   OH235253   0.431   0.564   0.710
 4565TIP3    H135254   0.498   0.587   0.646
 4565TIP3    H235255   0.475   0.567   0.794
 4566TIP3   OH235256   2.466   5.787   6.137
 4566TIP3    H135257   2.383   5.787   6.184
 4566TIP3    H235258   2.484   5.879   6.119
 4567TIP3   OH235259   5.348   1.358   1.241
 4567TIP3    H135260   5.289   1.430   1.217
 4567TIP3    H235261   5.317   1.330   1.327
 4568TIP3   OH235262   0.856   3.581   0.487
 4568TIP3    H135263   0.883   3.624   0.406
 4568TIP3    H235264   0.891   3.492   0.479
 4569TIP3   OH235265   5.737   1.472   7.278
 4569TIP3    H135266   5.832   1.467   7.289
 4569TIP3    H235267   5.704   1.391   7.318
 4570TIP3   OH235268   5.889   0.465   1.009
 4570TIP3    H135269   5.887   0.539   0.949
 4570TIP3    H235270   5.809   0.472   1.061
 4571TIP3   OH235271   2.940   3.602   6.147
 4571TIP3    H135272   3.018   3.550   6.129
 4571TIP3    H235273   2.939   3.611   6.242
 4572TIP3   OH235274   2.508   2.665   0.387
 4572TIP3    H135275   2.551   2.692   0.306
 4572TIP3    H235276   2.576   2.619   0.436
 4573TIP3   OH235277   4.585   0.690   1.763
 4573TIP3    H135278   4.529   0.767   1.769
 4573TIP3    H235279   4.594   0.673   1.669
 4574TIP3   OH235280   0.155   4.971   1.864
 4574TIP3    H135281   0.228   4.910   1.875
 4574TIP3    H235282   0.077   4.919   1.884
 4575TIP3   OH235283   2.946   4.161   0.038
 4575TIP3    H135284   2.935   4.221   8.691
 4575TIP3    H235285   2.918   4.076   0.004
 4576TIP3   OH235286   0.967   3.151   1.823
 4576TIP3    H135287   0.883   3.197   1.835
 4576TIP3    H235288   0.989   3.165   1.731
 4577TIP3   OH235289   6.579   0.366   8.027
 4577TIP3    H135290   6.530   0.290   8.056
 4577TIP3    H235291   6.570   0.430   8.098
 4578TIP3   OH235292   1.731   6.435   8.400
 4578TIP3    H135293   1.692   6.358   8.358
 4578TIP3    H235294   1.821   6.437   8.367
 4579TIP3   OH235295   6.137   3.365   1.256
 4579TIP3    H135296   6.095   3.329   1.178
 4579TIP3    H235297   6.114   3.302   1.326
 4580TIP3   OH235298   2.311   5.542   6.378
 4580TIP3    H135299   2.380   5.480   6.398
 4580TIP3    H235300   2.234   5.488   6.361
 4581TIP3   OH235301   2.207   5.947   1.461
 4581TIP3    H135302   2.119   5.979   1.478
 4581TIP3    H235303   2.208   5.858   1.496
 4582TIP3   OH235304   1.148   2.447   7.011
 4582TIP3    H135305   1.067   2.421   6.968
 4582TIP3    H235306   1.166   2.377   7.073
 4583TIP3   OH235307   0.582   3.659   8.570
 4583TIP3    H135308   0.669   3.618   8.567
 4583TIP3    H235309   0.584   3.713   8.649
 4584TIP3   OH235310   4.309   6.591   8.177
 4584TIP3    H135311   4.310   6.644   8.257
 4584TIP3    H235312   4.264   6.511   8.202
 4585TIP3   OH235313   4.719   2.635   0.487
 4585TIP3    H135314   4.715   2.553   0.535
 4585TIP3    H235315   4.636   2.640   0.440
 4586TIP3   OH235316   0.244   5.865   2.416
 4586TIP3    H135317   0.320   5.808   2.424
 4586TIP3    H235318   0.268   5.927   2.347
 4587TIP3   OH235319   5.572   6.403   7.517
 4587TIP3    H135320   5.610   6.462   7.452
 4587TIP3    H235321   5.485   6.384   7.483
 4588TIP3   OH235322   5.595   4.722   1.077
 4588TIP3    H135323   5.683   4.696   1.051
 4588TIP3    H235324   5.595   4.818   1.072
 4589TIP3   OH235325   6.800   1.268   1.015
 4589TIP3    H135326   0.001   1.344   1.033
 4589TIP3    H235327   6.756   1.288   0.933
 4590TIP3   OH235328   6.329   3.929   0.140
 4590TIP3    H135329   6.414   3.914   0.099
 4590TIP3    H235330   6.275   3.968   0.070
 4591TIP3   OH235331   6.365   3.910   7.891
 4591TIP3    H135332   6.438   3.889   7.834
 4591TIP3    H235333   6.297   3.942   7.832
 4592TIP3   OH235334   0.666   1.245   7.786
 4592TIP3    H135335   0.671   1.317   7.849
 4592TIP3    H235336   0.595   1.270   7.727
 4593TIP3   OH235337   0.920   3.668   7.732
 4593TIP3    H135338   0.840   3.623   7.757
 4593TIP3    H235339   0.892   3.739   7.675
 4594TIP3   OH235340   0.003   3.019   0.098
 4594TIP3    H135341   6.842   2.940   0.149
 4594TIP3    H235342   0.086   3.054   0.130
 4595TIP3   OH235343   3.764   5.548   1.926
 4595TIP3    H135344   3.743   5.466   1.882
 4595TIP3    H235345   3.859   5.553   1.924
 4596TIP3   OH235346   2.065   2.124   1.577
 4596TIP3    H135347   2.031   2.038   1.602
 4596TIP3    H235348   2.110   2.110   1.494
 4597TIP3   OH235349   2.039   4.045   7.814
 4597TIP3    H135350   2.075   4.106   7.879
 4597TIP3    H235351   2.069   4.079   7.730
 4598TIP3   OH235352   1.877   4.394   7.423
 4598TIP3    H135353   1.956   4.354   7.387
 4598TIP3    H235354   1.909   4.461   7.484
 4599TIP3   OH235355   0.736   0.186   6.579
 4599TIP3    H135356   0.716   0.279   6.573
 4599TIP3    H235357   0.823   0.182   6.620
 4600TIP3   OH235358   6.802   0.826   7.204
 4600TIP3    H135359   6.722   0.863   7.168
 4600TIP3    H235360   6.836   0.770   7.135
 4601TIP3   OH235361   0.691   0.232   1.318
 4601TIP3    H135362   0.687   0.326   1.333
 4601TIP3    H235363   0.600   0.206   1.301
 4602TIP3   OH235364   2.060   4.924   2.362
 4602TIP3    H135365   2.151   4.923   2.393
 4602TIP3    H235366   2.066   4.929   2.267
 4603TIP3   OH235367   4.826   2.110   6.279
 4603TIP3    H135368   4.853   2.185   6.227
 4603TIP3    H235369   4.903   2.053   6.282
 4604TIP3   OH235370   4.044   1.098   8.027
 4604TIP3    H135371   4.116   1.127   8.082
 4604TIP3    H235372   4.076   1.107   7.937
 4605TIP3   OH235373   0.567   2.206   0.573
 4605TIP3    H135374   0.536   2.281   0.624
 4605TIP3    H235375   0.646   2.177   0.618
 4606TIP3   OH235376   0.322   0.231   8.685
 4606TIP3    H135377   0.270   0.154   8.706
 4606TIP3    H235378   0.385   0.200   8.620
 4607TIP3   OH235379   1.410   3.570   6.625
 4607TIP3    H135380   1.504   3.555   6.623
 4607TIP3    H235381   1.393   3.608   6.711
 4608TIP3   OH235382   1.836   6.625   1.253
 4608TIP3    H135383   1.782   6.549   1.231
 4608TIP3    H235384   1.881   6.648   1.171
 4609TIP3   OH235385   3.444   6.453   7.691
 4609TIP3    H135386   3.453   6.375   7.746
 4609TIP3    H235387   3.529   6.462   7.647
 4610TIP3   OH235388   4.839   2.041   7.807
 4610TIP3    H135389   4.922   2.024   7.851
 4610TIP3    H235390   4.864   2.069   7.719
 4611TIP3   OH235391   2.986   3.902   0.979
 4611TIP3    H135392   2.922   3.873   1.043
 4611TIP3    H235393   2.940   3.899   0.895
 4612TIP3   OH235394   1.557   0.513   1.844
 4612TIP3    H135395   1.475   0.548   1.880
 4612TIP3    H235396   1.556   0.421   1.867
 4613TIP3   OH235397   0.440   1.012   6.280
 4613TIP3    H135398   0.419   1.005   6.373
 4613TIP3    H235399   0.505   0.944   6.266
 4614TIP3   OH235400   2.244   5.404   7.374
 4614TIP3    H135401   2.247   5.321   7.422
 4614TIP3    H235402   2.152   5.429   7.375
 4615TIP3   OH235403   2.882   2.911   7.207
 4615TIP3    H135404   2.818   2.960   7.156
 4615TIP3    H235405   2.961   2.964   7.203
 4616TIP3   OH235406   3.404   5.591   1.059
 4616TIP3    H135407   3.457   5.660   1.019
 4616TIP3    H235408   3.438   5.510   1.021
 4617TIP3   OH235409   1.291   4.201   8.309
 4617TIP3    H135410   1.263   4.210   8.400
 4617TIP3    H235411   1.381   4.235   8.308
 4618TIP3   OH235412   6.243   5.857   1.527
 4618TIP3    H135413   6.280   5.797   1.592
 4618TIP3    H235414   6.279   5.828   1.444
 4619TIP3   OH235415   5.290   3.156   7.173
 4619TIP3    H135416   5.357   3.142   7.240
 4619TIP3    H235417   5.326   3.226   7.119
 4620TIP3   OH235418   6.106   0.214   2.196
 4620TIP3    H135419   6.019   0.198   2.234
 4620TIP3    H235420   6.166   0.168   2.255
 4621TIP3   OH235421   4.092   1.835   7.759
 4621TIP3    H135422   4.000   1.833   7.732
 4621TIP3    H235423   4.097   1.905   7.824
 4622TIP3   OH235424   6.084   6.398   6.863
 4622TIP3    H135425   6.046   6.351   6.789
 4622TIP3    H235426   6.088   6.489   6.834
 4623TIP3   OH235427   0.359   3.646   1.440
 4623TIP3    H135428   0.441   3.682   1.407
 4623TIP3    H235429   0.310   3.722   1.472
 4624TIP3   OH235430   2.319   0.283   7.723
 4624TIP3    H135431   2.385   0.300   7.790
 4624TIP3    H235432   2.235   0.292   7.770
 4625TIP3   OH235433   2.253   6.424   7.575
 4625TIP3    H135434   2.263   6.343   7.625
 4625TIP3    H235435   2.159   6.440   7.573
 4626TIP3   OH235436   3.935   6.487   7.784
 4626TIP3    H135437   4.009   6.496   7.723
 4626TIP3    H235438   3.884   6.567   7.771
 4627TIP3   OH235439   3.928   6.575   8.423
 4627TIP3    H135440   3.957   6.659   8.459
 4627TIP3    H235441   3.968   6.509   8.480
 4628TIP3   OH235442   1.072   5.942   8.326
 4628TIP3    H135443   1.147   5.903   8.280
 4628TIP3    H235444   0.996   5.897   8.291
 4629TIP3   OH235445   0.714   5.763   0.647
 4629TIP3    H135446   0.710   5.679   0.602
 4629TIP3    H235447   0.652   5.818   0.601
 4630TIP3   OH235448   5.948   0.146   0.132
 4630TIP3    H135449   5.905   0.227   0.162
 4630TIP3    H235450   6.019   0.133   0.195
 4631TIP3   OH235451   3.435   6.245   1.288
 4631TIP3    H135452   3.436   6.281   1.200
 4631TIP3    H235453   3.490   6.167   1.284
 4632TIP3   OH235454   3.468   6.271   8.486
 4632TIP3    H135455   3.391   6.305   8.531
 4632TIP3    H235456   3.496   6.342   8.428
 4633TIP3   OH235457   5.938   3.895   8.166
 4633TIP3    H135458   6.033   3.906   8.157
 4633TIP3    H235459   5.901   3.948   8.095
 4634TIP3   OH235460   0.413   5.928   0.257
 4634TIP3    H135461   0.476   5.909   0.187
 4634TIP3    H235462   0.375   6.012   0.233
 4635TIP3   OH235463   3.604   5.084   0.335
 4635TIP3    H135464   3.606   5.133   0.253
 4635TIP3    H235465   3.678   5.024   0.330
 4636TIP3   OH235466   5.148   0.813   1.213
 4636TIP3    H135467   5.116   0.733   1.254
 4636TIP3    H235468   5.073   0.872   1.212
 4637TIP3   OH235469   4.506   0.004   7.236
 4637TIP3    H135470   4.581   0.043   7.191
 4637TIP3    H235471   4.492   6.775   7.191
 4638TIP3   OH235472   0.494   6.750   8.176
 4638TIP3    H135473   0.589   6.742   8.165
 4638TIP3    H235474   0.458   6.721   8.093
 4639TIP3   OH235475   1.545   4.639   8.352
 4639TIP3    H135476   1.572   4.719   8.308
 4639TIP3    H235477   1.532   4.576   8.282
 4640TIP3   OH235478   1.705   3.543   1.938
 4640TIP3    H135479   1.726   3.631   1.909
 4640TIP3    H235480   1.700   3.550   2.034
 4641TIP3   OH235481   4.856   1.718   7.535
 4641TIP3    H135482   4.937   1.697   7.490
 4641TIP3    H235483   4.805   1.637   7.534
 4642TIP3   OH235484   6.328   5.428   7.269
 4642TIP3    H135485   6.354   5.342   7.301
 4642TIP3    H235486   6.263   5.459   7.331
 4643TIP3   OH235487   1.128   0.107   0.860
 4643TIP3    H135488   1.133   0.162   0.782
 4643TIP3    H235489   1.150   0.166   0.932
 4644TIP3   OH235490   1.024   0.056   7.600
 4644TIP3    H135491   1.038   0.150   7.611
 4644TIP3    H235492   1.110   0.017   7.612
 4645TIP3   OH235493   1.046   5.080   0.395
 4645TIP3    H135494   0.967   5.120   0.359
 4645TIP3    H235495   1.019   4.992   0.420
 4646TIP3   OH235496   6.694   6.799   2.231
 4646TIP3    H135497   6.653   6.733   2.287
 4646TIP3    H235498   6.620   6.840   2.185
 4647TIP3   OH235499   5.856   6.018   1.938
 4647TIP3    H135500   5.906   6.052   2.012
 4647TIP3    H235501   5.882   5.926   1.932
 4648TIP3   OH235502   4.669   3.015   7.025
 4648TIP3    H135503   4.618   3.072   6.968
 4648TIP3    H235504   4.710   2.952   6.967
 4649TIP3   OH235505   2.246   6.052   1.074
 4649TIP3    H135506   2.255   5.963   1.108
 4649TIP3    H235507   2.286   6.108   1.140
 4650TIP3   OH235508   1.439   3.767   1.402
 4650TIP3    H135509   1.483   3.849   1.378
 4650TIP3    H235510   1.407   3.732   1.319
 4651TIP3   OH235511   2.798   4.611   1.433
 4651TIP3    H135512   2.708   4.633   1.456
 4651TIP3    H235513   2.826   4.682   1.375
 4652TIP3   OH235514   0.785   5.067   1.730
 4652TIP3    H135515   0.868   5.102   1.762
 4652TIP3    H235516   0.804   4.976   1.707
 4653TIP3   OH235517   6.750   0.370   0.117
 4653TIP3    H135518   6.700   0.295   0.085
 4653TIP3    H235519   6.756   0.356   0.212
 4654TIP3   OH235520   4.315   4.351   1.274
 4654TIP3    H135521   4.310   4.328   1.367
 4654TIP3    H235522   4.224   4.358   1.246
 4655TIP3   OH235523   2.835   0.695   8.613
 4655TIP3    H135524   2.798   0.675   8.527
 4655TIP3    H235525   2.759   0.714   8.668
 4656TIP3   OH235526   5.888   3.375   6.062
 4656TIP3    H135527   5.859   3.302   6.116
 4656TIP3    H235528   5.972   3.401   6.100
 4657TIP3   OH235529   5.279   3.848   0.206
 4657TIP3    H135530   5.190   3.832   0.237
 4657TIP3    H235531   5.270   3.861   0.112
 4658TIP3   OH235532   3.757   4.753   2.451
 4658TIP3    H135533   3.705   4.830   2.426
 4658TIP3    H235534   3.740   4.689   2.382
 4659TIP3   OH235535   1.275   1.358   1.218
 4659TIP3    H135536   1.254   1.326   1.130
 4659TIP3    H235537   1.192   1.392   1.251
 4660TIP3   OH235538   4.302   0.931   0.693
 4660TIP3    H135539   4.319   0.931   0.787
 4660TIP3    H235540   4.218   0.977   0.683
 4661TIP3   OH235541   0.450   2.072   1.799
 4661TIP3    H135542   0.406   2.102   1.879
 4661TIP3    H235543   0.529   2.028   1.830
 4662TIP3   OH235544   3.936   6.065   8.660
 4662TIP3    H135545   3.907   6.091   8.573
 4662TIP3    H235546   4.015   6.117   8.675
 4663TIP3   OH235547   0.664   4.780   1.527
 4663TIP3    H135548   0.580   4.778   1.573
 4663TIP3    H235549   0.653   4.846   1.458
 4664TIP3   OH235550   4.824   2.553   0.846
 4664TIP3    H135551   4.739   2.537   0.886
 4664TIP3    H235552   4.848   2.470   0.805
 4665TIP3   OH235553   2.960   2.799   1.570
 4665TIP3    H135554   3.048   2.763   1.581
 4665TIP3    H235555   2.935   2.775   1.481
 4666TIP3   OH235556   4.351   6.662   7.918
 4666TIP3    H135557   4.281   6.624   7.865
 4666TIP3    H235558   4.329   6.639   8.008
 4667TIP3   OH235559   3.336   3.476   0.353
 4667TIP3    H135560   3.318   3.532   0.428
 4667TIP3    H235561   3.272   3.503   0.287
 4668TIP3   OH235562   3.453   1.365   0.706
 4668TIP3    H135563   3.471   1.271   0.705
 4668TIP3    H235564   3.518   1.402   0.765
 4669TIP3   OH235565   5.965   1.505   1.481
 4669TIP3    H135566   6.008   1.589   1.495
 4669TIP3    H235567   6.037   1.441   1.483
 4670TIP3   OH235568   3.785   1.790   8.710
 4670TIP3    H135569   3.830   1.739   8.643
 4670TIP3    H235570   3.834   1.773   0.065
 4671TIP3   OH235571   3.912   0.667   1.536
 4671TIP3    H135572   3.903   0.579   1.498
 4671TIP3    H235573   3.868   0.661   1.621
 4672TIP3   OH235574   3.770   6.612   1.201
 4672TIP3    H135575   3.857   6.630   1.165
 4672TIP3    H235576   3.771   6.653   1.287
 4673TIP3   OH235577   3.483   1.178   0.998
 4673TIP3    H135578   3.417   1.215   1.057
 4673TIP3    H235579   3.493   1.087   1.028
 4674TIP3   OH235580   6.809   0.221   7.499
 4674TIP3    H135581   6.796   0.202   7.592
 4674TIP3    H235582   6.721   0.244   7.468
 4675TIP3   OH235583   2.385   5.600   7.603
 4675TIP3    H135584   2.367   5.559   7.687
 4675TIP3    H235585   2.447   5.540   7.560
 4676TIP3   OH235586   4.605   5.294   7.909
 4676TIP3    H135587   4.569   5.295   7.820
 4676TIP3    H235588   4.528   5.298   7.966
 4677TIP3   OH235589   3.404   5.315   7.426
 4677TIP3    H135590   3.340   5.365   7.476
 4677TIP3    H235591   3.488   5.355   7.447
 4678TIP3   OH235592   1.748   5.009   6.391
 4678TIP3    H135593   1.669   5.036   6.438
 4678TIP3    H235594   1.715   4.964   6.313
 4679TIP3   OH235595   3.843   0.870   0.633
 4679TIP3    H135596   3.749   0.856   0.621
 4679TIP3    H235597   3.880   0.781   0.636
 4680TIP3   OH235598   4.789   6.061   8.032
 4680TIP3    H135599   4.700   6.085   8.059
 4680TIP3    H235600   4.801   6.103   7.947
 4681TIP3   OH235601   2.166   4.184   6.621
 4681TIP3    H135602   2.077   4.168   6.590
 4681TIP3    H235603   2.171   4.279   6.632
 4682TIP3   OH235604   0.027   2.334   0.470
 4682TIP3    H135605   0.096   2.395   0.442
 4682TIP3    H235606   6.802   2.368   0.430
 4683TIP3   OH235607   1.374   2.271   1.930
 4683TIP3    H135608   1.287   2.263   1.891
 4683TIP3    H235609   1.385   2.191   1.981
 4684TIP3   OH235610   4.463   2.831   6.902
 4684TIP3    H135611   4.424   2.777   6.971
 4684TIP3    H235612   4.466   2.919   6.940
 4685TIP3   OH235613   3.426   0.369   1.102
 4685TIP3    H135614   3.415   0.418   1.020
 4685TIP3    H235615   3.521   0.369   1.117
 4686TIP3   OH235616   4.595   4.524   1.797
 4686TIP3    H135617   4.659   4.558   1.734
 4686TIP3    H235618   4.583   4.596   1.860
 4687TIP3   OH235619   5.930   2.555   8.412
 4687TIP3    H135620   5.860   2.490   8.415
 4687TIP3    H235621   5.895   2.631   8.458
 4688TIP3   OH235622   1.396   5.557   0.072
 4688TIP3    H135623   1.392   5.485   0.009
 4688TIP3    H235624   1.396   5.514   0.158
 4689TIP3   OH235625   6.840   2.527   1.433
 4689TIP3    H135626   0.036   2.445   1.428
 4689TIP3    H235627   0.052   2.596   1.433
 4690TIP3   OH235628   2.763   2.541   8.681
 4690TIP3    H135629   2.705   2.606   8.640
 4690TIP3    H235630   2.737   2.458   8.642
 4691TIP3   OH235631   4.417   1.191   1.229
 4691TIP3    H135632   4.427   1.264   1.289
 4691TIP3    H235633   4.333   1.207   1.186
 4692TIP3   OH235634   6.656   3.340   1.168
 4692TIP3    H135635   6.712   3.411   1.137
 4692TIP3    H235636   6.636   3.289   1.089
 4693TIP3   OH235637   5.966   5.077   8.252
 4693TIP3    H135638   5.944   5.154   8.200
 4693TIP3    H235639   5.970   5.005   8.189
 4694TIP3   OH235640   3.024   5.295   7.789
 4694TIP3    H135641   3.076   5.371   7.762
 4694TIP3    H235642   3.073   5.258   7.863
 4695TIP3   OH235643   4.474   5.549   0.643
 4695TIP3    H135644   4.404   5.492   0.609
 4695TIP3    H235645   4.448   5.566   0.734
 4696TIP3   OH235646   0.667   0.354   1.030
 4696TIP3    H135647   0.712   0.269   1.035
 4696TIP3    H235648   0.715   0.410   1.091
 4697TIP3   OH235649   6.133   2.587   1.290
 4697TIP3    H135650   6.204   2.633   1.334
 4697TIP3    H235651   6.166   2.498   1.279
 4698TIP3   OH235652   1.158   2.222   2.153
 4698TIP3    H135653   1.085   2.163   2.170
 4698TIP3    H235654   1.230   2.164   2.127
 4699TIP3   OH235655   6.848   4.701   7.986
 4699TIP3    H135656   6.807   4.786   7.998
 4699TIP3    H235657   6.829   4.653   8.067
 4700TIP3   OH235658   0.738   2.063   0.131
 4700TIP3    H135659   0.758   2.155   0.151
 4700TIP3    H235660   0.709   2.064   0.040
 4701TIP3   OH235661   2.512   4.080   0.552
 4701TIP3    H135662   2.491   4.034   0.471
 4701TIP3    H235663   2.608   4.084   0.554
 4702TIP3   OH235664   2.607   6.761   7.449
 4702TIP3    H135665   2.591   6.693   7.514
 4702TIP3    H235666   2.531   6.819   7.455
 4703TIP3   OH235667   6.503   6.789   6.394
 4703TIP3    H135668   6.439   6.719   6.408
 4703TIP3    H235669   6.571   6.748   6.339
 4704TIP3   OH235670   4.637   5.292   7.178
 4704TIP3    H135671   4.679   5.361   7.127
 4704TIP3    H235672   4.657   5.211   7.130
 4705TIP3   OH235673   0.084   4.736   7.622
 4705TIP3    H135674   6.849   4.708   7.602
 4705TIP3    H235675   0.119   4.766   7.539
 4706TIP3   OH235676   5.797   3.275   0.840
 4706TIP3    H135677   5.743   3.354   0.831
 4706TIP3    H235678   5.741   3.204   0.809
 4707TIP3   OH235679   3.276   3.286   7.623
 4707TIP3    H135680   3.320   3.322   7.699
 4707TIP3    H235681   3.299   3.193   7.624
 4708TIP3   OH235682   2.784   4.974   1.544
 4708TIP3    H135683   2.766   4.880   1.533
 4708TIP3    H235684   2.724   5.002   1.612
 4709TIP3   OH235685   1.886   5.412   8.721
 4709TIP3    H135686   1.884   5.402   8.626
 4709TIP3    H235687   1.807   5.462   0.015
 4710TIP3   OH235688   2.639   0.271   7.323
 4710TIP3    H135689   2.562   0.246   7.271
 4710TIP3    H235690   2.618   0.242   7.412
 4711TIP3   OH235691   0.294   4.125   7.094
 4711TIP3    H135692   0.372   4.169   7.061
 4711TIP3    H235693   0.297   4.038   7.056
 4712TIP3   OH235694   5.089   5.510   1.024
 4712TIP3    H135695   5.136   5.575   0.971
 4712TIP3    H235696   5.039   5.563   1.086
 4713TIP3   OH235697   1.789   4.585   8.560
 4713TIP3    H135698   1.834   4.616   8.639
 4713TIP3    H235699   1.724   4.652   8.542
 4714TIP3   OH235700   5.978   1.436   1.062
 4714TIP3    H135701   6.038   1.474   1.127
 4714TIP3    H235702   5.977   1.343   1.083
 4715TIP3   OH235703   1.189   2.929   7.793
 4715TIP3    H135704   1.233   3.010   7.818
 4715TIP3    H235705   1.180   2.934   7.698
 4716TIP3   OH235706   0.789   6.665   8.057
 4716TIP3    H135707   0.875   6.707   8.063
 4716TIP3    H235708   0.803   6.591   7.999
 4717TIP3   OH235709   3.580   3.460   6.782
 4717TIP3    H135710   3.652   3.406   6.815
 4717TIP3    H235711   3.502   3.407   6.798
 4718TIP3   OH235712   2.445   2.705   7.051
 4718TIP3    H135713   2.534   2.742   7.044
 4718TIP3    H235714   2.459   2.615   7.081
 4719TIP3   OH235715   6.453   0.533   0.499
 4719TIP3    H135716   6.408   0.457   0.533
 4719TIP3    H235717   6.484   0.580   0.577
 4720TIP3   OH235718   0.939   1.357   1.696
 4720TIP3    H135719   0.949   1.362   1.791
 4720TIP3    H235720   1.004   1.418   1.662
 4721TIP3   OH235721   1.707   4.607   8.021
 4721TIP3    H135722   1.714   4.625   8.115
 4721TIP3    H235723   1.744   4.520   8.010
 4722TIP3   OH235724   1.504   3.747   0.404
 4722TIP3    H135725   1.558   3.824   0.422
 4722TIP3    H235726   1.515   3.731   0.310
 4723TIP3   OH235727   5.931   4.459   0.259
 4723TIP3    H135728   5.863   4.421   0.315
 4723TIP3    H235729   6.005   4.473   0.318
 4724TIP3   OH235730   3.956   1.750   0.715
 4724TIP3    H135731   3.965   1.786   0.803
 4724TIP3    H235732   3.965   1.656   0.727
 4725TIP3   OH235733   0.594   3.781   7.074
 4725TIP3    H135734   0.607   3.869   7.038
 4725TIP3    H235735   0.500   3.765   7.065
 4726TIP3   OH235736   3.974   1.966   0.537
 4726TIP3    H135737   3.951   1.903   0.605
 4726TIP3    H235738   4.066   1.986   0.553
 4727TIP3   OH235739   0.338   2.962   1.165
 4727TIP3    H135740   0.434   2.961   1.174
 4727TIP3    H235741   0.308   3.007   1.244
 4728TIP3   OH235742   0.844   6.026   1.868
 4728TIP3    H135743   0.919   6.082   1.884
 4728TIP3    H235744   0.862   5.947   1.920
 4729TIP3   OH235745   0.699   0.656   7.730
 4729TIP3    H135746   0.624   0.607   7.697
 4729TIP3    H235747   0.692   0.650   7.825
 4730TIP3   OH235748   0.813   0.432   0.086
 4730TIP3    H135749   0.843   0.342   0.104
 4730TIP3    H235750   0.769   0.426   0.001
 4731TIP3   OH235751   5.953   1.370   7.692
 4731TIP3    H135752   5.865   1.387   7.659
 4731TIP3    H235753   5.988   1.457   7.712
 4732TIP3   OH235754   5.597   4.007   8.262
 4732TIP3    H135755   5.558   3.936   8.314
 4732TIP3    H235756   5.550   4.086   8.290
 4733TIP3   OH235757   5.822   5.678   1.039
 4733TIP3    H135758   5.747   5.637   0.997
 4733TIP3    H235759   5.886   5.608   1.049
 4734TIP3   OH235760   5.989   4.640   7.681
 4734TIP3    H135761   6.058   4.584   7.644
 4734TIP3    H235762   5.909   4.588   7.674
 4735TIP3   OH235763   4.850   5.431   0.177
 4735TIP3    H135764   4.918   5.459   0.239
 4735TIP3    H235765   4.784   5.389   0.232
 4736TIP3   OH235766   4.899   0.432   8.446
 4736TIP3    H135767   4.821   0.440   8.391
 4736TIP3    H235768   4.906   0.517   8.489
 4737TIP3   OH235769   3.737   0.312   1.769
 4737TIP3    H135770   3.806   0.252   1.741
 4737TIP3    H235771   3.783   0.393   1.790
 4738TIP3   OH235772   5.646   2.708   8.397
 4738TIP3    H135773   5.691   2.698   8.481
 4738TIP3    H235774   5.643   2.619   8.361
 4739TIP3   OH235775   4.803   4.555   0.351
 4739TIP3    H135776   4.768   4.640   0.378
 4739TIP3    H235777   4.784   4.550   0.257
 4740TIP3   OH235778   0.333   6.809   7.133
 4740TIP3    H135779   0.391   6.853   7.196
 4740TIP3    H235780   0.317   0.021   7.066
 4741TIP3   OH235781   1.940   0.721   8.621
 4741TIP3    H135782   1.849   0.694   8.605
 4741TIP3    H235783   1.934   0.783   8.693
 4742TIP3   OH235784   4.672   6.842   8.375
 4742TIP3    H135785   4.596   0.002   8.432
 4742TIP3    H235786   4.701   6.753   8.396
 4743TIP3   OH235787   6.808   1.718   6.684
 4743TIP3    H135788   0.029   1.665   6.707
 4743TIP3    H235789   6.833   1.764   6.604
 4744TIP3   OH235790   4.184   4.970   2.238
 4744TIP3    H135791   4.273   4.937   2.253
 4744TIP3    H235792   4.127   4.905   2.278
 4745TIP3   OH235793   6.651   1.858   7.201
 4745TIP3    H135794   6.662   1.953   7.212
 4745TIP3    H235795   6.725   1.821   7.249
 4746TIP3   OH235796   6.397   6.787   0.167
 4746TIP3    H135797   6.420   6.698   0.144
 4746TIP3    H235798   6.326   6.811   0.107
 4747TIP3   OH235799   4.292   0.446   7.816
 4747TIP3    H135800   4.239   0.517   7.781
 4747TIP3    H235801   4.284   0.375   7.751
 4748TIP3   OH235802   6.676   0.369   6.789
 4748TIP3    H135803   6.713   0.427   6.722
 4748TIP3    H235804   6.750   0.315   6.817
 4749TIP3   OH235805   0.097   2.576   7.019
 4749TIP3    H135806   0.143   2.592   7.102
 4749TIP3    H235807   0.036   2.649   7.011
 4750TIP3   OH235808   3.029   2.310   1.255
 4750TIP3    H135809   3.002   2.371   1.323
 4750TIP3    H235810   2.955   2.251   1.243
 4751TIP3   OH235811   4.008   3.861   7.986
 4751TIP3    H135812   3.994   3.912   7.906
 4751TIP3    H235813   4.088   3.812   7.969
 4752TIP3   OH235814   1.041   6.221   8.369
 4752TIP3    H135815   1.124   6.264   8.350
 4752TIP3    H235816   1.060   6.127   8.361
 4753TIP3   OH235817   0.113   2.747   1.868
 4753TIP3    H135818   0.094   2.670   1.816
 4753TIP3    H235819   0.028   2.790   1.879
 4754TIP3   OH235820   0.369   0.896   1.122
 4754TIP3    H135821   0.297   0.876   1.062
 4754TIP3    H235822   0.369   0.991   1.129
 4755TIP3   OH235823   1.025   4.559   7.992
 4755TIP3    H135824   0.955   4.511   8.036
 4755TIP3    H235825   1.105   4.529   8.036
 4756TIP3   OH235826   0.024   3.885   8.524
 4756TIP3    H135827   6.830   3.901   8.443
 4756TIP3    H235828   0.040   3.973   8.559
 4757TIP3   OH235829   1.739   3.729   0.743
 4757TIP3    H135830   1.644   3.742   0.741
 4757TIP3    H235831   1.755   3.675   0.820
 4758TIP3   OH235832   1.526   4.539   7.650
 4758TIP3    H135833   1.443   4.509   7.686
 4758TIP3    H235834   1.567   4.460   7.615
 4759TIP3   OH235835   4.293   3.724   8.641
 4759TIP3    H135836   4.330   3.711   0.002
 4759TIP3    H235837   4.201   3.745   8.657
 4760TIP3   OH235838   4.484   2.826   1.213
 4760TIP3    H135839   4.458   2.883   1.285
 4760TIP3    H235840   4.548   2.877   1.163
 4761TIP3   OH235841   1.886   5.568   0.837
 4761TIP3    H135842   1.867   5.615   0.756
 4761TIP3    H235843   1.956   5.507   0.814
 4762TIP3   OH235844   0.716   3.868   0.927
 4762TIP3    H135845   0.690   3.919   1.003
 4762TIP3    H235846   0.679   3.914   0.852
 4763TIP3   OH235847   4.082   2.854   0.176
 4763TIP3    H135848   3.999   2.887   0.210
 4763TIP3    H235849   4.058   2.776   0.125
 4764TIP3   OH235850   1.050   3.653   8.569
 4764TIP3    H135851   1.061   3.707   8.647
 4764TIP3    H235852   1.041   3.716   8.497
 4765TIP3   OH235853   3.663   4.611   8.161
 4765TIP3    H135854   3.665   4.705   8.143
 4765TIP3    H235855   3.573   4.585   8.145
 4766TIP3   OH235856   2.425   4.596   0.906
 4766TIP3    H135857   2.338   4.558   0.895
 4766TIP3    H235858   2.482   4.543   0.850
 4767TIP3   OH235859   4.514   3.863   0.417
 4767TIP3    H135860   4.423   3.870   0.388
 4767TIP3    H235861   4.553   3.948   0.398
 4768TIP3   OH235862   3.818   5.377   6.881
 4768TIP3    H135863   3.886   5.310   6.894
 4768TIP3    H235864   3.774   5.351   6.800
 4769TIP3   OH235865   3.674   0.402   7.783
 4769TIP3    H135866   3.620   0.464   7.832
 4769TIP3    H235867   3.636   0.316   7.803
 4770TIP3   OH235868   4.675   5.827   1.673
 4770TIP3    H135869   4.713   5.759   1.617
 4770TIP3    H235870   4.744   5.846   1.737
 4771TIP3   OH235871   5.854   1.128   0.447
 4771TIP3    H135872   5.873   1.140   0.540
 4771TIP3    H235873   5.759   1.140   0.440
 4772TIP3   OH235874   0.274   5.447   7.904
 4772TIP3    H135875   0.289   5.417   7.993
 4772TIP3    H235876   0.225   5.528   7.914
 4773TIP3   OH235877   6.422   5.983   2.431
 4773TIP3    H135878   6.385   5.915   2.487
 4773TIP3    H235879   6.348   6.042   2.414
 4774TIP3   OH235880   0.010   1.548   7.600
 4774TIP3    H135881   6.831   1.484   7.663
 4774TIP3    H235882   6.840   1.512   7.515
 4775TIP3   OH235883   6.209   2.046   7.992
 4775TIP3    H135884   6.147   2.065   8.062
 4775TIP3    H235885   6.266   1.978   8.028
 4776TIP3   OH235886   3.596   6.107   1.743
 4776TIP3    H135887   3.613   6.063   1.826
 4776TIP3    H235888   3.549   6.043   1.690
 4777TIP3   OH235889   1.581   5.388   1.562
 4777TIP3    H135890   1.677   5.392   1.563
 4777TIP3    H235891   1.559   5.347   1.479
 4778TIP3   OH235892   5.358   6.193   8.643
 4778TIP3    H135893   5.289   6.248   8.604
 4778TIP3    H235894   5.440   6.236   8.617
 4779TIP3   OH235895   2.273   2.203   1.801
 4779TIP3    H135896   2.205   2.165   1.745
 4779TIP3    H235897   2.226   2.262   1.860
 4780TIP3   OH235898   4.753   4.215   8.394
 4780TIP3    H135899   4.760   4.222   8.298
 4780TIP3    H235900   4.660   4.198   8.409
 4781TIP3   OH235901   1.015   0.039   1.793
 4781TIP3    H135902   0.986   0.088   1.715
 4781TIP3    H235903   1.071   0.101   1.840
 4782TIP3   OH235904   4.128   2.714   0.834
 4782TIP3    H135905   4.115   2.800   0.794
 4782TIP3    H235906   4.110   2.652   0.763
 4783TIP3   OH235907   4.860   3.936   7.409
 4783TIP3    H135908   4.902   3.999   7.467
 4783TIP3    H235909   4.917   3.932   7.333
 4784TIP3   OH235910   1.681   2.326   7.128
 4784TIP3    H135911   1.598   2.326   7.079
 4784TIP3    H235912   1.740   2.378   7.074
 4785TIP3   OH235913   1.650   4.335   1.272
 4785TIP3    H135914   1.611   4.420   1.289
 4785TIP3    H235915   1.610   4.276   1.336
 4786TIP3   OH235916   4.327   4.100   7.796
 4786TIP3    H135917   4.286   4.157   7.730
 4786TIP3    H235918   4.278   4.118   7.877
 4787TIP3   OH235919   1.089   3.616   0.966
 4787TIP3    H135920   0.995   3.617   0.988
 4787TIP3    H235921   1.097   3.546   0.901
 4788TIP3   OH235922   0.870   4.577   7.282
 4788TIP3    H135923   0.940   4.641   7.283
 4788TIP3    H235924   0.894   4.516   7.213
 4789TIP3   OH235925   2.655   4.441   7.456
 4789TIP3    H135926   2.656   4.473   7.546
 4789TIP3    H235927   2.650   4.520   7.402
 4790TIP3   OH235928   3.070   1.680   7.774
 4790TIP3    H135929   3.152   1.729   7.777
 4790TIP3    H235930   3.075   1.629   7.693
 4791TIP3   OH235931   6.322   2.051   7.088
 4791TIP3    H135932   6.393   2.035   7.026
 4791TIP3    H235933   6.298   2.142   7.075
 4792TIP3   OH235934   6.469   3.660   7.876
 4792TIP3    H135935   6.376   3.663   7.900
 4792TIP3    H235936   6.468   3.647   7.781
 4793TIP3   OH235937   3.471   0.232   1.764
 4793TIP3    H135938   3.561   0.231   1.732
 4793TIP3    H235939   3.471   0.177   1.842
 4794TIP3   OH235940   6.741   0.228   1.154
 4794TIP3    H135941   6.709   0.174   1.082
 4794TIP3    H235942   6.684   0.207   1.227
 4795TIP3   OH235943   2.727   0.851   1.083
 4795TIP3    H135944   2.814   0.889   1.092
 4795TIP3    H235945   2.728   0.806   0.998
 4796TIP3   OH235946   6.809   6.040   8.550
 4796TIP3    H135947   0.039   6.062   8.590
 4796TIP3    H235948   6.808   5.945   8.546
 4797TIP3   OH235949   2.995   4.357   7.267
 4797TIP3    H135950   3.044   4.301   7.207
 4797TIP3    H235951   2.942   4.413   7.211
 4798TIP3   OH235952   0.692   2.590   0.156
 4798TIP3    H135953   0.699   2.644   0.077
 4798TIP3    H235954   0.781   2.561   0.173
 4799TIP3   OH235955   1.226   3.470   1.356
 4799TIP3    H135956   1.284   3.498   1.285
 4799TIP3    H235957   1.279   3.411   1.409
 4800TIP3   OH235958   4.195   4.847   7.342
 4800TIP3    H135959   4.263   4.891   7.291
 4800TIP3    H235960   4.208   4.880   7.432
 4801TIP3   OH235961   3.532   5.514   1.415
 4801TIP3    H135962   3.611   5.461   1.414
 4801TIP3    H235963   3.534   5.560   1.498
 4802TIP3   OH235964   1.640   1.611   1.541
 4802TIP3    H135965   1.627   1.560   1.461
 4802TIP3    H235966   1.644   1.546   1.611
 4803TIP3   OH235967   2.238   3.600   7.804
 4803TIP3    H135968   2.235   3.679   7.750
 4803TIP3    H235969   2.255   3.529   7.742
 4804TIP3   OH235970   1.969   5.795   6.604
 4804TIP3    H135971   2.002   5.799   6.515
 4804TIP3    H235972   1.881   5.832   6.599
 4805TIP3   OH235973   2.306   3.036   6.854
 4805TIP3    H135974   2.280   3.126   6.837
 4805TIP3    H235975   2.259   2.984   6.789
 4806TIP3   OH235976   4.528   4.816   0.748
 4806TIP3    H135977   4.615   4.831   0.711
 4806TIP3    H235978   4.471   4.874   0.698
 4807TIP3   OH235979   4.563   2.632   7.397
 4807TIP3    H135980   4.577   2.680   7.316
 4807TIP3    H235981   4.612   2.681   7.463
 4808TIP3   OH235982   6.770   1.524   0.840
 4808TIP3    H135983   6.843   1.465   0.859
 4808TIP3    H235984   6.808   1.611   0.849
 4809TIP3   OH235985   1.115   4.705   0.664
 4809TIP3    H135986   1.094   4.616   0.690
 4809TIP3    H235987   1.174   4.695   0.589
 4810TIP3   OH235988   3.008   0.189   0.824
 4810TIP3    H135989   3.087   0.229   0.860
 4810TIP3    H235990   2.989   0.116   0.882
 4811TIP3   OH235991   4.971   1.168   0.328
 4811TIP3    H135992   4.918   1.103   0.373
 4811TIP3    H235993   4.919   1.194   0.252
 4812TIP3   OH235994   3.093   4.120   2.171
 4812TIP3    H135995   3.013   4.071   2.151
 4812TIP3    H235996   3.129   4.076   2.247
 4813TIP3   OH235997   3.346   0.460   6.109
 4813TIP3    H135998   3.393   0.534   6.149
 4813TIP3    H235999   3.256   0.470   6.138
 4814TIP3   OH236000   4.025   5.559   8.436
 4814TIP3    H136001   4.118   5.575   8.421
 4814TIP3    H236002   4.017   5.554   8.531
 4815TIP3   OH236003   4.813   3.397   2.252
 4815TIP3    H136004   4.719   3.412   2.262
 4815TIP3    H236005   4.841   3.365   2.338
 4816TIP3   OH236006   1.024   3.801   0.074
 4816TIP3    H136007   1.012   3.896   0.078
 4816TIP3    H236008   0.947   3.766   0.119
 4817TIP3   OH236009   5.867   1.084   1.502
 4817TIP3    H136010   5.849   1.051   1.590
 4817TIP3    H236011   5.840   1.176   1.504
 4818TIP3   OH236012   1.271   1.307   1.646
 4818TIP3    H136013   1.196   1.251   1.631
 4818TIP3    H236014   1.285   1.304   1.741
 4819TIP3   OH236015   4.323   6.424   7.319
 4819TIP3    H136016   4.276   6.352   7.360
 4819TIP3    H236017   4.286   6.503   7.359
 4820TIP3   OH236018   5.956   1.474   1.929
 4820TIP3    H136019   5.878   1.430   1.896
 4820TIP3    H236020   6.014   1.403   1.958
 4821TIP3   OH236021   5.538   0.481   8.144
 4821TIP3    H136022   5.500   0.405   8.189
 4821TIP3    H236023   5.463   0.522   8.101
 4822TIP3   OH236024   4.052   5.358   1.297
 4822TIP3    H136025   4.104   5.364   1.217
 4822TIP3    H236026   4.026   5.448   1.315
 4823TIP3   OH236027   5.895   1.091   2.339
 4823TIP3    H136028   5.967   1.145   2.371
 4823TIP3    H236029   5.905   1.008   2.387
 4824TIP3   OH236030   2.822   5.292   7.122
 4824TIP3    H136031   2.888   5.351   7.159
 4824TIP3    H236032   2.766   5.349   7.070
 4825TIP3   OH236033   5.128   2.835   1.354
 4825TIP3    H136034   5.187   2.874   1.419
 4825TIP3    H236035   5.113   2.906   1.291
 4826TIP3   OH236036   3.325   0.828   1.489
 4826TIP3    H136037   3.316   0.823   1.584
 4826TIP3    H236038   3.297   0.917   1.467
 4827TIP3   OH236039   2.128   4.135   2.442
 4827TIP3    H136040   2.147   4.063   2.502
 4827TIP3    H236041   2.214   4.164   2.411
 4828TIP3   OH236042   6.562   6.504   7.266
 4828TIP3    H136043   6.554   6.446   7.191
 4828TIP3    H236044   6.562   6.592   7.228
 4829TIP3   OH236045   2.997   1.342   2.417
 4829TIP3    H136046   2.991   1.247   2.413
 4829TIP3    H236047   2.920   1.369   2.468
 4830TIP3   OH236048   2.446   3.395   7.197
 4830TIP3    H136049   2.457   3.326   7.132
 4830TIP3    H236050   2.535   3.415   7.226
 4831TIP3   OH236051   4.709   0.215   7.509
 4831TIP3    H136052   4.661   0.200   7.590
 4831TIP3    H236053   4.780   0.151   7.511
 4832TIP3   OH236054   1.582   2.013   8.284
 4832TIP3    H136055   1.563   1.947   8.350
 4832TIP3    H236056   1.551   2.095   8.322
 4833TIP3   OH236057   2.609   3.873   8.617
 4833TIP3    H136058   2.524   3.884   8.575
 4833TIP3    H236059   2.649   3.798   8.573
 4834TIP3   OH236060   0.283   3.475   1.237
 4834TIP3    H136061   0.365   3.496   1.281
 4834TIP3    H236062   0.216   3.481   1.305
 4835TIP3   OH236063   2.562   3.248   0.257
 4835TIP3    H136064   2.629   3.256   0.325
 4835TIP3    H236065   2.610   3.251   0.175
 4836TIP3   OH236066   0.648   0.204   0.208
 4836TIP3    H136067   0.584   0.133   0.219
 4836TIP3    H236068   0.719   0.165   0.157
 4837TIP3   OH236069   6.259   5.402   0.804
 4837TIP3    H136070   6.206   5.329   0.773
 4837TIP3    H236071   6.303   5.368   0.883
 4838TIP3   OH236072   2.419   6.556   7.229
 4838TIP3    H136073   2.462   6.611   7.164
 4838TIP3    H236074   2.345   6.608   7.261
 4839TIP3   OH236075   1.995   5.357   0.432
 4839TIP3    H136076   1.960   5.431   0.383
 4839TIP3    H236077   2.017   5.292   0.365
 4840TIP3   OH236078   0.865   5.603   1.742
 4840TIP3    H136079   0.871   5.661   1.666
 4840TIP3    H236080   0.891   5.517   1.708
 4841TIP3   OH236081   5.132   6.427   6.621
 4841TIP3    H136082   5.203   6.367   6.643
 4841TIP3    H236083   5.175   6.508   6.596
 4842TIP3   OH236084   0.075   0.730   7.770
 4842TIP3    H136085   0.144   0.734   7.703
 4842TIP3    H236086   0.122   0.711   7.851
 4843TIP3   OH236087   3.236   5.351   7.975
 4843TIP3    H136088   3.225   5.445   7.988
 4843TIP3    H236089   3.248   5.316   8.063
 4844TIP3   OH236090   3.533   4.195   0.219
 4844TIP3    H136091   3.500   4.147   0.295
 4844TIP3    H236092   3.613   4.236   0.249
 4845TIP3   OH236093   4.049   2.885   1.332
 4845TIP3    H136094   4.054   2.793   1.358
 4845TIP3    H236095   4.119   2.895   1.267
 4846TIP3   OH236096   6.288   2.239   6.759
 4846TIP3    H136097   6.316   2.291   6.834
 4846TIP3    H236098   6.326   2.152   6.773
 4847TIP3   OH236099   5.691   3.020   0.774
 4847TIP3    H136100   5.764   2.964   0.745
 4847TIP3    H236101   5.638   2.962   0.829
 4848TIP3   OH236102   0.832   0.120   6.136
 4848TIP3    H136103   0.811   0.061   6.208
 4848TIP3    H236104   0.765   0.189   6.141
 4849TIP3   OH236105   1.763   4.461   6.525
 4849TIP3    H136106   1.828   4.462   6.455
 4849TIP3    H236107   1.730   4.551   6.528
 4850TIP3   OH236108   4.657   3.016   7.450
 4850TIP3    H136109   4.675   2.941   7.506
 4850TIP3    H236110   4.733   3.073   7.461
 4851TIP3   OH236111   1.680   3.642   7.413
 4851TIP3    H136112   1.604   3.698   7.431
 4851TIP3    H236113   1.732   3.647   7.494
 4852TIP3   OH236114   1.892   4.820   1.386
 4852TIP3    H136115   1.858   4.864   1.464
 4852TIP3    H236116   1.953   4.754   1.419
 4853TIP3   OH236117   3.027   4.748   8.442
 4853TIP3    H136118   3.023   4.816   8.375
 4853TIP3    H236119   3.064   4.672   8.396
 4854TIP3   OH236120   5.073   3.108   8.121
 4854TIP3    H136121   5.053   3.181   8.179
 4854TIP3    H236122   5.059   3.143   8.033
 4855TIP3   OH236123   0.051   6.845   8.236
 4855TIP3    H136124   0.016   0.025   8.154
 4855TIP3    H236125   0.015   6.757   8.243
 4856TIP3   OH236126   3.030   3.881   7.509
 4856TIP3    H136127   3.111   3.829   7.505
 4856TIP3    H236128   2.961   3.819   7.486
 4857TIP3   OH236129   0.898   0.550   6.122
 4857TIP3    H136130   0.965   0.488   6.094
 4857TIP3    H236131   0.889   0.536   6.216
 4858TIP3   OH236132   1.484   6.841   8.164
 4858TIP3    H136133   1.536   6.844   8.084
 4858TIP3    H236134   1.541   6.800   8.229
 4859TIP3   OH236135   1.043   5.861   1.275
 4859TIP3    H136136   1.013   5.932   1.219
 4859TIP3    H236137   1.088   5.905   1.347
 4860TIP3   OH236138   0.151   4.779   1.617
 4860TIP3    H136139   0.246   4.766   1.617
 4860TIP3    H236140   0.118   4.720   1.685
 4861TIP3   OH236141   5.300   6.081   8.340
 4861TIP3    H136142   5.263   6.104   8.425
 4861TIP3    H236143   5.378   6.136   8.333
 4862TIP3   OH236144   1.825   0.678   1.712
 4862TIP3    H136145   1.778   0.603   1.751
 4862TIP3    H236146   1.807   0.671   1.618
 4863TIP3   OH236147   5.088   3.456   0.303
 4863TIP3    H136148   5.009   3.473   0.251
 4863TIP3    H236149   5.150   3.419   0.241
 4864TIP3   OH236150   4.652   6.221   8.383
 4864TIP3    H136151   4.677   6.274   8.459
 4864TIP3    H236152   4.695   6.137   8.399
 4865TIP3   OH236153   0.144   4.741   2.223
 4865TIP3    H136154   0.234   4.714   2.241
 4865TIP3    H236155   0.149   4.837   2.215
 4866TIP3   OH236156   1.563   1.734   7.736
 4866TIP3    H136157   1.489   1.791   7.715
 4866TIP3    H236158   1.635   1.794   7.756
 4867TIP3   OH236159   2.935   2.373   8.420
 4867TIP3    H136160   3.029   2.357   8.410
 4867TIP3    H236161   2.901   2.370   8.331
 4868TIP3   OH236162   4.956   5.910   7.658
 4868TIP3    H136163   4.872   5.885   7.619
 4868TIP3    H236164   4.982   5.988   7.609
 4869TIP3   OH236165   3.963   4.130   1.299
 4869TIP3    H136166   4.011   4.190   1.243
 4869TIP3    H236167   4.028   4.064   1.325
 4870TIP3   OH236168   6.720   2.822   0.355
 4870TIP3    H136169   6.661   2.758   0.395
 4870TIP3    H236170   6.796   2.824   0.413
 4871TIP3   OH236171   5.761   3.850   1.054
 4871TIP3    H136172   5.822   3.874   0.984
 4871TIP3    H236173   5.808   3.870   1.135
 4872TIP3   OH236174   0.342   6.205   0.191
 4872TIP3    H136175   0.417   6.235   0.243
 4872TIP3    H236176   0.377   6.193   0.103
 4873TIP3   OH236177   0.584   0.929   0.275
 4873TIP3    H136178   0.558   0.840   0.254
 4873TIP3    H236179   0.509   0.966   0.323
 4874TIP3   OH236180   6.531   6.004   8.109
 4874TIP3    H136181   6.548   5.972   8.020
 4874TIP3    H236182   6.605   5.970   8.161
 4875TIP3   OH236183   4.444   3.079   8.688
 4875TIP3    H136184   4.464   3.047   0.050
 4875TIP3    H236185   4.365   3.132   8.700
 4876TIP3   OH236186   5.227   4.012   7.048
 4876TIP3    H136187   5.253   3.963   6.970
 4876TIP3    H236188   5.301   4.005   7.107
 4877TIP3   OH236189   6.549   3.258   1.528
 4877TIP3    H136190   6.609   3.188   1.501
 4877TIP3    H236191   6.559   3.261   1.623
 4878TIP3   OH236192   3.456   4.462   7.736
 4878TIP3    H136193   3.544   4.497   7.748
 4878TIP3    H236194   3.462   4.407   7.658
 4879TIP3   OH236195   1.848   0.944   7.280
 4879TIP3    H136196   1.900   0.873   7.315
 4879TIP3    H236197   1.900   1.023   7.294
 4880TIP3   OH236198   1.776   6.030   8.170
 4880TIP3    H136199   1.835   6.020   8.245
 4880TIP3    H236200   1.828   6.000   8.095
 4881TIP3   OH236201   4.475   2.656   0.053
 4881TIP3    H136202   4.412   2.703   8.724
 4881TIP3    H236203   4.466   2.564   0.027
 4882TIP3   OH236204   0.465   3.749   1.720
 4882TIP3    H136205   0.469   3.679   1.785
 4882TIP3    H236206   0.557   3.767   1.699
 4883TIP3   OH236207   0.920   2.058   0.923
 4883TIP3    H136208   0.969   1.978   0.945
 4883TIP3    H236209   0.949   2.122   0.988
 4884TIP3   OH236210   3.109   0.146   0.554
 4884TIP3    H136211   3.041   0.102   0.502
 4884TIP3    H236212   3.070   0.155   0.641
 4885TIP3   OH236213   6.390   4.595   7.369
 4885TIP3    H136214   6.315   4.606   7.311
 4885TIP3    H236215   6.450   4.538   7.320
 4886TIP3   OH236216   1.896   3.785   7.791
 4886TIP3    H136217   1.935   3.708   7.749
 4886TIP3    H236218   1.947   3.859   7.758
 4887TIP3   OH236219   4.784   0.325   1.524
 4887TIP3    H136220   4.826   0.279   1.596
 4887TIP3    H236221   4.805   0.273   1.446
 4888TIP3   OH236222   6.456   3.620   0.766
 4888TIP3    H136223   6.534   3.664   0.801
 4888TIP3    H236224   6.441   3.547   0.827
 4889TIP3   OH236225   2.463   6.329   0.627
 4889TIP3    H136226   2.527   6.380   0.677
 4889TIP3    H236227   2.378   6.352   0.665
 4890TIP3   OH236228   2.184   3.344   7.181
 4890TIP3    H136229   2.280   3.350   7.185
 4890TIP3    H236230   2.162   3.364   7.090
 4891TIP3   OH236231   1.430   5.621   6.694
 4891TIP3    H136232   1.476   5.640   6.776
 4891TIP3    H236233   1.350   5.576   6.720
 4892TIP3   OH236234   2.160   2.011   2.044
 4892TIP3    H136235   2.070   2.018   2.013
 4892TIP3    H236236   2.175   2.093   2.092
 4893TIP3   OH236237   4.501   0.078   0.245
 4893TIP3    H136238   4.540   0.045   0.164
 4893TIP3    H236239   4.413   0.105   0.219
 4894TIP3   OH236240   6.119   1.625   7.717
 4894TIP3    H136241   6.199   1.654   7.672
 4894TIP3    H236242   6.133   1.650   7.808
 4895TIP3   OH236243   2.752   6.770   1.401
 4895TIP3    H136244   2.750   6.689   1.350
 4895TIP3    H236245   2.782   6.743   1.488
 4896TIP3   OH236246   5.948   2.413   7.745
 4896TIP3    H136247   5.998   2.331   7.743
 4896TIP3    H236248   5.856   2.384   7.750
 4897TIP3   OH236249   5.364   6.724   7.402
 4897TIP3    H136250   5.317   6.801   7.432
 4897TIP3    H236251   5.355   6.661   7.473
 4898TIP3   OH236252   5.525   0.152   6.039
 4898TIP3    H136253   5.454   0.216   6.045
 4898TIP3    H236254   5.605   0.203   6.047
 4899TIP3   OH236255   5.691   1.922   6.725
 4899TIP3    H136256   5.708   1.953   6.813
 4899TIP3    H236257   5.770   1.944   6.675
 4900TIP3   OH236258   5.426   0.402   7.845
 4900TIP3    H136259   5.391   0.482   7.884
 4900TIP3    H236260   5.443   0.425   7.754
 4901TIP3   OH236261   6.172   0.754   8.128
 4901TIP3    H136262   6.206   0.843   8.120
 4901TIP3    H236263   6.247   0.698   8.109
 4902TIP3   OH236264   1.629   6.140   0.011
 4902TIP3    H136265   1.576   6.163   8.662
 4902TIP3    H236266   1.596   6.194   0.083
 4903TIP3   OH236267   2.250   6.518   2.552
 4903TIP3    H136268   2.237   6.442   2.495
 4903TIP3    H236269   2.306   6.577   2.502
 4904TIP3   OH236270   2.632   6.321   7.466
 4904TIP3    H136271   2.607   6.410   7.493
 4904TIP3    H236272   2.679   6.286   7.542
 4905TIP3   OH236273   4.035   3.469   7.464
 4905TIP3    H136274   4.103   3.487   7.399
 4905TIP3    H236275   4.057   3.526   7.538
 4906TIP3   OH236276   4.380   1.170   7.310
 4906TIP3    H136277   4.407   1.079   7.304
 4906TIP3    H236278   4.302   1.168   7.366
 4907TIP3   OH236279   3.805   0.285   8.232
 4907TIP3    H136280   3.821   0.259   8.142
 4907TIP3    H236281   3.762   0.209   8.272
 4908TIP3   OH236282   4.731   0.093   0.055
 4908TIP3    H136283   4.670   0.164   0.036
 4908TIP3    H236284   4.817   0.127   0.030
 4909TIP3   OH236285   3.720   5.914   0.021
 4909TIP3    H136286   3.652   5.893   8.682
 4909TIP3    H236287   3.790   5.954   8.697
 4910TIP3   OH236288   3.966   2.340   0.703
 4910TIP3    H136289   3.885   2.289   0.698
 4910TIP3    H236290   4.010   2.309   0.782
 4911TIP3   OH236291   6.660   5.991   2.209
 4911TIP3    H136292   6.750   6.010   2.180
 4911TIP3    H236293   6.616   5.958   2.130
 4912TIP3   OH236294   4.512   4.526   7.046
 4912TIP3    H136295   4.526   4.505   6.953
 4912TIP3    H236296   4.583   4.587   7.067
 4913TIP3   OH236297   1.740   3.615   7.939
 4913TIP3    H136298   1.688   3.545   7.900
 4913TIP3    H236299   1.791   3.650   7.866
 4914TIP3   OH236300   5.895   3.249   8.671
 4914TIP3    H136301   5.934   3.261   0.032
 4914TIP3    H236302   5.813   3.297   8.675
 4915TIP3   OH236303   2.554   6.525   1.021
 4915TIP3    H136304   2.630   6.473   1.048
 4915TIP3    H236305   2.543   6.589   1.091
 4916TIP3   OH236306   3.648   0.242   0.438
 4916TIP3    H136307   3.615   0.156   0.465
 4916TIP3    H236308   3.679   0.283   0.519
 4917TIP3   OH236309   4.774   5.653   1.414
 4917TIP3    H136310   4.681   5.649   1.394
 4917TIP3    H236311   4.788   5.582   1.477
 4918TIP3   OH236312   2.038   1.183   1.758
 4918TIP3    H136313   2.081   1.215   1.837
 4918TIP3    H236314   2.032   1.089   1.770
 4919TIP3   OH236315   2.127   0.668   6.695
 4919TIP3    H136316   2.211   0.625   6.681
 4919TIP3    H236317   2.066   0.621   6.638
 4920TIP3   OH236318   5.738   3.549   0.923
 4920TIP3    H136319   5.697   3.622   0.878
 4920TIP3    H236320   5.823   3.539   0.880
 4921TIP3   OH236321   0.025   1.178   7.960
 4921TIP3    H136322   6.837   1.104   8.003
 4921TIP3    H236323   0.118   1.168   7.980
 4922TIP3   OH236324   6.844   3.032   6.619
 4922TIP3    H136325   0.078   3.001   6.600
 4922TIP3    H236326   6.793   2.953   6.635
 4923TIP3   OH236327   0.256   5.303   0.579
 4923TIP3    H136328   0.328   5.357   0.547
 4923TIP3    H236329   0.230   5.252   0.502
 4924TIP3   OH236330   5.739   2.042   2.676
 4924TIP3    H136331   5.826   2.044   2.636
 4924TIP3    H236332   5.721   2.133   2.699
 4925TIP3   OH236333   1.597   2.340   1.804
 4925TIP3    H136334   1.514   2.326   1.849
 4925TIP3    H236335   1.652   2.267   1.832
 4926TIP3   OH236336   0.384   1.742   7.239
 4926TIP3    H136337   0.374   1.651   7.210
 4926TIP3    H236338   0.421   1.787   7.164
 4927TIP3   OH236339   2.967   4.626   1.061
 4927TIP3    H136340   2.961   4.566   1.135
 4927TIP3    H236341   2.878   4.630   1.026
 4928TIP3   OH236342   5.064   0.459   1.835
 4928TIP3    H136343   4.988   0.511   1.858
 4928TIP3    H236344   5.033   0.368   1.837
 4929TIP3   OH236345   5.765   0.975   8.403
 4929TIP3    H136346   5.776   1.066   8.375
 4929TIP3    H236347   5.834   0.962   8.469
 4930TIP3   OH236348   0.442   4.785   0.810
 4930TIP3    H136349   0.403   4.869   0.788
 4930TIP3    H236350   0.449   4.785   0.905
 4931TIP3   OH236351   5.693   2.272   1.419
 4931TIP3    H136352   5.772   2.324   1.432
 4931TIP3    H236353   5.656   2.262   1.507
 4932TIP3   OH236354   5.291   2.203   8.138
 4932TIP3    H136355   5.204   2.211   8.098
 4932TIP3    H236356   5.311   2.110   8.135
 4933TIP3   OH236357   3.028   0.908   8.183
 4933TIP3    H136358   3.100   0.858   8.222
 4933TIP3    H236359   2.967   0.922   8.256
 4934TIP3   OH236360   3.834   4.823   7.059
 4934TIP3    H136361   3.744   4.812   7.090
 4934TIP3    H236362   3.831   4.900   7.001
 4935TIP3   OH236363   0.130   4.521   7.418
 4935TIP3    H136364   0.184   4.527   7.497
 4935TIP3    H236365   0.178   4.461   7.361
 4936TIP3   OH236366   1.283   2.394   7.594
 4936TIP3    H136367   1.245   2.481   7.585
 4936TIP3    H236368   1.372   2.410   7.625
 4937TIP3   OH236369   0.453   2.922   7.131
 4937TIP3    H136370   0.479   2.932   7.039
 4937TIP3    H236371   0.533   2.892   7.175
 4938TIP3   OH236372   4.897   4.042   1.806
 4938TIP3    H136373   4.984   4.017   1.840
 4938TIP3    H236374   4.836   3.986   1.855
 4939TIP3   OH236375   2.823   0.919   7.016
 4939TIP3    H136376   2.805   1.007   7.048
 4939TIP3    H236377   2.881   0.932   6.941
 4940TIP3   OH236378   4.423   4.829   6.966
 4940TIP3    H136379   4.398   4.913   6.929
 4940TIP3    H236380   4.438   4.848   7.059
 4941TIP3   OH236381   4.161   1.637   0.983
 4941TIP3    H136382   4.203   1.712   0.940
 4941TIP3    H236383   4.232   1.595   1.032
 4942TIP3   OH236384   1.160   2.759   0.159
 4942TIP3    H136385   1.151   2.843   0.204
 4942TIP3    H236386   1.247   2.728   0.182
 4943TIP3   OH236387   6.079   1.683   2.311
 4943TIP3    H136388   6.030   1.701   2.391
 4943TIP3    H236389   6.074   1.588   2.301
 4944TIP3   OH236390   5.011   0.613   2.442
 4944TIP3    H136391   4.954   0.654   2.507
 4944TIP3    H236392   5.043   0.685   2.388
 4945TIP3   OH236393   0.836   5.698   1.477
 4945TIP3    H136394   0.800   5.744   1.402
 4945TIP3    H236395   0.923   5.736   1.490
 4946TIP3   OH236396   2.917   1.464   1.448
 4946TIP3    H136397   2.937   1.551   1.414
 4946TIP3    H236398   2.928   1.406   1.372
 4947TIP3   OH236399   5.530   1.042   0.050
 4947TIP3    H136400   5.480   1.114   0.089
 4947TIP3    H236401   5.583   1.008   0.122
 4948TIP3   OH236402   0.375   4.390   1.392
 4948TIP3    H136403   0.385   4.409   1.299
 4948TIP3    H236404   0.300   4.331   1.396
 4949TIP3   OH236405   3.752   4.210   7.697
 4949TIP3    H136406   3.674   4.187   7.748
 4949TIP3    H236407   3.718   4.233   7.610
 4950TIP3   OH236408   0.025   4.616   2.429
 4950TIP3    H136409   0.074   4.629   2.510
 4950TIP3    H236410   0.085   4.640   2.359
 4951TIP3   OH236411   3.157   5.943   8.267
 4951TIP3    H136412   3.202   5.982   8.342
 4951TIP3    H236413   3.064   5.957   8.285
 4952TIP3   OH236414   6.152   1.276   2.046
 4952TIP3    H136415   6.125   1.189   2.074
 4952TIP3    H236416   6.232   1.262   1.995
 4953TIP3   OH236417   1.296   0.241   6.429
 4953TIP3    H136418   1.255   0.157   6.408
 4953TIP3    H236419   1.320   0.278   6.344
 4954TIP3   OH236420   0.304   4.963   2.144
 4954TIP3    H136421   0.339   4.919   2.067
 4954TIP3    H236422   0.355   5.044   2.151
 4955TIP3   OH236423   3.229   1.785   0.666
 4955TIP3    H136424   3.271   1.756   0.747
 4955TIP3    H236425   3.285   1.752   0.596
 4956TIP3   OH236426   2.196   1.427   8.675
 4956TIP3    H136427   2.275   1.473   8.705
 4956TIP3    H236428   2.149   1.407   0.030
 4957TIP3   OH236429   4.499   5.593   1.776
 4957TIP3    H136430   4.532   5.663   1.832
 4957TIP3    H236431   4.473   5.524   1.838
 4958TIP3   OH236432   4.840   3.936   0.955
 4958TIP3    H136433   4.876   3.852   0.929
 4958TIP3    H236434   4.867   3.997   0.887
 4959TIP3   OH236435   5.012   2.171   8.063
 4959TIP3    H136436   4.944   2.193   8.127
 4959TIP3    H236437   5.034   2.080   8.081
 4960TIP3   OH236438   5.524   3.421   0.770
 4960TIP3    H136439   5.577   3.430   0.849
 4960TIP3    H236440   5.514   3.511   0.738
 4961TIP3   OH236441   3.039   3.614   6.413
 4961TIP3    H136442   2.981   3.616   6.489
 4961TIP3    H236443   3.121   3.576   6.445
 4962TIP3   OH236444   6.073   3.143   6.621
 4962TIP3    H136445   6.055   3.171   6.532
 4962TIP3    H236446   5.999   3.175   6.672
 4963TIP3   OH236447   3.373   5.730   7.761
 4963TIP3    H136448   3.447   5.673   7.783
 4963TIP3    H236449   3.311   5.672   7.716
 4964TIP3   OH236450   1.442   1.322   2.281
 4964TIP3    H136451   1.367   1.277   2.320
 4964TIP3    H236452   1.403   1.381   2.216
 4965TIP3   OH236453   6.326   2.663   7.202
 4965TIP3    H136454   6.325   2.595   7.134
 4965TIP3    H236455   6.288   2.740   7.159
 4966TIP3   OH236456   0.297   3.704   8.133
 4966TIP3    H136457   0.330   3.628   8.180
 4966TIP3    H236458   0.324   3.779   8.187
 4967TIP3   OH236459   3.711   3.073   6.926
 4967TIP3    H136460   3.771   2.998   6.925
 4967TIP3    H236461   3.742   3.127   6.999
 4968TIP3   OH236462   5.942   1.019   2.060
 4968TIP3    H136463   5.943   0.925   2.076
 4968TIP3    H236464   5.915   1.058   2.143
 4969TIP3   OH236465   3.800   0.577   1.791
 4969TIP3    H136466   3.847   0.659   1.802
 4969TIP3    H236467   3.739   0.573   1.865
 4970TIP3   OH236468   1.142   1.140   7.307
 4970TIP3    H136469   1.113   1.083   7.378
 4970TIP3    H236470   1.084   1.121   7.234
 4971TIP3   OH236471   3.532   5.901   7.232
 4971TIP3    H136472   3.506   5.955   7.158
 4971TIP3    H236473   3.557   5.817   7.193
 4972TIP3   OH236474   6.553   5.317   6.366
 4972TIP3    H136475   6.509   5.386   6.315
 4972TIP3    H236476   6.645   5.344   6.369
 4973TIP3   OH236477   5.209   0.340   1.556
 4973TIP3    H136478   5.140   0.368   1.616
 4973TIP3    H236479   5.193   0.246   1.545
 4974TIP3   OH236480   0.721   2.348   1.209
 4974TIP3    H136481   0.790   2.382   1.151
 4974TIP3    H236482   0.672   2.287   1.154
 4975TIP3   OH236483   6.487   1.912   1.699
 4975TIP3    H136484   6.442   1.862   1.768
 4975TIP3    H236485   6.436   1.993   1.693
 4976TIP3   OH236486   5.244   1.444   7.385
 4976TIP3    H136487   5.225   1.367   7.439
 4976TIP3    H236488   5.267   1.409   7.299
 4977TIP3   OH236489   6.799   3.482   8.105
 4977TIP3    H136490   6.765   3.393   8.094
 4977TIP3    H236491   6.826   3.486   8.196
 4978TIP3   OH236492   1.053   0.784   0.052
 4978TIP3    H136493   1.039   0.786   0.146
 4978TIP3    H236494   1.139   0.825   0.039
 4979TIP3   OH236495   2.677   5.176   7.332
 4979TIP3    H136496   2.720   5.202   7.251
 4979TIP3    H236497   2.748   5.147   7.389
 4980TIP3   OH236498   0.713   4.185   8.121
 4980TIP3    H136499   0.789   4.143   8.160
 4980TIP3    H236500   0.666   4.114   8.077
 4981TIP3   OH236501   2.349   6.369   0.923
 4981TIP3    H136502   2.416   6.435   0.938
 4981TIP3    H236503   2.268   6.408   0.958
 4982TIP3   OH236504   3.949   4.958   1.545
 4982TIP3    H136505   3.982   4.873   1.576
 4982TIP3    H236506   4.004   5.023   1.589
 4983TIP3   OH236507   0.046   0.980   0.740
 4983TIP3    H136508   0.015   1.049   0.681
 4983TIP3    H236509   0.102   0.925   0.686
 4984TIP3   OH236510   2.974   3.108   8.412
 4984TIP3    H136511   2.899   3.082   8.465
 4984TIP3    H236512   3.050   3.095   8.469
 4985TIP3   OH236513   2.870   1.295   1.204
 4985TIP3    H136514   2.948   1.293   1.148
 4985TIP3    H236515   2.845   1.203   1.214
 4986TIP3   OH236516   1.919   6.746   7.457
 4986TIP3    H136517   1.884   6.738   7.368
 4986TIP3    H236518   2.013   6.735   7.447
 4987TIP3   OH236519   5.174   5.572   8.077
 4987TIP3    H136520   5.125   5.649   8.047
 4987TIP3    H236521   5.188   5.520   7.998
 4988TIP3   OH236522   1.808   2.237   7.358
 4988TIP3    H136523   1.818   2.148   7.324
 4988TIP3    H236524   1.757   2.283   7.291
 4989TIP3   OH236525   3.859   0.111   6.721
 4989TIP3    H136526   3.920   0.099   6.648
 4989TIP3    H236527   3.833   0.022   6.745
 4990TIP3   OH236528   4.108   2.454   8.481
 4990TIP3    H136529   4.093   2.389   8.413
 4990TIP3    H236530   4.203   2.458   8.491
 4991TIP3   OH236531   2.122   3.128   7.878
 4991TIP3    H136532   2.153   3.216   7.858
 4991TIP3    H236533   2.201   3.076   7.889
 4992TIP3   OH236534   3.991   5.191   0.543
 4992TIP3    H136535   3.978   5.251   0.470
 4992TIP3    H236536   3.933   5.117   0.525
 4993TIP3   OH236537   6.413   3.362   8.050
 4993TIP3    H136538   6.495   3.317   8.068
 4993TIP3    H236539   6.439   3.450   8.023
 4994TIP3   OH236540   6.050   1.590   0.210
 4994TIP3    H136541   6.037   1.585   0.115
 4994TIP3    H236542   6.042   1.499   0.240
 4995TIP3   OH236543   3.449   0.005   8.596
 4995TIP3    H136544   3.356   0.017   8.613
 4995TIP3    H236545   3.480   0.092   8.571
 4996TIP3   OH236546   1.223   6.073   8.001
 4996TIP3    H136547   1.129   6.077   8.021
 4996TIP3    H236548   1.247   5.981   8.013
 4997TIP3   OH236549   5.780   3.664   7.257
 4997TIP3    H136550   5.801   3.603   7.328
 4997TIP3    H236551   5.866   3.690   7.223
 4998TIP3   OH236552   0.571   3.143   0.893
 4998TIP3    H136553   0.498   3.195   0.926
 4998TIP3    H236554   0.637   3.148   0.963
 4999TIP3   OH236555   1.021   3.568   7.210
 4999TIP3    H136556   0.942   3.604   7.169
 4999TIP3    H236557   1.092   3.590   7.151
 5000TIP3   OH236558   2.587   2.097   6.844
 5000TIP3    H136559   2.533   2.026   6.879
 5000TIP3    H236560   2.524   2.155   6.801
 5001TIP3   OH236561   6.480   1.356   1.131
 5001TIP3    H136562   6.560   1.374   1.182
 5001TIP3    H236563   6.454   1.268   1.159
 5002TIP3   OH236564   2.709   0.744   7.501
 5002TIP3    H136565   2.761   0.772   7.577
 5002TIP3    H236566   2.630   0.798   7.504
 5003TIP3   OH236567   3.871   3.774   0.460
 5003TIP3    H136568   3.889   3.702   0.520
 5003TIP3    H236569   3.921   3.848   0.495
 5004TIP3   OH236570   3.601   2.142   8.337
 5004TIP3    H136571   3.550   2.220   8.359
 5004TIP3    H236572   3.662   2.171   8.269
 5005TIP3   OH236573   5.066   3.755   0.381
 5005TIP3    H136574   5.107   3.669   0.394
 5005TIP3    H236575   4.990   3.737   0.325
 5006TIP3   OH236576   2.013   3.484   8.584
 5006TIP3    H136577   1.998   3.488   8.489
 5006TIP3    H236578   1.985   3.396   8.610
 5007TIP3   OH236579   2.514   4.668   1.552
 5007TIP3    H136580   2.509   4.750   1.503
 5007TIP3    H236581   2.571   4.688   1.626
 5008TIP3   OH236582   1.474   3.510   1.781
 5008TIP3    H136583   1.419   3.517   1.859
 5008TIP3    H236584   1.563   3.523   1.812
 5009TIP3   OH236585   1.036   6.136   0.498
 5009TIP3    H136586   1.061   6.208   0.556
 5009TIP3    H236587   1.118   6.105   0.461
 5010TIP3   OH236588   3.047   2.193   2.329
 5010TIP3    H136589   3.046   2.110   2.376
 5010TIP3    H236590   3.018   2.258   2.393
 5011TIP3   OH236591   3.950   3.649   0.201
 5011TIP3    H136592   4.021   3.585   0.208
 5011TIP3    H236593   3.936   3.679   0.291
 5012TIP3   OH236594   0.607   5.095   0.912
 5012TIP3    H136595   0.616   5.174   0.966
 5012TIP3    H236596   0.551   5.037   0.963
 5013TIP3   OH236597   6.747   1.971   1.126
 5013TIP3    H136598   6.813   2.004   1.187
 5013TIP3    H236599   6.718   2.048   1.078
 5014TIP3   OH236600   0.198   0.116   1.820
 5014TIP3    H136601   0.113   0.159   1.814
 5014TIP3    H236602   0.190   0.038   1.765
 5015TIP3   OH236603   1.887   5.878   1.198
 5015TIP3    H136604   1.904   5.810   1.262
 5015TIP3    H236605   1.937   5.852   1.121
 5016TIP3   OH236606   1.839   3.191   0.735
 5016TIP3    H136607   1.806   3.260   0.678
 5016TIP3    H236608   1.914   3.230   0.779
 5017TIP3   OH236609   3.635   4.060   8.322
 5017TIP3    H136610   3.671   4.131   8.376
 5017TIP3    H236611   3.605   4.104   8.242
 5018TIP3   OH236612   0.557   2.625   7.143
 5018TIP3    H136613   0.607   2.705   7.130
 5018TIP3    H236614   0.556   2.611   7.237
 5019TIP3   OH236615   0.399   3.077   7.526
 5019TIP3    H136616   0.487   3.058   7.491
 5019TIP3    H236617   0.385   3.169   7.504
 5020TIP3   OH236618   2.031   1.587   8.203
 5020TIP3    H136619   1.990   1.635   8.131
 5020TIP3    H236620   2.003   1.635   8.282
 5021TIP3   OH236621   1.635   5.853   0.019
 5021TIP3    H136622   1.576   5.839   8.671
 5021TIP3    H236623   1.632   5.948   0.034
 5022TIP3   OH236624   5.472   6.641   0.841
 5022TIP3    H136625   5.549   6.682   0.803
 5022TIP3    H236626   5.503   6.602   0.923
 5023TIP3   OH236627   2.088   0.968   8.172
 5023TIP3    H136628   2.041   0.888   8.195
 5023TIP3    H236629   2.148   0.942   8.103
 5024TIP3   OH236630   2.675   5.529   7.235
 5024TIP3    H136631   2.727   5.513   7.314
 5024TIP3    H236632   2.725   5.594   7.186
 5025TIP3   OH236633   0.529   0.167   8.525
 5025TIP3    H136634   0.612   0.119   8.514
 5025TIP3    H236635   0.462   0.107   8.492
 5026TIP3   OH236636   4.428   5.908   6.625
 5026TIP3    H136637   4.477   5.892   6.706
 5026TIP3    H236638   4.418   5.821   6.585
 5027TIP3   OH236639   1.864   4.497   1.712
 5027TIP3    H136640   1.909   4.569   1.757
 5027TIP3    H236641   1.795   4.471   1.772
 5028TIP3   OH236642   4.153   2.797   0.449
 5028TIP3    H136643   4.228   2.739   0.434
 5028TIP3    H236644   4.131   2.831   0.363
 5029TIP3   OH236645   1.373   2.071   0.384
 5029TIP3    H136646   1.382   2.146   0.325
 5029TIP3    H236647   1.328   2.107   0.460
 5030TIP3   OH236648   1.709   5.316   7.595
 5030TIP3    H136649   1.705   5.399   7.644
 5030TIP3    H236650   1.671   5.336   7.510
 5031TIP3   OH236651   3.152   2.689   1.307
 5031TIP3    H136652   3.169   2.716   1.397
 5031TIP3    H236653   3.059   2.708   1.293
 5032TIP3   OH236654   3.838   6.106   0.204
 5032TIP3    H136655   3.844   6.077   0.113
 5032TIP3    H236656   3.922   6.081   0.242
 5033TIP3   OH236657   0.984   3.903   1.465
 5033TIP3    H136658   0.920   3.908   1.394
 5033TIP3    H236659   1.029   3.820   1.451
 5034TIP3   OH236660   1.725   6.149   7.018
 5034TIP3    H136661   1.731   6.230   6.968
 5034TIP3    H236662   1.786   6.161   7.090
 5035TIP3   OH236663   5.972   3.756   7.814
 5035TIP3    H136664   5.914   3.831   7.828
 5035TIP3    H236665   5.926   3.682   7.854
 5036TIP3   OH236666   1.352   1.577   8.532
 5036TIP3    H136667   1.335   1.650   8.592
 5036TIP3    H236668   1.270   1.528   8.529
 5037TIP3   OH236669   3.038   4.336   7.889
 5037TIP3    H136670   2.983   4.282   7.946
 5037TIP3    H236671   2.975   4.381   7.832
 5038TIP3   OH236672   4.766   2.363   0.569
 5038TIP3    H136673   4.726   2.286   0.529
 5038TIP3    H236674   4.854   2.334   0.595
 5039TIP3   OH236675   3.201   2.158   7.565
 5039TIP3    H136676   3.239   2.165   7.652
 5039TIP3    H236677   3.203   2.247   7.530
 5040TIP3   OH236678   1.686   5.568   0.043
 5040TIP3    H136679   1.592   5.575   0.061
 5040TIP3    H236680   1.698   5.620   8.689
 5041TIP3   OH236681   1.432   4.607   7.971
 5041TIP3    H136682   1.526   4.603   7.990
 5041TIP3    H236683   1.420   4.691   7.926
 5042TIP3   OH236684   0.235   5.324   0.078
 5042TIP3    H136685   0.182   5.402   0.062
 5042TIP3    H236686   0.277   5.307   8.720
 5043TIP3   OH236687   1.289   4.928   6.816
 5043TIP3    H136688   1.355   4.914   6.748
 5043TIP3    H236689   1.220   4.979   6.773
 5044TIP3   OH236690   1.018   1.273   6.878
 5044TIP3    H136691   1.020   1.276   6.782
 5044TIP3    H236692   0.999   1.363   6.904
 5045TIP3   OH236693   4.002   6.491   1.333
 5045TIP3    H136694   3.916   6.481   1.376
 5045TIP3    H236695   4.020   6.585   1.339
 5046TIP3   OH236696   4.762   3.126   8.692
 5046TIP3    H136697   4.670   3.101   8.681
 5046TIP3    H236698   4.763   3.220   8.672
 5047TIP3   OH236699   1.213   0.840   7.190
 5047TIP3    H136700   1.305   0.859   7.211
 5047TIP3    H236701   1.179   0.799   7.270
 5048TIP3   OH236702   6.799   4.207   1.595
 5048TIP3    H136703   6.734   4.232   1.661
 5048TIP3    H236704   6.765   4.124   1.560
 5049TIP3   OH236705   0.828   1.910   7.937
 5049TIP3    H136706   0.902   1.939   7.885
 5049TIP3    H236707   0.838   1.954   8.021
 5050TIP3   OH236708   5.311   1.301   7.175
 5050TIP3    H136709   5.244   1.247   7.133
 5050TIP3    H236710   5.389   1.245   7.177
 5051TIP3   OH236711   2.593   0.277   1.188
 5051TIP3    H136712   2.520   0.253   1.130
 5051TIP3    H236713   2.598   0.372   1.183
 5052TIP3   OH236714   5.238   0.599   0.575
 5052TIP3    H136715   5.162   0.547   0.550
 5052TIP3    H236716   5.281   0.546   0.642
 5053TIP3   OH236717   2.739   1.385   2.542
 5053TIP3    H136718   2.681   1.309   2.554
 5053TIP3    H236719   2.680   1.456   2.515
 5054TIP3   OH236720   2.610   5.516   1.102
 5054TIP3    H136721   2.683   5.467   1.064
 5054TIP3    H236722   2.613   5.601   1.058
 5055TIP3   OH236723   3.515   1.632   0.012
 5055TIP3    H136724   3.608   1.655   0.016
 5055TIP3    H236725   3.472   1.712   8.708
 5056TIP3   OH236726   6.344   0.885   2.724
 5056TIP3    H136727   6.277   0.952   2.712
 5056TIP3    H236728   6.309   0.829   2.793
 5057TIP3   OH236729   6.718   0.866   2.047
 5057TIP3    H136730   6.810   0.850   2.023
 5057TIP3    H236731   6.683   0.917   1.974
 5058TIP3   OH236732   0.949   0.836   8.365
 5058TIP3    H136733   1.008   0.911   8.362
 5058TIP3    H236734   0.916   0.828   8.275
 5059TIP3   OH236735   5.806   2.924   7.741
 5059TIP3    H136736   5.838   2.901   7.829
 5059TIP3    H236737   5.885   2.947   7.692
 5060TIP3   OH236738   0.268   4.135   7.448
 5060TIP3    H136739   0.220   4.145   7.531
 5060TIP3    H236740   0.316   4.217   7.438
 5061TIP3   OH236741   6.530   3.441   0.187
 5061TIP3    H136742   6.534   3.457   0.281
 5061TIP3    H236743   6.503   3.350   0.179
 5062TIP3   OH236744   2.288   5.146   7.455
 5062TIP3    H136745   2.358   5.130   7.518
 5062TIP3    H236746   2.323   5.114   7.372
 5063TIP3   OH236747   3.784   1.328   7.943
 5063TIP3    H136748   3.755   1.395   8.005
 5063TIP3    H236749   3.720   1.258   7.952
 5064TIP3   OH236750   1.691   6.349   7.749
 5064TIP3    H136751   1.721   6.435   7.717
 5064TIP3    H236752   1.598   6.346   7.726
 5065TIP3   OH236753   5.079   1.618   0.662
 5065TIP3    H136754   5.008   1.595   0.721
 5065TIP3    H236755   5.137   1.542   0.664
 5066TIP3   OH236756   2.371   5.670   1.814
 5066TIP3    H136757   2.307   5.626   1.758
 5066TIP3    H236758   2.346   5.646   1.903
 5067TIP3   OH236759   4.057   0.224   7.165
 5067TIP3    H136760   3.965   0.209   7.144
 5067TIP3    H236761   4.081   0.150   7.220
 5068TIP3   OH236762   5.040   0.493   8.077
 5068TIP3    H136763   5.009   0.406   8.102
 5068TIP3    H236764   4.977   0.522   8.011
 5069TIP3   OH236765   5.512   6.675   0.556
 5069TIP3    H136766   5.495   6.621   0.478
 5069TIP3    H236767   5.425   6.690   0.593
 5070TIP3   OH236768   3.489   4.739   6.664
 5070TIP3    H136769   3.551   4.669   6.687
 5070TIP3    H236770   3.489   4.740   6.568
 5071TIP3   OH236771   6.151   5.258   7.606
 5071TIP3    H136772   6.127   5.254   7.698
 5071TIP3    H236773   6.223   5.196   7.598
 5072TIP3   OH236774   4.201   0.000   1.852
 5072TIP3    H136775   4.240   6.814   1.929
 5072TIP3    H236776   4.109   0.012   1.875
 5073TIP3   OH236777   4.088   4.045   8.231
 5073TIP3    H136778   4.012   4.000   8.268
 5073TIP3    H236779   4.108   3.997   8.151
 5074TIP3   OH236780   4.270   0.401   7.170
 5074TIP3    H136781   4.200   0.352   7.128
 5074TIP3    H236782   4.298   0.345   7.242
 5075TIP3   OH236783   4.292   1.761   6.641
 5075TIP3    H136784   4.324   1.779   6.553
 5075TIP3    H236785   4.367   1.723   6.687
 5076TIP3   OH236786   1.041   6.757   0.349
 5076TIP3    H136787   1.102   6.755   0.275
 5076TIP3    H236788   1.055   6.672   0.392
 5077TIP3   OH236789   6.507   5.349   1.595
 5077TIP3    H136790   6.441   5.358   1.664
 5077TIP3    H236791   6.560   5.429   1.603
 5078TIP3   OH236792   3.575   0.277   0.172
 5078TIP3    H136793   3.545   0.367   0.156
 5078TIP3    H236794   3.608   0.278   0.262
 5079TIP3   OH236795   2.485   5.208   1.629
 5079TIP3    H136796   2.565   5.170   1.665
 5079TIP3    H236797   2.415   5.149   1.659
 5080TIP3   OH236798   5.563   3.087   7.831
 5080TIP3    H136799   5.576   3.181   7.840
 5080TIP3    H236800   5.636   3.058   7.777
 5081TIP3   OH236801   1.413   0.409   6.210
 5081TIP3    H136802   1.482   0.439   6.269
 5081TIP3    H236803   1.371   0.490   6.180
 5082TIP3   OH236804   3.213   1.060   7.597
 5082TIP3    H136805   3.176   0.984   7.553
 5082TIP3    H236806   3.192   1.047   7.689
 5083TIP3   OH236807   0.441   1.778   6.734
 5083TIP3    H136808   0.531   1.748   6.722
 5083TIP3    H236809   0.396   1.753   6.653
 5084TIP3   OH236810   3.659   1.131   0.814
 5084TIP3    H136811   3.601   1.055   0.819
 5084TIP3    H236812   3.626   1.191   0.881
 5085TIP3   OH236813   4.283   1.896   0.058
 5085TIP3    H136814   4.214   1.891   8.718
 5085TIP3    H236815   4.243   1.942   0.132
 5086TIP3   OH236816   0.061   2.281   8.343
 5086TIP3    H136817   6.845   2.264   8.406
 5086TIP3    H236818   0.028   2.249   8.260
 5087TIP3   OH236819   4.859   3.000   6.785
 5087TIP3    H136820   4.781   3.048   6.759
 5087TIP3    H236821   4.928   3.067   6.785
 5088TIP3   OH236822   0.572   3.969   8.013
 5088TIP3    H136823   0.486   3.986   8.050
 5088TIP3    H236824   0.604   3.892   8.059
 5089TIP3   OH236825   6.614   5.429   1.959
 5089TIP3    H136826   6.671   5.367   1.913
 5089TIP3    H236827   6.545   5.375   1.996
 5090TIP3   OH236828   0.216   2.540   7.295
 5090TIP3    H136829   0.268   2.473   7.251
 5090TIP3    H236830   0.274   2.576   7.362
 5091TIP3   OH236831   1.964   3.646   0.510
 5091TIP3    H136832   1.979   3.711   0.441
 5091TIP3    H236833   2.025   3.576   0.490
 5092TIP3   OH236834   0.821   4.199   0.961
 5092TIP3    H136835   0.737   4.198   1.007
 5092TIP3    H236836   0.822   4.284   0.916
 5093TIP3   OH236837   0.460   5.448   0.822
 5093TIP3    H136838   0.512   5.423   0.745
 5093TIP3    H236839   0.504   5.406   0.896
 5094TIP3   OH236840   4.044   4.770   6.852
 5094TIP3    H136841   3.958   4.770   6.810
 5094TIP3    H236842   4.106   4.761   6.779
 5095TIP3   OH236843   5.689   6.634   8.663
 5095TIP3    H136844   5.769   6.674   8.698
 5095TIP3    H236845   5.688   6.546   8.700
 5096TIP3   OH236846   3.943   0.392   1.520
 5096TIP3    H136847   3.871   0.336   1.547
 5096TIP3    H236848   4.016   0.332   1.504
 5097TIP3   OH236849   0.153   3.033   2.073
 5097TIP3    H136850   0.087   3.038   2.005
 5097TIP3    H236851   0.118   3.084   2.146
 5098TIP3   OH236852   1.664   4.006   7.529
 5098TIP3    H136853   1.575   4.010   7.494
 5098TIP3    H236854   1.669   3.921   7.572
 5099TIP3   OH236855   2.521   0.410   0.240
 5099TIP3    H136856   2.568   0.399   0.157
 5099TIP3    H236857   2.507   0.321   0.272
 5100TIP3   OH236858   1.887   0.190   1.097
 5100TIP3    H136859   1.913   0.167   1.008
 5100TIP3    H236860   1.934   0.128   1.152
 5101TIP3   OH236861   2.342   1.963   1.683
 5101TIP3    H136862   2.395   1.958   1.603
 5101TIP3    H236863   2.354   2.053   1.713
 5102TIP3   OH236864   0.579   6.017   8.376
 5102TIP3    H136865   0.649   6.024   8.441
 5102TIP3    H236866   0.541   6.104   8.371
 5103TIP3   OH236867   3.674   0.517   6.760
 5103TIP3    H136868   3.644   0.573   6.689
 5103TIP3    H236869   3.751   0.471   6.724
 5104TIP3   OH236870   6.225   3.202   7.910
 5104TIP3    H136871   6.289   3.273   7.921
 5104TIP3    H236872   6.207   3.200   7.816
 5105TIP3   OH236873   1.161   1.428   0.125
 5105TIP3    H136874   1.248   1.466   0.135
 5105TIP3    H236875   1.175   1.346   0.077
 5106TIP3   OH236876   5.578   2.575   8.016
 5106TIP3    H136877   5.517   2.568   8.089
 5106TIP3    H236878   5.554   2.657   7.972
 5107TIP3   OH236879   5.012   1.539   1.702
 5107TIP3    H136880   5.087   1.597   1.712
 5107TIP3    H236881   5.045   1.452   1.724
 5108TIP3   OH236882   3.082   4.155   1.013
 5108TIP3    H136883   3.074   4.062   1.036
 5108TIP3    H236884   3.011   4.171   0.952
 5109TIP3   OH236885   4.166   1.685   8.488
 5109TIP3    H136886   4.143   1.601   8.448
 5109TIP3    H236887   4.122   1.750   8.434
 5110TIP3   OH236888   5.885   6.745   1.078
 5110TIP3    H136889   5.912   6.836   1.095
 5110TIP3    H236890   5.820   6.752   1.009
 5111TIP3   OH236891   2.031   3.465   1.063
 5111TIP3    H136892   2.012   3.424   1.147
 5111TIP3    H236893   2.093   3.405   1.021
 5112TIP3   OH236894   4.577   6.507   7.861
 5112TIP3    H136895   4.518   6.579   7.880
 5112TIP3    H236896   4.520   6.429   7.859
 5113TIP3   OH236897   6.024   5.487   1.348
 5113TIP3    H136898   5.948   5.500   1.404
 5113TIP3    H236899   6.084   5.434   1.399
 5114TIP3   OH236900   4.745   4.226   7.821
 5114TIP3    H136901   4.696   4.161   7.770
 5114TIP3    H236902   4.701   4.309   7.803
 5115TIP3   OH236903   5.137   6.601   8.623
 5115TIP3    H136904   5.163   6.553   8.701
 5115TIP3    H236905   5.073   6.665   8.654
 5116TIP3   OH236906   4.097   2.558   6.859
 5116TIP3    H136907   4.090   2.620   6.786
 5116TIP3    H236908   4.191   2.541   6.867
 5117TIP3   OH236909   0.280   4.630   6.705
 5117TIP3    H136910   0.254   4.538   6.714
 5117TIP3    H236911   0.359   4.627   6.651
 5118TIP3   OH236912   4.482   3.055   0.827
 5118TIP3    H136913   4.541   3.123   0.860
 5118TIP3    H236914   4.426   3.033   0.902
 5119TIP3   OH236915   2.375   6.740   2.422
 5119TIP3    H136916   2.299   6.798   2.416
 5119TIP3    H236917   2.449   6.800   2.433
 5120TIP3   OH236918   1.258   4.640   0.411
 5120TIP3    H136919   1.181   4.587   0.388
 5120TIP3    H236920   1.260   4.709   0.345
 5121TIP3   OH236921   3.372   3.926   8.361
 5121TIP3    H136922   3.367   3.951   8.269
 5121TIP3    H236923   3.459   3.954   8.389
 5122TIP3   OH236924   1.272   2.106   0.643
 5122TIP3    H136925   1.269   2.010   0.643
 5122TIP3    H236926   1.183   2.133   0.622
 5123TIP3   OH236927   4.354   2.674   7.090
 5123TIP3    H136928   4.343   2.609   7.021
 5123TIP3    H236929   4.288   2.651   7.155
 5124TIP3   OH236930   4.978   6.150   8.718
 5124TIP3    H136931   5.010   6.060   8.713
 5124TIP3    H236932   5.000   6.179   0.080
 5125TIP3   OH236933   5.906   6.749   2.813
 5125TIP3    H136934   6.000   6.759   2.796
 5125TIP3    H236935   5.872   6.838   2.804
 5126TIP3   OH236936   0.705   2.768   0.921
 5126TIP3    H136937   0.721   2.794   0.830
 5126TIP3    H236938   0.789   2.781   0.965
 5127TIP3   OH236939   1.608   1.607   0.481
 5127TIP3    H136940   1.565   1.689   0.458
 5127TIP3    H236941   1.699   1.632   0.496
 5128TIP3   OH236942   0.523   4.272   0.108
 5128TIP3    H136943   0.522   4.212   0.183
 5128TIP3    H236944   0.501   4.357   0.145
 5129TIP3   OH236945   5.973   6.058   0.320
 5129TIP3    H136946   5.930   6.075   0.236
 5129TIP3    H236947   5.903   6.028   0.378
 5130TIP3   OH236948   5.101   2.336   0.844
 5130TIP3    H136949   5.161   2.348   0.918
 5130TIP3    H236950   5.125   2.407   0.783
 5131TIP3   OH236951   0.968   4.745   6.352
 5131TIP3    H136952   0.937   4.829   6.387
 5131TIP3    H236953   1.064   4.754   6.351
 5132TIP3   OH236954   5.975   6.424   7.987
 5132TIP3    H136955   5.934   6.410   8.072
 5132TIP3    H236956   6.067   6.444   8.007
 5133TIP3   OH236957   4.477   1.115   0.684
 5133TIP3    H136958   4.542   1.076   0.743
 5133TIP3    H236959   4.433   1.040   0.644
 5134TIP3   OH236960   1.873   0.505   1.389
 5134TIP3    H136961   1.804   0.480   1.327
 5134TIP3    H236962   1.903   0.422   1.425
 5135TIP3   OH236963   1.230   2.839   0.468
 5135TIP3    H136964   1.296   2.904   0.491
 5135TIP3    H236965   1.274   2.780   0.407
 5136TIP3   OH236966   2.181   0.314   6.492
 5136TIP3    H136967   2.186   0.218   6.487
 5136TIP3    H236968   2.238   0.337   6.564
 5137TIP3   OH236969   5.062   4.150   7.492
 5137TIP3    H136970   4.987   4.183   7.443
 5137TIP3    H236971   5.111   4.228   7.517
 5138TIP3   OH236972   6.229   5.969   0.872
 5138TIP3    H136973   6.248   6.062   0.886
 5138TIP3    H236974   6.216   5.934   0.960
 5139TIP3   OH236975   2.260   0.208   1.662
 5139TIP3    H136976   2.209   0.172   1.735
 5139TIP3    H236977   2.198   0.265   1.616
 5140TIP3   OH236978   0.403   5.059   1.520
 5140TIP3    H136979   0.370   5.133   1.571
 5140TIP3    H236980   0.479   5.094   1.474
 5141TIP3   OH236981   5.248   5.127   7.175
 5141TIP3    H136982   5.340   5.102   7.180
 5141TIP3    H236983   5.215   5.116   7.265
 5142TIP3   OH236984   5.460   3.784   1.107
 5142TIP3    H136985   5.446   3.711   1.168
 5142TIP3    H236986   5.555   3.788   1.097
 5143TIP3   OH236987   5.440   2.973   0.443
 5143TIP3    H136988   5.445   3.058   0.486
 5143TIP3    H236989   5.420   2.993   0.352
 5144TIP3   OH236990   3.286   1.524   1.983
 5144TIP3    H136991   3.227   1.535   2.058
 5144TIP3    H236992   3.363   1.576   2.005
 5145TIP3   OH236993   5.518   5.838   8.075
 5145TIP3    H136994   5.463   5.797   8.009
 5145TIP3    H236995   5.531   5.928   8.043
 5146TIP3   OH236996   6.239   6.470   7.096
 5146TIP3    H136997   6.167   6.434   7.044
 5146TIP3    H236998   6.280   6.535   7.039
 5147TIP3   OH236999   4.454   3.527   7.084
 5147TIP3    H137000   4.433   3.571   7.001
 5147TIP3    H237001   4.517   3.585   7.126
 5148TIP3   OH237002   4.148   3.161   7.489
 5148TIP3    H137003   4.157   3.200   7.402
 5148TIP3    H237004   4.238   3.149   7.520
 5149TIP3   OH237005   3.812   3.704   6.838
 5149TIP3    H137006   3.889   3.759   6.823
 5149TIP3    H237007   3.830   3.659   6.920
 5150TIP3   OH237008   1.767   4.412   8.343
 5150TIP3    H137009   1.753   4.481   8.408
 5150TIP3    H237010   1.859   4.389   8.352
 5151TIP3   OH237011   4.202   4.394   7.738
 5151TIP3    H137012   4.111   4.400   7.766
 5151TIP3    H237013   4.249   4.455   7.795
 5152TIP3   OH237014   4.542   2.831   7.979
 5152TIP3    H137015   4.477   2.837   8.049
 5152TIP3    H237016   4.555   2.921   7.950
 5153TIP3   OH237017   1.075   6.758   0.000
 5153TIP3    H137018   1.159   6.752   0.045
 5153TIP3    H237019   1.090   6.823   8.657
 5154TIP3   OH237020   4.671   0.606   0.647
 5154TIP3    H137021   4.584   0.592   0.609
 5154TIP3    H237022   4.656   0.604   0.742
 5155TIP3   OH237023   4.972   4.941   8.600
 5155TIP3    H137024   4.918   4.865   8.621
 5155TIP3    H237025   4.924   5.016   8.635
 5156TIP3   OH237026   1.053   4.325   0.461
 5156TIP3    H137027   1.084   4.327   0.552
 5156TIP3    H237028   0.986   4.394   0.457
 5157TIP3   OH237029   3.758   4.997   0.594
 5157TIP3    H137030   3.748   4.930   0.526
 5157TIP3    H237031   3.673   5.042   0.596
 5158TIP3   OH237032   2.080   4.024   1.486
 5158TIP3    H137033   2.169   4.019   1.520
 5158TIP3    H237034   2.028   4.056   1.560
 5159TIP3   OH237035   2.379   2.975   1.856
 5159TIP3    H137036   2.462   3.020   1.867
 5159TIP3    H237037   2.346   3.005   1.771
 5160TIP3   OH237038   6.409   0.832   8.336
 5160TIP3    H137039   6.341   0.881   8.384
 5160TIP3    H237040   6.422   0.883   8.256
 5161TIP3   OH237041   3.527   0.681   7.386
 5161TIP3    H137042   3.480   0.751   7.340
 5161TIP3    H237043   3.523   0.607   7.326
 5162TIP3   OH237044   5.468   4.523   8.367
 5162TIP3    H137045   5.534   4.574   8.415
 5162TIP3    H237046   5.457   4.443   8.419
 5163TIP3   OH237047   2.727   2.467   0.440
 5163TIP3    H137048   2.718   2.372   0.433
 5163TIP3    H237049   2.776   2.492   0.362
 5164TIP3   OH237050   3.638   6.485   8.432
 5164TIP3    H137051   3.603   6.503   8.520
 5164TIP3    H237052   3.725   6.525   8.433
 5165TIP3   OH237053   4.075   2.507   0.307
 5165TIP3    H137054   4.048   2.421   0.339
 5165TIP3    H237055   4.139   2.538   0.371
 5166TIP3   OH237056   1.299   0.940   1.127
 5166TIP3    H137057   1.344   0.881   1.066
 5166TIP3    H237058   1.335   0.917   1.213
 5167TIP3   OH237059   5.039   4.691   8.397
 5167TIP3    H137060   5.094   4.746   8.453
 5167TIP3    H237061   4.999   4.628   8.458
 5168TIP3   OH237062   5.201   0.994   0.274
 5168TIP3    H137063   5.135   1.062   0.259
 5168TIP3    H237064   5.260   1.001   0.200
 5169TIP3   OH237065   1.446   6.240   7.672
 5169TIP3    H137066   1.367   6.256   7.621
 5169TIP3    H237067   1.491   6.169   7.626
 5170TIP3   OH237068   0.834   4.348   2.106
 5170TIP3    H137069   0.752   4.381   2.069
 5170TIP3    H237070   0.811   4.261   2.139
 5171TIP3   OH237071   6.623   6.485   0.906
 5171TIP3    H137072   6.553   6.500   0.841
 5171TIP3    H237073   6.704   6.504   0.858
 5172TIP3   OH237074   5.443   2.789   1.158
 5172TIP3    H137075   5.529   2.765   1.124
 5172TIP3    H237076   5.448   2.883   1.175
 5173TIP3   OH237077   2.582   5.814   0.011
 5173TIP3    H137078   2.545   5.779   0.092
 5173TIP3    H237079   2.542   5.901   0.003
 5174TIP3   OH237080   1.573   0.312   1.546
 5174TIP3    H137081   1.611   0.297   1.459
 5174TIP3    H237082   1.565   0.225   1.584
 5175TIP3   OH237083   3.935   4.305   2.195
 5175TIP3    H137084   3.869   4.297   2.264
 5175TIP3    H237085   3.885   4.305   2.114
 5176TIP3   OH237086   4.543   3.261   1.404
 5176TIP3    H137087   4.516   3.314   1.329
 5176TIP3    H237088   4.632   3.289   1.423
 5177TIP3   OH237089   0.173   1.398   0.852
 5177TIP3    H137090   0.249   1.368   0.802
 5177TIP3    H237091   0.208   1.421   0.938
 5178TIP3   OH237092   5.277   6.118   0.535
 5178TIP3    H137093   5.317   6.046   0.584
 5178TIP3    H237094   5.200   6.079   0.493
 5179TIP3   OH237095   5.525   3.199   0.554
 5179TIP3    H137096   5.597   3.136   0.558
 5179TIP3    H237097   5.538   3.256   0.629
 5180TIP3   OH237098   6.816   3.695   6.458
 5180TIP3    H137099   0.021   3.665   6.528
 5180TIP3    H237100   6.841   3.786   6.443
 5181TIP3   OH237101   6.027   1.059   1.280
 5181TIP3    H137102   5.952   1.052   1.338
 5181TIP3    H237103   6.101   1.077   1.339
 5182TIP3   OH237104   5.693   5.394   8.343
 5182TIP3    H137105   5.667   5.471   8.293
 5182TIP3    H237106   5.751   5.428   8.412
 5183TIP3   OH237107   1.901   6.276   7.979
 5183TIP3    H137108   1.921   6.196   8.028
 5183TIP3    H237109   1.807   6.291   7.996
 5184TIP3   OH237110   5.777   6.070   1.679
 5184TIP3    H137111   5.808   6.075   1.769
 5184TIP3    H237112   5.843   6.117   1.628
 5185TIP3   OH237113   3.669   6.813   8.169
 5185TIP3    H137114   3.585   6.853   8.148
 5185TIP3    H237115   3.657   6.720   8.150
 5186TIP3   OH237116   2.204   1.733   1.465
 5186TIP3    H137117   2.284   1.698   1.502
 5186TIP3    H237118   2.138   1.718   1.533
 5187TIP3   OH237119   4.767   5.705   0.481
 5187TIP3    H137120   4.759   5.610   0.484
 5187TIP3    H237121   4.826   5.721   0.407
 5188TIP3   OH237122   2.897   0.020   6.136
 5188TIP3    H137123   2.937   0.049   6.218
 5188TIP3    H237124   2.846   6.797   6.160
 5189TIP3   OH237125   6.486   4.479   0.112
 5189TIP3    H137126   6.463   4.388   0.134
 5189TIP3    H237127   6.426   4.532   0.164
 5190TIP3   OH237128   2.248   6.181   7.749
 5190TIP3    H137129   2.189   6.135   7.690
 5190TIP3    H237130   2.331   6.135   7.742
 5191TIP3   OH237131   5.720   4.158   0.848
 5191TIP3    H137132   5.775   4.079   0.846
 5191TIP3    H237133   5.645   4.134   0.902
 5192TIP3   OH237134   4.218   3.819   7.811
 5192TIP3    H137135   4.287   3.812   7.877
 5192TIP3    H237136   4.227   3.909   7.777
 5193TIP3   OH237137   5.288   3.296   7.735
 5193TIP3    H137138   5.374   3.313   7.774
 5193TIP3    H237139   5.306   3.241   7.660
 5194TIP3   OH237140   0.407   4.967   1.056
 5194TIP3    H137141   0.345   4.997   1.122
 5194TIP3    H237142   0.473   4.919   1.105
 5195TIP3   OH237143   1.445   6.035   7.255
 5195TIP3    H137144   1.354   6.008   7.245
 5195TIP3    H237145   1.445   6.128   7.234
 5196TIP3   OH237146   6.251   5.592   8.669
 5196TIP3    H137147   6.168   5.636   8.650
 5196TIP3    H237148   6.277   5.625   0.029
 5197TIP3   OH237149   5.406   2.659   6.266
 5197TIP3    H137150   5.387   2.738   6.316
 5197TIP3    H237151   5.322   2.613   6.260
 5198TIP3   OH237152   2.013   6.072   1.584
 5198TIP3    H137153   2.038   6.087   1.675
 5198TIP3    H237154   1.947   6.002   1.588
 5199TIP3   OH237155   4.834   0.955   7.843
 5199TIP3    H137156   4.863   0.953   7.934
 5199TIP3    H237157   4.747   0.915   7.844
 5200TIP3   OH237158   6.137   6.609   1.059
 5200TIP3    H137159   6.056   6.660   1.066
 5200TIP3    H237160   6.119   6.545   0.991
 5201TIP3   OH237161   3.473   6.084   7.456
 5201TIP3    H137162   3.449   6.003   7.411
 5201TIP3    H237163   3.532   6.129   7.396
 5202TIP3   OH237164   6.768   4.978   7.677
 5202TIP3    H137165   0.004   4.980   7.707
 5202TIP3    H237166   6.736   4.891   7.702
 5203TIP3   OH237167   5.007   3.011   1.799
 5203TIP3    H137168   4.977   2.969   1.880
 5203TIP3    H237169   5.050   3.092   1.829
 5204TIP3   OH237170   2.581   3.763   0.791
 5204TIP3    H137171   2.505   3.781   0.736
 5204TIP3    H237172   2.544   3.739   0.876
 5205TIP3   OH237173   2.854   3.175   0.250
 5205TIP3    H137174   2.897   3.163   0.335
 5205TIP3    H237175   2.906   3.241   0.205
 5206TIP3   OH237176   5.320   6.470   0.077
 5206TIP3    H137177   5.348   6.379   0.091
 5206TIP3    H237178   5.340   6.514   0.159
 5207TIP3   OH237179   1.677   0.120   0.849
 5207TIP3    H137180   1.677   0.027   0.873
 5207TIP3    H237181   1.584   0.144   0.846
 5208TIP3   OH237182   6.643   1.077   7.377
 5208TIP3    H137183   6.578   1.008   7.378
 5208TIP3    H237184   6.622   1.132   7.453
 5209TIP3   OH237185   3.103   3.999   7.146
 5209TIP3    H137186   3.120   4.089   7.118
 5209TIP3    H237187   3.040   4.007   7.217
 5210TIP3   OH237188   4.625   4.061   7.301
 5210TIP3    H137189   4.689   4.010   7.351
 5210TIP3    H237190   4.664   4.147   7.292
 5211TIP3   OH237191   3.201   6.276   8.279
 5211TIP3    H137192   3.169   6.365   8.293
 5211TIP3    H237193   3.182   6.231   8.361
 5212TIP3   OH237194   5.127   5.808   1.739
 5212TIP3    H137195   5.175   5.804   1.822
 5212TIP3    H237196   5.095   5.719   1.725
 5213TIP3   OH237197   6.202   3.327   0.098
 5213TIP3    H137198   6.188   3.324   0.193
 5213TIP3    H237199   6.218   3.236   0.074
 5214TIP3   OH237200   0.703   1.266   8.143
 5214TIP3    H137201   0.642   1.323   8.097
 5214TIP3    H237202   0.731   1.203   8.076
 5215TIP3   OH237203   3.371   0.006   7.288
 5215TIP3    H137204   3.394   0.098   7.272
 5215TIP3    H237205   3.284   6.851   7.250
 5216TIP3   OH237206   0.366   2.213   6.064
 5216TIP3    H137207   0.356   2.308   6.066
 5216TIP3    H237208   0.388   2.189   6.154
 5217TIP3   OH237209   3.163   4.428   0.992
 5217TIP3    H137210   3.088   4.481   0.967
 5217TIP3    H237211   3.125   4.344   1.020
 5218TIP3   OH237212   5.409   1.548   0.054
 5218TIP3    H137213   5.428   1.611   0.124
 5218TIP3    H237214   5.322   1.514   0.075
 5219TIP3   OH237215   4.646   0.619   0.909
 5219TIP3    H137216   4.592   0.648   0.983
 5219TIP3    H237217   4.709   0.690   0.897
 5220TIP3   OH237218   6.183   1.348   8.097
 5220TIP3    H137219   6.277   1.338   8.083
 5220TIP3    H237220   6.175   1.394   8.180
 5221TIP3   OH237221   6.175   3.932   1.221
 5221TIP3    H137222   6.103   3.944   1.284
 5221TIP3    H237223   6.212   3.846   1.243
 5222TIP3   OH237224   3.426   4.425   1.114
 5222TIP3    H137225   3.371   4.347   1.110
 5222TIP3    H237226   3.365   4.498   1.106
 5223TIP3   OH237227   5.616   5.269   1.249
 5223TIP3    H137228   5.710   5.285   1.248
 5223TIP3    H237229   5.594   5.256   1.341
 5224TIP3   OH237230   1.615   6.030   1.766
 5224TIP3    H137231   1.689   6.006   1.711
 5224TIP3    H237232   1.646   6.017   1.855
 5225TIP3   OH237233   4.224   3.939   7.491
 5225TIP3    H137234   4.205   4.033   7.492
 5225TIP3    H237235   4.316   3.934   7.463
 5226TIP3   OH237236   5.156   3.266   0.523
 5226TIP3    H137237   5.121   3.343   0.478
 5226TIP3    H237238   5.078   3.221   0.556
 5227TIP3   OH237239   1.225   1.945   1.061
 5227TIP3    H137240   1.227   2.014   1.128
 5227TIP3    H237241   1.294   1.971   1.000
 5228TIP3   OH237242   0.530   2.310   0.830
 5228TIP3    H137243   0.540   2.391   0.879
 5228TIP3    H237244   0.583   2.246   0.877
 5229TIP3   OH237245   2.914   3.804   0.324
 5229TIP3    H137246   2.837   3.825   0.270
 5229TIP3    H237247   2.879   3.780   0.409
 5230TIP3   OH237248   6.606   3.262   6.433
 5230TIP3    H137249   6.629   3.332   6.371
 5230TIP3    H237250   6.637   3.294   6.518
 5231TIP3   OH237251   5.687   1.785   7.921
 5231TIP3    H137252   5.710   1.861   7.868
 5231TIP3    H237253   5.646   1.724   7.859
 5232TIP3   OH237254   4.230   5.133   7.143
 5232TIP3    H137255   4.270   5.195   7.083
 5232TIP3    H237256   4.176   5.076   7.088
 5233TIP3   OH237257   6.527   0.911   7.675
 5233TIP3    H137258   6.489   0.950   7.754
 5233TIP3    H237259   6.587   0.844   7.707
 5234TIP3   OH237260   3.565   2.366   0.178
 5234TIP3    H137261   3.593   2.291   0.125
 5234TIP3    H237262   3.645   2.416   0.192
 5235TIP3   OH237263   0.270   3.042   0.210
 5235TIP3    H137264   0.343   3.032   0.149
 5235TIP3    H237265   0.305   3.093   0.282
 5236TIP3   OH237266   2.594   6.559   0.144
 5236TIP3    H137267   2.647   6.525   0.216
 5236TIP3    H237268   2.651   6.552   0.068
 5237TIP3   OH237269   5.716   4.505   8.211
 5237TIP3    H137270   5.627   4.473   8.225
 5237TIP3    H237271   5.733   4.562   8.286
 5238TIP3   OH237272   0.706   3.379   2.307
 5238TIP3    H137273   0.635   3.435   2.335
 5238TIP3    H237274   0.669   3.328   2.235
 5239TIP3   OH237275   2.091   0.429   0.508
 5239TIP3    H137276   2.162   0.367   0.526
 5239TIP3    H237277   2.063   0.408   0.419
 5240TIP3   OH237278   2.785   1.572   7.297
 5240TIP3    H137279   2.773   1.642   7.361
 5240TIP3    H237280   2.853   1.517   7.335
 5241TIP3   OH237281   0.186   1.260   7.606
 5241TIP3    H137282   0.119   1.290   7.668
 5241TIP3    H237283   0.137   1.219   7.535
 5242TIP3   OH237284   6.822   1.943   6.818
 5242TIP3    H137285   0.051   1.931   6.863
 5242TIP3    H237286   6.806   1.860   6.775
 5243TIP3   OH237287   1.014   3.139   1.264
 5243TIP3    H137288   1.055   3.083   1.198
 5243TIP3    H237289   1.009   3.225   1.223
 5244TIP3   OH237290   2.398   1.179   8.621
 5244TIP3    H137291   2.321   1.230   8.594
 5244TIP3    H237292   2.459   1.186   8.548
 5245TIP3   OH237293   4.493   3.394   0.003
 5245TIP3    H137294   4.515   3.348   0.085
 5245TIP3    H237295   4.398   3.404   0.007
 5246TIP3   OH237296   1.386   5.086   0.638
 5246TIP3    H137297   1.427   5.152   0.582
 5246TIP3    H237298   1.457   5.026   0.661
 5247TIP3   OH237299   1.669   6.431   1.398
 5247TIP3    H137300   1.633   6.445   1.485
 5247TIP3    H237301   1.762   6.411   1.412
 5248TIP3   OH237302   4.204   6.071   7.717
 5248TIP3    H137303   4.228   5.981   7.740
 5248TIP3    H237304   4.165   6.107   7.797
 5249TIP3   OH237305   3.067   0.553   6.964
 5249TIP3    H137306   2.993   0.514   6.917
 5249TIP3    H237307   3.040   0.643   6.980
 5250TIP3   OH237308   5.916   0.634   2.799
 5250TIP3    H137309   5.872   0.554   2.830
 5250TIP3    H237310   5.851   0.679   2.746
 5251TIP3   OH237311   5.745   1.428   0.467
 5251TIP3    H137312   5.698   1.351   0.435
 5251TIP3    H237313   5.805   1.394   0.533
 5252TIP3   OH237314   6.826   1.612   8.440
 5252TIP3    H137315   0.025   1.674   8.390
 5252TIP3    H237316   6.736   1.641   8.426
 5253TIP3   OH237317   1.454   5.873   1.647
 5253TIP3    H137318   1.460   5.904   1.557
 5253TIP3    H237319   1.503   5.937   1.698
 5254TIP3   OH237320   1.739   4.915   0.859
 5254TIP3    H137321   1.797   4.847   0.826
 5254TIP3    H237322   1.661   4.909   0.804
 5255TIP3   OH237323   0.870   2.440   8.527
 5255TIP3    H137324   0.877   2.346   8.512
 5255TIP3    H237325   0.788   2.451   8.577
 5256TIP3   OH237326   2.984   1.239   2.069
 5256TIP3    H137327   3.032   1.234   1.987
 5256TIP3    H237328   2.994   1.152   2.108
 5257TIP3   OH237329   2.182   3.922   6.927
 5257TIP3    H137330   2.273   3.916   6.898
 5257TIP3    H237331   2.159   3.832   6.954
 5258TIP3   OH237332   6.465   0.184   1.292
 5258TIP3    H137333   6.429   0.206   1.378
 5258TIP3    H237334   6.507   0.099   1.305
 5259TIP3   OH237335   3.781   1.032   6.521
 5259TIP3    H137336   3.862   1.057   6.476
 5259TIP3    H237337   3.790   1.070   6.608
 5260TIP3   OH237338   5.551   4.795   7.020
 5260TIP3    H137339   5.644   4.787   7.043
 5260TIP3    H237340   5.550   4.842   6.937
 5261TIP3   OH237341   2.434   1.381   7.841
 5261TIP3    H137342   2.356   1.351   7.794
 5261TIP3    H237343   2.409   1.377   7.933
 5262TIP3   OH237344   3.930   3.152   1.825
 5262TIP3    H137345   4.025   3.158   1.827
 5262TIP3    H237346   3.909   3.130   1.734
 5263TIP3   OH237347   3.753   3.534   1.897
 5263TIP3    H137348   3.731   3.625   1.876
 5263TIP3    H237349   3.832   3.542   1.951
 5264TIP3   OH237350   3.076   2.397   0.305
 5264TIP3    H137351   3.049   2.307   0.323
 5264TIP3    H237352   3.005   2.433   0.251
 5265TIP3   OH237353   6.645   0.404   0.953
 5265TIP3    H137354   6.678   0.327   0.907
 5265TIP3    H237355   6.655   0.384   1.045
 5266TIP3   OH237356   5.758   2.200   8.525
 5266TIP3    H137357   5.830   2.145   8.495
 5266TIP3    H237358   5.787   2.233   8.610
 5267TIP3   OH237359   3.058   6.506   8.340
 5267TIP3    H137360   3.056   6.588   8.290
 5267TIP3    H237361   3.044   6.533   8.430
 5268TIP3   OH237362   0.365   0.241   1.652
 5268TIP3    H137363   0.454   0.210   1.669
 5268TIP3    H237364   0.311   0.194   1.714
 5269TIP3   OH237365   1.639   5.617   6.942
 5269TIP3    H137366   1.687   5.588   6.864
 5269TIP3    H237367   1.704   5.661   6.996
 5270TIP3   OH237368   3.697   1.669   0.656
 5270TIP3    H137369   3.716   1.575   0.648
 5270TIP3    H237370   3.782   1.711   0.657
 5271TIP3   OH237371   6.157   6.041   7.486
 5271TIP3    H137372   6.172   5.961   7.435
 5271TIP3    H237373   6.084   6.020   7.544
 5272TIP3   OH237374   3.494   3.051   6.797
 5272TIP3    H137375   3.446   3.128   6.828
 5272TIP3    H237376   3.580   3.058   6.838
 5273TIP3   OH237377   5.286   1.789   0.757
 5273TIP3    H137378   5.348   1.717   0.762
 5273TIP3    H237379   5.208   1.752   0.717
 5274TIP3   OH237380   6.099   6.751   7.652
 5274TIP3    H137381   6.020   6.752   7.598
 5274TIP3    H237382   6.066   6.745   7.742
 5275TIP3   OH237383   0.972   3.267   8.413
 5275TIP3    H137384   1.057   3.256   8.371
 5275TIP3    H237385   0.910   3.224   8.354
 5276TIP3   OH237386   6.767   0.696   7.484
 5276TIP3    H137387   6.776   0.745   7.402
 5276TIP3    H237388   0.001   0.667   7.505
 5277TIP3   OH237389   6.527   4.274   7.806
 5277TIP3    H137390   6.462   4.317   7.861
 5277TIP3    H237391   6.485   4.267   7.720
 5278TIP3   OH237392   3.264   2.317   2.065
 5278TIP3    H137393   3.311   2.398   2.046
 5278TIP3    H237394   3.316   2.275   2.133
 5279TIP3   OH237395   5.068   6.772   7.422
 5279TIP3    H137396   5.138   6.808   7.476
 5279TIP3    H237397   5.050   6.840   7.357
 5280TIP3   OH237398   1.118   1.462   2.235
 5280TIP3    H137399   1.088   1.376   2.205
 5280TIP3    H237400   1.089   1.466   2.326
 5281TIP3   OH237401   4.587   0.449   7.387
 5281TIP3    H137402   4.603   0.452   7.292
 5281TIP3    H237403   4.603   0.357   7.411
 5282TIP3   OH237404   5.672   5.623   1.675
 5282TIP3    H137405   5.646   5.628   1.767
 5282TIP3    H237406   5.589   5.614   1.628
 5283TIP3   OH237407   3.231   3.268   7.347
 5283TIP3    H137408   3.233   3.266   7.442
 5283TIP3    H237409   3.322   3.261   7.320
 5284TIP3   OH237410   2.678   3.285   0.533
 5284TIP3    H137411   2.711   3.369   0.565
 5284TIP3    H237412   2.737   3.220   0.572
 5285TIP3   OH237413   1.409   6.345   0.722
 5285TIP3    H137414   1.416   6.329   0.817
 5285TIP3    H237415   1.482   6.297   0.684
 5286TIP3   OH237416   3.183   6.198   0.447
 5286TIP3    H137417   3.242   6.271   0.426
 5286TIP3    H237418   3.235   6.120   0.430
 5287TIP3   OH237419   0.589   5.362   8.119
 5287TIP3    H137420   0.615   5.365   8.027
 5287TIP3    H237421   0.508   5.312   8.120
 5288TIP3   OH237422   6.395   5.972   0.608
 5288TIP3    H137423   6.428   6.062   0.606
 5288TIP3    H237424   6.393   5.945   0.516
 5289TIP3   OH237425   1.377   2.994   2.209
 5289TIP3    H137426   1.380   2.947   2.292
 5289TIP3    H237427   1.338   3.079   2.231
 5290TIP3   OH237428   0.891   1.056   6.389
 5290TIP3    H137429   0.798   1.073   6.372
 5290TIP3    H237430   0.910   0.977   6.339
 5291TIP3   OH237431   6.270   4.524   1.218
 5291TIP3    H137432   6.235   4.476   1.293
 5291TIP3    H237433   6.203   4.516   1.150
 5292TIP3   OH237434   0.682   4.224   0.503
 5292TIP3    H137435   0.662   4.306   0.459
 5292TIP3    H237436   0.715   4.166   0.433
 5293TIP3   OH237437   6.796   2.957   2.462
 5293TIP3    H137438   6.779   2.864   2.477
 5293TIP3    H237439   6.736   2.981   2.391
 5294TIP3   OH237440   0.132   4.199   2.658
 5294TIP3    H137441   0.205   4.256   2.635
 5294TIP3    H237442   0.055   4.256   2.654
 5295TIP3   OH237443   6.226   4.062   8.648
 5295TIP3    H137444   6.235   4.031   8.558
 5295TIP3    H237445   6.258   4.152   8.646
 5296TIP3   OH237446   5.346   3.128   8.032
 5296TIP3    H137447   5.366   3.133   7.939
 5296TIP3    H237448   5.266   3.074   8.036
 5297TIP3   OH237449   3.957   6.814   8.565
 5297TIP3    H137450   3.877   6.840   8.519
 5297TIP3    H237451   3.985   0.037   8.613
 5298TIP3   OH237452   5.663   2.303   2.588
 5298TIP3    H137453   5.734   2.366   2.596
 5298TIP3    H237454   5.615   2.332   2.509
 5299TIP3   OH237455   1.282   1.835   0.703
 5299TIP3    H137456   1.351   1.859   0.764
 5299TIP3    H237457   1.200   1.845   0.753
 5300TIP3   OH237458   6.354   2.818   0.289
 5300TIP3    H137459   6.352   2.902   0.333
 5300TIP3    H237460   6.279   2.771   0.324
 5301TIP3   OH237461   0.986   0.805   0.313
 5301TIP3    H137462   1.042   0.757   0.375
 5301TIP3    H237463   0.911   0.747   0.300
 5302TIP3   OH237464   2.507   1.611   0.964
 5302TIP3    H137465   2.540   1.521   0.961
 5302TIP3    H237466   2.582   1.665   0.937
 5303TIP3   OH237467   2.022   4.867   7.668
 5303TIP3    H137468   1.966   4.919   7.725
 5303TIP3    H237469   1.962   4.825   7.606
 5304TIP3   OH237470   6.552   6.002   1.702
 5304TIP3    H137471   6.598   6.004   1.618
 5304TIP3    H237472   6.469   6.047   1.685
 5305TIP3   OH237473   1.511   5.761   8.411
 5305TIP3    H137474   1.549   5.790   8.327
 5305TIP3    H237475   1.446   5.696   8.386
 5306TIP3   OH237476   5.062   5.800   7.932
 5306TIP3    H137477   5.044   5.825   7.841
 5306TIP3    H237478   5.074   5.882   7.978
 5307TIP3   OH237479   0.854   4.508   0.570
 5307TIP3    H137480   0.825   4.584   0.620
 5307TIP3    H237481   0.911   4.460   0.630
 5308TIP3   OH237482   3.234   0.503   1.359
 5308TIP3    H137483   3.285   0.434   1.401
 5308TIP3    H237484   3.193   0.460   1.283
 5309TIP3   OH237485   3.810   0.319   0.666
 5309TIP3    H137486   3.760   0.246   0.702
 5309TIP3    H237487   3.836   0.371   0.742
 5310TIP3   OH237488   5.211   6.753   7.120
 5310TIP3    H137489   5.275   6.711   7.176
 5310TIP3    H237490   5.251   6.836   7.094
 5311TIP3   OH237491   0.553   6.769   7.495
 5311TIP3    H137492   0.595   6.764   7.581
 5311TIP3    H237493   0.521   6.681   7.479
 5312TIP3   OH237494   5.986   3.650   0.454
 5312TIP3    H137495   6.020   3.736   0.430
 5312TIP3    H237496   6.028   3.590   0.391
 5313TIP3   OH237497   4.289   4.082   0.987
 5313TIP3    H137498   4.196   4.097   0.969
 5313TIP3    H237499   4.290   4.030   1.067
 5314TIP3   OH237500   3.362   0.058   1.269
 5314TIP3    H137501   3.275   0.052   1.307
 5314TIP3    H237502   3.403   0.133   1.311
 5315TIP3   OH237503   6.440   4.966   1.026
 5315TIP3    H137504   6.489   4.940   0.947
 5315TIP3    H237505   6.435   4.887   1.078
 5316TIP3   OH237506   2.838   3.605   8.690
 5316TIP3    H137507   2.773   3.545   8.657
 5316TIP3    H237508   2.870   3.652   8.613
 5317TIP3   OH237509   4.804   5.510   6.123
 5317TIP3    H137510   4.888   5.504   6.168
 5317TIP3    H237511   4.776   5.601   6.136
 5318TIP3   OH237512   6.060   2.982   0.212
 5318TIP3    H137513   6.082   2.897   0.252
 5318TIP3    H237514   6.123   3.043   0.250
 5319TIP3   OH237515   5.989   3.998   1.516
 5319TIP3    H137516   6.050   3.940   1.562
 5319TIP3    H237517   6.012   4.086   1.547
 5320TIP3   OH237518   0.697   6.359   8.680
 5320TIP3    H137519   0.687   6.435   8.624
 5320TIP3    H237520   0.741   6.393   0.032
 5321TIP3   OH237521   2.681   1.565   8.668
 5321TIP3    H137522   2.714   1.507   0.010
 5321TIP3    H237523   2.667   1.649   8.712
 5322TIP3   OH237524   5.569   1.166   8.297
 5322TIP3    H137525   5.479   1.170   8.266
 5322TIP3    H237526   5.562   1.126   8.384
 5323TIP3   OH237527   3.570   4.316   1.627
 5323TIP3    H137528   3.514   4.308   1.704
 5323TIP3    H237529   3.510   4.318   1.553
 5324TIP3   OH237530   3.584   4.059   0.600
 5324TIP3    H137531   3.573   3.969   0.572
 5324TIP3    H237532   3.536   4.111   0.536
 5325TIP3   OH237533   5.587   6.288   8.551
 5325TIP3    H137534   5.658   6.267   8.612
 5325TIP3    H237535   5.632   6.313   8.470
 5326TIP3   OH237536   4.403   4.076   1.326
 5326TIP3    H137537   4.470   4.024   1.281
 5326TIP3    H237538   4.432   4.167   1.315
 5327TIP3   OH237539   4.509   1.642   0.626
 5327TIP3    H137540   4.570   1.712   0.650
 5327TIP3    H237541   4.559   1.561   0.638
 5328TIP3   OH237542   0.735   1.723   8.508
 5328TIP3    H137543   0.650   1.724   8.463
 5328TIP3    H237544   0.720   1.770   8.590
 5329TIP3   OH237545   5.059   6.284   0.226
 5329TIP3    H137546   4.975   6.315   0.259
 5329TIP3    H237547   5.118   6.359   0.235
 5330TIP3   OH237548   6.608   4.013   8.556
 5330TIP3    H137549   6.568   4.078   8.498
 5330TIP3    H237550   6.700   4.038   8.561
 5331TIP3   OH237551   1.832   2.001   8.623
 5331TIP3    H137552   1.887   1.937   8.668
 5331TIP3    H237553   1.742   1.972   8.640
 5332TIP3   OH237554   5.183   0.456   1.171
 5332TIP3    H137555   5.136   0.377   1.143
 5332TIP3    H237556   5.119   0.506   1.220
 5333TIP3   OH237557   2.693   2.436   7.122
 5333TIP3    H137558   2.606   2.430   7.082
 5333TIP3    H237559   2.710   2.530   7.128
 5334TIP3   OH237560   1.594   6.709   0.980
 5334TIP3    H137561   1.502   6.733   0.976
 5334TIP3    H237562   1.600   6.649   1.055
 5335TIP3   OH237563   3.547   6.594   6.995
 5335TIP3    H137564   3.566   6.562   6.907
 5335TIP3    H237565   3.570   6.687   6.993
 5336TIP3   OH237566   5.281   3.062   0.180
 5336TIP3    H137567   5.335   2.994   0.140
 5336TIP3    H237568   5.234   3.101   0.106
 5337TIP3   OH237569   1.008   6.649   1.089
 5337TIP3    H137570   1.071   6.719   1.071
 5337TIP3    H237571   1.007   6.642   1.184
 5338TIP3   OH237572   5.223   2.346   0.316
 5338TIP3    H137573   5.260   2.435   0.321
 5338TIP3    H237574   5.197   2.337   0.224
 5339TIP3   OH237575   4.951   6.510   7.389
 5339TIP3    H137576   4.874   6.550   7.431
 5339TIP3    H237577   5.019   6.576   7.397
 5340TIP3   OH237578   2.573   6.188   1.700
 5340TIP3    H137579   2.607   6.205   1.613
 5340TIP3    H237580   2.545   6.097   1.699
 5341TIP3   OH237581   2.699   5.105   1.780
 5341TIP3    H137582   2.727   5.196   1.789
 5341TIP3    H237583   2.695   5.072   1.870
 5342TIP3   OH237584   0.639   6.806   0.048
 5342TIP3    H137585   0.693   6.837   8.701
 5342TIP3    H237586   0.702   6.782   0.116
 5343TIP3   OH237587   5.379   1.067   2.653
 5343TIP3    H137588   5.438   1.069   2.729
 5343TIP3    H237589   5.299   1.026   2.686
 5344TIP3   OH237590   1.871   0.458   1.079
 5344TIP3    H137591   1.932   0.501   1.021
 5344TIP3    H237592   1.902   0.367   1.084
 5345TIP3   OH237593   4.370   1.974   1.833
 5345TIP3    H137594   4.397   1.939   1.918
 5345TIP3    H237595   4.451   2.003   1.792
 5346TIP3   OH237596   6.725   0.634   1.674
 5346TIP3    H137597   6.775   0.603   1.598
 5346TIP3    H237598   6.778   0.606   1.749
 5347TIP3   OH237599   4.207   3.419   1.637
 5347TIP3    H137600   4.162   3.464   1.708
 5347TIP3    H237601   4.213   3.328   1.666
 5348TIP3   OH237602   6.516   5.889   0.364
 5348TIP3    H137603   6.561   5.943   0.300
 5348TIP3    H237604   6.585   5.852   0.419
 5349TIP3   OH237605   2.035   4.685   0.364
 5349TIP3    H137606   2.108   4.716   0.310
 5349TIP3    H237607   2.025   4.753   0.431
 5350TIP3   OH237608   3.647   2.522   1.605
 5350TIP3    H137609   3.661   2.435   1.641
 5350TIP3    H237610   3.707   2.579   1.654
 5351TIP3   OH237611   1.435   2.359   0.529
 5351TIP3    H137612   1.356   2.413   0.531
 5351TIP3    H237613   1.454   2.341   0.621
 5352TIP3   OH237614   4.942   1.949   1.834
 5352TIP3    H137615   4.888   2.011   1.785
 5352TIP3    H237616   5.032   1.980   1.819
 5353TIP3   OH237617   3.382   6.427   0.120
 5353TIP3    H137618   3.444   6.361   0.090
 5353TIP3    H237619   3.421   6.510   0.095
 5354TIP3   OH237620   5.175   1.446   0.878
 5354TIP3    H137621   5.139   1.497   0.951
 5354TIP3    H237622   5.154   1.355   0.900
 5355TIP3   OH237623   3.796   0.177   1.015
 5355TIP3    H137624   3.844   0.098   1.041
 5355TIP3    H237625   3.762   0.156   0.927
 5356TIP3   OH237626   0.639   2.018   8.602
 5356TIP3    H137627   0.716   1.977   8.563
 5356TIP3    H237628   0.571   2.014   8.534
 5357TIP3   OH237629   4.794   3.989   6.700
 5357TIP3    H137630   4.816   3.897   6.715
 5357TIP3    H237631   4.878   4.032   6.683
 5358TIP3   OH237632   5.640   4.360   0.669
 5358TIP3    H137633   5.677   4.309   0.742
 5358TIP3    H237634   5.546   4.364   0.687
 5359TIP3   OH237635   5.189   3.294   1.353
 5359TIP3    H137636   5.282   3.298   1.377
 5359TIP3    H237637   5.163   3.385   1.341
 5360TIP3   OH237638   2.868   4.903   8.209
 5360TIP3    H137639   2.932   4.972   8.192
 5360TIP3    H237640   2.830   4.926   8.294
 5361TIP3   OH237641   0.896   6.835   7.336
 5361TIP3    H137642   0.830   0.051   7.338
 5361TIP3    H237643   0.951   6.852   7.413
 5362TIP3   OH237644   1.139   6.336   1.737
 5362TIP3    H137645   1.121   6.263   1.678
 5362TIP3    H237646   1.234   6.342   1.740
 5363TIP3   OH237647   1.046   3.878   0.527
 5363TIP3    H137648   1.066   3.803   0.471
 5363TIP3    H237649   0.978   3.845   0.586
 5364TIP3   OH237650   1.057   1.501   1.284
 5364TIP3    H137651   1.069   1.568   1.218
 5364TIP3    H237652   0.966   1.512   1.313
 5365TIP3   OH237653   1.260   1.227   8.202
 5365TIP3    H137654   1.269   1.321   8.184
 5365TIP3    H237655   1.277   1.185   8.118
 5366TIP3   OH237656   0.120   6.780   2.280
 5366TIP3    H137657   0.027   6.798   2.268
 5366TIP3    H237658   0.165   6.851   2.234
 5367TIP3   OH237659   6.199   4.323   7.019
 5367TIP3    H137660   6.214   4.391   6.953
 5367TIP3    H237661   6.115   4.347   7.059
 5368TIP3   OH237662   2.458   1.777   7.738
 5368TIP3    H137663   2.520   1.850   7.748
 5368TIP3    H237664   2.513   1.698   7.746
 5369TIP3   OH237665   0.603   0.113   1.691
 5369TIP3    H137666   0.692   0.107   1.726
 5369TIP3    H237667   0.566   0.026   1.706
 5370TIP3   OH237668   0.034   0.214   6.810
 5370TIP3    H137669   0.055   0.130   6.769
 5370TIP3    H237670   0.103   0.273   6.779
 5371TIP3   OH237671   0.245   3.815   6.373
 5371TIP3    H137672   0.267   3.893   6.423
 5371TIP3    H237673   0.160   3.836   6.333
 5372TIP3   OH237674   1.646   2.888   6.185
 5372TIP3    H137675   1.679   2.800   6.198
 5372TIP3    H237676   1.566   2.876   6.132
 5373TIP3   OH237677   0.436   1.951   7.775
 5373TIP3    H137678   0.417   2.020   7.711
 5373TIP3    H237679   0.374   1.881   7.754
 5374TIP3   OH237680   4.088   3.696   7.236
 5374TIP3    H137681   4.111   3.720   7.326
 5374TIP3    H237682   4.150   3.744   7.182
 5375TIP3   OH237683   0.246   4.082   1.271
 5375TIP3    H137684   0.177   4.039   1.219
 5375TIP3    H237685   0.199   4.138   1.332
 5376TIP3   OH237686   4.997   1.653   6.507
 5376TIP3    H137687   5.019   1.567   6.541
 5376TIP3    H237688   4.903   1.662   6.521
 5377TIP3   OH237689   5.292   4.353   6.915
 5377TIP3    H137690   5.355   4.422   6.936
 5377TIP3    H237691   5.269   4.316   7.000
 5378TIP3   OH237692   6.450   5.429   0.451
 5378TIP3    H137693   6.470   5.473   0.369
 5378TIP3    H237694   6.480   5.339   0.438
 5379TIP3   OH237695   5.625   5.154   0.469
 5379TIP3    H137696   5.715   5.187   0.475
 5379TIP3    H237697   5.636   5.063   0.441
 5380TIP3   OH237698   6.720   1.236   1.305
 5380TIP3    H137699   6.763   1.320   1.290
 5380TIP3    H237700   6.694   1.206   1.218
 5381TIP3   OH237701   5.564   4.188   0.140
 5381TIP3    H137702   5.622   4.142   0.080
 5381TIP3    H237703   5.514   4.119   0.183
 5382TIP3   OH237704   0.541   4.135   8.349
 5382TIP3    H137705   0.629   4.159   8.380
 5382TIP3    H237706   0.553   4.049   8.309
 5383TIP3   OH237707   3.040   2.729   6.492
 5383TIP3    H137708   3.066   2.648   6.449
 5383TIP3    H237709   3.052   2.712   6.585
 5384TIP3   OH237710   6.823   4.451   6.762
 5384TIP3    H137711   0.036   4.461   6.829
 5384TIP3    H237712   6.824   4.534   6.715
 5385TIP3   OH237713   5.308   2.772   2.185
 5385TIP3    H137714   5.231   2.784   2.241
 5385TIP3    H237715   5.361   2.707   2.230
 5386TIP3   OH237716   3.760   3.733   7.941
 5386TIP3    H137717   3.840   3.783   7.960
 5386TIP3    H237718   3.788   3.641   7.946
 5387TIP3   OH237719   3.326   3.343   0.734
 5387TIP3    H137720   3.307   3.345   0.827
 5387TIP3    H237721   3.294   3.258   0.704
 5388TIP3   OH237722   4.308   4.742   1.826
 5388TIP3    H137723   4.277   4.676   1.887
 5388TIP3    H237724   4.347   4.810   1.881
 5389TIP3   OH237725   2.651   0.744   8.070
 5389TIP3    H137726   2.656   0.809   8.000
 5389TIP3    H237727   2.558   0.741   8.094
 5390TIP3   OH237728   4.327   0.671   8.135
 5390TIP3    H137729   4.298   0.747   8.083
 5390TIP3    H237730   4.249   0.616   8.141
 5391TIP3   OH237731   1.638   3.042   1.342
 5391TIP3    H137732   1.586   3.016   1.418
 5391TIP3    H237733   1.629   2.969   1.280
 5392TIP3   OH237734   6.599   6.063   0.958
 5392TIP3    H137735   6.650   6.089   1.034
 5392TIP3    H237736   6.525   6.123   0.957
 5393TIP3   OH237737   6.299   0.594   8.478
 5393TIP3    H137738   6.324   0.534   8.408
 5393TIP3    H237739   6.332   0.679   8.449
 5394TIP3   OH237740   5.613   0.460   8.508
 5394TIP3    H137741   5.656   0.389   8.460
 5394TIP3    H237742   5.674   0.534   8.503
 5395TIP3   OH237743   5.712   5.944   8.281
 5395TIP3    H137744   5.620   5.936   8.256
 5395TIP3    H237745   5.713   5.929   8.376
 5396TIP3   OH237746   5.987   1.141   7.387
 5396TIP3    H137747   5.923   1.072   7.371
 5396TIP3    H237748   6.026   1.120   7.472
 5397TIP3   OH237749   4.500   3.074   7.863
 5397TIP3    H137750   4.585   3.097   7.825
 5397TIP3    H237751   4.473   3.153   7.909
 5398TIP3   OH237752   2.635   2.610   7.776
 5398TIP3    H137753   2.660   2.647   7.692
 5398TIP3    H237754   2.711   2.559   7.804
 5399TIP3   OH237755   4.290   1.099   1.870
 5399TIP3    H137756   4.351   1.041   1.824
 5399TIP3    H237757   4.263   1.049   1.947
 5400TIP3   OH237758   0.491   6.206   8.622
 5400TIP3    H137759   0.445   6.220   8.540
 5400TIP3    H237760   0.555   6.277   8.627
 5401TIP3   OH237761   4.024   4.496   1.824
 5401TIP3    H137762   3.985   4.420   1.866
 5401TIP3    H237763   4.095   4.522   1.882
 5402TIP3   OH237764   4.448   2.957   1.431
 5402TIP3    H137765   4.416   2.953   1.521
 5402TIP3    H237766   4.456   3.051   1.413
 5403TIP3   OH237767   5.521   4.220   6.511
 5403TIP3    H137768   5.448   4.282   6.506
 5403TIP3    H237769   5.593   4.265   6.468
 5404TIP3   OH237770   6.279   3.701   8.158
 5404TIP3    H137771   6.226   3.650   8.096
 5404TIP3    H237772   6.219   3.721   8.230
 5405TIP3   OH237773   1.094   2.891   1.885
 5405TIP3    H137774   1.025   2.845   1.932
 5405TIP3    H237775   1.054   2.975   1.861
 5406TIP3   OH237776   1.327   4.127   0.289
 5406TIP3    H137777   1.336   4.215   0.325
 5406TIP3    H237778   1.328   4.070   0.367
 5407TIP3   OH237779   3.954   1.548   7.280
 5407TIP3    H137780   3.869   1.527   7.242
 5407TIP3    H237781   4.010   1.567   7.204
 5408TIP3   OH237782   6.410   2.568   7.443
 5408TIP3    H137783   6.380   2.600   7.357
 5408TIP3    H237784   6.378   2.634   7.505
 5409TIP3   OH237785   1.279   5.232   1.510
 5409TIP3    H137786   1.226   5.308   1.488
 5409TIP3    H237787   1.293   5.187   1.427
 5410TIP3   OH237788   1.661   2.420   2.349
 5410TIP3    H137789   1.746   2.412   2.306
 5410TIP3    H237790   1.670   2.494   2.408
 5411TIP3   OH237791   1.718   5.629   7.632
 5411TIP3    H137792   1.626   5.655   7.625
 5411TIP3    H237793   1.748   5.620   7.541
 5412TIP3   OH237794   6.138   0.999   1.789
 5412TIP3    H137795   6.143   0.982   1.883
 5412TIP3    H237796   6.135   0.912   1.749
 5413TIP3   OH237797   6.129   5.501   7.787
 5413TIP3    H137798   6.203   5.465   7.837
 5413TIP3    H237799   6.057   5.440   7.804
 5414TIP3   OH237800   3.335   0.319   8.127
 5414TIP3    H137801   3.393   0.385   8.090
 5414TIP3    H237802   3.342   0.331   8.221
 5415TIP3   OH237803   3.362   0.840   6.914
 5415TIP3    H137804   3.438   0.784   6.902
 5415TIP3    H237805   3.319   0.841   6.829
 5416TIP3   OH237806   0.299   6.498   8.282
 5416TIP3    H137807   0.208   6.506   8.252
 5416TIP3    H237808   0.336   6.585   8.267
 5417TIP3   OH237809   0.624   0.539   0.528
 5417TIP3    H137810   0.639   0.446   0.544
 5417TIP3    H237811   0.710   0.579   0.540
 5418TIP3   OH237812   4.930   4.839   8.213
 5418TIP3    H137813   4.971   4.789   8.284
 5418TIP3    H237814   4.865   4.780   8.176
 5419TIP3   OH237815   5.389   5.291   1.803
 5419TIP3    H137816   5.418   5.201   1.818
 5419TIP3    H237817   5.296   5.282   1.781
 5420TIP3   OH237818   2.934   5.625   0.929
 5420TIP3    H137819   2.995   5.559   0.962
 5420TIP3    H237820   2.852   5.577   0.915
 5421TIP3   OH237821   6.330   1.149   1.244
 5421TIP3    H137822   6.368   1.169   1.330
 5421TIP3    H237823   6.302   1.057   1.251
 5422TIP3   OH237824   3.522   2.893   1.731
 5422TIP3    H137825   3.567   2.827   1.784
 5422TIP3    H237826   3.444   2.848   1.698
 5423TIP3   OH237827   0.566   2.635   2.101
 5423TIP3    H137828   0.591   2.688   2.177
 5423TIP3    H237829   0.479   2.667   2.077
 5424TIP3   OH237830   4.926   3.894   8.006
 5424TIP3    H137831   4.922   3.875   7.912
 5424TIP3    H237832   4.950   3.986   8.011
 5425TIP3   OH237833   3.072   5.052   1.800
 5425TIP3    H137834   3.164   5.025   1.798
 5425TIP3    H237835   3.041   5.039   1.710
 5426TIP3   OH237836   4.059   1.605   0.461
 5426TIP3    H137837   4.092   1.686   0.499
 5426TIP3    H237838   4.136   1.549   0.454
 5427TIP3   OH237839   3.000   3.253   7.971
 5427TIP3    H137840   2.992   3.215   7.884
 5427TIP3    H237841   2.911   3.259   8.004
 5428TIP3   OH237842   1.704   4.877   7.924
 5428TIP3    H137843   1.683   4.839   7.839
 5428TIP3    H237844   1.744   4.805   7.974
 5429TIP3   OH237845   1.574   0.812   6.730
 5429TIP3    H137846   1.661   0.781   6.707
 5429TIP3    H237847   1.524   0.808   6.648
 5430TIP3   OH237848   4.907   0.421   7.471
 5430TIP3    H137849   4.954   0.423   7.554
 5430TIP3    H237850   4.827   0.371   7.490
 5431TIP3   OH237851   3.091   2.646   7.582
 5431TIP3    H137852   3.095   2.610   7.671
 5431TIP3    H237853   3.023   2.594   7.538
 5432TIP3   OH237854   0.650   3.542   8.179
 5432TIP3    H137855   0.604   3.462   8.155
 5432TIP3    H237856   0.740   3.514   8.195
 5433TIP3   OH237857   5.228   0.853   8.685
 5433TIP3    H137858   5.182   0.802   0.025
 5433TIP3    H237859   5.188   0.940   8.689
 5434TIP3   OH237860   5.103   6.343   1.895
 5434TIP3    H137861   5.156   6.421   1.877
 5434TIP3    H237862   5.125   6.320   1.986
 5435TIP3   OH237863   4.829   3.330   6.429
 5435TIP3    H137864   4.895   3.357   6.364
 5435TIP3    H237865   4.871   3.347   6.513
 5436TIP3   OH237866   1.888   1.727   2.167
 5436TIP3    H137867   1.902   1.647   2.218
 5436TIP3    H237868   1.883   1.698   2.076
 5437TIP3   OH237869   1.804   6.812   1.856
 5437TIP3    H137870   1.870   6.790   1.790
 5437TIP3    H237871   1.855   6.830   1.935
 5438TIP3   OH237872   0.980   6.047   6.660
 5438TIP3    H137873   0.931   5.988   6.718
 5438TIP3    H237874   0.916   6.112   6.633
 5439TIP3   OH237875   4.738   0.175   7.230
 5439TIP3    H137876   4.798   0.249   7.224
 5439TIP3    H237877   4.717   0.168   7.324
 5440TIP3   OH237878   4.731   5.065   7.080
 5440TIP3    H137879   4.688   4.987   7.116
 5440TIP3    H237880   4.736   5.049   6.986
 5441TIP3   OH237881   3.359   4.401   0.122
 5441TIP3    H137882   3.434   4.453   0.149
 5441TIP3    H237883   3.386   4.310   0.136
 5442TIP3   OH237884   1.031   6.705   1.606
 5442TIP3    H137885   0.979   6.628   1.629
 5442TIP3    H237886   1.027   6.761   1.683
 5443TIP3   OH237887   2.538   4.388   0.765
 5443TIP3    H137888   2.484   4.329   0.713
 5443TIP3    H237889   2.609   4.334   0.798
 5444TIP3   OH237890   3.514   6.479   7.240
 5444TIP3    H137891   3.537   6.527   7.161
 5444TIP3    H237892   3.420   6.492   7.250
 5445TIP3   OH237893   3.823   6.263   1.759
 5445TIP3    H137894   3.758   6.196   1.737
 5445TIP3    H237895   3.895   6.214   1.799
 5446TIP3   OH237896   4.191   3.001   8.379
 5446TIP3    H137897   4.153   3.013   8.466
 5446TIP3    H237898   4.161   2.914   8.352
 5447TIP3   OH237899   0.518   4.593   0.625
 5447TIP3    H137900   0.493   4.617   0.714
 5447TIP3    H237901   0.509   4.674   0.575
 5448TIP3   OH237902   3.119   0.223   6.840
 5448TIP3    H137903   3.191   0.286   6.828
 5448TIP3    H237904   3.043   0.278   6.858
 5449TIP3   OH237905   0.375   4.620   8.637
 5449TIP3    H137906   0.384   4.529   8.608
 5449TIP3    H237907   0.376   4.671   8.557
 5450TIP3   OH237908   2.364   5.751   8.105
 5450TIP3    H137909   2.375   5.842   8.131
 5450TIP3    H237910   2.408   5.745   8.020
 5451TIP3   OH237911   2.575   3.553   1.420
 5451TIP3    H137912   2.611   3.633   1.459
 5451TIP3    H237913   2.643   3.487   1.434
 5452TIP3   OH237914   1.809   4.848   1.672
 5452TIP3    H137915   1.747   4.782   1.644
 5452TIP3    H237916   1.892   4.801   1.683
 5453TIP3   OH237917   1.202   2.730   7.001
 5453TIP3    H137918   1.184   2.638   6.979
 5453TIP3    H237919   1.219   2.729   7.095
 5454TIP3   OH237920   4.398   4.433   0.901
 5454TIP3    H137921   4.388   4.347   0.943
 5454TIP3    H237922   4.385   4.496   0.971
 5455TIP3   OH237923   0.113   4.272   8.350
 5455TIP3    H137924   0.022   4.258   8.377
 5455TIP3    H237925   0.165   4.242   8.425
 5456TIP3   OH237926   5.060   4.023   0.785
 5456TIP3    H137927   5.078   3.974   0.705
 5456TIP3    H237928   5.037   4.111   0.754
 5457TIP3   OH237929   0.820   4.381   1.452
 5457TIP3    H137930   0.897   4.324   1.458
 5457TIP3    H237931   0.845   4.460   1.500
 5458TIP3   OH237932   6.415   6.544   7.866
 5458TIP3    H137933   6.377   6.620   7.821
 5458TIP3    H237934   6.445   6.487   7.795
 5459TIP3   OH237935   0.678   5.659   8.537
 5459TIP3    H137936   0.612   5.665   8.606
 5459TIP3    H237937   0.761   5.648   8.584
 5460TIP3   OH237938   3.707   2.091   1.381
 5460TIP3    H137939   3.721   2.072   1.473
 5460TIP3    H237940   3.668   2.178   1.380
 5461TIP3   OH237941   4.015   1.420   2.414
 5461TIP3    H137942   3.946   1.355   2.427
 5461TIP3    H237943   3.969   1.504   2.412
 5462TIP3   OH237944   4.360   3.645   0.157
 5462TIP3    H137945   4.392   3.586   0.225
 5462TIP3    H237946   4.350   3.729   0.202
 5463TIP3   OH237947   4.351   6.628   7.127
 5463TIP3    H137948   4.366   6.583   7.044
 5463TIP3    H237949   4.351   6.558   7.192
 5464TIP3   OH237950   3.766   4.320   0.350
 5464TIP3    H137951   3.763   4.391   0.415
 5464TIP3    H237952   3.841   4.267   0.377
 5465TIP3   OH237953   2.340   1.157   1.765
 5465TIP3    H137954   2.363   1.149   1.858
 5465TIP3    H237955   2.292   1.076   1.745
 5466TIP3   OH237956   1.221   0.675   8.165
 5466TIP3    H137957   1.305   0.642   8.195
 5466TIP3    H237958   1.156   0.627   8.216
 5467TIP3   OH237959   0.969   3.497   1.274
 5467TIP3    H137960   1.060   3.494   1.303
 5467TIP3    H237961   0.969   3.559   1.201
 5468TIP3   OH237962   2.621   6.081   7.286
 5468TIP3    H137963   2.598   6.148   7.351
 5468TIP3    H237964   2.701   6.113   7.246
 5469TIP3   OH237965   3.633   6.840   1.182
 5469TIP3    H137966   3.633   6.750   1.150
 5469TIP3    H237967   3.541   0.010   1.187
 5470TIP3   OH237968   4.902   3.999   0.315
 5470TIP3    H137969   4.817   3.977   0.277
 5470TIP3    H237970   4.885   4.077   0.367
 5471TIP3   OH237971   5.826   6.594   6.940
 5471TIP3    H137972   5.832   6.514   6.993
 5471TIP3    H237973   5.871   6.572   6.858
 5472TIP3   OH237974   2.727   5.251   6.768
 5472TIP3    H137975   2.683   5.266   6.852
 5472TIP3    H237976   2.657   5.252   6.704
 5473TIP3   OH237977   2.793   0.540   0.344
 5473TIP3    H137978   2.803   0.458   0.391
 5473TIP3    H237979   2.802   0.516   0.252
 5474TIP3   OH237980   1.287   4.447   7.765
 5474TIP3    H137981   1.314   4.513   7.829
 5474TIP3    H237982   1.269   4.369   7.817
 5475TIP3   OH237983   6.122   3.687   8.411
 5475TIP3    H137984   6.111   3.689   8.506
 5475TIP3    H237985   6.156   3.599   8.393
 5476TIP3   OH237986   5.747   1.359   1.500
 5476TIP3    H137987   5.715   1.383   1.413
 5476TIP3    H237988   5.830   1.406   1.508
 5477TIP3   OH237989   3.362   5.429   6.422
 5477TIP3    H137990   3.327   5.383   6.345
 5477TIP3    H237991   3.358   5.364   6.492
 5478TIP3   OH237992   1.527   1.777   8.418
 5478TIP3    H137993   1.544   1.794   8.511
 5478TIP3    H237994   1.464   1.705   8.418
 5479TIP3   OH237995   0.198   0.532   0.297
 5479TIP3    H137996   0.148   0.478   0.358
 5479TIP3    H237997   0.289   0.522   0.325
 5480TIP3   OH237998   0.757   0.929   7.638
 5480TIP3    H137999   0.686   0.871   7.665
 5480TIP3    H238000   0.720   0.979   7.565
 5481TIP3   OH238001   6.788   2.708   0.007
 5481TIP3    H138002   0.029   2.713   0.017
 5481TIP3    H238003   6.765   2.786   8.683
 5482TIP3   OH238004   2.614   0.629   1.487
 5482TIP3    H138005   2.560   0.551   1.476
 5482TIP3    H238006   2.645   0.625   1.578
 5483TIP3   OH238007   5.498   4.452   0.437
 5483TIP3    H138008   5.543   4.419   0.514
 5483TIP3    H238009   5.522   4.545   0.434
 5484TIP3   OH238010   1.837   6.301   0.536
 5484TIP3    H138011   1.904   6.243   0.499
 5484TIP3    H238012   1.879   6.340   0.613
 5485TIP3   OH238013   3.225   4.899   1.507
 5485TIP3    H138014   3.242   4.899   1.601
 5485TIP3    H238015   3.311   4.914   1.467
 5486TIP3   OH238016   6.428   0.827   0.660
 5486TIP3    H138017   6.455   0.745   0.702
 5486TIP3    H238018   6.453   0.895   0.723
 5487TIP3   OH238019   1.635   6.435   8.027
 5487TIP3    H138020   1.664   6.410   7.939
 5487TIP3    H238021   1.569   6.369   8.049
 5488TIP3   OH238022   2.147   4.399   8.638
 5488TIP3    H138023   2.086   4.428   8.706
 5488TIP3    H238024   2.194   4.479   8.613
 5489TIP3   OH238025   6.347   5.635   1.724
 5489TIP3    H138026   6.425   5.584   1.743
 5489TIP3    H238027   6.315   5.601   1.641
 5490TIP3   OH238028   1.166   1.058   1.626
 5490TIP3    H138029   1.171   0.966   1.598
 5490TIP3    H238030   1.122   1.103   1.555
 5491TIP3   OH238031   2.339   3.797   0.643
 5491TIP3    H138032   2.249   3.784   0.673
 5491TIP3    H238033   2.331   3.860   0.571
 5492TIP3   OH238034   1.842   2.009   8.210
 5492TIP3    H138035   1.753   1.985   8.236
 5492TIP3    H238036   1.856   2.095   8.250
 5493TIP3   OH238037   3.854   6.095   8.041
 5493TIP3    H138038   3.899   6.174   8.010
 5493TIP3    H238039   3.764   6.105   8.011
 5494TIP3   OH238040   3.407   3.586   8.415
 5494TIP3    H138041   3.376   3.672   8.386
 5494TIP3    H238042   3.453   3.551   8.338
 5495TIP3   OH238043   5.691   1.445   8.370
 5495TIP3    H138044   5.606   1.452   8.413
 5495TIP3    H238045   5.691   1.358   8.331
 5496TIP3   OH238046   6.501   4.657   8.004
 5496TIP3    H138047   6.568   4.589   8.013
 5496TIP3    H238048   6.523   4.703   7.923
 5497TIP3   OH238049   3.119   2.766   7.155
 5497TIP3    H138050   3.106   2.672   7.143
 5497TIP3    H238051   3.033   2.799   7.183
 5498TIP3   OH238052   5.807   1.911   8.283
 5498TIP3    H138053   5.813   2.003   8.256
 5498TIP3    H238054   5.847   1.863   8.211
 5499TIP3   OH238055   2.130   5.195   1.212
 5499TIP3    H138056   2.064   5.159   1.152
 5499TIP3    H238057   2.151   5.281   1.176
 5500TIP3   OH238058   2.064   0.902   0.093
 5500TIP3    H138059   2.146   0.951   0.089
 5500TIP3    H238060   2.092   0.810   0.087
 5501TIP3   OH238061   3.178   5.087   1.103
 5501TIP3    H138062   3.152   4.995   1.109
 5501TIP3    H238063   3.182   5.116   1.194
 5502TIP3   OH238064   2.205   6.438   0.549
 5502TIP3    H138065   2.175   6.527   0.530
 5502TIP3    H238066   2.272   6.421   0.482
 5503TIP3   OH238067   3.751   5.345   1.485
 5503TIP3    H138068   3.810   5.347   1.561
 5503TIP3    H238069   3.685   5.280   1.507
 5504TIP3   OH238070   1.322   2.774   8.546
 5504TIP3    H138071   1.227   2.778   8.542
 5504TIP3    H238072   1.350   2.778   8.454
 5505TIP3   OH238073   0.899   1.984   8.569
 5505TIP3    H138074   0.930   1.916   8.510
 5505TIP3    H238075   0.976   2.009   8.620
 5506TIP3   OH238076   6.774   1.626   6.258
 5506TIP3    H138077   6.724   1.698   6.298
 5506TIP3    H238078   6.853   1.620   6.312
 5507TIP3   OH238079   0.579   4.080   1.079
 5507TIP3    H138080   0.486   4.088   1.058
 5507TIP3    H238081   0.583   4.085   1.174
 5508TIP3   OH238082   5.303   1.930   1.721
 5508TIP3    H138083   5.253   1.942   1.802
 5508TIP3    H238084   5.393   1.914   1.751
 5509TIP3   OH238085   6.395   4.678   0.573
 5509TIP3    H138086   6.403   4.645   0.663
 5509TIP3    H238087   6.347   4.760   0.582
 5510TIP3   OH238088   4.916   1.837   2.099
 5510TIP3    H138089   4.899   1.890   2.022
 5510TIP3    H238090   4.832   1.794   2.117
 5511TIP3   OH238091   5.867   5.920   0.876
 5511TIP3    H138092   5.886   5.831   0.846
 5511TIP3    H238093   5.930   5.975   0.831
 5512TIP3   OH238094   0.722   4.159   1.771
 5512TIP3    H138095   0.807   4.200   1.783
 5512TIP3    H238096   0.690   4.194   1.688
 5513TIP3   OH238097   5.816   4.946   8.461
 5513TIP3    H138098   5.726   4.977   8.451
 5513TIP3    H238099   5.867   5.004   8.403
 5514TIP3   OH238100   4.676   6.101   1.619
 5514TIP3    H138101   4.708   6.012   1.601
 5514TIP3    H238102   4.750   6.145   1.661
 5515TIP3   OH238103   2.560   5.398   7.484
 5515TIP3    H138104   2.651   5.368   7.478
 5515TIP3    H238105   2.513   5.324   7.522
 5516TIP3   OH238106   4.541   4.490   7.786
 5516TIP3    H138107   4.461   4.466   7.833
 5516TIP3    H238108   4.586   4.549   7.846
 5517TIP3   OH238109   5.042   5.184   7.694
 5517TIP3    H138110   4.960   5.136   7.708
 5517TIP3    H238111   5.015   5.273   7.673
 5518TIP3   OH238112   3.375   3.100   1.057
 5518TIP3    H138113   3.336   3.044   1.124
 5518TIP3    H238114   3.387   3.042   0.982
 5519TIP3   OH238115   4.150   1.304   8.436
 5519TIP3    H138116   4.173   1.323   8.527
 5519TIP3    H238117   4.095   1.378   8.409
 5520TIP3   OH238118   5.642   0.923   0.330
 5520TIP3    H138119   5.612   1.002   0.376
 5520TIP3    H238120   5.710   0.887   0.386
 5521TIP3   OH238121   0.215   2.096   7.232
 5521TIP3    H138122   0.263   2.163   7.184
 5521TIP3    H238123   0.134   2.139   7.260
 5522TIP3   OH238124   6.529   4.038   1.374
 5522TIP3    H138125   6.525   4.073   1.285
 5522TIP3    H238126   6.450   4.071   1.416
 5523TIP3   OH238127   3.256   2.488   1.154
 5523TIP3    H138128   3.186   2.545   1.185
 5523TIP3    H238129   3.301   2.460   1.234
 5524TIP3   OH238130   0.171   5.668   1.783
 5524TIP3    H138131   0.128   5.730   1.724
 5524TIP3    H238132   0.263   5.669   1.756
 5525TIP3   OH238133   0.697   5.208   8.535
 5525TIP3    H138134   0.728   5.237   8.449
 5525TIP3    H238135   0.675   5.115   8.522
 5526TIP3   OH238136   0.542   1.252   1.238
 5526TIP3    H138137   0.541   1.343   1.207
 5526TIP3    H238138   0.523   1.259   1.332
 5527TIP3   OH238139   1.919   6.085   0.281
 5527TIP3    H138140   1.890   6.128   0.201
 5527TIP3    H238141   2.012   6.107   0.288
 5528TIP3   OH238142   0.417   2.246   0.352
 5528TIP3    H138143   0.449   2.234   0.442
 5528TIP3    H238144   0.386   2.160   0.326
 5529TIP3   OH238145   2.139   1.052   7.404
 5529TIP3    H138146   2.085   0.986   7.446
 5529TIP3    H238147   2.220   1.005   7.380
 5530TIP3   OH238148   1.600   3.218   8.408
 5530TIP3    H138149   1.524   3.268   8.379
 5530TIP3    H238150   1.588   3.210   8.503
 5531TIP3   OH238151   5.591   2.074   8.052
 5531TIP3    H138152   5.543   2.146   8.011
 5531TIP3    H238153   5.528   2.003   8.059
 5532TIP3   OH238154   0.631   4.731   1.891
 5532TIP3    H138155   0.608   4.649   1.934
 5532TIP3    H238156   0.725   4.723   1.871
 5533TIP3   OH238157   0.678   4.577   8.477
 5533TIP3    H138158   0.693   4.638   8.550
 5533TIP3    H238159   0.657   4.494   8.520
 5534TIP3   OH238160   2.407   4.068   0.837
 5534TIP3    H138161   2.433   4.068   0.744
 5534TIP3    H238162   2.316   4.039   0.836
 5535TIP3   OH238163   0.741   3.090   7.708
 5535TIP3    H138164   0.811   3.072   7.771
 5535TIP3    H238165   0.740   3.185   7.701
 5536TIP3   OH238166   2.551   6.465   7.918
 5536TIP3    H138167   2.606   6.387   7.918
 5536TIP3    H238168   2.462   6.432   7.918
 5537TIP3   OH238169   5.433   2.314   6.782
 5537TIP3    H138170   5.510   2.292   6.834
 5537TIP3    H238171   5.392   2.230   6.761
 5538TIP3   OH238172   4.809   5.992   8.451
 5538TIP3    H138173   4.879   5.937   8.487
 5538TIP3    H238174   4.789   5.952   8.367
 5539TIP3   OH238175   6.595   4.449   1.317
 5539TIP3    H138176   6.529   4.414   1.377
 5539TIP3    H238177   6.618   4.534   1.353
 5540TIP3   OH238178   4.718   4.243   1.790
 5540TIP3    H138179   4.773   4.300   1.736
 5540TIP3    H238180   4.768   4.163   1.800
 5541TIP3   OH238181   0.146   4.234   7.678
 5541TIP3    H138182   0.152   4.198   7.767
 5541TIP3    H238183   0.107   4.320   7.689
 5542TIP3   OH238184   3.333   2.215   8.661
 5542TIP3    H138185   3.285   2.270   8.599
 5542TIP3    H238186   3.423   2.247   8.657
 5543TIP3   OH238187   2.844   5.476   7.435
 5543TIP3    H138188   2.908   5.530   7.479
 5543TIP3    H238189   2.879   5.387   7.440
 5544TIP3   OH238190   2.790   3.552   7.762
 5544TIP3    H138191   2.703   3.563   7.724
 5544TIP3    H238192   2.842   3.515   7.691
 5545TIP3   OH238193   6.385   2.528   6.959
 5545TIP3    H138194   6.375   2.591   6.889
 5545TIP3    H238195   6.477   2.537   6.987
 5546TIP3   OH238196   6.547   1.918   2.150
 5546TIP3    H138197   6.617   1.867   2.190
 5546TIP3    H238198   6.505   1.857   2.090
 5547TIP3   OH238199   5.371   1.329   7.704
 5547TIP3    H138200   5.304   1.304   7.640
 5547TIP3    H238201   5.390   1.249   7.753
 5548TIP3   OH238202   6.760   3.436   2.523
 5548TIP3    H138203   6.823   3.423   2.595
 5548TIP3    H238204   6.709   3.355   2.521
 5549TIP3   OH238205   1.213   0.421   7.122
 5549TIP3    H138206   1.288   0.475   7.148
 5549TIP3    H238207   1.252   0.349   7.073
 5550TIP3   OH238208   5.770   3.088   0.485
 5550TIP3    H138209   5.810   3.164   0.526
 5550TIP3    H238210   5.798   3.092   0.394
 5551TIP3   OH238211   1.590   0.085   2.017
 5551TIP3    H138212   1.636   0.057   1.938
 5551TIP3    H238213   1.504   0.113   1.986
 5552TIP3   OH238214   4.642   1.812   2.102
 5552TIP3    H138215   4.549   1.794   2.094
 5552TIP3    H238216   4.650   1.906   2.087
 5553TIP3   OH238217   2.926   3.318   1.717
 5553TIP3    H138218   2.874   3.256   1.666
 5553TIP3    H238219   2.923   3.284   1.807
 5554TIP3   OH238220   6.826   6.621   1.766
 5554TIP3    H138221   6.808   6.531   1.740
 5554TIP3    H238222   0.064   6.621   1.791
 5555TIP3   OH238223   1.292   6.600   0.694
 5555TIP3    H138224   1.345   6.523   0.711
 5555TIP3    H238225   1.320   6.632   0.608
 5556TIP3   OH238226   1.544   1.337   0.391
 5556TIP3    H138227   1.492   1.413   0.418
 5556TIP3    H238228   1.630   1.351   0.432
 5557TIP3   OH238229   1.004   6.605   2.369
 5557TIP3    H138230   1.083   6.560   2.337
 5557TIP3    H238231   0.943   6.603   2.295
 5558TIP3   OH238232   5.377   1.985   6.963
 5558TIP3    H138233   5.325   1.907   6.946
 5558TIP3    H238234   5.441   1.957   7.029
 5559TIP3   OH238235   0.590   3.156   6.921
 5559TIP3    H138236   0.608   3.143   7.014
 5559TIP3    H238237   0.537   3.080   6.896
 5560TIP3   OH238238   4.508   3.110   7.251
 5560TIP3    H138239   4.529   3.075   7.338
 5560TIP3    H238240   4.547   3.047   7.190
 5561TIP3   OH238241   6.770   6.008   7.626
 5561TIP3    H138242   6.841   5.947   7.606
 5561TIP3    H238243   6.694   5.974   7.580
 5562TIP3   OH238244   6.716   2.120   1.938
 5562TIP3    H138245   6.750   2.093   1.853
 5562TIP3    H238246   6.786   2.100   2.000
 5563TIP3   OH238247   5.125   6.843   6.784
 5563TIP3    H138248   5.202   6.787   6.770
 5563TIP3    H238249   5.161   0.074   6.807
 5564TIP3   OH238250   6.059   5.414   8.126
 5564TIP3    H138251   6.026   5.501   8.149
 5564TIP3    H238252   5.982   5.367   8.093
 5565TIP3   OH238253   0.050   3.000   1.655
 5565TIP3    H138254   0.048   3.090   1.687
 5565TIP3    H238255   0.003   2.950   1.722
 5566TIP3   OH238256   5.719   6.494   1.857
 5566TIP3    H138257   5.635   6.480   1.900
 5566TIP3    H238258   5.782   6.444   1.909
 5567TIP3   OH238259   5.662   1.798   2.578
 5567TIP3    H138260   5.682   1.874   2.633
 5567TIP3    H238261   5.673   1.723   2.636
 5568TIP3   OH238262   5.955   5.440   0.953
 5568TIP3    H138263   5.987   5.401   0.871
 5568TIP3    H238264   5.994   5.385   1.022
 5569TIP3   OH238265   5.056   5.555   1.701
 5569TIP3    H138266   4.971   5.517   1.722
 5569TIP3    H238267   5.075   5.523   1.613
 5570TIP3   OH238268   0.747   2.724   8.466
 5570TIP3    H138269   0.781   2.642   8.431
 5570TIP3    H238270   0.737   2.780   8.389
 5571TIP3   OH238271   1.344   5.668   1.187
 5571TIP3    H138272   1.421   5.612   1.196
 5571TIP3    H238273   1.329   5.674   1.093
 5572TIP3   OH238274   6.491   4.019   0.437
 5572TIP3    H138275   6.414   3.970   0.409
 5572TIP3    H238276   6.508   3.987   0.526
 5573TIP3   OH238277   1.107   0.225   7.908
 5573TIP3    H138278   1.116   0.288   7.836
 5573TIP3    H238279   1.197   0.206   7.935
 5574TIP3   OH238280   6.132   4.490   0.464
 5574TIP3    H138281   6.095   4.440   0.537
 5574TIP3    H238282   6.227   4.483   0.476
 5575TIP3   OH238283   5.861   5.839   7.949
 5575TIP3    H138284   5.795   5.847   7.880
 5575TIP3    H238285   5.826   5.771   8.007
 5576TIP3   OH238286   6.053   2.351   8.072
 5576TIP3    H138287   6.046   2.315   7.984
 5576TIP3    H238288   5.964   2.381   8.093
 5577TIP3   OH238289   2.105   1.885   0.670
 5577TIP3    H138290   2.138   1.972   0.694
 5577TIP3    H238291   2.139   1.827   0.739
 5578TIP3   OH238292   1.740   0.636   8.178
 5578TIP3    H138293   1.698   0.710   8.221
 5578TIP3    H238294   1.825   0.627   8.222
 5579TIP3   OH238295   3.224   3.034   1.695
 5579TIP3    H138296   3.142   3.013   1.739
 5579TIP3    H238297   3.251   2.953   1.652
 5580TIP3   OH238298   0.713   2.842   7.111
 5580TIP3    H138299   0.742   2.869   7.024
 5580TIP3    H238300   0.784   2.788   7.144
 5581TIP3   OH238301   3.734   2.955   0.919
 5581TIP3    H138302   3.711   3.030   0.974
 5581TIP3    H238303   3.723   2.988   0.830
 5582TIP3   OH238304   2.881   5.708   7.181
 5582TIP3    H138305   2.872   5.769   7.255
 5582TIP3    H238306   2.974   5.712   7.159
 5583TIP3   OH238307   2.356   1.926   6.883
 5583TIP3    H138308   2.416   1.911   6.810
 5583TIP3    H238309   2.285   1.863   6.868
 5584TIP3   OH238310   1.697   5.189   0.887
 5584TIP3    H138311   1.787   5.218   0.875
 5584TIP3    H238312   1.698   5.096   0.866
 5585TIP3   OH238313   3.281   3.126   2.194
 5585TIP3    H138314   3.192   3.116   2.161
 5585TIP3    H238315   3.317   3.200   2.144
 5586TIP3   OH238316   3.324   0.695   0.682
 5586TIP3    H138317   3.270   0.638   0.627
 5586TIP3    H238318   3.333   0.776   0.633
 5587TIP3   OH238319   3.434   3.320   6.217
 5587TIP3    H138320   3.511   3.294   6.167
 5587TIP3    H238321   3.469   3.359   6.297
 5588TIP3   OH238322   5.163   1.398   0.092
 5588TIP3    H138323   5.070   1.398   0.115
 5588TIP3    H238324   5.168   1.342   0.013
 5589TIP3   OH238325   2.532   3.624   0.504
 5589TIP3    H138326   2.622   3.655   0.520
 5589TIP3    H238327   2.477   3.685   0.553
 5590TIP3   OH238328   5.133   4.603   7.336
 5590TIP3    H138329   5.043   4.625   7.358
 5590TIP3    H238330   5.162   4.675   7.280
 5591TIP3   OH238331   1.248   0.912   6.601
 5591TIP3    H138332   1.324   0.883   6.552
 5591TIP3    H238333   1.204   0.831   6.628
 5592TIP3   OH238334   1.126   2.227   7.185
 5592TIP3    H138335   1.065   2.233   7.112
 5592TIP3    H238336   1.088   2.160   7.242
 5593TIP3   OH238337   3.332   3.007   7.550
 5593TIP3    H138338   3.303   2.929   7.598
 5593TIP3    H238339   3.354   2.974   7.462
 5594TIP3   OH238340   5.678   1.821   1.966
 5594TIP3    H138341   5.600   1.798   2.017
 5594TIP3    H238342   5.750   1.780   2.014
 5595TIP3   OH238343   6.476   1.226   1.468
 5595TIP3    H138344   6.450   1.173   1.543
 5595TIP3    H238345   6.571   1.214   1.461
 5596TIP3   OH238346   1.353   0.110   7.180
 5596TIP3    H138347   1.439   0.085   7.214
 5596TIP3    H238348   1.372   0.167   7.105
 5597TIP3   OH238349   0.018   3.159   1.229
 5597TIP3    H138350   6.845   3.211   1.153
 5597TIP3    H238351   6.794   3.155   1.284
 5598TIP3   OH238352   6.570   4.204   6.988
 5598TIP3    H138353   6.665   4.206   7.002
 5598TIP3    H238354   6.533   4.210   7.076
 5599TIP3   OH238355   1.246   6.068   0.348
 5599TIP3    H138356   1.277   6.155   0.322
 5599TIP3    H238357   1.239   6.020   0.266
 5600TIP3   OH238358   3.743   0.070   8.399
 5600TIP3    H138359   3.702   0.009   8.337
 5600TIP3    H238360   3.670   0.109   8.445
 5601TIP3   OH238361   0.403   2.222   8.660
 5601TIP3    H138362   0.332   2.276   8.623
 5601TIP3    H238363   0.458   2.201   8.585
 5602TIP3   OH238364   6.542   5.564   7.437
 5602TIP3    H138365   6.459   5.520   7.453
 5602TIP3    H238366   6.574   5.527   7.355
 5603TIP3   OH238367   6.831   4.403   7.139
 5603TIP3    H138368   0.037   4.446   7.078
 5603TIP3    H238369   0.017   4.319   7.158
 5604TIP3   OH238370   4.682   0.773   8.672
 5604TIP3    H138371   4.626   0.812   0.013
 5604TIP3    H238372   4.666   0.825   8.594
 5605TIP3   OH238373   3.936   3.785   6.521
 5605TIP3    H138374   3.905   3.700   6.552
 5605TIP3    H238375   3.961   3.832   6.601
 5606TIP3   OH238376   5.285   3.514   2.187
 5606TIP3    H138377   5.317   3.579   2.250
 5606TIP3    H238378   5.348   3.443   2.193
 5607TIP3   OH238379   5.396   1.544   7.108
 5607TIP3    H138380   5.397   1.452   7.137
 5607TIP3    H238381   5.478   1.580   7.140
 5608TIP3   OH238382   3.335   5.699   1.883
 5608TIP3    H138383   3.352   5.605   1.878
 5608TIP3    H238384   3.388   5.729   1.956
 5609TIP3   OH238385   0.135   2.026   0.545
 5609TIP3    H138386   0.082   2.105   0.543
 5609TIP3    H238387   0.077   1.958   0.510
 5610TIP3   OH238388   0.336   1.471   7.967
 5610TIP3    H138389   0.318   1.504   7.879
 5610TIP3    H238390   0.419   1.511   7.991
 5611TIP3   OH238391   2.427   1.326   7.214
 5611TIP3    H138392   2.477   1.396   7.173
 5611TIP3    H238393   2.403   1.268   7.142
 5612TIP3   OH238394   4.648   5.457   8.383
 5612TIP3    H138395   4.608   5.543   8.389
 5612TIP3    H238396   4.736   5.473   8.350
 5613TIP3   OH238397   6.502   5.814   0.885
 5613TIP3    H138398   6.572   5.773   0.835
 5613TIP3    H238399   6.546   5.883   0.935
 5614TIP3   OH238400   4.606   3.809   7.691
 5614TIP3    H138401   4.583   3.756   7.767
 5614TIP3    H238402   4.551   3.774   7.620
 5615TIP3   OH238403   4.380   5.645   1.022
 5615TIP3    H138404   4.455   5.697   0.994
 5615TIP3    H238405   4.363   5.587   0.948
 5616TIP3   OH238406   1.639   4.253   8.636
 5616TIP3    H138407   1.610   4.198   8.709
 5616TIP3    H238408   1.734   4.255   8.643
 5617TIP3   OH238409   3.917   2.828   7.668
 5617TIP3    H138410   3.898   2.901   7.727
 5617TIP3    H238411   3.952   2.760   7.724
 5618TIP3   OH238412   2.814   3.700   0.557
 5618TIP3    H138413   2.842   3.612   0.531
 5618TIP3    H238414   2.877   3.726   0.625
 5619TIP3   OH238415   3.098   5.242   7.458
 5619TIP3    H138416   3.126   5.291   7.535
 5619TIP3    H238417   3.157   5.167   7.454
 5620TIP3   OH238418   3.841   4.672   6.681
 5620TIP3    H138419   3.775   4.611   6.714
 5620TIP3    H238420   3.909   4.615   6.643
 5621TIP3   OH238421   3.161   6.627   1.946
 5621TIP3    H138422   3.136   6.594   2.033
 5621TIP3    H238423   3.089   6.684   1.921
 5622TIP3   OH238424   1.316   2.185   6.832
 5622TIP3    H138425   1.262   2.222   6.762
 5622TIP3    H238426   1.276   2.101   6.852
 5623TIP3   OH238427   4.672   5.987   1.113
 5623TIP3    H138428   4.754   5.975   1.161
 5623TIP3    H238429   4.609   6.016   1.179
 5624TIP3   OH238430   2.635   0.912   7.788
 5624TIP3    H138431   2.630   0.994   7.739
 5624TIP3    H238432   2.560   0.861   7.758
 5625TIP3   OH238433   3.368   1.265   2.065
 5625TIP3    H138434   3.332   1.345   2.029
 5625TIP3    H238435   3.377   1.206   1.990
 5626TIP3   OH238436   5.551   3.128   1.776
 5626TIP3    H138437   5.477   3.173   1.734
 5626TIP3    H238438   5.620   3.128   1.709
 5627TIP3   OH238439   2.293   3.603   7.299
 5627TIP3    H138440   2.292   3.517   7.256
 5627TIP3    H238441   2.336   3.661   7.236
 5628TIP3   OH238442   1.163   6.580   6.894
 5628TIP3    H138443   1.086   6.636   6.885
 5628TIP3    H238444   1.129   6.498   6.929
 5629TIP3   OH238445   1.340   3.371   1.598
 5629TIP3    H138446   1.292   3.304   1.646
 5629TIP3    H238447   1.397   3.412   1.663
 5630TIP3   OH238448   4.889   2.744   7.014
 5630TIP3    H138449   4.821   2.742   6.947
 5630TIP3    H238450   4.914   2.652   7.026
 5631TIP3   OH238451   0.157   2.888   7.569
 5631TIP3    H138452   0.240   2.841   7.583
 5631TIP3    H238453   0.179   2.979   7.587
 5632TIP3   OH238454   2.454   0.869   8.386
 5632TIP3    H138455   2.398   0.863   8.463
 5632TIP3    H238456   2.455   0.962   8.364
 5633TIP3   OH238457   0.093   3.468   1.425
 5633TIP3    H138458   0.140   3.429   1.499
 5633TIP3    H238459   0.004   3.433   1.433
 5634TIP3   OH238460   2.729   4.993   7.026
 5634TIP3    H138461   2.647   4.999   6.977
 5634TIP3    H238462   2.752   5.084   7.044
 5635TIP3   OH238463   0.642   2.307   0.221
 5635TIP3    H138464   0.574   2.276   0.281
 5635TIP3    H238465   0.630   2.402   0.217
 5636TIP3   OH238466   2.850   2.123   7.936
 5636TIP3    H138467   2.895   2.130   7.852
 5636TIP3    H238468   2.818   2.033   7.938
 5637TIP3   OH238469   4.556   3.363   8.438
 5637TIP3    H138470   4.526   3.382   8.526
 5637TIP3    H238471   4.589   3.447   8.405
 5638TIP3   OH238472   6.154   2.259   6.296
 5638TIP3    H138473   6.123   2.293   6.380
 5638TIP3    H238474   6.146   2.333   6.236
 5639TIP3   OH238475   0.472   0.167   6.609
 5639TIP3    H138476   0.562   0.180   6.640
 5639TIP3    H238477   0.477   0.173   6.514
 5640TIP3   OH238478   3.357   1.437   1.469
 5640TIP3    H138479   3.330   1.527   1.487
 5640TIP3    H238480   3.390   1.439   1.379
 5641TIP3   OH238481   2.103   6.850   2.391
 5641TIP3    H138482   2.027   6.803   2.425
 5641TIP3    H238483   2.065   0.069   2.341
 5642TIP3   OH238484   6.628   5.863   6.238
 5642TIP3    H138485   6.574   5.817   6.302
 5642TIP3    H238486   6.566   5.915   6.187
 5643TIP3   OH238487   1.330   3.743   2.354
 5643TIP3    H138488   1.253   3.740   2.411
 5643TIP3    H238489   1.359   3.652   2.348
 5644TIP3   OH238490   1.826   3.426   6.369
 5644TIP3    H138491   1.877   3.392   6.296
 5644TIP3    H238492   1.741   3.384   6.361
 5645TIP3   OH238493   4.173   6.648   7.405
 5645TIP3    H138494   4.098   6.707   7.393
 5645TIP3    H238495   4.241   6.703   7.443
 5646TIP3   OH238496   6.523   6.188   0.285
 5646TIP3    H138497   6.590   6.141   0.236
 5646TIP3    H238498   6.441   6.145   0.261
 5647TIP3   OH238499   0.516   4.128   1.341
 5647TIP3    H138500   0.530   4.187   1.415
 5647TIP3    H238501   0.440   4.076   1.365
 5648TIP3   OH238502   2.187   6.441   0.193
 5648TIP3    H138503   2.262   6.446   0.251
 5648TIP3    H238504   2.164   6.533   0.176
 5649TIP3   OH238505   6.573   5.505   1.283
 5649TIP3    H138506   6.586   5.531   1.375
 5649TIP3    H238507   6.660   5.513   1.244
 5650TIP3   OH238508   2.228   6.364   7.286
 5650TIP3    H138509   2.217   6.388   7.378
 5650TIP3    H238510   2.311   6.404   7.261
 5651TIP3   OH238511   1.453   3.766   0.753
 5651TIP3    H138512   1.370   3.806   0.779
 5651TIP3    H238513   1.428   3.693   0.696
 5652TIP3   OH238514   2.395   6.434   0.351
 5652TIP3    H138515   2.437   6.501   0.297
 5652TIP3    H238516   2.468   6.385   0.389
 5653TIP3   OH238517   0.572   5.318   1.049
 5653TIP3    H138518   0.507   5.274   1.104
 5653TIP3    H238519   0.628   5.363   1.112
 5654TIP3   OH238520   0.393   0.406   1.081
 5654TIP3    H138521   0.469   0.356   1.050
 5654TIP3    H238522   0.328   0.396   1.012
 5655TIP3   OH238523   5.748   1.620   1.136
 5655TIP3    H138524   5.832   1.577   1.122
 5655TIP3    H238525   5.702   1.563   1.197
 5656TIP3   OH238526   3.166   3.685   0.242
 5656TIP3    H138527   3.139   3.665   0.152
 5656TIP3    H238528   3.084   3.684   0.291
 5657TIP3   OH238529   4.022   3.462   0.901
 5657TIP3    H138530   3.955   3.529   0.902
 5657TIP3    H238531   3.976   3.381   0.878
 5658TIP3   OH238532   6.011   5.886   7.182
 5658TIP3    H138533   6.086   5.918   7.132
 5658TIP3    H238534   5.984   5.806   7.138
 5659TIP3   OH238535   0.589   3.567   0.771
 5659TIP3    H138536   0.614   3.544   0.681
 5659TIP3    H238537   0.523   3.635   0.760
 5660TIP3   OH238538   3.731   2.635   0.938
 5660TIP3    H138539   3.680   2.654   0.860
 5660TIP3    H238540   3.778   2.554   0.918
 5661TIP3   OH238541   2.040   1.940   1.125
 5661TIP3    H138542   1.983   2.006   1.164
 5661TIP3    H238543   1.983   1.891   1.066
 5662TIP3   OH238544   6.693   5.999   0.707
 5662TIP3    H138545   6.661   5.991   0.797
 5662TIP3    H238546   6.649   5.928   0.660
 5663TIP3   OH238547   0.796   0.541   7.397
 5663TIP3    H138548   0.716   0.519   7.445
 5663TIP3    H238549   0.773   0.620   7.349
 5664TIP3   OH238550   5.975   4.515   0.003
 5664TIP3    H138551   5.981   4.494   0.097
 5664TIP3    H238552   5.887   4.487   8.705
 5665TIP3   OH238553   5.224   0.637   1.692
 5665TIP3    H138554   5.213   0.576   1.764
 5665TIP3    H238555   5.138   0.643   1.651
 5666TIP3   OH238556   6.580   2.756   8.206
 5666TIP3    H138557   6.668   2.761   8.242
 5666TIP3    H238558   6.524   2.738   8.282
 5667TIP3   OH238559   3.521   1.501   0.466
 5667TIP3    H138560   3.493   1.456   0.545
 5667TIP3    H238561   3.467   1.464   0.396
 5668TIP3   OH238562   1.674   4.773   7.637
 5668TIP3    H138563   1.621   4.807   7.565
 5668TIP3    H238564   1.635   4.687   7.656
 5669TIP3   OH238565   4.859   3.365   6.922
 5669TIP3    H138566   4.785   3.361   6.982
 5669TIP3    H238567   4.916   3.294   6.949
 5670TIP3   OH238568   3.524   4.713   0.667
 5670TIP3    H138569   3.470   4.654   0.719
 5670TIP3    H238570   3.496   4.801   0.692
 5671TIP3   OH238571   5.441   3.463   1.654
 5671TIP3    H138572   5.427   3.555   1.677
 5671TIP3    H238573   5.535   3.456   1.640
 5672TIP3   OH238574   3.077   3.262   2.044
 5672TIP3    H138575   3.004   3.235   1.987
 5672TIP3    H238576   3.034   3.304   2.118
 5673TIP3   OH238577   3.663   1.525   1.305
 5673TIP3    H138578   3.701   1.524   1.392
 5673TIP3    H238579   3.668   1.617   1.277
 5674TIP3   OH238580   5.300   2.031   1.175
 5674TIP3    H138581   5.206   2.046   1.180
 5674TIP3    H238582   5.336   2.076   1.251
 5675TIP3   OH238583   0.481   3.052   0.039
 5675TIP3    H138584   0.568   3.075   0.072
 5675TIP3    H238585   0.462   3.119   8.700
 5676TIP3   OH238586   4.640   4.431   0.582
 5676TIP3    H138587   4.667   4.458   0.670
 5676TIP3    H238588   4.660   4.506   0.527
 5677TIP3   OH238589   5.503   1.265   1.952
 5677TIP3    H138590   5.462   1.352   1.950
 5677TIP3    H238591   5.574   1.272   1.887
 5678TIP3   OH238592   1.912   6.377   0.154
 5678TIP3    H138593   1.853   6.396   0.227
 5678TIP3    H238594   2.000   6.381   0.192
 5679TIP3   OH238595   4.430   4.548   0.121
 5679TIP3    H138596   4.397   4.491   0.190
 5679TIP3    H238597   4.507   4.502   0.087
 5680TIP3   OH238598   2.812   0.840   1.407
 5680TIP3    H138599   2.892   0.790   1.391
 5680TIP3    H238600   2.749   0.775   1.438
 5681TIP3   OH238601   2.568   5.412   6.956
 5681TIP3    H138602   2.564   5.428   6.861
 5681TIP3    H238603   2.608   5.492   6.991
 5682TIP3   OH238604   3.261   0.375   1.908
 5682TIP3    H138605   3.202   0.300   1.901
 5682TIP3    H238606   3.322   0.364   1.835
 5683TIP3   OH238607   1.939   0.778   0.378
 5683TIP3    H138608   1.950   0.819   0.292
 5683TIP3    H238609   1.845   0.762   0.385
 5684TIP3   OH238610   2.095   3.493   7.497
 5684TIP3    H138611   2.171   3.519   7.444
 5684TIP3    H238612   2.035   3.453   7.434
 5685TIP3   OH238613   4.429   0.529   0.509
 5685TIP3    H138614   4.365   0.458   0.496
 5685TIP3    H238615   4.387   0.606   0.471
 5686TIP3   OH238616   4.509   6.037   8.060
 5686TIP3    H138617   4.499   6.115   8.007
 5686TIP3    H238618   4.524   5.966   7.997
 5687TIP3   OH238619   0.785   5.958   7.805
 5687TIP3    H138620   0.818   5.872   7.830
 5687TIP3    H238621   0.690   5.952   7.819
 5688TIP3   OH238622   0.065   6.534   8.103
 5688TIP3    H138623   0.064   6.562   8.011
 5688TIP3    H238624   6.838   6.484   8.113
 5689TIP3   OH238625   4.946   1.495   8.276
 5689TIP3    H138626   4.873   1.442   8.310
 5689TIP3    H238627   4.904   1.572   8.238
 5690TIP3   OH238628   1.736   5.371   7.057
 5690TIP3    H138629   1.730   5.385   6.962
 5690TIP3    H238630   1.647   5.383   7.088
 5691TIP3   OH238631   2.564   5.927   1.007
 5691TIP3    H138632   2.548   5.860   0.940
 5691TIP3    H238633   2.499   5.909   1.075
 5692TIP3   OH238634   2.597   2.855   1.189
 5692TIP3    H138635   2.501   2.860   1.197
 5692TIP3    H238636   2.625   2.946   1.178
 5693TIP3   OH238637   1.230   5.982   1.916
 5693TIP3    H138638   1.305   5.981   1.976
 5693TIP3    H238639   1.169   5.918   1.952
 5694TIP3   OH238640   0.981   4.106   8.702
 5694TIP3    H138641   1.014   4.159   0.048
 5694TIP3    H238642   0.894   4.076   0.005
 5695TIP3   OH238643   1.715   2.295   0.713
 5695TIP3    H138644   1.743   2.243   0.789
 5695TIP3    H238645   1.677   2.231   0.653
 5696TIP3   OH238646   2.553   0.566   1.114
 5696TIP3    H138647   2.466   0.530   1.099
 5696TIP3    H238648   2.540   0.661   1.117
 5697TIP3   OH238649   5.748   6.522   7.347
 5697TIP3    H138650   5.829   6.564   7.377
 5697TIP3    H238651   5.777   6.455   7.285
 5698TIP3   OH238652   2.512   4.078   7.277
 5698TIP3    H138653   2.596   4.109   7.309
 5698TIP3    H238654   2.529   4.052   7.187
 5699TIP3   OH238655   5.046   1.664   6.954
 5699TIP3    H138656   5.032   1.750   6.915
 5699TIP3    H238657   4.992   1.604   6.903
 5700TIP3   OH238658   5.344   6.064   1.232
 5700TIP3    H138659   5.379   6.137   1.181
 5700TIP3    H238660   5.264   6.099   1.272
 5701TIP3   OH238661   3.927   4.884   1.163
 5701TIP3    H138662   3.984   4.884   1.087
 5701TIP3    H238663   3.945   4.967   1.208
 5702TIP3   OH238664   1.487   6.006   7.547
 5702TIP3    H138665   1.403   5.964   7.528
 5702TIP3    H238666   1.521   6.032   7.461
 5703TIP3   OH238667   4.546   2.176   1.379
 5703TIP3    H138668   4.510   2.139   1.298
 5703TIP3    H238669   4.629   2.130   1.391
 5704TIP3   OH238670   3.137   0.595   0.200
 5704TIP3    H138671   3.109   0.565   0.113
 5704TIP3    H238672   3.055   0.619   0.244
 5705TIP3   OH238673   4.238   4.659   8.120
 5705TIP3    H138674   4.184   4.697   8.189
 5705TIP3    H238675   4.207   4.700   8.039
 5706TIP3   OH238676   6.165   0.933   8.459
 5706TIP3    H138677   6.101   0.919   8.389
 5706TIP3    H238678   6.175   1.028   8.463
 5707TIP3   OH238679   2.117   0.350   8.126
 5707TIP3    H138680   2.123   0.407   8.203
 5707TIP3    H238681   2.201   0.360   8.082
 5708TIP3   OH238682   6.481   2.252   1.129
 5708TIP3    H138683   6.467   2.288   1.042
 5708TIP3    H238684   6.535   2.317   1.174
 5709TIP3   OH238685   3.069   2.867   2.332
 5709TIP3    H138686   3.055   2.848   2.239
 5709TIP3    H238687   3.163   2.885   2.339
 5710TIP3   OH238688   1.632   0.157   6.357
 5710TIP3    H138689   1.556   0.101   6.345
 5710TIP3    H238690   1.651   0.152   6.451
 5711TIP3   OH238691   2.214   1.067   7.718
 5711TIP3    H138692   2.196   1.160   7.706
 5711TIP3    H238693   2.129   1.029   7.741
 5712TIP3   OH238694   2.249   2.547   8.492
 5712TIP3    H138695   2.273   2.639   8.480
 5712TIP3    H238696   2.232   2.514   8.404
 5713TIP3   OH238697   4.882   0.393   7.211
 5713TIP3    H138698   4.887   0.417   7.303
 5713TIP3    H238699   4.860   0.474   7.166
 5714TIP3   OH238700   4.316   0.045   7.021
 5714TIP3    H138701   4.355   6.845   7.090
 5714TIP3    H238702   4.281   0.121   7.067
 5715TIP3   OH238703   3.806   5.619   8.683
 5715TIP3    H138704   3.732   5.668   8.649
 5715TIP3    H238705   3.881   5.678   8.672
 5716TIP3   OH238706   1.243   2.655   0.855
 5716TIP3    H138707   1.259   2.737   0.901
 5716TIP3    H238708   1.149   2.655   0.838
 5717TIP3   OH238709   1.834   3.575   1.296
 5717TIP3    H138710   1.829   3.662   1.257
 5717TIP3    H238711   1.745   3.556   1.325
 5718TIP3   OH238712   2.031   5.819   7.292
 5718TIP3    H138713   2.023   5.914   7.293
 5718TIP3    H238714   2.066   5.797   7.379
 5719TIP3   OH238715   4.175   0.777   0.946
 5719TIP3    H138716   4.095   0.828   0.933
 5719TIP3    H238717   4.174   0.714   0.874
 5720TIP3   OH238718   5.173   0.818   7.693
 5720TIP3    H138719   5.121   0.850   7.766
 5720TIP3    H238720   5.112   0.770   7.638
 5721TIP3   OH238721   4.827   2.032   0.702
 5721TIP3    H138722   4.910   2.032   0.750
 5721TIP3    H238723   4.771   2.092   0.752
 5722TIP3   OH238724   5.929   2.887   0.730
 5722TIP3    H138725   6.014   2.888   0.687
 5722TIP3    H238726   5.948   2.908   0.822
 5723TIP3   OH238727   3.841   2.293   7.380
 5723TIP3    H138728   3.832   2.295   7.475
 5723TIP3    H238729   3.847   2.385   7.354
 5724TIP3   OH238730   4.156   3.769   0.536
 5724TIP3    H138731   4.203   3.773   0.620
 5724TIP3    H238732   4.087   3.705   0.550
 5725TIP3   OH238733   5.779   1.955   6.981
 5725TIP3    H138734   5.794   1.872   7.026
 5725TIP3    H238735   5.731   2.009   7.044
 5726TIP3   OH238736   2.331   0.576   0.091
 5726TIP3    H138737   2.323   0.612   0.180
 5726TIP3    H238738   2.390   0.500   0.102
 5727TIP3   OH238739   4.067   3.959   1.716
 5727TIP3    H138740   4.103   4.047   1.727
 5727TIP3    H238741   4.111   3.907   1.783
 5728TIP3   OH238742   4.804   5.081   7.678
 5728TIP3    H138743   4.782   4.988   7.685
 5728TIP3    H238744   4.723   5.122   7.649
 5729TIP3   OH238745   0.126   1.640   0.490
 5729TIP3    H138746   0.104   1.668   0.401
 5729TIP3    H238747   0.216   1.609   0.485
 5730TIP3   OH238748   1.047   0.999   1.218
 5730TIP3    H138749   1.129   0.977   1.174
 5730TIP3    H238750   1.072   1.067   1.282
 5731TIP3   OH238751   4.195   3.402   6.862
 5731TIP3    H138752   4.158   3.383   6.948
 5731TIP3    H238753   4.249   3.480   6.876
 5732TIP3   OH238754   0.704   6.800   0.516
 5732TIP3    H138755   0.619   6.791   0.559
 5732TIP3    H238756   0.764   6.824   0.586
 5733TIP3   OH238757   3.021   5.562   0.647
 5733TIP3    H138758   3.104   5.514   0.656
 5733TIP3    H238759   2.999   5.587   0.736
 5734TIP3   OH238760   1.576   1.828   8.680
 5734TIP3    H138761   1.527   1.902   8.715
 5734TIP3    H238762   1.635   1.802   0.025
 5735TIP3   OH238763   0.455   3.848   2.075
 5735TIP3    H138764   0.443   3.753   2.065
 5735TIP3    H238765   0.524   3.870   2.012
 5736TIP3   OH238766   0.790   2.820   0.672
 5736TIP3    H138767   0.757   2.773   0.596
 5736TIP3    H238768   0.867   2.868   0.640
 5737TIP3   OH238769   4.794   2.080   0.416
 5737TIP3    H138770   4.778   1.986   0.420
 5737TIP3    H238771   4.863   2.096   0.480
 5738TIP3   OH238772   3.227   3.511   1.956
 5738TIP3    H138773   3.201   3.423   1.983
 5738TIP3    H238774   3.322   3.508   1.950
 5739TIP3   OH238775   6.303   5.344   1.842
 5739TIP3    H138776   6.369   5.336   1.910
 5739TIP3    H238777   6.248   5.267   1.852
 5740TIP3   OH238778   3.376   3.299   6.836
 5740TIP3    H138779   3.303   3.295   6.774
 5740TIP3    H238780   3.336   3.326   6.918
 5741TIP3   OH238781   2.776   1.169   7.129
 5741TIP3    H138782   2.804   1.243   7.077
 5741TIP3    H238783   2.784   1.199   7.220
 5742TIP3   OH238784   0.954   3.981   1.755
 5742TIP3    H138785   1.012   3.985   1.678
 5742TIP3    H238786   0.925   4.071   1.767
 5743TIP3   OH238787   5.945   2.404   1.378
 5743TIP3    H138788   5.962   2.499   1.380
 5743TIP3    H238789   6.017   2.368   1.328
 5744TIP3   OH238790   4.393   2.486   8.241
 5744TIP3    H138791   4.383   2.463   8.333
 5744TIP3    H238792   4.421   2.577   8.242
 5745TIP3   OH238793   1.817   0.984   6.990
 5745TIP3    H138794   1.911   0.966   6.982
 5745TIP3    H238795   1.789   0.934   7.066
 5746TIP3   OH238796   5.554   1.267   7.413
 5746TIP3    H138797   5.571   1.188   7.362
 5746TIP3    H238798   5.477   1.245   7.466
 5747TIP3   OH238799   2.361   0.297   0.482
 5747TIP3    H138800   2.395   0.268   0.566
 5747TIP3    H238801   2.419   0.256   0.417
 5748TIP3   OH238802   4.208   2.758   6.696
 5748TIP3    H138803   4.268   2.794   6.762
 5748TIP3    H238804   4.176   2.835   6.648
 5749TIP3   OH238805   1.810   3.371   7.069
 5749TIP3    H138806   1.856   3.410   6.995
 5749TIP3    H238807   1.793   3.281   7.043
 5750TIP3   OH238808   2.383   6.470   6.909
 5750TIP3    H138809   2.435   6.400   6.947
 5750TIP3    H238810   2.447   6.535   6.880
 5751TIP3   OH238811   2.803   5.637   6.335
 5751TIP3    H138812   2.735   5.596   6.281
 5751TIP3    H238813   2.875   5.574   6.335
 5752TIP3   OH238814   3.619   5.722   8.183
 5752TIP3    H138815   3.687   5.790   8.188
 5752TIP3    H238816   3.662   5.643   8.216
 5753TIP3   OH238817   2.568   5.697   0.845
 5753TIP3    H138818   2.507   5.626   0.824
 5753TIP3    H238819   2.641   5.686   0.784
 5754TIP3   OH238820   1.390   6.306   7.298
 5754TIP3    H138821   1.331   6.337   7.229
 5754TIP3    H238822   1.332   6.281   7.369
 5755TIP3   OH238823   0.598   4.456   1.968
 5755TIP3    H138824   0.572   4.463   1.876
 5755TIP3    H238825   0.518   4.476   2.017
 5756TIP3   OH238826   1.046   2.982   2.529
 5756TIP3    H138827   1.131   3.028   2.525
 5756TIP3    H238828   1.067   2.895   2.563
 5757TIP3   OH238829   4.766   4.620   7.191
 5757TIP3    H138830   4.795   4.607   7.281
 5757TIP3    H238831   4.798   4.708   7.168
 5758TIP3   OH238832   5.863   5.831   1.483
 5758TIP3    H138833   5.825   5.784   1.557
 5758TIP3    H238834   5.922   5.895   1.523
 5759TIP3   OH238835   0.420   1.553   8.723
 5759TIP3    H138836   0.347   1.510   0.042
 5759TIP3    H238837   0.498   1.511   0.033
 5760TIP3   OH238838   4.124   4.009   0.060
 5760TIP3    H138839   4.055   4.072   0.081
 5760TIP3    H238840   4.081   3.943   0.006
 5761TIP3   OH238841   6.521   5.211   7.073
 5761TIP3    H138842   6.473   5.158   7.136
 5761TIP3    H238843   6.455   5.238   7.009
 5762TIP3   OH238844   4.550   0.878   8.013
 5762TIP3    H138845   4.606   0.810   8.050
 5762TIP3    H238846   4.467   0.833   7.996
 5763TIP3   OH238847   3.568   4.482   7.161
 5763TIP3    H138848   3.563   4.573   7.190
 5763TIP3    H238849   3.653   4.451   7.194
 5764TIP3   OH238850   1.673   3.306   1.660
 5764TIP3    H138851   1.611   3.362   1.612
 5764TIP3    H238852   1.618   3.239   1.700
 5765TIP3   OH238853   4.871   3.796   1.298
 5765TIP3    H138854   4.913   3.793   1.384
 5765TIP3    H238855   4.936   3.838   1.241
 5766TIP3   OH238856   4.258   1.230   0.490
 5766TIP3    H138857   4.164   1.220   0.472
 5766TIP3    H238858   4.277   1.322   0.469
 5767TIP3   OH238859   1.743   1.114   1.740
 5767TIP3    H138860   1.774   1.061   1.814
 5767TIP3    H238861   1.707   1.050   1.679
 5768TIP3   OH238862   1.001   4.028   2.503
 5768TIP3    H138863   1.058   3.999   2.574
 5768TIP3    H238864   0.996   3.953   2.443
 5769TIP3   OH238865   1.825   1.131   0.519
 5769TIP3    H138866   1.850   1.184   0.595
 5769TIP3    H238867   1.855   1.181   0.444
 5770TIP3   OH238868   3.625   4.874   2.217
 5770TIP3    H138869   3.535   4.867   2.184
 5770TIP3    H238870   3.647   4.966   2.207
 5771TIP3   OH238871   2.650   6.329   6.893
 5771TIP3    H138872   2.736   6.353   6.926
 5771TIP3    H238873   2.665   6.301   6.803
 5772TIP3   OH238874   2.015   4.293   0.948
 5772TIP3    H138875   1.978   4.207   0.928
 5772TIP3    H238876   1.941   4.346   0.976
 5773TIP3   OH238877   4.366   2.604   1.777
 5773TIP3    H138878   4.316   2.537   1.731
 5773TIP3    H238879   4.352   2.584   1.870
 5774TIP3   OH238880   2.107   3.264   0.816
 5774TIP3    H138881   2.166   3.190   0.809
 5774TIP3    H238882   2.162   3.341   0.801
 5775TIP3   OH238883   2.253   0.188   8.512
 5775TIP3    H138884   2.285   0.275   8.537
 5775TIP3    H238885   2.251   0.190   8.416
 5776TIP3   OH238886   0.629   2.897   1.196
 5776TIP3    H138887   0.672   2.844   1.129
 5776TIP3    H238888   0.634   2.844   1.275
 5777TIP3   OH238889   1.481   4.800   0.921
 5777TIP3    H138890   1.476   4.708   0.895
 5777TIP3    H238891   1.390   4.830   0.923
 5778TIP3   OH238892   1.680   5.868   0.932
 5778TIP3    H138893   1.758   5.921   0.917
 5778TIP3    H238894   1.625   5.922   0.990
 5779TIP3   OH238895   5.522   1.591   6.131
 5779TIP3    H138896   5.454   1.574   6.195
 5779TIP3    H238897   5.541   1.506   6.093
 5780TIP3   OH238898   0.134   5.579   7.110
 5780TIP3    H138899   0.209   5.608   7.058
 5780TIP3    H238900   0.082   5.526   7.050
 5781TIP3   OH238901   4.878   5.108   0.423
 5781TIP3    H138902   4.859   5.082   0.333
 5781TIP3    H238903   4.892   5.025   0.469
 5782TIP3   OH238904   2.355   3.859   6.613
 5782TIP3    H138905   2.367   3.895   6.701
 5782TIP3    H238906   2.443   3.831   6.586
 5783TIP3   OH238907   3.871   6.303   2.330
 5783TIP3    H138908   3.829   6.317   2.415
 5783TIP3    H238909   3.901   6.390   2.304
 5784TIP3   OH238910   2.699   0.993   0.024
 5784TIP3    H138911   2.765   1.027   0.084
 5784TIP3    H238912   2.706   1.047   8.672
 5785TIP3   OH238913   4.847   5.501   6.536
 5785TIP3    H138914   4.836   5.474   6.445
 5785TIP3    H238915   4.757   5.506   6.570
 5786TIP3   OH238916   0.664   3.053   7.434
 5786TIP3    H138917   0.692   3.034   7.523
 5786TIP3    H238918   0.736   3.023   7.379
 5787TIP3   OH238919   1.722   3.296   8.165
 5787TIP3    H138920   1.685   3.249   8.239
 5787TIP3    H238921   1.649   3.302   8.102
 5788TIP3   OH238922   1.918   2.521   8.210
 5788TIP3    H138923   1.876   2.493   8.291
 5788TIP3    H238924   1.916   2.617   8.213
 5789TIP3   OH238925   4.736   4.166   6.486
 5789TIP3    H138926   4.759   4.089   6.537
 5789TIP3    H238927   4.689   4.222   6.548
 5790TIP3   OH238928   4.045   0.218   8.690
 5790TIP3    H138929   3.974   0.263   0.010
 5790TIP3    H238930   4.031   0.239   8.597
 5791TIP3   OH238931   3.628   6.741   1.717
 5791TIP3    H138932   3.664   6.773   1.800
 5791TIP3    H238933   3.534   6.732   1.733
 5792TIP3   OH238934   4.838   4.494   8.233
 5792TIP3    H138935   4.838   4.520   8.325
 5792TIP3    H238936   4.770   4.427   8.227
 5793TIP3   OH238937   5.933   6.630   0.637
 5793TIP3    H138938   5.864   6.563   0.634
 5793TIP3    H238939   5.916   6.685   0.561
 5794TIP3   OH238940   6.847   6.835   0.620
 5794TIP3    H138941   6.847   6.845   0.525
 5794TIP3    H238942   0.074   0.023   0.649
 5795TIP3   OH238943   3.992   4.308   6.177
 5795TIP3    H138944   4.007   4.214   6.163
 5795TIP3    H238945   4.070   4.338   6.224
 5796TIP3   OH238946   3.854   4.778   2.081
 5796TIP3    H138947   3.779   4.816   2.128
 5796TIP3    H238948   3.874   4.698   2.130
 5797TIP3   OH238949   5.664   4.639   1.343
 5797TIP3    H138950   5.630   4.591   1.419
 5797TIP3    H238951   5.587   4.655   1.288
 5798TIP3   OH238952   0.104   5.932   0.487
 5798TIP3    H138953   0.154   6.013   0.498
 5798TIP3    H238954   0.013   5.958   0.499
 5799TIP3   OH238955   1.760   2.216   1.469
 5799TIP3    H138956   1.738   2.309   1.468
 5799TIP3    H238957   1.747   2.188   1.559
 5800TIP3   OH238958   6.584   5.316   8.353
 5800TIP3    H138959   6.594   5.236   8.302
 5800TIP3    H238960   6.500   5.305   8.398
 5801TIP3   OH238961   3.019   5.534   1.904
 5801TIP3    H138962   3.046   5.626   1.899
 5801TIP3    H238963   3.078   5.489   1.844
 5802TIP3   OH238964   3.581   3.744   7.734
 5802TIP3    H138965   3.498   3.778   7.767
 5802TIP3    H238966   3.636   3.736   7.812
 5803TIP3   OH238967   1.286   3.814   0.153
 5803TIP3    H138968   1.196   3.789   0.131
 5803TIP3    H238969   1.280   3.847   0.243
 5804TIP3   OH238970   5.732   3.464   2.030
 5804TIP3    H138971   5.799   3.529   2.051
 5804TIP3    H238972   5.700   3.435   2.116
 5805TIP3   OH238973   2.895   1.854   7.949
 5805TIP3    H138974   2.939   1.771   7.927
 5805TIP3    H238975   2.815   1.828   7.993
 5806TIP3   OH238976   4.845   2.798   0.670
 5806TIP3    H138977   4.863   2.723   0.726
 5806TIP3    H238978   4.823   2.760   0.585
 5807TIP3   OH238979   3.298   5.587   8.703
 5807TIP3    H138980   3.242   5.527   0.027
 5807TIP3    H238981   3.324   5.653   0.041
 5808TIP3   OH238982   1.513   5.114   7.659
 5808TIP3    H138983   1.520   5.078   7.571
 5808TIP3    H238984   1.571   5.190   7.658
 5809TIP3   OH238985   2.222   4.767   7.804
 5809TIP3    H138986   2.308   4.810   7.801
 5809TIP3    H238987   2.169   4.818   7.742
 5810TIP3   OH238988   4.959   4.193   8.557
 5810TIP3    H138989   4.942   4.151   8.641
 5810TIP3    H238990   4.877   4.185   8.509
 5811TIP3   OH238991   4.617   5.237   1.731
 5811TIP3    H138992   4.680   5.295   1.689
 5811TIP3    H238993   4.646   5.232   1.822
 5812TIP3   OH238994   4.161   1.271   0.736
 5812TIP3    H138995   4.236   1.261   0.679
 5812TIP3    H238996   4.108   1.193   0.721
 5813TIP3   OH238997   0.656   0.745   8.401
 5813TIP3    H138998   0.702   0.805   8.461
 5813TIP3    H238999   0.656   0.791   8.317
 5814TIP3   OH239000   4.243   0.385   8.313
 5814TIP3    H139001   4.270   0.381   8.405
 5814TIP3    H239002   4.318   0.349   8.265
 5815TIP3   OH239003   6.690   2.103   0.188
 5815TIP3    H139004   6.603   2.075   0.217
 5815TIP3    H239005   6.673   2.159   0.112
 5816TIP3   OH239006   0.892   4.584   8.298
 5816TIP3    H139007   0.875   4.544   8.213
 5816TIP3    H239008   0.805   4.592   8.338
 5817TIP3   OH239009   6.193   1.852   2.795
 5817TIP3    H139010   6.276   1.867   2.751
 5817TIP3    H239011   6.214   1.855   2.888
 5818TIP3   OH239012   5.775   4.275   1.448
 5818TIP3    H139013   5.699   4.327   1.472
 5818TIP3    H239014   5.830   4.273   1.527
 5819TIP3   OH239015   2.711   4.705   8.085
 5819TIP3    H139016   2.759   4.635   8.040
 5819TIP3    H239017   2.779   4.765   8.116
 5820TIP3   OH239018   1.391   0.185   7.935
 5820TIP3    H139019   1.448   0.235   7.877
 5820TIP3    H239020   1.444   0.109   7.960
 5821TIP3   OH239021   4.504   5.683   1.310
 5821TIP3    H139022   4.449   5.668   1.387
 5821TIP3    H239023   4.447   5.731   1.249
 5822TIP3   OH239024   4.558   5.120   8.202
 5822TIP3    H139025   4.635   5.124   8.259
 5822TIP3    H239026   4.587   5.073   8.125
 5823TIP3   OH239027   1.772   3.823   8.412
 5823TIP3    H139028   1.681   3.853   8.418
 5823TIP3    H239029   1.770   3.751   8.349
 5824TIP3   OH239030   4.306   4.610   0.673
 5824TIP3    H139031   4.243   4.594   0.744
 5824TIP3    H239032   4.374   4.664   0.713
 5825TIP3   OH239033   0.986   5.432   0.549
 5825TIP3    H139034   1.023   5.358   0.597
 5825TIP3    H239035   1.044   5.506   0.569
 5826TIP3   OH239036   4.636   0.534   8.517
 5826TIP3    H139037   4.556   0.550   8.467
 5826TIP3    H239038   4.656   0.619   8.558
 5827TIP3   OH239039   5.233   4.212   0.013
 5827TIP3    H139040   5.138   4.219   0.009
 5827TIP3    H239041   5.261   4.284   0.069
 5828TIP3   OH239042   2.079   0.147   7.757
 5828TIP3    H139043   2.111   0.154   7.667
 5828TIP3    H239044   1.984   0.145   7.749
 5829TIP3   OH239045   4.480   4.144   8.430
 5829TIP3    H139046   4.514   4.055   8.437
 5829TIP3    H239047   4.386   4.135   8.443
 5830TIP3   OH239048   1.266   3.631   0.628
 5830TIP3    H139049   1.251   3.631   0.533
 5830TIP3    H239050   1.208   3.562   0.661
 5831TIP3   OH239051   4.241   3.198   0.734
 5831TIP3    H139052   4.229   3.279   0.684
 5831TIP3    H239053   4.245   3.228   0.825
 5832TIP3   OH239054   3.405   6.643   1.227
 5832TIP3    H139055   3.350   6.578   1.184
 5832TIP3    H239056   3.343   6.704   1.268
 5833TIP3   OH239057   5.269   6.576   1.131
 5833TIP3    H139058   5.322   6.528   1.195
 5833TIP3    H239059   5.310   6.556   1.047
 5834TIP3   OH239060   2.821   2.222   7.500
 5834TIP3    H139061   2.868   2.170   7.565
 5834TIP3    H239062   2.731   2.225   7.532
 5835TIP3   OH239063   0.740   5.176   0.141
 5835TIP3    H139064   0.784   5.217   0.215
 5835TIP3    H239065   0.810   5.135   0.091
 5836TIP3   OH239066   6.494   3.359   1.947
 5836TIP3    H139067   6.550   3.437   1.949
 5836TIP3    H239068   6.487   3.333   2.039
 5837TIP3   OH239069   6.234   0.725   1.709
 5837TIP3    H139070   6.225   0.638   1.749
 5837TIP3    H239071   6.321   0.724   1.670
 5838TIP3   OH239072   5.736   6.137   1.154
 5838TIP3    H139073   5.656   6.187   1.136
 5838TIP3    H239074   5.770   6.173   1.235
 5839TIP3   OH239075   3.348   3.716   6.237
 5839TIP3    H139076   3.285   3.648   6.214
 5839TIP3    H239077   3.325   3.790   6.181
 5840TIP3   OH239078   3.023   1.731   8.280
 5840TIP3    H139079   3.039   1.681   8.200
 5840TIP3    H239080   2.933   1.761   8.273
 5841TIP3   OH239081   1.226   2.003   1.703
 5841TIP3    H139082   1.305   1.973   1.658
 5841TIP3    H239083   1.162   2.014   1.633
 5842TIP3   OH239084   3.477   2.925   6.324
 5842TIP3    H139085   3.384   2.905   6.324
 5842TIP3    H239086   3.489   2.984   6.399
 5843TIP3   OH239087   2.980   5.577   8.081
 5843TIP3    H139088   2.932   5.570   7.999
 5843TIP3    H239089   2.958   5.498   8.129
 5844TIP3   OH239090   3.213   2.336   8.411
 5844TIP3    H139091   3.308   2.346   8.422
 5844TIP3    H239092   3.202   2.251   8.370
 5845TIP3   OH239093   3.360   4.748   1.177
 5845TIP3    H139094   3.406   4.778   1.098
 5845TIP3    H239095   3.268   4.743   1.151
 5846TIP3   OH239096   1.079   3.204   6.330
 5846TIP3    H139097   1.020   3.129   6.341
 5846TIP3    H239098   1.139   3.198   6.403
 5847TIP3   OH239099   4.969   5.652   1.227
 5847TIP3    H139100   5.000   5.602   1.303
 5847TIP3    H239101   4.874   5.653   1.237
 5848TIP3   OH239102   4.561   6.703   7.481
 5848TIP3    H139103   4.638   6.749   7.515
 5848TIP3    H239104   4.552   6.734   7.391
 5849TIP3   OH239105   0.768   1.772   7.719
 5849TIP3    H139106   0.719   1.692   7.740
 5849TIP3    H239107   0.781   1.815   7.804
 5850TIP3   OH239108   2.311   1.024   0.106
 5850TIP3    H139109   2.330   1.089   0.039
 5850TIP3    H239110   2.345   1.062   0.187
 5851TIP3   OH239111   5.235   0.304   8.647
 5851TIP3    H139112   5.228   0.339   8.558
 5851TIP3    H239113   5.329   0.309   8.666
 5852TIP3   OH239114   0.048   4.533   1.363
 5852TIP3    H139115   0.029   4.586   1.286
 5852TIP3    H239116   6.827   4.545   1.420
 5853TIP3   OH239117   4.071   1.215   7.312
 5853TIP3    H139118   4.035   1.138   7.268
 5853TIP3    H239119   4.103   1.182   7.396
 5854TIP3   OH239120   5.051   1.976   1.533
 5854TIP3    H139121   5.085   2.066   1.532
 5854TIP3    H239122   5.125   1.923   1.563
 5855TIP3   OH239123   5.881   2.714   1.586
 5855TIP3    H139124   5.905   2.790   1.638
 5855TIP3    H239125   5.804   2.678   1.630
 5856TIP3   OH239126   5.455   1.742   1.006
 5856TIP3    H139127   5.535   1.794   1.001
 5856TIP3    H239128   5.484   1.653   0.986
 5857TIP3   OH239129   5.665   2.483   1.204
 5857TIP3    H139130   5.706   2.568   1.221
 5857TIP3    H239131   5.694   2.429   1.278
 5858TIP3   OH239132   5.931   0.734   1.326
 5858TIP3    H139133   5.874   0.732   1.403
 5858TIP3    H239134   5.892   0.800   1.269
 5859TIP3   OH239135   0.503   5.139   7.431
 5859TIP3    H139136   0.423   5.100   7.395
 5859TIP3    H239137   0.485   5.147   7.525
 5860TIP3   OH239138   0.377   1.731   2.163
 5860TIP3    H139139   0.351   1.718   2.254
 5860TIP3    H239140   0.345   1.819   2.142
 5861TIP3   OH239141   0.390   5.984   2.227
 5861TIP3    H139142   0.453   6.020   2.289
 5861TIP3    H239143   0.442   5.954   2.153
 5862TIP3   OH239144   3.299   2.978   6.995
 5862TIP3    H139145   3.389   2.988   6.966
 5862TIP3    H239146   3.286   2.884   7.003
 5863TIP3   OH239147   1.260   4.075   1.218
 5863TIP3    H139148   1.315   4.074   1.140
 5863TIP3    H239149   1.203   3.999   1.208
 5864TIP3   OH239150   6.595   4.071   0.974
 5864TIP3    H139151   6.614   4.125   1.051
 5864TIP3    H239152   6.625   3.983   0.998
 5865TIP3   OH239153   0.932   2.022   8.181
 5865TIP3    H139154   0.920   1.946   8.237
 5865TIP3    H239155   1.025   2.043   8.190
 5866TIP3   OH239156   0.062   3.266   2.269
 5866TIP3    H139157   0.106   3.330   2.213
 5866TIP3    H239158   0.006   3.319   2.326
 5867TIP3   OH239159   2.325   3.457   8.129
 5867TIP3    H139160   2.282   3.517   8.189
 5867TIP3    H239161   2.281   3.470   8.045
 5868TIP3   OH239162   1.412   0.217   0.857
 5868TIP3    H139163   1.407   0.307   0.887
 5868TIP3    H239164   1.338   0.207   0.797
 5869TIP3   OH239165   1.316   2.300   1.610
 5869TIP3    H139166   1.379   2.237   1.647
 5869TIP3    H239167   1.369   2.376   1.588
 5870TIP3   OH239168   6.125   3.220   8.164
 5870TIP3    H139169   6.167   3.150   8.216
 5870TIP3    H239170   6.175   3.222   8.082
 5871TIP3   OH239171   2.558   3.155   8.513
 5871TIP3    H139172   2.567   3.161   8.418
 5871TIP3    H239173   2.611   3.078   8.537
 5872TIP3   OH239174   5.652   4.078   8.639
 5872TIP3    H139175   5.666   4.004   8.579
 5872TIP3    H239176   5.729   4.133   8.627
 5873TIP3   OH239177   5.385   2.572   0.307
 5873TIP3    H139178   5.420   2.552   0.221
 5873TIP3    H239179   5.326   2.645   0.293
 5874TIP3   OH239180   3.385   2.031   0.628
 5874TIP3    H139181   3.368   2.024   0.722
 5874TIP3    H239182   3.404   1.942   0.601
 5875TIP3   OH239183   5.283   3.977   8.021
 5875TIP3    H139184   5.210   3.983   7.959
 5875TIP3    H239185   5.309   3.884   8.018
 5876TIP3   OH239186   6.691   3.209   8.127
 5876TIP3    H139187   6.730   3.139   8.075
 5876TIP3    H239188   6.704   3.181   8.218
 5877TIP3   OH239189   1.765   4.356   2.351
 5877TIP3    H139190   1.777   4.441   2.394
 5877TIP3    H239191   1.671   4.341   2.354
 5878TIP3   OH239192   6.327   5.087   8.111
 5878TIP3    H139193   6.420   5.095   8.088
 5878TIP3    H239194   6.299   5.005   8.071
 5879TIP3   OH239195   4.290   1.512   1.168
 5879TIP3    H139196   4.270   1.580   1.232
 5879TIP3    H239197   4.319   1.437   1.220
 5880TIP3   OH239198   0.805   4.842   7.065
 5880TIP3    H139199   0.714   4.870   7.073
 5880TIP3    H239200   0.800   4.756   7.023
 5881TIP3   OH239201   5.001   3.716   0.924
 5881TIP3    H139202   5.038   3.682   1.006
 5881TIP3    H239203   5.075   3.716   0.863
 5882TIP3   OH239204   5.469   5.466   0.415
 5882TIP3    H139205   5.415   5.524   0.362
 5882TIP3    H239206   5.463   5.381   0.373
 5883TIP3   OH239207   2.456   2.000   0.824
 5883TIP3    H139208   2.440   1.953   0.906
 5883TIP3    H239209   2.371   2.039   0.802
 5884TIP3   OH239210   4.655   5.137   2.052
 5884TIP3    H139211   4.589   5.161   2.117
 5884TIP3    H239212   4.732   5.189   2.077
 5885TIP3   OH239213   1.469   3.255   8.645
 5885TIP3    H139214   1.429   3.168   8.642
 5885TIP3    H239215   1.397   3.315   8.625
 5886TIP3   OH239216   2.017   6.716   1.707
 5886TIP3    H139217   2.021   6.660   1.630
 5886TIP3    H239218   2.049   6.661   1.778
 5887TIP3   OH239219   1.398   0.895   7.889
 5887TIP3    H139220   1.381   0.803   7.906
 5887TIP3    H239221   1.364   0.910   7.800
 5888TIP3   OH239222   5.382   1.588   8.289
 5888TIP3    H139223   5.342   1.525   8.229
 5888TIP3    H239224   5.467   1.608   8.250
 5889TIP3   OH239225   1.875   4.322   7.761
 5889TIP3    H139226   1.832   4.241   7.788
 5889TIP3    H239227   1.964   4.314   7.793
 5890TIP3   OH239228   2.144   5.426   8.523
 5890TIP3    H139229   2.118   5.515   8.497
 5890TIP3    H239230   2.239   5.425   8.509
 5891TIP3   OH239231   6.075   1.591   8.616
 5891TIP3    H139232   6.167   1.599   8.643
 5891TIP3    H239233   6.056   1.671   8.568
 5892TIP3   OH239234   1.157   1.558   1.599
 5892TIP3    H139235   1.197   1.472   1.613
 5892TIP3    H239236   1.218   1.604   1.542
 5893TIP3   OH239237   3.711   3.425   7.950
 5893TIP3    H139238   3.728   3.430   7.856
 5893TIP3    H239239   3.646   3.354   7.958
 5894TIP3   OH239240   5.966   0.565   7.996
 5894TIP3    H139241   5.921   0.550   7.913
 5894TIP3    H239242   5.953   0.483   8.045
 5895TIP3   OH239243   0.870   1.242   7.558
 5895TIP3    H139244   0.825   1.243   7.643
 5895TIP3    H239245   0.851   1.327   7.519
 5896TIP3   OH239246   5.507   3.399   7.843
 5896TIP3    H139247   5.564   3.420   7.917
 5896TIP3    H239248   5.519   3.472   7.782
 5897TIP3   OH239249   0.195   4.777   7.314
 5897TIP3    H139250   0.192   4.683   7.333
 5897TIP3    H239251   0.242   4.783   7.231
 5898TIP3   OH239252   1.761   0.851   0.641
 5898TIP3    H139253   1.786   0.920   0.580
 5898TIP3    H239254   1.825   0.858   0.712
 5899TIP3   OH239255   1.872   1.731   1.545
 5899TIP3    H139256   1.861   1.779   1.627
 5899TIP3    H239257   1.782   1.707   1.520
 5900TIP3   OH239258   5.817   4.138   6.295
 5900TIP3    H139259   5.868   4.094   6.227
 5900TIP3    H239260   5.727   4.138   6.261
 5901TIP3   OH239261   4.401   5.014   0.602
 5901TIP3    H139262   4.396   5.079   0.533
 5901TIP3    H239263   4.409   5.064   0.683
 5902TIP3   OH239264   2.672   1.957   1.062
 5902TIP3    H139265   2.662   1.892   1.131
 5902TIP3    H239266   2.693   1.906   0.984
 5903TIP3   OH239267   6.211   6.303   1.570
 5903TIP3    H139268   6.301   6.322   1.596
 5903TIP3    H239269   6.200   6.349   1.487
 5904TIP3   OH239270   2.180   1.134   1.240
 5904TIP3    H139271   2.165   1.040   1.252
 5904TIP3    H239272   2.271   1.147   1.266
 5905TIP3   OH239273   2.143   4.041   0.238
 5905TIP3    H139274   2.210   4.109   0.242
 5905TIP3    H239275   2.077   4.068   0.303
 5906TIP3   OH239276   3.497   3.017   8.552
 5906TIP3    H139277   3.520   3.107   8.576
 5906TIP3    H239278   3.541   2.962   8.617
 5907TIP3   OH239279   6.610   6.834   1.063
 5907TIP3    H139280   6.539   6.804   1.006
 5907TIP3    H239281   6.596   6.788   1.145
 5908TIP3   OH239282   2.998   5.186   2.064
 5908TIP3    H139283   3.043   5.142   2.136
 5908TIP3    H239284   3.023   5.137   1.986
 5909TIP3   OH239285   4.732   1.526   7.877
 5909TIP3    H139286   4.690   1.531   7.962
 5909TIP3    H239287   4.739   1.617   7.848
 5910TIP3   OH239288   4.408   1.555   2.276
 5910TIP3    H139289   4.357   1.594   2.347
 5910TIP3    H239290   4.422   1.465   2.304
 5911TIP3   OH239291   3.907   4.180   7.198
 5911TIP3    H139292   3.969   4.176   7.125
 5911TIP3    H239293   3.854   4.101   7.190
 5912TIP3   OH239294   0.009   6.193   7.970
 5912TIP3    H139295   6.826   6.169   8.055
 5912TIP3    H239296   0.075   6.260   7.991
 5913TIP3   OH239297   5.086   3.006   0.868
 5913TIP3    H139298   5.080   2.997   0.773
 5913TIP3    H239299   5.042   2.927   0.902
 5914TIP3   OH239300   6.800   0.130   8.484
 5914TIP3    H139301   0.015   0.111   8.422
 5914TIP3    H239302   6.820   0.218   8.516
 5915TIP3   OH239303   2.115   6.647   0.417
 5915TIP3    H139304   2.112   6.740   0.396
 5915TIP3    H239305   2.024   6.619   0.412
 5916TIP3   OH239306   4.496   3.185   0.548
 5916TIP3    H139307   4.448   3.219   0.624
 5916TIP3    H239308   4.475   3.092   0.547
 5917TIP3   OH239309   6.164   1.876   7.520
 5917TIP3    H139310   6.210   1.792   7.521
 5917TIP3    H239311   6.228   1.938   7.486
 5918TIP3   OH239312   0.208   0.797   8.543
 5918TIP3    H139313   0.232   0.715   8.586
 5918TIP3    H239314   0.268   0.803   8.469
 5919TIP3   OH239315   5.159   4.367   8.082
 5919TIP3    H139316   5.175   4.444   8.136
 5919TIP3    H239317   5.219   4.301   8.114
 5920TIP3   OH239318   3.238   6.126   8.043
 5920TIP3    H139319   3.207   6.170   8.123
 5920TIP3    H239320   3.175   6.057   8.028
 5921TIP3   OH239321   2.047   0.610   7.623
 5921TIP3    H139322   2.123   0.667   7.612
 5921TIP3    H239323   2.021   0.622   7.714
 5922TIP3   OH239324   3.494   1.877   8.333
 5922TIP3    H139325   3.545   1.829   8.268
 5922TIP3    H239326   3.527   1.967   8.328
 5923TIP3   OH239327   5.476   6.260   0.433
 5923TIP3    H139328   5.536   6.230   0.501
 5923TIP3    H239329   5.400   6.203   0.441
 5924TIP3   OH239330   2.487   4.245   8.405
 5924TIP3    H139331   2.435   4.189   8.463
 5924TIP3    H239332   2.570   4.197   8.394
 5925TIP3   OH239333   0.056   3.064   0.772
 5925TIP3    H139334   0.130   3.067   0.832
 5925TIP3    H239335   0.049   3.152   0.736
 5926TIP3   OH239336   6.231   2.993   1.154
 5926TIP3    H139337   6.225   2.901   1.178
 5926TIP3    H239338   6.199   3.040   1.231
 5927TIP3   OH239339   4.691   5.856   0.677
 5927TIP3    H139340   4.670   5.918   0.608
 5927TIP3    H239341   4.727   5.780   0.631
 5928TIP3   OH239342   1.929   6.437   7.255
 5928TIP3    H139343   1.906   6.346   7.275
 5928TIP3    H239344   2.024   6.435   7.242
 5929TIP3   OH239345   4.895   1.509   6.774
 5929TIP3    H139346   4.852   1.578   6.724
 5929TIP3    H239347   4.839   1.432   6.761
 5930TIP3   OH239348   2.397   5.534   1.262
 5930TIP3    H139349   2.362   5.456   1.305
 5930TIP3    H239350   2.433   5.502   1.179
 5931TIP3   OH239351   0.667   1.065   8.358
 5931TIP3    H139352   0.683   1.151   8.319
 5931TIP3    H239353   0.585   1.037   8.318
 5932TIP3   OH239354   2.300   4.545   1.451
 5932TIP3    H139355   2.283   4.475   1.514
 5932TIP3    H239356   2.374   4.593   1.489
 5933TIP3   OH239357   3.885   2.970   0.330
 5933TIP3    H139358   3.806   3.024   0.324
 5933TIP3    H239359   3.953   3.031   0.357
 5934TIP3   OH239360   4.370   2.025   1.161
 5934TIP3    H139361   4.363   1.979   1.077
 5934TIP3    H239362   4.310   1.979   1.219
 5935TIP3   OH239363   2.019   2.925   2.416
 5935TIP3    H139364   2.064   3.007   2.393
 5935TIP3    H239365   1.930   2.938   2.386
 5936TIP3   OH239366   4.276   2.223   1.473
 5936TIP3    H139367   4.351   2.166   1.452
 5936TIP3    H239368   4.268   2.280   1.397
 5937TIP3   OH239369   0.783   5.774   0.224
 5937TIP3    H139370   0.861   5.817   0.258
 5937TIP3    H239371   0.756   5.714   0.294
 5938TIP3   OH239372   2.436   4.374   8.720
 5938TIP3    H139373   2.479   4.291   0.018
 5938TIP3    H239374   2.346   4.349   8.701
 5939TIP3   OH239375   2.074   5.505   1.240
 5939TIP3    H139376   2.119   5.498   1.156
 5939TIP3    H239377   2.028   5.588   1.236
 5940TIP3   OH239378   0.310   6.056   8.149
 5940TIP3    H139379   0.251   6.003   8.202
 5940TIP3    H239380   0.391   6.005   8.146
 5941TIP3   OH239381   2.464   6.701   0.810
 5941TIP3    H139382   2.546   6.681   0.764
 5941TIP3    H239383   2.457   6.632   0.876
 5942TIP3   OH239384   0.246   5.062   0.807
 5942TIP3    H139385   0.251   5.149   0.769
 5942TIP3    H239386   0.319   5.059   0.870
 5943TIP3   OH239387   6.218   0.376   1.624
 5943TIP3    H139388   6.146   0.438   1.638
 5943TIP3    H239389   6.262   0.408   1.546
 5944TIP3   OH239390   4.060   1.044   0.610
 5944TIP3    H139391   3.995   0.994   0.659
 5944TIP3    H239392   4.045   1.020   0.518
 5945TIP3   OH239393   3.118   0.028   7.153
 5945TIP3    H139394   3.034   6.840   7.172
 5945TIP3    H239395   3.156   6.829   7.083
 5946TIP3   OH239396   3.489   5.003   8.366
 5946TIP3    H139397   3.583   5.013   8.383
 5946TIP3    H239398   3.471   5.067   8.297
 5947TIP3   OH239399   4.895   5.345   8.226
 5947TIP3    H139400   4.898   5.315   8.135
 5947TIP3    H239401   4.902   5.265   8.278
 5948TIP3   OH239402   6.357   2.794   8.020
 5948TIP3    H139403   6.437   2.793   8.073
 5948TIP3    H239404   6.330   2.702   8.017
 5949TIP3   OH239405   5.705   0.727   2.120
 5949TIP3    H139406   5.692   0.785   2.195
 5949TIP3    H239407   5.657   0.647   2.143
 5950TIP3   OH239408   4.153   6.205   7.487
 5950TIP3    H139409   4.181   6.157   7.565
 5950TIP3    H239410   4.059   6.221   7.501
 5951TIP3   OH239411   0.940   0.705   1.013
 5951TIP3    H139412   0.910   0.653   1.088
 5951TIP3    H239413   0.997   0.771   1.051
 5952TIP3   OH239414   5.588   2.276   1.660
 5952TIP3    H139415   5.572   2.281   1.755
 5952TIP3    H239416   5.536   2.347   1.623
 5953TIP3   OH239417   2.954   2.064   7.677
 5953TIP3    H139418   2.951   1.976   7.639
 5953TIP3    H239419   3.046   2.088   7.673
 5954TIP3   OH239420   4.160   5.915   1.678
 5954TIP3    H139421   4.146   5.823   1.699
 5954TIP3    H239422   4.099   5.933   1.606
 5955TIP3   OH239423   2.087   3.951   8.687
 5955TIP3    H139424   2.115   3.966   0.052
 5955TIP3    H239425   2.095   3.856   8.675
 5956TIP3   OH239426   5.789   2.761   6.916
 5956TIP3    H139427   5.788   2.857   6.912
 5956TIP3    H239428   5.770   2.734   6.826
 5957TIP3   OH239429   0.416   1.996   8.407
 5957TIP3    H139430   0.360   2.007   8.484
 5957TIP3    H239431   0.421   2.084   8.369
 5958TIP3   OH239432   2.341   0.820   0.526
 5958TIP3    H139433   2.339   0.761   0.450
 5958TIP3    H239434   2.269   0.881   0.511
 5959TIP3   OH239435   4.256   1.752   0.590
 5959TIP3    H139436   4.332   1.700   0.618
 5959TIP3    H239437   4.228   1.797   0.670
 5960TIP3   OH239438   4.882   4.041   0.054
 5960TIP3    H139439   4.928   4.046   0.138
 5960TIP3    H239440   4.805   3.987   0.072
 5961TIP3   OH239441   3.533   1.282   7.751
 5961TIP3    H139442   3.506   1.191   7.753
 5961TIP3    H239443   3.623   1.280   7.717
 5962TIP3   OH239444   1.318   0.489   0.934
 5962TIP3    H139445   1.359   0.530   0.857
 5962TIP3    H239446   1.224   0.498   0.919
 5963TIP3   OH239447   5.636   2.522   0.850
 5963TIP3    H139448   5.662   2.597   0.903
 5963TIP3    H239449   5.654   2.446   0.906
 5964TIP3   OH239450   0.209   2.327   7.917
 5964TIP3    H139451   0.176   2.361   7.834
 5964TIP3    H239452   0.304   2.337   7.911
 5965TIP3   OH239453   3.142   5.466   0.201
 5965TIP3    H139454   3.056   5.501   0.223
 5965TIP3    H239455   3.125   5.376   0.172
 5966TIP3   OH239456   2.251   5.122   2.047
 5966TIP3    H139457   2.315   5.077   2.103
 5966TIP3    H239458   2.233   5.060   1.977
 5967TIP3   OH239459   4.391   3.032   7.602
 5967TIP3    H139460   4.476   3.022   7.559
 5967TIP3    H239461   4.413   3.052   7.694
 5968TIP3   OH239462   4.603   6.755   0.809
 5968TIP3    H139463   4.591   6.776   0.716
 5968TIP3    H239464   4.671   6.815   0.838
 5969TIP3   OH239465   3.649   6.508   8.096
 5969TIP3    H139466   3.559   6.476   8.097
 5969TIP3    H239467   3.679   6.499   8.186
 5970TIP3   OH239468   2.703   6.778   1.117
 5970TIP3    H139469   2.752   6.791   1.199
 5970TIP3    H239470   2.615   6.811   1.137
 5971TIP3   OH239471   2.777   3.506   0.213
 5971TIP3    H139472   2.795   3.564   0.139
 5971TIP3    H239473   2.725   3.435   0.176
 5972TIP3   OH239474   1.899   5.098   1.067
 5972TIP3    H139475   1.824   5.041   1.050
 5972TIP3    H239476   1.967   5.066   1.007
 5973TIP3   OH239477   1.566   6.820   7.265
 5973TIP3    H139478   1.502   6.764   7.309
 5973TIP3    H239479   1.623   6.759   7.219
 5974TIP3   OH239480   5.079   1.475   1.400
 5974TIP3    H139481   5.112   1.533   1.468
 5974TIP3    H239482   5.048   1.398   1.447
 5975TIP3   OH239483   1.855   1.398   0.809
 5975TIP3    H139484   1.917   1.326   0.813
 5975TIP3    H239485   1.910   1.477   0.806
 5976TIP3   OH239486   5.980   1.418   7.361
 5976TIP3    H139487   5.976   1.322   7.357
 5976TIP3    H239488   6.051   1.436   7.423
 5977TIP3   OH239489   0.013   6.790   7.433
 5977TIP3    H139490   0.043   0.025   7.450
 5977TIP3    H239491   6.817   6.767   7.511
 5978TIP3   OH239492   4.175   3.823   1.146
 5978TIP3    H139493   4.144   3.735   1.169
 5978TIP3    H239494   4.188   3.867   1.229
 5979TIP3   OH239495   4.552   1.260   2.052
 5979TIP3    H139496   4.626   1.207   2.083
 5979TIP3    H239497   4.482   1.241   2.115
 5980TIP3   OH239498   0.257   6.058   7.859
 5980TIP3    H139499   0.163   6.075   7.865
 5980TIP3    H239500   0.291   6.082   7.946
 5981TIP3   OH239501   3.201   3.616   0.553
 5981TIP3    H139502   3.122   3.561   0.552
 5981TIP3    H239503   3.183   3.682   0.620
 5982TIP3   OH239504   1.850   2.652   1.195
 5982TIP3    H139505   1.859   2.700   1.113
 5982TIP3    H239506   1.813   2.717   1.256
 5983TIP3   OH239507   1.162   5.035   6.576
 5983TIP3    H139508   1.090   5.085   6.537
 5983TIP3    H239509   1.192   4.978   6.505
 5984TIP3   OH239510   0.243   2.073   1.467
 5984TIP3    H139511   0.304   1.999   1.471
 5984TIP3    H239512   0.292   2.141   1.420
 5985TIP3   OH239513   3.577   6.285   8.715
 5985TIP3    H139514   3.673   6.292   8.718
 5985TIP3    H239515   3.557   6.256   8.626
 5986TIP3   OH239516   0.213   3.212   7.979
 5986TIP3    H139517   0.205   3.285   7.917
 5986TIP3    H239518   0.283   3.158   7.944
 5987TIP3   OH239519   4.903   5.549   7.907
 5987TIP3    H139520   4.916   5.522   7.816
 5987TIP3    H239521   4.966   5.619   7.921
 5988TIP3   OH239522   3.816   5.331   0.824
 5988TIP3    H139523   3.852   5.258   0.774
 5988TIP3    H239524   3.828   5.407   0.767
 5989TIP3   OH239525   1.491   4.508   0.891
 5989TIP3    H139526   1.450   4.476   0.972
 5989TIP3    H239527   1.458   4.451   0.823
 5990TIP3   OH239528   0.580   4.285   1.556
 5990TIP3    H139529   0.656   4.310   1.504
 5990TIP3    H239530   0.510   4.342   1.526
 5991TIP3   OH239531   5.396   4.392   7.300
 5991TIP3    H139532   5.326   4.383   7.236
 5991TIP3    H239533   5.357   4.364   7.383
 5992TIP3   OH239534   4.666   1.310   1.713
 5992TIP3    H139535   4.605   1.366   1.761
 5992TIP3    H239536   4.738   1.295   1.775
 5993TIP3   OH239537   6.358   3.869   0.880
 5993TIP3    H139538   6.367   3.787   0.929
 5993TIP3    H239539   6.389   3.937   0.940
 5994TIP3   OH239540   4.118   1.673   2.181
 5994TIP3    H139541   4.089   1.760   2.207
 5994TIP3    H239542   4.155   1.635   2.261
 5995TIP3   OH239543   4.126   5.597   0.839
 5995TIP3    H139544   4.118   5.520   0.895
 5995TIP3    H239545   4.039   5.636   0.839
 5996TIP3   OH239546   4.999   6.734   1.226
 5996TIP3    H139547   4.919   6.708   1.179
 5996TIP3    H239548   5.069   6.685   1.183
 5997TIP3   OH239549   3.608   3.482   0.378
 5997TIP3    H139550   3.513   3.481   0.365
 5997TIP3    H239551   3.625   3.565   0.422
 5998TIP3   OH239552   2.028   6.364   0.743
 5998TIP3    H139553   2.062   6.279   0.772
 5998TIP3    H239554   2.083   6.388   0.668
 5999TIP3   OH239555   3.528   6.272   2.328
 5999TIP3    H139556   3.577   6.315   2.398
 5999TIP3    H239557   3.451   6.328   2.315
 6000TIP3   OH239558   3.195   0.633   1.788
 6000TIP3    H139559   3.248   0.612   1.865
 6000TIP3    H239560   3.195   0.729   1.784
 6001TIP3   OH239561   3.638   3.203   1.059
 6001TIP3    H139562   3.546   3.190   1.079
 6001TIP3    H239563   3.639   3.265   0.986
 6002TIP3   OH239564   3.517   2.848   1.196
 6002TIP3    H139565   3.515   2.759   1.231
 6002TIP3    H239566   3.478   2.902   1.265
 6003TIP3   OH239567   4.854   4.269   0.396
 6003TIP3    H139568   4.798   4.345   0.416
 6003TIP3    H239569   4.935   4.308   0.362
 6004TIP3   OH239570   5.993   4.904   0.894
 6004TIP3    H139571   5.961   4.877   0.981
 6004TIP3    H239572   5.917   4.894   0.837
 6005TIP3   OH239573   4.106   3.597   1.816
 6005TIP3    H139574   4.087   3.691   1.820
 6005TIP3    H239575   4.051   3.559   1.884
 6006TIP3   OH239576   3.744   1.838   7.214
 6006TIP3    H139577   3.692   1.783   7.273
 6006TIP3    H239578   3.686   1.855   7.139
 6007TIP3   OH239579   0.007   1.455   7.310
 6007TIP3    H139580   6.767   1.447   7.292
 6007TIP3    H239581   0.033   1.537   7.268
 6008TIP3   OH239582   0.047   6.326   7.137
 6008TIP3    H139583   0.037   6.395   7.202
 6008TIP3    H239584   0.037   6.370   7.053
 6009TIP3   OH239585   0.713   2.662   0.442
 6009TIP3    H139586   0.631   2.619   0.465
 6009TIP3    H239587   0.711   2.669   0.346
 6010TIP3   OH239588   0.534   3.757   1.243
 6010TIP3    H139589   0.467   3.784   1.180
 6010TIP3    H239590   0.587   3.693   1.195
 6011TIP3   OH239591   1.954   3.382   7.308
 6011TIP3    H139592   1.883   3.364   7.247
 6011TIP3    H239593   2.033   3.359   7.259
 6012TIP3   OH239594   3.281   0.057   1.635
 6012TIP3    H139595   3.367   0.068   1.596
 6012TIP3    H239596   3.279   0.119   1.708
 6013TIP3   OH239597   1.711   5.663   7.350
 6013TIP3    H139598   1.748   5.666   7.261
 6013TIP3    H239599   1.721   5.753   7.382
 6014TIP3   OH239600   0.548   6.498   0.601
 6014TIP3    H139601   0.637   6.493   0.636
 6014TIP3    H239602   0.523   6.590   0.612
 6015TIP3   OH239603   3.878   0.552   7.975
 6015TIP3    H139604   3.833   0.616   8.030
 6015TIP3    H239605   3.812   0.484   7.960
 6016TIP3   OH239606   0.943   1.849   0.189
 6016TIP3    H139607   0.884   1.855   0.264
 6016TIP3    H239608   0.885   1.852   0.112
 6017TIP3   OH239609   2.614   3.700   8.167
 6017TIP3    H139610   2.520   3.686   8.151
 6017TIP3    H239611   2.623   3.795   8.170
 6018TIP3   OH239612   3.818   6.024   7.048
 6018TIP3    H139613   3.726   6.024   7.075
 6018TIP3    H239614   3.817   5.980   6.962
 6019TIP3   OH239615   0.186   2.373   0.158
 6019TIP3    H139616   0.207   2.425   0.235
 6019TIP3    H239617   0.236   2.413   0.087
 6020TIP3   OH239618   5.597   1.634   6.435
 6020TIP3    H139619   5.571   1.544   6.415
 6020TIP3    H239620   5.551   1.654   6.517
 6021TIP3   OH239621   2.185   3.547   1.907
 6021TIP3    H139622   2.169   3.480   1.841
 6021TIP3    H239623   2.175   3.501   1.991
 6022TIP3   OH239624   2.886   4.026   1.716
 6022TIP3    H139625   2.936   3.950   1.687
 6022TIP3    H239626   2.855   4.068   1.636
 6023TIP3   OH239627   3.454   6.693   7.842
 6023TIP3    H139628   3.447   6.620   7.781
 6023TIP3    H239629   3.367   6.733   7.843
 6024TIP3   OH239630   0.301   1.577   7.715
 6024TIP3    H139631   0.315   1.662   7.673
 6024TIP3    H239632   0.238   1.532   7.659
 6025TIP3   OH239633   0.831   6.462   0.206
 6025TIP3    H139634   0.916   6.420   0.218
 6025TIP3    H239635   0.852   6.554   0.189
 6026TIP3   OH239636   4.479   5.568   2.116
 6026TIP3    H139637   4.500   5.642   2.059
 6026TIP3    H239638   4.389   5.585   2.144
 6027TIP3   OH239639   3.012   5.124   0.393
 6027TIP3    H139640   2.981   5.034   0.394
 6027TIP3    H239641   3.087   5.122   0.333
 6028TIP3   OH239642   2.641   0.234   8.111
 6028TIP3    H139643   2.644   0.274   8.198
 6028TIP3    H239644   2.713   0.171   8.111
 6029TIP3   OH239645   5.172   1.335   0.393
 6029TIP3    H139646   5.161   1.406   0.331
 6029TIP3    H239647   5.097   1.277   0.378
 6030TIP3   OH239648   1.840   6.194   7.525
 6030TIP3    H139649   1.877   6.167   7.441
 6030TIP3    H239650   1.873   6.283   7.538
 6031TIP3   OH239651   2.489   5.340   6.391
 6031TIP3    H139652   2.548   5.376   6.325
 6031TIP3    H239653   2.543   5.275   6.438
 6032TIP3   OH239654   0.025   0.588   0.885
 6032TIP3    H139655   6.822   0.555   0.954
 6032TIP3    H239656   6.854   0.680   0.874
 6033TIP3   OH239657   2.134   0.509   7.014
 6033TIP3    H139658   2.064   0.517   6.949
 6033TIP3    H239659   2.094   0.460   7.086
 6034TIP3   OH239660   6.822   4.222   1.980
 6034TIP3    H139661   6.805   4.208   2.073
 6034TIP3    H239662   6.793   4.142   1.938
 6035TIP3   OH239663   4.056   5.505   7.092
 6035TIP3    H139664   4.044   5.479   7.184
 6035TIP3    H239665   3.996   5.579   7.081
 6036TIP3   OH239666   4.686   3.979   1.441
 6036TIP3    H139667   4.694   3.925   1.362
 6036TIP3    H239668   4.602   3.954   1.479
 6037TIP3   OH239669   4.324   6.768   0.810
 6037TIP3    H139670   4.339   6.683   0.768
 6037TIP3    H239671   4.412   6.801   0.827
 6038TIP3   OH239672   5.033   1.229   8.220
 6038TIP3    H139673   4.994   1.178   8.149
 6038TIP3    H239674   4.994   1.316   8.210
 6039TIP3   OH239675   5.500   5.169   0.725
 6039TIP3    H139676   5.568   5.137   0.665
 6039TIP3    H239677   5.428   5.107   0.715
 6040TIP3   OH239678   2.417   0.060   7.609
 6040TIP3    H139679   2.364   0.135   7.633
 6040TIP3    H239680   2.507   0.092   7.612
 6041TIP3   OH239681   6.022   3.270   1.024
 6041TIP3    H139682   5.956   3.320   1.073
 6041TIP3    H239683   5.978   3.245   0.943
 6042TIP3   OH239684   0.989   6.617   8.365
 6042TIP3    H139685   0.976   6.710   8.345
 6042TIP3    H239686   1.084   6.608   8.375
 6043TIP3   OH239687   1.883   0.759   1.208
 6043TIP3    H139688   1.946   0.780   1.277
 6043TIP3    H239689   1.848   0.673   1.234
 6044TIP3   OH239690   1.982   6.385   1.940
 6044TIP3    H139691   2.051   6.343   1.990
 6044TIP3    H239692   1.929   6.430   2.006
 6045TIP3   OH239693   3.582   5.770   8.564
 6045TIP3    H139694   3.521   5.697   8.556
 6045TIP3    H239695   3.584   5.810   8.478
 6046TIP3   OH239696   5.869   2.125   6.301
 6046TIP3    H139697   5.781   2.162   6.309
 6046TIP3    H239698   5.925   2.201   6.286
 6047TIP3   OH239699   4.445   4.965   1.928
 6047TIP3    H139700   4.488   5.042   1.964
 6047TIP3    H239701   4.432   4.986   1.835
 6048TIP3   OH239702   3.072   3.127   1.005
 6048TIP3    H139703   3.124   3.060   1.050
 6048TIP3    H239704   3.089   3.112   0.912
 6049TIP3   OH239705   0.788   5.060   1.199
 6049TIP3    H139706   0.830   4.975   1.192
 6049TIP3    H239707   0.849   5.121   1.158
 6050TIP3   OH239708   2.888   2.919   2.574
 6050TIP3    H139709   2.977   2.883   2.567
 6050TIP3    H239710   2.843   2.885   2.496
 6051TIP3   OH239711   5.403   5.862   0.585
 6051TIP3    H139712   5.346   5.788   0.606
 6051TIP3    H239713   5.482   5.847   0.636
 6052TIP3   OH239714   1.886   5.405   1.454
 6052TIP3    H139715   1.977   5.392   1.425
 6052TIP3    H239716   1.859   5.486   1.410
 6053TIP3   OH239717   6.829   6.453   7.393
 6053TIP3    H139718   0.063   6.489   7.391
 6053TIP3    H239719   6.773   6.523   7.360
 6054TIP3   OH239720   2.126   4.380   1.580
 6054TIP3    H139721   2.135   4.290   1.549
 6054TIP3    H239722   2.032   4.395   1.583
 6055TIP3   OH239723   5.640   2.245   6.380
 6055TIP3    H139724   5.591   2.297   6.443
 6055TIP3    H239725   5.598   2.262   6.296
 6056TIP3   OH239726   5.408   3.558   6.499
 6056TIP3    H139727   5.457   3.632   6.537
 6056TIP3    H239728   5.475   3.508   6.451
 6057TIP3   OH239729   2.456   0.835   1.316
 6057TIP3    H139730   2.517   0.859   1.246
 6057TIP3    H239731   2.512   0.796   1.384
 6058TIP3   OH239732   1.843   5.646   0.575
 6058TIP3    H139733   1.855   5.587   0.501
 6058TIP3    H239734   1.845   5.734   0.538
 6059TIP3   OH239735   2.103   2.218   0.568
 6059TIP3    H139736   2.027   2.162   0.581
 6059TIP3    H239737   2.141   2.229   0.655
 6060TIP3   OH239738   3.146   6.230   1.291
 6060TIP3    H139739   3.233   6.254   1.259
 6060TIP3    H239740   3.107   6.313   1.318
 6061TIP3   OH239741   4.865   5.132   1.548
 6061TIP3    H139742   4.843   5.178   1.467
 6061TIP3    H239743   4.794   5.069   1.560
 6062TIP3   OH239744   1.079   5.401   1.958
 6062TIP3    H139745   1.060   5.488   1.992
 6062TIP3    H239746   1.149   5.414   1.895
 6063TIP3   OH239747   5.387   5.267   2.111
 6063TIP3    H139748   5.361   5.355   2.083
 6063TIP3    H239749   5.312   5.235   2.162
 6064TIP3   OH239750   0.531   5.818   1.078
 6064TIP3    H139751   0.481   5.750   1.124
 6064TIP3    H239752   0.487   5.826   0.993
 6065TIP3   OH239753   3.336   5.628   7.343
 6065TIP3    H139754   3.424   5.598   7.324
 6065TIP3    H239755   3.318   5.598   7.432
 6066TIP3   OH239756   0.124   1.100   1.150
 6066TIP3    H139757   0.057   1.140   1.094
 6066TIP3    H239758   0.207   1.136   1.117
 6067TIP3   OH239759   6.282   3.208   7.646
 6067TIP3    H139760   6.331   3.274   7.597
 6067TIP3    H239761   6.332   3.127   7.634
 6068TIP3   OH239762   5.148   6.352   0.572
 6068TIP3    H139763   5.167   6.416   0.503
 6068TIP3    H239764   5.208   6.280   0.556
 6069TIP3   OH239765   2.370   5.003   0.608
 6069TIP3    H139766   2.377   5.034   0.699
 6069TIP3    H239767   2.460   5.001   0.577
 6070TIP3   OH239768   1.142   2.807   8.050
 6070TIP3    H139769   1.156   2.870   7.979
 6070TIP3    H239770   1.152   2.722   8.008
 6071TIP3   OH239771   4.448   4.687   7.267
 6071TIP3    H139772   4.452   4.646   7.180
 6071TIP3    H239773   4.375   4.643   7.311
 6072TIP3   OH239774   4.919   3.161   7.552
 6072TIP3    H139775   4.980   3.192   7.486
 6072TIP3    H239776   4.945   3.071   7.569
 6073TIP3   OH239777   6.296   5.292   6.889
 6073TIP3    H139778   6.201   5.284   6.878
 6073TIP3    H239779   6.328   5.314   6.802
 6074TIP3   OH239780   6.732   0.859   0.197
 6074TIP3    H139781   6.803   0.794   0.198
 6074TIP3    H239782   6.653   0.808   0.178
 6075TIP3   OH239783   1.778   6.092   7.767
 6075TIP3    H139784   1.785   6.098   7.671
 6075TIP3    H239785   1.741   6.176   7.793
 6076TIP3   OH239786   2.168   6.023   7.981
 6076TIP3    H139787   2.255   6.013   8.020
 6076TIP3    H239788   2.178   6.090   7.914
 6077TIP3   OH239789   4.118   2.817   1.924
 6077TIP3    H139790   4.163   2.901   1.935
 6077TIP3    H239791   4.075   2.823   1.839
 6078TIP3   OH239792   5.268   2.499   1.865
 6078TIP3    H139793   5.236   2.495   1.775
 6078TIP3    H239794   5.189   2.505   1.919
 6079TIP3   OH239795   4.833   2.778   0.230
 6079TIP3    H139796   4.816   2.799   0.138
 6079TIP3    H239797   4.902   2.839   0.256
 6080TIP3   OH239798   2.232   3.642   6.825
 6080TIP3    H139799   2.211   3.550   6.842
 6080TIP3    H239800   2.259   3.644   6.733
 6081TIP3   OH239801   6.452   1.066   2.249
 6081TIP3    H139802   6.389   1.042   2.317
 6081TIP3    H239803   6.517   0.996   2.251
 6082TIP3   OH239804   1.675   5.876   6.650
 6082TIP3    H139805   1.695   5.934   6.577
 6082TIP3    H239806   1.595   5.830   6.623
 6083TIP3   OH239807   5.821   2.786   0.457
 6083TIP3    H139808   5.738   2.770   0.413
 6083TIP3    H239809   5.816   2.877   0.487
 6084TIP3   OH239810   4.563   1.298   0.349
 6084TIP3    H139811   4.530   1.208   0.355
 6084TIP3    H239812   4.496   1.351   0.392
 6085TIP3   OH239813   5.147   6.165   1.421
 6085TIP3    H139814   5.132   6.159   1.516
 6085TIP3    H239815   5.126   6.257   1.400
 6086TIP3   OH239816   6.515   0.445   7.781
 6086TIP3    H139817   6.533   0.413   7.869
 6086TIP3    H239818   6.586   0.507   7.763
 6087TIP3   OH239819   4.656   4.959   1.635
 6087TIP3    H139820   4.563   4.960   1.612
 6087TIP3    H239821   4.670   5.043   1.679
 6088TIP3   OH239822   2.694   2.360   1.380
 6088TIP3    H139823   2.710   2.270   1.349
 6088TIP3    H239824   2.728   2.416   1.310
 6089TIP3   OH239825   6.088   5.261   1.115
 6089TIP3    H139826   6.171   5.307   1.112
 6089TIP3    H239827   6.102   5.189   1.177
 6090TIP3   OH239828   2.984   1.838   7.422
 6090TIP3    H139829   3.077   1.844   7.445
 6090TIP3    H239830   2.968   1.914   7.366
 6091TIP3   OH239831   5.959   0.741   7.358
 6091TIP3    H139832   6.012   0.693   7.422
 6091TIP3    H239833   5.909   0.804   7.411
 6092TIP3   OH239834   2.715   1.290   2.114
 6092TIP3    H139835   2.805   1.269   2.140
 6092TIP3    H239836   2.661   1.228   2.163
 6093TIP3   OH239837   3.407   2.824   0.564
 6093TIP3    H139838   3.328   2.781   0.532
 6093TIP3    H239839   3.460   2.836   0.486
 6094TIP3   OH239840   0.677   0.072   0.822
 6094TIP3    H139841   0.616   0.145   0.812
 6094TIP3    H239842   0.703   0.073   0.914
 6095TIP3   OH239843   0.889   0.884   1.580
 6095TIP3    H139844   0.849   0.871   1.494
 6095TIP3    H239845   0.882   0.978   1.595
 6096TIP3   OH239846   2.126   2.781   0.663
 6096TIP3    H139847   2.046   2.731   0.683
 6096TIP3    H239848   2.145   2.759   0.571
 6097TIP3   OH239849   3.979   1.719   2.493
 6097TIP3    H139850   3.896   1.680   2.467
 6097TIP3    H239851   3.998   1.783   2.425
 6098TIP3   OH239852   4.574   4.092   7.660
 6098TIP3    H139853   4.482   4.080   7.683
 6098TIP3    H239854   4.610   4.004   7.659
 6099TIP3   OH239855   5.074   3.553   1.667
 6099TIP3    H139856   4.990   3.508   1.675
 6099TIP3    H239857   5.114   3.545   1.753
 6100TIP3   OH239858   2.877   2.230   0.810
 6100TIP3    H139859   2.898   2.142   0.777
 6100TIP3    H239860   2.787   2.245   0.781
 6101TIP3   OH239861   4.128   2.640   1.420
 6101TIP3    H139862   4.217   2.604   1.423
 6101TIP3    H239863   4.072   2.565   1.442
 6102TIP3   OH239864   3.914   3.557   7.065
 6102TIP3    H139865   3.965   3.610   7.126
 6102TIP3    H239866   3.969   3.480   7.049
 6103TIP3   OH239867   2.398   2.218   6.711
 6103TIP3    H139868   2.370   2.191   6.623
 6103TIP3    H239869   2.317   2.229   6.760
 6104TIP3   OH239870   6.750   2.505   8.146
 6104TIP3    H139871   6.659   2.514   8.117
 6104TIP3    H239872   6.760   2.412   8.167
 6105TIP3   OH239873   2.481   5.288   7.181
 6105TIP3    H139874   2.528   5.312   7.102
 6105TIP3    H239875   2.513   5.200   7.203
 6106TIP3   OH239876   0.407   5.340   1.301
 6106TIP3    H139877   0.385   5.394   1.377
 6106TIP3    H239878   0.467   5.274   1.336
 6107TIP3   OH239879   1.369   4.622   1.888
 6107TIP3    H139880   1.373   4.588   1.977
 6107TIP3    H239881   1.325   4.707   1.897
 6108TIP3   OH239882   6.710   0.949   1.543
 6108TIP3    H139883   6.799   0.917   1.529
 6108TIP3    H239884   6.674   0.957   1.455
 6109TIP3   OH239885   1.837   4.262   0.190
 6109TIP3    H139886   1.866   4.208   0.117
 6109TIP3    H239887   1.852   4.209   0.268
 6110TIP3   OH239888   1.335   3.519   8.630
 6110TIP3    H139889   1.308   3.540   8.540
 6110TIP3    H239890   1.425   3.550   8.635
 6111TIP3   OH239891   1.635   4.270   6.655
 6111TIP3    H139892   1.648   4.355   6.611
 6111TIP3    H239893   1.712   4.219   6.630
 6112TIP3   OH239894   2.590   3.892   1.763
 6112TIP3    H139895   2.612   3.975   1.722
 6112TIP3    H239896   2.586   3.911   1.857
 6113TIP3   OH239897   4.003   6.599   8.162
 6113TIP3    H139898   4.047   6.683   8.156
 6113TIP3    H239899   3.944   6.608   8.237
 6114TIP3   OH239900   0.727   5.900   7.360
 6114TIP3    H139901   0.665   5.973   7.369
 6114TIP3    H239902   0.704   5.859   7.276
 6115TIP3   OH239903   3.564   1.991   7.800
 6115TIP3    H139904   3.588   1.898   7.796
 6115TIP3    H239905   3.515   2.006   7.719
 6116TIP3   OH239906   4.320   0.371   0.269
 6116TIP3    H139907   4.311   0.285   0.228
 6116TIP3    H239908   4.302   0.434   0.198
 6117TIP3   OH239909   1.863   5.078   7.811
 6117TIP3    H139910   1.789   5.113   7.760
 6117TIP3    H239911   1.825   5.007   7.863
 6118TIP3   OH239912   4.784   3.528   0.958
 6118TIP3    H139913   4.840   3.591   0.912
 6118TIP3    H239914   4.817   3.442   0.929
 6119TIP3   OH239915   4.010   1.440   7.564
 6119TIP3    H139916   4.105   1.427   7.567
 6119TIP3    H239917   3.989   1.440   7.471
 6120TIP3   OH239918   5.277   1.051   8.180
 6120TIP3    H139919   5.198   1.094   8.212
 6120TIP3    H239920   5.257   1.028   8.089
 6121TIP3   OH239921   6.663   4.708   7.608
 6121TIP3    H139922   6.589   4.731   7.664
 6121TIP3    H239923   6.627   4.647   7.543
 6122TIP3   OH239924   1.041   0.508   8.659
 6122TIP3    H139925   0.958   0.505   8.706
 6122TIP3    H239926   1.068   0.600   8.663
 6123TIP3   OH239927   5.179   2.719   7.295
 6123TIP3    H139928   5.150   2.663   7.368
 6123TIP3    H239929   5.137   2.803   7.312
 6124TIP3   OH239930   0.095   3.986   6.774
 6124TIP3    H139931   0.037   3.910   6.784
 6124TIP3    H239932   0.045   4.047   6.719
 6125TIP3   OH239933   6.031   4.915   7.545
 6125TIP3    H139934   5.957   4.937   7.488
 6125TIP3    H239935   6.011   4.827   7.578
 6126TIP3   OH239936   6.782   5.207   1.902
 6126TIP3    H139937   6.828   5.151   1.839
 6126TIP3    H239938   6.793   5.163   1.986
 6127TIP3   OH239939   6.023   6.289   6.627
 6127TIP3    H139940   5.960   6.278   6.556
 6127TIP3    H239941   6.105   6.311   6.582
 6128TIP3   OH239942   6.279   2.306   7.084
 6128TIP3    H139943   6.335   2.382   7.067
 6128TIP3    H239944   6.201   2.322   7.032
 6129TIP3   OH239945   3.665   0.120   0.732
 6129TIP3    H139946   3.580   0.141   0.772
 6129TIP3    H239947   3.663   0.025   0.719
 6130TIP3   OH239948   1.894   6.318   6.872
 6130TIP3    H139949   1.828   6.370   6.825
 6130TIP3    H239950   1.911   6.244   6.815
 6131TIP3   OH239951   0.877   4.627   1.602
 6131TIP3    H139952   0.798   4.671   1.570
 6131TIP3    H239953   0.890   4.661   1.690
 6132TIP3   OH239954   0.081   2.856   7.095
 6132TIP3    H139955   0.100   2.861   7.188
 6132TIP3    H239956   0.029   2.934   7.076
 6133TIP3   OH239957   3.455   3.553   7.593
 6133TIP3    H139958   3.513   3.624   7.620
 6133TIP3    H239959   3.441   3.502   7.673
 6134TIP3   OH239960   4.277   3.462   0.633
 6134TIP3    H139961   4.257   3.553   0.658
 6134TIP3    H239962   4.352   3.469   0.575
 6135TIP3   OH239963   0.143   0.303   1.230
 6135TIP3    H139964   0.058   0.294   1.187
 6135TIP3    H239965   0.135   0.255   1.312
 6136TIP3   OH239966   3.371   4.189   8.518
 6136TIP3    H139967   3.325   4.269   8.497
 6136TIP3    H239968   3.302   4.126   8.538
 6137TIP3   OH239969   1.036   2.654   1.570
 6137TIP3    H139970   1.030   2.570   1.525
 6137TIP3    H239971   0.945   2.680   1.586
 6138TIP3   OH239972   1.497   0.757   1.080
 6138TIP3    H139973   1.467   0.724   0.995
 6138TIP3    H239974   1.576   0.807   1.060
 6139TIP3   OH239975   2.620   1.313   0.766
 6139TIP3    H139976   2.583   1.248   0.826
 6139TIP3    H239977   2.586   1.289   0.680
 6140TIP3   OH239978   0.987   5.234   1.091
 6140TIP3    H139979   0.973   5.258   0.999
 6140TIP3    H239980   1.038   5.153   1.087
 6141TIP3   OH239981   3.066   3.673   1.379
 6141TIP3    H139982   3.072   3.611   1.451
 6141TIP3    H239983   3.111   3.630   1.306
 6142TIP3   OH239984   0.482   1.811   0.301
 6142TIP3    H139985   0.471   1.720   0.326
 6142TIP3    H239986   0.451   1.861   0.377
 6143TIP3   OH239987   2.484   4.346   7.887
 6143TIP3    H139988   2.464   4.391   7.968
 6143TIP3    H239989   2.471   4.412   7.819
 6144TIP3   OH239990   5.408   0.923   1.057
 6144TIP3    H139991   5.350   0.999   1.052
 6144TIP3    H239992   5.377   0.874   1.133
 6145TIP3   OH239993   6.336   5.851   8.602
 6145TIP3    H139994   6.348   5.793   8.527
 6145TIP3    H239995   6.273   5.917   8.573
 6146TIP3   OH239996   3.598   2.742   0.323
 6146TIP3    H139997   3.648   2.820   0.345
 6146TIP3    H239998   3.621   2.679   0.391
 6147TIP3   OH239999   0.247   4.511   8.253
 6147TIP3    H140000   0.161   4.472   8.265
 6147TIP3    H240001   0.309   4.442   8.276
 6148TIP3   OH240002   2.884   0.334   1.087
 6148TIP3    H140003   2.865   0.270   1.156
 6148TIP3    H240004   2.979   0.327   1.075
 6149TIP3   OH240005   1.842   1.670   8.018
 6149TIP3    H140006   1.824   1.655   7.925
 6149TIP3    H240007   1.756   1.672   8.059
 6150TIP3   OH240008   3.285   3.227   1.895
 6150TIP3    H140009   3.211   3.239   1.954
 6150TIP3    H240010   3.264   3.147   1.845
 6151TIP3   OH240011   1.356   4.917   7.758
 6151TIP3    H140012   1.430   4.959   7.713
 6151TIP3    H240013   1.284   4.922   7.694
 6152TIP3   OH240014   0.882   1.811   0.647
 6152TIP3    H140015   0.838   1.766   0.575
 6152TIP3    H240016   0.820   1.807   0.720
 6153TIP3   OH240017   1.048   1.097   8.289
 6153TIP3    H140018   1.126   1.137   8.250
 6153TIP3    H240019   0.976   1.155   8.266
 6154TIP3   OH240020   4.022   2.155   1.279
 6154TIP3    H140021   4.021   2.068   1.239
 6154TIP3    H240022   3.932   2.187   1.268
 6155TIP3   OH240023   6.666   5.587   1.552
 6155TIP3    H140024   6.664   5.642   1.631
 6155TIP3    H240025   6.758   5.564   1.542
 6156TIP3   OH240026   0.037   6.197   2.100
 6156TIP3    H140027   0.128   6.188   2.071
 6156TIP3    H240028   0.043   6.215   2.193
 6157TIP3   OH240029   0.371   1.459   7.443
 6157TIP3    H140030   0.458   1.490   7.418
 6157TIP3    H240031   0.386   1.371   7.478
 6158TIP3   OH240032   3.706   4.857   1.396
 6158TIP3    H140033   3.764   4.825   1.328
 6158TIP3    H240034   3.758   4.921   1.445
 6159TIP3   OH240035   1.563   4.352   2.097
 6159TIP3    H140036   1.565   4.309   2.182
 6159TIP3    H240037   1.508   4.429   2.109
 6160TIP3   OH240038   2.095   1.701   0.323
 6160TIP3    H140039   2.039   1.777   0.334
 6160TIP3    H240040   2.167   1.715   0.384
 6161TIP3   OH240041   6.006   0.675   8.387
 6161TIP3    H140042   6.083   0.664   8.443
 6161TIP3    H240043   5.932   0.649   8.443
 6162TIP3   OH240044   6.175   6.628   8.262
 6162TIP3    H140045   6.259   6.643   8.305
 6162TIP3    H240046   6.198   6.589   8.178
 6163TIP3   OH240047   1.606   3.270   1.977
 6163TIP3    H140048   1.512   3.256   1.988
 6163TIP3    H240049   1.613   3.356   1.935
 6164TIP3   OH240050   6.034   0.143   1.076
 6164TIP3    H140051   6.104   0.165   1.015
 6164TIP3    H240052   6.078   0.106   1.152
 6165TIP3   OH240053   3.364   1.456   7.857
 6165TIP3    H140054   3.431   1.393   7.830
 6165TIP3    H240055   3.284   1.404   7.862
 6166TIP3   OH240056   1.377   0.264   0.002
 6166TIP3    H140057   1.300   0.244   0.054
 6166TIP3    H240058   1.342   0.300   8.647
 6167TIP3   OH240059   2.316   5.732   0.562
 6167TIP3    H140060   2.227   5.769   0.556
 6167TIP3    H240061   2.304   5.639   0.546
 6168TIP3   OH240062   5.607   4.582   0.129
 6168TIP3    H140063   5.564   4.655   0.084
 6168TIP3    H240064   5.657   4.538   0.061
 6169TIP3   OH240065   5.768   5.532   7.927
 6169TIP3    H140066   5.739   5.542   8.017
 6169TIP3    H240067   5.692   5.496   7.881
 6170TIP3   OH240068   5.351   0.035   0.324
 6170TIP3    H140069   5.328   6.832   0.397
 6170TIP3    H240070   5.317   0.121   0.349
 6171TIP3   OH240071   0.934   4.849   0.515
 6171TIP3    H140072   0.871   4.889   0.574
 6171TIP3    H240073   0.997   4.805   0.573
 6172TIP3   OH240074   6.023   5.246   0.005
 6172TIP3    H140075   6.038   5.277   8.641
 6172TIP3    H240076   6.067   5.161   0.009
 6173TIP3   OH240077   5.822   4.441   7.599
 6173TIP3    H140078   5.865   4.360   7.571
 6173TIP3    H240079   5.739   4.411   7.637
 6174TIP3   OH240080   0.223   2.961   8.387
 6174TIP3    H140081   0.221   2.882   8.332
 6174TIP3    H240082   0.255   3.030   8.329
 6175TIP3   OH240083   0.464   2.930   8.003
 6175TIP3    H140084   0.450   3.000   7.939
 6175TIP3    H240085   0.377   2.913   8.039
 6176TIP3   OH240086   4.810   6.388   2.387
 6176TIP3    H140087   4.724   6.348   2.383
 6176TIP3    H240088   4.847   6.373   2.300
 6177TIP3   OH240089   5.354   3.581   0.401
 6177TIP3    H140090   5.416   3.621   0.340
 6177TIP3    H240091   5.312   3.512   0.351
 6178TIP3   OH240092   1.592   2.271   6.808
 6178TIP3    H140093   1.662   2.215   6.843
 6178TIP3    H240094   1.513   2.242   6.854
 6179TIP3   OH240095   3.144   5.499   1.446
 6179TIP3    H140096   3.179   5.418   1.409
 6179TIP3    H240097   3.164   5.566   1.380
 6180TIP3   OH240098   5.879   6.052   8.083
 6180TIP3    H140099   5.884   5.992   8.009
 6180TIP3    H240100   5.828   6.004   8.149
 6181TIP3   OH240101   4.521   6.334   8.168
 6181TIP3    H140102   4.435   6.298   8.190
 6181TIP3    H240103   4.582   6.286   8.222
 6182TIP3   OH240104   1.610   2.588   0.952
 6182TIP3    H140105   1.688   2.630   0.917
 6182TIP3    H240106   1.644   2.523   1.014
 6183TIP3   OH240107   1.361   2.235   1.138
 6183TIP3    H140108   1.337   2.244   1.046
 6183TIP3    H240109   1.438   2.177   1.137
 6184TIP3   OH240110   1.077   4.729   7.206
 6184TIP3    H140111   1.145   4.670   7.237
 6184TIP3    H240112   1.072   4.713   7.112
 6185TIP3   OH240113   6.088   2.826   7.688
 6185TIP3    H140114   6.087   2.848   7.781
 6185TIP3    H240115   6.165   2.872   7.653
 6186TIP3   OH240116   5.284   3.857   1.478
 6186TIP3    H140117   5.362   3.840   1.532
 6186TIP3    H240118   5.241   3.931   1.522
 6187TIP3   OH240119   1.875   5.724   8.291
 6187TIP3    H140120   1.914   5.760   8.212
 6187TIP3    H240121   1.920   5.770   8.363
 6188TIP3   OH240122   1.825   3.267   8.608
 6188TIP3    H140123   1.748   3.295   8.559
 6188TIP3    H240124   1.824   3.172   8.604
 6189TIP3   OH240125   4.259   6.055   1.333
 6189TIP3    H140126   4.276   5.997   1.407
 6189TIP3    H240127   4.282   6.004   1.255
 6190TIP3   OH240128   0.458   2.482   7.941
 6190TIP3    H140129   0.472   2.508   8.032
 6190TIP3    H240130   0.389   2.540   7.910
 6191TIP3   OH240131   6.228   2.327   1.305
 6191TIP3    H140132   6.243   2.376   1.386
 6191TIP3    H240133   6.310   2.279   1.291
 6192TIP3   OH240134   4.926   6.302   6.489
 6192TIP3    H140135   4.998   6.332   6.544
 6192TIP3    H240136   4.899   6.218   6.526
 6193TIP3   OH240137   0.042   4.192   6.940
 6193TIP3    H140138   0.056   4.114   6.886
 6193TIP3    H240139   0.129   4.228   6.953
 6194TIP3   OH240140   6.789   6.058   2.510
 6194TIP3    H140141   6.830   6.125   2.455
 6194TIP3    H240142   6.854   6.039   2.577
 6195TIP3   OH240143   4.767   0.178   1.023
 6195TIP3    H140144   4.788   0.235   0.949
 6195TIP3    H240145   4.718   0.234   1.083
 6196TIP3   OH240146   4.902   1.496   8.614
 6196TIP3    H140147   4.910   1.587   8.640
 6196TIP3    H240148   4.990   1.472   8.584
 6197TIP3   OH240149   6.599   1.598   1.061
 6197TIP3    H140150   6.554   1.518   1.034
 6197TIP3    H240151   6.569   1.664   0.999
 6198TIP3   OH240152   5.759   0.230   8.691
 6198TIP3    H140153   5.794   0.319   8.684
 6198TIP3    H240154   5.830   0.180   0.004
 6199TIP3   OH240155   6.291   6.546   1.793
 6199TIP3    H140156   6.210   6.563   1.841
 6199TIP3    H240157   6.350   6.507   1.858
 6200TIP3   OH240158   4.526   1.146   8.141
 6200TIP3    H140159   4.519   1.096   8.060
 6200TIP3    H240160   4.611   1.189   8.136
 6201TIP3   OH240161   5.456   0.832   7.641
 6201TIP3    H140162   5.375   0.798   7.681
 6201TIP3    H240163   5.517   0.758   7.644
 6202TIP3   OH240164   3.675   2.133   2.427
 6202TIP3    H140165   3.632   2.072   2.486
 6202TIP3    H240166   3.759   2.092   2.406
 6203TIP3   OH240167   6.812   4.205   6.655
 6203TIP3    H140168   6.734   4.167   6.695
 6203TIP3    H240169   6.821   4.291   6.697
 6204TIP3   OH240170   0.755   3.591   6.767
 6204TIP3    H140171   0.830   3.648   6.749
 6204TIP3    H240172   0.777   3.509   6.723
 6205TIP3   OH240173   6.316   6.758   8.062
 6205TIP3    H140174   6.330   6.800   8.147
 6205TIP3    H240175   6.404   6.736   8.031
 6206TIP3   OH240176   0.837   4.783   0.211
 6206TIP3    H140177   0.833   4.872   0.247
 6206TIP3    H240178   0.892   4.735   0.273
 6207TIP3   OH240179   3.083   0.717   7.190
 6207TIP3    H140180   2.995   0.709   7.226
 6207TIP3    H240181   3.093   0.638   7.136
 6208TIP3   OH240182   5.094   2.639   8.517
 6208TIP3    H140183   5.118   2.705   8.451
 6208TIP3    H240184   5.084   2.689   8.598
 6209TIP3   OH240185   1.702   6.498   1.750
 6209TIP3    H140186   1.769   6.565   1.764
 6209TIP3    H240187   1.657   6.492   1.835
 6210TIP3   OH240188   2.963   6.421   7.884
 6210TIP3    H140189   3.005   6.357   7.826
 6210TIP3    H240190   2.941   6.371   7.963
 6211TIP3   OH240191   2.180   6.341   2.322
 6211TIP3    H140192   2.107   6.287   2.290
 6211TIP3    H240193   2.253   6.280   2.332
 6212TIP3   OH240194   1.458   0.093   1.327
 6212TIP3    H140195   1.533   0.047   1.366
 6212TIP3    H240196   1.494   0.178   1.299
 6213TIP3   OH240197   1.401   4.648   8.601
 6213TIP3    H140198   1.428   4.652   8.509
 6213TIP3    H240199   1.415   4.557   8.627
 6214TIP3   OH240200   4.801   6.361   0.343
 6214TIP3    H140201   4.785   6.361   0.437
 6214TIP3    H240202   4.714   6.369   0.304
 6215TIP3   OH240203   2.154   1.328   8.437
 6215TIP3    H140204   2.152   1.364   8.525
 6215TIP3    H240205   2.116   1.240   8.447
 6216TIP3   OH240206   2.901   2.448   8.142
 6216TIP3    H140207   2.953   2.511   8.191
 6216TIP3    H240208   2.815   2.490   8.132
 6217TIP3   OH240209   5.513   6.547   8.457
 6217TIP3    H140210   5.572   6.575   8.527
 6217TIP3    H240211   5.482   6.461   8.485
 6218TIP3   OH240212   1.454   6.480   1.616
 6218TIP3    H140213   1.440   6.385   1.618
 6218TIP3    H240214   1.527   6.494   1.676
 6219TIP3   OH240215   3.317   6.062   7.759
 6219TIP3    H140216   3.314   6.074   7.853
 6219TIP3    H240217   3.331   5.968   7.747
 6220TIP3   OH240218   5.997   0.965   0.838
 6220TIP3    H140219   6.053   0.959   0.761
 6220TIP3    H240220   6.039   0.909   0.903
 6221TIP3   OH240221   0.038   6.224   8.250
 6221TIP3    H140222   0.040   6.261   8.339
 6221TIP3    H240223   0.080   6.139   8.259
 6222TIP3   OH240224   4.951   4.495   7.973
 6222TIP3    H140225   4.925   4.521   8.061
 6222TIP3    H240226   5.040   4.461   7.982
 6223TIP3   OH240227   5.710   1.901   0.780
 6223TIP3    H140228   5.785   1.926   0.834
 6223TIP3    H240229   5.693   1.809   0.803
 6224TIP3   OH240230   4.281   5.375   7.028
 6224TIP3    H140231   4.195   5.416   7.023
 6224TIP3    H240232   4.316   5.404   7.113
 6225TIP3   OH240233   1.536   2.527   6.473
 6225TIP3    H140234   1.599   2.455   6.471
 6225TIP3    H240235   1.492   2.523   6.389
 6226TIP3   OH240236   5.315   1.232   1.493
 6226TIP3    H140237   5.283   1.270   1.575
 6226TIP3    H240238   5.280   1.143   1.492
 6227TIP3   OH240239   4.767   0.263   1.863
 6227TIP3    H140240   4.850   0.244   1.907
 6227TIP3    H240241   4.731   0.338   1.910
 6228TIP3   OH240242   0.964   0.848   6.989
 6228TIP3    H140243   1.038   0.851   6.928
 6228TIP3    H240244   1.004   0.850   7.076
 6229TIP3   OH240245   3.960   1.871   0.198
 6229TIP3    H140246   3.889   1.912   0.246
 6229TIP3    H240247   4.028   1.856   0.264
 6230TIP3   OH240248   2.393   4.252   1.054
 6230TIP3    H140249   2.371   4.314   0.985
 6230TIP3    H240250   2.416   4.171   1.007
 6231TIP3   OH240251   5.372   6.131   7.648
 6231TIP3    H140252   5.290   6.154   7.691
 6231TIP3    H240253   5.372   6.180   7.566
 6232TIP3   OH240254   2.137   6.044   1.842
 6232TIP3    H140255   2.198   6.116   1.825
 6232TIP3    H240256   2.187   5.983   1.896
 6233TIP3   OH240257   6.542   4.342   2.270
 6233TIP3    H140258   6.467   4.306   2.316
 6233TIP3    H240259   6.571   4.415   2.324
 6234TIP3   OH240260   5.719   1.295   1.794
 6234TIP3    H140261   5.757   1.207   1.802
 6234TIP3    H240262   5.707   1.307   1.700
 6235TIP3   OH240263   3.918   0.727   8.360
 6235TIP3    H140264   3.961   0.650   8.323
 6235TIP3    H240265   3.840   0.739   8.305
 6236TIP3   OH240266   2.141   2.985   0.267
 6236TIP3    H140267   2.127   3.060   0.326
 6236TIP3    H240268   2.055   2.944   0.261
 6237TIP3   OH240269   0.042   5.868   1.649
 6237TIP3    H140270   0.112   5.925   1.616
 6237TIP3    H240271   6.841   5.851   1.573
 6238TIP3   OH240272   2.769   6.355   8.293
 6238TIP3    H140273   2.728   6.426   8.243
 6238TIP3    H240274   2.838   6.398   8.344
 6239TIP3   OH240275   2.852   6.034   8.595
 6239TIP3    H140276   2.770   6.078   8.573
 6239TIP3    H240277   2.829   5.941   8.598
 6240TIP3   OH240278   0.710   0.794   7.318
 6240TIP3    H140279   0.767   0.860   7.359
 6240TIP3    H240280   0.693   0.829   7.231
 6241TIP3   OH240281   6.027   4.560   6.671
 6241TIP3    H140282   6.079   4.539   6.594
 6241TIP3    H240283   5.943   4.517   6.657
 6242TIP3   OH240284   4.743   2.985   8.122
 6242TIP3    H140285   4.670   2.928   8.145
 6242TIP3    H240286   4.721   3.069   8.160
 6243TIP3   OH240287   5.919   4.401   2.483
 6243TIP3    H140288   5.851   4.467   2.470
 6243TIP3    H240289   5.902   4.364   2.569
 6244TIP3   OH240290   5.195   2.772   2.510
 6244TIP3    H140291   5.163   2.829   2.441
 6244TIP3    H240292   5.255   2.826   2.561
 6245TIP3   OH240293   0.206   3.085   2.438
 6245TIP3    H140294   0.133   3.029   2.466
 6245TIP3    H240295   0.165   3.149   2.379
 6246TIP3   OH240296   2.338   5.930   0.070
 6246TIP3    H140297   2.248   5.898   0.078
 6246TIP3    H240298   2.329   6.020   0.040
 6247TIP3   OH240299   2.443   3.207   8.040
 6247TIP3    H140300   2.482   3.204   7.953
 6247TIP3    H240301   2.401   3.293   8.044
 6248TIP3   OH240302   4.028   2.914   6.206
 6248TIP3    H140303   4.006   2.995   6.251
 6248TIP3    H240304   3.980   2.918   6.124
 6249TIP3   OH240305   2.840   3.919   0.739
 6249TIP3    H140306   2.761   3.869   0.755
 6249TIP3    H240307   2.828   3.956   0.651
 6250TIP3   OH240308   0.106   0.441   8.263
 6250TIP3    H140309   0.028   0.465   8.313
 6250TIP3    H240310   0.177   0.442   8.328
 6251TIP3   OH240311   5.134   0.259   8.364
 6251TIP3    H140312   5.080   0.335   8.386
 6251TIP3    H240313   5.110   0.238   8.274
 6252TIP3   OH240314   4.129   5.091   8.669
 6252TIP3    H140315   4.083   5.136   8.598
 6252TIP3    H240316   4.107   4.999   8.657
 6253TIP3   OH240317   3.894   2.300   6.524
 6253TIP3    H140318   3.875   2.289   6.431
 6253TIP3    H240319   3.990   2.306   6.528
 6254TIP3   OH240320   1.651   2.638   8.013
 6254TIP3    H140321   1.574   2.695   8.002
 6254TIP3    H240322   1.681   2.619   7.924
 6255TIP3   OH240323   4.654   4.781   0.402
 6255TIP3    H140324   4.564   4.750   0.418
 6255TIP3    H240325   4.643   4.854   0.341
 6256TIP3   OH240326   6.610   1.439   7.233
 6256TIP3    H140327   6.546   1.369   7.221
 6256TIP3    H240328   6.579   1.509   7.176
 6257TIP3   OH240329   3.014   1.588   8.028
 6257TIP3    H140330   3.035   1.592   7.935
 6257TIP3    H240331   3.019   1.495   8.050
 6258TIP3   OH240332   6.586   0.591   1.924
 6258TIP3    H140333   6.579   0.603   2.019
 6258TIP3    H240334   6.563   0.676   1.888
 6259TIP3   OH240335   3.071   5.373   7.151
 6259TIP3    H140336   3.104   5.434   7.084
 6259TIP3    H240337   3.143   5.367   7.214
 6260TIP3   OH240338   2.493   3.255   1.308
 6260TIP3    H140339   2.493   3.242   1.213
 6260TIP3    H240340   2.585   3.245   1.333
 6261TIP3   OH240341   3.904   6.694   6.137
 6261TIP3    H140342   3.998   6.681   6.148
 6261TIP3    H240343   3.865   6.609   6.160
 6262TIP3   OH240344   0.451   5.434   7.037
 6262TIP3    H140345   0.414   5.439   7.125
 6262TIP3    H240346   0.459   5.340   7.020
 6263TIP3   OH240347   6.616   1.149   2.514
 6263TIP3    H140348   6.653   1.167   2.427
 6263TIP3    H240349   6.525   1.180   2.508
 6264TIP3   OH240350   5.480   4.974   0.210
 6264TIP3    H140351   5.534   4.921   0.268
 6264TIP3    H240352   5.403   4.920   0.192
 6265TIP3   OH240353   3.576   6.142   0.933
 6265TIP3    H140354   3.527   6.069   0.970
 6265TIP3    H240355   3.509   6.204   0.905
 6266TIP3   OH240356   0.132   6.505   2.212
 6266TIP3    H140357   0.109   6.594   2.240
 6266TIP3    H240358   0.221   6.514   2.177
 6267TIP3   OH240359   0.070   1.187   7.367
 6267TIP3    H140360   0.086   1.281   7.380
 6267TIP3    H240361   6.829   1.180   7.361
 6268TIP3   OH240362   2.217   6.695   1.929
 6268TIP3    H140363   2.290   6.664   1.875
 6268TIP3    H240364   2.239   6.667   2.017
 6269TIP3   OH240365   0.700   3.058   8.042
 6269TIP3    H140366   0.759   3.048   7.967
 6269TIP3    H240367   0.635   2.989   8.031
 6270TIP3   OH240368   2.998   1.600   7.104
 6270TIP3    H140369   2.908   1.580   7.130
 6270TIP3    H240370   3.036   1.644   7.180
 6271TIP3   OH240371   6.801   6.173   1.307
 6271TIP3    H140372   6.773   6.224   1.231
 6271TIP3    H240373   0.014   6.114   1.273
 6272TIP3   OH240374   3.092   0.321   7.955
 6272TIP3    H140375   3.140   0.352   8.032
 6272TIP3    H240376   3.148   0.343   7.881
 6273TIP3   OH240377   5.450   4.009   0.353
 6273TIP3    H140378   5.377   3.955   0.324
 6273TIP3    H240379   5.409   4.086   0.392
 6274TIP3   OH240380   3.121   5.978   1.100
 6274TIP3    H140381   3.108   6.030   1.179
 6274TIP3    H240382   3.043   5.995   1.047
 6275TIP3   OH240383   3.611   4.211   7.187
 6275TIP3    H140384   3.541   4.270   7.160
 6275TIP3    H240385   3.646   4.250   7.267
 6276TIP3   OH240386   1.893   2.778   7.615
 6276TIP3    H140387   1.915   2.851   7.557
 6276TIP3    H240388   1.976   2.752   7.655
 6277TIP3   OH240389   1.461   1.195   8.671
 6277TIP3    H140390   1.510   1.266   8.713
 6277TIP3    H240391   1.420   1.148   0.017
 6278TIP3   OH240392   1.657   0.210   6.928
 6278TIP3    H140393   1.738   0.204   6.979
 6278TIP3    H240394   1.684   0.191   6.838
 6279TIP3   OH240395   3.563   6.571   6.713
 6279TIP3    H140396   3.542   6.652   6.667
 6279TIP3    H240397   3.536   6.501   6.654
 6280TIP3   OH240398   1.927   1.714   7.349
 6280TIP3    H140399   1.846   1.726   7.398
 6280TIP3    H240400   1.900   1.669   7.268
 6281TIP3   OH240401   5.975   3.150   2.513
 6281TIP3    H140402   6.043   3.104   2.464
 6281TIP3    H240403   5.908   3.085   2.529
 6282TIP3   OH240404   2.073   5.002   7.350
 6282TIP3    H140405   2.133   5.054   7.403
 6282TIP3    H240406   2.016   4.959   7.415
 6283TIP3   OH240407   3.935   3.170   1.111
 6283TIP3    H140408   3.924   3.173   1.016
 6283TIP3    H240409   3.961   3.079   1.129
 6284TIP3   OH240410   5.090   2.265   1.434
 6284TIP3    H140411   5.110   2.244   1.343
 6284TIP3    H240412   4.999   2.294   1.432
 6285TIP3   OH240413   4.123   4.292   0.649
 6285TIP3    H140414   4.214   4.322   0.644
 6285TIP3    H240415   4.118   4.245   0.733
 6286TIP3   OH240416   5.182   3.773   6.634
 6286TIP3    H140417   5.129   3.724   6.572
 6286TIP3    H240418   5.230   3.836   6.580
 6287TIP3   OH240419   3.067   1.333   0.997
 6287TIP3    H140420   3.006   1.282   0.944
 6287TIP3    H240421   3.122   1.379   0.933
 6288TIP3   OH240422   6.551   1.400   8.387
 6288TIP3    H140423   6.623   1.352   8.429
 6288TIP3    H240424   6.538   1.355   8.304
 6289TIP3   OH240425   0.874   0.534   6.821
 6289TIP3    H140426   0.927   0.486   6.756
 6289TIP3    H240427   0.816   0.467   6.858
 6290TIP3   OH240428   5.279   0.935   6.264
 6290TIP3    H140429   5.349   0.996   6.240
 6290TIP3    H240430   5.216   0.989   6.312
 6291TIP3   OH240431   6.767   4.869   0.231
 6291TIP3    H140432   6.764   4.965   0.239
 6291TIP3    H240433   6.695   4.838   0.285
 6292TIP3   OH240434   6.032   3.113   7.680
 6292TIP3    H140435   6.115   3.161   7.671
 6292TIP3    H240436   6.014   3.080   7.592
 6293TIP3   OH240437   1.476   1.687   1.790
 6293TIP3    H140438   1.496   1.602   1.751
 6293TIP3    H240439   1.479   1.672   1.884
 6294TIP3   OH240440   5.778   0.629   0.575
 6294TIP3    H140441   5.769   0.534   0.574
 6294TIP3    H240442   5.688   0.662   0.566
 6295TIP3   OH240443   5.490   4.789   8.699
 6295TIP3    H140444   5.395   4.777   8.691
 6295TIP3    H240445   5.502   4.883   8.710
 6296TIP3   OH240446   0.043   4.309   0.090
 6296TIP3    H140447   6.826   4.320   0.153
 6296TIP3    H240448   0.122   4.303   0.144
 6297TIP3   OH240449   0.232   6.547   7.313
 6297TIP3    H140450   0.247   6.529   7.220
 6297TIP3    H240451   0.315   6.527   7.355
 6298TIP3   OH240452   2.734   3.654   8.398
 6298TIP3    H140453   2.692   3.686   8.318
 6298TIP3    H240454   2.782   3.576   8.370
 6299TIP3   OH240455   5.915   4.269   7.177
 6299TIP3    H140456   5.962   4.320   7.243
 6299TIP3    H240457   5.828   4.309   7.174
 6300TIP3   OH240458   3.019   3.783   1.679
 6300TIP3    H140459   3.010   3.753   1.770
 6300TIP3    H240460   2.990   3.708   1.627
 6301TIP3   OH240461   1.511   6.690   0.076
 6301TIP3    H140462   1.533   6.764   0.020
 6301TIP3    H240463   1.571   6.620   0.049
 6302TIP3   OH240464   1.485   1.778   7.036
 6302TIP3    H140465   1.399   1.788   6.994
 6302TIP3    H240466   1.546   1.766   6.963
 6303TIP3   OH240467   1.990   3.808   7.480
 6303TIP3    H140468   2.066   3.750   7.478
 6303TIP3    H240469   2.017   3.883   7.533
 6304TIP3   OH240470   2.766   0.931   0.425
 6304TIP3    H140471   2.704   0.862   0.402
 6304TIP3    H240472   2.837   0.886   0.470
 6305TIP3   OH240473   3.158   2.272   0.995
 6305TIP3    H140474   3.131   2.345   0.939
 6305TIP3    H240475   3.135   2.300   1.084
 6306TIP3   OH240476   5.732   0.369   7.973
 6306TIP3    H140477   5.654   0.407   8.014
 6306TIP3    H240478   5.775   0.321   8.043
 6307TIP3   OH240479   6.526   1.519   0.003
 6307TIP3    H140480   6.485   1.439   0.034
 6307TIP3    H240481   6.453   1.574   8.701
 6308TIP3   OH240482   1.863   3.835   1.228
 6308TIP3    H140483   1.915   3.914   1.241
 6308TIP3    H240484   1.780   3.855   1.273
 6309TIP3   OH240485   2.532   3.117   0.809
 6309TIP3    H140486   2.549   3.069   0.727
 6309TIP3    H240487   2.619   3.139   0.842
 6310TIP3   OH240488   4.566   6.245   7.132
 6310TIP3    H140489   4.661   6.250   7.130
 6310TIP3    H240490   4.541   6.295   7.210
 6311TIP3   OH240491   0.551   2.584   8.199
 6311TIP3    H140492   0.623   2.615   8.254
 6311TIP3    H240493   0.483   2.557   8.261
 6312TIP3   OH240494   6.299   2.695   6.748
 6312TIP3    H140495   6.387   2.731   6.738
 6312TIP3    H240496   6.241   2.760   6.707
 6313TIP3   OH240497   0.977   3.450   6.584
 6313TIP3    H140498   0.953   3.372   6.533
 6313TIP3    H240499   1.057   3.424   6.631
 6314TIP3   OH240500   2.837   1.784   1.595
 6314TIP3    H140501   2.927   1.780   1.629
 6314TIP3    H240502   2.782   1.765   1.671
 6315TIP3   OH240503   1.994   4.685   6.701
 6315TIP3    H140504   2.046   4.736   6.763
 6315TIP3    H240505   1.932   4.637   6.755
 6316TIP3   OH240506   6.685   4.905   8.042
 6316TIP3    H140507   6.640   4.905   8.126
 6316TIP3    H240508   6.681   4.996   8.013
 6317TIP3   OH240509   0.233   3.850   7.307
 6317TIP3    H140510   0.253   3.932   7.351
 6317TIP3    H240511   0.239   3.870   7.214
 6318TIP3   OH240512   5.284   5.411   7.130
 6318TIP3    H140513   5.289   5.315   7.135
 6318TIP3    H240514   5.209   5.428   7.072
 6319TIP3   OH240515   3.838   3.286   7.359
 6319TIP3    H140516   3.791   3.369   7.353
 6319TIP3    H240517   3.920   3.308   7.404
 6320TIP3   OH240518   1.589   1.459   0.704
 6320TIP3    H140519   1.679   1.431   0.722
 6320TIP3    H240520   1.597   1.518   0.629
 6321TIP3   OH240521   4.940   5.101   6.569
 6321TIP3    H140522   4.947   5.118   6.475
 6321TIP3    H240523   4.973   5.012   6.579
 6322TIP3   OH240524   2.269   0.723   7.513
 6322TIP3    H140525   2.325   0.757   7.444
 6322TIP3    H240526   2.327   0.712   7.588
 6323TIP3   OH240527   3.973   4.145   6.527
 6323TIP3    H140528   3.957   4.239   6.525
 6323TIP3    H240529   4.068   4.137   6.539
 6324TIP3   OH240530   5.540   0.960   7.988
 6324TIP3    H140531   5.501   0.924   8.068
 6324TIP3    H240532   5.626   0.917   7.982
 6325TIP3   OH240533   1.270   6.339   7.069
 6325TIP3    H140534   1.325   6.272   7.029
 6325TIP3    H240535   1.185   6.329   7.026
 6326TIP3   OH240536   4.006   4.422   6.570
 6326TIP3    H140537   4.025   4.391   6.658
 6326TIP3    H240538   4.091   4.430   6.528
 6327TIP3   OH240539   2.718   2.152   7.141
 6327TIP3    H140540   2.702   2.137   7.048
 6327TIP3    H240541   2.663   2.227   7.163
 6328TIP3   OH240542   4.667   6.851   2.278
 6328TIP3    H140543   4.634   6.776   2.327
 6328TIP3    H240544   4.758   0.006   2.305
 6329TIP3   OH240545   1.037   0.951   7.495
 6329TIP3    H140546   0.953   0.939   7.541
 6329TIP3    H240547   1.068   0.862   7.480
 6330TIP3   OH240548   5.649   1.143   1.044
 6330TIP3    H140549   5.609   1.057   1.054
 6330TIP3    H240550   5.732   1.126   1.000
 6331TIP3   OH240551   1.259   3.218   0.280
 6331TIP3    H140552   1.324   3.174   0.335
 6331TIP3    H240553   1.311   3.258   0.210
 6332TIP3   OH240554   2.092   2.399   7.517
 6332TIP3    H140555   2.169   2.343   7.524
 6332TIP3    H240556   2.110   2.471   7.577
 6333TIP3   OH240557   3.666   6.732   7.577
 6333TIP3    H140558   3.572   6.720   7.565
 6333TIP3    H240559   3.684   6.693   7.662
 6334TIP3   OH240560   1.465   4.214   6.860
 6334TIP3    H140561   1.512   4.209   6.776
 6334TIP3    H240562   1.385   4.263   6.840
 6335TIP3   OH240563   0.222   5.421   1.878
 6335TIP3    H140564   0.185   5.494   1.828
 6335TIP3    H240565   0.180   5.427   1.963
 6336TIP3   OH240566   2.286   5.430   2.269
 6336TIP3    H140567   2.314   5.522   2.273
 6336TIP3    H240568   2.296   5.398   2.359
 6337TIP3   OH240569   1.779   4.564   0.433
 6337TIP3    H140570   1.705   4.612   0.469
 6337TIP3    H240571   1.836   4.631   0.395
 6338TIP3   OH240572   1.282   5.674   1.842
 6338TIP3    H140573   1.310   5.755   1.800
 6338TIP3    H240574   1.278   5.696   1.935
 6339TIP3   OH240575   2.062   1.077   8.434
 6339TIP3    H140576   1.968   1.071   8.451
 6339TIP3    H240577   2.072   1.045   8.345
 6340TIP3   OH240578   5.447   5.521   8.562
 6340TIP3    H140579   5.435   5.542   8.469
 6340TIP3    H240580   5.359   5.525   8.599
 6341TIP3   OH240581   6.077   2.604   1.760
 6341TIP3    H140582   6.122   2.534   1.713
 6341TIP3    H240583   6.034   2.655   1.692
 6342TIP3   OH240584   2.219   6.485   6.171
 6342TIP3    H140585   2.150   6.470   6.237
 6342TIP3    H240586   2.203   6.575   6.141
 6343TIP3   OH240587   0.323   6.445   6.714
 6343TIP3    H140588   0.236   6.406   6.714
 6343TIP3    H240589   0.380   6.378   6.750
 6344TIP3   OH240590   3.864   6.138   1.357
 6344TIP3    H140591   3.858   6.192   1.279
 6344TIP3    H240592   3.783   6.156   1.405
 6345TIP3   OH240593   6.637   0.478   7.186
 6345TIP3    H140594   6.688   0.404   7.220
 6345TIP3    H240595   6.604   0.522   7.264
 6346TIP3   OH240596   4.254   3.662   7.477
 6346TIP3    H140597   4.343   3.681   7.445
 6346TIP3    H240598   4.219   3.748   7.501
 6347TIP3   OH240599   1.335   5.524   7.805
 6347TIP3    H140600   1.412   5.563   7.847
 6347TIP3    H240601   1.334   5.433   7.836
 6348TIP3   OH240602   5.320   1.672   6.880
 6348TIP3    H140603   5.227   1.657   6.860
 6348TIP3    H240604   5.331   1.636   6.969
 6349TIP3   OH240605   1.063   5.552   8.161
 6349TIP3    H140606   1.021   5.476   8.120
 6349TIP3    H240607   1.072   5.528   8.253
 6350TIP3   OH240608   2.462   1.882   6.642
 6350TIP3    H140609   2.516   1.806   6.621
 6350TIP3    H240610   2.426   1.910   6.559
 6351TIP3   OH240611   2.435   1.636   8.299
 6351TIP3    H140612   2.399   1.565   8.245
 6351TIP3    H240613   2.362   1.663   8.355
 6352TIP3   OH240614   2.010   1.163   0.751
 6352TIP3    H140615   2.022   1.077   0.711
 6352TIP3    H240616   2.099   1.190   0.775
 6353TIP3   OH240617   1.019   4.115   0.637
 6353TIP3    H140618   1.012   4.021   0.621
 6353TIP3    H240619   1.041   4.152   0.551
 6354TIP3   OH240620   0.612   2.617   7.453
 6354TIP3    H140621   0.623   2.522   7.458
 6354TIP3    H240622   0.681   2.653   7.509
 6355TIP3   OH240623   3.954   6.805   6.426
 6355TIP3    H140624   3.987   6.731   6.477
 6355TIP3    H240625   3.975   0.028   6.479
 6356TIP3   OH240626   2.146   4.460   6.678
 6356TIP3    H140627   2.157   4.529   6.612
 6356TIP3    H240628   2.129   4.507   6.759
 6357TIP3   OH240629   6.209   6.815   8.684
 6357TIP3    H140630   6.117   6.797   8.703
 6357TIP3    H240631   6.214   0.056   8.674
 6358TIP3   OH240632   1.929   5.199   6.412
 6358TIP3    H140633   1.873   5.271   6.438
 6358TIP3    H240634   1.868   5.132   6.380
 6359TIP3   OH240635   3.519   1.605   1.764
 6359TIP3    H140636   3.480   1.518   1.760
 6359TIP3    H240637   3.513   1.630   1.856
 6360TIP3   OH240638   2.456   6.369   8.198
 6360TIP3    H140639   2.421   6.331   8.279
 6360TIP3    H240640   2.459   6.296   8.136
 6361TIP3   OH240641   1.379   3.975   8.683
 6361TIP3    H140642   1.449   4.013   0.011
 6361TIP3    H240643   1.329   3.922   0.018
 6362TIP3   OH240644   6.786   6.352   7.752
 6362TIP3    H140645   6.844   6.415   7.795
 6362TIP3    H240646   6.781   6.279   7.813
 6363TIP3   OH240647   3.477   0.882   8.351
 6363TIP3    H140648   3.446   0.868   8.441
 6363TIP3    H240649   3.491   0.976   8.345
 6364TIP3   OH240650   3.502   2.166   0.415
 6364TIP3    H140651   3.467   2.125   0.493
 6364TIP3    H240652   3.447   2.133   0.344
 6365TIP3   OH240653   2.772   6.597   1.897
 6365TIP3    H140654   2.723   6.677   1.914
 6365TIP3    H240655   2.841   6.623   1.836
 6366TIP3   OH240656   4.779   2.179   8.173
 6366TIP3    H140657   4.717   2.144   8.109
 6366TIP3    H240658   4.801   2.266   8.140
 6367TIP3   OH240659   2.302   5.480   7.823
 6367TIP3    H140660   2.253   5.519   7.895
 6367TIP3    H240661   2.241   5.419   7.783
 6368TIP3   OH240662   4.799   5.096   2.415
 6368TIP3    H140663   4.796   5.015   2.365
 6368TIP3    H240664   4.753   5.076   2.497
 6369TIP3   OH240665   3.237   5.052   0.239
 6369TIP3    H140666   3.289   5.083   0.165
 6369TIP3    H240667   3.208   4.965   0.214
 6370TIP3   OH240668   0.568   4.673   8.235
 6370TIP3    H140669   0.537   4.603   8.177
 6370TIP3    H240670   0.597   4.628   8.314
 6371TIP3   OH240671   4.108   6.436   8.575
 6371TIP3    H140672   4.138   6.346   8.584
 6371TIP3    H240673   4.182   6.481   8.533
 6372TIP3   OH240674   0.773   6.268   8.421
 6372TIP3    H140675   0.862   6.245   8.395
 6372TIP3    H240676   0.784   6.337   8.486
 6373TIP3   OH240677   3.181   5.813   7.074
 6373TIP3    H140678   3.183   5.810   7.170
 6373TIP3    H240679   3.218   5.898   7.052
 6374TIP3   OH240680   6.252   3.028   2.155
 6374TIP3    H140681   6.306   2.972   2.099
 6374TIP3    H240682   6.309   3.100   2.180
 6375TIP3   OH240683   0.837   3.473   8.521
 6375TIP3    H140684   0.877   3.392   8.491
 6375TIP3    H240685   0.910   3.527   8.552
 6376TIP3   OH240686   3.447   4.948   8.623
 6376TIP3    H140687   3.483   4.933   8.536
 6376TIP3    H240688   3.389   4.874   8.638
 6377TIP3   OH240689   5.626   6.800   0.254
 6377TIP3    H140690   5.540   6.822   0.291
 6377TIP3    H240691   5.615   6.712   0.219
 6378TIP3   OH240692   3.120   3.500   7.887
 6378TIP3    H140693   3.094   3.412   7.916
 6378TIP3    H240694   3.066   3.560   7.938
 6379TIP3   OH240695   5.578   5.965   0.984
 6379TIP3    H140696   5.506   5.922   1.030
 6379TIP3    H240697   5.558   6.058   0.990
 6380TIP3   OH240698   0.286   0.837   0.331
 6380TIP3    H140699   0.297   0.743   0.342
 6380TIP3    H240700   0.255   0.847   0.241
 6381TIP3   OH240701   4.517   6.228   0.506
 6381TIP3    H140702   4.463   6.151   0.526
 6381TIP3    H240703   4.511   6.237   0.411
 6382TIP3   OH240704   2.186   3.014   7.582
 6382TIP3    H140705   2.185   2.982   7.672
 6382TIP3    H240706   2.094   3.033   7.563
 6383TIP3   OH240707   5.894   1.223   8.348
 6383TIP3    H140708   5.924   1.273   8.424
 6383TIP3    H240709   5.886   1.288   8.278
 6384TIP3   OH240710   1.184   3.614   0.354
 6384TIP3    H140711   1.223   3.595   0.268
 6384TIP3    H240712   1.116   3.548   0.364
 6385TIP3   OH240713   2.769   4.196   1.915
 6385TIP3    H140714   2.814   4.139   1.852
 6385TIP3    H240715   2.725   4.262   1.861
 6386TIP3   OH240716   3.029   4.716   1.595
 6386TIP3    H140717   3.089   4.776   1.550
 6386TIP3    H240718   2.963   4.695   1.529
 6387TIP3   OH240719   4.281   0.638   1.888
 6387TIP3    H140720   4.244   0.565   1.839
 6387TIP3    H240721   4.360   0.662   1.840
 6388TIP3   OH240722   0.081   3.344   8.316
 6388TIP3    H140723   0.044   3.412   8.372
 6388TIP3    H240724   0.012   3.278   8.309
 6389TIP3   OH240725   2.920   5.515   0.357
 6389TIP3    H140726   2.886   5.435   0.396
 6389TIP3    H240727   2.917   5.580   0.427
 6390TIP3   OH240728   0.400   3.779   0.755
 6390TIP3    H140729   0.335   3.727   0.706
 6390TIP3    H240730   0.377   3.870   0.734
 6391TIP3   OH240731   0.776   3.916   1.298
 6391TIP3    H140732   0.703   3.870   1.257
 6391TIP3    H240733   0.747   4.006   1.306
 6392TIP3   OH240734   4.961   4.532   7.701
 6392TIP3    H140735   4.947   4.498   7.789
 6392TIP3    H240736   5.052   4.559   7.700
 6393TIP3   OH240737   1.300   3.330   7.093
 6393TIP3    H140738   1.290   3.236   7.083
 6393TIP3    H240739   1.250   3.368   7.020
 6394TIP3   OH240740   3.994   3.948   6.085
 6394TIP3    H140741   4.077   3.903   6.098
 6394TIP3    H240742   3.965   3.971   6.174
 6395TIP3   OH240743   4.892   3.486   7.256
 6395TIP3    H140744   4.847   3.554   7.306
 6395TIP3    H240745   4.821   3.435   7.217
 6396TIP3   OH240746   3.174   6.209   7.235
 6396TIP3    H140747   3.181   6.133   7.177
 6396TIP3    H240748   3.160   6.171   7.322
 6397TIP3   OH240749   0.158   5.622   7.385
 6397TIP3    H140750   0.151   5.611   7.291
 6397TIP3    H240751   0.139   5.535   7.421
 6398TIP3   OH240752   6.105   6.052   6.723
 6398TIP3    H140753   6.026   6.004   6.748
 6398TIP3    H240754   6.073   6.125   6.671
 6399TIP3   OH240755   0.717   3.170   1.114
 6399TIP3    H140756   0.746   3.226   1.187
 6399TIP3    H240757   0.694   3.087   1.156
 6400TIP3   OH240758   3.828   3.475   7.715
 6400TIP3    H140759   3.826   3.433   7.629
 6400TIP3    H240760   3.884   3.552   7.703
 6401TIP3   OH240761   5.105   4.519   0.175
 6401TIP3    H140762   5.132   4.504   0.085
 6401TIP3    H240763   5.143   4.445   0.224
 6402TIP3   OH240764   3.893   3.877   7.138
 6402TIP3    H140765   3.923   3.885   7.229
 6402TIP3    H240766   3.919   3.789   7.112
 6403TIP3   OH240767   3.014   6.821   0.160
 6403TIP3    H140768   2.967   0.036   0.113
 6403TIP3    H240769   3.103   6.854   0.169
 6404TIP3   OH240770   3.233   1.899   8.209
 6404TIP3    H140771   3.319   1.901   8.251
 6404TIP3    H240772   3.175   1.862   8.274
 6405TIP3   OH240773   3.985   4.654   7.277
 6405TIP3    H140774   3.927   4.728   7.295
 6405TIP3    H240775   4.074   4.690   7.288
 6406TIP3   OH240776   5.296   1.445   8.075
 6406TIP3    H140777   5.230   1.476   8.013
 6406TIP3    H240778   5.291   1.349   8.070
 6407TIP3   OH240779   2.500   5.174   7.668
 6407TIP3    H140780   2.489   5.102   7.730
 6407TIP3    H240781   2.576   5.222   7.701
 6408TIP3   OH240782   1.864   0.729   7.942
 6408TIP3    H140783   1.822   0.747   7.858
 6408TIP3    H240784   1.806   0.667   7.985
 6409TIP3   OH240785   6.496   0.335   6.986
 6409TIP3    H140786   6.518   0.355   7.077
 6409TIP3    H240787   6.579   0.344   6.939
 6410TIP3   OH240788   1.486   1.068   8.347
 6410TIP3    H140789   1.398   1.053   8.313
 6410TIP3    H240790   1.500   1.162   8.337
 6411TIP3   OH240791   6.380   4.806   7.781
 6411TIP3    H140792   6.404   4.895   7.753
 6411TIP3    H240793   6.347   4.818   7.870
 6412TIP3   OH240794   5.107   1.922   7.810
 6412TIP3    H140795   5.149   1.876   7.737
 6412TIP3    H240796   5.086   1.852   7.872
 6413TIP3   OH240797   6.815   4.520   8.476
 6413TIP3    H140798   6.742   4.463   8.498
 6413TIP3    H240799   6.849   4.550   8.560
 6414TIP3   OH240800   5.725   6.807   0.867
 6414TIP3    H140801   5.683   0.000   0.940
 6414TIP3    H240802   5.690   6.849   0.788
 6415TIP3   OH240803   0.322   5.771   8.612
 6415TIP3    H140804   0.368   5.854   8.626
 6415TIP3    H240805   0.371   5.707   8.664
 6416TIP3   OH240806   0.215   6.750   1.584
 6416TIP3    H140807   0.214   6.698   1.665
 6416TIP3    H240808   0.260   6.694   1.521
 6417TIP3   OH240809   4.887   4.294   0.824
 6417TIP3    H140810   4.833   4.365   0.860
 6417TIP3    H240811   4.825   4.240   0.775
 6418TIP3   OH240812   1.822   3.618   7.184
 6418TIP3    H140813   1.784   3.628   7.271
 6418TIP3    H240814   1.834   3.523   7.174
 6419TIP3   OH240815   3.403   6.089   2.137
 6419TIP3    H140816   3.469   6.060   2.074
 6419TIP3    H240817   3.452   6.144   2.198
 6420TIP3   OH240818   0.978   4.263   1.773
 6420TIP3    H140819   1.064   4.244   1.735
 6420TIP3    H240820   0.966   4.357   1.760
 6421TIP3   OH240821   5.722   1.889   1.092
 6421TIP3    H140822   5.801   1.918   1.046
 6421TIP3    H240823   5.740   1.799   1.117
 6422TIP3   OH240824   3.167   1.380   0.378
 6422TIP3    H140825   3.145   1.292   0.349
 6422TIP3    H240826   3.223   1.416   0.310
 6423TIP3   OH240827   5.156   2.574   0.732
 6423TIP3    H140828   5.250   2.595   0.728
 6423TIP3    H240829   5.123   2.627   0.805
 6424TIP3   OH240830   5.880   3.182   7.915
 6424TIP3    H140831   5.950   3.158   7.854
 6424TIP3    H240832   5.909   3.146   7.999
 6425TIP3   OH240833   5.562   2.269   7.483
 6425TIP3    H140834   5.591   2.216   7.409
 6425TIP3    H240835   5.532   2.206   7.548
 6426TIP3   OH240836   1.499   1.832   0.334
 6426TIP3    H140837   1.459   1.911   0.370
 6426TIP3    H240838   1.581   1.862   0.294
 6427TIP3   OH240839   5.524   2.763   7.827
 6427TIP3    H140840   5.594   2.824   7.850
 6427TIP3    H240841   5.449   2.818   7.808
 6428TIP3   OH240842   2.926   1.662   0.329
 6428TIP3    H140843   2.987   1.588   0.332
 6428TIP3    H240844   2.853   1.631   0.275
 6429TIP3   OH240845   0.685   3.473   0.201
 6429TIP3    H140846   0.600   3.436   0.179
 6429TIP3    H240847   0.745   3.398   0.197
 6430TIP3   OH240848   2.790   3.658   7.470
 6430TIP3    H140849   2.707   3.636   7.512
 6430TIP3    H240850   2.777   3.635   7.377
 6431TIP3   OH240851   5.205   3.582   0.641
 6431TIP3    H140852   5.267   3.597   0.713
 6431TIP3    H240853   5.261   3.567   0.565
 6432TIP3   OH240854   5.413   1.506   2.583
 6432TIP3    H140855   5.500   1.504   2.623
 6432TIP3    H240856   5.397   1.415   2.558
 6433TIP3   OH240857   2.985   6.149   7.030
 6433TIP3    H140858   3.072   6.121   7.002
 6433TIP3    H240859   2.930   6.137   6.952
 6434TIP3   OH240860   5.035   2.286   0.542
 6434TIP3    H140861   5.102   2.282   0.474
 6434TIP3    H240862   5.073   2.343   0.609
 6435TIP3   OH240863   1.138   1.079   0.869
 6435TIP3    H140864   1.191   1.152   0.903
 6435TIP3    H240865   1.060   1.079   0.924
 6436TIP3   OH240866   1.034   3.372   0.376
 6436TIP3    H140867   0.969   3.334   0.317
 6436TIP3    H240868   1.113   3.321   0.359
 6437TIP3   OH240869   5.763   6.355   7.121
 6437TIP3    H140870   5.753   6.264   7.092
 6437TIP3    H240871   5.676   6.393   7.111
 6438TIP3   OH240872   1.149   1.638   0.567
 6438TIP3    H140873   1.179   1.725   0.590
 6438TIP3    H240874   1.189   1.580   0.633
 6439TIP3   OH240875   5.294   0.741   7.313
 6439TIP3    H140876   5.223   0.804   7.326
 6439TIP3    H240877   5.258   0.658   7.345
 6440TIP3   OH240878   4.775   6.597   8.460
 6440TIP3    H140879   4.733   6.535   8.520
 6440TIP3    H240880   4.753   6.565   8.373
 6441TIP3   OH240881   0.121   0.508   7.486
 6441TIP3    H140882   0.157   0.475   7.404
 6441TIP3    H240883   0.094   0.430   7.534
 6442TIP3   OH240884   1.285   2.891   1.297
 6442TIP3    H140885   1.307   2.894   1.391
 6442TIP3    H240886   1.194   2.861   1.295
 6443TIP3   OH240887   4.464   2.867   8.245
 6443TIP3    H140888   4.518   2.904   8.315
 6443TIP3    H240889   4.374   2.884   8.272
 6444TIP3   OH240890   2.489   5.782   0.286
 6444TIP3    H140891   2.542   5.802   0.363
 6444TIP3    H240892   2.450   5.866   0.262
 6445TIP3   OH240893   2.857   6.646   7.107
 6445TIP3    H140894   2.898   6.677   7.188
 6445TIP3    H240895   2.789   6.586   7.135
 6446TIP3   OH240896   2.628   1.737   1.213
 6446TIP3    H140897   2.620   1.669   1.146
 6446TIP3    H240898   2.711   1.717   1.257
 6447TIP3   OH240899   3.595   5.342   1.013
 6447TIP3    H140900   3.628   5.259   1.048
 6447TIP3    H240901   3.652   5.361   0.939
 6448TIP3   OH240902   0.564   2.106   7.460
 6448TIP3    H140903   0.597   2.148   7.381
 6448TIP3    H240904   0.609   2.021   7.463
 6449TIP3   OH240905   6.161   4.669   7.172
 6449TIP3    H140906   6.109   4.632   7.101
 6449TIP3    H240907   6.123   4.756   7.187
 6450TIP3   OH240908   3.265   6.723   6.986
 6450TIP3    H140909   3.351   6.752   7.018
 6450TIP3    H240910   3.260   6.758   6.897
 6451TIP3   OH240911   4.118   4.921   0.503
 6451TIP3    H140912   4.085   4.938   0.414
 6451TIP3    H240913   4.212   4.939   0.497
 6452TIP3   OH240914   0.501   6.143   1.268
 6452TIP3    H140915   0.476   6.181   1.352
 6452TIP3    H240916   0.579   6.090   1.288
 6453TIP3   OH240917   0.382   3.839   1.020
 6453TIP3    H140918   0.358   3.928   0.993
 6453TIP3    H240919   0.429   3.804   0.944
 6454TIP3   OH240920   0.633   3.658   7.330
 6454TIP3    H140921   0.598   3.581   7.284
 6454TIP3    H240922   0.621   3.730   7.269
 6455TIP3   OH240923   4.990   6.113   7.484
 6455TIP3    H140924   5.027   6.088   7.399
 6455TIP3    H240925   5.043   6.189   7.511
 6456TIP3   OH240926   6.118   4.874   1.570
 6456TIP3    H140927   6.188   4.817   1.602
 6456TIP3    H240928   6.048   4.814   1.543
 6457TIP3   OH240929   4.276   5.058   8.299
 6457TIP3    H140930   4.332   5.053   8.222
 6457TIP3    H240931   4.266   4.968   8.328
 6458TIP3   OH240932   4.085   1.242   2.171
 6458TIP3    H140933   4.083   1.325   2.123
 6458TIP3    H240934   4.105   1.267   2.261
 6459TIP3   OH240935   2.963   5.199   6.476
 6459TIP3    H140936   3.016   5.120   6.480
 6459TIP3    H240937   2.873   5.167   6.473
 6460TIP3   OH240938   5.204   1.206   7.512
 6460TIP3    H140939   5.221   1.153   7.435
 6460TIP3    H240940   5.138   1.157   7.561
 6461TIP3   OH240941   0.430   2.530   8.456
 6461TIP3    H140942   0.487   2.453   8.465
 6461TIP3    H240943   0.346   2.502   8.492
 6462TIP3   OH240944   3.889   1.780   8.387
 6462TIP3    H140945   3.828   1.808   8.456
 6462TIP3    H240946   3.844   1.803   8.306
 6463TIP3   OH240947   2.956   3.811   7.005
 6463TIP3    H140948   2.980   3.865   7.081
 6463TIP3    H240949   3.025   3.829   6.941
 6464TIP3   OH240950   4.801   2.982   2.302
 6464TIP3    H140951   4.779   2.893   2.328
 6464TIP3    H240952   4.721   3.032   2.320
 6465TIP3   OH240953   3.444   6.604   1.492
 6465TIP3    H140954   3.459   6.618   1.399
 6465TIP3    H240955   3.482   6.518   1.511
 6466TIP3   OH240956   0.895   1.401   1.961
 6466TIP3    H140957   0.945   1.327   1.996
 6466TIP3    H240958   0.851   1.438   2.037
 6467TIP3   OH240959   0.142   3.632   0.844
 6467TIP3    H140960   0.199   3.589   0.781
 6467TIP3    H240961   0.200   3.686   0.898
 6468TIP3   OH240962   6.673   3.112   7.818
 6468TIP3    H140963   6.727   3.068   7.884
 6468TIP3    H240964   6.584   3.081   7.836
 6469TIP3   OH240965   3.080   0.266   8.539
 6469TIP3    H140966   3.085   0.186   8.486
 6469TIP3    H240967   3.019   0.243   8.609
 6470TIP3   OH240968   3.847   2.417   7.960
 6470TIP3    H140969   3.822   2.481   7.893
 6470TIP3    H240970   3.777   2.423   8.026
 6471TIP3   OH240971   1.562   2.638   8.587
 6471TIP3    H140972   1.475   2.671   8.608
 6471TIP3    H240973   1.622   2.701   8.628
 6472TIP3   OH240974   2.946   2.880   7.814
 6472TIP3    H140975   2.928   2.942   7.744
 6472TIP3    H240976   2.903   2.917   7.891
 6473TIP3   OH240977   1.521   0.164   6.114
 6473TIP3    H140978   1.489   0.254   6.115
 6473TIP3    H240979   1.595   0.165   6.175
 6474TIP3   OH240980   0.599   4.773   1.161
 6474TIP3    H140981   0.598   4.689   1.206
 6474TIP3    H240982   0.692   4.789   1.143
 6475TIP3   OH240983   1.607   4.927   0.615
 6475TIP3    H140984   1.653   4.937   0.532
 6475TIP3    H240985   1.589   4.833   0.622
 6476TIP3   OH240986   6.423   4.428   1.557
 6476TIP3    H140987   6.359   4.359   1.575
 6476TIP3    H240988   6.502   4.400   1.603
 6477TIP3   OH240989   5.676   5.950   7.339
 6477TIP3    H140990   5.668   6.008   7.414
 6477TIP3    H240991   5.676   5.862   7.377
 6478TIP3   OH240992   6.670   3.492   6.292
 6478TIP3    H140993   6.716   3.543   6.359
 6478TIP3    H240994   6.618   3.557   6.244
 6479TIP3   OH240995   5.267   1.180   1.055
 6479TIP3    H140996   5.282   1.235   1.132
 6479TIP3    H240997   5.322   1.219   0.987
 6480TIP3   OH240998   3.297   3.551   7.361
 6480TIP3    H140999   3.299   3.646   7.369
 6480TIP3    H241000   3.360   3.520   7.427
 6481TIP3   OH241001   6.728   5.492   7.747
 6481TIP3    H141002   6.661   5.506   7.814
 6481TIP3    H241003   6.688   5.432   7.684
 6482TIP3   OH241004   4.604   4.718   2.029
 6482TIP3    H141005   4.546   4.671   2.089
 6482TIP3    H241006   4.551   4.791   1.996
 6483TIP3   OH241007   3.324   0.612   6.360
 6483TIP3    H141008   3.248   0.558   6.381
 6483TIP3    H241009   3.288   0.682   6.305
 6484TIP3   OH241010   0.939   0.363   7.052
 6484TIP3    H141011   0.935   0.429   6.982
 6484TIP3    H241012   1.028   0.369   7.086
 6485TIP3   OH241013   0.330   3.264   0.724
 6485TIP3    H141014   0.240   3.235   0.732
 6485TIP3    H241015   0.355   3.291   0.812
 6486TIP3   OH241016   6.226   3.453   0.356
 6486TIP3    H141017   6.208   3.459   0.450
 6486TIP3    H241018   6.319   3.476   0.348
 6487TIP3   OH241019   1.528   3.461   0.690
 6487TIP3    H141020   1.523   3.459   0.594
 6487TIP3    H241021   1.518   3.370   0.716
 6488TIP3   OH241022   0.919   2.561   6.888
 6488TIP3    H141023   0.910   2.621   6.962
 6488TIP3    H241024   0.844   2.581   6.832
 6489TIP3   OH241025   1.268   4.397   1.533
 6489TIP3    H141026   1.243   4.401   1.625
 6489TIP3    H241027   1.322   4.318   1.525
 6490TIP3   OH241028   2.728   6.755   7.777
 6490TIP3    H141029   2.813   6.749   7.821
 6490TIP3    H241030   2.684   6.828   7.822
 6491TIP3   OH241031   5.507   1.054   1.694
 6491TIP3    H141032   5.527   1.063   1.601
 6491TIP3    H241033   5.543   1.133   1.734
 6492TIP3   OH241034   0.386   6.397   6.443
 6492TIP3    H141035   0.433   6.316   6.464
 6492TIP3    H241036   0.354   6.429   6.527
 6493TIP3   OH241037   2.598   1.139   0.533
 6493TIP3    H141038   2.568   1.090   0.609
 6493TIP3    H241039   2.666   1.085   0.494
 6494TIP3   OH241040   2.011   4.363   6.972
 6494TIP3    H141041   1.968   4.410   7.043
 6494TIP3    H241042   1.943   4.304   6.938
 6495TIP3   OH241043   4.290   4.339   7.079
 6495TIP3    H141044   4.214   4.283   7.067
 6495TIP3    H241045   4.356   4.303   7.020
 6496TIP3   OH241046   1.599   5.660   1.499
 6496TIP3    H141047   1.552   5.579   1.517
 6496TIP3    H241048   1.540   5.729   1.530
 6497TIP3   OH241049   2.118   0.987   6.587
 6497TIP3    H141050   2.159   0.903   6.604
 6497TIP3    H241051   2.151   1.045   6.656
 6498TIP3   OH241052   0.951   2.399   7.488
 6498TIP3    H141053   0.863   2.367   7.506
 6498TIP3    H241054   0.954   2.409   7.392
 6499TIP3   OH241055   4.518   6.841   0.548
 6499TIP3    H141056   4.439   6.848   0.495
 6499TIP3    H241057   4.589   6.840   0.483
 6500TIP3   OH241058   0.503   5.839   6.816
 6500TIP3    H141059   0.476   5.787   6.740
 6500TIP3    H241060   0.580   5.887   6.786
 6501TIP3   OH241061   6.306   6.793   0.663
 6501TIP3    H141062   6.306   6.782   0.568
 6501TIP3    H241063   6.214   6.791   0.688
 6502TIP3   OH241064   1.245   0.074   8.250
 6502TIP3    H141065   1.245   0.169   8.257
 6502TIP3    H241066   1.329   0.053   8.211
 6503TIP3   OH241067   4.871   4.504   8.520
 6503TIP3    H141068   4.787   4.550   8.513
 6503TIP3    H241069   4.848   4.418   8.555
 6504TIP3   OH241070   4.014   6.394   0.878
 6504TIP3    H141071   4.016   6.361   0.967
 6504TIP3    H241072   3.962   6.331   0.829
 6505TIP3   OH241073   3.995   3.472   8.059
 6505TIP3    H141074   4.034   3.437   7.979
 6505TIP3    H241075   3.901   3.470   8.042
 6506TIP3   OH241076   4.773   1.546   1.566
 6506TIP3    H141077   4.739   1.491   1.637
 6506TIP3    H241078   4.862   1.568   1.593
 6507TIP3   OH241079   6.450   1.834   7.860
 6507TIP3    H141080   6.415   1.887   7.789
 6507TIP3    H241081   6.544   1.851   7.860
 6508TIP3   OH241082   5.255   0.611   6.916
 6508TIP3    H141083   5.162   0.598   6.898
 6508TIP3    H241084   5.300   0.556   6.851
 6509TIP3   OH241085   4.778   6.756   1.080
 6509TIP3    H141086   4.836   6.738   1.006
 6509TIP3    H241087   4.774   6.852   1.084
 6510TIP3   OH241088   4.448   5.100   0.847
 6510TIP3    H141089   4.542   5.080   0.856
 6510TIP3    H241090   4.405   5.036   0.903
 6511TIP3   OH241091   6.119   1.125   7.147
 6511TIP3    H141092   6.157   1.048   7.104
 6511TIP3    H241093   6.081   1.092   7.228
 6512TIP3   OH241094   3.716   1.952   0.931
 6512TIP3    H141095   3.808   1.946   0.903
 6512TIP3    H241096   3.675   2.006   0.864
 6513TIP3   OH241097   2.270   1.934   0.222
 6513TIP3    H141098   2.354   1.979   0.211
 6513TIP3    H241099   2.269   1.909   0.315
 6514TIP3   OH241100   2.513   6.645   2.043
 6514TIP3    H141101   2.472   6.559   2.059
 6514TIP3    H241102   2.517   6.651   1.947
 6515TIP3   OH241103   0.361   1.828   1.465
 6515TIP3    H141104   0.340   1.748   1.417
 6515TIP3    H241105   0.434   1.803   1.522
 6516TIP3   OH241106   6.563   3.312   0.433
 6516TIP3    H141107   6.540   3.372   0.504
 6516TIP3    H241108   6.646   3.274   0.461
 6517TIP3   OH241109   5.651   4.849   2.476
 6517TIP3    H141110   5.708   4.903   2.423
 6517TIP3    H241111   5.563   4.883   2.460
 6518TIP3   OH241112   0.765   5.940   8.578
 6518TIP3    H141113   0.838   5.997   8.554
 6518TIP3    H241114   0.805   5.853   8.586
 6519TIP3   OH241115   6.025   3.547   0.152
 6519TIP3    H141116   6.089   3.475   0.151
 6519TIP3    H241117   6.062   3.612   0.092
 6520TIP3   OH241118   6.097   0.805   2.272
 6520TIP3    H141119   6.008   0.788   2.305
 6520TIP3    H241120   6.135   0.864   2.336
 6521TIP3   OH241121   1.401   5.741   7.176
 6521TIP3    H141122   1.481   5.774   7.215
 6521TIP3    H241123   1.411   5.759   7.082
 6522TIP3   OH241124   4.858   5.133   7.327
 6522TIP3    H141125   4.779   5.115   7.377
 6522TIP3    H241126   4.832   5.120   7.236
 6523TIP3   OH241127   3.042   2.331   8.664
 6523TIP3    H141128   3.093   2.405   8.698
 6523TIP3    H241129   2.990   2.368   8.592
 6524TIP3   OH241130   6.820   0.561   6.633
 6524TIP3    H141131   6.768   0.606   6.567
 6524TIP3    H241132   0.054   0.558   6.596
 6525TIP3   OH241133   6.284   4.825   8.035
 6525TIP3    H141134   6.196   4.814   8.072
 6525TIP3    H241135   6.329   4.743   8.056
 6526TIP3   OH241136   0.193   0.018   7.691
 6526TIP3    H141137   0.153   0.098   7.726
 6526TIP3    H241138   0.143   6.802   7.732
 6527TIP3   OH241139   1.570   4.085   0.113
 6527TIP3    H141140   1.502   4.124   0.167
 6527TIP3    H241141   1.630   4.043   0.175
 6528TIP3   OH241142   3.608   4.458   0.533
 6528TIP3    H141143   3.602   4.541   0.581
 6528TIP3    H241144   3.606   4.391   0.601
 6529TIP3   OH241145   6.544   6.732   7.095
 6529TIP3    H141146   6.470   6.717   7.035
 6529TIP3    H241147   6.586   6.810   7.061
 6530TIP3   OH241148   6.367   4.531   6.478
 6530TIP3    H141149   6.410   4.613   6.502
 6530TIP3    H241150   6.401   4.467   6.540
 6531TIP3   OH241151   2.616   1.181   7.694
 6531TIP3    H141152   2.621   1.244   7.765
 6531TIP3    H241153   2.557   1.222   7.630
 6532TIP3   OH241154   3.315   3.677   6.821
 6532TIP3    H141155   3.305   3.655   6.913
 6532TIP3    H241156   3.233   3.718   6.796
 6533TIP3   OH241157   0.123   1.819   1.314
 6533TIP3    H141158   0.172   1.825   1.232
 6533TIP3    H241159   0.186   1.846   1.381
 6534TIP3   OH241160   6.603   2.586   1.113
 6534TIP3    H141161   6.541   2.549   1.050
 6534TIP3    H241162   6.570   2.558   1.199
 6535TIP3   OH241163   2.467   5.775   7.862
 6535TIP3    H141164   2.428   5.856   7.829
 6535TIP3    H241165   2.461   5.714   7.789
 6536TIP3   OH241166   6.183   2.978   7.283
 6536TIP3    H141167   6.212   2.945   7.198
 6536TIP3    H241168   6.204   3.071   7.280
 6537TIP3   OH241169   4.571   3.903   8.403
 6537TIP3    H141170   4.641   3.919   8.340
 6537TIP3    H241171   4.542   3.813   8.384
 6538TIP3   OH241172   2.503   4.514   8.132
 6538TIP3    H141173   2.465   4.511   8.220
 6538TIP3    H241174   2.542   4.602   8.126
 6539TIP3   OH241175   1.995   0.948   7.874
 6539TIP3    H141176   1.948   0.871   7.906
 6539TIP3    H241177   1.984   1.013   7.943
 6540TIP3   OH241178   3.322   4.986   8.046
 6540TIP3    H141179   3.367   4.913   8.004
 6540TIP3    H241180   3.391   5.050   8.062
 6541TIP3   OH241181   1.125   6.419   0.974
 6541TIP3    H141182   1.102   6.377   0.891
 6541TIP3    H241183   1.070   6.497   0.978
 6542TIP3   OH241184   3.035   1.095   0.063
 6542TIP3    H141185   3.112   1.070   0.114
 6542TIP3    H241186   2.965   1.101   0.128
 6543TIP3   OH241187   3.412   1.855   1.396
 6543TIP3    H141188   3.338   1.844   1.336
 6543TIP3    H241189   3.439   1.946   1.384
 6544TIP3   OH241190   0.149   3.712   1.134
 6544TIP3    H141191   0.228   3.752   1.098
 6544TIP3    H241192   0.181   3.652   1.201
 6545TIP3   OH241193   4.058   4.073   2.258
 6545TIP3    H141194   3.972   4.053   2.295
 6545TIP3    H241195   4.046   4.156   2.213
 6546TIP3   OH241196   0.989   5.079   8.536
 6546TIP3    H141197   0.964   4.989   8.519
 6546TIP3    H241198   0.917   5.131   8.500
 6547TIP3   OH241199   0.968   2.645   2.247
 6547TIP3    H141200   0.878   2.623   2.274
 6547TIP3    H241201   1.020   2.632   2.326
 6548TIP3   OH241202   6.102   2.254   2.050
 6548TIP3    H141203   6.016   2.246   2.010
 6548TIP3    H241204   6.089   2.232   2.142
 6549TIP3   OH241205   0.969   5.913   0.632
 6549TIP3    H141206   0.989   5.991   0.581
 6549TIP3    H241207   0.882   5.885   0.601
 6550TIP3   OH241208   3.574   3.108   2.431
 6550TIP3    H141209   3.578   3.022   2.472
 6550TIP3    H241210   3.499   3.151   2.472
 6551TIP3   OH241211   6.261   6.001   1.159
 6551TIP3    H141212   6.335   6.059   1.143
 6551TIP3    H241213   6.300   5.915   1.173
 6552TIP3   OH241214   1.196   5.956   7.190
 6552TIP3    H141215   1.204   5.915   7.104
 6552TIP3    H241216   1.105   5.986   7.194
 6553TIP3   OH241217   6.158   3.670   1.701
 6553TIP3    H141218   6.165   3.647   1.608
 6553TIP3    H241219   6.165   3.766   1.702
 6554TIP3   OH241220   4.113   1.546   6.991
 6554TIP3    H141221   4.145   1.485   6.925
 6554TIP3    H241222   4.191   1.568   7.043
 6555TIP3   OH241223   1.232   4.392   1.797
 6555TIP3    H141224   1.159   4.435   1.843
 6555TIP3    H241225   1.310   4.437   1.831
 6556TIP3   OH241226   1.485   6.753   6.375
 6556TIP3    H141227   1.444   6.780   6.292
 6556TIP3    H241228   1.506   6.660   6.361
 6557TIP3   OH241229   4.760   0.712   8.157
 6557TIP3    H141230   4.810   0.647   8.207
 6557TIP3    H241231   4.822   0.785   8.146
 6558TIP3   OH241232   4.601   5.804   6.876
 6558TIP3    H141233   4.641   5.890   6.890
 6558TIP3    H241234   4.673   5.749   6.845
 6559TIP3   OH241235   4.987   6.733   0.572
 6559TIP3    H141236   4.975   6.647   0.611
 6559TIP3    H241237   4.907   6.781   0.592
 6560TIP3   OH241238   3.956   5.311   1.677
 6560TIP3    H141239   4.049   5.322   1.656
 6560TIP3    H241240   3.955   5.246   1.748
 6561TIP3   OH241241   5.785   1.923   0.485
 6561TIP3    H141242   5.804   1.843   0.437
 6561TIP3    H241243   5.767   1.893   0.575
 6562TIP3   OH241244   6.638   3.204   2.588
 6562TIP3    H141245   6.552   3.220   2.548
 6562TIP3    H241246   6.677   3.136   2.533
 6563TIP3   OH241247   1.842   6.601   7.816
 6563TIP3    H141248   1.821   6.625   7.906
 6563TIP3    H241249   1.902   6.527   7.824
 6564TIP3   OH241250   6.659   3.450   7.086
 6564TIP3    H141251   6.660   3.380   7.153
 6564TIP3    H241252   6.579   3.498   7.104
 6565TIP3   OH241253   4.520   4.749   6.734
 6565TIP3    H141254   4.553   4.659   6.736
 6565TIP3    H241255   4.485   4.763   6.822
 6566TIP3   OH241256   0.466   0.198   7.198
 6566TIP3    H141257   0.481   0.276   7.144
 6566TIP3    H241258   0.551   0.180   7.237
 6567TIP3   OH241259   1.387   0.271   6.949
 6567TIP3    H141260   1.481   0.281   6.935
 6567TIP3    H241261   1.362   0.199   6.891
 6568TIP3   OH241262   5.234   0.563   2.089
 6568TIP3    H141263   5.176   0.514   2.031
 6568TIP3    H241264   5.237   0.511   2.170
 6569TIP3   OH241265   0.452   4.301   7.929
 6569TIP3    H141266   0.430   4.222   7.978
 6569TIP3    H241267   0.470   4.271   7.840
 6570TIP3   OH241268   1.685   3.506   6.620
 6570TIP3    H141269   1.669   3.420   6.659
 6570TIP3    H241270   1.746   3.489   6.549
 6571TIP3   OH241271   4.323   1.583   7.223
 6571TIP3    H141272   4.416   1.603   7.230
 6571TIP3    H241273   4.281   1.650   7.277
 6572TIP3   OH241274   1.061   0.682   1.616
 6572TIP3    H141275   1.133   0.726   1.662
 6572TIP3    H241276   1.001   0.753   1.593
 6573TIP3   OH241277   4.833   2.326   0.282
 6573TIP3    H141278   4.829   2.314   0.187
 6573TIP3    H241279   4.824   2.238   0.318
 6574TIP3   OH241280   4.423   2.926   0.603
 6574TIP3    H141281   4.424   2.972   0.687
 6574TIP3    H241282   4.431   2.833   0.627
 6575TIP3   OH241283   5.489   1.625   0.307
 6575TIP3    H141284   5.585   1.623   0.312
 6575TIP3    H241285   5.468   1.719   0.301
 6576TIP3   OH241286   2.769   3.806   1.139
 6576TIP3    H141287   2.776   3.723   1.092
 6576TIP3    H241288   2.676   3.828   1.136
 6577TIP3   OH241289   3.656   3.135   8.177
 6577TIP3    H141290   3.632   3.140   8.084
 6577TIP3    H241291   3.689   3.046   8.189
 6578TIP3   OH241292   0.230   0.578   8.067
 6578TIP3    H141293   0.188   0.533   8.140
 6578TIP3    H241294   0.321   0.548   8.070
 6579TIP3   OH241295   2.992   6.255   0.914
 6579TIP3    H141296   2.988   6.271   0.820
 6579TIP3    H241297   2.960   6.166   0.925
 6580TIP3   OH241298   2.942   2.097   7.303
 6580TIP3    H141299   2.894   2.117   7.222
 6580TIP3    H241300   2.896   2.146   7.371
 6581TIP3   OH241301   5.938   0.959   6.913
 6581TIP3    H141302   5.853   0.916   6.907
 6581TIP3    H241303   5.992   0.900   6.965
 6582TIP3   OH241304   3.559   3.358   6.484
 6582TIP3    H141305   3.521   3.275   6.513
 6582TIP3    H241306   3.614   3.386   6.557
 6583TIP3   OH241307   6.755   2.827   0.812
 6583TIP3    H141308   6.799   2.749   0.847
 6583TIP3    H241309   6.825   2.892   0.804
 6584TIP3   OH241310   2.425   0.690   0.742
 6584TIP3    H141311   2.393   0.722   0.658
 6584TIP3    H241312   2.370   0.733   0.807
 6585TIP3   OH241313   5.333   3.254   8.279
 6585TIP3    H141314   5.322   3.348   8.265
 6585TIP3    H241315   5.339   3.217   8.191
 6586TIP3   OH241316   3.435   2.003   7.218
 6586TIP3    H141317   3.476   2.057   7.151
 6586TIP3    H241318   3.347   1.985   7.185
 6587TIP3   OH241319   5.721   6.506   0.219
 6587TIP3    H141320   5.796   6.537   0.270
 6587TIP3    H241321   5.738   6.413   0.206
 6588TIP3   OH241322   5.937   0.675   0.816
 6588TIP3    H141323   5.891   0.654   0.735
 6588TIP3    H241324   5.926   0.769   0.827
 6589TIP3   OH241325   0.408   4.666   1.612
 6589TIP3    H141326   0.433   4.597   1.673
 6589TIP3    H241327   0.370   4.618   1.537
 6590TIP3   OH241328   4.555   0.261   6.720
 6590TIP3    H141329   4.628   0.315   6.750
 6590TIP3    H241330   4.583   0.229   6.633
 6591TIP3   OH241331   1.630   2.575   8.339
 6591TIP3    H141332   1.559   2.617   8.290
 6591TIP3    H241333   1.636   2.626   8.420
 6592TIP3   OH241334   5.526   0.101   1.736
 6592TIP3    H141335   5.467   0.043   1.785
 6592TIP3    H241336   5.500   0.189   1.762
 6593TIP3   OH241337   0.147   5.056   2.480
 6593TIP3    H141338   0.090   4.979   2.481
 6593TIP3    H241339   0.108   5.114   2.416
 6594TIP3   OH241340   3.705   3.737   1.334
 6594TIP3    H141341   3.787   3.758   1.378
 6594TIP3    H241342   3.682   3.650   1.367
 6595TIP3   OH241343   2.433   0.087   7.181
 6595TIP3    H141344   2.426   6.853   7.143
 6595TIP3    H241345   2.355   0.132   7.151
 6596TIP3   OH241346   1.307   1.837   7.669
 6596TIP3    H141347   1.329   1.879   7.585
 6596TIP3    H241348   1.267   1.753   7.644
 6597TIP3   OH241349   0.905   5.677   8.715
 6597TIP3    H141350   0.956   5.599   0.009
 6597TIP3    H241351   0.881   5.712   0.075
 6598TIP3   OH241352   6.811   4.430   7.787
 6598TIP3    H141353   6.769   4.421   7.702
 6598TIP3    H241354   6.756   4.380   7.847
 6599TIP3   OH241355   1.128   5.663   0.612
 6599TIP3    H141356   1.221   5.679   0.598
 6599TIP3    H241357   1.088   5.750   0.605
 6600TIP3   OH241358   1.410   3.569   1.180
 6600TIP3    H141359   1.468   3.498   1.206
 6600TIP3    H241360   1.388   3.550   1.089
 6601TIP3   OH241361   4.389   4.355   0.584
 6601TIP3    H141362   4.368   4.442   0.618
 6601TIP3    H241363   4.483   4.357   0.566
 6602TIP3   OH241364   1.609   6.202   8.312
 6602TIP3    H141365   1.693   6.160   8.293
 6602TIP3    H241366   1.561   6.198   8.229
 6603TIP3   OH241367   0.378   0.102   1.207
 6603TIP3    H141368   0.307   0.166   1.204
 6603TIP3    H241369   0.399   0.086   1.115
 6604TIP3   OH241370   5.578   0.045   1.084
 6604TIP3    H141371   5.653   0.085   1.128
 6604TIP3    H241372   5.502   0.087   1.124
 6605TIP3   OH241373   3.354   0.026   0.233
 6605TIP3    H141374   3.413   0.025   0.308
 6605TIP3    H241375   3.410   0.048   0.158
 6606TIP3   OH241376   0.106   1.202   0.544
 6606TIP3    H141377   0.197   1.211   0.572
 6606TIP3    H241378   0.071   1.291   0.545
 6607TIP3   OH241379   0.398   1.589   0.791
 6607TIP3    H141380   0.308   1.619   0.778
 6607TIP3    H241381   0.451   1.669   0.789
 6608TIP3   OH241382   2.196   0.331   1.260
 6608TIP3    H141383   2.113   0.327   1.309
 6608TIP3    H241384   2.206   0.243   1.224
 6609TIP3   OH241385   2.913   0.281   7.062
 6609TIP3    H141386   2.888   0.331   6.984
 6609TIP3    H241387   2.842   0.217   7.072
 6610TIP3   OH241388   0.685   3.191   8.423
 6610TIP3    H141389   0.631   3.223   8.494
 6610TIP3    H241390   0.661   3.245   8.347
 6611TIP3   OH241391   1.498   4.862   7.449
 6611TIP3    H141392   1.438   4.788   7.444
 6611TIP3    H241393   1.480   4.913   7.370
 6612TIP3   OH241394   6.688   1.879   6.353
 6612TIP3    H141395   6.767   1.892   6.404
 6612TIP3    H241396   6.689   1.949   6.287
 6613TIP3   OH241397   5.368   1.252   2.472
 6613TIP3    H141398   5.277   1.279   2.482
 6613TIP3    H241399   5.383   1.192   2.545
 6614TIP3   OH241400   2.703   5.703   7.572
 6614TIP3    H141401   2.788   5.705   7.527
 6614TIP3    H241402   2.680   5.610   7.577
 6615TIP3   OH241403   1.358   5.300   2.616
 6615TIP3    H141404   1.391   5.283   2.528
 6615TIP3    H241405   1.377   5.393   2.632
 6616TIP3   OH241406   3.353   4.681   7.338
 6616TIP3    H141407   3.279   4.667   7.279
 6616TIP3    H241408   3.392   4.763   7.308
 6617TIP3   OH241409   6.090   2.272   0.740
 6617TIP3    H141410   6.011   2.288   0.792
 6617TIP3    H241411   6.060   2.221   0.665
 6618TIP3   OH241412   2.550   4.520   8.426
 6618TIP3    H141413   2.637   4.517   8.465
 6618TIP3    H241414   2.516   4.431   8.435
 6619TIP3   OH241415   3.794   1.549   1.537
 6619TIP3    H141416   3.880   1.587   1.522
 6619TIP3    H241417   3.807   1.489   1.611
 6620TIP3   OH241418   5.696   3.926   8.000
 6620TIP3    H141419   5.671   3.955   8.088
 6620TIP3    H241420   5.628   3.963   7.943
 6621TIP3   OH241421   5.547   6.404   6.975
 6621TIP3    H141422   5.568   6.340   6.906
 6621TIP3    H241423   5.484   6.463   6.934
 6622TIP3   OH241424   6.004   0.611   0.292
 6622TIP3    H141425   5.932   0.567   0.246
 6622TIP3    H241426   5.997   0.703   0.264
 6623TIP3   OH241427   5.322   5.868   8.685
 6623TIP3    H141428   5.316   5.958   8.717
 6623TIP3    H241429   5.319   5.876   8.590
 6624TIP3   OH241430   3.125   1.305   8.005
 6624TIP3    H141431   3.065   1.240   7.969
 6624TIP3    H241432   3.134   1.281   8.097
 6625TIP3   OH241433   2.711   2.748   0.950
 6625TIP3    H141434   2.664   2.789   1.023
 6625TIP3    H241435   2.764   2.818   0.913
 6626TIP3   OH241436   4.588   2.100   7.469
 6626TIP3    H141437   4.616   2.185   7.436
 6626TIP3    H241438   4.565   2.115   7.561
 6627TIP3   OH241439   2.476   4.914   1.427
 6627TIP3    H141440   2.390   4.951   1.445
 6627TIP3    H241441   2.503   4.954   1.344
 6628TIP3   OH241442   3.810   3.917   0.235
 6628TIP3    H141443   3.857   3.840   0.203
 6628TIP3    H241444   3.816   3.911   0.330
 6629TIP3   OH241445   2.317   2.926   7.884
 6629TIP3    H141446   2.412   2.934   7.872
 6629TIP3    H241447   2.306   2.846   7.935
 6630TIP3   OH241448   1.297   6.638   8.531
 6630TIP3    H141449   1.234   6.707   8.549
 6630TIP3    H241450   1.334   6.660   8.446
 6631TIP3   OH241451   3.794   2.952   1.275
 6631TIP3    H141452   3.768   3.010   1.346
 6631TIP3    H241453   3.889   2.949   1.280
 6632TIP3   OH241454   4.289   1.398   8.671
 6632TIP3    H141455   4.374   1.355   8.666
 6632TIP3    H241456   4.304   1.477   8.723
 6633TIP3   OH241457   0.862   2.865   0.081
 6633TIP3    H141458   0.863   2.778   0.120
 6633TIP3    H241459   0.937   2.910   0.120
 6634TIP3   OH241460   5.738   0.625   8.262
 6634TIP3    H141461   5.704   0.649   8.348
 6634TIP3    H241462   5.665   0.582   8.218
 6635TIP3   OH241463   1.402   2.290   7.940
 6635TIP3    H141464   1.402   2.201   7.905
 6635TIP3    H241465   1.489   2.300   7.980
 6636TIP3   OH241466   5.389   0.347   1.762
 6636TIP3    H141467   5.345   0.310   1.838
 6636TIP3    H241468   5.328   0.333   1.690
 6637TIP3   OH241469   2.997   3.667   1.916
 6637TIP3    H141470   2.946   3.602   1.965
 6637TIP3    H241471   3.087   3.635   1.920
 6638TIP3   OH241472   4.157   5.455   0.269
 6638TIP3    H141473   4.070   5.462   0.229
 6638TIP3    H241474   4.163   5.362   0.294
 6639TIP3   OH241475   2.898   4.442   0.662
 6639TIP3    H141476   2.984   4.432   0.621
 6639TIP3    H241477   2.873   4.353   0.686
 6640TIP3   OH241478   6.540   5.146   0.449
 6640TIP3    H141479   6.473   5.126   0.515
 6640TIP3    H241480   6.622   5.145   0.497
 6641TIP3   OH241481   3.476   2.881   7.785
 6641TIP3    H141482   3.478   2.797   7.739
 6641TIP3    H241483   3.536   2.870   7.858
 6642TIP3   OH241484   6.269   5.374   8.295
 6642TIP3    H141485   6.333   5.342   8.231
 6642TIP3    H241486   6.186   5.376   8.248
 6643TIP3   OH241487   5.035   2.415   7.891
 6643TIP3    H141488   5.042   2.330   7.934
 6643TIP3    H241489   5.062   2.399   7.800
 6644TIP3   OH241490   1.173   3.981   7.681
 6644TIP3    H141491   1.109   4.052   7.670
 6644TIP3    H241492   1.190   3.951   7.591
 6645TIP3   OH241493   5.713   3.700   0.496
 6645TIP3    H141494   5.808   3.685   0.486
 6645TIP3    H241495   5.673   3.645   0.428
 6646TIP3   OH241496   4.185   6.170   0.242
 6646TIP3    H141497   4.191   6.149   0.148
 6646TIP3    H241498   4.221   6.093   0.286
 6647TIP3   OH241499   6.131   0.217   1.869
 6647TIP3    H141500   6.139   0.293   1.812
 6647TIP3    H241501   6.072   0.246   1.939
 6648TIP3   OH241502   2.179   1.590   1.215
 6648TIP3    H141503   2.230   1.514   1.242
 6648TIP3    H241504   2.199   1.657   1.280
 6649TIP3   OH241505   2.878   6.727   7.380
 6649TIP3    H141506   2.783   6.740   7.383
 6649TIP3    H241507   2.894   6.651   7.437
 6650TIP3   OH241508   5.298   4.632   1.283
 6650TIP3    H141509   5.289   4.721   1.249
 6650TIP3    H241510   5.299   4.576   1.205
 6651TIP3   OH241511   3.253   1.174   0.807
 6651TIP3    H141512   3.180   1.220   0.768
 6651TIP3    H241513   3.295   1.239   0.864
 6652TIP3   OH241514   0.938   0.465   2.376
 6652TIP3    H141515   1.023   0.463   2.418
 6652TIP3    H241516   0.943   0.398   2.308
 6653TIP3   OH241517   6.114   3.996   7.817
 6653TIP3    H141518   6.097   3.905   7.792
 6653TIP3    H241519   6.032   4.042   7.799
 6654TIP3   OH241520   3.798   5.996   0.800
 6654TIP3    H141521   3.741   6.047   0.858
 6654TIP3    H241522   3.873   6.053   0.784
 6655TIP3   OH241523   0.200   0.179   7.949
 6655TIP3    H141524   0.274   0.149   8.003
 6655TIP3    H241525   0.237   0.249   7.896
 6656TIP3   OH241526   1.900   3.126   1.192
 6656TIP3    H141527   1.947   3.192   1.244
 6656TIP3    H241528   1.812   3.124   1.231
 6657TIP3   OH241529   2.822   4.222   0.830
 6657TIP3    H141530   2.804   4.145   0.777
 6657TIP3    H241531   2.772   4.208   0.911
 6658TIP3   OH241532   6.301   1.703   8.700
 6658TIP3    H141533   6.317   1.785   8.654
 6658TIP3    H241534   6.299   1.728   0.067
 6659TIP3   OH241535   6.223   1.605   1.884
 6659TIP3    H141536   6.256   1.588   1.796
 6659TIP3    H241537   6.174   1.526   1.908
 6660TIP3   OH241538   6.171   1.477   8.328
 6660TIP3    H141539   6.211   1.561   8.348
 6660TIP3    H241540   6.077   1.490   8.344
 6661TIP3   OH241541   0.682   5.373   0.641
 6661TIP3    H141542   0.726   5.375   0.556
 6661TIP3    H241543   0.744   5.415   0.701
 6662TIP3   OH241544   0.638   0.117   6.969
 6662TIP3    H141545   0.649   0.194   6.914
 6662TIP3    H241546   0.552   0.127   7.009
 6663TIP3   OH241547   1.441   0.796   7.544
 6663TIP3    H141548   1.379   0.732   7.578
 6663TIP3    H241549   1.443   0.865   7.611
 6664TIP3   OH241550   3.268   4.198   0.765
 6664TIP3    H141551   3.361   4.216   0.783
 6664TIP3    H241552   3.231   4.179   0.851
 6665TIP3   OH241553   3.434   0.260   7.195
 6665TIP3    H141554   3.488   0.339   7.197
 6665TIP3    H241555   3.346   0.292   7.173
 6666TIP3   OH241556   0.350   3.597   7.058
 6666TIP3    H141557   0.287   3.558   6.997
 6666TIP3    H241558   0.398   3.522   7.093
 6667TIP3   OH241559   5.689   3.174   1.545
 6667TIP3    H141560   5.691   3.247   1.482
 6667TIP3    H241561   5.772   3.130   1.533
 6668TIP3   OH241562   4.196   0.602   1.500
 6668TIP3    H141563   4.194   0.506   1.503
 6668TIP3    H241564   4.103   0.627   1.499
 6669TIP3   OH241565   6.735   4.820   8.675
 6669TIP3    H141566   6.763   4.819   0.041
 6669TIP3    H241567   6.766   4.737   8.640
 6670TIP3   OH241568   6.372   4.664   0.280
 6670TIP3    H141569   6.370   4.664   0.376
 6670TIP3    H241570   6.358   4.755   0.255
 6671TIP3   OH241571   1.208   3.857   0.801
 6671TIP3    H141572   1.166   3.932   0.842
 6671TIP3    H241573   1.139   3.791   0.794
 6672TIP3   OH241574   3.632   4.249   8.526
 6672TIP3    H141575   3.604   4.340   8.513
 6672TIP3    H241576   3.551   4.198   8.519
 6673TIP3   OH241577   1.917   4.558   7.632
 6673TIP3    H141578   1.963   4.621   7.687
 6673TIP3    H241579   1.891   4.488   7.691
 6674TIP3   OH241580   6.361   0.772   0.407
 6674TIP3    H141581   6.394   0.685   0.385
 6674TIP3    H241582   6.352   0.770   0.503
 6675TIP3   OH241583   0.289   4.094   8.459
 6675TIP3    H141584   0.321   4.013   8.420
 6675TIP3    H241585   0.358   4.158   8.440
 6676TIP3   OH241586   1.171   5.244   6.966
 6676TIP3    H141587   1.126   5.187   7.028
 6676TIP3    H241588   1.264   5.233   6.985
 6677TIP3   OH241589   3.823   5.335   8.386
 6677TIP3    H141590   3.800   5.340   8.293
 6677TIP3    H241591   3.917   5.318   8.387
 6678TIP3   OH241592   3.523   2.637   8.635
 6678TIP3    H141593   3.515   2.704   8.703
 6678TIP3    H241594   3.614   2.646   8.604
 6679TIP3   OH241595   5.206   5.788   1.988
 6679TIP3    H141596   5.297   5.760   1.979
 6679TIP3    H241597   5.198   5.811   2.081
 6680TIP3   OH241598   3.103   1.856   8.538
 6680TIP3    H141599   3.058   1.939   8.523
 6680TIP3    H241600   3.055   1.793   8.483
 6681TIP3   OH241601   0.471   4.546   7.464
 6681TIP3    H141602   0.443   4.497   7.387
 6681TIP3    H241603   0.468   4.638   7.435
 6682TIP3   OH241604   0.779   3.103   8.682
 6682TIP3    H141605   0.834   3.024   8.682
 6682TIP3    H241606   0.782   3.134   8.592
 6683TIP3   OH241607   6.587   3.045   7.476
 6683TIP3    H141608   6.647   3.031   7.403
 6683TIP3    H241609   6.626   3.116   7.526
 6684TIP3   OH241610   2.907   3.595   8.009
 6684TIP3    H141611   2.837   3.559   8.064
 6684TIP3    H241612   2.865   3.612   7.925
 6685TIP3   OH241613   4.861   6.781   7.197
 6685TIP3    H141614   4.952   6.800   7.219
 6685TIP3    H241615   4.831   0.005   7.150
 6686TIP3   OH241616   5.817   2.120   1.179
 6686TIP3    H141617   5.804   2.167   1.261
 6686TIP3    H241618   5.770   2.037   1.191
 6687TIP3   OH241619   3.182   3.063   0.133
 6687TIP3    H141620   3.220   2.984   0.173
 6687TIP3    H241621   3.137   3.031   0.055
 6688TIP3   OH241622   4.958   3.173   0.234
 6688TIP3    H141623   4.995   3.188   0.148
 6688TIP3    H241624   5.008   3.100   0.270
 6689TIP3   OH241625   4.381   0.316   1.040
 6689TIP3    H141626   4.347   0.343   0.955
 6689TIP3    H241627   4.360   0.222   1.045
 6690TIP3   OH241628   3.587   0.722   7.757
 6690TIP3    H141629   3.605   0.684   7.843
 6690TIP3    H241630   3.493   0.711   7.745
 6691TIP3   OH241631   0.574   1.472   1.640
 6691TIP3    H141632   0.606   1.393   1.597
 6691TIP3    H241633   0.588   1.456   1.734
 6692TIP3   OH241634   3.686   6.692   0.715
 6692TIP3    H141635   3.729   6.640   0.783
 6692TIP3    H241636   3.678   6.631   0.641
 6693TIP3   OH241637   5.342   5.103   6.887
 6693TIP3    H141638   5.384   5.154   6.956
 6693TIP3    H241639   5.412   5.048   6.851
 6694TIP3   OH241640   1.775   2.096   6.915
 6694TIP3    H141641   1.813   2.014   6.948
 6694TIP3    H241642   1.851   2.146   6.885
 6695TIP3   OH241643   5.678   6.233   0.139
 6695TIP3    H141644   5.679   6.138   0.128
 6695TIP3    H241645   5.605   6.250   0.199
 6696TIP3   OH241646   2.626   2.191   0.678
 6696TIP3    H141647   2.571   2.137   0.734
 6696TIP3    H241648   2.564   2.242   0.626
 6697TIP3   OH241649   5.492   2.503   0.063
 6697TIP3    H141650   5.467   2.410   0.056
 6697TIP3    H241651   5.470   2.540   8.704
 6698TIP3   OH241652   4.262   6.189   8.258
 6698TIP3    H141653   4.302   6.119   8.309
 6698TIP3    H241654   4.185   6.215   8.310
 6699TIP3   OH241655   1.266   6.271   2.290
 6699TIP3    H141656   1.334   6.313   2.237
 6699TIP3    H241657   1.238   6.339   2.351
 6700TIP3   OH241658   4.606   4.696   7.973
 6700TIP3    H141659   4.587   4.790   7.981
 6700TIP3    H241660   4.588   4.661   8.060
 6701TIP3   OH241661   0.055   6.288   2.371
 6701TIP3    H141662   0.100   6.359   2.326
 6701TIP3    H241663   0.029   6.326   2.455
 6702TIP3   OH241664   3.006   6.561   0.240
 6702TIP3    H141665   3.073   6.506   0.200
 6702TIP3    H241666   3.026   6.650   0.209
 6703TIP3   OH241667   3.702   1.802   1.396
 6703TIP3    H141668   3.617   1.767   1.424
 6703TIP3    H241669   3.681   1.884   1.352
 6704TIP3   OH241670   3.231   2.603   0.730
 6704TIP3    H141671   3.205   2.646   0.649
 6704TIP3    H241672   3.229   2.509   0.709
 6705TIP3   OH241673   3.911   5.597   6.418
 6705TIP3    H141674   3.988   5.589   6.362
 6705TIP3    H241675   3.856   5.522   6.394
 6706TIP3   OH241676   4.343   6.491   8.435
 6706TIP3    H141677   4.409   6.503   8.503
 6706TIP3    H241678   4.384   6.432   8.372
 6707TIP3   OH241679   3.282   2.627   8.081
 6707TIP3    H141680   3.306   2.541   8.115
 6707TIP3    H241681   3.200   2.649   8.125
 6708TIP3   OH241682   5.567   1.868   1.729
 6708TIP3    H141683   5.637   1.834   1.674
 6708TIP3    H241684   5.600   1.861   1.818
 6709TIP3   OH241685   2.587   3.969   8.231
 6709TIP3    H141686   2.596   4.041   8.169
 6709TIP3    H241687   2.496   3.973   8.259
 6710TIP3   OH241688   4.055   3.087   1.553
 6710TIP3    H141689   4.102   3.064   1.473
 6710TIP3    H241690   4.124   3.092   1.620
 6711TIP3   OH241691   1.268   6.637   7.968
 6711TIP3    H141692   1.298   6.704   7.908
 6711TIP3    H241693   1.303   6.555   7.932
 6712TIP3   OH241694   6.830   4.964   0.884
 6712TIP3    H141695   0.067   4.962   0.855
 6712TIP3    H241696   6.829   5.029   0.955
 6713TIP3   OH241697   4.365   5.691   1.547
 6713TIP3    H141698   4.289   5.651   1.589
 6713TIP3    H241699   4.424   5.712   1.620
 6714TIP3   OH241700   6.390   6.113   7.668
 6714TIP3    H141701   6.335   6.109   7.591
 6714TIP3    H241702   6.352   6.182   7.722
 6715TIP3   OH241703   4.029   1.931   8.650
 6715TIP3    H141704   3.965   1.953   8.582
 6715TIP3    H241705   3.979   1.931   0.005
 6716TIP3   OH241706   2.636   0.059   8.639
 6716TIP3    H141707   2.623   0.104   8.556
 6716TIP3    H241708   2.557   0.007   8.651
 6717TIP3   OH241709   5.719   0.312   7.489
 6717TIP3    H141710   5.751   0.254   7.558
 6717TIP3    H241711   5.793   0.321   7.429
 6718TIP3   OH241712   6.288   6.087   0.171
 6718TIP3    H141713   6.198   6.119   0.160
 6718TIP3    H241714   6.331   6.106   0.088
 6719TIP3   OH241715   5.286   3.733   6.321
 6719TIP3    H141716   5.317   3.676   6.391
 6719TIP3    H241717   5.365   3.753   6.270
 6720TIP3   OH241718   2.399   5.678   2.221
 6720TIP3    H141719   2.358   5.673   2.134
 6720TIP3    H241720   2.410   5.772   2.237
 6721TIP3   OH241721   6.229   6.792   7.352
 6721TIP3    H141722   6.266   6.807   7.265
 6721TIP3    H241723   6.213   0.026   7.386
 6722TIP3   OH241724   2.688   5.889   8.084
 6722TIP3    H141725   2.670   5.822   8.019
 6722TIP3    H241726   2.609   5.943   8.085
 6723TIP3   OH241727   6.315   0.859   1.231
 6723TIP3    H141728   6.272   0.831   1.312
 6723TIP3    H241729   6.407   0.837   1.243
 6724TIP3   OH241730   3.969   5.949   7.255
 6724TIP3    H141731   3.921   5.975   7.176
 6724TIP3    H241732   3.901   5.937   7.321
 6725TIP3   OH241733   6.373   4.268   8.361
 6725TIP3    H141734   6.450   4.212   8.356
 6725TIP3    H241735   6.300   4.207   8.372
 6726TIP3   OH241736   3.697   3.312   0.161
 6726TIP3    H141737   3.664   3.383   0.218
 6726TIP3    H241738   3.664   3.334   0.074
 6727TIP3   OH241739   4.994   6.804   8.346
 6727TIP3    H141740   4.947   0.017   8.395
 6727TIP3    H241741   4.951   6.722   8.372
 6728TIP3   OH241742   6.601   5.792   7.579
 6728TIP3    H141743   6.687   5.783   7.620
 6728TIP3    H241744   6.593   5.712   7.526
 6729TIP3   OH241745   6.200   0.742   6.774
 6729TIP3    H141746   6.253   0.710   6.847
 6729TIP3    H241747   6.110   0.729   6.802
 6730TIP3   OH241748   0.232   4.361   0.717
 6730TIP3    H141749   0.230   4.332   0.626
 6730TIP3    H241750   0.193   4.449   0.715
 6731TIP3   OH241751   6.189   3.607   7.872
 6731TIP3    H141752   6.113   3.665   7.868
 6731TIP3    H241753   6.175   3.544   7.802
 6732TIP3   OH241754   0.796   3.349   7.838
 6732TIP3    H141755   0.808   3.443   7.856
 6732TIP3    H241756   0.867   3.306   7.885
 6733TIP3   OH241757   5.063   3.476   7.513
 6733TIP3    H141758   5.095   3.391   7.484
 6733TIP3    H241759   5.014   3.510   7.439
 6734TIP3   OH241760   3.784   5.640   2.218
 6734TIP3    H141761   3.828   5.562   2.252
 6734TIP3    H241762   3.793   5.633   2.123
 6735TIP3   OH241763   6.295   2.400   1.805
 6735TIP3    H141764   6.347   2.329   1.844
 6735TIP3    H241765   6.319   2.477   1.856
 6736TIP3   OH241766   5.010   6.646   0.940
 6736TIP3    H141767   5.001   6.591   0.862
 6736TIP3    H241768   5.101   6.676   0.937
 6737TIP3   OH241769   3.091   3.337   0.242
 6737TIP3    H141770   3.139   3.266   0.286
 6737TIP3    H241771   3.116   3.330   0.150
 6738TIP3   OH241772   1.426   0.087   0.317
 6738TIP3    H141773   1.359   0.096   0.249
 6738TIP3    H241774   1.404   0.005   0.362
 6739TIP3   OH241775   3.560   2.347   1.374
 6739TIP3    H141776   3.582   2.429   1.419
 6739TIP3    H241777   3.468   2.331   1.397
 6740TIP3   OH241778   5.076   0.146   7.268
 6740TIP3    H141779   5.032   0.231   7.255
 6740TIP3    H241780   5.154   0.152   7.212
 6741TIP3   OH241781   5.273   6.523   7.643
 6741TIP3    H141782   5.220   6.543   7.721
 6741TIP3    H241783   5.362   6.548   7.668
 6742TIP3   OH241784   1.566   2.865   1.592
 6742TIP3    H141785   1.591   2.815   1.514
 6742TIP3    H241786   1.471   2.856   1.596
 6743TIP3   OH241787   6.487   4.101   8.039
 6743TIP3    H141788   6.451   4.013   8.042
 6743TIP3    H241789   6.468   4.132   7.950
 6744TIP3   OH241790   2.731   1.475   0.219
 6744TIP3    H141791   2.747   1.451   0.310
 6744TIP3    H241792   2.682   1.401   0.183
 6745TIP3   OH241793   1.462   5.655   7.615
 6745TIP3    H141794   1.400   5.620   7.680
 6745TIP3    H241795   1.416   5.730   7.577
 6746TIP3   OH241796   2.733   0.016   8.286
 6746TIP3    H141797   2.650   0.063   8.299
 6746TIP3    H241798   2.801   0.078   8.312
 6747TIP3   OH241799   3.383   6.469   0.795
 6747TIP3    H141800   3.385   6.425   0.711
 6747TIP3    H241801   3.436   6.414   0.852
 6748TIP3   OH241802   3.457   3.505   8.673
 6748TIP3    H141803   3.543   3.528   8.709
 6748TIP3    H241804   3.450   3.556   8.593
 6749TIP3   OH241805   6.437   5.557   8.467
 6749TIP3    H141806   6.377   5.580   8.538
 6749TIP3    H241807   6.393   5.484   8.422
 6750TIP3   OH241808   6.248   6.748   1.623
 6750TIP3    H141809   6.199   6.711   1.550
 6750TIP3    H241810   6.285   6.672   1.668
 6751TIP3   OH241811   2.626   0.246   7.642
 6751TIP3    H141812   2.705   0.279   7.599
 6751TIP3    H241813   2.602   0.314   7.705
 6752TIP3   OH241814   0.605   3.535   1.062
 6752TIP3    H141815   0.617   3.536   0.967
 6752TIP3    H241816   0.581   3.445   1.082
 6753TIP3   OH241817   5.776   3.910   0.191
 6753TIP3    H141818   5.835   3.936   0.120
 6753TIP3    H241819   5.805   3.960   0.266
 6754TIP3   OH241820   4.840   5.747   7.372
 6754TIP3    H141821   4.813   5.811   7.306
 6754TIP3    H241822   4.768   5.684   7.376
 6755TIP3   OH241823   4.764   0.628   1.318
 6755TIP3    H141824   4.709   0.695   1.277
 6755TIP3    H241825   4.712   0.594   1.390
 6756TIP3   OH241826   4.833   1.747   1.034
 6756TIP3    H141827   4.755   1.796   1.058
 6756TIP3    H241828   4.827   1.666   1.083
 6757TIP3   OH241829   6.325   1.306   0.063
 6757TIP3    H141830   6.263   1.270   8.724
 6757TIP3    H241831   6.275   1.306   0.145
 6758TIP3   OH241832   5.780   6.842   7.868
 6758TIP3    H141833   5.866   6.831   7.909
 6758TIP3    H241834   5.718   6.810   7.934
 6759TIP3   OH241835   1.043   0.401   7.362
 6759TIP3    H141836   0.955   0.437   7.366
 6759TIP3    H241837   1.090   0.458   7.300
 6760TIP3   OH241838   5.419   6.235   1.519
 6760TIP3    H141839   5.330   6.203   1.505
 6760TIP3    H241840   5.475   6.161   1.498
 6761TIP3   OH241841   3.051   2.853   8.698
 6761TIP3    H141842   3.018   2.793   8.632
 6761TIP3    H241843   2.973   2.881   0.020
 6762TIP3   OH241844   6.727   3.755   0.832
 6762TIP3    H141845   6.710   3.748   0.738
 6762TIP3    H241846   6.816   3.721   0.843
 6763TIP3   OH241847   1.149   5.353   0.858
 6763TIP3    H141848   1.111   5.290   0.798
 6763TIP3    H241849   1.074   5.405   0.888
 6764TIP3   OH241850   6.849   3.495   0.546
 6764TIP3    H141851   6.801   3.571   0.578
 6764TIP3    H241852   6.809   3.475   0.461
 6765TIP3   OH241853   3.609   6.026   1.328
 6765TIP3    H141854   3.691   5.986   1.298
 6765TIP3    H241855   3.584   5.975   1.404
 6766TIP3   OH241856   3.842   3.030   7.832
 6766TIP3    H141857   3.907   3.100   7.831
 6766TIP3    H241858   3.770   3.063   7.778
 6767TIP3   OH241859   1.647   3.252   0.154
 6767TIP3    H141860   1.596   3.274   0.076
 6767TIP3    H241861   1.666   3.159   0.146
 6768TIP3   OH241862   4.867   2.724   7.276
 6768TIP3    H141863   4.869   2.811   7.315
 6768TIP3    H241864   4.855   2.739   7.182
 6769TIP3   OH241865   3.299   6.173   0.944
 6769TIP3    H141866   3.246   6.163   0.865
 6769TIP3    H241867   3.270   6.102   1.001
 6770TIP3   OH241868   5.981   2.078   7.616
 6770TIP3    H141869   6.059   2.022   7.609
 6770TIP3    H241870   5.998   2.133   7.692
 6771TIP3   OH241871   4.183   3.040   7.238
 6771TIP3    H141872   4.196   2.958   7.285
 6771TIP3    H241873   4.262   3.051   7.186
 6772TIP3   OH241874   4.775   0.890   1.576
 6772TIP3    H141875   4.714   0.961   1.554
 6772TIP3    H241876   4.846   0.932   1.624
 6773TIP3   OH241877   1.607   2.892   8.200
 6773TIP3    H141878   1.697   2.861   8.201
 6773TIP3    H241879   1.608   2.966   8.140
 6774TIP3   OH241880   1.102   3.416   0.734
 6774TIP3    H141881   1.012   3.386   0.744
 6774TIP3    H241882   1.154   3.335   0.730
 6775TIP3   OH241883   2.353   3.680   0.120
 6775TIP3    H141884   2.385   3.613   0.180
 6775TIP3    H241885   2.407   3.670   0.041
 6776TIP3   OH241886   6.720   0.405   0.390
 6776TIP3    H141887   6.638   0.454   0.394
 6776TIP3    H241888   6.763   0.421   0.474
 6777TIP3   OH241889   5.437   4.950   8.299
 6777TIP3    H141890   5.507   4.989   8.351
 6777TIP3    H241891   5.391   5.024   8.260
 6778TIP3   OH241892   6.289   1.009   6.876
 6778TIP3    H141893   6.260   0.941   6.815
 6778TIP3    H241894   6.354   1.059   6.827
 6779TIP3   OH241895   4.901   0.882   0.333
 6779TIP3    H141896   4.977   0.856   0.386
 6779TIP3    H241897   4.825   0.850   0.383
 6780TIP3   OH241898   6.268   5.772   1.945
 6780TIP3    H141899   6.345   5.822   1.974
 6780TIP3    H241900   6.301   5.718   1.873
 6781TIP3   OH241901   0.051   5.117   1.654
 6781TIP3    H141902   6.847   5.057   1.607
 6781TIP3    H241903   0.114   5.060   1.698
 6782TIP3   OH241904   4.240   5.240   1.490
 6782TIP3    H141905   4.262   5.157   1.447
 6782TIP3    H241906   4.182   5.284   1.428
 6783TIP3   OH241907   1.353   3.503   0.922
 6783TIP3    H141908   1.376   3.509   0.830
 6783TIP3    H241909   1.287   3.571   0.935
 6784TIP3   OH241910   1.779   0.372   8.068
 6784TIP3    H141911   1.743   0.447   8.115
 6784TIP3    H241912   1.854   0.344   8.120
 6785TIP3   OH241913   3.896   3.674   1.587
 6785TIP3    H141914   3.987   3.690   1.612
 6785TIP3    H241915   3.855   3.761   1.589
 6786TIP3   OH241916   4.804   1.251   8.023
 6786TIP3    H141917   4.789   1.346   8.026
 6786TIP3    H241918   4.757   1.222   7.945
 6787TIP3   OH241919   2.734   0.072   7.153
 6787TIP3    H141920   2.743   6.843   7.199
 6787TIP3    H241921   2.650   0.107   7.183
 6788TIP3   OH241922   5.943   1.311   0.219
 6788TIP3    H141923   5.877   1.379   0.208
 6788TIP3    H241924   5.898   1.241   0.267
 6789TIP3   OH241925   1.254   5.069   8.316
 6789TIP3    H141926   1.224   5.031   8.234
 6789TIP3    H241927   1.175   5.105   8.357
 6790TIP3   OH241928   0.436   1.125   0.116
 6790TIP3    H141929   0.510   1.065   0.110
 6790TIP3    H241930   0.411   1.141   0.025
 6791TIP3   OH241931   6.344   0.570   7.972
 6791TIP3    H141932   6.349   0.525   7.888
 6791TIP3    H241933   6.393   0.513   8.032
 6792TIP3   OH241934   2.373   1.203   7.461
 6792TIP3    H141935   2.396   1.242   7.377
 6792TIP3    H241936   2.285   1.169   7.449
 6793TIP3   OH241937   1.402   5.411   0.302
 6793TIP3    H141938   1.454   5.333   0.288
 6793TIP3    H241939   1.384   5.412   0.396
 6794TIP3   OH241940   6.834   2.602   0.951
 6794TIP3    H141941   6.832   2.519   0.904
 6794TIP3    H241942   6.749   2.609   0.993
 6795TIP3   OH241943   6.516   2.254   1.530
 6795TIP3    H141944   6.591   2.196   1.519
 6795TIP3    H241945   6.444   2.197   1.557
 6796TIP3   OH241946   6.608   6.434   8.364
 6796TIP3    H141947   6.549   6.363   8.336
 6796TIP3    H241948   6.688   6.390   8.392
 6797TIP3   OH241949   5.372   0.159   8.015
 6797TIP3    H141950   5.399   0.170   8.106
 6797TIP3    H241951   5.404   0.238   7.971
 6798TIP3   OH241952   2.465   1.479   2.181
 6798TIP3    H141953   2.472   1.396   2.228
 6798TIP3    H241954   2.414   1.536   2.239
 6799TIP3   OH241955   6.329   1.972   8.610
 6799TIP3    H141956   6.250   1.988   8.558
 6799TIP3    H241957   6.399   2.016   8.562
 6800TIP3   OH241958   4.311   5.566   8.467
 6800TIP3    H141959   4.317   5.471   8.456
 6800TIP3    H241960   4.388   5.600   8.421
 6801TIP3   OH241961   0.267   4.744   1.229
 6801TIP3    H141962   0.243   4.697   1.309
 6801TIP3    H241963   0.301   4.677   1.170
 6802TIP3   OH241964   2.400   0.154   2.372
 6802TIP3    H141965   2.314   0.193   2.387
 6802TIP3    H241966   2.460   0.228   2.368
 6803TIP3   OH241967   5.716   1.283   2.382
 6803TIP3    H141968   5.770   1.339   2.436
 6803TIP3    H241969   5.769   1.205   2.367
 6804TIP3   OH241970   4.241   1.676   2.449
 6804TIP3    H141971   4.156   1.702   2.484
 6804TIP3    H241972   4.304   1.719   2.506
 6805TIP3   OH241973   2.238   5.065   7.987
 6805TIP3    H141974   2.238   5.124   8.062
 6805TIP3    H241975   2.184   5.109   7.922
 6806TIP3   OH241976   6.319   0.926   0.920
 6806TIP3    H141977   6.265   0.907   0.997
 6806TIP3    H241978   6.320   0.843   0.871
 6807TIP3   OH241979   2.754   5.385   1.732
 6807TIP3    H141980   2.810   5.403   1.656
 6807TIP3    H241981   2.738   5.472   1.770
 6808TIP3   OH241982   4.398   2.581   1.485
 6808TIP3    H141983   4.366   2.641   1.552
 6808TIP3    H241984   4.453   2.636   1.428
 6809TIP3   OH241985   3.251   2.126   1.257
 6809TIP3    H141986   3.195   2.200   1.280
 6809TIP3    H241987   3.315   2.162   1.196
 6810TIP3   OH241988   4.621   5.486   7.601
 6810TIP3    H141989   4.607   5.392   7.604
 6810TIP3    H241990   4.641   5.505   7.509
 6811TIP3   OH241991   0.934   1.124   0.532
 6811TIP3    H141992   1.024   1.110   0.504
 6811TIP3    H241993   0.883   1.130   0.451
 6812TIP3   OH241994   1.326   1.483   8.091
 6812TIP3    H141995   1.287   1.564   8.123
 6812TIP3    H241996   1.415   1.507   8.064
 6813TIP3   OH241997   1.676   1.253   2.363
 6813TIP3    H141998   1.595   1.298   2.339
 6813TIP3    H241999   1.648   1.185   2.425
 6814TIP3   OH242000   2.052   0.976   2.043
 6814TIP3    H142001   2.120   0.909   2.049
 6814TIP3    H242002   1.988   0.940   1.981
 6815TIP3   OH242003   5.117   6.345   7.517
 6815TIP3    H142004   5.193   6.381   7.563
 6815TIP3    H242005   5.057   6.419   7.508
 6816TIP3   OH242006   2.233   2.695   1.957
 6816TIP3    H142007   2.230   2.601   1.974
 6816TIP3    H242008   2.235   2.735   2.044
 6817TIP3   OH242009   1.667   4.890   8.265
 6817TIP3    H142010   1.680   4.890   8.360
 6817TIP3    H242011   1.621   4.972   8.247
 6818TIP3   OH242012   1.654   1.693   7.453
 6818TIP3    H142013   1.660   1.598   7.447
 6818TIP3    H242014   1.619   1.709   7.541
 6819TIP3   OH242015   1.736   3.305   7.455
 6819TIP3    H142016   1.822   3.341   7.435
 6819TIP3    H242017   1.681   3.334   7.382
 6820TIP3   OH242018   3.625   3.470   1.217
 6820TIP3    H142019   3.588   3.442   1.301
 6820TIP3    H242020   3.562   3.533   1.182
 6821TIP3   OH242021   5.715   4.514   7.894
 6821TIP3    H142022   5.792   4.462   7.874
 6821TIP3    H242023   5.719   4.527   7.989
 6822TIP3   OH242024   3.067   5.079   8.085
 6822TIP3    H142025   3.096   5.152   8.139
 6822TIP3    H242026   3.146   5.053   8.036
 6823TIP3   OH242027   6.558   2.810   7.215
 6823TIP3    H142028   6.630   2.814   7.279
 6823TIP3    H242029   6.492   2.754   7.257
 6824TIP3   OH242030   2.860   3.097   0.576
 6824TIP3    H142031   2.929   3.144   0.623
 6824TIP3    H242032   2.904   3.059   0.500
 6825TIP3   OH242033   5.112   3.631   0.026
 6825TIP3    H142034   5.036   3.574   0.042
 6825TIP3    H242035   5.077   3.705   8.703
 6826TIP3   OH242036   6.642   2.704   6.972
 6826TIP3    H142037   6.610   2.744   6.891
 6826TIP3    H242038   6.612   2.762   7.042
 6827TIP3   OH242039   6.191   6.849   1.997
 6827TIP3    H142040   6.188   0.046   1.916
 6827TIP3    H242041   6.150   0.051   2.063
 6828TIP3   OH242042   1.507   3.371   7.985
 6828TIP3    H142043   1.559   3.415   7.918
 6828TIP3    H242044   1.417   3.397   7.966
 6829TIP3   OH242045   2.114   6.400   7.860
 6829TIP3    H142046   2.188   6.348   7.829
 6829TIP3    H242047   2.051   6.335   7.892
 6830TIP3   OH242048   4.966   5.341   0.510
 6830TIP3    H142049   4.889   5.345   0.567
 6830TIP3    H242050   4.948   5.269   0.450
 6831TIP3   OH242051   1.269   5.809   6.921
 6831TIP3    H142052   1.250   5.900   6.901
 6831TIP3    H242053   1.185   5.764   6.913
 6832TIP3   OH242054   1.170   5.314   7.335
 6832TIP3    H142055   1.234   5.338   7.402
 6832TIP3    H242056   1.187   5.376   7.264
 6833TIP3   OH242057   6.151   3.717   8.674
 6833TIP3    H142058   6.094   3.794   8.676
 6833TIP3    H242059   6.236   3.749   8.704
 6834TIP3   OH242060   6.183   0.729   1.429
 6834TIP3    H142061   6.093   0.731   1.398
 6834TIP3    H242062   6.179   0.767   1.517
 6835TIP3   OH242063   3.864   0.087   7.992
 6835TIP3    H142064   3.828   0.049   8.072
 6835TIP3    H242065   3.825   0.036   7.921
 6836TIP3   OH242066   2.323   5.048   1.779
 6836TIP3    H142067   2.395   4.998   1.818
 6836TIP3    H242068   2.246   4.993   1.791
 6837TIP3   OH242069   4.470   2.740   0.308
 6837TIP3    H142070   4.480   2.732   0.213
 6837TIP3    H242071   4.426   2.659   0.335
 6838TIP3   OH242072   3.923   4.902   8.563
 6838TIP3    H142073   3.866   4.925   8.636
 6838TIP3    H242074   3.893   4.815   8.535
 6839TIP3   OH242075   4.613   2.460   7.832
 6839TIP3    H142076   4.693   2.475   7.781
 6839TIP3    H242077   4.558   2.407   7.774
 6840TIP3   OH242078   0.530   0.284   0.731
 6840TIP3    H142079   0.476   0.362   0.716
 6840TIP3    H242080   0.548   0.251   0.643
 6841TIP3   OH242081   0.623   3.867   0.495
 6841TIP3    H142082   0.572   3.795   0.458
 6841TIP3    H242083   0.636   3.842   0.586
 6842TIP3   OH242084   6.624   6.649   0.656
 6842TIP3    H142085   6.600   6.674   0.566
 6842TIP3    H242086   6.698   6.705   0.677
 6843TIP3   OH242087   6.111   4.693   8.479
 6843TIP3    H142088   6.092   4.665   8.569
 6843TIP3    H242089   6.025   4.707   8.440
 6844TIP3   OH242090   5.473   0.567   2.304
 6844TIP3    H142091   5.507   0.505   2.240
 6844TIP3    H242092   5.517   0.544   2.386
 6845TIP3   OH242093   0.892   2.899   7.898
 6845TIP3    H142094   0.857   2.832   7.957
 6845TIP3    H242095   0.969   2.858   7.858
 6846TIP3   OH242096   0.994   3.142   1.545
 6846TIP3    H142097   1.045   3.119   1.467
 6846TIP3    H242098   0.926   3.202   1.512
 6847TIP3   OH242099   0.146   0.444   1.579
 6847TIP3    H142100   0.217   0.411   1.524
 6847TIP3    H242101   0.084   0.482   1.516
 6848TIP3   OH242102   4.158   5.725   8.202
 6848TIP3    H142103   4.233   5.784   8.213
 6848TIP3    H242104   4.082   5.778   8.227
 6849TIP3   OH242105   6.068   1.168   0.023
 6849TIP3    H142106   6.062   1.202   0.112
 6849TIP3    H242107   6.014   1.227   8.697
 6850TIP3   OH242108   0.421   6.761   6.502
 6850TIP3    H142109   0.410   6.807   6.585
 6850TIP3    H242110   0.442   6.830   6.439
 6851TIP3   OH242111   2.780   4.242   7.790
 6851TIP3    H142112   2.718   4.190   7.841
 6851TIP3    H242113   2.724   4.304   7.742
 6852TIP3   OH242114   6.508   0.606   0.835
 6852TIP3    H142115   6.419   0.612   0.869
 6852TIP3    H242116   6.534   0.515   0.851
 6853TIP3   OH242117   4.592   1.897   8.408
 6853TIP3    H142118   4.578   1.912   8.315
 6853TIP3    H242119   4.687   1.902   8.420
 6854TIP3   OH242120   0.834   0.375   0.780
 6854TIP3    H142121   0.825   0.389   0.685
 6854TIP3    H242122   0.775   0.301   0.798
 6855TIP3   OH242123   6.080   0.855   1.085
 6855TIP3    H142124   6.019   0.919   1.121
 6855TIP3    H242125   6.136   0.831   1.159
 6856TIP3   OH242126   3.456   4.932   1.375
 6856TIP3    H142127   3.412   4.888   1.303
 6856TIP3    H242128   3.544   4.896   1.376
 6857TIP3   OH242129   1.763   2.765   0.296
 6857TIP3    H142130   1.705   2.689   0.300
 6857TIP3    H242131   1.832   2.739   0.235
 6858TIP3   OH242132   0.409   1.822   8.675
 6858TIP3    H142133   0.328   1.850   8.634
 6858TIP3    H242134   0.410   1.727   8.666
 6859TIP3   OH242135   4.002   2.726   8.668
 6859TIP3    H142136   3.997   2.817   8.639
 6859TIP3    H242137   4.091   2.699   8.645
 6860TIP3   OH242138   3.648   5.089   6.403
 6860TIP3    H142139   3.584   5.100   6.473
 6860TIP3    H242140   3.666   4.995   6.401
 6861TIP3   OH242141   1.244   2.893   1.583
 6861TIP3    H142142   1.185   2.818   1.594
 6861TIP3    H242143   1.224   2.950   1.658
 6862TIP3   OH242144   3.468   1.780   0.529
 6862TIP3    H142145   3.447   1.703   0.476
 6862TIP3    H242146   3.562   1.773   0.545
 6863TIP3   OH242147   6.078   1.483   0.502
 6863TIP3    H142148   6.166   1.456   0.528
 6863TIP3    H242149   6.020   1.440   0.564
 6864TIP3   OH242150   5.258   1.922   0.532
 6864TIP3    H142151   5.285   1.861   0.601
 6864TIP3    H242152   5.341   1.954   0.495
 6865TIP3   OH242153   1.604   5.711   0.716
 6865TIP3    H142154   1.682   5.670   0.680
 6865TIP3    H242155   1.635   5.758   0.794
 6866TIP3   OH242156   6.092   3.702   2.545
 6866TIP3    H142157   6.042   3.783   2.546
 6866TIP3    H242158   6.026   3.633   2.556
 6867TIP3   OH242159   5.537   3.759   8.706
 6867TIP3    H142160   5.603   3.787   8.643
 6867TIP3    H242161   5.495   3.840   0.008
 6868TIP3   OH242162   5.685   0.596   0.242
 6868TIP3    H142163   5.680   0.634   0.330
 6868TIP3    H242164   5.718   0.667   0.187
 6869TIP3   OH242165   3.798   4.416   7.300
 6869TIP3    H142166   3.862   4.380   7.239
 6869TIP3    H242167   3.831   4.503   7.322
 6870TIP3   OH242168   1.854   6.845   1.401
 6870TIP3    H142169   1.872   6.818   1.491
 6870TIP3    H242170   1.882   6.770   1.347
 6871TIP3   OH242171   4.910   3.092   2.061
 6871TIP3    H142172   4.885   3.072   2.151
 6871TIP3    H242173   4.995   3.135   2.069
 6872TIP3   OH242174   1.660   3.941   6.506
 6872TIP3    H142175   1.569   3.938   6.477
 6872TIP3    H242176   1.705   3.877   6.451
 6873TIP3   OH242177   6.183   5.740   7.681
 6873TIP3    H142178   6.136   5.667   7.722
 6873TIP3    H242179   6.200   5.801   7.753
 6874TIP3   OH242180   0.899   3.026   7.269
 6874TIP3    H142181   0.955   3.000   7.342
 6874TIP3    H242182   0.935   2.981   7.193
 6875TIP3   OH242183   6.518   0.079   0.635
 6875TIP3    H142184   6.573   0.025   0.578
 6875TIP3    H242185   6.451   0.020   0.668
 6876TIP3   OH242186   4.350   2.201   8.194
 6876TIP3    H142187   4.254   2.205   8.193
 6876TIP3    H242188   4.377   2.275   8.140
 6877TIP3   OH242189   5.902   3.656   1.379
 6877TIP3    H142190   5.902   3.752   1.373
 6877TIP3    H242191   5.990   3.634   1.411
 6878TIP3   OH242192   6.690   3.039   1.462
 6878TIP3    H142193   6.761   3.016   1.522
 6878TIP3    H242194   6.669   2.957   1.417
 6879TIP3   OH242195   5.200   5.543   8.670
 6879TIP3    H142196   5.119   5.540   8.620
 6879TIP3    H242197   5.185   5.487   0.020
 6880TIP3   OH242198   3.735   4.295   2.440
 6880TIP3    H142199   3.703   4.353   2.510
 6880TIP3    H242200   3.724   4.207   2.475
 6881TIP3   OH242201   1.100   3.728   2.528
 6881TIP3    H142202   1.024   3.677   2.556
 6881TIP3    H242203   1.071   3.775   2.451
 6882TIP3   OH242204   3.712   4.907   8.138
 6882TIP3    H142205   3.706   4.979   8.076
 6882TIP3    H242206   3.715   4.949   8.224
 6883TIP3   OH242207   3.254   0.843   0.296
 6883TIP3    H142208   3.291   0.818   0.380
 6883TIP3    H242209   3.224   0.761   0.257
 6884TIP3   OH242210   2.531   1.094   0.919
 6884TIP3    H142211   2.564   1.013   0.881
 6884TIP3    H242212   2.497   1.068   1.005
 6885TIP3   OH242213   2.630   4.903   0.485
 6885TIP3    H142214   2.712   4.930   0.526
 6885TIP3    H242215   2.607   4.821   0.528
 6886TIP3   OH242216   3.380   1.813   8.583
 6886TIP3    H142217   3.291   1.848   8.585
 6886TIP3    H242218   3.413   1.837   8.496
 6887TIP3   OH242219   3.996   1.523   8.293
 6887TIP3    H142220   3.946   1.596   8.331
 6887TIP3    H242221   3.993   1.538   8.199
 6888TIP3   OH242222   1.082   0.183   6.194
 6888TIP3    H142223   1.112   0.252   6.135
 6888TIP3    H242224   1.006   0.145   6.150
 6889TIP3   OH242225   1.583   2.880   7.336
 6889TIP3    H142226   1.626   2.829   7.404
 6889TIP3    H242227   1.567   2.965   7.376
 6890TIP3   OH242228   0.103   5.598   0.156
 6890TIP3    H142229   0.131   5.584   0.066
 6890TIP3    H242230   0.008   5.596   0.153
 6891TIP3   OH242231   1.631   6.633   8.268
 6891TIP3    H142232   1.650   6.600   8.181
 6891TIP3    H242233   1.680   6.576   8.328
 6892TIP3   OH242234   5.191   4.991   0.230
 6892TIP3    H142235   5.173   5.070   0.282
 6892TIP3    H242236   5.166   4.918   0.288
 6893TIP3   OH242237   2.786   6.261   0.668
 6893TIP3    H142238   2.739   6.339   0.697
 6893TIP3    H242239   2.874   6.292   0.646
 6894TIP3   OH242240   3.743   2.279   0.444
 6894TIP3    H142241   3.754   2.371   0.421
 6894TIP3    H242242   3.652   2.259   0.421
 6895TIP3   OH242243   6.748   2.890   1.871
 6895TIP3    H142244   6.675   2.830   1.855
 6895TIP3    H242245   6.706   2.975   1.884
 6896TIP3   OH242246   2.745   2.188   0.416
 6896TIP3    H142247   2.800   2.111   0.402
 6896TIP3    H242248   2.684   2.162   0.485
 6897TIP3   OH242249   1.640   2.980   6.769
 6897TIP3    H142250   1.557   2.935   6.780
 6897TIP3    H242251   1.695   2.918   6.721
 6898TIP3   OH242252   0.009   3.738   7.435
 6898TIP3    H142253   6.847   3.805   7.502
 6898TIP3    H242254   0.091   3.765   7.393
 6899TIP3   OH242255   2.204   3.382   6.890
 6899TIP3    H142256   2.260   3.358   6.816
 6899TIP3    H242257   2.115   3.378   6.855
 6900TIP3   OH242258   5.813   5.175   0.201
 6900TIP3    H142259   5.738   5.211   0.153
 6900TIP3    H242260   5.889   5.197   0.146
 6901TIP3   OH242261   0.142   5.053   7.832
 6901TIP3    H142262   0.123   5.006   7.913
 6901TIP3    H242263   0.096   5.136   7.842
 6902TIP3   OH242264   2.871   1.004   0.816
 6902TIP3    H142265   2.928   1.017   0.892
 6902TIP3    H242266   2.823   0.924   0.835
 6903TIP3   OH242267   4.514   1.863   7.364
 6903TIP3    H142268   4.432   1.835   7.406
 6903TIP3    H242269   4.538   1.944   7.408
 6904TIP3   OH242270   5.406   4.560   7.065
 6904TIP3    H142271   5.410   4.566   7.160
 6904TIP3    H242272   5.447   4.641   7.034
 6905TIP3   OH242273   6.179   6.394   1.306
 6905TIP3    H142274   6.109   6.453   1.279
 6905TIP3    H242275   6.250   6.452   1.334
 6906TIP3   OH242276   2.466   4.979   1.100
 6906TIP3    H142277   2.380   4.937   1.097
 6906TIP3    H242278   2.472   5.027   1.017
 6907TIP3   OH242279   0.302   0.051   8.317
 6907TIP3    H142280   0.214   0.063   8.281
 6907TIP3    H242281   0.337   6.829   8.271
 6908TIP3   OH242282   3.851   5.823   1.817
 6908TIP3    H142283   3.909   5.771   1.761
 6908TIP3    H242284   3.763   5.789   1.798
 6909TIP3   OH242285   1.830   3.531   2.226
 6909TIP3    H142286   1.810   3.565   2.313
 6909TIP3    H242287   1.884   3.453   2.242
 6910TIP3   OH242288   2.873   0.852   7.705
 6910TIP3    H142289   2.928   0.914   7.752
 6910TIP3    H242290   2.788   0.856   7.749
 6911TIP3   OH242291   4.306   2.556   0.452
 6911TIP3    H142292   4.287   2.549   0.546
 6911TIP3    H242293   4.351   2.475   0.431
 6912TIP3   OH242294   5.084   3.858   8.276
 6912TIP3    H142295   5.018   3.877   8.209
 6912TIP3    H242296   5.071   3.765   8.296
 6913TIP3   OH242297   3.403   0.017   6.188
 6913TIP3    H142298   3.313   0.048   6.183
 6913TIP3    H242299   3.397   6.777   6.174
 6914TIP3   OH242300   6.141   0.185   2.600
 6914TIP3    H142301   6.173   0.112   2.546
 6914TIP3    H242302   6.046   0.178   2.596
 6915TIP3   OH242303   5.754   0.935   1.249
 6915TIP3    H142304   5.765   1.027   1.225
 6915TIP3    H242305   5.714   0.937   1.335
 6916TIP3   OH242306   4.852   1.862   8.418
 6916TIP3    H142307   4.833   1.790   8.357
 6916TIP3    H242308   4.944   1.882   8.402
 6917TIP3   OH242309   0.429   4.352   0.895
 6917TIP3    H142310   0.356   4.365   0.835
 6917TIP3    H242311   0.507   4.356   0.840
 6918TIP3   OH242312   2.799   2.073   8.233
 6918TIP3    H142313   2.822   2.100   8.144
 6918TIP3    H242314   2.882   2.074   8.281
 6919TIP3   OH242315   2.396   0.470   8.569
 6919TIP3    H142316   2.322   0.483   8.510
 6919TIP3    H242317   2.374   0.521   8.647
 6920TIP3   OH242318   4.246   3.266   0.069
 6920TIP3    H142319   4.190   3.279   8.719
 6920TIP3    H242320   4.199   3.309   0.141
 6921TIP3   OH242321   4.025   3.744   8.676
 6921TIP3    H142322   3.971   3.738   8.598
 6921TIP3    H242323   3.964   3.729   0.023
 6922TIP3   OH242324   4.432   5.962   0.470
 6922TIP3    H142325   4.360   5.927   0.419
 6922TIP3    H242326   4.504   5.971   0.408
 6923TIP3   OH242327   1.206   2.527   0.569
 6923TIP3    H142328   1.199   2.619   0.595
 6923TIP3    H242329   1.118   2.492   0.583
 6924TIP3   OH242330   2.408   5.478   0.756
 6924TIP3    H142331   2.343   5.449   0.692
 6924TIP3    H242332   2.487   5.428   0.732
 6925TIP3   OH242333   2.796   0.092   6.407
 6925TIP3    H142334   2.834   0.014   6.449
 6925TIP3    H242335   2.868   0.155   6.406
 6926TIP3   OH242336   3.186   6.828   6.744
 6926TIP3    H142337   3.141   6.844   6.661
 6926TIP3    H242338   3.165   0.050   6.798
 6927TIP3   OH242339   1.867   6.187   1.069
 6927TIP3    H142340   1.867   6.097   1.038
 6927TIP3    H242341   1.943   6.192   1.128
 6928TIP3   OH242342   0.805   3.607   7.030
 6928TIP3    H142343   0.734   3.671   7.040
 6928TIP3    H242344   0.804   3.586   6.936
 6929TIP3   OH242345   2.526   6.044   0.724
 6929TIP3    H142346   2.577   6.022   0.802
 6929TIP3    H242347   2.545   6.137   0.709
 6930TIP3   OH242348   1.748   1.047   1.233
 6930TIP3    H142349   1.796   1.092   1.164
 6930TIP3    H242350   1.759   0.954   1.213
 6931TIP3   OH242351   2.168   3.393   1.683
 6931TIP3    H142352   2.200   3.386   1.592
 6931TIP3    H242353   2.102   3.324   1.690
 6932TIP3   OH242354   4.955   0.889   8.089
 6932TIP3    H142355   4.983   0.877   8.180
 6932TIP3    H242356   5.027   0.935   8.047
 6933TIP3   OH242357   6.772   5.295   8.591
 6933TIP3    H142358   6.724   5.288   8.673
 6933TIP3    H242359   6.722   5.242   8.529
 6934TIP3   OH242360   2.767   1.954   8.590
 6934TIP3    H142361   2.844   1.902   8.567
 6934TIP3    H242362   2.792   2.044   8.568
 6935TIP3   OH242363   3.961   6.810   7.394
 6935TIP3    H142364   3.969   0.035   7.446
 6935TIP3    H242365   3.871   6.781   7.407
 6936TIP3   OH242366   6.500   6.502   0.177
 6936TIP3    H142367   6.561   6.512   0.103
 6936TIP3    H242368   6.547   6.447   0.240
 6937TIP3   OH242369   1.879   2.795   8.143
 6937TIP3    H142370   1.926   2.873   8.113
 6937TIP3    H242371   1.833   2.764   8.065
 6938TIP3   OH242372   5.729   4.512   2.075
 6938TIP3    H142373   5.812   4.474   2.105
 6938TIP3    H242374   5.665   4.442   2.088
 6939TIP3   OH242375   2.687   0.007   2.031
 6939TIP3    H142376   2.594   6.851   2.010
 6939TIP3    H242377   2.716   0.078   1.974
 6940TIP3   OH242378   1.308   1.044   7.681
 6940TIP3    H142379   1.232   1.085   7.640
 6940TIP3    H242380   1.381   1.102   7.658
 6941TIP3   OH242381   5.900   5.183   0.449
 6941TIP3    H142382   5.993   5.200   0.434
 6941TIP3    H242383   5.859   5.205   0.366
 6942TIP3   OH242384   5.089   1.127   7.099
 6942TIP3    H142385   5.030   1.064   7.056
 6942TIP3    H242386   5.036   1.163   7.170
 6943TIP3   OH242387   0.946   1.590   2.446
 6943TIP3    H142388   0.857   1.614   2.419
 6943TIP3    H242389   0.991   1.674   2.454
 6944TIP3   OH242390   0.607   1.464   7.958
 6944TIP3    H142391   0.639   1.541   8.005
 6944TIP3    H242392   0.583   1.497   7.872
 6945TIP3   OH242393   1.675   0.288   7.814
 6945TIP3    H142394   1.719   0.311   7.896
 6945TIP3    H242395   1.737   0.314   7.746
 6946TIP3   OH242396   4.128   5.839   0.381
 6946TIP3    H142397   4.177   5.800   0.309
 6946TIP3    H242398   4.144   5.781   0.455
 6947TIP3   OH242399   5.347   1.999   2.370
 6947TIP3    H142400   5.356   1.913   2.413
 6947TIP3    H242401   5.259   1.997   2.332
 6948TIP3   OH242402   6.317   0.133   1.032
 6948TIP3    H142403   6.370   0.059   1.002
 6948TIP3    H242404   6.345   0.147   1.122
 6949TIP3   OH242405   3.610   3.391   1.708
 6949TIP3    H142406   3.695   3.425   1.734
 6949TIP3    H242407   3.554   3.402   1.785
 6950TIP3   OH242408   1.465   6.050   1.022
 6950TIP3    H142409   1.459   6.061   1.117
 6950TIP3    H242410   1.454   6.138   0.987
 6951TIP3   OH242411   2.677   4.546   7.718
 6951TIP3    H142412   2.760   4.581   7.751
 6951TIP3    H242413   2.616   4.557   7.791
 6952TIP3   OH242414   2.672   6.208   1.397
 6952TIP3    H142415   2.764   6.183   1.397
 6952TIP3    H242416   2.624   6.125   1.396
 6953TIP3   OH242417   5.780   4.459   1.708
 6953TIP3    H142418   5.710   4.513   1.742
 6953TIP3    H242419   5.849   4.521   1.683
 6954TIP3   OH242420   5.788   0.949   7.470
 6954TIP3    H142421   5.815   0.956   7.561
 6954TIP3    H242422   5.714   1.010   7.462
 6955TIP3   OH242423   2.444   2.435   6.980
 6955TIP3    H142424   2.500   2.448   6.903
 6955TIP3    H242425   2.367   2.390   6.946
 6956TIP3   OH242426   3.737   4.253   6.817
 6956TIP3    H142427   3.682   4.215   6.748
 6956TIP3    H242428   3.735   4.189   6.887
 6957TIP3   OH242429   6.575   1.110   7.022
 6957TIP3    H142430   6.530   1.123   6.939
 6957TIP3    H242431   6.537   1.175   7.081
 6958TIP3   OH242432   1.053   2.746   8.548
 6958TIP3    H142433   1.047   2.785   8.635
 6958TIP3    H242434   0.962   2.731   8.522
 6959TIP3   OH242435   2.117   4.481   0.503
 6959TIP3    H142436   2.036   4.473   0.552
 6959TIP3    H242437   2.093   4.527   0.423
 6960TIP3   OH242438   6.636   4.695   1.427
 6960TIP3    H142439   6.674   4.782   1.409
 6960TIP3    H242440   6.611   4.698   1.519
 6961TIP3   OH242441   1.592   2.607   6.882
 6961TIP3    H142442   1.532   2.621   6.809
 6961TIP3    H242443   1.536   2.578   6.954
 6962TIP3   OH242444   4.987   6.442   1.133
 6962TIP3    H142445   5.004   6.508   1.066
 6962TIP3    H242446   4.892   6.445   1.147
 6963TIP3   OH242447   3.343   0.701   6.650
 6963TIP3    H142448   3.341   0.669   6.560
 6963TIP3    H242449   3.323   0.794   6.644
 6964TIP3   OH242450   3.531   3.740   6.568
 6964TIP3    H142451   3.456   3.738   6.508
 6964TIP3    H242452   3.596   3.682   6.528
 6965TIP3   OH242453   1.924   3.377   6.786
 6965TIP3    H142454   1.862   3.308   6.764
 6965TIP3    H242455   1.917   3.440   6.714
 6966TIP3   OH242456   4.736   5.831   0.155
 6966TIP3    H142457   4.830   5.826   0.140
 6966TIP3    H242458   4.699   5.761   0.101
 6967TIP3   OH242459   4.267   6.027   2.481
 6967TIP3    H142460   4.259   6.122   2.471
 6967TIP3    H242461   4.286   6.014   2.574
 6968TIP3   OH242462   5.847   4.288   1.064
 6968TIP3    H142463   5.823   4.267   0.974
 6968TIP3    H242464   5.766   4.278   1.114
 6969TIP3   OH242465   1.202   5.650   1.462
 6969TIP3    H142466   1.158   5.626   1.381
 6969TIP3    H242467   1.279   5.699   1.434
 6970TIP3   OH242468   5.198   6.726   0.162
 6970TIP3    H142469   5.267   6.784   0.195
 6970TIP3    H242470   5.143   6.783   0.108
 6971TIP3   OH242471   0.950   4.273   2.596
 6971TIP3    H142472   0.979   4.192   2.553
 6971TIP3    H242473   1.022   4.295   2.655
 6972TIP3   OH242474   0.386   5.143   8.071
 6972TIP3    H142475   0.311   5.174   8.122
 6972TIP3    H242476   0.382   5.047   8.079
 6973TIP3   OH242477   0.594   5.334   7.845
 6973TIP3    H142478   0.530   5.289   7.790
 6973TIP3    H242479   0.650   5.382   7.784
 6974TIP3   OH242480   5.883   5.222   1.274
 6974TIP3    H142481   5.943   5.269   1.216
 6974TIP3    H242482   5.937   5.199   1.350
 6975TIP3   OH242483   0.446   0.659   1.527
 6975TIP3    H142484   0.386   0.612   1.469
 6975TIP3    H242485   0.458   0.601   1.602
 6976TIP3   OH242486   3.500   2.719   1.436
 6976TIP3    H142487   3.423   2.758   1.477
 6976TIP3    H242488   3.554   2.689   1.510
 6977TIP3   OH242489   1.273   6.630   1.443
 6977TIP3    H142490   1.289   6.558   1.504
 6977TIP3    H242491   1.210   6.686   1.488
 6978TIP3   OH242492   2.607   0.460   8.339
 6978TIP3    H142493   2.645   0.548   8.341
 6978TIP3    H242494   2.519   0.472   8.304
 6979TIP3   OH242495   0.539   6.760   1.035
 6979TIP3    H142496   0.589   6.768   1.116
 6979TIP3    H242497   0.580   6.688   0.988
 6980TIP3   OH242498   6.587   6.274   7.421
 6980TIP3    H142499   6.556   6.202   7.366
 6980TIP3    H242500   6.561   6.353   7.373
 6981TIP3   OH242501   3.426   0.833   7.197
 6981TIP3    H142502   3.357   0.898   7.208
 6981TIP3    H242503   3.385   0.763   7.146
 6982TIP3   OH242504   2.731   3.046   7.038
 6982TIP3    H142505   2.719   3.136   7.008
 6982TIP3    H242506   2.687   2.993   6.972
 6983TIP3   OH242507   3.445   3.961   7.198
 6983TIP3    H142508   3.463   4.045   7.240
 6983TIP3    H242509   3.385   3.983   7.126
 6984TIP3   OH242510   2.057   4.277   8.405
 6984TIP3    H142511   2.029   4.196   8.447
 6984TIP3    H242512   2.116   4.318   8.469
 6985TIP3   OH242513   5.221   2.960   8.373
 6985TIP3    H142514   5.312   2.933   8.382
 6985TIP3    H242515   5.220   3.016   8.295
 6986TIP3   OH242516   1.221   5.387   6.482
 6986TIP3    H142517   1.204   5.413   6.572
 6986TIP3    H242518   1.250   5.468   6.439
 6987TIP3   OH242519   5.427   2.646   0.713
 6987TIP3    H142520   5.481   2.679   0.642
 6987TIP3    H242521   5.486   2.594   0.767
 6988TIP3   OH242522   6.766   0.214   1.500
 6988TIP3    H142523   6.853   0.199   1.463
 6988TIP3    H242524   6.732   0.126   1.517
 6989TIP3   OH242525   6.695   4.712   0.964
 6989TIP3    H142526   6.700   4.658   0.885
 6989TIP3    H242527   6.738   4.794   0.939
 6990TIP3   OH242528   2.218   3.105   2.289
 6990TIP3    H142529   2.314   3.102   2.282
 6990TIP3    H242530   2.187   3.106   2.199
 6991TIP3   OH242531   5.823   6.285   1.359
 6991TIP3    H142532   5.790   6.326   1.439
 6991TIP3    H242533   5.915   6.310   1.354
 6992TIP3   OH242534   0.671   0.602   0.887
 6992TIP3    H142535   0.755   0.646   0.898
 6992TIP3    H242536   0.689   0.510   0.908
 6993TIP3   OH242537   0.095   4.183   2.258
 6993TIP3    H142538   0.129   4.268   2.228
 6993TIP3    H242539   0.040   4.205   2.333
 6994TIP3   OH242540   5.539   3.676   8.365
 6994TIP3    H142541   5.585   3.708   8.442
 6994TIP3    H242542   5.607   3.632   8.313
 6995TIP3   OH242543   4.472   0.924   0.050
 6995TIP3    H142544   4.469   0.858   0.118
 6995TIP3    H242545   4.380   0.946   0.033
 6996TIP3   OH242546   6.585   6.769   8.007
 6996TIP3    H142547   6.672   6.801   7.982
 6996TIP3    H242548   6.595   6.743   8.099
 6997TIP3   OH242549   3.758   2.881   8.213
 6997TIP3    H142550   3.699   2.806   8.210
 6997TIP3    H242551   3.830   2.858   8.154
 6998TIP3   OH242552   4.546   3.631   8.291
 6998TIP3    H142553   4.575   3.690   8.221
 6998TIP3    H242554   4.451   3.634   8.287
 6999TIP3   OH242555   0.122   6.600   0.121
 6999TIP3    H142556   0.195   6.579   0.064
 6999TIP3    H242557   0.097   6.516   0.160
 7000TIP3   OH242558   3.763   3.291   2.112
 7000TIP3    H142559   3.788   3.277   2.203
 7000TIP3    H242560   3.819   3.363   2.082
 7001TIP3   OH242561   4.311   0.901   7.328
 7001TIP3    H142562   4.310   0.827   7.389
 7001TIP3    H242563   4.227   0.945   7.342
 7002TIP3   OH242564   0.831   6.684   2.579
 7002TIP3    H142565   0.891   6.649   2.512
 7002TIP3    H242566   0.744   6.663   2.547
 7003TIP3   OH242567   3.355   5.998   0.396
 7003TIP3    H142568   3.447   6.025   0.395
 7003TIP3    H242569   3.357   5.906   0.422
 7004TIP3   OH242570   1.220   1.750   8.223
 7004TIP3    H142571   1.230   1.818   8.157
 7004TIP3    H242572   1.218   1.797   8.306
 7005TIP3   OH242573   4.483   5.961   7.227
 7005TIP3    H142574   4.569   5.922   7.211
 7005TIP3    H242575   4.495   6.054   7.207
 7006TIP3   OH242576   5.984   1.456   6.510
 7006TIP3    H142577   6.009   1.364   6.504
 7006TIP3    H242578   5.985   1.475   6.603
 7007TIP3   OH242579   0.375   1.147   8.305
 7007TIP3    H142580   0.310   1.076   8.305
 7007TIP3    H242581   0.384   1.170   8.398
 7008TIP3   OH242582   4.822   2.591   7.682
 7008TIP3    H142583   4.900   2.582   7.736
 7008TIP3    H242584   4.854   2.597   7.593
 7009TIP3   OH242585   1.137   4.504   7.558
 7009TIP3    H142586   1.189   4.487   7.637
 7009TIP3    H242587   1.058   4.547   7.590
 7010TIP3   OH242588   6.317   2.910   1.671
 7010TIP3    H142589   6.375   2.868   1.734
 7010TIP3    H242590   6.238   2.931   1.720
 7011TIP3   OH242591   0.486   1.333   0.829
 7011TIP3    H142592   0.521   1.311   0.743
 7011TIP3    H242593   0.476   1.428   0.827
 7012TIP3   OH242594   3.564   3.280   0.576
 7012TIP3    H142595   3.509   3.312   0.647
 7012TIP3    H242596   3.587   3.359   0.527
 7013TIP3   OH242597   2.778   4.338   1.504
 7013TIP3    H142598   2.798   4.421   1.462
 7013TIP3    H242599   2.747   4.361   1.591
 7014TIP3   OH242600   4.896   0.842   0.689
 7014TIP3    H142601   4.939   0.764   0.724
 7014TIP3    H242602   4.967   0.903   0.670
 7015TIP3   OH242603   5.110   0.208   1.038
 7015TIP3    H142604   5.156   0.230   0.957
 7015TIP3    H242605   5.021   0.185   1.009
 7016TIP3   OH242606   5.315   1.046   6.919
 7016TIP3    H142607   5.250   1.081   6.981
 7016TIP3    H242608   5.345   0.965   6.959
 7017TIP3   OH242609   4.710   2.974   0.452
 7017TIP3    H142610   4.639   2.967   0.516
 7017TIP3    H242611   4.722   2.885   0.419
 7018TIP3   OH242612   0.703   1.772   0.861
 7018TIP3    H142613   0.621   1.818   0.877
 7018TIP3    H242614   0.736   1.749   0.948
 7019TIP3   OH242615   1.032   2.788   1.250
 7019TIP3    H142616   0.983   2.772   1.331
 7019TIP3    H242617   0.968   2.776   1.180
 7020TIP3   OH242618   1.201   3.037   1.042
 7020TIP3    H142619   1.243   2.994   1.116
 7020TIP3    H242620   1.271   3.087   1.000
 7021TIP3   OH242621   0.426   3.393   0.186
 7021TIP3    H142622   0.356   3.368   0.247
 7021TIP3    H242623   0.393   3.470   0.141
 7022TIP3   OH242624   5.984   1.935   0.865
 7022TIP3    H142625   6.004   1.947   0.772
 7022TIP3    H242626   6.048   1.871   0.895
 7023TIP3   OH242627   1.862   4.063   6.636
 7023TIP3    H142628   1.914   3.983   6.629
 7023TIP3    H242629   1.777   4.039   6.599
 7024TIP3   OH242630   1.728   4.974   0.377
 7024TIP3    H142631   1.683   5.043   0.328
 7024TIP3    H242632   1.805   4.953   0.325
 7025TIP3   OH242633   0.806   4.067   0.310
 7025TIP3    H142634   0.835   4.001   0.372
 7025TIP3    H242635   0.887   4.099   0.269
 7026TIP3   OH242636   2.539   2.028   8.301
 7026TIP3    H142637   2.487   1.980   8.237
 7026TIP3    H242638   2.625   2.038   8.259
 7027TIP3   OH242639   0.229   5.049   7.385
 7027TIP3    H142640   0.179   4.978   7.345
 7027TIP3    H242641   0.231   5.027   7.478
 7028TIP3   OH242642   4.223   0.331   0.535
 7028TIP3    H142643   4.150   0.269   0.539
 7028TIP3    H242644   4.235   0.347   0.441
 7029TIP3   OH242645   2.122   0.311   2.365
 7029TIP3    H142646   2.114   0.373   2.437
 7029TIP3    H242647   2.052   0.335   2.304
 7030TIP3   OH242648   3.865   3.513   6.596
 7030TIP3    H142649   3.954   3.478   6.588
 7030TIP3    H242650   3.838   3.492   6.685
 7031TIP3   OH242651   6.539   0.230   8.520
 7031TIP3    H142652   6.531   0.244   8.615
 7031TIP3    H242653   6.613   0.171   8.510
 7032TIP3   OH242654   5.016   1.609   0.379
 7032TIP3    H142655   5.015   1.627   0.474
 7032TIP3    H242656   4.927   1.581   0.360
 7033TIP3   OH242657   6.471   3.969   7.646
 7033TIP3    H142658   6.410   3.927   7.585
 7033TIP3    H242659   6.547   3.991   7.593
 7034TIP3   OH242660   1.069   1.459   0.379
 7034TIP3    H142661   1.082   1.542   0.426
 7034TIP3    H242662   1.108   1.474   0.293
 7035TIP3   OH242663   1.026   4.223   7.577
 7035TIP3    H142664   1.036   4.285   7.649
 7035TIP3    H242665   1.083   4.257   7.508
 7036TIP3   OH242666   1.645   6.716   0.575
 7036TIP3    H142667   1.686   6.662   0.642
 7036TIP3    H242668   1.695   6.798   0.576
 7037TIP3   OH242669   0.358   3.781   6.728
 7037TIP3    H142670   0.308   3.863   6.730
 7037TIP3    H242671   0.449   3.808   6.743
 7038TIP3   OH242672   1.657   3.066   7.045
 7038TIP3    H142673   1.723   3.012   7.089
 7038TIP3    H242674   1.648   3.027   6.958
 7039TIP3   OH242675   1.749   2.924   2.362
 7039TIP3    H142676   1.687   2.966   2.422
 7039TIP3    H242677   1.731   2.964   2.277
 7040TIP3   OH242678   4.050   1.455   1.787
 7040TIP3    H142679   3.983   1.458   1.856
 7040TIP3    H242680   4.052   1.364   1.759
 7041TIP3   OH242681   1.064   6.279   8.648
 7041TIP3    H142682   1.078   6.264   8.554
 7041TIP3    H242683   1.021   6.365   8.652
 7042TIP3   OH242684   6.298   6.198   6.879
 7042TIP3    H142685   6.229   6.132   6.878
 7042TIP3    H242686   6.250   6.281   6.874
 7043TIP3   OH242687   4.330   0.986   0.958
 7043TIP3    H142688   4.397   0.975   1.026
 7043TIP3    H242689   4.285   0.902   0.954
 7044TIP3   OH242690   0.969   0.664   7.684
 7044TIP3    H142691   0.877   0.688   7.675
 7044TIP3    H242692   0.985   0.665   7.779
 7045TIP3   OH242693   6.424   2.952   6.852
 7045TIP3    H142694   6.457   2.987   6.935
 7045TIP3    H242695   6.498   2.903   6.815
 7046TIP3   OH242696   4.091   1.653   0.045
 7046TIP3    H142697   4.118   1.678   8.683
 7046TIP3    H242698   4.033   1.723   0.074
 7047TIP3   OH242699   2.172   4.616   6.936
 7047TIP3    H142700   2.110   4.653   6.999
 7047TIP3    H242701   2.257   4.620   6.981
 7048TIP3   OH242702   1.484   4.130   1.782
 7048TIP3    H142703   1.404   4.079   1.793
 7048TIP3    H242704   1.544   4.095   1.848
 7049TIP3   OH242705   5.685   4.831   7.861
 7049TIP3    H142706   5.653   4.812   7.949
 7049TIP3    H242707   5.691   4.746   7.818
 7050TIP3   OH242708   5.730   4.533   6.927
 7050TIP3    H142709   5.674   4.483   6.986
 7050TIP3    H242710   5.679   4.540   6.846
 7051TIP3   OH242711   4.575   2.358   1.597
 7051TIP3    H142712   4.548   2.303   1.523
 7051TIP3    H242713   4.522   2.438   1.588
 7052TIP3   OH242714   1.642   0.643   1.490
 7052TIP3    H142715   1.575   0.602   1.545
 7052TIP3    H242716   1.640   0.593   1.409
 7053TIP3   OH242717   0.210   3.814   1.678
 7053TIP3    H142718   0.158   3.759   1.737
 7053TIP3    H242719   0.301   3.794   1.700
 7054TIP3   OH242720   4.382   4.542   1.599
 7054TIP3    H142721   4.383   4.616   1.660
 7054TIP3    H242722   4.436   4.475   1.642
 7055TIP3   OH242723   5.703   6.239   8.277
 7055TIP3    H142724   5.738   6.153   8.300
 7055TIP3    H242725   5.694   6.237   8.182
 7056TIP3   OH242726   4.454   6.210   8.719
 7056TIP3    H142727   4.462   6.304   8.701
 7056TIP3    H242728   4.527   6.170   8.671
 7057TIP3   OH242729   4.117   4.788   8.383
 7057TIP3    H142730   4.031   4.829   8.395
 7057TIP3    H242731   4.104   4.697   8.409
 7058TIP3   OH242732   3.728   0.812   7.212
 7058TIP3    H142733   3.637   0.799   7.184
 7058TIP3    H242734   3.731   0.902   7.245
 7059TIP3   OH242735   4.559   2.850   6.658
 7059TIP3    H142736   4.581   2.943   6.661
 7059TIP3    H242737   4.509   2.835   6.738
 7060TIP3   OH242738   4.885   3.602   7.714
 7060TIP3    H142739   4.939   3.527   7.688
 7060TIP3    H242740   4.845   3.576   7.796
 7061TIP3   OH242741   0.748   2.556   2.375
 7061TIP3    H142742   0.687   2.629   2.375
 7061TIP3    H242743   0.796   2.564   2.458
 7062TIP3   OH242744   1.359   3.049   8.421
 7062TIP3    H142745   1.348   3.028   8.328
 7062TIP3    H242746   1.285   3.006   8.464
 7063TIP3   OH242747   3.861   0.495   7.593
 7063TIP3    H142748   3.823   0.583   7.583
 7063TIP3    H242749   3.804   0.452   7.657
 7064TIP3   OH242750   3.788   5.310   6.388
 7064TIP3    H142751   3.733   5.236   6.364
 7064TIP3    H242752   3.871   5.270   6.416
 7065TIP3   OH242753   1.649   0.066   1.653
 7065TIP3    H142754   1.696   0.031   1.728
 7065TIP3    H242755   1.634   6.844   1.596
 7066TIP3   OH242756   5.081   1.344   8.500
 7066TIP3    H142757   5.172   1.358   8.524
 7066TIP3    H242758   5.083   1.328   8.405
 7067TIP3   OH242759   2.839   1.419   0.469
 7067TIP3    H142760   2.839   1.495   0.527
 7067TIP3    H242761   2.849   1.344   0.528
 7068TIP3   OH242762   4.696   2.367   7.384
 7068TIP3    H142763   4.666   2.455   7.360
 7068TIP3    H242764   4.725   2.328   7.302
 7069TIP3   OH242765   4.894   1.231   1.843
 7069TIP3    H142766   4.928   1.171   1.777
 7069TIP3    H242767   4.971   1.279   1.874
 7070TIP3   OH242768   0.255   3.958   1.904
 7070TIP3    H142769   0.272   3.932   1.813
 7070TIP3    H242770   0.337   3.940   1.950
 7071TIP3   OH242771   0.592   6.599   7.228
 7071TIP3    H142772   0.528   6.552   7.282
 7071TIP3    H242773   0.665   6.615   7.288
 7072LIG      O42774   4.728   5.612   5.698
 7072LIG     C142775   4.719   5.679   5.569
 7072LIG     C242776   4.862   5.695   5.515
 7072LIG     C342777   4.635   5.596   5.476
 7072LIG     H142778   4.681   5.783   5.581
 7072LIG     H242779   4.906   5.594   5.500
 7072LIG     H342780   4.920   5.754   5.589
 7072LIG     H442781   4.854   5.749   5.418
 7072LIG     H542782   4.633   5.638   5.374
 7072LIG     H642783   4.532   5.606   5.517
 7072LIG     H742784   4.670   5.491   5.466
 7072LIG     H842785   4.649   5.640   5.745
   6.85421   6.85421   8.72599
