Title t= 9800.00000 step= 4900000
42785
    1SAPS     N    1   4.450   3.309   6.458
    1SAPS   HN1    2   4.535   3.253   6.480
    1SAPS   HN2    3   4.453   3.360   6.367
    1SAPS   HN3    4   4.431   3.376   6.535
    1SAPS   C12    5   4.333   3.217   6.434
    1SAPS  H12A    6   4.365   3.147   6.358
    1SAPS   C13    7   4.279   3.141   6.562
    1SAPS  O13A    8   4.327   3.171   6.673
    1SAPS  O13B    9   4.177   3.063   6.553
    1SAPS   C11   10   4.218   3.315   6.396
    1SAPS  H11A   11   4.179   3.358   6.490
    1SAPS  H11B   12   4.131   3.259   6.356
    1SAPS     P   13   4.223   3.550   6.269
    1SAPS   O13   14   4.236   3.624   6.398
    1SAPS   O14   15   4.314   3.607   6.164
    1SAPS   O12   16   4.255   3.396   6.282
    1SAPS   O11   17   4.076   3.551   6.208
    1SAPS    C1   18   4.036   3.445   6.115
    1SAPS    HA   19   4.097   3.352   6.111
    1SAPS    HB   20   3.941   3.399   6.148
    1SAPS    C2   21   4.009   3.492   5.975
    1SAPS    HS   22   3.958   3.416   5.913
    1SAPS   O21   23   4.128   3.547   5.916
    1SAPS   C21   24   4.211   3.460   5.858
    1SAPS   O22   25   4.193   3.344   5.866
    1SAPS   C22   26   4.325   3.539   5.783
    1SAPS   H2R   27   4.284   3.622   5.723
    1SAPS   H2S   28   4.375   3.601   5.861
    1SAPS    C3   29   3.899   3.603   5.980
    1SAPS    HX   30   3.939   3.691   6.034
    1SAPS    HY   31   3.818   3.557   6.041
    1SAPS   O31   32   3.840   3.621   5.852
    1SAPS   C31   33   3.901   3.727   5.794
    1SAPS   O32   34   3.981   3.804   5.844
    1SAPS   C32   35   3.830   3.756   5.658
    1SAPS   H2X   36   3.845   3.866   5.663
    1SAPS   H2Y   37   3.722   3.741   5.679
    1SAPS   C23   38   4.417   3.445   5.711
    1SAPS   H3R   39   4.367   3.362   5.655
    1SAPS   H3S   40   4.479   3.391   5.785
    1SAPS   C24   41   4.512   3.513   5.613
    1SAPS   H4R   42   4.463   3.524   5.514
    1SAPS   H4S   43   4.595   3.443   5.588
    1SAPS   C25   44   4.577   3.641   5.666
    1SAPS   H5R   45   4.645   3.628   5.751
    1SAPS   C26   46   4.559   3.761   5.616
    1SAPS   H6R   47   4.609   3.847   5.664
    1SAPS   C27   48   4.465   3.794   5.499
    1SAPS   H7R   49   4.455   3.707   5.430
    1SAPS   H7S   50   4.514   3.871   5.435
    1SAPS   C28   51   4.332   3.837   5.552
    1SAPS   H8R   52   4.314   3.806   5.656
    1SAPS   C29   53   4.228   3.856   5.469
    1SAPS   H9R   54   4.126   3.876   5.505
    1SAPS  C210   55   4.251   3.870   5.323
    1SAPS  H10R   56   4.264   3.774   5.269
    1SAPS  H10S   57   4.339   3.931   5.293
    1SAPS  C211   58   4.128   3.927   5.259
    1SAPS  H11R   59   4.052   3.982   5.316
    1SAPS  C212   60   4.103   3.928   5.125
    1SAPS  H12R   61   4.012   3.967   5.077
    1SAPS  C213   62   4.203   3.888   5.014
    1SAPS  H13R   63   4.161   3.853   4.917
    1SAPS  H13S   64   4.269   3.804   5.046
    1SAPS  C214   65   4.301   4.000   4.993
    1SAPS  H14R   66   4.346   4.044   5.084
    1SAPS  C215   67   4.317   4.066   4.881
    1SAPS  H15R   68   4.386   4.151   4.888
    1SAPS  C216   69   4.256   4.048   4.744
    1SAPS  H16R   70   4.203   4.144   4.724
    1SAPS  H16S   71   4.176   3.972   4.743
    1SAPS  C217   72   4.358   4.001   4.639
    1SAPS  H17R   73   4.462   4.036   4.654
    1SAPS  H17S   74   4.317   4.018   4.537
    1SAPS  C218   75   4.378   3.850   4.646
    1SAPS  H18R   76   4.278   3.804   4.628
    1SAPS  H18S   77   4.406   3.819   4.749
    1SAPS  C219   78   4.482   3.784   4.551
    1SAPS  H19R   79   4.504   3.679   4.578
    1SAPS  H19S   80   4.569   3.852   4.562
    1SAPS  C220   81   4.432   3.789   4.406
    1SAPS  H20R   82   4.516   3.759   4.340
    1SAPS  H20S   83   4.401   3.891   4.376
    1SAPS  H20T   84   4.346   3.723   4.381
    1SAPS   C33   85   3.890   3.680   5.546
    1SAPS   H3X   86   3.912   3.578   5.582
    1SAPS   H3Y   87   3.990   3.719   5.515
    1SAPS   C34   88   3.795   3.680   5.427
    1SAPS   H4X   89   3.754   3.781   5.404
    1SAPS   H4Y   90   3.707   3.619   5.459
    1SAPS   C35   91   3.862   3.627   5.288
    1SAPS   H5X   92   3.893   3.521   5.290
    1SAPS   H5Y   93   3.957   3.682   5.273
    1SAPS   C36   94   3.793   3.660   5.156
    1SAPS   H6X   95   3.768   3.767   5.142
    1SAPS   H6Y   96   3.694   3.610   5.147
    1SAPS   C37   97   3.863   3.615   5.030
    1SAPS   H7X   98   3.817   3.523   4.988
    1SAPS   H7Y   99   3.970   3.603   5.055
    1SAPS   C38  100   3.858   3.714   4.912
    1SAPS   H8X  101   3.891   3.816   4.942
    1SAPS   H8Y  102   3.754   3.726   4.877
    1SAPS   C39  103   3.941   3.672   4.791
    1SAPS   H9X  104   3.893   3.582   4.749
    1SAPS   H9Y  105   4.049   3.653   4.810
    1SAPS  C310  106   3.923   3.769   4.670
    1SAPS  H10X  107   3.943   3.873   4.703
    1SAPS  H10Y  108   3.815   3.779   4.646
    1SAPS  C311  109   3.990   3.709   4.546
    1SAPS  H11X  110   3.938   3.621   4.503
    1SAPS  H11Y  111   4.091   3.673   4.575
    1SAPS  C312  112   4.002   3.829   4.454
    1SAPS  H12X  113   4.040   3.793   4.356
    1SAPS  H12Y  114   4.073   3.904   4.495
    1SAPS  C313  115   3.867   3.888   4.410
    1SAPS  H13X  116   3.840   3.978   4.469
    1SAPS  H13Y  117   3.789   3.811   4.398
    1SAPS  C314  118   3.877   3.946   4.268
    1SAPS  H14X  119   3.774   3.979   4.242
    1SAPS  H14Y  120   3.898   3.873   4.187
    1SAPS  C315  121   3.975   4.070   4.272
    1SAPS  H15X  122   4.064   4.035   4.327
    1SAPS  H15Y  123   3.929   4.149   4.335
    1SAPS  C316  124   3.995   4.122   4.127
    1SAPS  H16X  125   4.009   4.038   4.057
    1SAPS  H16Y  126   4.073   4.200   4.111
    1SAPS  C317  127   3.869   4.200   4.087
    1SAPS  H17X  128   3.854   4.289   4.152
    1SAPS  H17Y  129   3.775   4.144   4.106
    1SAPS  C318  130   3.878   4.243   3.938
    1SAPS  H18X  131   3.891   4.151   3.877
    1SAPS  H18Y  132   3.969   4.304   3.921
    1SAPS  H18Z  133   3.781   4.292   3.913
    2SAPS     N  134   4.694   6.041   6.492
    2SAPS   HN1  135   4.596   6.075   6.498
    2SAPS   HN2  136   4.729   6.058   6.396
    2SAPS   HN3  137   4.690   5.939   6.515
    2SAPS   C12  138   4.791   6.114   6.582
    2SAPS  H12A  139   4.772   6.081   6.683
    2SAPS   C13  140   4.940   6.074   6.548
    2SAPS  O13A  141   4.960   5.979   6.466
    2SAPS  O13B  142   5.037   6.148   6.587
    2SAPS   C11  143   4.784   6.266   6.575
    2SAPS  H11A  144   4.806   6.303   6.472
    2SAPS  H11B  145   4.849   6.310   6.653
    2SAPS     P  146   4.624   6.473   6.581
    2SAPS   O13  147   4.497   6.519   6.644
    2SAPS   O14  148   4.746   6.540   6.623
    2SAPS   O12  149   4.649   6.317   6.592
    2SAPS   O11  150   4.621   6.489   6.425
    2SAPS    C1  151   4.505   6.458   6.341
    2SAPS    HA  152   4.409   6.438   6.393
    2SAPS    HB  153   4.495   6.544   6.272
    2SAPS    C2  154   4.534   6.328   6.249
    2SAPS    HS  155   4.534   6.247   6.325
    2SAPS   O21  156   4.661   6.348   6.183
    2SAPS   C21  157   4.733   6.244   6.181
    2SAPS   O22  158   4.701   6.129   6.220
    2SAPS   C22  159   4.871   6.263   6.114
    2SAPS   H2R  160   4.889   6.371   6.093
    2SAPS   H2S  161   4.947   6.229   6.188
    2SAPS    C3  162   4.421   6.303   6.148
    2SAPS    HX  163   4.417   6.391   6.080
    2SAPS    HY  164   4.322   6.299   6.198
    2SAPS   O31  165   4.442   6.182   6.074
    2SAPS   C31  166   4.343   6.091   6.073
    2SAPS   O32  167   4.236   6.103   6.130
    2SAPS   C32  168   4.380   5.971   5.988
    2SAPS   H2X  169   4.423   5.883   6.040
    2SAPS   H2Y  170   4.453   5.998   5.908
    2SAPS   C23  171   4.888   6.171   5.983
    2SAPS   H3R  172   4.879   6.065   6.015
    2SAPS   H3S  173   4.987   6.198   5.939
    2SAPS   C24  174   4.786   6.195   5.876
    2SAPS   H4R  175   4.771   6.304   5.862
    2SAPS   H4S  176   4.686   6.158   5.907
    2SAPS   C25  177   4.831   6.145   5.740
    2SAPS   H5R  178   4.929   6.187   5.712
    2SAPS   C26  179   4.777   6.057   5.662
    2SAPS   H6R  180   4.820   6.037   5.562
    2SAPS   C27  181   4.653   5.987   5.687
    2SAPS   H7R  182   4.578   6.056   5.643
    2SAPS   H7S  183   4.635   5.972   5.796
    2SAPS   C28  184   4.637   5.851   5.627
    2SAPS   H8R  185   4.667   5.764   5.686
    2SAPS   C29  186   4.591   5.820   5.503
    2SAPS   H9R  187   4.601   5.715   5.470
    2SAPS  C210  188   4.521   5.906   5.406
    2SAPS  H10R  189   4.539   6.016   5.410
    2SAPS  H10S  190   4.416   5.913   5.443
    2SAPS  C211  191   4.523   5.857   5.266
    2SAPS  H11R  192   4.440   5.791   5.236
    2SAPS  C212  193   4.608   5.889   5.167
    2SAPS  H12R  194   4.580   5.849   5.068
    2SAPS  C213  195   4.724   5.981   5.168
    2SAPS  H13R  196   4.765   5.975   5.271
    2SAPS  H13S  197   4.675   6.080   5.152
    2SAPS  C214  198   4.832   5.947   5.070
    2SAPS  H14R  199   4.910   5.888   5.120
    2SAPS  C215  200   4.839   5.971   4.937
    2SAPS  H15R  201   4.928   5.942   4.880
    2SAPS  C216  202   4.747   6.056   4.851
    2SAPS  H16R  203   4.690   6.134   4.906
    2SAPS  H16S  204   4.676   5.988   4.800
    2SAPS  C217  205   4.835   6.127   4.750
    2SAPS  H17R  206   4.882   6.050   4.685
    2SAPS  H17S  207   4.912   6.190   4.798
    2SAPS  C218  208   4.756   6.223   4.657
    2SAPS  H18R  209   4.714   6.308   4.716
    2SAPS  H18S  210   4.679   6.170   4.597
    2SAPS  C219  211   4.844   6.292   4.550
    2SAPS  H19R  212   4.872   6.211   4.479
    2SAPS  H19S  213   4.936   6.332   4.597
    2SAPS  C220  214   4.779   6.407   4.475
    2SAPS  H20R  215   4.821   6.413   4.372
    2SAPS  H20S  216   4.783   6.502   4.531
    2SAPS  H20T  217   4.677   6.371   4.450
    2SAPS   C33  218   4.248   5.920   5.927
    2SAPS   H3X  219   4.174   5.907   6.009
    2SAPS   H3Y  220   4.260   5.825   5.871
    2SAPS   C34  221   4.180   6.014   5.825
    2SAPS   H4X  222   4.154   6.113   5.866
    2SAPS   H4Y  223   4.087   5.963   5.792
    2SAPS   C35  224   4.268   6.012   5.696
    2SAPS   H5X  225   4.272   5.909   5.655
    2SAPS   H5Y  226   4.374   6.038   5.716
    2SAPS   C36  227   4.223   6.109   5.587
    2SAPS   H6X  228   4.287   6.107   5.496
    2SAPS   H6Y  229   4.215   6.212   5.628
    2SAPS   C37  230   4.076   6.084   5.537
    2SAPS   H7X  231   4.018   6.089   5.632
    2SAPS   H7Y  232   4.074   5.974   5.519
    2SAPS   C38  233   4.012   6.184   5.436
    2SAPS   H8X  234   4.062   6.283   5.435
    2SAPS   H8Y  235   3.910   6.217   5.464
    2SAPS   C39  236   4.017   6.125   5.294
    2SAPS   H9X  237   3.967   6.026   5.300
    2SAPS   H9Y  238   4.122   6.117   5.257
    2SAPS  C310  239   3.943   6.223   5.196
    2SAPS  H10X  240   4.005   6.316   5.195
    2SAPS  H10Y  241   3.843   6.238   5.241
    2SAPS  C311  242   3.928   6.164   5.050
    2SAPS  H11X  243   3.863   6.074   5.053
    2SAPS  H11Y  244   4.027   6.133   5.010
    2SAPS  C312  245   3.857   6.273   4.963
    2SAPS  H12X  246   3.922   6.360   4.987
    2SAPS  H12Y  247   3.760   6.294   5.014
    2SAPS  C313  248   3.821   6.236   4.820
    2SAPS  H13X  249   3.811   6.330   4.763
    2SAPS  H13Y  250   3.726   6.179   4.829
    2SAPS  C314  251   3.926   6.147   4.742
    2SAPS  H14X  252   3.921   6.045   4.784
    2SAPS  H14Y  253   4.028   6.191   4.755
    2SAPS  C315  254   3.898   6.144   4.594
    2SAPS  H15X  255   3.925   6.251   4.575
    2SAPS  H15Y  256   3.790   6.135   4.569
    2SAPS  C316  257   3.981   6.040   4.523
    2SAPS  H16X  258   4.090   6.049   4.544
    2SAPS  H16Y  259   3.961   6.062   4.416
    2SAPS  C317  260   3.934   5.897   4.547
    2SAPS  H17X  261   3.827   5.892   4.577
    2SAPS  H17Y  262   3.990   5.847   4.629
    2SAPS  C318  263   3.939   5.824   4.416
    2SAPS  H18X  264   3.905   5.719   4.426
    2SAPS  H18Y  265   4.045   5.819   4.385
    2SAPS  H18Z  266   3.889   5.877   4.332
    3SAPS     N  267   4.829   4.139   6.881
    3SAPS   HN1  268   4.772   4.065   6.928
    3SAPS   HN2  269   4.886   4.179   6.958
    3SAPS   HN3  270   4.760   4.210   6.853
    3SAPS   C12  271   4.910   4.073   6.771
    3SAPS  H12A  272   4.992   4.138   6.746
    3SAPS   C13  273   4.991   3.942   6.793
    3SAPS  O13A  274   4.963   3.888   6.906
    3SAPS  O13B  275   5.093   3.911   6.721
    3SAPS   C11  276   4.837   4.048   6.645
    3SAPS  H11A  277   4.760   3.971   6.669
    3SAPS  H11B  278   4.905   4.012   6.565
    3SAPS     P  279   4.639   4.162   6.524
    3SAPS   O13  280   4.555   4.046   6.570
    3SAPS   O14  281   4.574   4.298   6.526
    3SAPS   O12  282   4.768   4.168   6.617
    3SAPS   O11  283   4.693   4.137   6.381
    3SAPS    C1  284   4.819   4.173   6.319
    3SAPS    HA  285   4.896   4.198   6.396
    3SAPS    HB  286   4.855   4.090   6.254
    3SAPS    C2  287   4.788   4.302   6.236
    3SAPS    HS  288   4.698   4.352   6.278
    3SAPS   O21  289   4.772   4.274   6.099
    3SAPS   C21  290   4.702   4.373   6.036
    3SAPS   O22  291   4.633   4.461   6.081
    3SAPS   C22  292   4.737   4.366   5.889
    3SAPS   H2R  293   4.665   4.433   5.839
    3SAPS   H2S  294   4.839   4.407   5.872
    3SAPS    C3  295   4.907   4.398   6.253
    3SAPS    HX  296   5.000   4.352   6.215
    3SAPS    HY  297   4.925   4.394   6.363
    3SAPS   O31  298   4.891   4.527   6.190
    3SAPS   C31  299   4.834   4.619   6.268
    3SAPS   O32  300   4.792   4.601   6.379
    3SAPS   C32  301   4.840   4.758   6.198
    3SAPS   H2X  302   4.844   4.837   6.276
    3SAPS   H2Y  303   4.739   4.779   6.157
    3SAPS   C23  304   4.704   4.232   5.826
    3SAPS   H3R  305   4.596   4.238   5.801
    3SAPS   H3S  306   4.729   4.149   5.895
    3SAPS   C24  307   4.799   4.205   5.713
    3SAPS   H4R  308   4.899   4.214   5.761
    3SAPS   H4S  309   4.804   4.290   5.643
    3SAPS   C25  310   4.758   4.075   5.648
    3SAPS   H5R  311   4.716   4.002   5.719
    3SAPS   C26  312   4.760   4.047   5.512
    3SAPS   H6R  313   4.719   3.957   5.465
    3SAPS   C27  314   4.823   4.141   5.414
    3SAPS   H7R  315   4.887   4.085   5.342
    3SAPS   H7S  316   4.886   4.222   5.457
    3SAPS   C28  317   4.718   4.208   5.329
    3SAPS   H8R  318   4.666   4.286   5.387
    3SAPS   C29  319   4.663   4.170   5.214
    3SAPS   H9R  320   4.601   4.245   5.161
    3SAPS  C210  321   4.709   4.058   5.131
    3SAPS  H10R  322   4.647   3.972   5.165
    3SAPS  H10S  323   4.809   4.028   5.169
    3SAPS  C211  324   4.692   4.066   4.983
    3SAPS  H11R  325   4.595   4.106   4.951
    3SAPS  C212  326   4.785   4.017   4.893
    3SAPS  H12R  327   4.748   3.999   4.791
    3SAPS  C213  328   4.932   3.978   4.922
    3SAPS  H13R  329   4.951   3.999   5.029
    3SAPS  H13S  330   4.995   4.049   4.865
    3SAPS  C214  331   4.947   3.836   4.874
    3SAPS  H14R  332   4.907   3.763   4.946
    3SAPS  C215  333   5.015   3.784   4.765
    3SAPS  H15R  334   5.005   3.679   4.735
    3SAPS  C216  335   5.071   3.873   4.658
    3SAPS  H16R  336   5.160   3.829   4.608
    3SAPS  H16S  337   5.079   3.978   4.694
    3SAPS  C217  338   4.966   3.875   4.541
    3SAPS  H17R  339   5.017   3.922   4.454
    3SAPS  H17S  340   4.880   3.940   4.567
    3SAPS  C218  341   4.926   3.741   4.483
    3SAPS  H18R  342   4.858   3.687   4.552
    3SAPS  H18S  343   5.012   3.674   4.461
    3SAPS  C219  344   4.866   3.765   4.345
    3SAPS  H19R  345   4.796   3.852   4.346
    3SAPS  H19S  346   4.950   3.792   4.278
    3SAPS  C220  347   4.793   3.645   4.287
    3SAPS  H20R  348   4.866   3.561   4.290
    3SAPS  H20S  349   4.764   3.656   4.180
    3SAPS  H20T  350   4.700   3.613   4.337
    3SAPS   C33  351   4.947   4.767   6.086
    3SAPS   H3X  352   5.038   4.710   6.116
    3SAPS   H3Y  353   4.949   4.875   6.061
    3SAPS   C34  354   4.900   4.713   5.950
    3SAPS   H4X  355   4.812   4.773   5.917
    3SAPS   H4Y  356   4.864   4.610   5.969
    3SAPS   C35  357   5.000   4.715   5.826
    3SAPS   H5X  358   5.005   4.824   5.803
    3SAPS   H5Y  359   5.102   4.680   5.852
    3SAPS   C36  360   4.951   4.638   5.711
    3SAPS   H6X  361   4.861   4.694   5.677
    3SAPS   H6Y  362   4.935   4.532   5.741
    3SAPS   C37  363   5.056   4.632   5.596
    3SAPS   H7X  364   5.145   4.583   5.641
    3SAPS   H7Y  365   5.083   4.735   5.563
    3SAPS   C38  366   5.008   4.551   5.481
    3SAPS   H8X  367   4.977   4.447   5.507
    3SAPS   H8Y  368   5.092   4.546   5.409
    3SAPS   C39  369   4.891   4.629   5.417
    3SAPS   H9X  370   4.925   4.728   5.382
    3SAPS   H9Y  371   4.812   4.653   5.492
    3SAPS  C310  372   4.816   4.542   5.316
    3SAPS  H10X  373   4.720   4.509   5.362
    3SAPS  H10Y  374   4.873   4.453   5.282
    3SAPS  C311  375   4.770   4.634   5.199
    3SAPS  H11X  376   4.853   4.672   5.137
    3SAPS  H11Y  377   4.708   4.718   5.239
    3SAPS  C312  378   4.690   4.566   5.086
    3SAPS  H12X  379   4.671   4.642   5.008
    3SAPS  H12Y  380   4.593   4.526   5.122
    3SAPS  C313  381   4.759   4.456   5.003
    3SAPS  H13X  382   4.676   4.410   4.945
    3SAPS  H13Y  383   4.814   4.382   5.066
    3SAPS  C314  384   4.862   4.516   4.909
    3SAPS  H14X  385   4.924   4.585   4.970
    3SAPS  H14Y  386   4.817   4.572   4.825
    3SAPS  C315  387   4.944   4.410   4.836
    3SAPS  H15X  388   4.879   4.337   4.783
    3SAPS  H15Y  389   5.006   4.354   4.909
    3SAPS  C316  390   5.045   4.469   4.735
    3SAPS  H16X  391   5.126   4.518   4.792
    3SAPS  H16Y  392   4.998   4.547   4.672
    3SAPS  C317  393   5.092   4.352   4.642
    3SAPS  H17X  394   5.006   4.318   4.580
    3SAPS  H17Y  395   5.119   4.262   4.702
    3SAPS  C318  396   5.207   4.405   4.555
    3SAPS  H18X  397   5.251   4.320   4.499
    3SAPS  H18Y  398   5.295   4.443   4.613
    3SAPS  H18Z  399   5.175   4.490   4.491
    4SAPS     N  400   2.168   2.544   6.540
    4SAPS   HN1  401   2.072   2.583   6.538
    4SAPS   HN2  402   2.228   2.628   6.552
    4SAPS   HN3  403   2.187   2.495   6.450
    4SAPS   C12  404   2.186   2.449   6.654
    4SAPS  H12A  405   2.290   2.421   6.647
    4SAPS   C13  406   2.154   2.503   6.797
    4SAPS  O13A  407   2.115   2.623   6.808
    4SAPS  O13B  408   2.203   2.441   6.899
    4SAPS   C11  409   2.089   2.333   6.632
    4SAPS  H11A  410   1.986   2.367   6.652
    4SAPS  H11B  411   2.118   2.255   6.706
    4SAPS     P  412   2.032   2.149   6.466
    4SAPS   O13  413   2.071   2.102   6.330
    4SAPS   O14  414   2.044   2.048   6.571
    4SAPS   O12  415   2.105   2.276   6.500
    4SAPS   O11  416   1.881   2.197   6.458
    4SAPS    C1  417   1.845   2.322   6.395
    4SAPS    HA  418   1.842   2.398   6.476
    4SAPS    HB  419   1.925   2.352   6.324
    4SAPS    C2  420   1.718   2.311   6.304
    4SAPS    HS  421   1.754   2.282   6.203
    4SAPS   O21  422   1.655   2.442   6.313
    4SAPS   C21  423   1.706   2.538   6.236
    4SAPS   O22  424   1.793   2.517   6.152
    4SAPS   C22  425   1.624   2.664   6.277
    4SAPS   H2R  426   1.518   2.658   6.246
    4SAPS   H2S  427   1.620   2.676   6.387
    4SAPS    C3  428   1.612   2.206   6.361
    4SAPS    HX  429   1.601   2.218   6.471
    4SAPS    HY  430   1.672   2.112   6.359
    4SAPS   O31  431   1.493   2.185   6.286
    4SAPS   C31  432   1.375   2.236   6.331
    4SAPS   O32  433   1.364   2.327   6.412
    4SAPS   C32  434   1.255   2.174   6.257
    4SAPS   H2X  435   1.170   2.181   6.329
    4SAPS   H2Y  436   1.290   2.069   6.247
    4SAPS   C23  437   1.680   2.791   6.211
    4SAPS   H3R  438   1.700   2.776   6.102
    4SAPS   H3S  439   1.785   2.807   6.243
    4SAPS   C24  440   1.611   2.932   6.221
    4SAPS   H4R  441   1.663   3.020   6.178
    4SAPS   H4S  442   1.590   2.954   6.328
    4SAPS   C25  443   1.473   2.915   6.159
    4SAPS   H5R  444   1.399   2.892   6.237
    4SAPS   C26  445   1.444   2.940   6.029
    4SAPS   H6R  446   1.336   2.941   6.009
    4SAPS   C27  447   1.537   2.964   5.916
    4SAPS   H7R  448   1.642   2.992   5.939
    4SAPS   H7S  449   1.501   3.042   5.845
    4SAPS   C28  450   1.561   2.836   5.838
    4SAPS   H8R  451   1.503   2.751   5.877
    4SAPS   C29  452   1.637   2.814   5.729
    4SAPS   H9R  453   1.654   2.709   5.700
    4SAPS  C210  454   1.726   2.905   5.656
    4SAPS  H10R  455   1.714   3.013   5.682
    4SAPS  H10S  456   1.676   2.902   5.557
    4SAPS  C211  457   1.871   2.870   5.639
    4SAPS  H11R  458   1.938   2.853   5.724
    4SAPS  C212  459   1.934   2.867   5.524
    4SAPS  H12R  460   2.041   2.848   5.535
    4SAPS  C213  461   1.882   2.881   5.385
    4SAPS  H13R  462   1.969   2.892   5.316
    4SAPS  H13S  463   1.818   2.971   5.382
    4SAPS  C214  464   1.796   2.773   5.327
    4SAPS  H14R  465   1.780   2.693   5.401
    4SAPS  C215  466   1.765   2.744   5.199
    4SAPS  H15R  467   1.683   2.673   5.181
    4SAPS  C216  468   1.789   2.823   5.071
    4SAPS  H16R  469   1.848   2.915   5.092
    4SAPS  H16S  470   1.694   2.868   5.034
    4SAPS  C217  471   1.862   2.744   4.955
    4SAPS  H17R  472   1.961   2.715   4.997
    4SAPS  H17S  473   1.877   2.823   4.879
    4SAPS  C218  474   1.780   2.624   4.902
    4SAPS  H18R  475   1.687   2.669   4.861
    4SAPS  H18S  476   1.762   2.546   4.978
    4SAPS  C219  477   1.829   2.566   4.768
    4SAPS  H19R  478   1.801   2.459   4.771
    4SAPS  H19S  479   1.939   2.571   4.783
    4SAPS  C220  480   1.787   2.627   4.638
    4SAPS  H20R  481   1.677   2.614   4.623
    4SAPS  H20S  482   1.845   2.581   4.554
    4SAPS  H20T  483   1.811   2.735   4.637
    4SAPS   C33  484   1.212   2.251   6.135
    4SAPS   H3X  485   1.193   2.356   6.163
    4SAPS   H3Y  486   1.117   2.217   6.086
    4SAPS   C34  487   1.317   2.239   6.024
    4SAPS   H4X  488   1.337   2.130   6.012
    4SAPS   H4Y  489   1.403   2.290   6.073
    4SAPS   C35  490   1.276   2.303   5.897
    4SAPS   H5X  491   1.247   2.406   5.924
    4SAPS   H5Y  492   1.181   2.252   5.871
    4SAPS   C36  493   1.373   2.291   5.785
    4SAPS   H6X  494   1.388   2.186   5.751
    4SAPS   H6Y  495   1.476   2.324   5.812
    4SAPS   C37  496   1.332   2.374   5.658
    4SAPS   H7X  497   1.380   2.471   5.684
    4SAPS   H7Y  498   1.223   2.391   5.644
    4SAPS   C38  499   1.400   2.318   5.534
    4SAPS   H8X  500   1.352   2.219   5.519
    4SAPS   H8Y  501   1.505   2.305   5.567
    4SAPS   C39  502   1.375   2.399   5.407
    4SAPS   H9X  503   1.424   2.499   5.417
    4SAPS   H9Y  504   1.266   2.416   5.396
    4SAPS  C310  505   1.426   2.317   5.282
    4SAPS  H10X  506   1.386   2.214   5.280
    4SAPS  H10Y  507   1.537   2.326   5.283
    4SAPS  C311  508   1.384   2.392   5.154
    4SAPS  H11X  509   1.379   2.503   5.154
    4SAPS  H11Y  510   1.276   2.369   5.149
    4SAPS  C312  511   1.448   2.351   5.015
    4SAPS  H12X  512   1.450   2.240   5.004
    4SAPS  H12Y  513   1.552   2.388   5.027
    4SAPS  C313  514   1.389   2.416   4.888
    4SAPS  H13X  515   1.400   2.525   4.906
    4SAPS  H13Y  516   1.280   2.392   4.889
    4SAPS  C314  517   1.471   2.376   4.763
    4SAPS  H14X  518   1.447   2.272   4.734
    4SAPS  H14Y  519   1.579   2.379   4.787
    4SAPS  C315  520   1.442   2.457   4.639
    4SAPS  H15X  521   1.480   2.561   4.653
    4SAPS  H15Y  522   1.331   2.466   4.639
    4SAPS  C316  523   1.507   2.397   4.519
    4SAPS  H16X  524   1.446   2.306   4.502
    4SAPS  H16Y  525   1.614   2.378   4.541
    4SAPS  C317  526   1.495   2.491   4.396
    4SAPS  H17X  527   1.570   2.460   4.320
    4SAPS  H17Y  528   1.518   2.596   4.422
    4SAPS  C318  529   1.362   2.483   4.321
    4SAPS  H18X  530   1.339   2.380   4.286
    4SAPS  H18Y  531   1.372   2.554   4.236
    4SAPS  H18Z  532   1.287   2.517   4.395
    5SAPS     N  533   4.673   4.533   6.621
    5SAPS   HN1  534   4.726   4.574   6.541
    5SAPS   HN2  535   4.642   4.438   6.591
    5SAPS   HN3  536   4.585   4.583   6.642
    5SAPS   C12  537   4.768   4.526   6.737
    5SAPS  H12A  538   4.781   4.627   6.771
    5SAPS   C13  539   4.731   4.436   6.861
    5SAPS  O13A  540   4.649   4.349   6.842
    5SAPS  O13B  541   4.799   4.443   6.969
    5SAPS   C11  542   4.907   4.479   6.691
    5SAPS  H11A  543   4.899   4.380   6.641
    5SAPS  H11B  544   4.973   4.472   6.781
    5SAPS     P  545   5.106   4.589   6.555
    5SAPS   O13  546   5.114   4.674   6.440
    5SAPS   O14  547   5.192   4.623   6.675
    5SAPS   O12  548   4.952   4.586   6.601
    5SAPS   O11  549   5.133   4.437   6.522
    5SAPS    C1  550   5.256   4.377   6.545
    5SAPS    HA  551   5.338   4.452   6.549
    5SAPS    HB  552   5.259   4.317   6.638
    5SAPS    C2  553   5.279   4.278   6.426
    5SAPS    HS  554   5.388   4.255   6.431
    5SAPS   O21  555   5.246   4.335   6.296
    5SAPS   C21  556   5.310   4.451   6.259
    5SAPS   O22  557   5.408   4.492   6.320
    5SAPS   C22  558   5.253   4.503   6.131
    5SAPS   H2R  559   5.159   4.449   6.104
    5SAPS   H2S  560   5.213   4.607   6.135
    5SAPS    C3  561   5.211   4.128   6.440
    5SAPS    HX  562   5.102   4.149   6.434
    5SAPS    HY  563   5.237   4.089   6.541
    5SAPS   O31  564   5.263   4.034   6.348
    5SAPS   C31  565   5.203   4.020   6.235
    5SAPS   O32  566   5.089   4.053   6.203
    5SAPS   C32  567   5.311   3.970   6.136
    5SAPS   H2X  568   5.391   3.909   6.185
    5SAPS   H2Y  569   5.353   4.066   6.101
    5SAPS   C23  570   5.354   4.509   6.019
    5SAPS   H3R  571   5.446   4.562   6.052
    5SAPS   H3S  572   5.319   4.567   5.931
    5SAPS   C24  573   5.396   4.371   5.957
    5SAPS   H4R  574   5.462   4.321   6.031
    5SAPS   H4S  575   5.466   4.399   5.876
    5SAPS   C25  576   5.272   4.304   5.908
    5SAPS   H5R  577   5.198   4.304   5.989
    5SAPS   C26  578   5.239   4.245   5.794
    5SAPS   H6R  579   5.140   4.198   5.786
    5SAPS   C27  580   5.317   4.219   5.672
    5SAPS   H7R  581   5.277   4.129   5.621
    5SAPS   H7S  582   5.425   4.192   5.681
    5SAPS   C28  583   5.313   4.340   5.586
    5SAPS   H8R  584   5.343   4.434   5.633
    5SAPS   C29  585   5.291   4.333   5.446
    5SAPS   H9R  586   5.284   4.432   5.400
    5SAPS  C210  587   5.252   4.209   5.371
    5SAPS  H10R  588   5.189   4.141   5.431
    5SAPS  H10S  589   5.346   4.154   5.347
    5SAPS  C211  590   5.188   4.243   5.241
    5SAPS  H11R  591   5.080   4.218   5.243
    5SAPS  C212  592   5.238   4.290   5.125
    5SAPS  H12R  593   5.183   4.285   5.030
    5SAPS  C213  594   5.382   4.333   5.102
    5SAPS  H13R  595   5.419   4.277   5.014
    5SAPS  H13S  596   5.448   4.320   5.190
    5SAPS  C214  597   5.380   4.479   5.045
    5SAPS  H14R  598   5.331   4.495   4.948
    5SAPS  C215  599   5.430   4.589   5.104
    5SAPS  H15R  600   5.407   4.687   5.060
    5SAPS  C216  601   5.503   4.603   5.237
    5SAPS  H16R  602   5.608   4.637   5.225
    5SAPS  H16S  603   5.503   4.506   5.291
    5SAPS  C217  604   5.435   4.710   5.329
    5SAPS  H17R  605   5.328   4.678   5.334
    5SAPS  H17S  606   5.441   4.813   5.288
    5SAPS  C218  607   5.488   4.709   5.478
    5SAPS  H18R  608   5.599   4.706   5.484
    5SAPS  H18S  609   5.459   4.622   5.540
    5SAPS  C219  610   5.427   4.830   5.555
    5SAPS  H19R  611   5.316   4.829   5.553
    5SAPS  H19S  612   5.461   4.927   5.513
    5SAPS  C220  613   5.457   4.839   5.705
    5SAPS  H20R  614   5.480   4.743   5.755
    5SAPS  H20S  615   5.376   4.902   5.747
    5SAPS  H20T  616   5.553   4.893   5.722
    5SAPS   C33  617   5.265   3.905   6.008
    5SAPS   H3X  618   5.174   3.949   5.961
    5SAPS   H3Y  619   5.229   3.800   6.019
    5SAPS   C34  620   5.373   3.911   5.898
    5SAPS   H4X  621   5.459   3.853   5.936
    5SAPS   H4Y  622   5.403   4.018   5.900
    5SAPS   C35  623   5.314   3.870   5.760
    5SAPS   H5X  624   5.222   3.926   5.732
    5SAPS   H5Y  625   5.287   3.762   5.769
    5SAPS   C36  626   5.408   3.877   5.642
    5SAPS   H6X  627   5.498   3.814   5.661
    5SAPS   H6Y  628   5.442   3.983   5.632
    5SAPS   C37  629   5.347   3.825   5.515
    5SAPS   H7X  630   5.255   3.882   5.490
    5SAPS   H7Y  631   5.311   3.720   5.524
    5SAPS   C38  632   5.441   3.830   5.389
    5SAPS   H8X  633   5.514   3.749   5.411
    5SAPS   H8Y  634   5.492   3.929   5.390
    5SAPS   C39  635   5.376   3.817   5.255
    5SAPS   H9X  636   5.316   3.908   5.236
    5SAPS   H9Y  637   5.303   3.732   5.258
    5SAPS  C310  638   5.475   3.792   5.142
    5SAPS  H10X  639   5.550   3.713   5.164
    5SAPS  H10Y  640   5.542   3.880   5.150
    5SAPS  C311  641   5.412   3.771   5.006
    5SAPS  H11X  642   5.302   3.780   5.007
    5SAPS  H11Y  643   5.435   3.671   4.964
    5SAPS  C312  644   5.452   3.875   4.897
    5SAPS  H12X  645   5.406   3.859   4.797
    5SAPS  H12Y  646   5.560   3.872   4.870
    5SAPS  C313  647   5.413   4.017   4.942
    5SAPS  H13X  648   5.485   4.057   5.017
    5SAPS  H13Y  649   5.327   4.004   5.010
    5SAPS  C314  650   5.388   4.110   4.819
    5SAPS  H14X  651   5.377   4.218   4.842
    5SAPS  H14Y  652   5.305   4.065   4.761
    5SAPS  C315  653   5.515   4.115   4.730
    5SAPS  H15X  654   5.524   4.013   4.688
    5SAPS  H15Y  655   5.599   4.139   4.799
    5SAPS  C316  656   5.506   4.209   4.611
    5SAPS  H16X  657   5.534   4.311   4.644
    5SAPS  H16Y  658   5.416   4.191   4.548
    5SAPS  C317  659   5.614   4.179   4.501
    5SAPS  H17X  660   5.589   4.100   4.427
    5SAPS  H17Y  661   5.713   4.158   4.547
    5SAPS  C318  662   5.631   4.306   4.418
    5SAPS  H18X  663   5.719   4.293   4.351
    5SAPS  H18Y  664   5.644   4.391   4.488
    5SAPS  H18Z  665   5.538   4.320   4.359
    6SAPS     N  666   2.394   4.248   6.932
    6SAPS   HN1  667   2.321   4.185   6.894
    6SAPS   HN2  668   2.347   4.313   6.998
    6SAPS   HN3  669   2.424   4.307   6.852
    6SAPS   C12  670   2.513   4.187   7.003
    6SAPS  H12A  671   2.586   4.266   7.007
    6SAPS   C13  672   2.496   4.138   7.147
    6SAPS  O13A  673   2.374   4.114   7.187
    6SAPS  O13B  674   2.594   4.094   7.214
    6SAPS   C11  675   2.583   4.077   6.916
    6SAPS  H11A  676   2.514   3.991   6.910
    6SAPS  H11B  677   2.669   4.029   6.968
    6SAPS     P  678   2.740   4.151   6.726
    6SAPS   O13  679   2.776   4.277   6.791
    6SAPS   O14  680   2.833   4.040   6.743
    6SAPS   O12  681   2.601   4.113   6.778
    6SAPS   O11  682   2.708   4.185   6.575
    6SAPS    C1  683   2.732   4.089   6.471
    6SAPS    HA  684   2.715   3.984   6.505
    6SAPS    HB  685   2.646   4.086   6.401
    6SAPS    C2  686   2.865   4.114   6.408
    6SAPS    HS  687   2.939   4.150   6.482
    6SAPS   O21  688   2.829   4.209   6.305
    6SAPS   C21  689   2.906   4.309   6.283
    6SAPS   O22  690   3.007   4.344   6.334
    6SAPS   C22  691   2.846   4.408   6.180
    6SAPS   H2R  692   2.793   4.351   6.100
    6SAPS   H2S  693   2.771   4.476   6.225
    6SAPS    C3  694   2.922   3.984   6.347
    6SAPS    HX  695   2.846   3.960   6.269
    6SAPS    HY  696   2.934   3.905   6.424
    6SAPS   O31  697   3.051   4.004   6.285
    6SAPS   C31  698   3.072   3.987   6.155
    6SAPS   O32  699   2.994   3.926   6.082
    6SAPS   C32  700   3.217   4.036   6.117
    6SAPS   H2X  701   3.277   3.952   6.074
    6SAPS   H2Y  702   3.267   4.057   6.214
    6SAPS   C23  703   2.951   4.495   6.107
    6SAPS   H3R  704   3.021   4.423   6.060
    6SAPS   H3S  705   3.010   4.550   6.183
    6SAPS   C24  706   2.903   4.585   5.994
    6SAPS   H4R  707   2.824   4.529   5.940
    6SAPS   H4S  708   2.985   4.612   5.924
    6SAPS   C25  709   2.849   4.720   6.051
    6SAPS   H5R  710   2.805   4.713   6.152
    6SAPS   C26  711   2.851   4.835   5.985
    6SAPS   H6R  712   2.805   4.925   6.029
    6SAPS   C27  713   2.906   4.854   5.847
    6SAPS   H7R  714   2.997   4.790   5.843
    6SAPS   H7S  715   2.932   4.960   5.830
    6SAPS   C28  716   2.810   4.809   5.742
    6SAPS   H8R  717   2.741   4.727   5.765
    6SAPS   C29  718   2.805   4.852   5.617
    6SAPS   H9R  719   2.721   4.813   5.557
    6SAPS  C210  720   2.898   4.951   5.547
    6SAPS  H10R  721   3.004   4.930   5.573
    6SAPS  H10S  722   2.881   5.054   5.585
    6SAPS  C211  723   2.880   4.939   5.397
    6SAPS  H11R  724   2.947   4.871   5.342
    6SAPS  C212  725   2.792   5.011   5.326
    6SAPS  H12R  726   2.772   4.992   5.220
    6SAPS  C213  727   2.704   5.110   5.390
    6SAPS  H13R  728   2.762   5.205   5.402
    6SAPS  H13S  729   2.679   5.084   5.495
    6SAPS  C214  730   2.582   5.148   5.310
    6SAPS  H14R  731   2.487   5.100   5.339
    6SAPS  C215  732   2.573   5.244   5.218
    6SAPS  H15R  733   2.476   5.242   5.166
    6SAPS  C216  734   2.687   5.338   5.172
    6SAPS  H16R  735   2.776   5.325   5.238
    6SAPS  H16S  736   2.641   5.437   5.193
    6SAPS  C217  737   2.736   5.327   5.027
    6SAPS  H17R  738   2.791   5.232   5.008
    6SAPS  H17S  739   2.818   5.402   5.016
    6SAPS  C218  740   2.630   5.357   4.922
    6SAPS  H18R  741   2.588   5.460   4.935
    6SAPS  H18S  742   2.539   5.296   4.939
    6SAPS  C219  743   2.677   5.339   4.775
    6SAPS  H19R  744   2.590   5.373   4.716
    6SAPS  H19S  745   2.689   5.229   4.765
    6SAPS  C220  746   2.803   5.423   4.741
    6SAPS  H20R  747   2.786   5.532   4.749
    6SAPS  H20S  748   2.844   5.405   4.639
    6SAPS  H20T  749   2.883   5.400   4.815
    6SAPS   C33  750   3.217   4.164   6.034
    6SAPS   H3X  751   3.317   4.212   6.046
    6SAPS   H3Y  752   3.146   4.245   6.062
    6SAPS   C34  753   3.180   4.124   5.891
    6SAPS   H4X  754   3.076   4.085   5.897
    6SAPS   H4Y  755   3.250   4.042   5.865
    6SAPS   C35  756   3.200   4.231   5.786
    6SAPS   H5X  757   3.299   4.278   5.799
    6SAPS   H5Y  758   3.116   4.305   5.789
    6SAPS   C36  759   3.194   4.166   5.643
    6SAPS   H6X  760   3.100   4.114   5.615
    6SAPS   H6Y  761   3.292   4.116   5.629
    6SAPS   C37  762   3.199   4.276   5.528
    6SAPS   H7X  763   3.298   4.327   5.533
    6SAPS   H7Y  764   3.121   4.346   5.565
    6SAPS   C38  765   3.157   4.228   5.391
    6SAPS   H8X  766   3.054   4.190   5.408
    6SAPS   H8Y  767   3.207   4.133   5.361
    6SAPS   C39  768   3.165   4.326   5.279
    6SAPS   H9X  769   3.269   4.363   5.295
    6SAPS   H9Y  770   3.092   4.408   5.293
    6SAPS  C310  771   3.154   4.264   5.132
    6SAPS  H10X  772   3.050   4.233   5.109
    6SAPS  H10Y  773   3.225   4.185   5.102
    6SAPS  C311  774   3.183   4.380   5.029
    6SAPS  H11X  775   3.286   4.394   4.990
    6SAPS  H11Y  776   3.147   4.481   5.059
    6SAPS  C312  777   3.091   4.359   4.910
    6SAPS  H12X  778   2.987   4.329   4.932
    6SAPS  H12Y  779   3.130   4.276   4.847
    6SAPS  C313  780   3.074   4.487   4.828
    6SAPS  H13X  781   3.029   4.552   4.906
    6SAPS  H13Y  782   2.996   4.475   4.751
    6SAPS  C314  783   3.196   4.559   4.777
    6SAPS  H14X  784   3.261   4.489   4.720
    6SAPS  H14Y  785   3.253   4.586   4.868
    6SAPS  C315  786   3.162   4.689   4.705
    6SAPS  H15X  787   3.239   4.769   4.704
    6SAPS  H15Y  788   3.071   4.729   4.754
    6SAPS  C316  789   3.129   4.660   4.559
    6SAPS  H16X  790   3.041   4.591   4.565
    6SAPS  H16Y  791   3.214   4.607   4.512
    6SAPS  C317  792   3.070   4.775   4.480
    6SAPS  H17X  793   3.137   4.863   4.492
    6SAPS  H17Y  794   2.969   4.810   4.510
    6SAPS  C318  795   3.065   4.742   4.327
    6SAPS  H18X  796   3.162   4.725   4.276
    6SAPS  H18Y  797   3.002   4.809   4.264
    6SAPS  H18Z  798   3.024   4.640   4.313
    7SAPS     N  799   2.736   0.128   6.886
    7SAPS   HN1  800   2.774   0.189   6.961
    7SAPS   HN2  801   2.663   0.056   6.904
    7SAPS   HN3  802   2.823   0.086   6.846
    7SAPS   C12  803   2.677   0.217   6.771
    7SAPS  H12A  804   2.618   0.169   6.695
    7SAPS   C13  805   2.598   0.337   6.834
    7SAPS  O13A  806   2.583   0.338   6.958
    7SAPS  O13B  807   2.553   0.433   6.761
    7SAPS   C11  808   2.802   0.282   6.700
    7SAPS  H11A  809   2.854   0.351   6.770
    7SAPS  H11B  810   2.747   0.342   6.624
    7SAPS     P  811   2.977   0.228   6.505
    7SAPS   O13  812   3.036   0.361   6.515
    7SAPS   O14  813   3.074   0.118   6.467
    7SAPS   O12  814   2.899   0.199   6.637
    7SAPS   O11  815   2.858   0.229   6.395
    7SAPS    C1  816   2.774   0.112   6.382
    7SAPS    HA  817   2.838   0.022   6.395
    7SAPS    HB  818   2.698   0.116   6.463
    7SAPS    C2  819   2.705   0.120   6.247
    7SAPS    HS  820   2.662   0.021   6.222
    7SAPS   O21  821   2.803   0.157   6.150
    7SAPS   C21  822   2.903   0.071   6.126
    7SAPS   O22  823   2.918   6.802   6.178
    7SAPS   C22  824   3.014   0.126   6.028
    7SAPS   H2R  825   3.008   0.058   5.940
    7SAPS   H2S  826   2.986   0.230   5.999
    7SAPS    C3  827   2.591   0.226   6.255
    7SAPS    HX  828   2.643   0.323   6.271
    7SAPS    HY  829   2.521   0.197   6.336
    7SAPS   O31  830   2.519   0.225   6.124
    7SAPS   C31  831   2.541   0.326   6.038
    7SAPS   O32  832   2.607   0.428   6.057
    7SAPS   C32  833   2.445   0.306   5.908
    7SAPS   H2X  834   2.343   0.309   5.953
    7SAPS   H2Y  835   2.466   0.207   5.862
    7SAPS   C23  836   3.152   0.112   6.075
    7SAPS   H3R  837   3.182   0.006   6.060
    7SAPS   H3S  838   3.175   0.129   6.182
    7SAPS   C24  839   3.267   0.188   6.013
    7SAPS   H4R  840   3.355   0.149   6.068
    7SAPS   H4S  841   3.255   0.296   6.038
    7SAPS   C25  842   3.275   0.159   5.867
    7SAPS   H5R  843   3.251   0.056   5.836
    7SAPS   C26  844   3.314   0.259   5.782
    7SAPS   H6R  845   3.325   0.234   5.676
    7SAPS   C27  846   3.348   0.412   5.797
    7SAPS   H7R  847   3.450   0.423   5.753
    7SAPS   H7S  848   3.357   0.443   5.903
    7SAPS   C28  849   3.245   0.511   5.736
    7SAPS   H8R  850   3.186   0.572   5.806
    7SAPS   C29  851   3.223   0.535   5.603
    7SAPS   H9R  852   3.140   0.605   5.585
    7SAPS  C210  853   3.287   0.482   5.478
    7SAPS  H10R  854   3.225   0.488   5.386
    7SAPS  H10S  855   3.306   0.373   5.486
    7SAPS  C211  856   3.426   0.534   5.449
    7SAPS  H11R  857   3.491   0.540   5.538
    7SAPS  C212  858   3.478   0.589   5.335
    7SAPS  H12R  859   3.587   0.606   5.337
    7SAPS  C213  860   3.412   0.584   5.205
    7SAPS  H13R  861   3.408   0.689   5.167
    7SAPS  H13S  862   3.306   0.552   5.219
    7SAPS  C214  863   3.491   0.498   5.113
    7SAPS  H14R  864   3.513   0.401   5.159
    7SAPS  C215  865   3.529   0.512   4.978
    7SAPS  H15R  866   3.584   0.435   4.922
    7SAPS  C216  867   3.486   0.635   4.900
    7SAPS  H16R  868   3.555   0.662   4.817
    7SAPS  H16S  869   3.488   0.728   4.961
    7SAPS  C217  870   3.343   0.623   4.838
    7SAPS  H17R  871   3.265   0.612   4.916
    7SAPS  H17S  872   3.351   0.536   4.769
    7SAPS  C218  873   3.296   0.740   4.750
    7SAPS  H18R  874   3.382   0.772   4.688
    7SAPS  H18S  875   3.264   0.833   4.801
    7SAPS  C219  876   3.184   0.701   4.648
    7SAPS  H19R  877   3.096   0.664   4.705
    7SAPS  H19S  878   3.223   0.607   4.602
    7SAPS  C220  879   3.150   0.809   4.550
    7SAPS  H20R  880   3.233   0.844   4.484
    7SAPS  H20S  881   3.112   0.900   4.601
    7SAPS  H20T  882   3.065   0.782   4.484
    7SAPS   C33  883   2.465   0.404   5.791
    7SAPS   H3X  884   2.573   0.413   5.769
    7SAPS   H3Y  885   2.433   0.509   5.807
    7SAPS   C34  886   2.412   0.352   5.660
    7SAPS   H4X  887   2.301   0.347   5.656
    7SAPS   H4Y  888   2.437   0.245   5.641
    7SAPS   C35  889   2.467   0.437   5.547
    7SAPS   H5X  890   2.574   0.421   5.520
    7SAPS   H5Y  891   2.446   0.545   5.564
    7SAPS   C36  892   2.391   0.412   5.413
    7SAPS   H6X  893   2.284   0.438   5.430
    7SAPS   H6Y  894   2.396   0.305   5.383
    7SAPS   C37  895   2.451   0.507   5.303
    7SAPS   H7X  896   2.532   0.439   5.269
    7SAPS   H7Y  897   2.503   0.596   5.347
    7SAPS   C38  898   2.359   0.556   5.184
    7SAPS   H8X  899   2.265   0.591   5.231
    7SAPS   H8Y  900   2.337   0.460   5.133
    7SAPS   C39  901   2.418   0.669   5.091
    7SAPS   H9X  902   2.522   0.639   5.062
    7SAPS   H9Y  903   2.437   0.763   5.147
    7SAPS  C310  904   2.322   0.703   4.975
    7SAPS  H10X  905   2.223   0.731   5.016
    7SAPS  H10Y  906   2.323   0.623   4.898
    7SAPS  C311  907   2.371   0.822   4.893
    7SAPS  H11X  908   2.481   0.823   4.877
    7SAPS  H11Y  909   2.373   0.902   4.970
    7SAPS  C312  910   2.302   0.855   4.763
    7SAPS  H12X  911   2.196   0.825   4.775
    7SAPS  H12Y  912   2.338   0.786   4.684
    7SAPS  C313  913   2.316   0.996   4.704
    7SAPS  H13X  914   2.422   1.022   4.720
    7SAPS  H13Y  915   2.263   1.074   4.762
    7SAPS  C314  916   2.288   0.996   4.547
    7SAPS  H14X  917   2.180   1.001   4.522
    7SAPS  H14Y  918   2.328   0.898   4.512
    7SAPS  C315  919   2.360   1.104   4.466
    7SAPS  H15X  920   2.463   1.069   4.439
    7SAPS  H15Y  921   2.370   1.200   4.520
    7SAPS  C316  922   2.293   1.136   4.338
    7SAPS  H16X  923   2.316   1.239   4.305
    7SAPS  H16Y  924   2.183   1.132   4.356
    7SAPS  C317  925   2.322   1.023   4.237
    7SAPS  H17X  926   2.310   0.930   4.296
    7SAPS  H17Y  927   2.428   1.013   4.205
    7SAPS  C318  928   2.227   1.014   4.115
    7SAPS  H18X  929   2.119   1.022   4.136
    7SAPS  H18Y  930   2.244   0.915   4.067
    7SAPS  H18Z  931   2.247   1.098   4.046
    8SAPS     N  932   1.818   1.427   6.594
    8SAPS   HN1  933   1.811   1.347   6.529
    8SAPS   HN2  934   1.735   1.419   6.657
    8SAPS   HN3  935   1.806   1.518   6.544
    8SAPS   C12  936   1.940   1.426   6.681
    8SAPS  H12A  937   1.933   1.518   6.736
    8SAPS   C13  938   1.942   1.308   6.781
    8SAPS  O13A  939   1.837   1.232   6.796
    8SAPS  O13B  940   2.036   1.298   6.866
    8SAPS   C11  941   2.068   1.419   6.597
    8SAPS  H11A  942   2.072   1.329   6.531
    8SAPS  H11B  943   2.151   1.397   6.667
    8SAPS     P  944   2.225   1.623   6.530
    8SAPS   O13  945   2.229   1.723   6.417
    8SAPS   O14  946   2.252   1.679   6.664
    8SAPS   O12  947   2.089   1.542   6.531
    8SAPS   O11  948   2.337   1.511   6.502
    8SAPS    C1  949   2.347   1.454   6.367
    8SAPS    HA  950   2.383   1.349   6.374
    8SAPS    HB  951   2.251   1.450   6.310
    8SAPS    C2  952   2.457   1.524   6.279
    8SAPS    HS  953   2.416   1.623   6.249
    8SAPS   O21  954   2.490   1.439   6.168
    8SAPS   C21  955   2.423   1.470   6.058
    8SAPS   O22  956   2.359   1.570   6.039
    8SAPS   C22  957   2.459   1.364   5.946
    8SAPS   H2R  958   2.479   1.269   6.001
    8SAPS   H2S  959   2.374   1.358   5.875
    8SAPS    C3  960   2.577   1.555   6.372
    8SAPS    HX  961   2.599   1.468   6.437
    8SAPS    HY  962   2.546   1.640   6.437
    8SAPS   O31  963   2.697   1.582   6.302
    8SAPS   C31  964   2.695   1.693   6.235
    8SAPS   O32  965   2.599   1.767   6.211
    8SAPS   C32  966   2.838   1.718   6.177
    8SAPS   H2X  967   2.908   1.642   6.218
    8SAPS   H2Y  968   2.867   1.821   6.207
    8SAPS   C23  969   2.594   1.387   5.872
    8SAPS   H3R  970   2.675   1.418   5.941
    8SAPS   H3S  971   2.578   1.478   5.810
    8SAPS   C24  972   2.639   1.275   5.781
    8SAPS   H4R  973   2.722   1.313   5.717
    8SAPS   H4S  974   2.560   1.238   5.711
    8SAPS   C25  975   2.675   1.152   5.858
    8SAPS   H5R  976   2.777   1.145   5.901
    8SAPS   C26  977   2.590   1.051   5.890
    8SAPS   H6R  978   2.627   0.971   5.956
    8SAPS   C27  979   2.451   1.022   5.835
    8SAPS   H7R  980   2.415   1.091   5.755
    8SAPS   H7S  981   2.383   1.053   5.916
    8SAPS   C28  982   2.429   0.881   5.803
    8SAPS   H8R  983   2.475   0.809   5.873
    8SAPS   C29  984   2.387   0.829   5.685
    8SAPS   H9R  985   2.363   0.722   5.695
    8SAPS  C210  986   2.331   0.897   5.562
    8SAPS  H10R  987   2.308   1.004   5.584
    8SAPS  H10S  988   2.235   0.848   5.536
    8SAPS  C211  989   2.423   0.876   5.451
    8SAPS  H11R  990   2.437   0.773   5.416
    8SAPS  C212  991   2.481   0.964   5.368
    8SAPS  H12R  992   2.553   0.926   5.293
    8SAPS  C213  993   2.473   1.113   5.390
    8SAPS  H13R  994   2.429   1.134   5.489
    8SAPS  H13S  995   2.398   1.144   5.314
    8SAPS  C214  996   2.607   1.181   5.374
    8SAPS  H14R  997   2.665   1.179   5.468
    8SAPS  C215  998   2.641   1.256   5.270
    8SAPS  H15R  999   2.742   1.299   5.272
    8SAPS  C216 1000   2.572   1.280   5.137
    8SAPS  H16R 1001   2.570   1.390   5.123
    8SAPS  H16S 1002   2.465   1.248   5.132
    8SAPS  C217 1003   2.662   1.235   5.019
    8SAPS  H17R 1004   2.669   1.124   5.032
    8SAPS  H17S 1005   2.764   1.277   5.030
    8SAPS  C218 1006   2.589   1.252   4.885
    8SAPS  H18R 1007   2.486   1.211   4.874
    8SAPS  H18S 1008   2.644   1.191   4.811
    8SAPS  C219 1009   2.601   1.391   4.822
    8SAPS  H19R 1010   2.701   1.430   4.794
    8SAPS  H19S 1011   2.554   1.452   4.903
    8SAPS  C220 1012   2.525   1.403   4.690
    8SAPS  H20R 1013   2.591   1.347   4.620
    8SAPS  H20S 1014   2.524   1.509   4.657
    8SAPS  H20T 1015   2.423   1.360   4.690
    8SAPS   C33 1016   2.848   1.694   6.022
    8SAPS   H3X 1017   2.818   1.589   5.997
    8SAPS   H3Y 1018   2.954   1.704   5.990
    8SAPS   C34 1019   2.763   1.784   5.936
    8SAPS   H4X 1020   2.777   1.890   5.965
    8SAPS   H4Y 1021   2.654   1.764   5.943
    8SAPS   C35 1022   2.791   1.767   5.780
    8SAPS   H5X 1023   2.862   1.848   5.752
    8SAPS   H5Y 1024   2.698   1.789   5.723
    8SAPS   C36 1025   2.850   1.633   5.729
    8SAPS   H6X 1026   2.770   1.561   5.756
    8SAPS   H6Y 1027   2.939   1.601   5.788
    8SAPS   C37 1028   2.885   1.630   5.577
    8SAPS   H7X 1029   2.950   1.541   5.565
    8SAPS   H7Y 1030   2.952   1.717   5.558
    8SAPS   C38 1031   2.759   1.639   5.486
    8SAPS   H8X 1032   2.699   1.725   5.522
    8SAPS   H8Y 1033   2.697   1.547   5.492
    8SAPS   C39 1034   2.786   1.677   5.341
    8SAPS   H9X 1035   2.841   1.774   5.346
    8SAPS   H9Y 1036   2.700   1.707   5.277
    8SAPS  C310 1037   2.870   1.572   5.272
    8SAPS  H10X 1038   2.825   1.471   5.267
    8SAPS  H10Y 1039   2.964   1.549   5.328
    8SAPS  C311 1040   2.912   1.615   5.129
    8SAPS  H11X 1041   2.987   1.540   5.098
    8SAPS  H11Y 1042   2.975   1.706   5.121
    8SAPS  C312 1043   2.807   1.611   5.015
    8SAPS  H12X 1044   2.715   1.658   5.055
    8SAPS  H12Y 1045   2.779   1.505   4.997
    8SAPS  C313 1046   2.832   1.690   4.890
    8SAPS  H13X 1047   2.836   1.800   4.909
    8SAPS  H13Y 1048   2.750   1.683   4.815
    8SAPS  C314 1049   2.954   1.659   4.814
    8SAPS  H14X 1050   2.962   1.548   4.805
    8SAPS  H14Y 1051   3.042   1.706   4.863
    8SAPS  C315 1052   2.935   1.702   4.664
    8SAPS  H15X 1053   2.943   1.811   4.650
    8SAPS  H15Y 1054   2.833   1.673   4.632
    8SAPS  C316 1055   3.033   1.636   4.557
    8SAPS  H16X 1056   3.031   1.527   4.578
    8SAPS  H16Y 1057   3.133   1.684   4.564
    8SAPS  C317 1058   2.984   1.652   4.403
    8SAPS  H17X 1059   2.880   1.612   4.396
    8SAPS  H17Y 1060   3.045   1.582   4.342
    8SAPS  C318 1061   2.999   1.791   4.350
    8SAPS  H18X 1062   3.076   1.847   4.408
    8SAPS  H18Y 1063   2.912   1.859   4.366
    8SAPS  H18Z 1064   3.031   1.803   4.245
    9SAPS     N 1065   0.727   5.120   6.875
    9SAPS   HN1 1066   0.699   5.215   6.843
    9SAPS   HN2 1067   0.665   5.057   6.820
    9SAPS   HN3 1068   0.700   5.094   6.972
    9SAPS   C12 1069   0.867   5.081   6.851
    9SAPS  H12A 1070   0.875   5.077   6.744
    9SAPS   C13 1071   0.991   5.177   6.877
    9SAPS  O13A 1072   0.978   5.292   6.929
    9SAPS  O13B 1073   1.106   5.128   6.857
    9SAPS   C11 1074   0.890   4.945   6.924
    9SAPS  H11A 1075   0.893   4.957   7.035
    9SAPS  H11B 1076   0.984   4.906   6.881
    9SAPS     P 1077   0.805   4.698   6.906
    9SAPS   O13 1078   0.888   4.662   7.019
    9SAPS   O14 1079   0.675   4.628   6.892
    9SAPS   O12 1080   0.777   4.853   6.897
    9SAPS   O11 1081   0.890   4.689   6.773
    9SAPS    C1 1082   0.832   4.733   6.653
    9SAPS    HA 1083   0.727   4.698   6.639
    9SAPS    HB 1084   0.818   4.843   6.660
    9SAPS    C2 1085   0.902   4.693   6.521
    9SAPS    HS 1086   1.002   4.742   6.519
    9SAPS   O21 1087   0.821   4.727   6.397
    9SAPS   C21 1088   0.820   4.860   6.371
    9SAPS   O22 1089   0.887   4.940   6.436
    9SAPS   C22 1090   0.729   4.889   6.258
    9SAPS   H2R 1091   0.667   4.799   6.240
    9SAPS   H2S 1092   0.677   4.981   6.291
    9SAPS    C3 1093   0.930   4.538   6.536
    9SAPS    HX 1094   0.831   4.488   6.547
    9SAPS    HY 1095   0.984   4.520   6.632
    9SAPS   O31 1096   0.994   4.478   6.427
    9SAPS   C31 1097   1.122   4.500   6.411
    9SAPS   O32 1098   1.195   4.569   6.483
    9SAPS   C32 1099   1.160   4.440   6.281
    9SAPS   H2X 1100   1.132   4.505   6.195
    9SAPS   H2Y 1101   1.092   4.353   6.266
    9SAPS   C23 1102   0.813   4.918   6.131
    9SAPS   H3R 1103   0.736   4.898   6.053
    9SAPS   H3S 1104   0.893   4.843   6.115
    9SAPS   C24 1105   0.866   5.064   6.128
    9SAPS   H4R 1106   0.925   5.070   6.222
    9SAPS   H4S 1107   0.777   5.124   6.159
    9SAPS   C25 1108   0.955   5.109   6.012
    9SAPS   H5R 1109   1.050   5.059   5.989
    9SAPS   C26 1110   0.922   5.216   5.931
    9SAPS   H6R 1111   1.008   5.249   5.871
    9SAPS   C27 1112   0.809   5.305   5.945
    9SAPS   H7R 1113   0.740   5.288   6.030
    9SAPS   H7S 1114   0.738   5.288   5.861
    9SAPS   C28 1115   0.852   5.449   5.964
    9SAPS   H8R 1116   0.866   5.467   6.072
    9SAPS   C29 1117   0.854   5.544   5.872
    9SAPS   H9R 1118   0.879   5.643   5.913
    9SAPS  C210 1119   0.829   5.547   5.717
    9SAPS  H10R 1120   0.886   5.632   5.673
    9SAPS  H10S 1121   0.723   5.575   5.700
    9SAPS  C211 1122   0.857   5.428   5.629
    9SAPS  H11R 1123   0.867   5.335   5.686
    9SAPS  C212 1124   0.863   5.431   5.493
    9SAPS  H12R 1125   0.860   5.335   5.439
    9SAPS  C213 1126   0.853   5.551   5.401
    9SAPS  H13R 1127   0.857   5.647   5.458
    9SAPS  H13S 1128   0.750   5.550   5.360
    9SAPS  C214 1129   0.950   5.564   5.295
    9SAPS  H14R 1130   1.048   5.597   5.333
    9SAPS  C215 1131   0.948   5.508   5.171
    9SAPS  H15R 1132   1.034   5.514   5.103
    9SAPS  C216 1133   0.838   5.427   5.114
    9SAPS  H16R 1134   0.742   5.456   5.161
    9SAPS  H16S 1135   0.855   5.320   5.136
    9SAPS  C217 1136   0.819   5.424   4.961
    9SAPS  H17R 1137   0.746   5.341   4.948
    9SAPS  H17S 1138   0.913   5.409   4.904
    9SAPS  C218 1139   0.747   5.547   4.901
    9SAPS  H18R 1140   0.807   5.639   4.918
    9SAPS  H18S 1141   0.657   5.571   4.961
    9SAPS  C219 1142   0.715   5.533   4.752
    9SAPS  H19R 1143   0.644   5.451   4.725
    9SAPS  H19S 1144   0.802   5.499   4.692
    9SAPS  C220 1145   0.664   5.665   4.688
    9SAPS  H20R 1146   0.558   5.677   4.717
    9SAPS  H20S 1147   0.674   5.664   4.578
    9SAPS  H20T 1148   0.719   5.751   4.734
    9SAPS   C33 1149   1.309   4.399   6.280
    9SAPS   H3X 1150   1.324   4.302   6.227
    9SAPS   H3Y 1151   1.336   4.377   6.385
    9SAPS   C34 1152   1.399   4.513   6.230
    9SAPS   H4X 1153   1.501   4.468   6.227
    9SAPS   H4Y 1154   1.401   4.596   6.303
    9SAPS   C35 1155   1.359   4.581   6.098
    9SAPS   H5X 1156   1.290   4.668   6.104
    9SAPS   H5Y 1157   1.321   4.503   6.029
    9SAPS   C36 1158   1.487   4.633   6.036
    9SAPS   H6X 1159   1.573   4.566   6.054
    9SAPS   H6Y 1160   1.505   4.728   6.090
    9SAPS   C37 1161   1.477   4.645   5.884
    9SAPS   H7X 1162   1.393   4.706   5.846
    9SAPS   H7Y 1163   1.474   4.544   5.837
    9SAPS   C38 1164   1.606   4.704   5.829
    9SAPS   H8X 1165   1.691   4.644   5.870
    9SAPS   H8Y 1166   1.627   4.804   5.872
    9SAPS   C39 1167   1.615   4.692   5.669
    9SAPS   H9X 1168   1.541   4.623   5.623
    9SAPS   H9Y 1169   1.716   4.656   5.643
    9SAPS  C310 1170   1.595   4.819   5.588
    9SAPS  H10X 1171   1.663   4.900   5.623
    9SAPS  H10Y 1172   1.489   4.843   5.611
    9SAPS  C311 1173   1.604   4.793   5.438
    9SAPS  H11X 1174   1.538   4.709   5.409
    9SAPS  H11Y 1175   1.707   4.756   5.418
    9SAPS  C312 1176   1.578   4.922   5.359
    9SAPS  H12X 1177   1.663   4.989   5.385
    9SAPS  H12Y 1178   1.481   4.968   5.387
    9SAPS  C313 1179   1.572   4.893   5.202
    9SAPS  H13X 1180   1.658   4.826   5.182
    9SAPS  H13Y 1181   1.588   4.992   5.154
    9SAPS  C314 1182   1.442   4.838   5.141
    9SAPS  H14X 1183   1.369   4.920   5.126
    9SAPS  H14Y 1184   1.409   4.752   5.203
    9SAPS  C315 1185   1.469   4.776   5.000
    9SAPS  H15X 1186   1.376   4.726   4.964
    9SAPS  H15Y 1187   1.550   4.703   5.018
    9SAPS  C316 1188   1.522   4.874   4.886
    9SAPS  H16X 1189   1.492   4.979   4.910
    9SAPS  H16Y 1190   1.472   4.840   4.793
    9SAPS  C317 1191   1.674   4.876   4.862
    9SAPS  H17X 1192   1.717   4.775   4.848
    9SAPS  H17Y 1193   1.718   4.919   4.955
    9SAPS  C318 1194   1.710   4.953   4.739
    9SAPS  H18X 1195   1.819   4.973   4.739
    9SAPS  H18Y 1196   1.665   5.055   4.741
    9SAPS  H18Z 1197   1.682   4.900   4.645
   10SAPS     N 1198   2.215   4.638   6.787
   10SAPS   HN1 1199   2.312   4.673   6.780
   10SAPS   HN2 1200   2.154   4.710   6.744
   10SAPS   HN3 1201   2.171   4.629   6.881
   10SAPS   C12 1202   2.213   4.518   6.702
   10SAPS  H12A 1203   2.215   4.552   6.600
   10SAPS   C13 1204   2.348   4.442   6.717
   10SAPS  O13A 1205   2.435   4.483   6.796
   10SAPS  O13B 1206   2.360   4.341   6.642
   10SAPS   C11 1207   2.087   4.432   6.741
   10SAPS  H11A 1208   2.084   4.433   6.852
   10SAPS  H11B 1209   2.112   4.327   6.714
   10SAPS     P 1210   1.899   4.438   6.562
   10SAPS   O13 1211   1.899   4.292   6.564
   10SAPS   O14 1212   1.769   4.502   6.551
   10SAPS   O12 1213   1.964   4.489   6.689
   10SAPS   O11 1214   2.002   4.489   6.447
   10SAPS    C1 1215   2.014   4.619   6.405
   10SAPS    HA 1216   1.922   4.680   6.416
   10SAPS    HB 1217   2.086   4.675   6.468
   10SAPS    C2 1218   2.060   4.637   6.254
   10SAPS    HS 1219   1.973   4.586   6.207
   10SAPS   O21 1220   2.174   4.559   6.224
   10SAPS   C21 1221   2.303   4.602   6.237
   10SAPS   O22 1222   2.338   4.702   6.303
   10SAPS   C22 1223   2.402   4.500   6.167
   10SAPS   H2R 1224   2.428   4.426   6.245
   10SAPS   H2S 1225   2.339   4.447   6.092
   10SAPS    C3 1226   2.067   4.786   6.207
   10SAPS    HX 1227   2.128   4.845   6.279
   10SAPS    HY 1228   1.966   4.823   6.232
   10SAPS   O31 1229   2.114   4.799   6.070
   10SAPS   C31 1230   2.012   4.801   5.986
   10SAPS   O32 1231   1.895   4.808   6.016
   10SAPS   C32 1232   2.058   4.794   5.846
   10SAPS   H2X 1233   2.088   4.693   5.811
   10SAPS   H2Y 1234   2.150   4.854   5.832
   10SAPS   C23 1235   2.524   4.581   6.103
   10SAPS   H3R 1236   2.610   4.516   6.078
   10SAPS   H3S 1237   2.562   4.656   6.175
   10SAPS   C24 1238   2.492   4.656   5.972
   10SAPS   H4R 1239   2.574   4.729   5.954
   10SAPS   H4S 1240   2.393   4.703   5.987
   10SAPS   C25 1241   2.474   4.558   5.853
   10SAPS   H5R 1242   2.513   4.456   5.863
   10SAPS   C26 1243   2.423   4.589   5.728
   10SAPS   H6R 1244   2.397   4.504   5.664
   10SAPS   C27 1245   2.361   4.725   5.687
   10SAPS   H7R 1246   2.339   4.776   5.783
   10SAPS   H7S 1247   2.268   4.701   5.631
   10SAPS   C28 1248   2.428   4.825   5.591
   10SAPS   H8R 1249   2.416   4.927   5.629
   10SAPS   C29 1250   2.466   4.803   5.462
   10SAPS   H9R 1251   2.509   4.891   5.411
   10SAPS  C210 1252   2.453   4.678   5.386
   10SAPS  H10R 1253   2.396   4.603   5.445
   10SAPS  H10S 1254   2.556   4.640   5.371
   10SAPS  C211 1255   2.385   4.689   5.252
   10SAPS  H11R 1256   2.280   4.662   5.268
   10SAPS  C212 1257   2.443   4.704   5.132
   10SAPS  H12R 1258   2.383   4.709   5.041
   10SAPS  C213 1259   2.589   4.736   5.106
   10SAPS  H13R 1260   2.642   4.646   5.069
   10SAPS  H13S 1261   2.642   4.747   5.203
   10SAPS  C214 1262   2.607   4.853   5.010
   10SAPS  H14R 1263   2.526   4.927   5.017
   10SAPS  C215 1264   2.706   4.878   4.928
   10SAPS  H15R 1265   2.704   4.970   4.867
   10SAPS  C216 1266   2.841   4.801   4.917
   10SAPS  H16R 1267   2.844   4.749   4.819
   10SAPS  H16S 1268   2.833   4.718   4.991
   10SAPS  C217 1269   2.970   4.877   4.955
   10SAPS  H17R 1270   3.055   4.807   4.940
   10SAPS  H17S 1271   2.968   4.909   5.061
   10SAPS  C218 1272   2.986   4.998   4.855
   10SAPS  H18R 1273   2.907   5.075   4.869
   10SAPS  H18S 1274   2.974   4.944   4.759
   10SAPS  C219 1275   3.120   5.071   4.872
   10SAPS  H19R 1276   3.210   5.006   4.864
   10SAPS  H19S 1277   3.132   5.116   4.973
   10SAPS  C220 1278   3.143   5.162   4.749
   10SAPS  H20R 1279   3.147   5.095   4.660
   10SAPS  H20S 1280   3.241   5.213   4.743
   10SAPS  H20T 1281   3.052   5.225   4.739
   10SAPS   C33 1282   1.949   4.867   5.754
   10SAPS   H3X 1283   1.935   4.966   5.802
   10SAPS   H3Y 1284   1.852   4.812   5.752
   10SAPS   C34 1285   1.998   4.872   5.610
   10SAPS   H4X 1286   1.921   4.895   5.533
   10SAPS   H4Y 1287   2.026   4.768   5.582
   10SAPS   C35 1288   2.114   4.966   5.578
   10SAPS   H5X 1289   2.205   4.929   5.630
   10SAPS   H5Y 1290   2.088   5.068   5.613
   10SAPS   C36 1291   2.149   4.962   5.428
   10SAPS   H6X 1292   2.184   4.861   5.397
   10SAPS   H6Y 1293   2.232   5.035   5.415
   10SAPS   C37 1294   2.041   4.990   5.324
   10SAPS   H7X 1295   2.012   5.097   5.337
   10SAPS   H7Y 1296   1.951   4.928   5.343
   10SAPS   C38 1297   2.088   4.938   5.188
   10SAPS   H8X 1298   2.000   4.923   5.122
   10SAPS   H8Y 1299   2.128   4.836   5.205
   10SAPS   C39 1300   2.198   5.018   5.128
   10SAPS   H9X 1301   2.289   5.007   5.191
   10SAPS   H9Y 1302   2.181   5.128   5.137
   10SAPS  C310 1303   2.240   4.993   4.975
   10SAPS  H10X 1304   2.274   4.888   4.959
   10SAPS  H10Y 1305   2.316   5.070   4.953
   10SAPS  C311 1306   2.129   5.019   4.875
   10SAPS  H11X 1307   2.090   5.122   4.889
   10SAPS  H11Y 1308   2.039   4.957   4.893
   10SAPS  C312 1309   2.189   5.003   4.733
   10SAPS  H12X 1310   2.106   4.987   4.661
   10SAPS  H12Y 1311   2.247   4.908   4.730
   10SAPS  C313 1312   2.275   5.123   4.696
   10SAPS  H13X 1313   2.365   5.131   4.761
   10SAPS  H13Y 1314   2.217   5.217   4.705
   10SAPS  C314 1315   2.331   5.106   4.561
   10SAPS  H14X 1316   2.366   5.206   4.529
   10SAPS  H14Y 1317   2.243   5.079   4.498
   10SAPS  C315 1318   2.443   5.006   4.540
   10SAPS  H15X 1319   2.395   4.906   4.528
   10SAPS  H15Y 1320   2.511   5.002   4.628
   10SAPS  C316 1321   2.533   5.028   4.427
   10SAPS  H16X 1322   2.590   5.120   4.451
   10SAPS  H16Y 1323   2.487   5.048   4.327
   10SAPS  C317 1324   2.637   4.918   4.411
   10SAPS  H17X 1325   2.577   4.825   4.406
   10SAPS  H17Y 1326   2.709   4.928   4.495
   10SAPS  C318 1327   2.706   4.940   4.271
   10SAPS  H18X 1328   2.624   4.947   4.197
   10SAPS  H18Y 1329   2.769   4.854   4.240
   10SAPS  H18Z 1330   2.760   5.038   4.264
   11SAPS     N 1331   3.583   2.550   2.059
   11SAPS   HN1 1332   3.584   2.494   1.971
   11SAPS   HN2 1333   3.678   2.593   2.070
   11SAPS   HN3 1334   3.550   2.502   2.145
   11SAPS   C12 1335   3.467   2.650   2.044
   11SAPS  H12A 1336   3.504   2.725   1.975
   11SAPS   C13 1337   3.339   2.594   1.978
   11SAPS  O13A 1338   3.320   2.472   1.964
   11SAPS  O13B 1339   3.243   2.678   1.955
   11SAPS   C11 1340   3.440   2.715   2.184
   11SAPS  H11A 1341   3.390   2.642   2.252
   11SAPS  H11B 1342   3.366   2.792   2.156
   11SAPS     P 1343   3.540   2.905   2.334
   11SAPS   O13 1344   3.667   2.922   2.415
   11SAPS   O14 1345   3.490   3.023   2.256
   11SAPS   O12 1346   3.562   2.781   2.240
   11SAPS   O11 1347   3.417   2.844   2.416
   11SAPS    C1 1348   3.332   2.928   2.499
   11SAPS    HA 1349   3.275   3.005   2.444
   11SAPS    HB 1350   3.251   2.866   2.543
   11SAPS    C2 1351   3.399   2.985   2.623
   11SAPS    HS 1352   3.316   3.019   2.688
   11SAPS   O21 1353   3.481   3.109   2.602
   11SAPS   C21 1354   3.423   3.221   2.580
   11SAPS   O22 1355   3.302   3.232   2.563
   11SAPS   C22 1356   3.517   3.340   2.615
   11SAPS   H2R 1357   3.618   3.323   2.570
   11SAPS   H2S 1358   3.468   3.433   2.580
   11SAPS    C3 1359   3.487   2.881   2.705
   11SAPS    HX 1360   3.527   2.937   2.792
   11SAPS    HY 1361   3.578   2.849   2.651
   11SAPS   O31 1362   3.419   2.762   2.746
   11SAPS   C31 1363   3.321   2.771   2.829
   11SAPS   O32 1364   3.282   2.878   2.867
   11SAPS   C32 1365   3.266   2.638   2.868
   11SAPS   H2X 1366   3.208   2.606   2.779
   11SAPS   H2Y 1367   3.186   2.662   2.941
   11SAPS   C23 1368   3.521   3.365   2.767
   11SAPS   H3R 1369   3.418   3.362   2.809
   11SAPS   H3S 1370   3.564   3.463   2.796
   11SAPS   C24 1371   3.600   3.263   2.857
   11SAPS   H4R 1372   3.576   3.157   2.835
   11SAPS   H4S 1373   3.550   3.279   2.955
   11SAPS   C25 1374   3.752   3.277   2.861
   11SAPS   H5R 1375   3.808   3.238   2.774
   11SAPS   C26 1376   3.819   3.357   2.947
   11SAPS   H6R 1377   3.929   3.366   2.943
   11SAPS   C27 1378   3.752   3.424   3.066
   11SAPS   H7R 1379   3.663   3.372   3.107
   11SAPS   H7S 1380   3.714   3.518   3.020
   11SAPS   C28 1381   3.844   3.480   3.172
   11SAPS   H8R 1382   3.922   3.552   3.143
   11SAPS   C29 1383   3.832   3.471   3.305
   11SAPS   H9R 1384   3.900   3.520   3.377
   11SAPS  C210 1385   3.728   3.393   3.384
   11SAPS  H10R 1386   3.772   3.344   3.473
   11SAPS  H10S 1387   3.706   3.298   3.330
   11SAPS  C211 1388   3.609   3.481   3.404
   11SAPS  H11R 1389   3.538   3.478   3.320
   11SAPS  C212 1390   3.592   3.555   3.510
   11SAPS  H12R 1391   3.502   3.618   3.517
   11SAPS  C213 1392   3.683   3.571   3.622
   11SAPS  H13R 1393   3.701   3.680   3.637
   11SAPS  H13S 1394   3.787   3.535   3.604
   11SAPS  C214 1395   3.622   3.510   3.743
   11SAPS  H14R 1396   3.552   3.426   3.734
   11SAPS  C215 1397   3.664   3.543   3.867
   11SAPS  H15R 1398   3.628   3.497   3.961
   11SAPS  C216 1399   3.770   3.643   3.908
   11SAPS  H16R 1400   3.721   3.728   3.961
   11SAPS  H16S 1401   3.829   3.681   3.822
   11SAPS  C217 1402   3.874   3.587   4.006
   11SAPS  H17R 1403   3.963   3.652   4.020
   11SAPS  H17S 1404   3.935   3.498   3.982
   11SAPS  C218 1405   3.809   3.565   4.151
   11SAPS  H18R 1406   3.701   3.539   4.148
   11SAPS  H18S 1407   3.821   3.659   4.209
   11SAPS  C219 1408   3.889   3.470   4.243
   11SAPS  H19R 1409   3.863   3.475   4.351
   11SAPS  H19S 1410   3.993   3.508   4.238
   11SAPS  C220 1411   3.876   3.332   4.181
   11SAPS  H20R 1412   3.785   3.275   4.213
   11SAPS  H20S 1413   3.967   3.275   4.210
   11SAPS  H20T 1414   3.858   3.337   4.072
   11SAPS   C33 1415   3.377   2.543   2.929
   11SAPS   H3X 1416   3.463   2.536   2.859
   11SAPS   H3Y 1417   3.340   2.438   2.931
   11SAPS   C34 1418   3.429   2.585   3.067
   11SAPS   H4X 1419   3.445   2.694   3.062
   11SAPS   H4Y 1420   3.517   2.525   3.099
   11SAPS   C35 1421   3.316   2.563   3.172
   11SAPS   H5X 1422   3.279   2.462   3.143
   11SAPS   H5Y 1423   3.229   2.629   3.150
   11SAPS   C36 1424   3.363   2.561   3.315
   11SAPS   H6X 1425   3.378   2.664   3.355
   11SAPS   H6Y 1426   3.456   2.503   3.332
   11SAPS   C37 1427   3.256   2.491   3.403
   11SAPS   H7X 1428   3.244   2.385   3.373
   11SAPS   H7Y 1429   3.161   2.544   3.378
   11SAPS   C38 1430   3.284   2.497   3.557
   11SAPS   H8X 1431   3.321   2.600   3.579
   11SAPS   H8Y 1432   3.370   2.434   3.587
   11SAPS   C39 1433   3.167   2.464   3.653
   11SAPS   H9X 1434   3.126   2.362   3.637
   11SAPS   H9Y 1435   3.082   2.527   3.618
   11SAPS  C310 1436   3.193   2.489   3.799
   11SAPS  H10X 1437   3.199   2.599   3.817
   11SAPS  H10Y 1438   3.296   2.453   3.817
   11SAPS  C311 1439   3.098   2.416   3.892
   11SAPS  H11X 1440   3.113   2.306   3.886
   11SAPS  H11Y 1441   2.990   2.442   3.885
   11SAPS  C312 1442   3.118   2.470   4.031
   11SAPS  H12X 1443   3.073   2.572   4.036
   11SAPS  H12Y 1444   3.225   2.476   4.059
   11SAPS  C313 1445   3.050   2.394   4.139
   11SAPS  H13X 1446   3.098   2.297   4.164
   11SAPS  H13Y 1447   2.941   2.385   4.119
   11SAPS  C314 1448   3.057   2.480   4.265
   11SAPS  H14X 1449   3.020   2.582   4.242
   11SAPS  H14Y 1450   3.165   2.492   4.290
   11SAPS  C315 1451   2.980   2.430   4.383
   11SAPS  H15X 1452   2.885   2.385   4.348
   11SAPS  H15Y 1453   2.957   2.506   4.461
   11SAPS  C316 1454   3.057   2.318   4.458
   11SAPS  H16X 1455   3.154   2.356   4.498
   11SAPS  H16Y 1456   3.088   2.250   4.376
   11SAPS  C317 1457   2.974   2.233   4.557
   11SAPS  H17X 1458   2.885   2.188   4.509
   11SAPS  H17Y 1459   2.952   2.317   4.626
   11SAPS  C318 1460   3.046   2.125   4.642
   11SAPS  H18X 1461   2.970   2.089   4.714
   11SAPS  H18Y 1462   3.128   2.164   4.706
   11SAPS  H18Z 1463   3.082   2.045   4.573
   12SAPS     N 1464   2.405   2.437   2.184
   12SAPS   HN1 1465   2.304   2.456   2.165
   12SAPS   HN2 1466   2.413   2.357   2.249
   12SAPS   HN3 1467   2.453   2.515   2.233
   12SAPS   C12 1468   2.464   2.417   2.053
   12SAPS  H12A 1469   2.430   2.328   2.002
   12SAPS   C13 1470   2.425   2.518   1.939
   12SAPS  O13A 1471   2.331   2.600   1.955
   12SAPS  O13B 1472   2.457   2.476   1.829
   12SAPS   C11 1473   2.620   2.409   2.055
   12SAPS  H11A 1474   2.657   2.507   2.093
   12SAPS  H11B 1475   2.663   2.392   1.954
   12SAPS     P 1476   2.792   2.226   2.122
   12SAPS   O13 1477   2.751   2.106   2.053
   12SAPS   O14 1478   2.902   2.305   2.068
   12SAPS   O12 1479   2.665   2.311   2.149
   12SAPS   O11 1480   2.824   2.170   2.264
   12SAPS    C1 1481   2.899   2.240   2.361
   12SAPS    HA 1482   2.970   2.165   2.404
   12SAPS    HB 1483   2.967   2.312   2.311
   12SAPS    C2 1484   2.828   2.289   2.487
   12SAPS    HS 1485   2.896   2.354   2.545
   12SAPS   O21 1486   2.782   2.177   2.553
   12SAPS   C21 1487   2.819   2.145   2.677
   12SAPS   O22 1488   2.890   2.214   2.743
   12SAPS   C22 1489   2.753   2.023   2.737
   12SAPS   H2R 1490   2.647   2.026   2.706
   12SAPS   H2S 1491   2.795   1.935   2.684
   12SAPS    C3 1492   2.714   2.385   2.456
   12SAPS    HX 1493   2.637   2.328   2.399
   12SAPS    HY 1494   2.756   2.472   2.401
   12SAPS   O31 1495   2.656   2.433   2.575
   12SAPS   C31 1496   2.549   2.386   2.622
   12SAPS   O32 1497   2.479   2.300   2.567
   12SAPS   C32 1498   2.516   2.445   2.755
   12SAPS   H2X 1499   2.468   2.545   2.748
   12SAPS   H2Y 1500   2.611   2.457   2.812
   12SAPS   C23 1501   2.772   2.008   2.891
   12SAPS   H3R 1502   2.743   2.108   2.930
   12SAPS   H3S 1503   2.882   2.004   2.910
   12SAPS   C24 1504   2.686   1.894   2.943
   12SAPS   H4R 1505   2.730   1.880   3.045
   12SAPS   H4S 1506   2.715   1.804   2.885
   12SAPS   C25 1507   2.538   1.915   2.939
   12SAPS   H5R 1508   2.501   1.958   2.845
   12SAPS   C26 1509   2.461   1.894   3.052
   12SAPS   H6R 1510   2.355   1.917   3.036
   12SAPS   C27 1511   2.511   1.830   3.180
   12SAPS   H7R 1512   2.579   1.909   3.220
   12SAPS   H7S 1513   2.572   1.741   3.156
   12SAPS   C28 1514   2.409   1.803   3.289
   12SAPS   H8R 1515   2.306   1.820   3.255
   12SAPS   C29 1516   2.435   1.776   3.416
   12SAPS   H9R 1517   2.353   1.767   3.489
   12SAPS  C210 1518   2.576   1.787   3.466
   12SAPS  H10R 1519   2.566   1.871   3.538
   12SAPS  H10S 1520   2.653   1.821   3.393
   12SAPS  C211 1521   2.625   1.654   3.521
   12SAPS  H11R 1522   2.558   1.572   3.492
   12SAPS  C212 1523   2.732   1.629   3.600
   12SAPS  H12R 1524   2.736   1.524   3.631
   12SAPS  C213 1525   2.833   1.727   3.645
   12SAPS  H13R 1526   2.790   1.827   3.625
   12SAPS  H13S 1527   2.927   1.711   3.588
   12SAPS  C214 1528   2.888   1.714   3.788
   12SAPS  H14R 1529   2.995   1.736   3.797
   12SAPS  C215 1530   2.814   1.679   3.902
   12SAPS  H15R 1531   2.872   1.678   3.996
   12SAPS  C216 1532   2.670   1.650   3.926
   12SAPS  H16R 1533   2.610   1.655   3.833
   12SAPS  H16S 1534   2.622   1.735   3.979
   12SAPS  C217 1535   2.648   1.519   4.005
   12SAPS  H17R 1536   2.734   1.458   3.969
   12SAPS  H17S 1537   2.551   1.467   3.989
   12SAPS  C218 1538   2.667   1.552   4.160
   12SAPS  H18R 1539   2.619   1.646   4.193
   12SAPS  H18S 1540   2.774   1.579   4.166
   12SAPS  C219 1541   2.636   1.444   4.274
   12SAPS  H19R 1542   2.527   1.431   4.289
   12SAPS  H19S 1543   2.680   1.475   4.371
   12SAPS  C220 1544   2.687   1.301   4.239
   12SAPS  H20R 1545   2.798   1.294   4.235
   12SAPS  H20S 1546   2.659   1.262   4.139
   12SAPS  H20T 1547   2.658   1.224   4.313
   12SAPS   C33 1548   2.433   2.349   2.845
   12SAPS   H3X 1549   2.419   2.251   2.794
   12SAPS   H3Y 1550   2.331   2.394   2.852
   12SAPS   C34 1551   2.502   2.332   2.983
   12SAPS   H4X 1552   2.512   2.437   3.019
   12SAPS   H4Y 1553   2.597   2.276   2.967
   12SAPS   C35 1554   2.411   2.251   3.073
   12SAPS   H5X 1555   2.385   2.157   3.019
   12SAPS   H5Y 1556   2.318   2.308   3.095
   12SAPS   C36 1557   2.462   2.224   3.216
   12SAPS   H6X 1558   2.506   2.317   3.259
   12SAPS   H6Y 1559   2.550   2.156   3.209
   12SAPS   C37 1560   2.353   2.169   3.302
   12SAPS   H7X 1561   2.295   2.089   3.253
   12SAPS   H7Y 1562   2.281   2.252   3.321
   12SAPS   C38 1563   2.396   2.118   3.435
   12SAPS   H8X 1564   2.478   2.048   3.411
   12SAPS   H8Y 1565   2.318   2.052   3.478
   12SAPS   C39 1566   2.442   2.229   3.537
   12SAPS   H9X 1567   2.358   2.299   3.557
   12SAPS   H9Y 1568   2.513   2.297   3.485
   12SAPS  C310 1569   2.493   2.157   3.661
   12SAPS  H10X 1570   2.587   2.106   3.632
   12SAPS  H10Y 1571   2.431   2.072   3.694
   12SAPS  C311 1572   2.514   2.242   3.779
   12SAPS  H11X 1573   2.421   2.284   3.822
   12SAPS  H11Y 1574   2.579   2.326   3.747
   12SAPS  C312 1575   2.603   2.175   3.881
   12SAPS  H12X 1576   2.667   2.248   3.935
   12SAPS  H12Y 1577   2.675   2.108   3.830
   12SAPS  C313 1578   2.528   2.092   3.979
   12SAPS  H13X 1579   2.456   2.018   3.938
   12SAPS  H13Y 1580   2.460   2.162   4.033
   12SAPS  C314 1581   2.619   2.031   4.091
   12SAPS  H14X 1582   2.695   2.099   4.135
   12SAPS  H14Y 1583   2.666   1.940   4.049
   12SAPS  C315 1584   2.536   1.984   4.204
   12SAPS  H15X 1585   2.474   1.895   4.178
   12SAPS  H15Y 1586   2.469   2.070   4.226
   12SAPS  C316 1587   2.617   1.926   4.321
   12SAPS  H16X 1588   2.676   2.006   4.371
   12SAPS  H16Y 1589   2.689   1.854   4.279
   12SAPS  C317 1590   2.531   1.855   4.433
   12SAPS  H17X 1591   2.477   1.774   4.378
   12SAPS  H17Y 1592   2.451   1.925   4.466
   12SAPS  C318 1593   2.624   1.803   4.537
   12SAPS  H18X 1594   2.652   1.879   4.613
   12SAPS  H18Y 1595   2.714   1.762   4.488
   12SAPS  H18Z 1596   2.574   1.722   4.594
   13SAPS     N 1597   5.611   0.733   2.528
   13SAPS   HN1 1598   5.558   0.822   2.535
   13SAPS   HN2 1599   5.564   0.664   2.589
   13SAPS   HN3 1600   5.710   0.749   2.554
   13SAPS   C12 1601   5.592   0.691   2.386
   13SAPS  H12A 1602   5.651   0.760   2.329
   13SAPS   C13 1603   5.648   0.542   2.357
   13SAPS  O13A 1604   5.736   0.502   2.434
   13SAPS  O13B 1605   5.641   0.490   2.242
   13SAPS   C11 1606   5.442   0.704   2.341
   13SAPS  H11A 1607   5.377   0.622   2.378
   13SAPS  H11B 1608   5.455   0.696   2.231
   13SAPS     P 1609   5.227   0.861   2.347
   13SAPS   O13 1610   5.203   0.994   2.282
   13SAPS   O14 1611   5.165   0.742   2.287
   13SAPS   O12 1612   5.385   0.830   2.363
   13SAPS   O11 1613   5.173   0.881   2.496
   13SAPS    C1 1614   5.250   0.844   2.616
   13SAPS    HA 1615   5.258   0.734   2.625
   13SAPS    HB 1616   5.355   0.880   2.609
   13SAPS    C2 1617   5.180   0.907   2.743
   13SAPS    HS 1618   5.253   0.920   2.826
   13SAPS   O21 1619   5.067   0.847   2.797
   13SAPS   C21 1620   5.088   0.736   2.860
   13SAPS   O22 1621   5.200   0.691   2.879
   13SAPS   C22 1622   4.958   0.676   2.914
   13SAPS   H2R 1623   4.880   0.685   2.835
   13SAPS   H2S 1624   4.979   0.574   2.953
   13SAPS    C3 1625   5.134   1.057   2.712
   13SAPS    HX 1626   5.056   1.059   2.633
   13SAPS    HY 1627   5.219   1.116   2.671
   13SAPS   O31 1628   5.102   1.122   2.840
   13SAPS   C31 1629   4.995   1.194   2.839
   13SAPS   O32 1630   4.929   1.220   2.740
   13SAPS   C32 1631   4.980   1.248   2.980
   13SAPS   H2X 1632   4.952   1.355   2.970
   13SAPS   H2Y 1633   5.078   1.252   3.032
   13SAPS   C23 1634   4.917   0.764   3.030
   13SAPS   H3R 1635   4.825   0.722   3.077
   13SAPS   H3S 1636   4.885   0.867   3.002
   13SAPS   C24 1637   5.019   0.779   3.142
   13SAPS   H4R 1638   4.972   0.850   3.214
   13SAPS   H4S 1639   5.110   0.835   3.109
   13SAPS   C25 1640   5.048   0.645   3.207
   13SAPS   H5R 1641   5.130   0.591   3.158
   13SAPS   C26 1642   4.985   0.590   3.308
   13SAPS   H6R 1643   5.016   0.493   3.351
   13SAPS   C27 1644   4.869   0.649   3.375
   13SAPS   H7R 1645   4.790   0.570   3.380
   13SAPS   H7S 1646   4.821   0.719   3.304
   13SAPS   C28 1647   4.916   0.708   3.507
   13SAPS   H8R 1648   5.020   0.744   3.507
   13SAPS   C29 1649   4.829   0.731   3.607
   13SAPS   H9R 1650   4.873   0.770   3.700
   13SAPS  C210 1651   4.684   0.682   3.619
   13SAPS  H10R 1652   4.680   0.591   3.683
   13SAPS  H10S 1653   4.639   0.655   3.521
   13SAPS  C211 1654   4.597   0.786   3.680
   13SAPS  H11R 1655   4.603   0.877   3.619
   13SAPS  C212 1656   4.525   0.790   3.796
   13SAPS  H12R 1657   4.459   0.874   3.819
   13SAPS  C213 1658   4.510   0.677   3.891
   13SAPS  H13R 1659   4.606   0.633   3.924
   13SAPS  H13S 1660   4.460   0.589   3.846
   13SAPS  C214 1661   4.441   0.716   4.016
   13SAPS  H14R 1662   4.391   0.814   4.022
   13SAPS  C215 1663   4.436   0.623   4.116
   13SAPS  H15R 1664   4.379   0.652   4.206
   13SAPS  C216 1665   4.493   0.484   4.110
   13SAPS  H16R 1666   4.562   0.461   4.026
   13SAPS  H16S 1667   4.404   0.420   4.096
   13SAPS  C217 1668   4.572   0.440   4.247
   13SAPS  H17R 1669   4.657   0.507   4.272
   13SAPS  H17S 1670   4.612   0.338   4.230
   13SAPS  C218 1671   4.479   0.432   4.370
   13SAPS  H18R 1672   4.461   0.541   4.388
   13SAPS  H18S 1673   4.532   0.406   4.464
   13SAPS  C219 1674   4.364   0.337   4.361
   13SAPS  H19R 1675   4.400   0.238   4.327
   13SAPS  H19S 1676   4.295   0.376   4.283
   13SAPS  C220 1677   4.280   0.326   4.492
   13SAPS  H20R 1678   4.339   0.267   4.565
   13SAPS  H20S 1679   4.190   0.262   4.477
   13SAPS  H20T 1680   4.246   0.424   4.532
   13SAPS   C33 1681   4.875   1.178   3.062
   13SAPS   H3X 1682   4.877   1.071   3.033
   13SAPS   H3Y 1683   4.778   1.216   3.024
   13SAPS   C34 1684   4.910   1.185   3.216
   13SAPS   H4X 1685   4.902   1.292   3.243
   13SAPS   H4Y 1686   5.015   1.154   3.235
   13SAPS   C35 1687   4.808   1.101   3.298
   13SAPS   H5X 1688   4.840   0.999   3.269
   13SAPS   H5Y 1689   4.706   1.117   3.256
   13SAPS   C36 1690   4.829   1.111   3.448
   13SAPS   H6X 1691   4.751   1.049   3.496
   13SAPS   H6Y 1692   4.813   1.220   3.466
   13SAPS   C37 1693   4.963   1.078   3.497
   13SAPS   H7X 1694   5.043   1.142   3.453
   13SAPS   H7Y 1695   4.985   0.972   3.476
   13SAPS   C38 1696   4.980   1.106   3.641
   13SAPS   H8X 1697   4.893   1.059   3.691
   13SAPS   H8Y 1698   4.988   1.213   3.672
   13SAPS   C39 1699   5.100   1.036   3.704
   13SAPS   H9X 1700   5.193   1.072   3.654
   13SAPS   H9Y 1701   5.088   0.925   3.701
   13SAPS  C310 1702   5.129   1.061   3.853
   13SAPS  H10X 1703   5.192   1.153   3.860
   13SAPS  H10Y 1704   5.196   0.980   3.888
   13SAPS  C311 1705   5.001   1.058   3.935
   13SAPS  H11X 1706   4.925   0.991   3.890
   13SAPS  H11Y 1707   4.960   1.161   3.941
   13SAPS  C312 1708   5.009   1.005   4.082
   13SAPS  H12X 1709   5.097   1.057   4.125
   13SAPS  H12Y 1710   5.036   0.898   4.079
   13SAPS  C313 1711   4.881   1.023   4.172
   13SAPS  H13X 1712   4.870   1.126   4.213
   13SAPS  H13Y 1713   4.889   0.964   4.265
   13SAPS  C314 1714   4.751   0.970   4.104
   13SAPS  H14X 1715   4.736   0.861   4.088
   13SAPS  H14Y 1716   4.747   1.008   4.000
   13SAPS  C315 1717   4.621   1.021   4.168
   13SAPS  H15X 1718   4.545   1.001   4.090
   13SAPS  H15Y 1719   4.623   1.130   4.191
   13SAPS  C316 1720   4.579   0.946   4.295
   13SAPS  H16X 1721   4.640   0.982   4.381
   13SAPS  H16Y 1722   4.595   0.837   4.296
   13SAPS  C317 1723   4.434   0.966   4.335
   13SAPS  H17X 1724   4.363   0.956   4.249
   13SAPS  H17Y 1725   4.416   1.068   4.375
   13SAPS  C318 1726   4.392   0.863   4.439
   13SAPS  H18X 1727   4.451   0.884   4.530
   13SAPS  H18Y 1728   4.398   0.756   4.409
   13SAPS  H18Z 1729   4.284   0.878   4.462
   14SAPS     N 1730   5.961   3.430   2.144
   14SAPS   HN1 1731   5.870   3.389   2.117
   14SAPS   HN2 1732   6.019   3.347   2.166
   14SAPS   HN3 1733   5.949   3.500   2.220
   14SAPS   C12 1734   6.013   3.499   2.024
   14SAPS  H12A 1735   5.984   3.602   2.038
   14SAPS   C13 1736   6.161   3.504   1.991
   14SAPS  O13A 1737   6.237   3.455   2.085
   14SAPS  O13B 1738   6.203   3.564   1.893
   14SAPS   C11 1739   5.936   3.443   1.898
   14SAPS  H11A 1740   5.946   3.333   1.894
   14SAPS  H11B 1741   5.988   3.481   1.807
   14SAPS     P 1742   5.700   3.435   1.791
   14SAPS   O13 1743   5.753   3.478   1.661
   14SAPS   O14 1744   5.683   3.289   1.811
   14SAPS   O12 1745   5.798   3.477   1.903
   14SAPS   O11 1746   5.558   3.503   1.827
   14SAPS    C1 1747   5.566   3.617   1.911
   14SAPS    HA 1748   5.661   3.674   1.902
   14SAPS    HB 1749   5.480   3.685   1.892
   14SAPS    C2 1750   5.548   3.580   2.059
   14SAPS    HS 1751   5.647   3.546   2.098
   14SAPS   O21 1752   5.448   3.484   2.067
   14SAPS   C21 1753   5.465   3.385   2.156
   14SAPS   O22 1754   5.567   3.360   2.223
   14SAPS   C22 1755   5.341   3.302   2.162
   14SAPS   H2R 1756   5.257   3.374   2.151
   14SAPS   H2S 1757   5.342   3.239   2.071
   14SAPS    C3 1758   5.511   3.706   2.141
   14SAPS    HX 1759   5.418   3.752   2.102
   14SAPS    HY 1760   5.597   3.776   2.128
   14SAPS   O31 1761   5.492   3.669   2.278
   14SAPS   C31 1762   5.588   3.686   2.368
   14SAPS   O32 1763   5.690   3.743   2.349
   14SAPS   C32 1764   5.550   3.598   2.482
   14SAPS   H2X 1765   5.542   3.499   2.432
   14SAPS   H2Y 1766   5.449   3.631   2.516
   14SAPS   C23 1767   5.323   3.224   2.300
   14SAPS   H3R 1768   5.412   3.165   2.328
   14SAPS   H3S 1769   5.238   3.154   2.285
   14SAPS   C24 1770   5.270   3.305   2.413
   14SAPS   H4R 1771   5.339   3.392   2.421
   14SAPS   H4S 1772   5.274   3.247   2.507
   14SAPS   C25 1773   5.130   3.358   2.392
   14SAPS   H5R 1774   5.085   3.355   2.292
   14SAPS   C26 1775   5.061   3.425   2.489
   14SAPS   H6R 1776   4.968   3.478   2.463
   14SAPS   C27 1777   5.099   3.443   2.632
   14SAPS   H7R 1778   5.210   3.445   2.633
   14SAPS   H7S 1779   5.048   3.369   2.698
   14SAPS   C28 1780   5.047   3.565   2.704
   14SAPS   H8R 1781   5.003   3.645   2.642
   14SAPS   C29 1782   5.072   3.595   2.830
   14SAPS   H9R 1783   5.042   3.691   2.875
   14SAPS  C210 1784   5.159   3.508   2.923
   14SAPS  H10R 1785   5.215   3.432   2.865
   14SAPS  H10S 1786   5.084   3.443   2.973
   14SAPS  C211 1787   5.248   3.576   3.017
   14SAPS  H11R 1788   5.346   3.593   2.970
   14SAPS  C212 1789   5.239   3.593   3.150
   14SAPS  H12R 1790   5.315   3.650   3.206
   14SAPS  C213 1791   5.117   3.564   3.238
   14SAPS  H13R 1792   5.029   3.530   3.179
   14SAPS  H13S 1793   5.074   3.665   3.260
   14SAPS  C214 1794   5.157   3.481   3.355
   14SAPS  H14R 1795   5.196   3.380   3.335
   14SAPS  C215 1796   5.145   3.502   3.486
   14SAPS  H15R 1797   5.170   3.424   3.559
   14SAPS  C216 1798   5.082   3.630   3.540
   14SAPS  H16R 1799   5.026   3.687   3.464
   14SAPS  H16S 1800   5.158   3.701   3.580
   14SAPS  C217 1801   4.987   3.604   3.655
   14SAPS  H17R 1802   4.912   3.528   3.622
   14SAPS  H17S 1803   4.922   3.691   3.678
   14SAPS  C218 1804   5.062   3.561   3.776
   14SAPS  H18R 1805   5.158   3.617   3.778
   14SAPS  H18S 1806   5.084   3.452   3.766
   14SAPS  C219 1807   4.981   3.577   3.900
   14SAPS  H19R 1808   4.986   3.475   3.944
   14SAPS  H19S 1809   4.874   3.591   3.872
   14SAPS  C220 1810   5.033   3.679   3.999
   14SAPS  H20R 1811   5.144   3.675   3.998
   14SAPS  H20S 1812   4.986   3.667   4.099
   14SAPS  H20T 1813   5.007   3.783   3.966
   14SAPS   C33 1814   5.659   3.582   2.596
   14SAPS   H3X 1815   5.657   3.675   2.656
   14SAPS   H3Y 1816   5.761   3.559   2.558
   14SAPS   C34 1817   5.620   3.474   2.695
   14SAPS   H4X 1818   5.662   3.378   2.657
   14SAPS   H4Y 1819   5.511   3.451   2.704
   14SAPS   C35 1820   5.685   3.486   2.834
   14SAPS   H5X 1821   5.663   3.582   2.886
   14SAPS   H5Y 1822   5.795   3.472   2.833
   14SAPS   C36 1823   5.632   3.387   2.940
   14SAPS   H6X 1824   5.688   3.291   2.932
   14SAPS   H6Y 1825   5.527   3.360   2.915
   14SAPS   C37 1826   5.609   3.448   3.080
   14SAPS   H7X 1827   5.528   3.522   3.070
   14SAPS   H7Y 1828   5.700   3.507   3.108
   14SAPS   C38 1829   5.566   3.345   3.181
   14SAPS   H8X 1830   5.646   3.268   3.187
   14SAPS   H8Y 1831   5.476   3.290   3.145
   14SAPS   C39 1832   5.522   3.400   3.321
   14SAPS   H9X 1833   5.428   3.458   3.310
   14SAPS   H9Y 1834   5.602   3.466   3.360
   14SAPS  C310 1835   5.504   3.291   3.429
   14SAPS  H10X 1836   5.598   3.235   3.443
   14SAPS  H10Y 1837   5.421   3.223   3.402
   14SAPS  C311 1838   5.461   3.358   3.561
   14SAPS  H11X 1839   5.376   3.428   3.546
   14SAPS  H11Y 1840   5.554   3.413   3.586
   14SAPS  C312 1841   5.435   3.250   3.658
   14SAPS  H12X 1842   5.489   3.158   3.625
   14SAPS  H12Y 1843   5.325   3.232   3.662
   14SAPS  C313 1844   5.499   3.280   3.792
   14SAPS  H13X 1845   5.453   3.374   3.830
   14SAPS  H13Y 1846   5.609   3.294   3.781
   14SAPS  C314 1847   5.472   3.168   3.888
   14SAPS  H14X 1848   5.505   3.076   3.834
   14SAPS  H14Y 1849   5.365   3.171   3.917
   14SAPS  C315 1850   5.547   3.166   4.020
   14SAPS  H15X 1851   5.654   3.170   3.990
   14SAPS  H15Y 1852   5.536   3.063   4.061
   14SAPS  C316 1853   5.506   3.285   4.103
   14SAPS  H16X 1854   5.395   3.284   4.101
   14SAPS  H16Y 1855   5.537   3.377   4.050
   14SAPS  C317 1856   5.552   3.279   4.250
   14SAPS  H17X 1857   5.515   3.182   4.291
   14SAPS  H17Y 1858   5.521   3.365   4.313
   14SAPS  C318 1859   5.705   3.277   4.255
   14SAPS  H18X 1860   5.732   3.268   4.362
   14SAPS  H18Y 1861   5.738   3.377   4.221
   14SAPS  H18Z 1862   5.761   3.217   4.180
   15SAPS     N 1863   4.111   2.696   1.634
   15SAPS   HN1 1864   4.193   2.675   1.575
   15SAPS   HN2 1865   4.089   2.613   1.693
   15SAPS   HN3 1866   4.028   2.700   1.571
   15SAPS   C12 1867   4.135   2.825   1.713
   15SAPS  H12A 1868   4.202   2.793   1.791
   15SAPS   C13 1869   4.208   2.942   1.636
   15SAPS  O13A 1870   4.280   2.915   1.536
   15SAPS  O13B 1871   4.220   3.049   1.700
   15SAPS   C11 1872   3.991   2.865   1.764
   15SAPS  H11A 1873   3.942   2.909   1.674
   15SAPS  H11B 1874   3.998   2.953   1.831
   15SAPS     P 1875   3.956   2.696   1.967
   15SAPS   O13 1876   3.835   2.634   2.025
   15SAPS   O14 1877   4.071   2.607   1.946
   15SAPS   O12 1878   3.925   2.754   1.826
   15SAPS   O11 1879   3.990   2.824   2.055
   15SAPS    C1 1880   3.901   2.925   2.100
   15SAPS    HA 1881   3.832   2.963   2.022
   15SAPS    HB 1882   3.832   2.875   2.171
   15SAPS    C2 1883   3.975   3.044   2.177
   15SAPS    HS 1884   4.051   3.075   2.103
   15SAPS   O21 1885   4.019   2.983   2.301
   15SAPS   C21 1886   4.107   3.061   2.354
   15SAPS   O22 1887   4.151   3.164   2.304
   15SAPS   C22 1888   4.162   3.005   2.483
   15SAPS   H2R 1889   4.086   2.931   2.518
   15SAPS   H2S 1890   4.255   2.947   2.465
   15SAPS    C3 1891   3.861   3.158   2.193
   15SAPS    HX 1892   3.791   3.117   2.270
   15SAPS    HY 1893   3.809   3.155   2.095
   15SAPS   O31 1894   3.913   3.288   2.210
   15SAPS   C31 1895   3.908   3.341   2.329
   15SAPS   O32 1896   3.842   3.293   2.421
   15SAPS   C32 1897   3.998   3.466   2.346
   15SAPS   H2X 1898   3.938   3.547   2.300
   15SAPS   H2Y 1899   4.091   3.465   2.285
   15SAPS   C23 1900   4.186   3.104   2.603
   15SAPS   H3R 1901   4.157   3.041   2.690
   15SAPS   H3S 1902   4.112   3.185   2.590
   15SAPS   C24 1903   4.324   3.163   2.605
   15SAPS   H4R 1904   4.361   3.172   2.501
   15SAPS   H4S 1905   4.392   3.101   2.668
   15SAPS   C25 1906   4.326   3.305   2.661
   15SAPS   H5R 1907   4.315   3.382   2.583
   15SAPS   C26 1908   4.343   3.349   2.787
   15SAPS   H6R 1909   4.324   3.456   2.803
   15SAPS   C27 1910   4.365   3.261   2.904
   15SAPS   H7R 1911   4.440   3.188   2.868
   15SAPS   H7S 1912   4.273   3.200   2.919
   15SAPS   C28 1913   4.392   3.344   3.028
   15SAPS   H8R 1914   4.469   3.420   3.011
   15SAPS   C29 1915   4.345   3.339   3.150
   15SAPS   H9R 1916   4.378   3.412   3.225
   15SAPS  C210 1917   4.249   3.244   3.208
   15SAPS  H10R 1918   4.304   3.164   3.262
   15SAPS  H10S 1919   4.197   3.202   3.119
   15SAPS  C211 1920   4.146   3.310   3.298
   15SAPS  H11R 1921   4.051   3.324   3.245
   15SAPS  C212 1922   4.151   3.365   3.421
   15SAPS  H12R 1923   4.064   3.417   3.463
   15SAPS  C213 1924   4.280   3.369   3.498
   15SAPS  H13R 1925   4.353   3.424   3.435
   15SAPS  H13S 1926   4.322   3.267   3.513
   15SAPS  C214 1927   4.270   3.435   3.628
   15SAPS  H14R 1928   4.355   3.501   3.652
   15SAPS  C215 1929   4.183   3.415   3.732
   15SAPS  H15R 1930   4.204   3.473   3.823
   15SAPS  C216 1931   4.071   3.313   3.742
   15SAPS  H16R 1932   3.996   3.333   3.662
   15SAPS  H16S 1933   4.037   3.319   3.848
   15SAPS  C217 1934   4.118   3.163   3.726
   15SAPS  H17R 1935   4.170   3.145   3.630
   15SAPS  H17S 1936   4.023   3.106   3.715
   15SAPS  C218 1937   4.206   3.126   3.840
   15SAPS  H18R 1938   4.167   3.162   3.938
   15SAPS  H18S 1939   4.310   3.155   3.814
   15SAPS  C219 1940   4.222   2.970   3.866
   15SAPS  H19R 1941   4.324   2.940   3.898
   15SAPS  H19S 1942   4.211   2.913   3.772
   15SAPS  C220 1943   4.122   2.916   3.970
   15SAPS  H20R 1944   4.130   2.808   3.992
   15SAPS  H20S 1945   4.016   2.930   3.939
   15SAPS  H20T 1946   4.139   2.960   4.071
   15SAPS   C33 1947   4.026   3.514   2.494
   15SAPS   H3X 1948   4.091   3.449   2.556
   15SAPS   H3Y 1949   3.926   3.511   2.542
   15SAPS   C34 1950   4.063   3.665   2.501
   15SAPS   H4X 1951   4.012   3.724   2.422
   15SAPS   H4Y 1952   4.168   3.665   2.464
   15SAPS   C35 1953   4.049   3.730   2.638
   15SAPS   H5X 1954   4.116   3.681   2.711
   15SAPS   H5Y 1955   3.939   3.731   2.658
   15SAPS   C36 1956   4.091   3.879   2.646
   15SAPS   H6X 1957   4.038   3.936   2.567
   15SAPS   H6Y 1958   4.193   3.892   2.604
   15SAPS   C37 1959   4.077   3.953   2.785
   15SAPS   H7X 1960   3.969   3.946   2.812
   15SAPS   H7Y 1961   4.096   4.062   2.783
   15SAPS   C38 1962   4.153   3.894   2.897
   15SAPS   H8X 1963   4.260   3.900   2.871
   15SAPS   H8Y 1964   4.136   3.784   2.906
   15SAPS   C39 1965   4.144   3.971   3.022
   15SAPS   H9X 1966   4.039   4.002   3.040
   15SAPS   H9Y 1967   4.206   4.063   3.026
   15SAPS  C310 1968   4.173   3.874   3.138
   15SAPS  H10X 1969   4.279   3.850   3.163
   15SAPS  H10Y 1970   4.118   3.783   3.110
   15SAPS  C311 1971   4.107   3.932   3.271
   15SAPS  H11X 1972   3.998   3.956   3.266
   15SAPS  H11Y 1973   4.151   4.033   3.286
   15SAPS  C312 1974   4.138   3.847   3.395
   15SAPS  H12X 1975   4.245   3.821   3.410
   15SAPS  H12Y 1976   4.080   3.752   3.392
   15SAPS  C313 1977   4.104   3.913   3.533
   15SAPS  H13X 1978   4.006   3.964   3.526
   15SAPS  H13Y 1979   4.185   3.986   3.554
   15SAPS  C314 1980   4.102   3.808   3.646
   15SAPS  H14X 1981   4.194   3.747   3.632
   15SAPS  H14Y 1982   4.027   3.726   3.648
   15SAPS  C315 1983   4.110   3.875   3.787
   15SAPS  H15X 1984   4.077   3.797   3.859
   15SAPS  H15Y 1985   4.043   3.963   3.799
   15SAPS  C316 1986   4.256   3.894   3.826
   15SAPS  H16X 1987   4.324   3.886   3.739
   15SAPS  H16Y 1988   4.287   3.820   3.903
   15SAPS  C317 1989   4.274   4.036   3.878
   15SAPS  H17X 1990   4.371   4.053   3.929
   15SAPS  H17Y 1991   4.199   4.054   3.958
   15SAPS  C318 1992   4.240   4.151   3.781
   15SAPS  H18X 1993   4.131   4.162   3.765
   15SAPS  H18Y 1994   4.297   4.138   3.686
   15SAPS  H18Z 1995   4.283   4.248   3.813
   16SAPS     N 1996   6.239   4.078   2.048
   16SAPS   HN1 1997   6.343   4.087   2.054
   16SAPS   HN2 1998   6.203   4.162   2.098
   16SAPS   HN3 1999   6.197   3.990   2.084
   16SAPS   C12 2000   6.200   4.089   1.901
   16SAPS  H12A 2001   6.262   4.164   1.855
   16SAPS   C13 2002   6.234   3.959   1.827
   16SAPS  O13A 2003   6.316   3.877   1.881
   16SAPS  O13B 2004   6.209   3.955   1.706
   16SAPS   C11 2005   6.049   4.122   1.890
   16SAPS  H11A 2006   6.006   4.030   1.935
   16SAPS  H11B 2007   6.005   4.142   1.790
   16SAPS     P 2008   5.901   4.330   1.945
   16SAPS   O13 2009   5.949   4.398   1.824
   16SAPS   O14 2010   5.773   4.260   1.934
   16SAPS   O12 2011   6.017   4.227   1.985
   16SAPS   O11 2012   5.900   4.432   2.063
   16SAPS    C1 2013   6.026   4.484   2.115
   16SAPS    HA 2014   6.111   4.421   2.080
   16SAPS    HB 2015   6.043   4.588   2.082
   16SAPS    C2 2016   6.035   4.479   2.273
   16SAPS    HS 2017   6.142   4.497   2.294
   16SAPS   O21 2018   5.991   4.358   2.325
   16SAPS   C21 2019   6.061   4.253   2.290
   16SAPS   O22 2020   6.170   4.251   2.235
   16SAPS   C22 2021   5.996   4.123   2.348
   16SAPS   H2R 2022   5.906   4.104   2.285
   16SAPS   H2S 2023   6.066   4.040   2.323
   16SAPS    C3 2024   5.953   4.597   2.330
   16SAPS    HX 2025   5.846   4.578   2.309
   16SAPS    HY 2026   5.991   4.696   2.296
   16SAPS   O31 2027   5.970   4.603   2.475
   16SAPS   C31 2028   5.888   4.518   2.546
   16SAPS   O32 2029   5.791   4.462   2.506
   16SAPS   C32 2030   5.921   4.524   2.697
   16SAPS   H2X 2031   5.883   4.615   2.748
   16SAPS   H2Y 2032   6.030   4.515   2.716
   16SAPS   C23 2033   5.961   4.142   2.499
   16SAPS   H3R 2034   5.918   4.046   2.535
   16SAPS   H3S 2035   5.878   4.216   2.499
   16SAPS   C24 2036   6.080   4.181   2.592
   16SAPS   H4R 2037   6.053   4.184   2.699
   16SAPS   H4S 2038   6.102   4.282   2.551
   16SAPS   C25 2039   6.188   4.074   2.573
   16SAPS   H5R 2040   6.214   4.050   2.469
   16SAPS   C26 2041   6.245   4.003   2.673
   16SAPS   H6R 2042   6.316   3.924   2.644
   16SAPS   C27 2043   6.224   4.012   2.822
   16SAPS   H7R 2044   6.124   4.049   2.854
   16SAPS   H7S 2045   6.293   4.085   2.870
   16SAPS   C28 2046   6.246   3.879   2.880
   16SAPS   H8R 2047   6.312   3.808   2.829
   16SAPS   C29 2048   6.199   3.834   2.994
   16SAPS   H9R 2049   6.215   3.728   3.021
   16SAPS  C210 2050   6.100   3.900   3.089
   16SAPS  H10R 2051   5.999   3.896   3.042
   16SAPS  H10S 2052   6.112   4.010   3.099
   16SAPS  C211 2053   6.122   3.849   3.230
   16SAPS  H11R 2054   6.219   3.884   3.267
   16SAPS  C212 2055   6.045   3.767   3.300
   16SAPS  H12R 2056   6.082   3.739   3.400
   16SAPS  C213 2057   5.917   3.703   3.256
   16SAPS  H13R 2058   5.935   3.649   3.161
   16SAPS  H13S 2059   5.842   3.784   3.244
   16SAPS  C214 2060   5.861   3.607   3.355
   16SAPS  H14R 2061   5.773   3.633   3.415
   16SAPS  C215 2062   5.925   3.485   3.383
   16SAPS  H15R 2063   5.889   3.419   3.464
   16SAPS  C216 2064   6.038   3.416   3.307
   16SAPS  H16R 2065   6.090   3.479   3.232
   16SAPS  H16S 2066   6.009   3.324   3.251
   16SAPS  C217 2067   6.140   3.367   3.414
   16SAPS  H17R 2068   6.078   3.315   3.490
   16SAPS  H17S 2069   6.186   3.457   3.460
   16SAPS  C218 2070   6.248   3.272   3.355
   16SAPS  H18R 2071   6.329   3.253   3.430
   16SAPS  H18S 2072   6.298   3.323   3.270
   16SAPS  C219 2073   6.195   3.142   3.297
   16SAPS  H19R 2074   6.281   3.096   3.243
   16SAPS  H19S 2075   6.118   3.147   3.217
   16SAPS  C220 2076   6.147   3.047   3.406
   16SAPS  H20R 2077   6.130   2.947   3.361
   16SAPS  H20S 2078   6.051   3.072   3.457
   16SAPS  H20T 2079   6.220   3.051   3.489
   16SAPS   C33 2080   5.849   4.402   2.761
   16SAPS   H3X 2081   5.866   4.310   2.701
   16SAPS   H3Y 2082   5.739   4.416   2.763
   16SAPS   C34 2083   5.896   4.386   2.903
   16SAPS   H4X 2084   5.861   4.474   2.961
   16SAPS   H4Y 2085   6.007   4.386   2.910
   16SAPS   C35 2086   5.833   4.260   2.960
   16SAPS   H5X 2087   5.864   4.169   2.904
   16SAPS   H5Y 2088   5.723   4.270   2.948
   16SAPS   C36 2089   5.863   4.241   3.110
   16SAPS   H6X 2090   5.863   4.339   3.161
   16SAPS   H6Y 2091   5.966   4.199   3.117
   16SAPS   C37 2092   5.786   4.125   3.178
   16SAPS   H7X 2093   5.791   4.036   3.112
   16SAPS   H7Y 2094   5.678   4.148   3.169
   16SAPS   C38 2095   5.829   4.076   3.317
   16SAPS   H8X 2096   5.937   4.048   3.319
   16SAPS   H8Y 2097   5.768   3.984   3.331
   16SAPS   C39 2098   5.802   4.184   3.421
   16SAPS   H9X 2099   5.696   4.216   3.415
   16SAPS   H9Y 2100   5.871   4.268   3.394
   16SAPS  C310 2101   5.838   4.145   3.570
   16SAPS  H10X 2102   5.781   4.059   3.613
   16SAPS  H10Y 2103   5.823   4.238   3.629
   16SAPS  C311 2104   5.988   4.098   3.586
   16SAPS  H11X 2105   6.049   4.167   3.524
   16SAPS  H11Y 2106   5.988   3.996   3.542
   16SAPS  C312 2107   6.023   4.086   3.733
   16SAPS  H12X 2108   6.006   4.192   3.760
   16SAPS  H12Y 2109   6.133   4.070   3.743
   16SAPS  C313 2110   5.955   3.966   3.802
   16SAPS  H13X 2111   6.026   3.887   3.771
   16SAPS  H13Y 2112   5.850   3.961   3.768
   16SAPS  C314 2113   5.976   3.963   3.950
   16SAPS  H14X 2114   5.908   4.032   4.003
   16SAPS  H14Y 2115   6.081   3.971   3.986
   16SAPS  C315 2116   5.933   3.824   4.001
   16SAPS  H15X 2117   6.000   3.742   3.968
   16SAPS  H15Y 2118   5.826   3.808   3.976
   16SAPS  C316 2119   5.931   3.812   4.155
   16SAPS  H16X 2120   5.857   3.882   4.198
   16SAPS  H16Y 2121   6.025   3.845   4.204
   16SAPS  C317 2122   5.892   3.673   4.199
   16SAPS  H17X 2123   5.969   3.607   4.156
   16SAPS  H17Y 2124   5.793   3.647   4.154
   16SAPS  C318 2125   5.875   3.665   4.353
   16SAPS  H18X 2126   5.978   3.680   4.389
   16SAPS  H18Y 2127   5.836   3.565   4.383
   16SAPS  H18Z 2128   5.809   3.745   4.393
   17SAPS     N 2129   1.701   2.437   2.059
   17SAPS   HN1 2130   1.761   2.417   2.142
   17SAPS   HN2 2131   1.685   2.539   2.043
   17SAPS   HN3 2132   1.610   2.392   2.080
   17SAPS   C12 2133   1.765   2.376   1.945
   17SAPS  H12A 2134   1.693   2.397   1.867
   17SAPS   C13 2135   1.904   2.427   1.905
   17SAPS  O13A 2136   1.967   2.519   1.971
   17SAPS  O13B 2137   1.961   2.373   1.810
   17SAPS   C11 2138   1.780   2.227   1.994
   17SAPS  H11A 2139   1.870   2.223   2.059
   17SAPS  H11B 2140   1.795   2.165   1.903
   17SAPS     P 2141   1.678   2.026   2.106
   17SAPS   O13 2142   1.636   1.940   1.996
   17SAPS   O14 2143   1.812   2.006   2.168
   17SAPS   O12 2144   1.666   2.179   2.065
   17SAPS   O11 2145   1.562   2.022   2.211
   17SAPS    C1 2146   1.522   2.137   2.292
   17SAPS    HA 2147   1.594   2.221   2.305
   17SAPS    HB 2148   1.434   2.171   2.234
   17SAPS    C2 2149   1.480   2.114   2.434
   17SAPS    HS 2150   1.456   2.218   2.464
   17SAPS   O21 2151   1.599   2.057   2.503
   17SAPS   C21 2152   1.635   2.113   2.616
   17SAPS   O22 2153   1.563   2.189   2.682
   17SAPS   C22 2154   1.772   2.064   2.654
   17SAPS   H2R 2155   1.791   1.980   2.585
   17SAPS   H2S 2156   1.844   2.145   2.633
   17SAPS    C3 2157   1.357   2.025   2.462
   17SAPS    HX 2158   1.380   1.917   2.447
   17SAPS    HY 2159   1.277   2.052   2.390
   17SAPS   O31 2160   1.299   2.056   2.596
   17SAPS   C31 2161   1.338   1.975   2.695
   17SAPS   O32 2162   1.424   1.891   2.685
   17SAPS   C32 2163   1.264   1.999   2.823
   17SAPS   H2X 2164   1.240   1.897   2.862
   17SAPS   H2Y 2165   1.177   2.064   2.799
   17SAPS   C23 2166   1.781   2.013   2.798
   17SAPS   H3R 2167   1.875   1.956   2.815
   17SAPS   H3S 2168   1.699   1.943   2.824
   17SAPS   C24 2169   1.779   2.134   2.899
   17SAPS   H4R 2170   1.760   2.091   3.000
   17SAPS   H4S 2171   1.701   2.203   2.860
   17SAPS   C25 2172   1.916   2.198   2.892
   17SAPS   H5R 2173   1.930   2.280   2.821
   17SAPS   C26 2174   2.013   2.188   2.982
   17SAPS   H6R 2175   2.101   2.245   2.949
   17SAPS   C27 2176   2.034   2.105   3.105
   17SAPS   H7R 2177   2.142   2.078   3.108
   17SAPS   H7S 2178   1.986   2.008   3.084
   17SAPS   C28 2179   1.997   2.160   3.242
   17SAPS   H8R 2180   2.004   2.270   3.247
   17SAPS   C29 2181   1.955   2.094   3.350
   17SAPS   H9R 2182   1.939   2.155   3.440
   17SAPS  C210 2183   1.932   1.947   3.369
   17SAPS  H10R 2184   1.961   1.885   3.282
   17SAPS  H10S 2185   1.822   1.938   3.379
   17SAPS  C211 2186   1.984   1.882   3.487
   17SAPS  H11R 2187   2.019   1.949   3.567
   17SAPS  C212 2188   1.984   1.748   3.501
   17SAPS  H12R 2189   2.018   1.699   3.593
   17SAPS  C213 2190   1.939   1.649   3.397
   17SAPS  H13R 2191   1.874   1.697   3.321
   17SAPS  H13S 2192   1.878   1.569   3.443
   17SAPS  C214 2193   2.056   1.579   3.329
   17SAPS  H14R 2194   2.125   1.550   3.408
   17SAPS  C215 2195   2.093   1.585   3.204
   17SAPS  H15R 2196   2.179   1.523   3.175
   17SAPS  C216 2197   2.026   1.650   3.085
   17SAPS  H16R 2198   2.111   1.691   3.027
   17SAPS  H16S 2199   1.963   1.738   3.110
   17SAPS  C217 2200   1.947   1.565   2.992
   17SAPS  H17R 2201   1.856   1.522   3.039
   17SAPS  H17S 2202   2.008   1.480   2.955
   17SAPS  C218 2203   1.902   1.629   2.852
   17SAPS  H18R 2204   1.991   1.648   2.788
   17SAPS  H18S 2205   1.852   1.726   2.871
   17SAPS  C219 2206   1.788   1.536   2.784
   17SAPS  H19R 2207   1.700   1.537   2.853
   17SAPS  H19S 2208   1.837   1.439   2.761
   17SAPS  C220 2209   1.741   1.593   2.651
   17SAPS  H20R 2210   1.655   1.544   2.601
   17SAPS  H20S 2211   1.831   1.601   2.586
   17SAPS  H20T 2212   1.717   1.701   2.663
   17SAPS   C33 2213   1.355   2.070   2.925
   17SAPS   H3X 2214   1.381   2.170   2.882
   17SAPS   H3Y 2215   1.450   2.015   2.933
   17SAPS   C34 2216   1.277   2.087   3.049
   17SAPS   H4X 2217   1.263   1.990   3.102
   17SAPS   H4Y 2218   1.177   2.131   3.028
   17SAPS   C35 2219   1.342   2.187   3.151
   17SAPS   H5X 2220   1.362   2.290   3.116
   17SAPS   H5Y 2221   1.439   2.145   3.186
   17SAPS   C36 2222   1.251   2.201   3.277
   17SAPS   H6X 2223   1.144   2.226   3.259
   17SAPS   H6Y 2224   1.287   2.290   3.333
   17SAPS   C37 2225   1.266   2.088   3.378
   17SAPS   H7X 2226   1.375   2.091   3.396
   17SAPS   H7Y 2227   1.243   1.988   3.334
   17SAPS   C38 2228   1.195   2.103   3.509
   17SAPS   H8X 2229   1.091   2.126   3.476
   17SAPS   H8Y 2230   1.237   2.185   3.572
   17SAPS   C39 2231   1.213   1.977   3.595
   17SAPS   H9X 2232   1.315   1.939   3.573
   17SAPS   H9Y 2233   1.133   1.905   3.568
   17SAPS  C310 2234   1.211   2.004   3.752
   17SAPS  H10X 2235   1.106   2.031   3.777
   17SAPS  H10Y 2236   1.279   2.086   3.779
   17SAPS  C311 2237   1.250   1.884   3.844
   17SAPS  H11X 2238   1.360   1.873   3.829
   17SAPS  H11Y 2239   1.194   1.802   3.795
   17SAPS  C312 2240   1.227   1.910   3.989
   17SAPS  H12X 2241   1.135   1.971   4.002
   17SAPS  H12Y 2242   1.314   1.977   4.004
   17SAPS  C313 2243   1.241   1.791   4.090
   17SAPS  H13X 2244   1.324   1.725   4.058
   17SAPS  H13Y 2245   1.152   1.725   4.081
   17SAPS  C314 2246   1.271   1.831   4.240
   17SAPS  H14X 2247   1.213   1.762   4.305
   17SAPS  H14Y 2248   1.200   1.915   4.260
   17SAPS  C315 2249   1.419   1.863   4.271
   17SAPS  H15X 2250   1.453   1.930   4.188
   17SAPS  H15Y 2251   1.488   1.777   4.278
   17SAPS  C316 2252   1.439   1.924   4.410
   17SAPS  H16X 2253   1.425   1.850   4.491
   17SAPS  H16Y 2254   1.351   1.992   4.412
   17SAPS  C317 2255   1.563   2.012   4.420
   17SAPS  H17X 2256   1.536   2.108   4.371
   17SAPS  H17Y 2257   1.638   1.968   4.351
   17SAPS  C318 2258   1.600   2.059   4.562
   17SAPS  H18X 2259   1.519   2.116   4.612
   17SAPS  H18Y 2260   1.685   2.130   4.562
   17SAPS  H18Z 2261   1.630   1.976   4.630
   18SAPS     N 2262   4.771   2.432   2.134
   18SAPS   HN1 2263   4.803   2.336   2.111
   18SAPS   HN2 2264   4.832   2.509   2.099
   18SAPS   HN3 2265   4.768   2.435   2.238
   18SAPS   C12 2266   4.630   2.453   2.096
   18SAPS  H12A 2267   4.598   2.553   2.121
   18SAPS   C13 2268   4.613   2.442   1.937
   18SAPS  O13A 2269   4.712   2.432   1.859
   18SAPS  O13B 2270   4.499   2.481   1.890
   18SAPS   C11 2271   4.533   2.352   2.168
   18SAPS  H11A 2272   4.559   2.251   2.129
   18SAPS  H11B 2273   4.428   2.367   2.134
   18SAPS     P 2274   4.468   2.260   2.406
   18SAPS   O13 2275   4.483   2.124   2.343
   18SAPS   O14 2276   4.523   2.281   2.547
   18SAPS   O12 2277   4.546   2.352   2.313
   18SAPS   O11 2278   4.320   2.307   2.390
   18SAPS    C1 2279   4.272   2.441   2.394
   18SAPS    HA 2280   4.318   2.502   2.313
   18SAPS    HB 2281   4.168   2.446   2.354
   18SAPS    C2 2282   4.292   2.510   2.531
   18SAPS    HS 2283   4.395   2.492   2.568
   18SAPS   O21 2284   4.192   2.451   2.621
   18SAPS   C21 2285   4.223   2.457   2.748
   18SAPS   O22 2286   4.326   2.499   2.799
   18SAPS   C22 2287   4.091   2.423   2.828
   18SAPS   H2R 2288   4.005   2.480   2.787
   18SAPS   H2S 2289   4.069   2.316   2.809
   18SAPS    C3 2290   4.264   2.659   2.518
   18SAPS    HX 2291   4.176   2.677   2.453
   18SAPS    HY 2292   4.339   2.704   2.450
   18SAPS   O31 2293   4.237   2.722   2.643
   18SAPS   C31 2294   4.347   2.788   2.697
   18SAPS   O32 2295   4.453   2.808   2.646
   18SAPS   C32 2296   4.300   2.839   2.834
   18SAPS   H2X 2297   4.251   2.758   2.893
   18SAPS   H2Y 2298   4.236   2.929   2.831
   18SAPS   C23 2299   4.100   2.461   2.984
   18SAPS   H3R 2300   3.997   2.463   3.027
   18SAPS   H3S 2301   4.148   2.561   2.994
   18SAPS   C24 2302   4.186   2.370   3.075
   18SAPS   H4R 2303   4.205   2.416   3.174
   18SAPS   H4S 2304   4.289   2.369   3.032
   18SAPS   C25 2305   4.128   2.229   3.095
   18SAPS   H5R 2306   4.136   2.158   3.011
   18SAPS   C26 2307   4.051   2.195   3.194
   18SAPS   H6R 2308   4.011   2.092   3.200
   18SAPS   C27 2309   4.016   2.286   3.307
   18SAPS   H7R 2310   3.998   2.389   3.270
   18SAPS   H7S 2311   4.100   2.296   3.379
   18SAPS   C28 2312   3.889   2.248   3.378
   18SAPS   H8R 2313   3.815   2.184   3.327
   18SAPS   C29 2314   3.868   2.301   3.497
   18SAPS   H9R 2315   3.791   2.258   3.562
   18SAPS  C210 2316   3.967   2.392   3.571
   18SAPS  H10R 2317   3.908   2.448   3.646
   18SAPS  H10S 2318   3.998   2.471   3.498
   18SAPS  C211 2319   4.073   2.319   3.644
   18SAPS  H11R 2320   4.127   2.245   3.583
   18SAPS  C212 2321   4.101   2.334   3.774
   18SAPS  H12R 2322   4.186   2.275   3.811
   18SAPS  C213 2323   4.038   2.438   3.865
   18SAPS  H13R 2324   3.928   2.428   3.877
   18SAPS  H13S 2325   4.060   2.536   3.816
   18SAPS  C214 2326   4.101   2.448   3.997
   18SAPS  H14R 2327   4.208   2.424   4.001
   18SAPS  C215 2328   4.042   2.520   4.096
   18SAPS  H15R 2329   4.082   2.542   4.196
   18SAPS  C216 2330   3.894   2.564   4.102
   18SAPS  H16R 2331   3.831   2.545   4.013
   18SAPS  H16S 2332   3.899   2.675   4.114
   18SAPS  C217 2333   3.811   2.496   4.214
   18SAPS  H17R 2334   3.863   2.498   4.312
   18SAPS  H17S 2335   3.788   2.393   4.181
   18SAPS  C218 2336   3.671   2.554   4.238
   18SAPS  H18R 2337   3.621   2.563   4.139
   18SAPS  H18S 2338   3.676   2.657   4.281
   18SAPS  C219 2339   3.590   2.474   4.348
   18SAPS  H19R 2340   3.612   2.367   4.332
   18SAPS  H19S 2341   3.490   2.495   4.305
   18SAPS  C220 2342   3.600   2.513   4.493
   18SAPS  H20R 2343   3.694   2.503   4.550
   18SAPS  H20S 2344   3.538   2.452   4.562
   18SAPS  H20T 2345   3.569   2.619   4.507
   18SAPS   C33 2346   4.422   2.876   2.922
   18SAPS   H3X 2347   4.480   2.960   2.879
   18SAPS   H3Y 2348   4.485   2.785   2.931
   18SAPS   C34 2349   4.360   2.910   3.060
   18SAPS   H4X 2350   4.269   2.974   3.059
   18SAPS   H4Y 2351   4.437   2.966   3.119
   18SAPS   C35 2352   4.320   2.794   3.151
   18SAPS   H5X 2353   4.402   2.720   3.156
   18SAPS   H5Y 2354   4.238   2.741   3.099
   18SAPS   C36 2355   4.277   2.845   3.287
   18SAPS   H6X 2356   4.193   2.916   3.293
   18SAPS   H6Y 2357   4.362   2.875   3.352
   18SAPS   C37 2358   4.211   2.730   3.363
   18SAPS   H7X 2359   4.253   2.631   3.336
   18SAPS   H7Y 2360   4.107   2.718   3.325
   18SAPS   C38 2361   4.216   2.748   3.513
   18SAPS   H8X 2362   4.139   2.680   3.556
   18SAPS   H8Y 2363   4.190   2.852   3.542
   18SAPS   C39 2364   4.349   2.703   3.565
   18SAPS   H9X 2365   4.421   2.778   3.529
   18SAPS   H9Y 2366   4.372   2.605   3.518
   18SAPS  C310 2367   4.364   2.687   3.717
   18SAPS  H10X 2368   4.267   2.644   3.749
   18SAPS  H10Y 2369   4.376   2.789   3.758
   18SAPS  C311 2370   4.469   2.590   3.769
   18SAPS  H11X 2371   4.562   2.585   3.709
   18SAPS  H11Y 2372   4.433   2.485   3.756
   18SAPS  C312 2373   4.503   2.623   3.910
   18SAPS  H12X 2374   4.543   2.534   3.963
   18SAPS  H12Y 2375   4.414   2.667   3.960
   18SAPS  C313 2376   4.609   2.730   3.931
   18SAPS  H13X 2377   4.574   2.820   3.876
   18SAPS  H13Y 2378   4.706   2.690   3.897
   18SAPS  C314 2379   4.632   2.773   4.076
   18SAPS  H14X 2380   4.736   2.809   4.079
   18SAPS  H14Y 2381   4.632   2.678   4.134
   18SAPS  C315 2382   4.525   2.861   4.137
   18SAPS  H15X 2383   4.425   2.817   4.116
   18SAPS  H15Y 2384   4.516   2.961   4.090
   18SAPS  C316 2385   4.538   2.867   4.288
   18SAPS  H16X 2386   4.635   2.920   4.301
   18SAPS  H16Y 2387   4.538   2.763   4.327
   18SAPS  C317 2388   4.437   2.955   4.372
   18SAPS  H17X 2389   4.336   2.909   4.367
   18SAPS  H17Y 2390   4.428   3.056   4.326
   18SAPS  C318 2391   4.483   2.955   4.520
   18SAPS  H18X 2392   4.481   2.860   4.578
   18SAPS  H18Y 2393   4.419   3.023   4.580
   18SAPS  H18Z 2394   4.584   2.998   4.531
   19SAPS     N 2395   3.984   4.839   2.051
   19SAPS   HN1 2396   3.944   4.763   1.992
   19SAPS   HN2 2397   4.054   4.807   2.121
   19SAPS   HN3 2398   3.901   4.869   2.106
   19SAPS   C12 2399   4.030   4.944   1.963
   19SAPS  H12A 2400   4.119   4.896   1.925
   19SAPS   C13 2401   3.932   4.974   1.844
   19SAPS  O13A 2402   3.829   4.904   1.821
   19SAPS  O13B 2403   3.978   5.044   1.749
   19SAPS   C11 2404   4.060   5.077   2.049
   19SAPS  H11A 2405   3.968   5.138   2.062
   19SAPS  H11B 2406   4.127   5.131   1.978
   19SAPS     P 2407   4.272   5.054   2.203
   19SAPS   O13 2408   4.344   5.033   2.074
   19SAPS   O14 2409   4.310   5.167   2.292
   19SAPS   O12 2410   4.114   5.057   2.174
   19SAPS   O11 2411   4.289   4.921   2.288
   19SAPS    C1 2412   4.216   4.906   2.409
   19SAPS    HA 2413   4.207   5.002   2.465
   19SAPS    HB 2414   4.117   4.857   2.396
   19SAPS    C2 2415   4.308   4.816   2.498
   19SAPS    HS 2416   4.278   4.710   2.479
   19SAPS   O21 2417   4.275   4.848   2.639
   19SAPS   C21 2418   4.164   4.793   2.688
   19SAPS   O22 2419   4.109   4.692   2.645
   19SAPS   C22 2420   4.132   4.885   2.808
   19SAPS   H2R 2421   4.168   4.842   2.904
   19SAPS   H2S 2422   4.169   4.989   2.800
   19SAPS    C3 2423   4.461   4.837   2.478
   19SAPS    HX 2424   4.471   4.947   2.484
   19SAPS    HY 2425   4.483   4.796   2.377
   19SAPS   O31 2426   4.546   4.772   2.584
   19SAPS   C31 2427   4.670   4.780   2.554
   19SAPS   O32 2428   4.722   4.820   2.450
   19SAPS   C32 2429   4.751   4.712   2.663
   19SAPS   H2X 2430   4.727   4.604   2.672
   19SAPS   H2Y 2431   4.719   4.763   2.756
   19SAPS   C23 2432   3.976   4.882   2.841
   19SAPS   H3R 2433   3.923   4.884   2.743
   19SAPS   H3S 2434   3.953   4.975   2.897
   19SAPS   C24 2435   3.931   4.763   2.926
   19SAPS   H4R 2436   3.968   4.671   2.875
   19SAPS   H4S 2437   3.821   4.772   2.908
   19SAPS   C25 2438   3.963   4.755   3.075
   19SAPS   H5R 2439   4.070   4.769   3.097
   19SAPS   C26 2440   3.871   4.747   3.176
   19SAPS   H6R 2441   3.914   4.749   3.277
   19SAPS   C27 2442   3.717   4.749   3.180
   19SAPS   H7R 2443   3.684   4.666   3.115
   19SAPS   H7S 2444   3.690   4.846   3.134
   19SAPS   C28 2445   3.657   4.717   3.313
   19SAPS   H8R 2446   3.598   4.624   3.314
   19SAPS   C29 2447   3.648   4.787   3.426
   19SAPS   H9R 2448   3.579   4.748   3.502
   19SAPS  C210 2449   3.728   4.913   3.463
   19SAPS  H10R 2450   3.663   5.001   3.443
   19SAPS  H10S 2451   3.804   4.921   3.383
   19SAPS  C211 2452   3.795   4.919   3.590
   19SAPS  H11R 2453   3.903   4.906   3.579
   19SAPS  C212 2454   3.742   4.937   3.716
   19SAPS  H12R 2455   3.815   4.960   3.795
   19SAPS  C213 2456   3.596   4.953   3.762
   19SAPS  H13R 2457   3.563   4.880   3.840
   19SAPS  H13S 2458   3.534   4.923   3.674
   19SAPS  C214 2459   3.556   5.097   3.796
   19SAPS  H14R 2460   3.536   5.167   3.714
   19SAPS  C215 2461   3.551   5.154   3.917
   19SAPS  H15R 2462   3.515   5.257   3.922
   19SAPS  C216 2463   3.596   5.087   4.044
   19SAPS  H16R 2464   3.683   5.022   4.020
   19SAPS  H16S 2465   3.521   5.015   4.084
   19SAPS  C217 2466   3.648   5.191   4.148
   19SAPS  H17R 2467   3.731   5.250   4.106
   19SAPS  H17S 2468   3.683   5.127   4.232
   19SAPS  C218 2469   3.546   5.284   4.196
   19SAPS  H18R 2470   3.444   5.240   4.192
   19SAPS  H18S 2471   3.544   5.361   4.117
   19SAPS  C219 2472   3.567   5.357   4.330
   19SAPS  H19R 2473   3.515   5.455   4.321
   19SAPS  H19S 2474   3.674   5.384   4.338
   19SAPS  C220 2475   3.517   5.279   4.453
   19SAPS  H20R 2476   3.414   5.246   4.428
   19SAPS  H20S 2477   3.528   5.358   4.530
   19SAPS  H20T 2478   3.569   5.183   4.477
   19SAPS   C33 2479   4.905   4.735   2.653
   19SAPS   H3X 2480   4.925   4.839   2.686
   19SAPS   H3Y 2481   4.945   4.732   2.549
   19SAPS   C34 2482   4.985   4.630   2.731
   19SAPS   H4X 2483   5.092   4.659   2.725
   19SAPS   H4Y 2484   4.976   4.527   2.690
   19SAPS   C35 2485   4.949   4.623   2.884
   19SAPS   H5X 2486   5.007   4.536   2.923
   19SAPS   H5Y 2487   4.841   4.605   2.899
   19SAPS   C36 2488   4.975   4.740   2.981
   19SAPS   H6X 2489   4.892   4.814   2.966
   19SAPS   H6Y 2490   5.062   4.802   2.951
   19SAPS   C37 2491   4.974   4.695   3.124
   19SAPS   H7X 2492   5.048   4.613   3.138
   19SAPS   H7Y 2493   4.879   4.640   3.139
   19SAPS   C38 2494   4.977   4.808   3.228
   19SAPS   H8X 2495   4.898   4.871   3.184
   19SAPS   H8Y 2496   5.077   4.857   3.226
   19SAPS   C39 2497   4.930   4.769   3.363
   19SAPS   H9X 2498   4.826   4.728   3.361
   19SAPS   H9Y 2499   4.919   4.859   3.426
   19SAPS  C310 2500   5.016   4.663   3.434
   19SAPS  H10X 2501   5.124   4.690   3.431
   19SAPS  H10Y 2502   5.004   4.573   3.370
   19SAPS  C311 2503   4.966   4.619   3.572
   19SAPS  H11X 2504   4.859   4.590   3.567
   19SAPS  H11Y 2505   4.951   4.711   3.633
   19SAPS  C312 2506   5.054   4.529   3.658
   19SAPS  H12X 2507   5.160   4.560   3.651
   19SAPS  H12Y 2508   5.053   4.437   3.596
   19SAPS  C313 2509   5.011   4.481   3.802
   19SAPS  H13X 2510   5.088   4.414   3.845
   19SAPS  H13Y 2511   4.918   4.419   3.804
   19SAPS  C314 2512   4.990   4.600   3.893
   19SAPS  H14X 2513   4.932   4.569   3.982
   19SAPS  H14Y 2514   4.931   4.678   3.842
   19SAPS  C315 2515   5.120   4.657   3.936
   19SAPS  H15X 2516   5.186   4.671   3.848
   19SAPS  H15Y 2517   5.182   4.588   3.997
   19SAPS  C316 2518   5.104   4.793   4.002
   19SAPS  H16X 2519   5.022   4.852   3.955
   19SAPS  H16Y 2520   5.201   4.848   3.994
   19SAPS  C317 2521   5.074   4.780   4.150
   19SAPS  H17X 2522   5.154   4.722   4.202
   19SAPS  H17Y 2523   4.981   4.720   4.162
   19SAPS  C318 2524   5.060   4.914   4.217
   19SAPS  H18X 2525   4.964   4.956   4.181
   19SAPS  H18Y 2526   5.139   4.986   4.187
   19SAPS  H18Z 2527   5.060   4.900   4.327
   20SAPS     N 2528   4.703   5.567   2.089
   20SAPS   HN1 2529   4.640   5.517   2.155
   20SAPS   HN2 2530   4.798   5.526   2.099
   20SAPS   HN3 2531   4.707   5.669   2.108
   20SAPS   C12 2532   4.656   5.562   1.942
   20SAPS  H12A 2533   4.745   5.552   1.880
   20SAPS   C13 2534   4.572   5.444   1.895
   20SAPS  O13A 2535   4.540   5.362   1.987
   20SAPS  O13B 2536   4.545   5.429   1.771
   20SAPS   C11 2537   4.595   5.699   1.913
   20SAPS  H11A 2538   4.514   5.716   1.987
   20SAPS  H11B 2539   4.550   5.692   1.812
   20SAPS     P 2540   4.696   5.931   1.994
   20SAPS   O13 2541   4.825   6.008   1.970
   20SAPS   O14 2542   4.572   6.009   1.985
   20SAPS   O12 2543   4.698   5.803   1.902
   20SAPS   O11 2544   4.703   5.861   2.135
   20SAPS    C1 2545   4.826   5.869   2.212
   20SAPS    HA 2546   4.838   5.776   2.272
   20SAPS    HB 2547   4.916   5.880   2.149
   20SAPS    C2 2548   4.832   5.995   2.305
   20SAPS    HS 2549   4.836   6.088   2.245
   20SAPS   O21 2550   4.957   5.980   2.369
   20SAPS   C21 2551   5.009   6.085   2.431
   20SAPS   O22 2552   4.967   6.202   2.419
   20SAPS   C22 2553   5.114   6.038   2.540
   20SAPS   H2R 2554   5.081   5.934   2.562
   20SAPS   H2S 2555   5.216   6.032   2.497
   20SAPS    C3 2556   4.716   6.011   2.410
   20SAPS    HX 2557   4.624   6.037   2.354
   20SAPS    HY 2558   4.747   6.099   2.471
   20SAPS   O31 2559   4.697   5.892   2.494
   20SAPS   C31 2560   4.578   5.830   2.482
   20SAPS   O32 2561   4.492   5.859   2.403
   20SAPS   C32 2562   4.564   5.723   2.591
   20SAPS   H2X 2563   4.591   5.777   2.684
   20SAPS   H2Y 2564   4.636   5.642   2.570
   20SAPS   C23 2565   5.120   6.127   2.659
   20SAPS   H3R 2566   5.138   6.232   2.629
   20SAPS   H3S 2567   5.210   6.101   2.719
   20SAPS   C24 2568   5.005   6.113   2.760
   20SAPS   H4R 2569   4.912   6.113   2.699
   20SAPS   H4S 2570   5.000   6.197   2.832
   20SAPS   C25 2571   5.020   5.992   2.850
   20SAPS   H5R 2572   5.006   5.900   2.791
   20SAPS   C26 2573   5.002   5.982   2.979
   20SAPS   H6R 2574   5.006   5.882   3.024
   20SAPS   C27 2575   4.984   6.094   3.077
   20SAPS   H7R 2576   4.925   6.066   3.167
   20SAPS   H7S 2577   4.932   6.178   3.026
   20SAPS   C28 2578   5.117   6.143   3.130
   20SAPS   H8R 2579   5.183   6.171   3.047
   20SAPS   C29 2580   5.167   6.144   3.253
   20SAPS   H9R 2581   5.266   6.191   3.261
   20SAPS  C210 2582   5.073   6.128   3.367
   20SAPS  H10R 2583   5.045   6.021   3.368
   20SAPS  H10S 2584   4.972   6.164   3.338
   20SAPS  C211 2585   5.123   6.188   3.497
   20SAPS  H11R 2586   5.119   6.298   3.492
   20SAPS  C212 2587   5.162   6.125   3.608
   20SAPS  H12R 2588   5.194   6.184   3.696
   20SAPS  C213 2589   5.168   5.972   3.613
   20SAPS  H13R 2590   5.227   5.937   3.700
   20SAPS  H13S 2591   5.211   5.925   3.522
   20SAPS  C214 2592   5.021   5.925   3.635
   20SAPS  H14R 2593   4.946   5.977   3.575
   20SAPS  C215 2594   4.985   5.813   3.706
   20SAPS  H15R 2595   4.881   5.780   3.715
   20SAPS  C216 2596   5.085   5.731   3.778
   20SAPS  H16R 2597   5.189   5.756   3.747
   20SAPS  H16S 2598   5.059   5.628   3.744
   20SAPS  C217 2599   5.079   5.728   3.930
   20SAPS  H17R 2600   4.976   5.706   3.963
   20SAPS  H17S 2601   5.104   5.831   3.963
   20SAPS  C218 2602   5.183   5.626   3.990
   20SAPS  H18R 2603   5.283   5.664   3.960
   20SAPS  H18S 2604   5.162   5.528   3.944
   20SAPS  C219 2605   5.179   5.608   4.146
   20SAPS  H19R 2606   5.093   5.542   4.169
   20SAPS  H19S 2607   5.178   5.710   4.191
   20SAPS  C220 2608   5.306   5.535   4.203
   20SAPS  H20R 2609   5.309   5.565   4.310
   20SAPS  H20S 2610   5.401   5.560   4.151
   20SAPS  H20T 2611   5.290   5.425   4.199
   20SAPS   C33 2612   4.428   5.660   2.606
   20SAPS   H3X 2613   4.375   5.638   2.510
   20SAPS   H3Y 2614   4.357   5.736   2.646
   20SAPS   C34 2615   4.419   5.538   2.700
   20SAPS   H4X 2616   4.495   5.462   2.674
   20SAPS   H4Y 2617   4.326   5.494   2.660
   20SAPS   C35 2618   4.409   5.569   2.844
   20SAPS   H5X 2619   4.487   5.641   2.879
   20SAPS   H5Y 2620   4.417   5.477   2.905
   20SAPS   C36 2621   4.276   5.631   2.884
   20SAPS   H6X 2622   4.207   5.570   2.822
   20SAPS   H6Y 2623   4.264   5.732   2.839
   20SAPS   C37 2624   4.245   5.644   3.034
   20SAPS   H7X 2625   4.136   5.658   3.052
   20SAPS   H7Y 2626   4.287   5.739   3.073
   20SAPS   C38 2627   4.287   5.520   3.123
   20SAPS   H8X 2628   4.398   5.516   3.123
   20SAPS   H8Y 2629   4.244   5.435   3.066
   20SAPS   C39 2630   4.217   5.535   3.263
   20SAPS   H9X 2631   4.203   5.431   3.298
   20SAPS   H9Y 2632   4.115   5.574   3.244
   20SAPS  C310 2633   4.316   5.596   3.354
   20SAPS  H10X 2634   4.333   5.697   3.311
   20SAPS  H10Y 2635   4.416   5.551   3.338
   20SAPS  C311 2636   4.276   5.575   3.501
   20SAPS  H11X 2637   4.363   5.598   3.566
   20SAPS  H11Y 2638   4.237   5.473   3.519
   20SAPS  C312 2639   4.160   5.669   3.545
   20SAPS  H12X 2640   4.065   5.647   3.493
   20SAPS  H12Y 2641   4.185   5.772   3.512
   20SAPS  C313 2642   4.133   5.675   3.701
   20SAPS  H13X 2643   4.039   5.727   3.728
   20SAPS  H13Y 2644   4.213   5.724   3.760
   20SAPS  C314 2645   4.113   5.537   3.765
   20SAPS  H14X 2646   4.200   5.469   3.753
   20SAPS  H14Y 2647   4.027   5.490   3.712
   20SAPS  C315 2648   4.073   5.545   3.916
   20SAPS  H15X 2649   3.973   5.592   3.927
   20SAPS  H15Y 2650   4.157   5.612   3.946
   20SAPS  C316 2651   4.094   5.414   3.998
   20SAPS  H16X 2652   4.198   5.375   3.992
   20SAPS  H16Y 2653   4.015   5.342   3.967
   20SAPS  C317 2654   4.085   5.439   4.152
   20SAPS  H17X 2655   4.175   5.503   4.166
   20SAPS  H17Y 2656   4.114   5.349   4.210
   20SAPS  C318 2657   3.966   5.505   4.198
   20SAPS  H18X 2658   3.873   5.465   4.152
   20SAPS  H18Y 2659   3.977   5.613   4.174
   20SAPS  H18Z 2660   3.963   5.512   4.309
   21CHL1    C3 2661   1.579   3.921   5.996
   21CHL1    H3 2662   1.680   3.967   6.001
   21CHL1    O3 2663   1.547   3.854   6.118
   21CHL1   H3' 2664   1.630   3.820   6.152
   21CHL1    C4 2665   1.473   4.032   5.964
   21CHL1   H4A 2666   1.379   3.973   5.964
   21CHL1   H4B 2667   1.483   4.109   6.044
   21CHL1    C5 2668   1.493   4.094   5.824
   21CHL1    C6 2669   1.522   4.225   5.806
   21CHL1    H6 2670   1.524   4.286   5.898
   21CHL1    C7 2671   1.553   4.291   5.673
   21CHL1   H7A 2672   1.508   4.392   5.663
   21CHL1   H7B 2673   1.662   4.303   5.658
   21CHL1    C8 2674   1.506   4.205   5.558
   21CHL1    H8 2675   1.396   4.216   5.556
   21CHL1   C14 2676   1.562   4.249   5.427
   21CHL1   H14 2677   1.671   4.232   5.421
   21CHL1   C15 2678   1.542   4.394   5.390
   21CHL1  H15A 2679   1.436   4.425   5.394
   21CHL1  H15B 2680   1.608   4.464   5.447
   21CHL1   C16 2681   1.571   4.403   5.241
   21CHL1  H16A 2682   1.503   4.473   5.186
   21CHL1  H16B 2683   1.671   4.451   5.232
   21CHL1   C17 2684   1.567   4.254   5.184
   21CHL1   H17 2685   1.673   4.228   5.168
   21CHL1   C13 2686   1.512   4.175   5.305
   21CHL1   C18 2687   1.355   4.179   5.300
   21CHL1  H18A 2688   1.340   4.105   5.218
   21CHL1  H18B 2689   1.308   4.142   5.393
   21CHL1  H18C 2690   1.327   4.283   5.270
   21CHL1   C12 2691   1.564   4.032   5.319
   21CHL1  H12A 2692   1.536   3.961   5.239
   21CHL1  H12B 2693   1.675   4.029   5.323
   21CHL1   C11 2694   1.516   3.970   5.448
   21CHL1  H11A 2695   1.407   3.954   5.434
   21CHL1  H11B 2696   1.548   3.867   5.474
   21CHL1    C9 2697   1.548   4.058   5.573
   21CHL1    H9 2698   1.658   4.068   5.587
   21CHL1   C10 2699   1.501   3.996   5.707
   21CHL1   C19 2700   1.359   3.936   5.696
   21CHL1  H19A 2701   1.294   4.017   5.658
   21CHL1  H19B 2702   1.366   3.860   5.615
   21CHL1  H19C 2703   1.317   3.888   5.787
   21CHL1    C1 2704   1.600   3.888   5.739
   21CHL1   H1A 2705   1.598   3.806   5.665
   21CHL1   H1B 2706   1.705   3.924   5.745
   21CHL1    C2 2707   1.582   3.818   5.873
   21CHL1   H2A 2708   1.664   3.748   5.898
   21CHL1   H2B 2709   1.489   3.757   5.869
   21CHL1   C20 2710   1.506   4.251   5.039
   21CHL1   H20 2711   1.404   4.292   5.046
   21CHL1   C21 2712   1.501   4.109   4.987
   21CHL1  H21A 2713   1.434   4.047   5.050
   21CHL1  H21B 2714   1.603   4.065   4.994
   21CHL1  H21C 2715   1.460   4.112   4.883
   21CHL1   C22 2716   1.579   4.339   4.933
   21CHL1  H22A 2717   1.643   4.413   4.987
   21CHL1  H22B 2718   1.651   4.280   4.873
   21CHL1   C23 2719   1.475   4.408   4.836
   21CHL1  H23A 2720   1.419   4.335   4.774
   21CHL1  H23B 2721   1.409   4.449   4.915
   21CHL1   C24 2722   1.545   4.512   4.741
   21CHL1  H24A 2723   1.460   4.553   4.682
   21CHL1  H24B 2724   1.586   4.591   4.808
   21CHL1   C25 2725   1.655   4.455   4.656
   21CHL1   H25 2726   1.739   4.428   4.724
   21CHL1   C26 2727   1.620   4.320   4.591
   21CHL1  H26A 2728   1.550   4.332   4.506
   21CHL1  H26B 2729   1.709   4.260   4.563
   21CHL1  H26C 2730   1.573   4.246   4.659
   21CHL1   C27 2731   1.686   4.557   4.544
   21CHL1  H27A 2732   1.723   4.656   4.578
   21CHL1  H27B 2733   1.759   4.520   4.469
   21CHL1  H27C 2734   1.595   4.583   4.487
   22CHL1    C3 2735   2.262   1.864   5.849
   22CHL1    H3 2736   2.257   1.971   5.821
   22CHL1    O3 2737   2.267   1.840   5.989
   22CHL1   H3' 2738   2.316   1.757   5.995
   22CHL1    C4 2739   2.138   1.780   5.795
   22CHL1   H4A 2740   2.160   1.674   5.821
   22CHL1   H4B 2741   2.045   1.811   5.847
   22CHL1    C5 2742   2.135   1.781   5.642
   22CHL1    C6 2743   2.027   1.824   5.574
   22CHL1    H6 2744   1.935   1.846   5.630
   22CHL1    C7 2745   2.002   1.827   5.425
   22CHL1   H7A 2746   1.913   1.775   5.384
   22CHL1   H7B 2747   1.995   1.932   5.388
   22CHL1    C8 2748   2.126   1.767   5.351
   22CHL1    H8 2749   2.113   1.656   5.354
   22CHL1   C14 2750   2.125   1.812   5.203
   22CHL1   H14 2751   2.153   1.919   5.203
   22CHL1   C15 2752   1.996   1.787   5.122
   22CHL1  H15A 2753   1.962   1.684   5.145
   22CHL1  H15B 2754   1.925   1.866   5.157
   22CHL1   C16 2755   2.043   1.793   4.978
   22CHL1  H16A 2756   2.014   1.695   4.932
   22CHL1  H16B 2757   2.005   1.880   4.920
   22CHL1   C17 2758   2.202   1.799   4.982
   22CHL1   H17 2759   2.233   1.905   4.969
   22CHL1   C13 2760   2.241   1.746   5.118
   22CHL1   C18 2761   2.232   1.589   5.114
   22CHL1  H18A 2762   2.150   1.552   5.049
   22CHL1  H18B 2763   2.332   1.548   5.089
   22CHL1  H18C 2764   2.201   1.545   5.211
   22CHL1   C12 2765   2.377   1.782   5.183
   22CHL1  H12A 2766   2.461   1.727   5.136
   22CHL1  H12B 2767   2.386   1.892   5.170
   22CHL1   C11 2768   2.381   1.741   5.336
   22CHL1  H11A 2769   2.387   1.630   5.342
   22CHL1  H11B 2770   2.476   1.784   5.372
   22CHL1    C9 2771   2.260   1.795   5.422
   22CHL1    H9 2772   2.260   1.906   5.423
   22CHL1   C10 2773   2.269   1.751   5.574
   22CHL1   C19 2774   2.299   1.600   5.572
   22CHL1  H19A 2775   2.293   1.557   5.674
   22CHL1  H19B 2776   2.226   1.550   5.504
   22CHL1  H19C 2777   2.404   1.581   5.543
   22CHL1    C1 2778   2.387   1.831   5.641
   22CHL1   H1A 2779   2.483   1.784   5.609
   22CHL1   H1B 2780   2.384   1.939   5.615
   22CHL1    C2 2781   2.388   1.819   5.790
   22CHL1   H2A 2782   2.471   1.878   5.836
   22CHL1   H2B 2783   2.409   1.713   5.816
   22CHL1   C20 2784   2.254   1.720   4.867
   22CHL1   H20 2785   2.241   1.610   4.874
   22CHL1   C21 2786   2.405   1.733   4.870
   22CHL1  H21A 2787   2.452   1.657   4.936
   22CHL1  H21B 2788   2.444   1.830   4.906
   22CHL1  H21C 2789   2.456   1.701   4.777
   22CHL1   C22 2790   2.197   1.769   4.731
   22CHL1  H22A 2791   2.090   1.800   4.742
   22CHL1  H22B 2792   2.254   1.860   4.704
   22CHL1   C23 2793   2.200   1.667   4.613
   22CHL1  H23A 2794   2.304   1.629   4.605
   22CHL1  H23B 2795   2.138   1.585   4.655
   22CHL1   C24 2796   2.159   1.725   4.481
   22CHL1  H24A 2797   2.057   1.765   4.495
   22CHL1  H24B 2798   2.237   1.802   4.458
   22CHL1   C25 2799   2.145   1.609   4.373
   22CHL1   H25 2800   2.090   1.526   4.422
   22CHL1   C26 2801   2.048   1.650   4.250
   22CHL1  H26A 2802   2.102   1.728   4.192
   22CHL1  H26B 2803   2.037   1.554   4.197
   22CHL1  H26C 2804   1.950   1.693   4.281
   22CHL1   C27 2805   2.276   1.557   4.305
   22CHL1  H27A 2806   2.259   1.468   4.240
   22CHL1  H27B 2807   2.324   1.634   4.241
   22CHL1  H27C 2808   2.343   1.529   4.390
   23CHL1    C3 2809   0.909   3.726   5.674
   23CHL1    H3 2810   0.836   3.648   5.644
   23CHL1    O3 2811   0.937   3.716   5.811
   23CHL1   H3' 2812   0.963   3.803   5.843
   23CHL1    C4 2813   1.043   3.705   5.602
   23CHL1   H4A 2814   1.129   3.757   5.650
   23CHL1   H4B 2815   1.071   3.599   5.620
   23CHL1    C5 2816   1.042   3.737   5.457
   23CHL1    C6 2817   1.081   3.639   5.371
   23CHL1    H6 2818   1.121   3.546   5.416
   23CHL1    C7 2819   1.071   3.645   5.218
   23CHL1   H7A 2820   1.159   3.603   5.164
   23CHL1   H7B 2821   0.989   3.575   5.192
   23CHL1    C8 2822   1.037   3.789   5.173
   23CHL1    H8 2823   1.132   3.845   5.189
   23CHL1   C14 2824   0.999   3.792   5.021
   23CHL1   H14 2825   0.905   3.735   5.008
   23CHL1   C15 2826   1.090   3.722   4.919
   23CHL1  H15A 2827   1.196   3.739   4.950
   23CHL1  H15B 2828   1.079   3.612   4.923
   23CHL1   C16 2829   1.055   3.786   4.784
   23CHL1  H16A 2830   1.154   3.819   4.745
   23CHL1  H16B 2831   1.020   3.698   4.726
   23CHL1   C17 2832   0.952   3.898   4.814
   23CHL1   H17 2833   0.855   3.843   4.812
   23CHL1   C13 2834   0.975   3.931   4.964
   23CHL1   C18 2835   1.095   4.026   4.982
   23CHL1  H18A 2836   1.169   3.968   4.922
   23CHL1  H18B 2837   1.078   4.126   4.936
   23CHL1  H18C 2838   1.127   4.028   5.088
   23CHL1   C12 2839   0.855   3.982   5.042
   23CHL1  H12A 2840   0.837   4.083   4.999
   23CHL1  H12B 2841   0.760   3.925   5.037
   23CHL1   C11 2842   0.882   3.991   5.194
   23CHL1  H11A 2843   0.963   4.065   5.214
   23CHL1  H11B 2844   0.794   4.037   5.244
   23CHL1    C9 2845   0.926   3.851   5.260
   23CHL1    H9 2846   0.834   3.790   5.243
   23CHL1   C10 2847   0.961   3.862   5.414
   23CHL1   C19 2848   1.061   3.981   5.435
   23CHL1  H19A 2849   1.147   3.982   5.366
   23CHL1  H19B 2850   1.013   4.081   5.426
   23CHL1  H19C 2851   1.097   3.990   5.540
   23CHL1    C1 2852   0.833   3.886   5.497
   23CHL1   H1A 2853   0.782   3.979   5.465
   23CHL1   H1B 2854   0.755   3.815   5.462
   23CHL1    C2 2855   0.848   3.866   5.650
   23CHL1   H2A 2856   0.753   3.858   5.706
   23CHL1   H2B 2857   0.917   3.946   5.685
   23CHL1   C20 2858   0.935   4.006   4.709
   23CHL1   H20 2859   0.895   4.093   4.764
   23CHL1   C21 2860   0.822   3.964   4.607
   23CHL1  H21A 2861   0.721   3.974   4.651
   23CHL1  H21B 2862   0.840   3.856   4.589
   23CHL1  H21C 2863   0.838   4.017   4.511
   23CHL1   C22 2864   1.071   4.038   4.637
   23CHL1  H22A 2865   1.146   4.046   4.718
   23CHL1  H22B 2866   1.100   3.957   4.567
   23CHL1   C23 2867   1.069   4.167   4.550
   23CHL1  H23A 2868   1.169   4.171   4.503
   23CHL1  H23B 2869   0.981   4.164   4.482
   23CHL1   C24 2870   1.051   4.299   4.628
   23CHL1  H24A 2871   0.946   4.292   4.663
   23CHL1  H24B 2872   1.123   4.297   4.713
   23CHL1   C25 2873   1.064   4.433   4.538
   23CHL1   H25 2874   1.041   4.515   4.609
   23CHL1   C26 2875   1.210   4.471   4.514
   23CHL1  H26A 2876   1.269   4.445   4.605
   23CHL1  H26B 2877   1.255   4.401   4.441
   23CHL1  H26C 2878   1.210   4.580   4.491
   23CHL1   C27 2879   0.969   4.459   4.425
   23CHL1  H27A 2880   0.991   4.558   4.381
   23CHL1  H27B 2881   0.970   4.387   4.339
   23CHL1  H27C 2882   0.868   4.471   4.470
   24CHL1    C3 2883   3.386   4.708   5.941
   24CHL1    H3 2884   3.496   4.725   5.938
   24CHL1    O3 2885   3.362   4.698   6.078
   24CHL1   H3' 2886   3.281   4.747   6.098
   24CHL1    C4 2887   3.303   4.830   5.888
   24CHL1   H4A 2888   3.197   4.811   5.915
   24CHL1   H4B 2889   3.333   4.921   5.944
   24CHL1    C5 2890   3.332   4.835   5.736
   24CHL1    C6 2891   3.366   4.956   5.690
   24CHL1    H6 2892   3.363   5.041   5.759
   24CHL1    C7 2893   3.407   4.986   5.551
   24CHL1   H7A 2894   3.343   5.073   5.524
   24CHL1   H7B 2895   3.514   5.015   5.542
   24CHL1    C8 2896   3.363   4.875   5.451
   24CHL1    H8 2897   3.255   4.891   5.430
   24CHL1   C14 2898   3.446   4.892   5.326
   24CHL1   H14 2899   3.548   4.887   5.369
   24CHL1   C15 2900   3.424   5.025   5.248
   24CHL1  H15A 2901   3.319   5.060   5.241
   24CHL1  H15B 2902   3.479   5.105   5.302
   24CHL1   C16 2903   3.473   4.989   5.102
   24CHL1  H16A 2904   3.391   5.011   5.031
   24CHL1  H16B 2905   3.568   5.041   5.077
   24CHL1   C17 2906   3.499   4.838   5.098
   24CHL1   H17 2907   3.605   4.828   5.127
   24CHL1   C13 2908   3.420   4.785   5.219
   24CHL1   C18 2909   3.270   4.780   5.176
   24CHL1  H18A 2910   3.270   4.689   5.112
   24CHL1  H18B 2911   3.191   4.778   5.254
   24CHL1  H18C 2912   3.244   4.868   5.113
   24CHL1   C12 2913   3.463   4.649   5.279
   24CHL1  H12A 2914   3.433   4.570   5.207
   24CHL1  H12B 2915   3.574   4.639   5.289
   24CHL1   C11 2916   3.390   4.615   5.408
   24CHL1  H11A 2917   3.285   4.591   5.382
   24CHL1  H11B 2918   3.429   4.525   5.460
   24CHL1    C9 2919   3.399   4.734   5.512
   24CHL1    H9 2920   3.507   4.748   5.533
   24CHL1   C10 2921   3.330   4.707   5.648
   24CHL1   C19 2922   3.184   4.669   5.620
   24CHL1  H19A 2923   3.116   4.687   5.706
   24CHL1  H19B 2924   3.145   4.721   5.530
   24CHL1  H19C 2925   3.186   4.561   5.594
   24CHL1    C1 2926   3.404   4.593   5.727
   24CHL1   H1A 2927   3.389   4.498   5.673
   24CHL1   H1B 2928   3.514   4.610   5.720
   24CHL1    C2 2929   3.351   4.583   5.873
   24CHL1   H2A 2930   3.387   4.494   5.928
   24CHL1   H2B 2931   3.241   4.572   5.872
   24CHL1   C20 2932   3.496   4.775   4.965
   24CHL1   H20 2933   3.391   4.749   4.943
   24CHL1   C21 2934   3.576   4.640   4.961
   24CHL1  H21A 2935   3.548   4.565   5.038
   24CHL1  H21B 2936   3.685   4.664   4.967
   24CHL1  H21C 2937   3.543   4.582   4.872
   24CHL1   C22 2938   3.547   4.857   4.842
   24CHL1  H22A 2939   3.497   4.955   4.829
   24CHL1  H22B 2940   3.655   4.871   4.861
   24CHL1   C23 2941   3.541   4.777   4.709
   24CHL1  H23A 2942   3.631   4.711   4.705
   24CHL1  H23B 2943   3.443   4.724   4.707
   24CHL1   C24 2944   3.541   4.874   4.593
   24CHL1  H24A 2945   3.439   4.917   4.583
   24CHL1  H24B 2946   3.611   4.958   4.615
   24CHL1   C25 2947   3.570   4.807   4.456
   24CHL1   H25 2948   3.515   4.711   4.459
   24CHL1   C26 2949   3.502   4.892   4.346
   24CHL1  H26A 2950   3.526   4.855   4.244
   24CHL1  H26B 2951   3.392   4.892   4.367
   24CHL1  H26C 2952   3.540   4.995   4.355
   24CHL1   C27 2953   3.719   4.785   4.430
   24CHL1  H27A 2954   3.729   4.729   4.335
   24CHL1  H27B 2955   3.776   4.880   4.437
   24CHL1  H27C 2956   3.765   4.717   4.506
   25CHL1    C3 2957   6.021   5.658   5.787
   25CHL1    H3 2958   6.112   5.717   5.762
   25CHL1    O3 2959   6.013   5.612   5.923
   25CHL1   H3' 2960   5.936   5.555   5.931
   25CHL1    C4 2961   5.892   5.731   5.759
   25CHL1   H4A 2962   5.804   5.682   5.806
   25CHL1   H4B 2963   5.892   5.833   5.805
   25CHL1    C5 2964   5.879   5.754   5.608
   25CHL1    C6 2965   5.873   5.878   5.553
   25CHL1    H6 2966   5.882   5.964   5.621
   25CHL1    C7 2967   5.830   5.912   5.412
   25CHL1   H7A 2968   5.772   6.006   5.401
   25CHL1   H7B 2969   5.919   5.941   5.353
   25CHL1    C8 2970   5.781   5.791   5.332
   25CHL1    H8 2971   5.677   5.775   5.369
   25CHL1   C14 2972   5.771   5.816   5.182
   25CHL1   H14 2973   5.880   5.821   5.158
   25CHL1   C15 2974   5.701   5.942   5.122
   25CHL1  H15A 2975   5.609   5.960   5.183
   25CHL1  H15B 2976   5.765   6.030   5.144
   25CHL1   C16 2977   5.670   5.901   4.978
   25CHL1  H16A 2978   5.559   5.908   4.967
   25CHL1  H16B 2979   5.726   5.963   4.905
   25CHL1   C17 2980   5.712   5.749   4.961
   25CHL1   H17 2981   5.819   5.750   4.930
   25CHL1   C13 2982   5.720   5.694   5.105
   25CHL1   C18 2983   5.574   5.657   5.141
   25CHL1  H18A 2984   5.570   5.643   5.252
   25CHL1  H18B 2985   5.506   5.744   5.127
   25CHL1  H18C 2986   5.535   5.572   5.081
   25CHL1   C12 2987   5.821   5.583   5.120
   25CHL1  H12A 2988   5.796   5.490   5.065
   25CHL1  H12B 2989   5.925   5.613   5.094
   25CHL1   C11 2990   5.831   5.546   5.268
   25CHL1  H11A 2991   5.732   5.504   5.296
   25CHL1  H11B 2992   5.911   5.472   5.288
   25CHL1    C9 2993   5.866   5.668   5.367
   25CHL1    H9 2994   5.973   5.690   5.349
   25CHL1   C10 2995   5.864   5.630   5.523
   25CHL1   C19 2996   5.728   5.556   5.567
   25CHL1  H19A 2997   5.734   5.528   5.674
   25CHL1  H19B 2998   5.633   5.614   5.557
   25CHL1  H19C 2999   5.718   5.461   5.510
   25CHL1    C1 3000   5.988   5.543   5.554
   25CHL1   H1A 3001   5.980   5.447   5.499
   25CHL1   H1B 3002   6.080   5.593   5.517
   25CHL1    C2 3003   6.021   5.522   5.709
   25CHL1   H2A 3004   6.125   5.483   5.719
   25CHL1   H2B 3005   5.939   5.458   5.749
   25CHL1   C20 3006   5.631   5.676   4.851
   25CHL1   H20 3007   5.526   5.659   4.883
   25CHL1   C21 3008   5.673   5.524   4.837
   25CHL1  H21A 3009   5.616   5.468   4.760
   25CHL1  H21B 3010   5.641   5.475   4.932
   25CHL1  H21C 3011   5.783   5.510   4.822
   25CHL1   C22 3012   5.647   5.736   4.712
   25CHL1  H22A 3013   5.587   5.674   4.642
   25CHL1  H22B 3014   5.605   5.838   4.707
   25CHL1   C23 3015   5.791   5.748   4.663
   25CHL1  H23A 3016   5.842   5.831   4.718
   25CHL1  H23B 3017   5.855   5.659   4.682
   25CHL1   C24 3018   5.804   5.771   4.511
   25CHL1  H24A 3019   5.795   5.676   4.455
   25CHL1  H24B 3020   5.714   5.831   4.487
   25CHL1   C25 3021   5.934   5.852   4.470
   25CHL1   H25 3022   5.944   5.853   4.360
   25CHL1   C26 3023   5.920   5.998   4.509
   25CHL1  H26A 3024   6.013   6.049   4.474
   25CHL1  H26B 3025   5.829   6.042   4.463
   25CHL1  H26C 3026   5.921   6.015   4.619
   25CHL1   C27 3027   6.060   5.777   4.524
   25CHL1  H27A 3028   6.066   5.774   4.635
   25CHL1  H27B 3029   6.061   5.672   4.488
   25CHL1  H27C 3030   6.149   5.822   4.476
   26CHL1    C3 3031   3.526   3.326   6.088
   26CHL1    H3 3032   3.511   3.435   6.073
   26CHL1    O3 3033   3.530   3.299   6.232
   26CHL1   H3' 3034   3.437   3.278   6.242
   26CHL1    C4 3035   3.411   3.270   6.019
   26CHL1   H4A 3036   3.389   3.167   6.054
   26CHL1   H4B 3037   3.327   3.330   6.058
   26CHL1    C5 3038   3.415   3.267   5.866
   26CHL1    C6 3039   3.311   3.306   5.795
   26CHL1    H6 3040   3.212   3.328   5.839
   26CHL1    C7 3041   3.310   3.311   5.651
   26CHL1   H7A 3042   3.221   3.281   5.591
   26CHL1   H7B 3043   3.324   3.420   5.634
   26CHL1    C8 3044   3.430   3.240   5.580
   26CHL1    H8 3045   3.403   3.132   5.578
   26CHL1   C14 3046   3.454   3.310   5.447
   26CHL1   H14 3047   3.475   3.417   5.468
   26CHL1   C15 3048   3.331   3.316   5.348
   26CHL1  H15A 3049   3.289   3.213   5.340
   26CHL1  H15B 3050   3.260   3.391   5.388
   26CHL1   C16 3051   3.385   3.359   5.214
   26CHL1  H16A 3052   3.334   3.298   5.137
   26CHL1  H16B 3053   3.366   3.467   5.196
   26CHL1   C17 3054   3.538   3.337   5.223
   26CHL1   H17 3055   3.577   3.440   5.239
   26CHL1   C13 3056   3.565   3.261   5.356
   26CHL1   C18 3057   3.537   3.103   5.330
   26CHL1  H18A 3058   3.448   3.083   5.266
   26CHL1  H18B 3059   3.633   3.065   5.291
   26CHL1  H18C 3060   3.522   3.056   5.429
   26CHL1   C12 3061   3.696   3.286   5.437
   26CHL1  H12A 3062   3.796   3.264   5.394
   26CHL1  H12B 3063   3.714   3.394   5.458
   26CHL1   C11 3064   3.684   3.214   5.578
   26CHL1  H11A 3065   3.673   3.106   5.552
   26CHL1  H11B 3066   3.779   3.239   5.631
   26CHL1    C9 3067   3.560   3.268   5.656
   26CHL1    H9 3068   3.574   3.378   5.652
   26CHL1   C10 3069   3.552   3.227   5.803
   26CHL1   C19 3070   3.566   3.075   5.820
   26CHL1  H19A 3071   3.667   3.055   5.779
   26CHL1  H19B 3072   3.576   3.048   5.927
   26CHL1  H19C 3073   3.487   3.014   5.770
   26CHL1    C1 3074   3.661   3.302   5.883
   26CHL1   H1A 3075   3.760   3.271   5.843
   26CHL1   H1B 3076   3.658   3.410   5.859
   26CHL1    C2 3077   3.654   3.277   6.028
   26CHL1   H2A 3078   3.743   3.326   6.074
   26CHL1   H2B 3079   3.666   3.169   6.053
   26CHL1   C20 3080   3.604   3.272   5.098
   26CHL1   H20 3081   3.556   3.172   5.089
   26CHL1   C21 3082   3.752   3.252   5.111
   26CHL1  H21A 3083   3.815   3.343   5.120
   26CHL1  H21B 3084   3.791   3.208   5.018
   26CHL1  H21C 3085   3.787   3.186   5.193
   26CHL1   C22 3086   3.566   3.352   4.972
   26CHL1  H22A 3087   3.458   3.377   4.968
   26CHL1  H22B 3088   3.614   3.450   4.992
   26CHL1   C23 3089   3.603   3.297   4.828
   26CHL1  H23A 3090   3.711   3.307   4.807
   26CHL1  H23B 3091   3.580   3.189   4.818
   26CHL1   C24 3092   3.519   3.368   4.721
   26CHL1  H24A 3093   3.411   3.356   4.741
   26CHL1  H24B 3094   3.539   3.477   4.737
   26CHL1   C25 3095   3.553   3.336   4.573
   26CHL1   H25 3096   3.576   3.228   4.562
   26CHL1   C26 3097   3.437   3.357   4.477
   26CHL1  H26A 3098   3.357   3.282   4.497
   26CHL1  H26B 3099   3.394   3.459   4.488
   26CHL1  H26C 3100   3.457   3.341   4.369
   26CHL1   C27 3101   3.679   3.424   4.529
   26CHL1  H27A 3102   3.653   3.528   4.501
   26CHL1  H27B 3103   3.762   3.417   4.603
   26CHL1  H27C 3104   3.716   3.376   4.436
   27CHL1    C3 3105   0.343   2.542   5.658
   27CHL1    H3 3106   0.239   2.567   5.628
   27CHL1    O3 3107   0.350   2.471   5.778
   27CHL1   H3' 3108   0.315   2.533   5.842
   27CHL1    C4 3109   0.398   2.456   5.540
   27CHL1   H4A 3110   0.482   2.396   5.581
   27CHL1   H4B 3111   0.320   2.379   5.524
   27CHL1    C5 3112   0.433   2.535   5.413
   27CHL1    C6 3113   0.390   2.501   5.290
   27CHL1    H6 3114   0.326   2.413   5.277
   27CHL1    C7 3115   0.432   2.573   5.162
   27CHL1   H7A 3116   0.459   2.502   5.081
   27CHL1   H7B 3117   0.344   2.636   5.136
   27CHL1    C8 3118   0.554   2.667   5.187
   27CHL1    H8 3119   0.644   2.602   5.183
   27CHL1   C14 3120   0.557   2.773   5.073
   27CHL1   H14 3121   0.467   2.834   5.095
   27CHL1   C15 3122   0.552   2.718   4.924
   27CHL1  H15A 3123   0.622   2.632   4.923
   27CHL1  H15B 3124   0.451   2.680   4.899
   27CHL1   C16 3125   0.608   2.839   4.848
   27CHL1  H16A 3126   0.696   2.808   4.788
   27CHL1  H16B 3127   0.522   2.880   4.790
   27CHL1   C17 3128   0.644   2.947   4.954
   27CHL1   H17 3129   0.552   3.009   4.958
   27CHL1   C13 3130   0.668   2.872   5.082
   27CHL1   C18 3131   0.808   2.813   5.087
   27CHL1  H18A 3132   0.834   2.751   4.998
   27CHL1  H18B 3133   0.885   2.894   5.091
   27CHL1  H18C 3134   0.823   2.748   5.175
   27CHL1   C12 3135   0.647   2.956   5.216
   27CHL1  H12A 3136   0.744   3.009   5.228
   27CHL1  H12B 3137   0.559   3.021   5.194
   27CHL1   C11 3138   0.638   2.863   5.336
   27CHL1  H11A 3139   0.740   2.820   5.351
   27CHL1  H11B 3140   0.608   2.926   5.422
   27CHL1    C9 3141   0.537   2.745   5.321
   27CHL1    H9 3142   0.441   2.800   5.308
   27CHL1   C10 3143   0.529   2.654   5.441
   27CHL1   C19 3144   0.660   2.602   5.480
   27CHL1  H19A 3145   0.718   2.545   5.404
   27CHL1  H19B 3146   0.718   2.690   5.515
   27CHL1  H19C 3147   0.643   2.523   5.557
   27CHL1    C1 3148   0.454   2.738   5.546
   27CHL1   H1A 3149   0.515   2.829   5.565
   27CHL1   H1B 3150   0.357   2.777   5.510
   27CHL1    C2 3151   0.435   2.667   5.680
   27CHL1   H2A 3152   0.385   2.732   5.755
   27CHL1   H2B 3153   0.534   2.640   5.724
   27CHL1   C20 3154   0.732   3.059   4.900
   27CHL1   H20 3155   0.834   3.018   4.889
   27CHL1   C21 3156   0.746   3.174   5.001
   27CHL1  H21A 3157   0.808   3.255   4.956
   27CHL1  H21B 3158   0.803   3.137   5.089
   27CHL1  H21C 3159   0.646   3.215   5.029
   27CHL1   C22 3160   0.688   3.117   4.763
   27CHL1  H22A 3161   0.759   3.198   4.736
   27CHL1  H22B 3162   0.706   3.037   4.688
   27CHL1   C23 3163   0.549   3.188   4.760
   27CHL1  H23A 3164   0.468   3.111   4.766
   27CHL1  H23B 3165   0.540   3.259   4.844
   27CHL1   C24 3166   0.515   3.273   4.635
   27CHL1  H24A 3167   0.411   3.306   4.655
   27CHL1  H24B 3168   0.568   3.370   4.626
   27CHL1   C25 3169   0.513   3.186   4.504
   27CHL1   H25 3170   0.614   3.148   4.478
   27CHL1   C26 3171   0.422   3.067   4.511
   27CHL1  H26A 3172   0.322   3.115   4.511
   27CHL1  H26B 3173   0.427   3.009   4.416
   27CHL1  H26C 3174   0.434   3.000   4.599
   27CHL1   C27 3175   0.484   3.273   4.370
   27CHL1  H27A 3176   0.516   3.220   4.278
   27CHL1  H27B 3177   0.546   3.365   4.370
   27CHL1  H27C 3178   0.377   3.306   4.369
   28CHL1    C3 3179   5.215   2.225   5.979
   28CHL1    H3 3180   5.118   2.278   5.965
   28CHL1    O3 3181   5.260   2.246   6.111
   28CHL1   H3' 3182   5.180   2.275   6.155
   28CHL1    C4 3183   5.185   2.078   5.952
   28CHL1   H4A 3184   5.280   2.024   5.972
   28CHL1   H4B 3185   5.108   2.045   6.024
   28CHL1    C5 3186   5.148   2.054   5.804
   28CHL1    C6 3187   5.038   1.986   5.765
   28CHL1    H6 3188   4.986   1.933   5.847
   28CHL1    C7 3189   4.995   1.959   5.619
   28CHL1   H7A 3190   4.966   1.854   5.599
   28CHL1   H7B 3191   4.902   2.014   5.597
   28CHL1    C8 3192   5.102   1.994   5.512
   28CHL1    H8 3193   5.168   1.904   5.512
   28CHL1   C14 3194   5.041   2.018   5.376
   28CHL1   H14 3195   4.988   2.115   5.388
   28CHL1   C15 3196   4.939   1.928   5.320
   28CHL1  H15A 3197   4.981   1.825   5.323
   28CHL1  H15B 3198   4.841   1.932   5.373
   28CHL1   C16 3199   4.928   1.965   5.175
   28CHL1  H16A 3200   4.930   1.874   5.111
   28CHL1  H16B 3201   4.830   2.017   5.169
   28CHL1   C17 3202   5.049   2.055   5.136
   28CHL1   H17 3203   5.008   2.158   5.144
   28CHL1   C13 3204   5.139   2.039   5.263
   28CHL1   C18 3205   5.226   1.912   5.244
   28CHL1  H18A 3206   5.177   1.830   5.188
   28CHL1  H18B 3207   5.325   1.936   5.198
   28CHL1  H18C 3208   5.250   1.858   5.338
   28CHL1   C12 3209   5.223   2.164   5.292
   28CHL1  H12A 3210   5.302   2.170   5.215
   28CHL1  H12B 3211   5.158   2.254   5.283
   28CHL1   C11 3212   5.290   2.147   5.434
   28CHL1  H11A 3213   5.346   2.052   5.431
   28CHL1  H11B 3214   5.351   2.235   5.464
   28CHL1    C9 3215   5.186   2.112   5.551
   28CHL1    H9 3216   5.114   2.196   5.561
   28CHL1   C10 3217   5.243   2.114   5.696
   28CHL1   C19 3218   5.383   2.039   5.696
   28CHL1  H19A 3219   5.434   2.112   5.629
   28CHL1  H19B 3220   5.436   2.037   5.793
   28CHL1  H19C 3221   5.387   1.941   5.643
   28CHL1    C1 3222   5.264   2.264   5.740
   28CHL1   H1A 3223   5.321   2.321   5.663
   28CHL1   H1B 3224   5.161   2.305   5.740
   28CHL1    C2 3225   5.318   2.278   5.879
   28CHL1   H2A 3226   5.334   2.382   5.914
   28CHL1   H2B 3227   5.420   2.237   5.891
   28CHL1   C20 3228   5.093   2.035   4.984
   28CHL1   H20 3229   5.121   1.927   4.978
   28CHL1   C21 3230   5.219   2.127   4.951
   28CHL1  H21A 3231   5.297   2.118   5.030
   28CHL1  H21B 3232   5.185   2.233   4.953
   28CHL1  H21C 3233   5.251   2.097   4.849
   28CHL1   C22 3234   4.975   2.066   4.883
   28CHL1  H22A 3235   4.889   2.002   4.910
   28CHL1  H22B 3236   4.952   2.171   4.910
   28CHL1   C23 3237   5.013   2.047   4.728
   28CHL1  H23A 3238   5.082   2.128   4.700
   28CHL1  H23B 3239   5.067   1.951   4.711
   28CHL1   C24 3240   4.886   2.044   4.645
   28CHL1  H24A 3241   4.818   1.964   4.682
   28CHL1  H24B 3242   4.829   2.140   4.650
   28CHL1   C25 3243   4.921   2.025   4.493
   28CHL1   H25 3244   4.981   1.932   4.487
   28CHL1   C26 3245   4.789   1.992   4.413
   28CHL1  H26A 3246   4.739   1.904   4.459
   28CHL1  H26B 3247   4.709   2.066   4.431
   28CHL1  H26C 3248   4.809   1.977   4.304
   28CHL1   C27 3249   4.991   2.148   4.440
   28CHL1  H27A 3250   5.004   2.132   4.330
   28CHL1  H27B 3251   4.927   2.236   4.460
   28CHL1  H27C 3252   5.091   2.171   4.481
   29CHL1    C3 3253   2.549   3.931   6.048
   29CHL1    H3 3254   2.626   3.856   6.022
   29CHL1    O3 3255   2.517   3.892   6.182
   29CHL1   H3' 3256   2.444   3.947   6.211
   29CHL1    C4 3257   2.614   4.074   6.027
   29CHL1   H4A 3258   2.541   4.145   6.072
   29CHL1   H4B 3259   2.696   4.089   6.100
   29CHL1    C5 3260   2.634   4.126   5.887
   29CHL1    C6 3261   2.754   4.174   5.843
   29CHL1    H6 3262   2.841   4.178   5.910
   29CHL1    C7 3263   2.792   4.211   5.705
   29CHL1   H7A 3264   2.852   4.304   5.696
   29CHL1   H7B 3265   2.850   4.139   5.643
   29CHL1    C8 3266   2.657   4.223   5.629
   29CHL1    H8 3267   2.612   4.320   5.658
   29CHL1   C14 3268   2.693   4.238   5.481
   29CHL1   H14 3269   2.761   4.152   5.461
   29CHL1   C15 3270   2.788   4.353   5.435
   29CHL1  H15A 3271   2.751   4.450   5.475
   29CHL1  H15B 3272   2.891   4.335   5.472
   29CHL1   C16 3273   2.785   4.345   5.281
   29CHL1  H16A 3274   2.755   4.441   5.235
   29CHL1  H16B 3275   2.881   4.307   5.240
   29CHL1   C17 3276   2.666   4.251   5.246
   29CHL1   H17 3277   2.710   4.151   5.223
   29CHL1   C13 3278   2.587   4.223   5.379
   29CHL1   C18 3279   2.494   4.344   5.412
   29CHL1  H18A 3280   2.455   4.339   5.516
   29CHL1  H18B 3281   2.544   4.440   5.385
   29CHL1  H18C 3282   2.405   4.329   5.347
   29CHL1   C12 3283   2.521   4.081   5.398
   29CHL1  H12A 3284   2.432   4.062   5.333
   29CHL1  H12B 3285   2.600   4.005   5.383
   29CHL1   C11 3286   2.462   4.070   5.540
   29CHL1  H11A 3287   2.377   4.141   5.552
   29CHL1  H11B 3288   2.411   3.974   5.563
   29CHL1    C9 3289   2.569   4.101   5.648
   29CHL1    H9 3290   2.639   4.015   5.638
   29CHL1   C10 3291   2.517   4.102   5.796
   29CHL1   C19 3292   2.402   4.206   5.813
   29CHL1  H19A 3293   2.399   4.220   5.924
   29CHL1  H19B 3294   2.432   4.304   5.770
   29CHL1  H19C 3295   2.302   4.172   5.779
   29CHL1    C1 3296   2.450   3.961   5.826
   29CHL1   H1A 3297   2.357   3.950   5.765
   29CHL1   H1B 3298   2.519   3.879   5.796
   29CHL1    C2 3299   2.415   3.932   5.972
   29CHL1   H2A 3300   2.359   3.837   5.981
   29CHL1   H2B 3301   2.348   4.012   6.010
   29CHL1   C20 3302   2.590   4.293   5.115
   29CHL1   H20 3303   2.549   4.395   5.131
   29CHL1   C21 3304   2.481   4.196   5.083
   29CHL1  H21A 3305   2.398   4.204   5.157
   29CHL1  H21B 3306   2.512   4.091   5.062
   29CHL1  H21C 3307   2.431   4.237   4.992
   29CHL1   C22 3308   2.682   4.309   4.990
   29CHL1  H22A 3309   2.769   4.373   5.018
   29CHL1  H22B 3310   2.717   4.213   4.946
   29CHL1   C23 3311   2.606   4.391   4.882
   29CHL1  H23A 3312   2.514   4.345   4.840
   29CHL1  H23B 3313   2.569   4.480   4.938
   29CHL1   C24 3314   2.686   4.436   4.757
   29CHL1  H24A 3315   2.769   4.500   4.793
   29CHL1  H24B 3316   2.738   4.343   4.722
   29CHL1   C25 3317   2.591   4.500   4.651
   29CHL1   H25 3318   2.515   4.421   4.636
   29CHL1   C26 3319   2.516   4.627   4.700
   29CHL1  H26A 3320   2.442   4.667   4.628
   29CHL1  H26B 3321   2.472   4.599   4.798
   29CHL1  H26C 3322   2.595   4.704   4.714
   29CHL1   C27 3323   2.673   4.532   4.521
   29CHL1  H27A 3324   2.609   4.563   4.435
   29CHL1  H27B 3325   2.732   4.623   4.547
   29CHL1  H27C 3326   2.736   4.444   4.499
   30CHL1    C3 3327   2.845   3.641   5.674
   30CHL1    H3 3328   2.747   3.606   5.635
   30CHL1    O3 3329   2.851   3.625   5.812
   30CHL1   H3' 3330   2.875   3.535   5.833
   30CHL1    C4 3331   2.967   3.569   5.602
   30CHL1   H4A 3332   3.065   3.605   5.640
   30CHL1   H4B 3333   2.947   3.461   5.618
   30CHL1    C5 3334   2.950   3.601   5.458
   30CHL1    C6 3335   2.941   3.509   5.362
   30CHL1    H6 3336   2.946   3.402   5.385
   30CHL1    C7 3337   2.933   3.531   5.216
   30CHL1   H7A 3338   2.993   3.460   5.155
   30CHL1   H7B 3339   2.827   3.518   5.189
   30CHL1    C8 3340   2.977   3.674   5.180
   30CHL1    H8 3341   3.088   3.676   5.188
   30CHL1   C14 3342   2.936   3.702   5.031
   30CHL1   H14 3343   2.825   3.702   5.029
   30CHL1   C15 3344   2.974   3.600   4.920
   30CHL1  H15A 3345   3.084   3.583   4.921
   30CHL1  H15B 3346   2.920   3.504   4.933
   30CHL1   C16 3347   2.944   3.681   4.794
   30CHL1  H16A 3348   3.028   3.682   4.721
   30CHL1  H16B 3349   2.862   3.623   4.746
   30CHL1   C17 3350   2.906   3.824   4.844
   30CHL1   H17 3351   2.795   3.816   4.849
   30CHL1   C13 3352   2.957   3.839   4.987
   30CHL1   C18 3353   3.108   3.866   4.983
   30CHL1  H18A 3354   3.155   3.805   4.903
   30CHL1  H18B 3355   3.114   3.977   4.973
   30CHL1  H18C 3356   3.155   3.848   5.083
   30CHL1   C12 3357   2.876   3.936   5.077
   30CHL1  H12A 3358   2.867   4.037   5.032
   30CHL1  H12B 3359   2.773   3.894   5.070
   30CHL1   C11 3360   2.926   3.926   5.213
   30CHL1  H11A 3361   3.031   3.960   5.220
   30CHL1  H11B 3362   2.871   4.002   5.273
   30CHL1    C9 3363   2.909   3.778   5.269
   30CHL1    H9 3364   2.799   3.768   5.268
   30CHL1   C10 3365   2.953   3.750   5.419
   30CHL1   C19 3366   3.099   3.797   5.443
   30CHL1  H19A 3367   3.130   3.808   5.549
   30CHL1  H19B 3368   3.177   3.732   5.397
   30CHL1  H19C 3369   3.112   3.899   5.401
   30CHL1    C1 3370   2.850   3.830   5.507
   30CHL1   H1A 3371   2.886   3.935   5.509
   30CHL1   H1B 3372   2.745   3.833   5.470
   30CHL1    C2 3373   2.852   3.793   5.654
   30CHL1   H2A 3374   2.766   3.833   5.713
   30CHL1   H2B 3375   2.946   3.834   5.696
   30CHL1   C20 3376   2.921   3.943   4.751
   30CHL1   H20 3377   2.925   4.038   4.809
   30CHL1   C21 3378   2.797   3.935   4.661
   30CHL1  H21A 3379   2.706   3.971   4.715
   30CHL1  H21B 3380   2.773   3.831   4.629
   30CHL1  H21C 3381   2.807   3.984   4.563
   30CHL1   C22 3382   3.042   3.962   4.659
   30CHL1  H22A 3383   3.125   3.937   4.728
   30CHL1  H22B 3384   3.044   3.892   4.573
   30CHL1   C23 3385   3.058   4.104   4.603
   30CHL1  H23A 3386   2.975   4.124   4.531
   30CHL1  H23B 3387   3.047   4.182   4.681
   30CHL1   C24 3388   3.199   4.125   4.540
   30CHL1  H24A 3389   3.270   4.093   4.619
   30CHL1  H24B 3390   3.205   4.059   4.451
   30CHL1   C25 3391   3.224   4.273   4.500
   30CHL1   H25 3392   3.206   4.324   4.598
   30CHL1   C26 3393   3.368   4.305   4.457
   30CHL1  H26A 3394   3.384   4.246   4.364
   30CHL1  H26B 3395   3.377   4.416   4.456
   30CHL1  H26C 3396   3.444   4.260   4.524
   30CHL1   C27 3397   3.113   4.336   4.411
   30CHL1  H27A 3398   3.106   4.282   4.314
   30CHL1  H27B 3399   3.013   4.339   4.460
   30CHL1  H27C 3400   3.145   4.439   4.386
   31CHL1    C3 3401   1.841   4.172   6.218
   31CHL1    H3 3402   1.754   4.128   6.163
   31CHL1    O3 3403   1.815   4.140   6.356
   31CHL1   H3' 3404   1.864   4.203   6.410
   31CHL1    C4 3405   1.977   4.126   6.170
   31CHL1   H4A 3406   2.046   4.184   6.236
   31CHL1   H4B 3407   2.002   4.024   6.204
   31CHL1    C5 3408   1.991   4.153   6.019
   31CHL1    C6 3409   2.015   4.050   5.935
   31CHL1    H6 3410   2.032   3.951   5.979
   31CHL1    C7 3411   2.030   4.064   5.785
   31CHL1   H7A 3412   2.131   4.020   5.778
   31CHL1   H7B 3413   1.939   4.023   5.735
   31CHL1    C8 3414   2.030   4.210   5.738
   31CHL1    H8 3415   2.129   4.258   5.753
   31CHL1   C14 3416   1.991   4.228   5.586
   31CHL1   H14 3417   1.883   4.201   5.590
   31CHL1   C15 3418   2.045   4.133   5.477
   31CHL1  H15A 3419   2.155   4.131   5.488
   31CHL1  H15B 3420   1.990   4.037   5.466
   31CHL1   C16 3421   2.012   4.214   5.346
   31CHL1  H16A 3422   2.110   4.217   5.292
   31CHL1  H16B 3423   1.933   4.166   5.284
   31CHL1   C17 3424   1.967   4.355   5.386
   31CHL1   H17 3425   1.856   4.354   5.373
   31CHL1   C13 3426   2.000   4.372   5.532
   31CHL1   C18 3427   2.142   4.423   5.544
   31CHL1  H18A 3428   2.141   4.525   5.501
   31CHL1  H18B 3429   2.191   4.425   5.644
   31CHL1  H18C 3430   2.220   4.368   5.487
   31CHL1   C12 3431   1.905   4.463   5.617
   31CHL1  H12A 3432   1.932   4.569   5.598
   31CHL1  H12B 3433   1.799   4.454   5.586
   31CHL1   C11 3434   1.923   4.441   5.769
   31CHL1  H11A 3435   2.016   4.494   5.800
   31CHL1  H11B 3436   1.846   4.495   5.827
   31CHL1    C9 3437   1.933   4.296   5.823
   31CHL1    H9 3438   1.832   4.252   5.807
   31CHL1   C10 3439   1.965   4.296   5.975
   31CHL1   C19 3440   2.094   4.382   6.008
   31CHL1  H19A 3441   2.064   4.487   5.990
   31CHL1  H19B 3442   2.125   4.367   6.114
   31CHL1  H19C 3443   2.178   4.353   5.942
   31CHL1    C1 3444   1.848   4.361   6.055
   31CHL1   H1A 3445   1.856   4.469   6.034
   31CHL1   H1B 3446   1.753   4.326   6.011
   31CHL1    C2 3447   1.835   4.319   6.205
   31CHL1   H2A 3448   1.737   4.348   6.249
   31CHL1   H2B 3449   1.910   4.376   6.264
   31CHL1   C20 3450   2.014   4.461   5.283
   31CHL1   H20 3451   2.125   4.468   5.290
   31CHL1   C21 3452   1.953   4.600   5.320
   31CHL1  H21A 3453   1.843   4.594   5.304
   31CHL1  H21B 3454   1.993   4.681   5.255
   31CHL1  H21C 3455   1.975   4.637   5.422
   31CHL1   C22 3456   1.983   4.418   5.136
   31CHL1  H22A 3457   2.044   4.332   5.103
   31CHL1  H22B 3458   1.876   4.386   5.138
   31CHL1   C23 3459   2.015   4.533   5.037
   31CHL1  H23A 3460   1.924   4.596   5.028
   31CHL1  H23B 3461   2.088   4.598   5.090
   31CHL1   C24 3462   2.061   4.480   4.898
   31CHL1  H24A 3463   2.146   4.411   4.916
   31CHL1  H24B 3464   1.974   4.433   4.847
   31CHL1   C25 3465   2.098   4.603   4.811
   31CHL1   H25 3466   2.171   4.663   4.869
   31CHL1   C26 3467   2.161   4.578   4.674
   31CHL1  H26A 3468   2.261   4.532   4.688
   31CHL1  H26B 3469   2.094   4.513   4.615
   31CHL1  H26C 3470   2.178   4.678   4.627
   31CHL1   C27 3471   1.976   4.687   4.785
   31CHL1  H27A 3472   1.944   4.744   4.875
   31CHL1  H27B 3473   1.993   4.763   4.707
   31CHL1  H27C 3474   1.890   4.620   4.763
   32CHL1    C3 3475   1.955   2.258   5.908
   32CHL1    H3 3476   1.970   2.148   5.907
   32CHL1    O3 3477   1.952   2.301   6.041
   32CHL1   H3' 3478   1.927   2.393   6.037
   32CHL1    C4 3479   2.064   2.346   5.839
   32CHL1   H4A 3480   2.045   2.455   5.850
   32CHL1   H4B 3481   2.157   2.323   5.896
   32CHL1    C5 3482   2.078   2.311   5.692
   32CHL1    C6 3483   2.188   2.266   5.643
   32CHL1    H6 3484   2.281   2.251   5.699
   32CHL1    C7 3485   2.209   2.241   5.506
   32CHL1   H7A 3486   2.307   2.280   5.470
   32CHL1   H7B 3487   2.217   2.133   5.482
   32CHL1    C8 3488   2.106   2.299   5.409
   32CHL1    H8 3489   2.119   2.409   5.406
   32CHL1   C14 3490   2.114   2.235   5.274
   32CHL1   H14 3491   2.104   2.126   5.291
   32CHL1   C15 3492   2.244   2.251   5.197
   32CHL1  H15A 3493   2.280   2.356   5.198
   32CHL1  H15B 3494   2.325   2.182   5.228
   32CHL1   C16 3495   2.203   2.211   5.050
   32CHL1  H16A 3496   2.219   2.305   4.993
   32CHL1  H16B 3497   2.261   2.134   4.995
   32CHL1   C17 3498   2.050   2.186   5.057
   32CHL1   H17 3499   2.039   2.080   5.088
   32CHL1   C13 3500   2.004   2.265   5.174
   32CHL1   C18 3501   2.010   2.417   5.137
   32CHL1  H18A 3502   2.014   2.479   5.229
   32CHL1  H18B 3503   2.084   2.459   5.066
   32CHL1  H18C 3504   1.918   2.439   5.079
   32CHL1   C12 3505   1.866   2.229   5.236
   32CHL1  H12A 3506   1.787   2.278   5.176
   32CHL1  H12B 3507   1.847   2.121   5.255
   32CHL1   C11 3508   1.848   2.291   5.377
   32CHL1  H11A 3509   1.850   2.399   5.355
   32CHL1  H11B 3510   1.751   2.253   5.417
   32CHL1    C9 3511   1.964   2.260   5.473
   32CHL1    H9 3512   1.962   2.151   5.490
   32CHL1   C10 3513   1.943   2.323   5.614
   32CHL1   C19 3514   1.929   2.476   5.609
   32CHL1  H19A 3515   1.848   2.501   5.538
   32CHL1  H19B 3516   1.902   2.520   5.707
   32CHL1  H19C 3517   2.018   2.529   5.571
   32CHL1    C1 3518   1.821   2.259   5.698
   32CHL1   H1A 3519   1.729   2.277   5.639
   32CHL1   H1B 3520   1.836   2.150   5.682
   32CHL1    C2 3521   1.820   2.292   5.847
   32CHL1   H2A 3522   1.742   2.221   5.883
   32CHL1   H2B 3523   1.776   2.389   5.881
   32CHL1   C20 3524   1.978   2.204   4.920
   32CHL1   H20 3525   1.971   2.314   4.902
   32CHL1   C21 3526   1.833   2.139   4.921
   32CHL1  H21A 3527   1.826   2.038   4.966
   32CHL1  H21B 3528   1.786   2.135   4.821
   32CHL1  H21C 3529   1.764   2.196   4.987
   32CHL1   C22 3530   2.052   2.139   4.802
   32CHL1  H22A 3531   2.163   2.151   4.807
   32CHL1  H22B 3532   2.037   2.030   4.815
   32CHL1   C23 3533   1.998   2.178   4.667
   32CHL1  H23A 3534   1.891   2.157   4.645
   32CHL1  H23B 3535   2.028   2.284   4.650
   32CHL1   C24 3536   2.085   2.099   4.565
   32CHL1  H24A 3537   2.190   2.084   4.597
   32CHL1  H24B 3538   2.035   1.999   4.568
   32CHL1   C25 3539   2.068   2.164   4.423
   32CHL1   H25 3540   2.114   2.265   4.432
   32CHL1   C26 3541   2.130   2.080   4.310
   32CHL1  H26A 3542   2.084   1.980   4.295
   32CHL1  H26B 3543   2.132   2.134   4.213
   32CHL1  H26C 3544   2.231   2.052   4.345
   32CHL1   C27 3545   1.920   2.187   4.378
   32CHL1  H27A 3546   1.866   2.090   4.380
   32CHL1  H27B 3547   1.857   2.253   4.442
   32CHL1  H27C 3548   1.901   2.224   4.275
   33CHL1    C3 3549   0.804   1.434   5.944
   33CHL1    H3 3550   0.915   1.441   5.934
   33CHL1    O3 3551   0.760   1.399   6.072
   33CHL1   H3' 3552   0.811   1.320   6.091
   33CHL1    C4 3553   0.749   1.576   5.910
   33CHL1   H4A 3554   0.640   1.571   5.933
   33CHL1   H4B 3555   0.799   1.645   5.982
   33CHL1    C5 3556   0.774   1.613   5.763
   33CHL1    C6 3557   0.845   1.714   5.727
   33CHL1    H6 3558   0.885   1.778   5.806
   33CHL1    C7 3559   0.866   1.760   5.585
   33CHL1   H7A 3560   0.834   1.866   5.575
   33CHL1   H7B 3561   0.972   1.749   5.556
   33CHL1    C8 3562   0.778   1.676   5.482
   33CHL1    H8 3563   0.678   1.724   5.492
   33CHL1   C14 3564   0.828   1.701   5.338
   33CHL1   H14 3565   0.930   1.657   5.345
   33CHL1   C15 3566   0.829   1.845   5.299
   33CHL1  H15A 3567   0.731   1.885   5.333
   33CHL1  H15B 3568   0.918   1.890   5.347
   33CHL1   C16 3569   0.825   1.838   5.148
   33CHL1  H16A 3570   0.752   1.907   5.101
   33CHL1  H16B 3571   0.924   1.873   5.112
   33CHL1   C17 3572   0.806   1.692   5.106
   33CHL1   H17 3573   0.905   1.644   5.091
   33CHL1   C13 3574   0.752   1.629   5.235
   33CHL1   C18 3575   0.599   1.668   5.247
   33CHL1  H18A 3576   0.555   1.674   5.349
   33CHL1  H18B 3577   0.581   1.769   5.206
   33CHL1  H18C 3578   0.535   1.600   5.186
   33CHL1   C12 3579   0.770   1.480   5.262
   33CHL1  H12A 3580   0.727   1.406   5.191
   33CHL1  H12B 3581   0.879   1.457   5.255
   33CHL1   C11 3582   0.720   1.438   5.403
   33CHL1  H11A 3583   0.610   1.446   5.388
   33CHL1  H11B 3584   0.745   1.334   5.432
   33CHL1    C9 3585   0.775   1.534   5.519
   33CHL1    H9 3586   0.884   1.511   5.527
   33CHL1   C10 3587   0.718   1.505   5.662
   33CHL1   C19 3588   0.568   1.502   5.660
   33CHL1  H19A 3589   0.523   1.513   5.761
   33CHL1  H19B 3590   0.523   1.583   5.599
   33CHL1  H19C 3591   0.523   1.406   5.628
   33CHL1    C1 3592   0.787   1.368   5.706
   33CHL1   H1A 3593   0.770   1.288   5.632
   33CHL1   H1B 3594   0.895   1.391   5.712
   33CHL1    C2 3595   0.751   1.327   5.847
   33CHL1   H2A 3596   0.785   1.226   5.879
   33CHL1   H2B 3597   0.641   1.327   5.864
   33CHL1   C20 3598   0.732   1.682   4.971
   33CHL1   H20 3599   0.628   1.721   4.981
   33CHL1   C21 3600   0.716   1.529   4.943
   33CHL1  H21A 3601   0.636   1.481   5.003
   33CHL1  H21B 3602   0.812   1.474   4.952
   33CHL1  H21C 3603   0.683   1.518   4.837
   33CHL1   C22 3604   0.809   1.743   4.859
   33CHL1  H22A 3605   0.847   1.842   4.892
   33CHL1  H22B 3606   0.891   1.682   4.814
   33CHL1   C23 3607   0.713   1.779   4.750
   33CHL1  H23A 3608   0.670   1.687   4.707
   33CHL1  H23B 3609   0.633   1.847   4.787
   33CHL1   C24 3610   0.785   1.837   4.631
   33CHL1  H24A 3611   0.820   1.940   4.654
   33CHL1  H24B 3612   0.879   1.780   4.614
   33CHL1   C25 3613   0.704   1.841   4.497
   33CHL1   H25 3614   0.667   1.737   4.481
   33CHL1   C26 3615   0.590   1.942   4.529
   33CHL1  H26A 3616   0.526   1.973   4.444
   33CHL1  H26B 3617   0.520   1.906   4.607
   33CHL1  H26C 3618   0.633   2.035   4.574
   33CHL1   C27 3619   0.784   1.884   4.377
   33CHL1  H27A 3620   0.888   1.846   4.378
   33CHL1  H27B 3621   0.745   1.853   4.278
   33CHL1  H27C 3622   0.795   1.995   4.377
   34CHL1    C3 3623   2.535   2.597   6.058
   34CHL1    H3 3624   2.645   2.610   6.044
   34CHL1    O3 3625   2.517   2.570   6.195
   34CHL1   H3' 3626   2.526   2.475   6.204
   34CHL1    C4 3627   2.478   2.734   6.020
   34CHL1   H4A 3628   2.369   2.745   6.033
   34CHL1   H4B 3629   2.524   2.818   6.077
   34CHL1    C5 3630   2.500   2.756   5.874
   34CHL1    C6 3631   2.583   2.850   5.825
   34CHL1    H6 3632   2.638   2.918   5.891
   34CHL1    C7 3633   2.597   2.879   5.678
   34CHL1   H7A 3634   2.606   2.989   5.663
   34CHL1   H7B 3635   2.690   2.834   5.636
   34CHL1    C8 3636   2.482   2.818   5.584
   34CHL1    H8 3637   2.386   2.869   5.607
   34CHL1   C14 3638   2.507   2.831   5.435
   34CHL1   H14 3639   2.603   2.777   5.415
   34CHL1   C15 3640   2.507   2.973   5.371
   34CHL1  H15A 3641   2.426   3.041   5.404
   34CHL1  H15B 3642   2.596   3.035   5.394
   34CHL1   C16 3643   2.500   2.947   5.222
   34CHL1  H16A 3644   2.438   3.021   5.168
   34CHL1  H16B 3645   2.601   2.950   5.176
   34CHL1   C17 3646   2.435   2.803   5.199
   34CHL1   H17 3647   2.511   2.731   5.163
   34CHL1   C13 3648   2.396   2.760   5.348
   34CHL1   C18 3649   2.269   2.830   5.383
   34CHL1  H18A 3650   2.234   2.823   5.488
   34CHL1  H18B 3651   2.254   2.934   5.347
   34CHL1  H18C 3652   2.185   2.779   5.331
   34CHL1   C12 3653   2.398   2.607   5.379
   34CHL1  H12A 3654   2.322   2.545   5.327
   34CHL1  H12B 3655   2.496   2.561   5.355
   34CHL1   C11 3656   2.366   2.588   5.526
   34CHL1  H11A 3657   2.260   2.621   5.538
   34CHL1  H11B 3658   2.370   2.481   5.554
   34CHL1    C9 3659   2.465   2.671   5.623
   34CHL1    H9 3660   2.563   2.624   5.602
   34CHL1   C10 3661   2.435   2.661   5.778
   34CHL1   C19 3662   2.282   2.673   5.788
   34CHL1  H19A 3663   2.239   2.762   5.735
   34CHL1  H19B 3664   2.237   2.578   5.752
   34CHL1  H19C 3665   2.247   2.672   5.893
   34CHL1    C1 3666   2.470   2.517   5.823
   34CHL1   H1A 3667   2.404   2.441   5.777
   34CHL1   H1B 3668   2.575   2.494   5.794
   34CHL1    C2 3669   2.464   2.494   5.975
   34CHL1   H2A 3670   2.499   2.392   6.002
   34CHL1   H2B 3671   2.356   2.502   5.999
   34CHL1   C20 3672   2.323   2.809   5.091
   34CHL1   H20 3673   2.255   2.886   5.132
   34CHL1   C21 3674   2.250   2.674   5.077
   34CHL1  H21A 3675   2.325   2.597   5.047
   34CHL1  H21B 3676   2.183   2.686   4.990
   34CHL1  H21C 3677   2.192   2.642   5.165
   34CHL1   C22 3678   2.382   2.861   4.959
   34CHL1  H22A 3679   2.413   2.968   4.967
   34CHL1  H22B 3680   2.474   2.804   4.936
   34CHL1   C23 3681   2.282   2.865   4.837
   34CHL1  H23A 3682   2.181   2.868   4.884
   34CHL1  H23B 3683   2.302   2.957   4.778
   34CHL1   C24 3684   2.293   2.746   4.752
   34CHL1  H24A 3685   2.388   2.748   4.695
   34CHL1  H24B 3686   2.315   2.655   4.812
   34CHL1   C25 3687   2.167   2.718   4.667
   34CHL1   H25 3688   2.083   2.697   4.737
   34CHL1   C26 3689   2.121   2.829   4.579
   34CHL1  H26A 3690   2.114   2.926   4.634
   34CHL1  H26B 3691   2.206   2.848   4.510
   34CHL1  H26C 3692   2.024   2.809   4.528
   34CHL1   C27 3693   2.179   2.595   4.575
   34CHL1  H27A 3694   2.247   2.617   4.490
   34CHL1  H27B 3695   2.208   2.500   4.624
   34CHL1  H27C 3696   2.075   2.575   4.541
   35CHL1    C3 3697   4.270   5.231   6.153
   35CHL1    H3 3698   4.370   5.184   6.141
   35CHL1    O3 3699   4.232   5.222   6.290
   35CHL1   H3' 3700   4.312   5.250   6.333
   35CHL1    C4 3701   4.280   5.377   6.112
   35CHL1   H4A 3702   4.192   5.432   6.150
   35CHL1   H4B 3703   4.371   5.417   6.162
   35CHL1    C5 3704   4.286   5.410   5.963
   35CHL1    C6 3705   4.388   5.485   5.910
   35CHL1    H6 3706   4.462   5.525   5.980
   35CHL1    C7 3707   4.398   5.507   5.765
   35CHL1   H7A 3708   4.410   5.617   5.755
   35CHL1   H7B 3709   4.477   5.447   5.715
   35CHL1    C8 3710   4.263   5.479   5.687
   35CHL1    H8 3711   4.188   5.560   5.705
   35CHL1   C14 3712   4.281   5.466   5.536
   35CHL1   H14 3713   4.347   5.377   5.522
   35CHL1   C15 3714   4.338   5.586   5.456
   35CHL1  H15A 3715   4.319   5.693   5.478
   35CHL1  H15B 3716   4.449   5.585   5.468
   35CHL1   C16 3717   4.306   5.557   5.310
   35CHL1  H16A 3718   4.251   5.646   5.274
   35CHL1  H16B 3719   4.395   5.548   5.245
   35CHL1   C17 3720   4.218   5.427   5.309
   35CHL1   H17 3721   4.277   5.333   5.306
   35CHL1   C13 3722   4.157   5.422   5.453
   35CHL1   C18 3723   4.048   5.533   5.465
   35CHL1  H18A 3724   4.093   5.627   5.427
   35CHL1  H18B 3725   3.961   5.499   5.404
   35CHL1  H18C 3726   4.013   5.530   5.571
   35CHL1   C12 3727   4.104   5.276   5.506
   35CHL1  H12A 3728   4.008   5.249   5.457
   35CHL1  H12B 3729   4.187   5.209   5.475
   35CHL1   C11 3730   4.092   5.284   5.655
   35CHL1  H11A 3731   4.001   5.340   5.686
   35CHL1  H11B 3732   4.074   5.181   5.694
   35CHL1    C9 3733   4.210   5.338   5.739
   35CHL1    H9 3734   4.295   5.267   5.728
   35CHL1   C10 3735   4.180   5.323   5.891
   35CHL1   C19 3736   4.046   5.387   5.920
   35CHL1  H19A 3737   4.028   5.399   6.030
   35CHL1  H19B 3738   4.042   5.485   5.869
   35CHL1  H19C 3739   3.963   5.318   5.891
   35CHL1    C1 3740   4.173   5.173   5.932
   35CHL1   H1A 3741   4.090   5.114   5.889
   35CHL1   H1B 3742   4.270   5.129   5.899
   35CHL1    C2 3743   4.166   5.150   6.079
   35CHL1   H2A 3744   4.170   5.042   6.108
   35CHL1   H2B 3745   4.066   5.179   6.116
   35CHL1   C20 3746   4.115   5.420   5.185
   35CHL1   H20 3747   4.024   5.477   5.214
   35CHL1   C21 3748   4.072   5.274   5.170
   35CHL1  H21A 3749   4.069   5.218   5.266
   35CHL1  H21B 3750   4.124   5.212   5.094
   35CHL1  H21C 3751   3.966   5.273   5.138
   35CHL1   C22 3752   4.173   5.488   5.050
   35CHL1  H22A 3753   4.175   5.599   5.055
   35CHL1  H22B 3754   4.278   5.453   5.047
   35CHL1   C23 3755   4.086   5.452   4.928
   35CHL1  H23A 3756   4.062   5.344   4.918
   35CHL1  H23B 3757   3.995   5.515   4.930
   35CHL1   C24 3758   4.167   5.488   4.809
   35CHL1  H24A 3759   4.212   5.589   4.818
   35CHL1  H24B 3760   4.258   5.425   4.802
   35CHL1   C25 3761   4.081   5.484   4.671
   35CHL1   H25 3762   4.014   5.572   4.680
   35CHL1   C26 3763   4.178   5.508   4.553
   35CHL1  H26A 3764   4.121   5.504   4.458
   35CHL1  H26B 3765   4.230   5.604   4.574
   35CHL1  H26C 3766   4.250   5.423   4.547
   35CHL1   C27 3767   3.994   5.359   4.654
   35CHL1  H27A 3768   4.043   5.259   4.664
   35CHL1  H27B 3769   3.914   5.359   4.732
   35CHL1  H27C 3770   3.946   5.353   4.554
   36CHL1    C3 3771   6.735   3.657   5.964
   36CHL1    H3 3772   6.644   3.611   5.920
   36CHL1    O3 3773   6.742   3.617   6.100
   36CHL1   H3' 3774   6.713   3.694   6.150
   36CHL1    C4 3775   0.016   3.596   5.892
   36CHL1   H4A 3776   0.104   3.627   5.952
   36CHL1   H4B 3777   0.013   3.485   5.899
   36CHL1    C5 3778   0.014   3.647   5.743
   36CHL1    C6 3779   6.835   3.565   5.638
   36CHL1    H6 3780   6.821   3.457   5.649
   36CHL1    C7 3781   6.827   3.618   5.501
   36CHL1   H7A 3782   0.033   3.541   5.438
   36CHL1   H7B 3783   6.719   3.630   5.477
   36CHL1    C8 3784   0.053   3.756   5.483
   36CHL1    H8 3785   0.157   3.734   5.515
   36CHL1   C14 3786   0.037   3.820   5.342
   36CHL1   H14 3787   6.769   3.826   5.321
   36CHL1   C15 3788   0.093   3.736   5.220
   36CHL1  H15A 3789   0.177   3.670   5.253
   36CHL1  H15B 3790   0.014   3.669   5.181
   36CHL1   C16 3791   0.138   3.835   5.121
   36CHL1  H16A 3792   0.247   3.826   5.102
   36CHL1  H16B 3793   0.085   3.821   5.025
   36CHL1   C17 3794   0.101   3.978   5.175
   36CHL1   H17 3795   6.835   3.984   5.144
   36CHL1   C13 3796   0.104   3.951   5.326
   36CHL1   C18 3797   0.251   3.942   5.380
   36CHL1  H18A 3798   0.318   3.887   5.310
   36CHL1  H18B 3799   0.290   4.046   5.380
   36CHL1  H18C 3800   0.256   3.903   5.484
   36CHL1   C12 3801   0.019   4.048   5.409
   36CHL1  H12A 3802   0.045   4.155   5.418
   36CHL1  H12B 3803   6.754   4.034   5.377
   36CHL1   C11 3804   0.019   4.003   5.560
   36CHL1  H11A 3805   0.114   4.030   5.610
   36CHL1  H11B 3806   6.781   4.056   5.617
   36CHL1    C9 3807   6.831   3.854   5.578
   36CHL1    H9 3808   6.725   3.835   5.552
   36CHL1   C10 3809   0.012   3.799   5.724
   36CHL1   C19 3810   0.138   3.858   5.786
   36CHL1  H19A 3811   0.151   3.969   5.785
   36CHL1  H19B 3812   0.158   3.826   5.891
   36CHL1  H19C 3813   0.224   3.838   5.720
   36CHL1    C1 3814   6.731   3.858   5.810
   36CHL1   H1A 3815   6.722   3.969   5.813
   36CHL1   H1B 3816   6.637   3.826   5.760
   36CHL1    C2 3817   6.724   3.810   5.955
   36CHL1   H2A 3818   6.625   3.839   5.996
   36CHL1   H2B 3819   6.806   3.854   6.016
   36CHL1   C20 3820   0.181   4.099   5.117
   36CHL1   H20 3821   0.271   4.114   5.180
   36CHL1   C21 3822   0.093   4.226   5.122
   36CHL1  H21A 3823   0.163   4.311   5.110
   36CHL1  H21B 3824   0.046   4.229   5.223
   36CHL1  H21C 3825   0.011   4.227   5.046
   36CHL1   C22 3826   0.232   4.083   4.978
   36CHL1  H22A 3827   0.299   3.994   4.977
   36CHL1  H22B 3828   0.145   4.064   4.911
   36CHL1   C23 3829   0.323   4.195   4.936
   36CHL1  H23A 3830   0.259   4.284   4.956
   36CHL1  H23B 3831   0.401   4.221   5.010
   36CHL1   C24 3832   0.372   4.168   4.800
   36CHL1  H24A 3833   0.446   4.086   4.814
   36CHL1  H24B 3834   0.299   4.114   4.737
   36CHL1   C25 3835   0.433   4.294   4.731
   36CHL1   H25 3836   0.488   4.354   4.807
   36CHL1   C26 3837   0.536   4.267   4.626
   36CHL1  H26A 3838   0.480   4.216   4.545
   36CHL1  H26B 3839   0.580   4.358   4.580
   36CHL1  H26C 3840   0.619   4.206   4.669
   36CHL1   C27 3841   0.315   4.392   4.692
   36CHL1  H27A 3842   0.250   4.375   4.604
   36CHL1  H27B 3843   0.247   4.408   4.778
   36CHL1  H27C 3844   0.351   4.497   4.684
   37CHL1    C3 3845   0.861   0.267   5.994
   37CHL1    H3 3846   0.933   0.346   5.964
   37CHL1    O3 3847   0.860   0.265   6.140
   37CHL1   H3' 3848   0.806   0.190   6.166
   37CHL1    C4 3849   0.722   0.306   5.947
   37CHL1   H4A 3850   0.652   0.235   5.995
   37CHL1   H4B 3851   0.704   0.410   5.981
   37CHL1    C5 3852   0.710   0.300   5.789
   37CHL1    C6 3853   0.690   0.414   5.724
   37CHL1    H6 3854   0.670   0.508   5.777
   37CHL1    C7 3855   0.701   0.423   5.578
   37CHL1   H7A 3856   0.621   0.483   5.531
   37CHL1   H7B 3857   0.798   0.472   5.556
   37CHL1    C8 3858   0.695   0.282   5.509
   37CHL1    H8 3859   0.593   0.239   5.522
   37CHL1   C14 3860   0.745   0.289   5.365
   37CHL1   H14 3861   0.855   0.304   5.369
   37CHL1   C15 3862   0.694   0.404   5.277
   37CHL1  H15A 3863   0.592   0.436   5.310
   37CHL1  H15B 3864   0.759   0.493   5.288
   37CHL1   C16 3865   0.686   0.349   5.132
   37CHL1  H16A 3866   0.579   0.352   5.105
   37CHL1  H16B 3867   0.739   0.423   5.068
   37CHL1   C17 3868   0.742   0.210   5.132
   37CHL1   H17 3869   0.853   0.214   5.128
   37CHL1   C13 3870   0.721   0.159   5.283
   37CHL1   C18 3871   0.565   0.121   5.296
   37CHL1  H18A 3872   0.541   0.091   5.400
   37CHL1  H18B 3873   0.491   0.203   5.281
   37CHL1  H18C 3874   0.548   0.032   5.231
   37CHL1   C12 3875   0.801   0.045   5.340
   37CHL1  H12A 3876   0.771   6.788   5.297
   37CHL1  H12B 3877   0.909   0.056   5.313
   37CHL1   C11 3878   0.782   0.038   5.495
   37CHL1  H11A 3879   0.687   6.826   5.516
   37CHL1  H11B 3880   0.858   6.807   5.532
   37CHL1    C9 3881   0.782   0.177   5.573
   37CHL1    H9 3882   0.881   0.227   5.573
   37CHL1   C10 3883   0.756   0.167   5.731
   37CHL1   C19 3884   0.642   0.064   5.764
   37CHL1  H19A 3885   0.553   0.097   5.706
   37CHL1  H19B 3886   0.670   6.803   5.728
   37CHL1  H19C 3887   0.622   0.064   5.873
   37CHL1    C1 3888   0.887   0.118   5.786
   37CHL1   H1A 3889   0.914   0.013   5.765
   37CHL1   H1B 3890   0.972   0.184   5.757
   37CHL1    C2 3891   0.896   0.125   5.945
   37CHL1   H2A 3892   0.997   0.102   5.986
   37CHL1   H2B 3893   0.817   0.057   5.983
   37CHL1   C20 3894   0.698   0.132   5.012
   37CHL1   H20 3895   0.587   0.127   5.019
   37CHL1   C21 3896   0.755   6.827   5.033
   37CHL1  H21A 3897   0.701   6.777   5.116
   37CHL1  H21B 3898   0.864   6.830   5.056
   37CHL1  H21C 3899   0.740   6.751   4.954
   37CHL1   C22 3900   0.742   0.192   4.877
   37CHL1  H22A 3901   0.699   0.292   4.856
   37CHL1  H22B 3902   0.847   0.217   4.901
   37CHL1   C23 3903   0.731   0.110   4.740
   37CHL1  H23A 3904   0.745   0.000   4.742
   37CHL1  H23B 3905   0.624   0.121   4.713
   37CHL1   C24 3906   0.802   0.171   4.621
   37CHL1  H24A 3907   0.756   0.272   4.611
   37CHL1  H24B 3908   0.906   0.174   4.660
   37CHL1   C25 3909   0.798   0.090   4.495
   37CHL1   H25 3910   0.822   6.827   4.524
   37CHL1   C26 3911   0.665   0.092   4.431
   37CHL1  H26A 3912   0.608   0.188   4.434
   37CHL1  H26B 3913   0.678   0.047   4.330
   37CHL1  H26C 3914   0.597   0.029   4.493
   37CHL1   C27 3915   0.916   0.142   4.403
   37CHL1  H27A 3916   1.019   0.138   4.444
   37CHL1  H27B 3917   0.907   0.092   4.304
   37CHL1  H27C 3918   0.917   0.250   4.374
   38CHL1    C3 3919   1.786   0.853   6.033
   38CHL1    H3 3920   1.887   0.821   5.999
   38CHL1    O3 3921   1.803   0.870   6.175
   38CHL1   H3' 3922   1.739   0.940   6.190
   38CHL1    C4 3923   1.744   0.992   5.969
   38CHL1   H4A 3924   1.656   1.023   6.028
   38CHL1   H4B 3925   1.825   1.060   6.004
   38CHL1    C5 3926   1.707   0.984   5.826
   38CHL1    C6 3927   1.767   1.062   5.735
   38CHL1    H6 3928   1.841   1.136   5.768
   38CHL1    C7 3929   1.732   1.063   5.588
   38CHL1   H7A 3930   1.737   1.169   5.555
   38CHL1   H7B 3931   1.816   1.013   5.536
   38CHL1    C8 3932   1.592   1.001   5.568
   38CHL1    H8 3933   1.519   1.064   5.623
   38CHL1   C14 3934   1.567   0.994   5.423
   38CHL1   H14 3935   1.642   0.921   5.386
   38CHL1   C15 3936   1.594   1.105   5.333
   38CHL1  H15A 3937   1.565   1.199   5.384
   38CHL1  H15B 3938   1.701   1.121   5.310
   38CHL1   C16 3939   1.511   1.078   5.203
   38CHL1  H16A 3940   1.440   1.164   5.200
   38CHL1  H16B 3941   1.588   1.083   5.123
   38CHL1   C17 3942   1.443   0.943   5.224
   38CHL1   H17 3943   1.526   0.873   5.200
   38CHL1   C13 3944   1.434   0.931   5.377
   38CHL1   C18 3945   1.308   1.008   5.434
   38CHL1  H18A 3946   1.214   0.950   5.431
   38CHL1  H18B 3947   1.317   1.022   5.543
   38CHL1  H18C 3948   1.305   1.101   5.374
   38CHL1   C12 3949   1.439   0.787   5.440
   38CHL1  H12A 3950   1.348   0.726   5.425
   38CHL1  H12B 3951   1.523   0.722   5.407
   38CHL1   C11 3952   1.450   0.784   5.594
   38CHL1  H11A 3953   1.350   0.819   5.627
   38CHL1  H11B 3954   1.469   0.685   5.639
   38CHL1    C9 3955   1.571   0.868   5.645
   38CHL1    H9 3956   1.664   0.813   5.615
   38CHL1   C10 3957   1.594   0.871   5.800
   38CHL1   C19 3958   1.466   0.919   5.869
   38CHL1  H19A 3959   1.471   0.918   5.980
   38CHL1  H19B 3960   1.446   1.019   5.825
   38CHL1  H19C 3961   1.380   0.853   5.843
   38CHL1    C1 3962   1.651   0.737   5.861
   38CHL1   H1A 3963   1.570   0.662   5.845
   38CHL1   H1B 3964   1.744   0.707   5.808
   38CHL1    C2 3965   1.689   0.742   6.012
   38CHL1   H2A 3966   1.723   0.645   6.055
   38CHL1   H2B 3967   1.593   0.764   6.062
   38CHL1   C20 3968   1.321   0.910   5.146
   38CHL1   H20 3969   1.232   0.963   5.186
   38CHL1   C21 3970   1.290   0.761   5.161
   38CHL1  H21A 3971   1.239   0.721   5.071
   38CHL1  H21B 3972   1.216   0.751   5.244
   38CHL1  H21C 3973   1.381   0.701   5.183
   38CHL1   C22 3974   1.341   0.947   4.995
   38CHL1  H22A 3975   1.245   0.918   4.946
   38CHL1  H22B 3976   1.359   1.056   4.999
   38CHL1   C23 3977   1.452   0.873   4.927
   38CHL1  H23A 3978   1.546   0.870   4.987
   38CHL1  H23B 3979   1.423   0.768   4.904
   38CHL1   C24 3980   1.499   0.942   4.800
   38CHL1  H24A 3981   1.524   1.049   4.816
   38CHL1  H24B 3982   1.584   0.877   4.770
   38CHL1   C25 3983   1.387   0.945   4.685
   38CHL1   H25 3984   1.289   0.964   4.733
   38CHL1   C26 3985   1.412   1.060   4.586
   38CHL1  H26A 3986   1.493   1.052   4.511
   38CHL1  H26B 3987   1.318   1.077   4.529
   38CHL1  H26C 3988   1.430   1.155   4.641
   38CHL1   C27 3989   1.389   0.811   4.610
   38CHL1  H27A 3990   1.490   0.779   4.576
   38CHL1  H27B 3991   1.349   0.729   4.674
   38CHL1  H27C 3992   1.326   0.830   4.521
   39CHL1    C3 3993   3.335   1.572   6.394
   39CHL1    H3 3994   3.298   1.468   6.403
   39CHL1    O3 3995   3.332   1.634   6.519
   39CHL1   H3' 3996   3.241   1.660   6.532
   39CHL1    C4 3997   3.483   1.567   6.349
   39CHL1   H4A 3998   3.517   1.672   6.346
   39CHL1   H4B 3999   3.541   1.499   6.416
   39CHL1    C5 4000   3.499   1.510   6.209
   39CHL1    C6 4001   3.576   1.403   6.175
   39CHL1    H6 4002   3.634   1.364   6.259
   39CHL1    C7 4003   3.592   1.347   6.030
   39CHL1   H7A 4004   3.695   1.314   6.005
   39CHL1   H7B 4005   3.531   1.255   6.019
   39CHL1    C8 4006   3.554   1.463   5.932
   39CHL1    H8 4007   3.628   1.545   5.946
   39CHL1   C14 4008   3.559   1.410   5.790
   39CHL1   H14 4009   3.496   1.320   5.783
   39CHL1   C15 4010   3.695   1.379   5.737
   39CHL1  H15A 4011   3.756   1.463   5.776
   39CHL1  H15B 4012   3.748   1.286   5.766
   39CHL1   C16 4013   3.682   1.380   5.577
   39CHL1  H16A 4014   3.766   1.443   5.540
   39CHL1  H16B 4015   3.690   1.273   5.549
   39CHL1   C17 4016   3.537   1.429   5.558
   39CHL1   H17 4017   3.475   1.337   5.553
   39CHL1   C13 4018   3.502   1.508   5.685
   39CHL1   C18 4019   3.583   1.646   5.684
   39CHL1  H18A 4020   3.685   1.622   5.649
   39CHL1  H18B 4021   3.530   1.707   5.608
   39CHL1  H18C 4022   3.592   1.697   5.783
   39CHL1   C12 4023   3.354   1.537   5.720
   39CHL1  H12A 4024   3.297   1.591   5.642
   39CHL1  H12B 4025   3.315   1.434   5.704
   39CHL1   C11 4026   3.339   1.597   5.860
   39CHL1  H11A 4027   3.356   1.706   5.847
   39CHL1  H11B 4028   3.231   1.590   5.883
   39CHL1    C9 4029   3.417   1.523   5.971
   39CHL1    H9 4030   3.356   1.431   5.986
   39CHL1   C10 4031   3.418   1.591   6.105
   39CHL1   C19 4032   3.478   1.732   6.091
   39CHL1  H19A 4033   3.583   1.735   6.055
   39CHL1  H19B 4034   3.428   1.787   6.008
   39CHL1  H19C 4035   3.453   1.785   6.185
   39CHL1    C1 4036   3.265   1.598   6.155
   39CHL1   H1A 4037   3.201   1.658   6.087
   39CHL1   H1B 4038   3.215   1.499   6.159
   39CHL1    C2 4039   3.246   1.649   6.296
   39CHL1   H2A 4040   3.141   1.626   6.322
   39CHL1   H2B 4041   3.256   1.759   6.306
   39CHL1   C20 4042   3.522   1.503   5.424
   39CHL1   H20 4043   3.573   1.601   5.433
   39CHL1   C21 4044   3.371   1.526   5.383
   39CHL1  H21A 4045   3.361   1.592   5.293
   39CHL1  H21B 4046   3.298   1.574   5.452
   39CHL1  H21C 4047   3.330   1.430   5.347
   39CHL1   C22 4048   3.593   1.429   5.306
   39CHL1  H22A 4049   3.703   1.432   5.326
   39CHL1  H22B 4050   3.545   1.329   5.294
   39CHL1   C23 4051   3.587   1.490   5.165
   39CHL1  H23A 4052   3.499   1.447   5.113
   39CHL1  H23B 4053   3.573   1.599   5.176
   39CHL1   C24 4054   3.705   1.457   5.072
   39CHL1  H24A 4055   3.804   1.463   5.121
   39CHL1  H24B 4056   3.702   1.349   5.047
   39CHL1   C25 4057   3.706   1.541   4.941
   39CHL1   H25 4058   3.602   1.530   4.903
   39CHL1   C26 4059   3.739   1.693   4.970
   39CHL1  H26A 4060   3.832   1.694   5.030
   39CHL1  H26B 4061   3.760   1.752   4.878
   39CHL1  H26C 4062   3.654   1.743   5.021
   39CHL1   C27 4063   3.793   1.488   4.837
   39CHL1  H27A 4064   3.759   1.387   4.807
   39CHL1  H27B 4065   3.780   1.557   4.751
   39CHL1  H27C 4066   3.896   1.484   4.878
   40CHL1    C3 4067   3.746   3.986   6.165
   40CHL1    H3 4068   3.779   3.886   6.129
   40CHL1    O3 4069   3.753   3.972   6.309
   40CHL1   H3' 4070   3.708   4.048   6.346
   40CHL1    C4 4071   3.838   4.093   6.104
   40CHL1   H4A 4072   3.813   4.184   6.161
   40CHL1   H4B 4073   3.939   4.063   6.140
   40CHL1    C5 4074   3.841   4.124   5.959
   40CHL1    C6 4075   3.955   4.129   5.887
   40CHL1    H6 4076   4.046   4.102   5.942
   40CHL1    C7 4077   3.956   4.149   5.738
   40CHL1   H7A 4078   4.035   4.219   5.704
   40CHL1   H7B 4079   3.979   4.054   5.686
   40CHL1    C8 4080   3.826   4.207   5.689
   40CHL1    H8 4081   3.816   4.311   5.727
   40CHL1   C14 4082   3.829   4.182   5.539
   40CHL1   H14 4083   3.812   4.072   5.531
   40CHL1   C15 4084   3.958   4.202   5.456
   40CHL1  H15A 4085   4.015   4.291   5.489
   40CHL1  H15B 4086   4.033   4.121   5.472
   40CHL1   C16 4087   3.903   4.218   5.305
   40CHL1  H16A 4088   3.923   4.320   5.267
   40CHL1  H16B 4089   3.966   4.150   5.243
   40CHL1   C17 4090   3.749   4.204   5.316
   40CHL1   H17 4091   3.722   4.096   5.314
   40CHL1   C13 4092   3.714   4.247   5.458
   40CHL1   C18 4093   3.725   4.398   5.470
   40CHL1  H18A 4094   3.778   4.447   5.385
   40CHL1  H18B 4095   3.624   4.444   5.481
   40CHL1  H18C 4096   3.795   4.424   5.552
   40CHL1   C12 4097   3.581   4.188   5.522
   40CHL1  H12A 4098   3.498   4.242   5.472
   40CHL1  H12B 4099   3.586   4.079   5.504
   40CHL1   C11 4100   3.572   4.206   5.677
   40CHL1  H11A 4101   3.571   4.315   5.694
   40CHL1  H11B 4102   3.481   4.150   5.710
   40CHL1    C9 4103   3.697   4.141   5.747
   40CHL1    H9 4104   3.694   4.042   5.697
   40CHL1   C10 4105   3.695   4.144   5.906
   40CHL1   C19 4106   3.643   4.282   5.950
   40CHL1  H19A 4107   3.652   4.311   6.056
   40CHL1  H19B 4108   3.699   4.363   5.898
   40CHL1  H19C 4109   3.536   4.302   5.932
   40CHL1    C1 4110   3.600   4.037   5.961
   40CHL1   H1A 4111   3.499   4.072   5.930
   40CHL1   H1B 4112   3.623   3.946   5.902
   40CHL1    C2 4113   3.603   3.997   6.115
   40CHL1   H2A 4114   3.530   3.915   6.135
   40CHL1   H2B 4115   3.557   4.087   6.160
   40CHL1   C20 4116   3.681   4.276   5.196
   40CHL1   H20 4117   3.708   4.383   5.195
   40CHL1   C21 4118   3.527   4.268   5.206
   40CHL1  H21A 4119   3.476   4.308   5.116
   40CHL1  H21B 4120   3.502   4.338   5.288
   40CHL1  H21C 4121   3.499   4.163   5.230
   40CHL1   C22 4122   3.716   4.210   5.062
   40CHL1  H22A 4123   3.813   4.156   5.064
   40CHL1  H22B 4124   3.642   4.129   5.043
   40CHL1   C23 4125   3.731   4.303   4.951
   40CHL1  H23A 4126   3.635   4.325   4.900
   40CHL1  H23B 4127   3.778   4.396   4.992
   40CHL1   C24 4128   3.826   4.254   4.830
   40CHL1  H24A 4129   3.921   4.233   4.884
   40CHL1  H24B 4130   3.797   4.153   4.793
   40CHL1   C25 4131   3.851   4.350   4.714
   40CHL1   H25 4132   3.866   4.449   4.763
   40CHL1   C26 4133   3.985   4.313   4.647
   40CHL1  H26A 4134   4.003   4.387   4.566
   40CHL1  H26B 4135   4.059   4.316   4.730
   40CHL1  H26C 4136   3.979   4.211   4.602
   40CHL1   C27 4137   3.734   4.349   4.614
   40CHL1  H27A 4138   3.750   4.404   4.519
   40CHL1  H27B 4139   3.708   4.244   4.588
   40CHL1  H27C 4140   3.647   4.392   4.669
   41CHL1    C3 4141   0.432   4.637   6.076
   41CHL1    H3 4142   0.540   4.626   6.052
   41CHL1    O3 4143   0.409   4.594   6.211
   41CHL1   H3' 4144   0.315   4.604   6.228
   41CHL1    C4 4145   0.389   4.781   6.063
   41CHL1   H4A 4146   0.279   4.778   6.078
   41CHL1   H4B 4147   0.437   4.832   6.149
   41CHL1    C5 4148   0.413   4.832   5.926
   41CHL1    C6 4149   0.491   4.939   5.915
   41CHL1    H6 4150   0.529   4.973   6.012
   41CHL1    C7 4151   0.540   4.994   5.788
   41CHL1   H7A 4152   0.536   5.103   5.770
   41CHL1   H7B 4153   0.640   4.947   5.776
   41CHL1    C8 4154   0.463   4.935   5.664
   41CHL1    H8 4155   0.364   4.981   5.647
   41CHL1   C14 4156   0.539   4.973   5.531
   41CHL1   H14 4157   0.629   4.910   5.543
   41CHL1   C15 4158   0.591   5.121   5.500
   41CHL1  H15A 4159   0.505   5.188   5.522
   41CHL1  H15B 4160   0.674   5.145   5.569
   41CHL1   C16 4161   0.627   5.121   5.354
   41CHL1  H16A 4162   0.569   5.194   5.294
   41CHL1  H16B 4163   0.735   5.138   5.337
   41CHL1   C17 4164   0.591   4.968   5.307
   41CHL1   H17 4165   0.674   4.897   5.328
   41CHL1   C13 4166   0.482   4.922   5.404
   41CHL1   C18 4167   0.346   4.990   5.377
   41CHL1  H18A 4168   0.304   4.939   5.288
   41CHL1  H18B 4169   0.278   4.977   5.463
   41CHL1  H18C 4170   0.352   5.098   5.350
   41CHL1   C12 4171   0.460   4.774   5.418
   41CHL1  H12A 4172   0.422   4.735   5.321
   41CHL1  H12B 4173   0.553   4.717   5.440
   41CHL1   C11 4174   0.376   4.732   5.541
   41CHL1  H11A 4175   0.272   4.771   5.529
   41CHL1  H11B 4176   0.374   4.621   5.536
   41CHL1    C9 4177   0.444   4.787   5.676
   41CHL1    H9 4178   0.547   4.744   5.682
   41CHL1   C10 4179   0.368   4.743   5.807
   41CHL1   C19 4180   0.216   4.764   5.783
   41CHL1  H19A 4181   0.167   4.729   5.877
   41CHL1  H19B 4182   0.201   4.872   5.764
   41CHL1  H19C 4183   0.172   4.713   5.694
   41CHL1    C1 4184   0.397   4.587   5.834
   41CHL1   H1A 4185   0.357   4.518   5.757
   41CHL1   H1B 4186   0.507   4.572   5.822
   41CHL1    C2 4187   0.361   4.536   5.974
   41CHL1   H2A 4188   0.395   4.432   5.991
   41CHL1   H2B 4189   0.251   4.550   5.983
   41CHL1   C20 4190   0.579   4.961   5.156
   41CHL1   H20 4191   0.523   4.870   5.126
   41CHL1   C21 4192   0.720   4.946   5.095
   41CHL1  H21A 4193   0.765   5.045   5.115
   41CHL1  H21B 4194   0.716   4.945   4.984
   41CHL1  H21C 4195   0.785   4.865   5.136
   41CHL1   C22 4196   0.511   5.087   5.091
   41CHL1  H22A 4197   0.413   5.098   5.143
   41CHL1  H22B 4198   0.576   5.174   5.111
   41CHL1   C23 4199   0.498   5.083   4.942
   41CHL1  H23A 4200   0.599   5.093   4.895
   41CHL1  H23B 4201   0.452   4.985   4.919
   41CHL1   C24 4202   0.411   5.195   4.888
   41CHL1  H24A 4203   0.315   5.165   4.935
   41CHL1  H24B 4204   0.446   5.290   4.934
   41CHL1   C25 4205   0.404   5.196   4.735
   41CHL1   H25 4206   0.505   5.178   4.693
   41CHL1   C26 4207   0.313   5.089   4.691
   41CHL1  H26A 4208   0.347   4.987   4.720
   41CHL1  H26B 4209   0.211   5.098   4.734
   41CHL1  H26C 4210   0.310   5.087   4.580
   41CHL1   C27 4211   0.337   5.326   4.685
   41CHL1  H27A 4212   0.414   5.405   4.673
   41CHL1  H27B 4213   0.272   5.315   4.596
   41CHL1  H27C 4214   0.275   5.354   4.772
   42CHL1    C3 4215   5.316   3.421   6.196
   42CHL1    H3 4216   5.225   3.458   6.144
   42CHL1    O3 4217   5.322   3.448   6.338
   42CHL1   H3' 4218   5.388   3.389   6.376
   42CHL1    C4 4219   5.343   3.272   6.159
   42CHL1   H4A 4220   5.438   3.236   6.203
   42CHL1   H4B 4221   5.255   3.214   6.192
   42CHL1    C5 4222   5.345   3.262   6.007
   42CHL1    C6 4223   5.259   3.182   5.953
   42CHL1    H6 4224   5.205   3.111   6.018
   42CHL1    C7 4225   5.244   3.175   5.800
   42CHL1   H7A 4226   5.218   3.078   5.753
   42CHL1   H7B 4227   5.158   3.239   5.772
   42CHL1    C8 4228   5.361   3.231   5.720
   42CHL1    H8 4229   5.441   3.160   5.751
   42CHL1   C14 4230   5.329   3.235   5.575
   42CHL1   H14 4231   5.241   3.300   5.553
   42CHL1   C15 4232   5.286   3.094   5.512
   42CHL1  H15A 4233   5.367   3.022   5.537
   42CHL1  H15B 4234   5.186   3.058   5.542
   42CHL1   C16 4235   5.306   3.130   5.360
   42CHL1  H16A 4236   5.354   3.052   5.298
   42CHL1  H16B 4237   5.200   3.137   5.325
   42CHL1   C17 4238   5.392   3.259   5.352
   42CHL1   H17 4239   5.316   3.340   5.344
   42CHL1   C13 4240   5.451   3.283   5.492
   42CHL1   C18 4241   5.576   3.198   5.517
   42CHL1  H18A 4242   5.655   3.246   5.455
   42CHL1  H18B 4243   5.604   3.205   5.624
   42CHL1  H18C 4244   5.574   3.090   5.493
   42CHL1   C12 4245   5.468   3.430   5.531
   42CHL1  H12A 4246   5.550   3.477   5.472
   42CHL1  H12B 4247   5.371   3.475   5.503
   42CHL1   C11 4248   5.502   3.442   5.681
   42CHL1  H11A 4249   5.608   3.415   5.697
   42CHL1  H11B 4250   5.488   3.551   5.698
   42CHL1    C9 4251   5.391   3.361   5.776
   42CHL1    H9 4252   5.300   3.424   5.774
   42CHL1   C10 4253   5.439   3.350   5.923
   42CHL1   C19 4254   5.588   3.307   5.944
   42CHL1  H19A 4255   5.650   3.378   5.885
   42CHL1  H19B 4256   5.605   3.297   6.053
   42CHL1  H19C 4257   5.591   3.202   5.908
   42CHL1    C1 4258   5.424   3.498   5.982
   42CHL1   H1A 4259   5.496   3.573   5.941
   42CHL1   H1B 4260   5.323   3.533   5.952
   42CHL1    C2 4261   5.425   3.514   6.132
   42CHL1   H2A 4262   5.397   3.621   6.148
   42CHL1   H2B 4263   5.522   3.484   6.177
   42CHL1   C20 4264   5.495   3.270   5.236
   42CHL1   H20 4265   5.552   3.175   5.234
   42CHL1   C21 4266   5.587   3.392   5.237
   42CHL1  H21A 4267   5.523   3.481   5.256
   42CHL1  H21B 4268   5.641   3.403   5.141
   42CHL1  H21C 4269   5.660   3.386   5.321
   42CHL1   C22 4270   5.431   3.268   5.096
   42CHL1  H22A 4271   5.496   3.316   5.021
   42CHL1  H22B 4272   5.417   3.160   5.074
   42CHL1   C23 4273   5.291   3.338   5.074
   42CHL1  H23A 4274   5.217   3.276   5.129
   42CHL1  H23B 4275   5.281   3.439   5.119
   42CHL1   C24 4276   5.269   3.362   4.928
   42CHL1  H24A 4277   5.313   3.458   4.892
   42CHL1  H24B 4278   5.321   3.287   4.864
   42CHL1   C25 4279   5.127   3.342   4.878
   42CHL1   H25 4280   5.123   3.371   4.771
   42CHL1   C26 4281   5.095   3.190   4.873
   42CHL1  H26A 4282   5.172   3.163   4.797
   42CHL1  H26B 4283   5.093   3.131   4.967
   42CHL1  H26C 4284   5.000   3.184   4.816
   42CHL1   C27 4285   5.033   3.431   4.961
   42CHL1  H27A 4286   4.934   3.412   4.914
   42CHL1  H27B 4287   5.034   3.399   5.067
   42CHL1  H27C 4288   5.057   3.538   4.942
   43CHL1    C3 4289   6.257   1.739   6.027
   43CHL1    H3 4290   6.149   1.763   6.016
   43CHL1    O3 4291   6.291   1.741   6.165
   43CHL1   H3' 4292   6.386   1.751   6.160
   43CHL1    C4 4293   6.292   1.605   5.956
   43CHL1   H4A 4294   6.397   1.571   5.971
   43CHL1   H4B 4295   6.232   1.531   6.013
   43CHL1    C5 4296   6.267   1.612   5.810
   43CHL1    C6 4297   6.190   1.523   5.760
   43CHL1    H6 4298   6.137   1.454   5.826
   43CHL1    C7 4299   6.143   1.527   5.615
   43CHL1   H7A 4300   6.153   1.429   5.565
   43CHL1   H7B 4301   6.035   1.551   5.603
   43CHL1    C8 4302   6.224   1.626   5.524
   43CHL1    H8 4303   6.321   1.580   5.499
   43CHL1   C14 4304   6.136   1.662   5.402
   43CHL1   H14 4305   6.047   1.712   5.447
   43CHL1   C15 4306   6.083   1.551   5.311
   43CHL1  H15A 4307   6.130   1.452   5.330
   43CHL1  H15B 4308   5.978   1.522   5.331
   43CHL1   C16 4309   6.095   1.602   5.165
   43CHL1  H16A 4310   6.164   1.533   5.113
   43CHL1  H16B 4311   5.994   1.585   5.124
   43CHL1   C17 4312   6.130   1.752   5.172
   43CHL1   H17 4313   6.034   1.803   5.193
   43CHL1   C13 4314   6.210   1.760   5.303
   43CHL1   C18 4315   6.348   1.708   5.257
   43CHL1  H18A 4316   6.421   1.707   5.341
   43CHL1  H18B 4317   6.324   1.608   5.215
   43CHL1  H18C 4318   6.384   1.777   5.178
   43CHL1   C12 4319   6.230   1.889   5.381
   43CHL1  H12A 4320   6.287   1.962   5.320
   43CHL1  H12B 4321   6.130   1.935   5.398
   43CHL1   C11 4322   6.309   1.866   5.512
   43CHL1  H11A 4323   6.410   1.831   5.480
   43CHL1  H11B 4324   6.315   1.964   5.565
   43CHL1    C9 4325   6.252   1.756   5.600
   43CHL1    H9 4326   6.149   1.785   5.630
   43CHL1   C10 4327   6.329   1.734   5.737
   43CHL1   C19 4328   6.476   1.697   5.722
   43CHL1  H19A 4329   6.498   1.603   5.668
   43CHL1  H19B 4330   6.516   1.789   5.674
   43CHL1  H19C 4331   6.523   1.690   5.822
   43CHL1    C1 4332   6.320   1.868   5.813
   43CHL1   H1A 4333   6.398   1.941   5.782
   43CHL1   H1B 4334   6.226   1.925   5.794
   43CHL1    C2 4335   6.342   1.852   5.963
   43CHL1   H2A 4336   6.315   1.949   6.009
   43CHL1   H2B 4337   6.452   1.832   5.962
   43CHL1   C20 4338   6.175   1.815   5.034
   43CHL1   H20 4339   6.263   1.758   4.997
   43CHL1   C21 4340   6.217   1.959   5.050
   43CHL1  H21A 4341   6.254   2.000   4.954
   43CHL1  H21B 4342   6.308   1.963   5.115
   43CHL1  H21C 4343   6.136   2.025   5.088
   43CHL1   C22 4344   6.062   1.796   4.925
   43CHL1  H22A 4345   5.969   1.814   4.985
   43CHL1  H22B 4346   6.084   1.879   4.855
   43CHL1   C23 4347   6.044   1.666   4.843
   43CHL1  H23A 4348   6.149   1.650   4.812
   43CHL1  H23B 4349   6.027   1.577   4.906
   43CHL1   C24 4350   5.945   1.669   4.727
   43CHL1  H24A 4351   5.844   1.644   4.768
   43CHL1  H24B 4352   5.949   1.773   4.688
   43CHL1   C25 4353   5.962   1.571   4.611
   43CHL1   H25 4354   5.945   1.470   4.656
   43CHL1   C26 4355   5.841   1.577   4.515
   43CHL1  H26A 4356   5.846   1.488   4.449
   43CHL1  H26B 4357   5.743   1.568   4.565
   43CHL1  H26C 4358   5.843   1.675   4.462
   43CHL1   C27 4359   6.098   1.572   4.544
   43CHL1  H27A 4360   6.122   1.674   4.507
   43CHL1  H27B 4361   6.183   1.551   4.612
   43CHL1  H27C 4362   6.090   1.503   4.457
   44CHL1    C3 4363   0.010   2.953   5.825
   44CHL1    H3 4364   6.748   2.973   5.785
   44CHL1    O3 4365   0.013   2.894   5.954
   44CHL1   H3' 4366   0.103   2.890   5.986
   44CHL1    C4 4367   0.094   2.868   5.737
   44CHL1   H4A 4368   0.193   2.865   5.788
   44CHL1   H4B 4369   0.060   2.762   5.735
   44CHL1    C5 4370   0.108   2.923   5.602
   44CHL1    C6 4371   0.082   2.842   5.492
   44CHL1    H6 4372   0.046   2.741   5.517
   44CHL1    C7 4373   0.083   2.895   5.356
   44CHL1   H7A 4374   0.138   2.821   5.295
   44CHL1   H7B 4375   6.819   2.900   5.320
   44CHL1    C8 4376   0.162   3.032   5.340
   44CHL1    H8 4377   0.270   3.010   5.341
   44CHL1   C14 4378   0.129   3.093   5.209
   44CHL1   H14 4379   0.019   3.105   5.211
   44CHL1   C15 4380   0.140   3.011   5.078
   44CHL1  H15A 4381   0.232   2.950   5.088
   44CHL1  H15B 4382   0.049   2.949   5.066
   44CHL1   C16 4383   0.142   3.113   4.966
   44CHL1  H16A 4384   0.227   3.101   4.895
   44CHL1  H16B 4385   0.042   3.115   4.917
   44CHL1   C17 4386   0.138   3.254   5.036
   44CHL1   H17 4387   0.031   3.283   5.034
   44CHL1   C13 4388   0.185   3.232   5.179
   44CHL1   C18 4389   0.339   3.221   5.178
   44CHL1  H18A 4390   0.370   3.161   5.089
   44CHL1  H18B 4391   0.376   3.325   5.187
   44CHL1  H18C 4392   0.381   3.173   5.268
   44CHL1   C12 4393   0.136   3.330   5.290
   44CHL1  H12A 4394   0.182   3.431   5.296
   44CHL1  H12B 4395   0.029   3.352   5.273
   44CHL1   C11 4396   0.165   3.270   5.429
   44CHL1  H11A 4397   0.274   3.283   5.445
   44CHL1  H11B 4398   0.111   3.337   5.499
   44CHL1    C9 4399   0.117   3.122   5.452
   44CHL1    H9 4400   0.007   3.128   5.440
   44CHL1   C10 4401   0.146   3.070   5.592
   44CHL1   C19 4402   0.295   3.094   5.628
   44CHL1  H19A 4403   0.364   3.038   5.560
   44CHL1  H19B 4404   0.314   3.203   5.623
   44CHL1  H19C 4405   0.320   3.067   5.733
   44CHL1    C1 4406   0.071   3.162   5.696
   44CHL1   H1A 4407   0.124   3.258   5.713
   44CHL1   H1B 4408   6.810   3.186   5.660
   44CHL1    C2 4409   0.063   3.096   5.839
   44CHL1   H2A 4410   0.012   3.164   5.910
   44CHL1   H2B 4411   0.168   3.092   5.873
   44CHL1   C20 4412   0.207   3.358   4.949
   44CHL1   H20 4413   0.318   3.350   4.958
   44CHL1   C21 4414   0.169   3.495   5.008
   44CHL1  H21A 4415   0.060   3.499   5.026
   44CHL1  H21B 4416   0.184   3.586   4.946
   44CHL1  H21C 4417   0.232   3.511   5.098
   44CHL1   C22 4418   0.165   3.357   4.801
   44CHL1  H22A 4419   0.205   3.451   4.757
   44CHL1  H22B 4420   0.216   3.268   4.759
   44CHL1   C23 4421   0.012   3.360   4.763
   44CHL1  H23A 4422   6.797   3.272   4.802
   44CHL1  H23B 4423   6.814   3.450   4.816
   44CHL1   C24 4424   6.829   3.356   4.613
   44CHL1  H24A 4425   0.063   3.426   4.569
   44CHL1  H24B 4426   0.017   3.257   4.570
   44CHL1   C25 4427   6.687   3.387   4.573
   44CHL1   H25 4428   6.619   3.349   4.652
   44CHL1   C26 4429   6.673   3.544   4.561
   44CHL1  H26A 4430   6.575   3.564   4.512
   44CHL1  H26B 4431   6.677   3.589   4.663
   44CHL1  H26C 4432   6.755   3.596   4.508
   44CHL1   C27 4433   6.645   3.315   4.441
   44CHL1  H27A 4434   6.661   3.205   4.442
   44CHL1  H27B 4435   6.536   3.333   4.425
   44CHL1  H27C 4436   6.694   3.357   4.350
   45CHL1    C3 4437   6.262   4.207   5.915
   45CHL1    H3 4438   6.189   4.289   5.896
   45CHL1    O3 4439   6.241   4.174   6.050
   45CHL1   H3' 4440   6.214   4.259   6.087
   45CHL1    C4 4441   6.231   4.087   5.819
   45CHL1   H4A 4442   6.293   4.001   5.854
   45CHL1   H4B 4443   6.125   4.064   5.845
   45CHL1    C5 4444   6.265   4.113   5.674
   45CHL1    C6 4445   6.176   4.088   5.582
   45CHL1    H6 4446   6.079   4.049   5.616
   45CHL1    C7 4447   6.180   4.100   5.432
   45CHL1   H7A 4448   6.160   4.005   5.378
   45CHL1   H7B 4449   6.106   4.178   5.406
   45CHL1    C8 4450   6.314   4.159   5.386
   45CHL1    H8 4451   6.367   4.067   5.354
   45CHL1   C14 4452   6.307   4.250   5.255
   45CHL1   H14 4453   6.249   4.340   5.285
   45CHL1   C15 4454   6.233   4.198   5.133
   45CHL1  H15A 4455   6.261   4.094   5.109
   45CHL1  H15B 4456   6.123   4.206   5.150
   45CHL1   C16 4457   6.265   4.301   5.030
   45CHL1  H16A 4458   6.293   4.259   4.931
   45CHL1  H16B 4459   6.184   4.376   5.015
   45CHL1   C17 4460   6.393   4.382   5.076
   45CHL1   H17 4461   6.350   4.480   5.108
   45CHL1   C13 4462   6.440   4.299   5.200
   45CHL1   C18 4463   6.541   4.195   5.161
   45CHL1  H18A 4464   6.533   4.169   5.053
   45CHL1  H18B 4465   6.647   4.228   5.167
   45CHL1  H18C 4466   6.539   4.099   5.217
   45CHL1   C12 4467   6.499   4.388   5.315
   45CHL1  H12A 4468   6.591   4.441   5.284
   45CHL1  H12B 4469   6.427   4.472   5.330
   45CHL1   C11 4470   6.517   4.312   5.441
   45CHL1  H11A 4471   6.599   4.238   5.427
   45CHL1  H11B 4472   6.554   4.387   5.514
   45CHL1    C9 4473   6.385   4.245   5.496
   45CHL1    H9 4474   6.317   4.333   5.508
   45CHL1   C10 4475   6.396   4.184   5.637
   45CHL1   C19 4476   6.507   4.084   5.641
   45CHL1  H19A 4477   6.513   4.022   5.733
   45CHL1  H19B 4478   6.510   4.012   5.556
   45CHL1  H19C 4479   6.608   4.130   5.647
   45CHL1    C1 4480   6.429   4.298   5.741
   45CHL1   H1A 4481   6.538   4.322   5.738
   45CHL1   H1B 4482   6.363   4.383   5.714
   45CHL1    C2 4483   6.404   4.258   5.887
   45CHL1   H2A 4484   6.415   4.343   5.957
   45CHL1   H2B 4485   6.481   4.183   5.916
   45CHL1   C20 4486   6.482   4.404   4.950
   45CHL1   H20 4487   6.492   4.306   4.900
   45CHL1   C21 4488   6.625   4.452   4.986
   45CHL1  H21A 4489   6.666   4.384   5.064
   45CHL1  H21B 4490   6.627   4.558   5.021
   45CHL1  H21C 4491   6.698   4.445   4.903
   45CHL1   C22 4492   6.420   4.507   4.853
   45CHL1  H22A 4493   6.309   4.496   4.850
   45CHL1  H22B 4494   6.444   4.609   4.892
   45CHL1   C23 4495   6.475   4.495   4.709
   45CHL1  H23A 4496   6.583   4.524   4.714
   45CHL1  H23B 4497   6.464   4.390   4.675
   45CHL1   C24 4498   6.415   4.583   4.602
   45CHL1  H24A 4499   6.305   4.571   4.606
   45CHL1  H24B 4500   6.432   4.689   4.629
   45CHL1   C25 4501   6.473   4.556   4.458
   45CHL1   H25 4502   6.467   4.447   4.438
   45CHL1   C26 4503   6.389   4.630   4.353
   45CHL1  H26A 4504   6.440   4.626   4.254
   45CHL1  H26B 4505   6.293   4.576   4.343
   45CHL1  H26C 4506   6.360   4.730   4.391
   45CHL1   C27 4507   6.620   4.599   4.445
   45CHL1  H27A 4508   6.622   4.706   4.475
   45CHL1  H27B 4509   6.695   4.547   4.508
   45CHL1  H27C 4510   6.663   4.591   4.343
   46CHL1    C3 4511   2.179   5.617   5.878
   46CHL1    H3 4512   2.218   5.534   5.814
   46CHL1    O3 4513   2.188   5.568   6.012
   46CHL1   H3' 4514   2.165   5.642   6.069
   46CHL1    C4 4515   2.261   5.742   5.856
   46CHL1   H4A 4516   2.223   5.819   5.926
   46CHL1   H4B 4517   2.366   5.724   5.887
   46CHL1    C5 4518   2.265   5.807   5.715
   46CHL1    C6 4519   2.377   5.834   5.641
   46CHL1    H6 4520   2.477   5.814   5.682
   46CHL1    C7 4521   2.374   5.889   5.501
   46CHL1   H7A 4522   2.450   5.970   5.503
   46CHL1   H7B 4523   2.406   5.801   5.440
   46CHL1    C8 4524   2.236   5.951   5.460
   46CHL1    H8 4525   2.234   6.040   5.527
   46CHL1   C14 4526   2.220   5.978   5.312
   46CHL1   H14 4527   2.225   5.882   5.256
   46CHL1   C15 4528   2.330   6.073   5.256
   46CHL1  H15A 4529   2.351   6.147   5.336
   46CHL1  H15B 4530   2.421   6.016   5.227
   46CHL1   C16 4531   2.259   6.123   5.127
   46CHL1  H16A 4532   2.254   6.234   5.126
   46CHL1  H16B 4533   2.296   6.098   5.025
   46CHL1   C17 4534   2.112   6.070   5.122
   46CHL1   H17 4535   2.114   5.973   5.068
   46CHL1   C13 4536   2.089   6.029   5.268
   46CHL1   C18 4537   2.057   6.156   5.352
   46CHL1  H18A 4538   2.144   6.224   5.337
   46CHL1  H18B 4539   1.973   6.219   5.318
   46CHL1  H18C 4540   2.058   6.130   5.460
   46CHL1   C12 4541   1.986   5.917   5.301
   46CHL1  H12A 4542   1.883   5.955   5.282
   46CHL1  H12B 4543   2.019   5.831   5.238
   46CHL1   C11 4544   1.987   5.875   5.447
   46CHL1  H11A 4545   1.924   5.948   5.502
   46CHL1  H11B 4546   1.934   5.778   5.440
   46CHL1    C9 4547   2.128   5.854   5.500
   46CHL1    H9 4548   2.177   5.762   5.461
   46CHL1   C10 4549   2.124   5.826   5.660
   46CHL1   C19 4550   2.049   5.935   5.739
   46CHL1  H19A 4551   2.056   5.920   5.849
   46CHL1  H19B 4552   2.103   6.031   5.726
   46CHL1  H19C 4553   1.944   5.945   5.703
   46CHL1    C1 4554   2.032   5.704   5.685
   46CHL1   H1A 4555   1.927   5.731   5.663
   46CHL1   H1B 4556   2.062   5.619   5.620
   46CHL1    C2 4557   2.034   5.646   5.832
   46CHL1   H2A 4558   1.973   5.555   5.850
   46CHL1   H2B 4559   2.008   5.722   5.908
   46CHL1   C20 4560   2.011   6.159   5.042
   46CHL1   H20 4561   2.000   6.257   5.094
   46CHL1   C21 4562   1.877   6.083   5.043
   46CHL1  H21A 4563   1.896   5.977   5.073
   46CHL1  H21B 4564   1.826   6.103   4.947
   46CHL1  H21C 4565   1.822   6.124   5.130
   46CHL1   C22 4566   2.051   6.199   4.900
   46CHL1  H22A 4567   1.967   6.260   4.862
   46CHL1  H22B 4568   2.135   6.271   4.904
   46CHL1   C23 4569   2.080   6.089   4.796
   46CHL1  H23A 4570   2.162   6.024   4.835
   46CHL1  H23B 4571   1.995   6.019   4.781
   46CHL1   C24 4572   2.115   6.141   4.653
   46CHL1  H24A 4573   2.018   6.179   4.614
   46CHL1  H24B 4574   2.191   6.221   4.664
   46CHL1   C25 4575   2.162   6.039   4.546
   46CHL1   H25 4576   2.099   5.947   4.550
   46CHL1   C26 4577   2.165   6.105   4.395
   46CHL1  H26A 4578   2.201   6.029   4.322
   46CHL1  H26B 4579   2.063   6.127   4.356
   46CHL1  H26C 4580   2.226   6.198   4.393
   46CHL1   C27 4581   2.303   5.990   4.578
   46CHL1  H27A 4582   2.330   5.914   4.501
   46CHL1  H27B 4583   2.373   6.076   4.577
   46CHL1  H27C 4584   2.316   5.935   4.673
   47CHL1    C3 4585   3.786   4.614   6.405
   47CHL1    H3 4586   3.715   4.530   6.388
   47CHL1    O3 4587   3.799   4.636   6.542
   47CHL1   H3' 4588   3.851   4.717   6.546
   47CHL1    C4 4589   3.922   4.576   6.346
   47CHL1   H4A 4590   4.004   4.638   6.389
   47CHL1   H4B 4591   3.935   4.468   6.371
   47CHL1    C5 4592   3.916   4.579   6.193
   47CHL1    C6 4593   3.959   4.477   6.115
   47CHL1    H6 4594   3.997   4.386   6.163
   47CHL1    C7 4595   3.975   4.484   5.967
   47CHL1   H7A 4596   4.079   4.457   5.938
   47CHL1   H7B 4597   3.904   4.419   5.912
   47CHL1    C8 4598   3.953   4.628   5.908
   47CHL1    H8 4599   4.046   4.682   5.937
   47CHL1   C14 4600   3.939   4.622   5.758
   47CHL1   H14 4601   3.850   4.558   5.745
   47CHL1   C15 4602   4.053   4.556   5.679
   47CHL1  H15A 4603   4.154   4.571   5.724
   47CHL1  H15B 4604   4.043   4.448   5.657
   47CHL1   C16 4605   4.032   4.608   5.534
   47CHL1  H16A 4606   4.126   4.656   5.499
   47CHL1  H16B 4607   3.995   4.527   5.468
   47CHL1   C17 4608   3.927   4.724   5.548
   47CHL1   H17 4609   3.839   4.660   5.524
   47CHL1   C13 4610   3.913   4.760   5.695
   47CHL1   C18 4611   4.031   4.854   5.730
   47CHL1  H18A 4612   4.040   4.863   5.841
   47CHL1  H18B 4613   4.122   4.815   5.680
   47CHL1  H18C 4614   3.999   4.957   5.702
   47CHL1   C12 4615   3.779   4.802   5.748
   47CHL1  H12A 4616   3.752   4.904   5.713
   47CHL1  H12B 4617   3.700   4.726   5.728
   47CHL1   C11 4618   3.785   4.825   5.905
   47CHL1  H11A 4619   3.849   4.914   5.922
   47CHL1  H11B 4620   3.687   4.851   5.951
   47CHL1    C9 4621   3.833   4.695   5.973
   47CHL1    H9 4622   3.752   4.621   5.957
   47CHL1   C10 4623   3.859   4.714   6.126
   47CHL1   C19 4624   3.949   4.836   6.150
   47CHL1  H19A 4625   3.976   4.840   6.258
   47CHL1  H19B 4626   4.039   4.852   6.086
   47CHL1  H19C 4627   3.899   4.933   6.134
   47CHL1    C1 4628   3.720   4.736   6.196
   47CHL1   H1A 4629   3.678   4.832   6.157
   47CHL1   H1B 4630   3.645   4.662   6.160
   47CHL1    C2 4631   3.730   4.742   6.349
   47CHL1   H2A 4632   3.623   4.760   6.371
   47CHL1   H2B 4633   3.799   4.826   6.376
   47CHL1   C20 4634   3.931   4.832   5.433
   47CHL1   H20 4635   4.028   4.884   5.444
   47CHL1   C21 4636   3.812   4.922   5.438
   47CHL1  H21A 4637   3.799   4.986   5.348
   47CHL1  H21B 4638   3.814   4.997   5.519
   47CHL1  H21C 4639   3.720   4.862   5.448
   47CHL1   C22 4640   3.922   4.772   5.287
   47CHL1  H22A 4641   3.981   4.679   5.275
   47CHL1  H22B 4642   3.819   4.751   5.251
   47CHL1   C23 4643   3.987   4.856   5.173
   47CHL1  H23A 4644   3.946   4.959   5.177
   47CHL1  H23B 4645   4.097   4.859   5.186
   47CHL1   C24 4646   3.950   4.778   5.036
   47CHL1  H24A 4647   3.993   4.676   5.046
   47CHL1  H24B 4648   3.841   4.763   5.048
   47CHL1   C25 4649   3.985   4.856   4.909
   47CHL1   H25 4650   4.094   4.878   4.904
   47CHL1   C26 4651   3.950   4.769   4.788
   47CHL1  H26A 4652   4.005   4.673   4.797
   47CHL1  H26B 4653   3.842   4.747   4.780
   47CHL1  H26C 4654   3.984   4.817   4.694
   47CHL1   C27 4655   3.912   4.988   4.895
   47CHL1  H27A 4656   3.952   5.062   4.968
   47CHL1  H27B 4657   3.934   5.040   4.799
   47CHL1  H27C 4658   3.802   4.980   4.904
   48CHL1    C3 4659   1.115   6.094   5.846
   48CHL1    H3 4660   1.040   6.170   5.876
   48CHL1    O3 4661   1.200   6.063   5.957
   48CHL1   H3' 4662   1.264   6.005   5.915
   48CHL1    C4 4663   1.045   5.966   5.804
   48CHL1   H4A 4664   1.121   5.886   5.790
   48CHL1   H4B 4665   0.995   5.916   5.890
   48CHL1    C5 4666   0.953   5.969   5.682
   48CHL1    C6 4667   0.823   5.932   5.682
   48CHL1    H6 4668   0.785   5.889   5.775
   48CHL1    C7 4669   0.726   5.943   5.565
   48CHL1   H7A 4670   0.663   5.851   5.557
   48CHL1   H7B 4671   0.657   6.028   5.585
   48CHL1    C8 4672   0.798   5.967   5.432
   48CHL1    H8 4673   0.849   5.877   5.392
   48CHL1   C14 4674   0.700   6.003   5.319
   48CHL1   H14 4675   0.642   6.089   5.360
   48CHL1   C15 4676   0.590   5.903   5.285
   48CHL1  H15A 4677   0.633   5.800   5.288
   48CHL1  H15B 4678   0.500   5.910   5.349
   48CHL1   C16 4679   0.551   5.942   5.148
   48CHL1  H16A 4680   0.562   5.859   5.075
   48CHL1  H16B 4681   0.451   5.989   5.136
   48CHL1   C17 4682   0.654   6.053   5.101
   48CHL1   H17 4683   0.607   6.149   5.129
   48CHL1   C13 4684   0.777   6.037   5.191
   48CHL1   C18 4685   0.861   5.916   5.133
   48CHL1  H18A 4686   0.909   5.957   5.042
   48CHL1  H18B 4687   0.948   5.888   5.197
   48CHL1  H18C 4688   0.786   5.835   5.118
   48CHL1   C12 4689   0.867   6.163   5.219
   48CHL1  H12A 4690   0.912   6.205   5.126
   48CHL1  H12B 4691   0.808   6.245   5.266
   48CHL1   C11 4692   0.973   6.131   5.328
   48CHL1  H11A 4693   1.049   6.067   5.279
   48CHL1  H11B 4694   1.030   6.222   5.354
   48CHL1    C9 4695   0.904   6.077   5.459
   48CHL1    H9 4696   0.845   6.161   5.502
   48CHL1   C10 4697   1.014   6.041   5.560
   48CHL1   C19 4698   1.107   5.930   5.497
   48CHL1  H19A 4699   1.041   5.845   5.470
   48CHL1  H19B 4700   1.148   5.967   5.401
   48CHL1  H19C 4701   1.183   5.901   5.572
   48CHL1    C1 4702   1.106   6.159   5.602
   48CHL1   H1A 4703   1.173   6.205   5.525
   48CHL1   H1B 4704   1.031   6.237   5.627
   48CHL1    C2 4705   1.194   6.140   5.723
   48CHL1   H2A 4706   1.236   6.240   5.745
   48CHL1   H2B 4707   1.284   6.076   5.706
   48CHL1   C20 4708   0.670   6.047   4.944
   48CHL1   H20 4709   0.733   5.958   4.926
   48CHL1   C21 4710   0.764   6.162   4.901
   48CHL1  H21A 4711   0.867   6.137   4.934
   48CHL1  H21B 4712   0.774   6.174   4.791
   48CHL1  H21C 4713   0.734   6.260   4.944
   48CHL1   C22 4714   0.540   6.050   4.868
   48CHL1  H22A 4715   0.482   5.959   4.896
   48CHL1  H22B 4716   0.486   6.142   4.901
   48CHL1   C23 4717   0.543   6.062   4.714
   48CHL1  H23A 4718   0.577   6.167   4.702
   48CHL1  H23B 4719   0.623   5.999   4.670
   48CHL1   C24 4720   0.413   6.026   4.646
   48CHL1  H24A 4721   0.378   5.925   4.676
   48CHL1  H24B 4722   0.329   6.092   4.676
   48CHL1   C25 4723   0.413   6.034   4.495
   48CHL1   H25 4724   0.500   5.978   4.455
   48CHL1   C26 4725   0.290   5.981   4.431
   48CHL1  H26A 4726   0.295   5.965   4.321
   48CHL1  H26B 4727   0.260   5.884   4.476
   48CHL1  H26C 4728   0.204   6.049   4.447
   48CHL1   C27 4729   0.443   6.170   4.441
   48CHL1  H27A 4730   0.449   6.158   4.331
   48CHL1  H27B 4731   0.376   6.249   4.481
   48CHL1  H27C 4732   0.549   6.198   4.458
   49CHL1    C3 4733   4.291   4.373   2.648
   49CHL1    H3 4734   4.198   4.409   2.696
   49CHL1    O3 4735   4.267   4.356   2.507
   49CHL1   H3' 4736   4.351   4.334   2.466
   49CHL1    C4 4737   4.401   4.484   2.663
   49CHL1   H4A 4738   4.483   4.464   2.591
   49CHL1   H4B 4739   4.350   4.574   2.620
   49CHL1    C5 4740   4.432   4.510   2.808
   49CHL1    C6 4741   4.428   4.628   2.874
   49CHL1    H6 4742   4.410   4.721   2.818
   49CHL1    C7 4743   4.450   4.644   3.019
   49CHL1   H7A 4744   4.509   4.735   3.041
   49CHL1   H7B 4745   4.350   4.653   3.068
   49CHL1    C8 4746   4.515   4.527   3.099
   49CHL1    H8 4747   4.626   4.534   3.089
   49CHL1   C14 4748   4.490   4.530   3.250
   49CHL1   H14 4749   4.380   4.514   3.261
   49CHL1   C15 4750   4.507   4.665   3.328
   49CHL1  H15A 4751   4.601   4.715   3.297
   49CHL1  H15B 4752   4.433   4.748   3.325
   49CHL1   C16 4753   4.516   4.615   3.475
   49CHL1  H16A 4754   4.612   4.659   3.512
   49CHL1  H16B 4755   4.437   4.646   3.546
   49CHL1   C17 4756   4.511   4.468   3.474
   49CHL1   H17 4757   4.404   4.440   3.466
   49CHL1   C13 4758   4.567   4.428   3.331
   49CHL1   C18 4759   4.723   4.442   3.325
   49CHL1  H18A 4760   4.768   4.390   3.412
   49CHL1  H18B 4761   4.765   4.403   3.229
   49CHL1  H18C 4762   4.753   4.548   3.341
   49CHL1   C12 4763   4.531   4.286   3.278
   49CHL1  H12A 4764   4.601   4.207   3.310
   49CHL1  H12B 4765   4.425   4.260   3.301
   49CHL1   C11 4766   4.543   4.281   3.123
   49CHL1  H11A 4767   4.650   4.291   3.095
   49CHL1  H11B 4768   4.502   4.185   3.085
   49CHL1    C9 4769   4.470   4.393   3.043
   49CHL1    H9 4770   4.363   4.391   3.073
   49CHL1   C10 4771   4.463   4.379   2.891
   49CHL1   C19 4772   4.604   4.343   2.843
   49CHL1  H19A 4773   4.673   4.426   2.869
   49CHL1  H19B 4774   4.652   4.253   2.889
   49CHL1  H19C 4775   4.602   4.331   2.733
   49CHL1    C1 4776   4.359   4.268   2.864
   49CHL1   H1A 4777   4.405   4.177   2.907
   49CHL1   H1B 4778   4.265   4.279   2.923
   49CHL1    C2 4779   4.337   4.245   2.715
   49CHL1   H2A 4780   4.266   4.167   2.682
   49CHL1   H2B 4781   4.440   4.218   2.680
   49CHL1   C20 4782   4.568   4.403   3.590
   49CHL1   H20 4783   4.678   4.418   3.595
   49CHL1   C21 4784   4.549   4.247   3.584
   49CHL1  H21A 4785   4.621   4.203   3.512
   49CHL1  H21B 4786   4.445   4.223   3.555
   49CHL1  H21C 4787   4.575   4.204   3.683
   49CHL1   C22 4788   4.519   4.458   3.725
   49CHL1  H22A 4789   4.540   4.567   3.721
   49CHL1  H22B 4790   4.411   4.440   3.747
   49CHL1   C23 4791   4.589   4.403   3.857
   49CHL1  H23A 4792   4.578   4.294   3.873
   49CHL1  H23B 4793   4.697   4.431   3.855
   49CHL1   C24 4794   4.551   4.481   3.987
   49CHL1  H24A 4795   4.637   4.459   4.054
   49CHL1  H24B 4796   4.549   4.589   3.963
   49CHL1   C25 4797   4.412   4.453   4.044
   49CHL1   H25 4798   4.347   4.444   3.954
   49CHL1   C26 4799   4.400   4.318   4.115
   49CHL1  H26A 4800   4.292   4.296   4.128
   49CHL1  H26B 4801   4.455   4.240   4.058
   49CHL1  H26C 4802   4.456   4.327   4.211
   49CHL1   C27 4803   4.375   4.562   4.146
   49CHL1  H27A 4804   4.410   4.661   4.108
   49CHL1  H27B 4805   4.265   4.565   4.158
   49CHL1  H27C 4806   4.417   4.543   4.247
   50CHL1    C3 4807   4.030   1.737   2.834
   50CHL1    H3 4808   3.935   1.681   2.816
   50CHL1    O3 4809   4.101   1.760   2.710
   50CHL1   H3' 4810   4.175   1.821   2.718
   50CHL1    C4 4811   3.991   1.869   2.905
   50CHL1   H4A 4812   4.079   1.937   2.909
   50CHL1   H4B 4813   3.915   1.923   2.845
   50CHL1    C5 4814   3.945   1.844   3.049
   50CHL1    C6 4815   3.829   1.900   3.098
   50CHL1    H6 4816   3.765   1.952   3.025
   50CHL1    C7 4817   3.796   1.887   3.247
   50CHL1   H7A 4818   3.761   1.984   3.289
   50CHL1   H7B 4819   3.706   1.822   3.256
   50CHL1    C8 4820   3.914   1.831   3.340
   50CHL1    H8 4821   3.989   1.911   3.356
   50CHL1   C14 4822   3.862   1.792   3.472
   50CHL1   H14 4823   3.793   1.706   3.459
   50CHL1   C15 4824   3.775   1.886   3.546
   50CHL1  H15A 4825   3.823   1.985   3.528
   50CHL1  H15B 4826   3.675   1.876   3.500
   50CHL1   C16 4827   3.770   1.844   3.687
   50CHL1  H16A 4828   3.800   1.937   3.739
   50CHL1  H16B 4829   3.666   1.807   3.707
   50CHL1   C17 4830   3.872   1.719   3.697
   50CHL1   H17 4831   3.809   1.631   3.672
   50CHL1   C13 4832   3.961   1.737   3.572
   50CHL1   C18 4833   4.073   1.849   3.594
   50CHL1  H18A 4834   4.125   1.863   3.496
   50CHL1  H18B 4835   4.026   1.933   3.649
   50CHL1  H18C 4836   4.144   1.793   3.658
   50CHL1   C12 4837   4.017   1.616   3.505
   50CHL1  H12A 4838   4.105   1.583   3.564
   50CHL1  H12B 4839   3.943   1.534   3.498
   50CHL1   C11 4840   4.075   1.632   3.364
   50CHL1  H11A 4841   4.166   1.695   3.375
   50CHL1  H11B 4842   4.097   1.529   3.328
   50CHL1    C9 4843   3.973   1.710   3.271
   50CHL1    H9 4844   3.883   1.645   3.256
   50CHL1   C10 4845   4.034   1.752   3.132
   50CHL1   C19 4846   4.172   1.834   3.159
   50CHL1  H19A 4847   4.160   1.933   3.208
   50CHL1  H19B 4848   4.248   1.775   3.214
   50CHL1  H19C 4849   4.221   1.865   3.063
   50CHL1    C1 4850   4.060   1.621   3.061
   50CHL1   H1A 4851   4.139   1.566   3.116
   50CHL1   H1B 4852   3.970   1.557   3.064
   50CHL1    C2 4853   4.120   1.646   2.923
   50CHL1   H2A 4854   4.131   1.551   2.865
   50CHL1   H2B 4855   4.222   1.688   2.933
   50CHL1   C20 4856   3.945   1.708   3.832
   50CHL1   H20 4857   3.999   1.805   3.843
   50CHL1   C21 4858   4.035   1.582   3.828
   50CHL1  H21A 4859   4.060   1.553   3.932
   50CHL1  H21B 4860   4.135   1.594   3.781
   50CHL1  H21C 4861   3.969   1.501   3.788
   50CHL1   C22 4862   3.836   1.701   3.946
   50CHL1  H22A 4863   3.769   1.787   3.923
   50CHL1  H22B 4864   3.788   1.602   3.932
   50CHL1   C23 4865   3.896   1.714   4.092
   50CHL1  H23A 4866   3.978   1.640   4.093
   50CHL1  H23B 4867   3.941   1.815   4.108
   50CHL1   C24 4868   3.793   1.687   4.209
   50CHL1  H24A 4869   3.734   1.781   4.211
   50CHL1  H24B 4870   3.734   1.596   4.184
   50CHL1   C25 4871   3.862   1.673   4.350
   50CHL1   H25 4872   3.965   1.636   4.334
   50CHL1   C26 4873   3.863   1.803   4.434
   50CHL1  H26A 4874   3.910   1.785   4.533
   50CHL1  H26B 4875   3.918   1.890   4.393
   50CHL1  H26C 4876   3.761   1.838   4.461
   50CHL1   C27 4877   3.784   1.559   4.429
   50CHL1  H27A 4878   3.813   1.465   4.377
   50CHL1  H27B 4879   3.807   1.545   4.536
   50CHL1  H27C 4880   3.677   1.575   4.405
   51CHL1    C3 4881   3.872   2.801   2.861
   51CHL1    H3 4882   3.971   2.757   2.883
   51CHL1    O3 4883   3.830   2.800   2.722
   51CHL1   H3' 4884   3.857   2.888   2.693
   51CHL1    C4 4885   3.766   2.725   2.944
   51CHL1   H4A 4886   3.664   2.741   2.902
   51CHL1   H4B 4887   3.787   2.618   2.922
   51CHL1    C5 4888   3.776   2.750   3.092
   51CHL1    C6 4889   3.783   2.647   3.177
   51CHL1    H6 4890   3.778   2.542   3.144
   51CHL1    C7 4891   3.786   2.655   3.328
   51CHL1   H7A 4892   3.709   2.594   3.380
   51CHL1   H7B 4893   3.886   2.634   3.373
   51CHL1    C8 4894   3.750   2.796   3.369
   51CHL1    H8 4895   3.639   2.804   3.365
   51CHL1   C14 4896   3.781   2.810   3.521
   51CHL1   H14 4897   3.887   2.786   3.542
   51CHL1   C15 4898   3.711   2.721   3.611
   51CHL1  H15A 4899   3.602   2.709   3.594
   51CHL1  H15B 4900   3.744   2.614   3.614
   51CHL1   C16 4901   3.744   2.781   3.749
   51CHL1  H16A 4902   3.654   2.783   3.814
   51CHL1  H16B 4903   3.825   2.721   3.796
   51CHL1   C17 4904   3.779   2.935   3.723
   51CHL1   H17 4905   3.887   2.949   3.746
   51CHL1   C13 4906   3.749   2.958   3.575
   51CHL1   C18 4907   3.604   3.000   3.548
   51CHL1  H18A 4908   3.536   2.922   3.587
   51CHL1  H18B 4909   3.567   3.089   3.604
   51CHL1  H18C 4910   3.586   3.001   3.438
   51CHL1   C12 4911   3.844   3.058   3.509
   51CHL1  H12A 4912   3.832   3.161   3.549
   51CHL1  H12B 4913   3.946   3.030   3.545
   51CHL1   C11 4914   3.835   3.044   3.354
   51CHL1  H11A 4915   3.737   3.087   3.324
   51CHL1  H11B 4916   3.916   3.100   3.303
   51CHL1    C9 4917   3.837   2.901   3.291
   51CHL1    H9 4918   3.941   2.862   3.293
   51CHL1   C10 4919   3.795   2.894   3.139
   51CHL1   C19 4920   3.650   2.951   3.121
   51CHL1  H19A 4921   3.587   2.919   3.207
   51CHL1  H19B 4922   3.654   3.061   3.131
   51CHL1  H19C 4923   3.608   2.925   3.021
   51CHL1    C1 4924   3.906   2.963   3.050
   51CHL1   H1A 4925   3.901   3.072   3.072
   51CHL1   H1B 4926   4.002   2.916   3.081
   51CHL1    C2 4927   3.889   2.946   2.897
   51CHL1   H2A 4928   3.971   2.998   2.844
   51CHL1   H2B 4929   3.790   2.988   2.868
   51CHL1   C20 4930   3.702   3.021   3.823
   51CHL1   H20 4931   3.596   2.999   3.796
   51CHL1   C21 4932   3.721   3.168   3.805
   51CHL1  H21A 4933   3.827   3.192   3.828
   51CHL1  H21B 4934   3.654   3.217   3.878
   51CHL1  H21C 4935   3.711   3.205   3.701
   51CHL1   C22 4936   3.730   2.991   3.972
   51CHL1  H22A 4937   3.775   2.891   3.989
   51CHL1  H22B 4938   3.799   3.068   4.013
   51CHL1   C23 4939   3.611   3.008   4.071
   51CHL1  H23A 4940   3.659   3.017   4.170
   51CHL1  H23B 4941   3.549   3.100   4.057
   51CHL1   C24 4942   3.515   2.887   4.075
   51CHL1  H24A 4943   3.461   2.872   3.979
   51CHL1  H24B 4944   3.573   2.794   4.091
   51CHL1   C25 4945   3.396   2.896   4.177
   51CHL1   H25 4946   3.342   2.992   4.163
   51CHL1   C26 4947   3.302   2.780   4.164
   51CHL1  H26A 4948   3.340   2.686   4.209
   51CHL1  H26B 4949   3.207   2.799   4.218
   51CHL1  H26C 4950   3.264   2.760   4.061
   51CHL1   C27 4951   3.451   2.885   4.328
   51CHL1  H27A 4952   3.541   2.949   4.340
   51CHL1  H27B 4953   3.371   2.921   4.396
   51CHL1  H27C 4954   3.467   2.778   4.353
   52CHL1    C3 4955   3.315   4.336   2.498
   52CHL1    H3 4956   3.336   4.444   2.507
   52CHL1    O3 4957   3.317   4.302   2.358
   52CHL1   H3' 4958   3.291   4.210   2.361
   52CHL1    C4 4959   3.418   4.240   2.572
   52CHL1   H4A 4960   3.405   4.136   2.535
   52CHL1   H4B 4961   3.520   4.260   2.533
   52CHL1    C5 4962   3.408   4.261   2.724
   52CHL1    C6 4963   3.509   4.306   2.799
   52CHL1    H6 4964   3.605   4.327   2.749
   52CHL1    C7 4965   3.503   4.327   2.945
   52CHL1   H7A 4966   3.600   4.307   2.996
   52CHL1   H7B 4967   3.480   4.435   2.955
   52CHL1    C8 4968   3.384   4.245   3.012
   52CHL1    H8 4969   3.406   4.137   3.007
   52CHL1   C14 4970   3.364   4.288   3.162
   52CHL1   H14 4971   3.329   4.393   3.159
   52CHL1   C15 4972   3.480   4.279   3.261
   52CHL1  H15A 4973   3.547   4.190   3.257
   52CHL1  H15B 4974   3.560   4.356   3.248
   52CHL1   C16 4975   3.417   4.294   3.402
   52CHL1  H16A 4976   3.452   4.208   3.463
   52CHL1  H16B 4977   3.446   4.382   3.463
   52CHL1   C17 4978   3.260   4.281   3.375
   52CHL1   H17 4979   3.215   4.382   3.360
   52CHL1   C13 4980   3.247   4.215   3.227
   52CHL1   C18 4981   3.271   4.063   3.233
   52CHL1  H18A 4982   3.192   4.008   3.287
   52CHL1  H18B 4983   3.278   4.019   3.132
   52CHL1  H18C 4984   3.362   4.039   3.293
   52CHL1   C12 4985   3.120   4.243   3.147
   52CHL1  H12A 4986   3.031   4.193   3.190
   52CHL1  H12B 4987   3.107   4.353   3.154
   52CHL1   C11 4988   3.134   4.206   3.001
   52CHL1  H11A 4989   3.143   4.095   2.996
   52CHL1  H11B 4990   3.041   4.235   2.947
   52CHL1    C9 4991   3.258   4.270   2.931
   52CHL1    H9 4992   3.240   4.380   2.927
   52CHL1   C10 4993   3.271   4.226   2.786
   52CHL1   C19 4994   3.242   4.080   2.756
   52CHL1  H19A 4995   3.144   4.044   2.795
   52CHL1  H19B 4996   3.245   4.059   2.647
   52CHL1  H19C 4997   3.315   4.012   2.806
   52CHL1    C1 4998   3.167   4.309   2.701
   52CHL1   H1A 4999   3.074   4.265   2.744
   52CHL1   H1B 5000   3.159   4.416   2.731
   52CHL1    C2 5001   3.173   4.300   2.550
   52CHL1   H2A 5002   3.095   4.363   2.502
   52CHL1   H2B 5003   3.152   4.195   2.521
   52CHL1   C20 5004   3.195   4.219   3.493
   52CHL1   H20 5005   3.240   4.118   3.504
   52CHL1   C21 5006   3.049   4.193   3.468
   52CHL1  H21A 5007   3.001   4.140   3.553
   52CHL1  H21B 5008   3.038   4.117   3.387
   52CHL1  H21C 5009   3.015   4.294   3.438
   52CHL1   C22 5010   3.211   4.300   3.627
   52CHL1  H22A 5011   3.316   4.306   3.663
   52CHL1  H22B 5012   3.182   4.407   3.625
   52CHL1   C23 5013   3.119   4.241   3.739
   52CHL1  H23A 5014   3.014   4.273   3.727
   52CHL1  H23B 5015   3.123   4.130   3.730
   52CHL1   C24 5016   3.163   4.288   3.879
   52CHL1  H24A 5017   3.264   4.251   3.905
   52CHL1  H24B 5018   3.174   4.399   3.878
   52CHL1   C25 5019   3.065   4.253   3.993
   52CHL1   H25 5020   3.119   4.298   4.079
   52CHL1   C26 5021   2.927   4.325   3.989
   52CHL1  H26A 5022   2.856   4.299   4.070
   52CHL1  H26B 5023   2.948   4.434   3.987
   52CHL1  H26C 5024   2.874   4.305   3.893
   52CHL1   C27 5025   3.043   4.106   4.011
   52CHL1  H27A 5026   2.989   4.063   3.924
   52CHL1  H27B 5027   3.140   4.055   4.028
   52CHL1  H27C 5028   2.985   4.077   4.101
   53CHL1    C3 5029   3.182   3.164   3.019
   53CHL1    H3 5030   3.146   3.269   3.022
   53CHL1    O3 5031   3.212   3.135   2.883
   53CHL1   H3' 5032   3.225   3.040   2.888
   53CHL1    C4 5033   3.307   3.153   3.100
   53CHL1   H4A 5034   3.369   3.063   3.080
   53CHL1   H4B 5035   3.369   3.240   3.072
   53CHL1    C5 5036   3.284   3.157   3.254
   53CHL1    C6 5037   3.370   3.234   3.326
   53CHL1    H6 5038   3.456   3.281   3.275
   53CHL1    C7 5039   3.350   3.258   3.473
   53CHL1   H7A 5040   3.447   3.238   3.524
   53CHL1   H7B 5041   3.311   3.359   3.499
   53CHL1    C8 5042   3.257   3.154   3.545
   53CHL1    H8 5043   3.325   3.066   3.550
   53CHL1   C14 5044   3.205   3.209   3.672
   53CHL1   H14 5045   3.143   3.298   3.649
   53CHL1   C15 5046   3.304   3.266   3.775
   53CHL1  H15A 5047   3.385   3.191   3.791
   53CHL1  H15B 5048   3.349   3.366   3.757
   53CHL1   C16 5049   3.210   3.289   3.897
   53CHL1  H16A 5050   3.265   3.249   3.985
   53CHL1  H16B 5051   3.197   3.399   3.907
   53CHL1   C17 5052   3.079   3.212   3.880
   53CHL1   H17 5053   3.005   3.283   3.838
   53CHL1   C13 5054   3.110   3.125   3.757
   53CHL1   C18 5055   3.195   2.997   3.805
   53CHL1  H18A 5056   3.123   2.926   3.853
   53CHL1  H18B 5057   3.237   2.942   3.719
   53CHL1  H18C 5058   3.262   3.032   3.887
   53CHL1   C12 5059   2.986   3.077   3.668
   53CHL1  H12A 5060   2.916   2.997   3.700
   53CHL1  H12B 5061   2.924   3.166   3.640
   53CHL1   C11 5062   3.038   3.020   3.535
   53CHL1  H11A 5063   3.088   2.922   3.550
   53CHL1  H11B 5064   2.943   3.004   3.480
   53CHL1    C9 5065   3.134   3.116   3.458
   53CHL1    H9 5066   3.076   3.210   3.448
   53CHL1   C10 5067   3.165   3.073   3.309
   53CHL1   C19 5068   3.213   2.932   3.308
   53CHL1  H19A 5069   3.288   2.909   3.387
   53CHL1  H19B 5070   3.132   2.860   3.332
   53CHL1  H19C 5071   3.247   2.905   3.206
   53CHL1    C1 5072   3.042   3.091   3.215
   53CHL1   H1A 5073   2.956   3.027   3.245
   53CHL1   H1B 5074   3.004   3.195   3.226
   53CHL1    C2 5075   3.069   3.074   3.066
   53CHL1   H2A 5076   2.976   3.092   3.008
   53CHL1   H2B 5077   3.096   2.967   3.057
   53CHL1   C20 5078   3.031   3.142   4.008
   53CHL1   H20 5079   3.090   3.049   4.026
   53CHL1   C21 5080   2.890   3.096   3.992
   53CHL1  H21A 5081   2.822   3.166   3.939
   53CHL1  H21B 5082   2.850   3.075   4.094
   53CHL1  H21C 5083   2.881   3.006   3.928
   53CHL1   C22 5084   3.042   3.239   4.135
   53CHL1  H22A 5085   3.147   3.273   4.151
   53CHL1  H22B 5086   2.984   3.331   4.115
   53CHL1   C23 5087   3.034   3.166   4.275
   53CHL1  H23A 5088   2.940   3.108   4.286
   53CHL1  H23B 5089   3.110   3.085   4.277
   53CHL1   C24 5090   3.032   3.262   4.399
   53CHL1  H24A 5091   3.135   3.303   4.407
   53CHL1  H24B 5092   2.954   3.336   4.368
   53CHL1   C25 5093   2.997   3.190   4.534
   53CHL1   H25 5094   2.895   3.149   4.517
   53CHL1   C26 5095   3.084   3.075   4.570
   53CHL1  H26A 5096   3.193   3.083   4.553
   53CHL1  H26B 5097   3.066   3.047   4.676
   53CHL1  H26C 5098   3.063   2.996   4.495
   53CHL1   C27 5099   2.989   3.301   4.642
   53CHL1  H27A 5100   2.911   3.376   4.618
   53CHL1  H27B 5101   2.969   3.259   4.743
   53CHL1  H27C 5102   3.089   3.348   4.646
   54CHL1    C3 5103   2.716   3.467   2.891
   54CHL1    H3 5104   2.741   3.575   2.904
   54CHL1    O3 5105   2.734   3.435   2.758
   54CHL1   H3' 5106   2.672   3.369   2.728
   54CHL1    C4 5107   2.812   3.387   2.980
   54CHL1   H4A 5108   2.799   3.277   2.965
   54CHL1   H4B 5109   2.915   3.404   2.942
   54CHL1    C5 5110   2.780   3.422   3.128
   54CHL1    C6 5111   2.876   3.475   3.206
   54CHL1    H6 5112   2.970   3.492   3.152
   54CHL1    C7 5113   2.850   3.494   3.355
   54CHL1   H7A 5114   2.945   3.474   3.410
   54CHL1   H7B 5115   2.818   3.599   3.369
   54CHL1    C8 5116   2.730   3.416   3.412
   54CHL1    H8 5117   2.760   3.309   3.419
   54CHL1   C14 5118   2.698   3.455   3.562
   54CHL1   H14 5119   2.653   3.556   3.556
   54CHL1   C15 5120   2.806   3.460   3.674
   54CHL1  H15A 5121   2.870   3.370   3.656
   54CHL1  H15B 5122   2.867   3.552   3.667
   54CHL1   C16 5123   2.729   3.449   3.809
   54CHL1  H16A 5124   2.775   3.368   3.870
   54CHL1  H16B 5125   2.742   3.544   3.865
   54CHL1   C17 5126   2.581   3.440   3.765
   54CHL1   H17 5127   2.543   3.543   3.750
   54CHL1   C13 5128   2.582   3.371   3.625
   54CHL1   C18 5129   2.615   3.219   3.638
   54CHL1  H18A 5130   2.708   3.202   3.696
   54CHL1  H18B 5131   2.526   3.168   3.680
   54CHL1  H18C 5132   2.635   3.166   3.542
   54CHL1   C12 5133   2.453   3.381   3.537
   54CHL1  H12A 5134   2.381   3.314   3.589
   54CHL1  H12B 5135   2.403   3.480   3.540
   54CHL1   C11 5136   2.480   3.351   3.387
   54CHL1  H11A 5137   2.477   3.242   3.366
   54CHL1  H11B 5138   2.388   3.374   3.329
   54CHL1    C9 5139   2.605   3.423   3.324
   54CHL1    H9 5140   2.581   3.531   3.328
   54CHL1   C10 5141   2.630   3.389   3.173
   54CHL1   C19 5142   2.619   3.233   3.160
   54CHL1  H19A 5143   2.512   3.205   3.169
   54CHL1  H19B 5144   2.656   3.204   3.059
   54CHL1  H19C 5145   2.682   3.179   3.234
   54CHL1    C1 5146   2.532   3.463   3.076
   54CHL1   H1A 5147   2.437   3.412   3.100
   54CHL1   H1B 5148   2.536   3.573   3.095
   54CHL1    C2 5149   2.567   3.446   2.926
   54CHL1   H2A 5150   2.500   3.519   2.876
   54CHL1   H2B 5151   2.525   3.344   2.914
   54CHL1   C20 5152   2.502   3.366   3.870
   54CHL1   H20 5153   2.523   3.257   3.857
   54CHL1   C21 5154   2.351   3.393   3.859
   54CHL1  H21A 5155   2.330   3.502   3.856
   54CHL1  H21B 5156   2.297   3.337   3.939
   54CHL1  H21C 5157   2.297   3.358   3.769
   54CHL1   C22 5158   2.548   3.396   4.018
   54CHL1  H22A 5159   2.488   3.330   4.085
   54CHL1  H22B 5160   2.654   3.374   4.045
   54CHL1   C23 5161   2.532   3.546   4.070
   54CHL1  H23A 5162   2.604   3.617   4.024
   54CHL1  H23B 5163   2.426   3.571   4.048
   54CHL1   C24 5164   2.550   3.557   4.228
   54CHL1  H24A 5165   2.470   3.499   4.278
   54CHL1  H24B 5166   2.647   3.507   4.248
   54CHL1   C25 5167   2.538   3.699   4.288
   54CHL1   H25 5168   2.600   3.763   4.221
   54CHL1   C26 5169   2.398   3.756   4.284
   54CHL1  H26A 5170   2.322   3.699   4.342
   54CHL1  H26B 5171   2.406   3.865   4.305
   54CHL1  H26C 5172   2.372   3.763   4.177
   54CHL1   C27 5173   2.593   3.707   4.434
   54CHL1  H27A 5174   2.577   3.811   4.470
   54CHL1  H27B 5175   2.534   3.636   4.496
   54CHL1  H27C 5176   2.699   3.672   4.434
   55CHL1    C3 5177   3.628   6.199   2.694
   55CHL1    H3 5178   3.655   6.298   2.737
   55CHL1    O3 5179   3.577   6.222   2.566
   55CHL1   H3' 5180   3.513   6.290   2.590
   55CHL1    C4 5181   3.752   6.119   2.693
   55CHL1   H4A 5182   3.736   6.022   2.641
   55CHL1   H4B 5183   3.821   6.172   2.624
   55CHL1    C5 5184   3.815   6.103   2.832
   55CHL1    C6 5185   3.943   6.135   2.855
   55CHL1    H6 5186   4.000   6.178   2.772
   55CHL1    C7 5187   4.007   6.119   2.980
   55CHL1   H7A 5188   4.103   6.069   2.957
   55CHL1   H7B 5189   4.033   6.218   3.023
   55CHL1    C8 5190   3.923   6.039   3.088
   55CHL1    H8 5191   3.945   5.930   3.077
   55CHL1   C14 5192   3.965   6.086   3.223
   55CHL1   H14 5193   3.944   6.195   3.230
   55CHL1   C15 5194   4.114   6.085   3.269
   55CHL1  H15A 5195   4.161   5.994   3.225
   55CHL1  H15B 5196   4.164   6.175   3.228
   55CHL1   C16 5197   4.110   6.083   3.421
   55CHL1  H16A 5198   4.166   5.998   3.467
   55CHL1  H16B 5199   4.161   6.178   3.447
   55CHL1   C17 5200   3.955   6.076   3.465
   55CHL1   H17 5201   3.918   6.180   3.478
   55CHL1   C13 5202   3.888   6.018   3.342
   55CHL1   C18 5203   3.916   5.866   3.339
   55CHL1  H18A 5204   3.903   5.822   3.238
   55CHL1  H18B 5205   4.018   5.832   3.369
   55CHL1  H18C 5206   3.843   5.813   3.405
   55CHL1   C12 5207   3.743   6.059   3.331
   55CHL1  H12A 5208   3.692   6.000   3.411
   55CHL1  H12B 5209   3.730   6.169   3.342
   55CHL1   C11 5210   3.688   6.016   3.196
   55CHL1  H11A 5211   3.693   5.905   3.190
   55CHL1  H11B 5212   3.582   6.050   3.193
   55CHL1    C9 5213   3.771   6.075   3.076
   55CHL1    H9 5214   3.768   6.186   3.085
   55CHL1   C10 5215   3.714   6.045   2.936
   55CHL1   C19 5216   3.707   5.894   2.909
   55CHL1  H19A 5217   3.667   5.874   2.808
   55CHL1  H19B 5218   3.807   5.846   2.918
   55CHL1  H19C 5219   3.638   5.856   2.988
   55CHL1    C1 5220   3.576   6.120   2.923
   55CHL1   H1A 5221   3.501   6.081   2.996
   55CHL1   H1B 5222   3.589   6.225   2.957
   55CHL1    C2 5223   3.519   6.139   2.779
   55CHL1   H2A 5224   3.434   6.210   2.782
   55CHL1   H2B 5225   3.495   6.035   2.747
   55CHL1   C20 5226   3.948   6.006   3.601
   55CHL1   H20 5227   4.000   5.909   3.591
   55CHL1   C21 5228   3.806   5.970   3.653
   55CHL1  H21A 5229   3.816   5.903   3.741
   55CHL1  H21B 5230   3.754   5.909   3.576
   55CHL1  H21C 5231   3.750   6.062   3.679
   55CHL1   C22 5232   4.016   6.093   3.711
   55CHL1  H22A 5233   4.114   6.123   3.668
   55CHL1  H22B 5234   3.957   6.184   3.736
   55CHL1   C23 5235   4.047   6.018   3.836
   55CHL1  H23A 5236   3.954   5.967   3.870
   55CHL1  H23B 5237   4.120   5.937   3.816
   55CHL1   C24 5238   4.101   6.116   3.948
   55CHL1  H24A 5239   4.190   6.173   3.912
   55CHL1  H24B 5240   4.020   6.187   3.974
   55CHL1   C25 5241   4.128   6.035   4.077
   55CHL1   H25 5242   4.038   5.975   4.101
   55CHL1   C26 5243   4.233   5.933   4.053
   55CHL1  H26A 5244   4.190   5.852   3.990
   55CHL1  H26B 5245   4.313   5.978   3.990
   55CHL1  H26C 5246   4.270   5.888   4.147
   55CHL1   C27 5247   4.160   6.140   4.194
   55CHL1  H27A 5248   4.236   6.209   4.152
   55CHL1  H27B 5249   4.068   6.195   4.221
   55CHL1  H27C 5250   4.199   6.086   4.284
   56CHL1    C3 5251   5.409   1.895   2.767
   56CHL1    H3 5252   5.342   1.811   2.797
   56CHL1    O3 5253   5.371   1.951   2.643
   56CHL1   H3' 5254   5.373   1.876   2.582
   56CHL1    C4 5255   5.407   1.997   2.876
   56CHL1   H4A 5256   5.489   2.067   2.848
   56CHL1   H4B 5257   5.313   2.057   2.877
   56CHL1    C5 5258   5.450   1.930   3.005
   56CHL1    C6 5259   5.374   1.945   3.111
   56CHL1    H6 5260   5.279   1.997   3.096
   56CHL1    C7 5261   5.405   1.897   3.254
   56CHL1   H7A 5262   5.395   1.975   3.333
   56CHL1   H7B 5263   5.333   1.816   3.278
   56CHL1    C8 5264   5.551   1.845   3.263
   56CHL1    H8 5265   5.620   1.929   3.287
   56CHL1   C14 5266   5.557   1.746   3.385
   56CHL1   H14 5267   5.501   1.656   3.351
   56CHL1   C15 5268   5.497   1.786   3.525
   56CHL1  H15A 5269   5.533   1.890   3.540
   56CHL1  H15B 5270   5.387   1.789   3.507
   56CHL1   C16 5271   5.559   1.692   3.621
   56CHL1  H16A 5272   5.601   1.743   3.710
   56CHL1  H16B 5273   5.488   1.613   3.652
   56CHL1   C17 5274   5.673   1.620   3.545
   56CHL1   H17 5275   5.623   1.532   3.500
   56CHL1   C13 5276   5.697   1.698   3.417
   56CHL1   C18 5277   5.789   1.819   3.443
   56CHL1  H18A 5278   5.744   1.882   3.523
   56CHL1  H18B 5279   5.893   1.788   3.467
   56CHL1  H18C 5280   5.794   1.873   3.346
   56CHL1   C12 5281   5.738   1.620   3.294
   56CHL1  H12A 5282   5.841   1.583   3.313
   56CHL1  H12B 5283   5.667   1.535   3.282
   56CHL1   C11 5284   5.735   1.699   3.163
   56CHL1  H11A 5285   5.815   1.775   3.171
   56CHL1  H11B 5286   5.764   1.629   3.082
   56CHL1    C9 5287   5.600   1.773   3.136
   56CHL1    H9 5288   5.522   1.694   3.140
   56CHL1   C10 5289   5.585   1.851   3.012
   56CHL1   C19 5290   5.691   1.962   3.001
   56CHL1  H19A 5291   5.744   1.986   3.096
   56CHL1  H19B 5292   5.768   1.932   2.926
   56CHL1  H19C 5293   5.654   2.061   2.969
   56CHL1    C1 5294   5.587   1.761   2.886
   56CHL1   H1A 5295   5.689   1.728   2.858
   56CHL1   H1B 5296   5.526   1.669   2.898
   56CHL1    C2 5297   5.547   1.831   2.754
   56CHL1   H2A 5298   5.553   1.760   2.669
   56CHL1   H2B 5299   5.618   1.914   2.737
   56CHL1   C20 5300   5.793   1.575   3.622
   56CHL1   H20 5301   5.847   1.666   3.658
   56CHL1   C21 5302   5.887   1.480   3.538
   56CHL1  H21A 5303   5.833   1.419   3.462
   56CHL1  H21B 5304   5.940   1.415   3.610
   56CHL1  H21C 5305   5.961   1.545   3.485
   56CHL1   C22 5306   5.759   1.509   3.756
   56CHL1  H22A 5307   5.667   1.550   3.803
   56CHL1  H22B 5308   5.744   1.401   3.733
   56CHL1   C23 5309   5.872   1.508   3.872
   56CHL1  H23A 5310   5.838   1.432   3.945
   56CHL1  H23B 5311   5.971   1.477   3.832
   56CHL1   C24 5312   5.905   1.639   3.936
   56CHL1  H24A 5313   5.935   1.721   3.867
   56CHL1  H24B 5314   5.814   1.677   3.989
   56CHL1   C25 5315   6.019   1.626   4.043
   56CHL1   H25 5316   6.111   1.589   3.992
   56CHL1   C26 5317   6.056   1.756   4.108
   56CHL1  H26A 5318   6.105   1.823   4.035
   56CHL1  H26B 5319   5.961   1.794   4.150
   56CHL1  H26C 5320   6.130   1.746   4.191
   56CHL1   C27 5321   5.976   1.522   4.149
   56CHL1  H27A 5322   6.055   1.517   4.228
   56CHL1  H27B 5323   5.883   1.560   4.195
   56CHL1  H27C 5324   5.955   1.424   4.102
   57CHL1    C3 5325   4.469   0.073   2.904
   57CHL1    H3 5326   4.491   0.174   2.947
   57CHL1    O3 5327   4.488   0.064   2.766
   57CHL1   H3' 5328   4.458   0.148   2.730
   57CHL1    C4 5329   4.547   6.797   2.966
   57CHL1   H4A 5330   4.535   6.698   2.917
   57CHL1   H4B 5331   4.656   6.821   2.969
   57CHL1    C5 5332   4.513   6.777   3.107
   57CHL1    C6 5333   4.603   6.781   3.205
   57CHL1    H6 5334   4.711   6.799   3.193
   57CHL1    C7 5335   4.581   6.732   3.347
   57CHL1   H7A 5336   4.654   6.657   3.382
   57CHL1   H7B 5337   4.591   6.823   3.410
   57CHL1    C8 5338   4.441   6.662   3.365
   57CHL1    H8 5339   4.451   6.558   3.328
   57CHL1   C14 5340   4.400   6.653   3.511
   57CHL1   H14 5341   4.386   6.754   3.553
   57CHL1   C15 5342   4.499   6.584   3.604
   57CHL1  H15A 5343   4.530   6.483   3.568
   57CHL1  H15B 5344   4.592   6.637   3.633
   57CHL1   C16 5345   4.411   6.542   3.726
   57CHL1  H16A 5346   4.412   6.431   3.735
   57CHL1  H16B 5347   4.445   6.571   3.828
   57CHL1   C17 5348   4.265   6.582   3.699
   57CHL1   H17 5349   4.257   6.684   3.742
   57CHL1   C13 5350   4.256   6.595   3.544
   57CHL1   C18 5351   4.232   6.461   3.476
   57CHL1  H18A 5352   4.253   6.462   3.367
   57CHL1  H18B 5353   4.295   6.378   3.516
   57CHL1  H18C 5354   4.124   6.434   3.482
   57CHL1   C12 5355   4.155   6.698   3.477
   57CHL1  H12A 5356   4.051   6.664   3.488
   57CHL1  H12B 5357   4.160   6.798   3.526
   57CHL1   C11 5358   4.184   6.719   3.334
   57CHL1  H11A 5359   4.141   6.643   3.266
   57CHL1  H11B 5360   4.126   6.809   3.302
   57CHL1    C9 5361   4.335   6.742   3.292
   57CHL1    H9 5362   4.353   0.008   3.316
   57CHL1   C10 5363   4.363   6.745   3.135
   57CHL1   C19 5364   4.331   6.608   3.075
   57CHL1  H19A 5365   4.365   6.593   2.970
   57CHL1  H19B 5366   4.371   6.522   3.131
   57CHL1  H19C 5367   4.220   6.612   3.074
   57CHL1    C1 5368   4.280   0.021   3.071
   57CHL1   H1A 5369   4.175   6.824   3.069
   57CHL1   H1B 5370   4.282   0.115   3.130
   57CHL1    C2 5371   4.321   0.060   2.926
   57CHL1   H2A 5372   4.276   0.157   2.893
   57CHL1   H2B 5373   4.279   6.815   2.869
   57CHL1   C20 5374   4.160   6.504   3.781
   57CHL1   H20 5375   4.152   6.403   3.737
   57CHL1   C21 5376   4.025   6.566   3.755
   57CHL1  H21A 5377   4.031   6.676   3.770
   57CHL1  H21B 5378   3.953   6.521   3.827
   57CHL1  H21C 5379   3.989   6.545   3.652
   57CHL1   C22 5380   4.191   6.480   3.933
   57CHL1  H22A 5381   4.106   6.419   3.971
   57CHL1  H22B 5382   4.282   6.417   3.938
   57CHL1   C23 5383   4.206   6.610   4.023
   57CHL1  H23A 5384   4.297   6.658   3.981
   57CHL1  H23B 5385   4.122   6.680   4.002
   57CHL1   C24 5386   4.237   6.588   4.170
   57CHL1  H24A 5387   4.139   6.572   4.219
   57CHL1  H24B 5388   4.309   6.503   4.176
   57CHL1   C25 5389   4.291   6.706   4.259
   57CHL1   H25 5390   4.386   6.731   4.208
   57CHL1   C26 5391   4.208   6.836   4.255
   57CHL1  H26A 5392   4.207   0.040   4.153
   57CHL1  H26B 5393   4.104   6.804   4.274
   57CHL1  H26C 5394   4.245   0.072   4.327
   57CHL1   C27 5395   4.336   6.660   4.398
   57CHL1  H27A 5396   4.386   6.561   4.385
   57CHL1  H27B 5397   4.409   6.731   4.441
   57CHL1  H27C 5398   4.244   6.663   4.460
   58CHL1    C3 5399   4.509   0.816   3.149
   58CHL1    H3 5400   4.593   0.834   3.221
   58CHL1    O3 5401   4.530   0.869   3.021
   58CHL1   H3' 5402   4.453   0.855   2.966
   58CHL1    C4 5403   4.482   0.668   3.134
   58CHL1   H4A 5404   4.400   0.653   3.061
   58CHL1   H4B 5405   4.567   0.615   3.086
   58CHL1    C5 5406   4.436   0.590   3.254
   58CHL1    C6 5407   4.483   0.466   3.280
   58CHL1    H6 5408   4.560   0.429   3.210
   58CHL1    C7 5409   4.436   0.378   3.390
   58CHL1   H7A 5410   4.418   0.277   3.347
   58CHL1   H7B 5411   4.523   0.389   3.458
   58CHL1    C8 5412   4.311   0.432   3.471
   58CHL1    H8 5413   4.221   0.406   3.412
   58CHL1   C14 5414   4.306   0.379   3.610
   58CHL1   H14 5415   4.395   0.416   3.665
   58CHL1   C15 5416   4.322   0.230   3.639
   58CHL1  H15A 5417   4.243   0.183   3.576
   58CHL1  H15B 5418   4.427   0.203   3.615
   58CHL1   C16 5419   4.274   0.199   3.777
   58CHL1  H16A 5420   4.212   0.107   3.776
   58CHL1  H16B 5421   4.354   0.174   3.850
   58CHL1   C17 5422   4.188   0.327   3.820
   58CHL1   H17 5423   4.258   0.395   3.874
   58CHL1   C13 5424   4.180   0.416   3.695
   58CHL1   C18 5425   4.048   0.368   3.620
   58CHL1  H18A 5426   3.960   0.411   3.673
   58CHL1  H18B 5427   4.055   0.415   3.520
   58CHL1  H18C 5428   4.043   0.258   3.607
   58CHL1   C12 5429   4.181   0.566   3.709
   58CHL1  H12A 5430   4.096   0.608   3.767
   58CHL1  H12B 5431   4.266   0.585   3.778
   58CHL1   C11 5432   4.203   0.648   3.576
   58CHL1  H11A 5433   4.105   0.645   3.524
   58CHL1  H11B 5434   4.234   0.752   3.598
   58CHL1    C9 5435   4.315   0.586   3.483
   58CHL1    H9 5436   4.408   0.616   3.536
   58CHL1   C10 5437   4.324   0.651   3.346
   58CHL1   C19 5438   4.191   0.637   3.267
   58CHL1  H19A 5439   4.179   0.531   3.237
   58CHL1  H19B 5440   4.098   0.670   3.319
   58CHL1  H19C 5441   4.193   0.705   3.179
   58CHL1    C1 5442   4.357   0.806   3.355
   58CHL1   H1A 5443   4.269   0.859   3.396
   58CHL1   H1B 5444   4.436   0.816   3.433
   58CHL1    C2 5445   4.392   0.883   3.219
   58CHL1   H2A 5446   4.423   0.984   3.251
   58CHL1   H2B 5447   4.300   0.892   3.158
   58CHL1   C20 5448   4.062   0.318   3.905
   58CHL1   H20 5449   3.995   0.401   3.877
   58CHL1   C21 5450   4.103   0.352   4.055
   58CHL1  H21A 5451   4.011   0.359   4.116
   58CHL1  H21B 5452   4.158   0.448   4.055
   58CHL1  H21C 5453   4.160   0.267   4.097
   58CHL1   C22 5454   3.993   0.182   3.909
   58CHL1  H22A 5455   3.974   0.142   3.807
   58CHL1  H22B 5456   4.065   0.114   3.958
   58CHL1   C23 5457   3.858   0.165   3.982
   58CHL1  H23A 5458   3.857   0.209   4.084
   58CHL1  H23B 5459   3.779   0.225   3.932
   58CHL1   C24 5460   3.815   0.019   3.989
   58CHL1  H24A 5461   3.772   6.839   3.888
   58CHL1  H24B 5462   3.903   6.792   3.994
   58CHL1   C25 5463   3.723   6.827   4.106
   58CHL1   H25 5464   3.641   0.061   4.108
   58CHL1   C26 5465   3.657   6.692   4.083
   58CHL1  H26A 5466   3.613   6.672   3.983
   58CHL1  H26B 5467   3.722   6.606   4.110
   58CHL1  H26C 5468   3.562   6.682   4.141
   58CHL1   C27 5469   3.790   6.827   4.249
   58CHL1  H27A 5470   3.728   6.785   4.330
   58CHL1  H27B 5471   3.878   6.760   4.237
   58CHL1  H27C 5472   3.823   0.085   4.288
   59CHL1    C3 5473   2.764   5.095   2.695
   59CHL1    H3 5474   2.761   5.206   2.700
   59CHL1    O3 5475   2.773   5.058   2.559
   59CHL1   H3' 5476   2.704   5.102   2.510
   59CHL1    C4 5477   2.880   5.039   2.775
   59CHL1   H4A 5478   2.896   4.930   2.760
   59CHL1   H4B 5479   2.971   5.088   2.736
   59CHL1    C5 5480   2.859   5.073   2.922
   59CHL1    C6 5481   2.957   5.137   2.986
   59CHL1    H6 5482   3.050   5.170   2.939
   59CHL1    C7 5483   2.944   5.158   3.137
   59CHL1   H7A 5484   3.036   5.128   3.190
   59CHL1   H7B 5485   2.931   5.268   3.146
   59CHL1    C8 5486   2.825   5.086   3.210
   59CHL1    H8 5487   2.863   4.982   3.213
   59CHL1   C14 5488   2.794   5.154   3.346
   59CHL1   H14 5489   2.767   5.257   3.314
   59CHL1   C15 5490   2.914   5.178   3.443
   59CHL1  H15A 5491   2.962   5.081   3.418
   59CHL1  H15B 5492   2.985   5.260   3.422
   59CHL1   C16 5493   2.844   5.183   3.583
   59CHL1  H16A 5494   2.877   5.104   3.654
   59CHL1  H16B 5495   2.860   5.278   3.637
   59CHL1   C17 5496   2.689   5.155   3.557
   59CHL1   H17 5497   2.640   5.252   3.531
   59CHL1   C13 5498   2.684   5.076   3.425
   59CHL1   C18 5499   2.718   4.924   3.446
   59CHL1  H18A 5500   2.790   4.884   3.371
   59CHL1  H18B 5501   2.768   4.907   3.544
   59CHL1  H18C 5502   2.622   4.868   3.447
   59CHL1   C12 5503   2.560   5.091   3.344
   59CHL1  H12A 5504   2.473   5.043   3.393
   59CHL1  H12B 5505   2.543   5.200   3.344
   59CHL1   C11 5506   2.573   5.037   3.196
   59CHL1  H11A 5507   2.595   4.930   3.214
   59CHL1  H11B 5508   2.475   5.050   3.146
   59CHL1    C9 5509   2.696   5.092   3.125
   59CHL1    H9 5510   2.683   5.202   3.110
   59CHL1   C10 5511   2.721   5.030   2.982
   59CHL1   C19 5512   2.722   4.879   2.997
   59CHL1  H19A 5513   2.734   4.824   2.902
   59CHL1  H19B 5514   2.805   4.848   3.064
   59CHL1  H19C 5515   2.622   4.853   3.038
   59CHL1    C1 5516   2.604   5.077   2.887
   59CHL1   H1A 5517   2.504   5.047   2.925
   59CHL1   H1B 5518   2.593   5.186   2.904
   59CHL1    C2 5519   2.634   5.041   2.749
   59CHL1   H2A 5520   2.549   5.077   2.687
   59CHL1   H2B 5521   2.650   4.931   2.741
   59CHL1   C20 5522   2.624   5.087   3.675
   59CHL1   H20 5523   2.675   4.993   3.704
   59CHL1   C21 5524   2.475   5.040   3.656
   59CHL1  H21A 5525   2.466   4.946   3.597
   59CHL1  H21B 5526   2.420   5.120   3.603
   59CHL1  H21C 5527   2.433   5.040   3.759
   59CHL1   C22 5528   2.631   5.174   3.805
   59CHL1  H22A 5529   2.581   5.115   3.885
   59CHL1  H22B 5530   2.736   5.187   3.841
   59CHL1   C23 5531   2.554   5.316   3.805
   59CHL1  H23A 5532   2.582   5.365   3.709
   59CHL1  H23B 5533   2.445   5.294   3.798
   59CHL1   C24 5534   2.593   5.402   3.925
   59CHL1  H24A 5535   2.703   5.415   3.927
   59CHL1  H24B 5536   2.546   5.501   3.907
   59CHL1   C25 5537   2.555   5.344   4.067
   59CHL1   H25 5538   2.547   5.439   4.125
   59CHL1   C26 5539   2.413   5.275   4.067
   59CHL1  H26A 5540   2.334   5.348   4.039
   59CHL1  H26B 5541   2.415   5.176   4.018
   59CHL1  H26C 5542   2.392   5.263   4.176
   59CHL1   C27 5543   2.661   5.258   4.137
   59CHL1  H27A 5544   2.618   5.226   4.234
   59CHL1  H27B 5545   2.685   5.166   4.080
   59CHL1  H27C 5546   2.754   5.318   4.151
   60CHL1    C3 5547   5.330   5.744   2.851
   60CHL1    H3 5548   5.437   5.746   2.824
   60CHL1    O3 5549   5.255   5.780   2.738
   60CHL1   H3' 5550   5.313   5.847   2.701
   60CHL1    C4 5551   5.297   5.605   2.904
   60CHL1   H4A 5552   5.188   5.588   2.915
   60CHL1   H4B 5553   5.316   5.531   2.824
   60CHL1    C5 5554   5.363   5.565   3.032
   60CHL1    C6 5555   5.430   5.450   3.048
   60CHL1    H6 5556   5.443   5.386   2.960
   60CHL1    C7 5557   5.469   5.393   3.183
   60CHL1   H7A 5558   5.448   5.284   3.195
   60CHL1   H7B 5559   5.580   5.396   3.193
   60CHL1    C8 5560   5.410   5.483   3.306
   60CHL1    H8 5561   5.309   5.445   3.335
   60CHL1   C14 5562   5.493   5.458   3.434
   60CHL1   H14 5563   5.594   5.501   3.418
   60CHL1   C15 5564   5.522   5.311   3.468
   60CHL1  H15A 5565   5.428   5.252   3.474
   60CHL1  H15B 5566   5.588   5.258   3.397
   60CHL1   C16 5567   5.571   5.311   3.615
   60CHL1  H16A 5568   5.498   5.252   3.674
   60CHL1  H16B 5569   5.678   5.285   3.629
   60CHL1   C17 5570   5.552   5.463   3.660
   60CHL1   H17 5571   5.647   5.518   3.641
   60CHL1   C13 5572   5.453   5.527   3.561
   60CHL1   C18 5573   5.316   5.481   3.600
   60CHL1  H18A 5574   5.287   5.540   3.689
   60CHL1  H18B 5575   5.246   5.509   3.519
   60CHL1  H18C 5576   5.310   5.371   3.617
   60CHL1   C12 5577   5.452   5.679   3.536
   60CHL1  H12A 5578   5.395   5.722   3.621
   60CHL1  H12B 5579   5.549   5.727   3.513
   60CHL1   C11 5580   5.372   5.721   3.406
   60CHL1  H11A 5581   5.263   5.709   3.427
   60CHL1  H11B 5582   5.394   5.827   3.381
   60CHL1    C9 5583   5.411   5.629   3.283
   60CHL1    H9 5584   5.515   5.663   3.264
   60CHL1   C10 5585   5.335   5.668   3.147
   60CHL1   C19 5586   5.184   5.676   3.179
   60CHL1  H19A 5587   5.156   5.754   3.253
   60CHL1  H19B 5588   5.124   5.673   3.085
   60CHL1  H19C 5589   5.154   5.579   3.225
   60CHL1    C1 5590   5.384   5.808   3.099
   60CHL1   H1A 5591   5.360   5.883   3.177
   60CHL1   H1B 5592   5.492   5.801   3.072
   60CHL1    C2 5593   5.318   5.851   2.963
   60CHL1   H2A 5594   5.365   5.947   2.930
   60CHL1   H2B 5595   5.210   5.858   2.984
   60CHL1   C20 5596   5.523   5.462   3.810
   60CHL1   H20 5597   5.418   5.427   3.825
   60CHL1   C21 5598   5.537   5.609   3.860
   60CHL1  H21A 5599   5.470   5.680   3.809
   60CHL1  H21B 5600   5.636   5.652   3.833
   60CHL1  H21C 5601   5.519   5.611   3.970
   60CHL1   C22 5602   5.629   5.365   3.883
   60CHL1  H22A 5603   5.623   5.258   3.853
   60CHL1  H22B 5604   5.729   5.395   3.844
   60CHL1   C23 5605   5.639   5.389   4.032
   60CHL1  H23A 5606   5.682   5.489   4.053
   60CHL1  H23B 5607   5.536   5.392   4.072
   60CHL1   C24 5608   5.726   5.289   4.104
   60CHL1  H24A 5609   5.693   5.188   4.070
   60CHL1  H24B 5610   5.832   5.304   4.076
   60CHL1   C25 5611   5.717   5.288   4.259
   60CHL1   H25 5612   5.611   5.260   4.277
   60CHL1   C26 5613   5.809   5.182   4.320
   60CHL1  H26A 5614   5.915   5.209   4.303
   60CHL1  H26B 5615   5.802   5.173   4.430
   60CHL1  H26C 5616   5.779   5.084   4.277
   60CHL1   C27 5617   5.760   5.421   4.321
   60CHL1  H27A 5618   5.860   5.448   4.282
   60CHL1  H27B 5619   5.690   5.505   4.300
   60CHL1  H27C 5620   5.766   5.404   4.431
   61CHL1    C3 5621   5.373   2.498   2.850
   61CHL1    H3 5622   5.263   2.490   2.868
   61CHL1    O3 5623   5.396   2.535   2.716
   61CHL1   H3' 5624   5.492   2.545   2.716
   61CHL1    C4 5625   5.421   2.605   2.947
   61CHL1   H4A 5626   5.526   2.633   2.922
   61CHL1   H4B 5627   5.361   2.698   2.934
   61CHL1    C5 5628   5.411   2.555   3.089
   61CHL1    C6 5629   5.332   2.621   3.172
   61CHL1    H6 5630   5.283   2.712   3.136
   61CHL1    C7 5631   5.310   2.584   3.318
   61CHL1   H7A 5632   5.313   2.673   3.384
   61CHL1   H7B 5633   5.214   2.529   3.328
   61CHL1    C8 5634   5.423   2.492   3.362
   61CHL1    H8 5635   5.512   2.557   3.376
   61CHL1   C14 5636   5.385   2.425   3.495
   61CHL1   H14 5637   5.307   2.350   3.469
   61CHL1   C15 5638   5.322   2.515   3.604
   61CHL1  H15A 5639   5.391   2.601   3.610
   61CHL1  H15B 5640   5.218   2.547   3.581
   61CHL1   C16 5641   5.333   2.425   3.727
   61CHL1  H16A 5642   5.393   2.468   3.810
   61CHL1  H16B 5643   5.233   2.389   3.759
   61CHL1   C17 5644   5.406   2.291   3.685
   61CHL1   H17 5645   5.326   2.222   3.653
   61CHL1   C13 5646   5.493   2.334   3.558
   61CHL1   C18 5647   5.613   2.417   3.603
   61CHL1  H18A 5648   5.583   2.472   3.694
   61CHL1  H18B 5649   5.699   2.349   3.620
   61CHL1  H18C 5650   5.640   2.502   3.536
   61CHL1   C12 5651   5.532   2.228   3.461
   61CHL1  H12A 5652   5.625   2.174   3.491
   61CHL1  H12B 5653   5.457   2.146   3.457
   61CHL1   C11 5654   5.560   2.290   3.319
   61CHL1  H11A 5655   5.655   2.345   3.339
   61CHL1  H11B 5656   5.589   2.214   3.243
   61CHL1    C9 5657   5.451   2.382   3.261
   61CHL1    H9 5658   5.363   2.315   3.253
   61CHL1   C10 5659   5.478   2.428   3.121
   61CHL1   C19 5660   5.632   2.452   3.101
   61CHL1  H19A 5661   5.663   2.523   3.180
   61CHL1  H19B 5662   5.689   2.358   3.109
   61CHL1  H19C 5663   5.659   2.498   3.003
   61CHL1    C1 5664   5.424   2.316   3.028
   61CHL1   H1A 5665   5.471   2.217   3.045
   61CHL1   H1B 5666   5.321   2.285   3.054
   61CHL1    C2 5667   5.433   2.363   2.879
   61CHL1   H2A 5668   5.367   2.289   2.827
   61CHL1   H2B 5669   5.537   2.355   2.842
   61CHL1   C20 5670   5.477   2.214   3.798
   61CHL1   H20 5671   5.563   2.276   3.832
   61CHL1   C21 5672   5.526   2.079   3.748
   61CHL1  H21A 5673   5.603   2.089   3.669
   61CHL1  H21B 5674   5.452   2.005   3.709
   61CHL1  H21C 5675   5.583   2.028   3.828
   61CHL1   C22 5676   5.389   2.193   3.927
   61CHL1  H22A 5677   5.465   2.150   3.997
   61CHL1  H22B 5678   5.352   2.288   3.971
   61CHL1   C23 5679   5.269   2.093   3.915
   61CHL1  H23A 5680   5.191   2.141   3.852
   61CHL1  H23B 5681   5.320   2.012   3.858
   61CHL1   C24 5682   5.197   2.041   4.036
   61CHL1  H24A 5683   5.137   2.120   4.087
   61CHL1  H24B 5684   5.131   1.959   4.001
   61CHL1   C25 5685   5.287   1.984   4.143
   61CHL1   H25 5686   5.376   1.932   4.102
   61CHL1   C26 5687   5.328   2.090   4.244
   61CHL1  H26A 5688   5.395   2.033   4.311
   61CHL1  H26B 5689   5.380   2.178   4.201
   61CHL1  H26C 5690   5.244   2.137   4.301
   61CHL1   C27 5691   5.190   1.881   4.214
   61CHL1  H27A 5692   5.170   1.788   4.156
   61CHL1  H27B 5693   5.232   1.859   4.315
   61CHL1  H27C 5694   5.098   1.940   4.235
   62CHL1    C3 5695   1.476   0.622   3.128
   62CHL1    H3 5696   1.431   0.724   3.121
   62CHL1    O3 5697   1.534   0.601   3.001
   62CHL1   H3' 5698   1.585   0.521   3.014
   62CHL1    C4 5699   1.592   0.622   3.229
   62CHL1   H4A 5700   1.657   0.532   3.224
   62CHL1   H4B 5701   1.653   0.710   3.200
   62CHL1    C5 5702   1.542   0.639   3.370
   62CHL1    C6 5703   1.591   0.725   3.457
   62CHL1    H6 5704   1.676   0.791   3.432
   62CHL1    C7 5705   1.561   0.715   3.608
   62CHL1   H7A 5706   1.659   0.721   3.661
   62CHL1   H7B 5707   1.522   0.816   3.633
   62CHL1    C8 5708   1.479   0.588   3.652
   62CHL1    H8 5709   1.539   0.496   3.663
   62CHL1   C14 5710   1.415   0.618   3.778
   62CHL1   H14 5711   1.348   0.705   3.762
   62CHL1   C15 5712   1.505   0.652   3.894
   62CHL1  H15A 5713   1.589   0.581   3.908
   62CHL1  H15B 5714   1.553   0.751   3.879
   62CHL1   C16 5715   1.415   0.641   4.014
   62CHL1  H16A 5716   1.458   0.592   4.104
   62CHL1  H16B 5717   1.387   0.744   4.045
   62CHL1   C17 5718   1.282   0.575   3.963
   62CHL1   H17 5719   1.206   0.653   3.939
   62CHL1   C13 5720   1.318   0.507   3.832
   62CHL1   C18 5721   1.393   0.383   3.861
   62CHL1  H18A 5722   1.330   0.307   3.912
   62CHL1  H18B 5723   1.443   0.336   3.773
   62CHL1  H18C 5724   1.477   0.403   3.931
   62CHL1   C12 5725   1.208   0.488   3.739
   62CHL1  H12A 5726   1.147   0.401   3.769
   62CHL1  H12B 5727   1.136   0.573   3.731
   62CHL1   C11 5728   1.266   0.452   3.599
   62CHL1  H11A 5729   1.324   0.357   3.601
   62CHL1  H11B 5730   1.184   0.445   3.524
   62CHL1    C9 5731   1.369   0.556   3.547
   62CHL1    H9 5732   1.309   0.649   3.534
   62CHL1   C10 5733   1.434   0.527   3.402
   62CHL1   C19 5734   1.502   0.383   3.404
   62CHL1  H19A 5735   1.432   0.304   3.439
   62CHL1  H19B 5736   1.548   0.351   3.307
   62CHL1  H19C 5737   1.576   0.385   3.487
   62CHL1    C1 5738   1.320   0.527   3.296
   62CHL1   H1A 5739   1.243   0.447   3.299
   62CHL1   H1B 5740   1.266   0.624   3.306
   62CHL1    C2 5741   1.375   0.508   3.151
   62CHL1   H2A 5742   1.286   0.527   3.087
   62CHL1   H2B 5743   1.418   0.412   3.116
   62CHL1   C20 5744   1.220   0.484   4.080
   62CHL1   H20 5745   1.299   0.414   4.113
   62CHL1   C21 5746   1.087   0.417   4.046
   62CHL1  H21A 5747   1.115   0.339   3.972
   62CHL1  H21B 5748   1.016   0.488   3.997
   62CHL1  H21C 5749   1.045   0.361   4.132
   62CHL1   C22 5750   1.192   0.570   4.211
   62CHL1  H22A 5751   1.275   0.641   4.232
   62CHL1  H22B 5752   1.106   0.630   4.174
   62CHL1   C23 5753   1.142   0.501   4.337
   62CHL1  H23A 5754   1.035   0.471   4.340
   62CHL1  H23B 5755   1.206   0.413   4.360
   62CHL1   C24 5756   1.149   0.605   4.457
   62CHL1  H24A 5757   1.249   0.652   4.468
   62CHL1  H24B 5758   1.087   0.689   4.420
   62CHL1   C25 5759   1.085   0.570   4.590
   62CHL1   H25 5760   1.094   0.660   4.655
   62CHL1   C26 5761   0.932   0.556   4.576
   62CHL1  H26A 5762   0.895   0.513   4.672
   62CHL1  H26B 5763   0.883   0.655   4.568
   62CHL1  H26C 5764   0.906   0.485   4.494
   62CHL1   C27 5765   1.148   0.456   4.663
   62CHL1  H27A 5766   1.258   0.440   4.663
   62CHL1  H27B 5767   1.113   0.475   4.767
   62CHL1  H27C 5768   1.097   0.362   4.631
   63CHL1    C3 5769   4.544   5.078   2.767
   63CHL1    H3 5770   4.490   4.983   2.746
   63CHL1    O3 5771   4.581   5.123   2.636
   63CHL1   H3' 5772   4.671   5.156   2.628
   63CHL1    C4 5773   4.459   5.178   2.838
   63CHL1   H4A 5774   4.502   5.279   2.821
   63CHL1   H4B 5775   4.364   5.186   2.780
   63CHL1    C5 5776   4.416   5.140   2.978
   63CHL1    C6 5777   4.292   5.126   3.020
   63CHL1    H6 5778   4.213   5.140   2.944
   63CHL1    C7 5779   4.256   5.103   3.162
   63CHL1   H7A 5780   4.169   5.162   3.197
   63CHL1   H7B 5781   4.228   4.998   3.186
   63CHL1    C8 5782   4.369   5.137   3.263
   63CHL1    H8 5783   4.392   5.245   3.267
   63CHL1   C14 5784   4.332   5.076   3.398
   63CHL1   H14 5785   4.315   4.969   3.372
   63CHL1   C15 5786   4.205   5.117   3.475
   63CHL1  H15A 5787   4.209   5.228   3.485
   63CHL1  H15B 5788   4.108   5.096   3.425
   63CHL1   C16 5789   4.212   5.056   3.610
   63CHL1  H16A 5790   4.170   5.136   3.676
   63CHL1  H16B 5791   4.163   4.957   3.618
   63CHL1   C17 5792   4.365   5.031   3.625
   63CHL1   H17 5793   4.390   4.925   3.606
   63CHL1   C13 5794   4.440   5.094   3.501
   63CHL1   C18 5795   4.472   5.236   3.532
   63CHL1  H18A 5796   4.378   5.271   3.578
   63CHL1  H18B 5797   4.553   5.238   3.609
   63CHL1  H18C 5798   4.505   5.295   3.444
   63CHL1   C12 5799   4.572   5.023   3.454
   63CHL1  H12A 5800   4.659   5.036   3.522
   63CHL1  H12B 5801   4.560   4.913   3.460
   63CHL1   C11 5802   4.616   5.071   3.320
   63CHL1  H11A 5803   4.651   5.175   3.332
   63CHL1  H11B 5804   4.708   5.018   3.286
   63CHL1    C9 5805   4.500   5.068   3.210
   63CHL1    H9 5806   4.479   4.960   3.195
   63CHL1   C10 5807   4.540   5.120   3.066
   63CHL1   C19 5808   4.609   5.259   3.089
   63CHL1  H19A 5809   4.634   5.304   2.991
   63CHL1  H19B 5810   4.553   5.333   3.151
   63CHL1  H19C 5811   4.711   5.246   3.133
   63CHL1    C1 5812   4.639   5.015   2.994
   63CHL1   H1A 5813   4.734   5.015   3.052
   63CHL1   H1B 5814   4.599   4.911   2.989
   63CHL1    C2 5815   4.667   5.051   2.851
   63CHL1   H2A 5816   4.722   4.963   2.811
   63CHL1   H2B 5817   4.731   5.142   2.846
   63CHL1   C20 5818   4.420   5.049   3.768
   63CHL1   H20 5819   4.450   5.155   3.783
   63CHL1   C21 5820   4.549   4.964   3.800
   63CHL1  H21A 5821   4.527   4.857   3.820
   63CHL1  H21B 5822   4.600   4.998   3.893
   63CHL1  H21C 5823   4.627   4.964   3.721
   63CHL1   C22 5824   4.327   5.010   3.883
   63CHL1  H22A 5825   4.384   5.015   3.978
   63CHL1  H22B 5826   4.246   5.086   3.888
   63CHL1   C23 5827   4.269   4.869   3.878
   63CHL1  H23A 5828   4.258   4.819   3.779
   63CHL1  H23B 5829   4.329   4.788   3.923
   63CHL1   C24 5830   4.134   4.885   3.936
   63CHL1  H24A 5831   4.150   4.927   4.037
   63CHL1  H24B 5832   4.051   4.941   3.886
   63CHL1   C25 5833   4.063   4.753   3.972
   63CHL1   H25 5834   4.122   4.688   4.040
   63CHL1   C26 5835   3.933   4.781   4.048
   63CHL1  H26A 5836   3.957   4.876   4.100
   63CHL1  H26B 5837   3.840   4.790   3.988
   63CHL1  H26C 5838   3.928   4.704   4.129
   63CHL1   C27 5839   4.029   4.667   3.849
   63CHL1  H27A 5840   4.125   4.635   3.803
   63CHL1  H27B 5841   3.966   4.579   3.877
   63CHL1  H27C 5842   3.972   4.725   3.774
   64CHL1    C3 5843   2.971   2.771   2.570
   64CHL1    H3 5844   3.072   2.746   2.610
   64CHL1    O3 5845   2.971   2.778   2.423
   64CHL1   H3' 5846   2.877   2.770   2.403
   64CHL1    C4 5847   2.884   2.648   2.606
   64CHL1   H4A 5848   2.781   2.653   2.565
   64CHL1   H4B 5849   2.921   2.563   2.545
   64CHL1    C5 5850   2.888   2.633   2.756
   64CHL1    C6 5851   2.933   2.518   2.813
   64CHL1    H6 5852   2.983   2.443   2.750
   64CHL1    C7 5853   2.921   2.484   2.959
   64CHL1   H7A 5854   2.881   2.380   2.960
   64CHL1   H7B 5855   3.019   2.487   3.011
   64CHL1    C8 5856   2.823   2.580   3.033
   64CHL1    H8 5857   2.722   2.560   2.992
   64CHL1   C14 5858   2.841   2.572   3.187
   64CHL1   H14 5859   2.941   2.612   3.211
   64CHL1   C15 5860   2.816   2.434   3.247
   64CHL1  H15A 5861   2.727   2.386   3.201
   64CHL1  H15B 5862   2.909   2.374   3.229
   64CHL1   C16 5863   2.802   2.462   3.397
   64CHL1  H16A 5864   2.706   2.411   3.424
   64CHL1  H16B 5865   2.877   2.434   3.474
   64CHL1   C17 5866   2.777   2.616   3.405
   64CHL1   H17 5867   2.879   2.645   3.438
   64CHL1   C13 5868   2.741   2.657   3.264
   64CHL1   C18 5869   2.596   2.630   3.240
   64CHL1  H18A 5870   2.535   2.719   3.265
   64CHL1  H18B 5871   2.574   2.608   3.133
   64CHL1  H18C 5872   2.559   2.541   3.296
   64CHL1   C12 5873   2.781   2.809   3.220
   64CHL1  H12A 5874   2.715   2.879   3.275
   64CHL1  H12B 5875   2.889   2.819   3.243
   64CHL1   C11 5876   2.771   2.838   3.072
   64CHL1  H11A 5877   2.665   2.835   3.037
   64CHL1  H11B 5878   2.813   2.938   3.047
   64CHL1    C9 5879   2.846   2.728   2.992
   64CHL1    H9 5880   2.954   2.738   3.016
   64CHL1   C10 5881   2.830   2.752   2.831
   64CHL1   C19 5882   2.680   2.771   2.798
   64CHL1  H19A 5883   2.655   2.879   2.809
   64CHL1  H19B 5884   2.655   2.754   2.692
   64CHL1  H19C 5885   2.614   2.709   2.863
   64CHL1    C1 5886   2.901   2.875   2.784
   64CHL1   H1A 5887   2.855   2.957   2.842
   64CHL1   H1B 5888   3.010   2.874   2.807
   64CHL1    C2 5889   2.907   2.898   2.627
   64CHL1   H2A 5890   2.970   2.984   2.597
   64CHL1   H2B 5891   2.802   2.908   2.593
   64CHL1   C20 5892   2.681   2.642   3.528
   64CHL1   H20 5893   2.587   2.587   3.506
   64CHL1   C21 5894   2.659   2.782   3.549
   64CHL1  H21A 5895   2.607   2.833   3.465
   64CHL1  H21B 5896   2.753   2.841   3.561
   64CHL1  H21C 5897   2.601   2.802   3.641
   64CHL1   C22 5898   2.740   2.581   3.660
   64CHL1  H22A 5899   2.729   2.471   3.672
   64CHL1  H22B 5900   2.847   2.610   3.666
   64CHL1   C23 5901   2.682   2.638   3.792
   64CHL1  H23A 5902   2.714   2.743   3.806
   64CHL1  H23B 5903   2.571   2.643   3.787
   64CHL1   C24 5904   2.728   2.547   3.901
   64CHL1  H24A 5905   2.705   2.444   3.867
   64CHL1  H24B 5906   2.835   2.562   3.929
   64CHL1   C25 5907   2.656   2.575   4.034
   64CHL1   H25 5908   2.552   2.605   4.011
   64CHL1   C26 5909   2.653   2.448   4.122
   64CHL1  H26A 5910   2.574   2.378   4.087
   64CHL1  H26B 5911   2.750   2.393   4.123
   64CHL1  H26C 5912   2.628   2.470   4.228
   64CHL1   C27 5913   2.733   2.680   4.117
   64CHL1  H27A 5914   2.772   2.762   4.053
   64CHL1  H27B 5915   2.671   2.714   4.203
   64CHL1  H27C 5916   2.816   2.633   4.174
   65CHL1    C3 5917   0.797   0.517   2.637
   65CHL1    H3 5918   0.783   0.627   2.644
   65CHL1    O3 5919   0.825   0.487   2.499
   65CHL1   H3' 5920   0.866   0.400   2.502
   65CHL1    C4 5921   0.925   0.480   2.717
   65CHL1   H4A 5922   0.964   0.380   2.689
   65CHL1   H4B 5923   0.997   0.557   2.681
   65CHL1    C5 5924   0.905   0.480   2.870
   65CHL1    C6 5925   0.990   0.555   2.946
   65CHL1    H6 5926   1.081   0.599   2.902
   65CHL1    C7 5927   0.978   0.563   3.098
   65CHL1   H7A 5928   1.080   0.560   3.143
   65CHL1   H7B 5929   0.940   0.666   3.115
   65CHL1    C8 5930   0.869   0.476   3.155
   65CHL1    H8 5931   0.922   0.378   3.161
   65CHL1   C14 5932   0.837   0.524   3.295
   65CHL1   H14 5933   0.787   0.623   3.293
   65CHL1   C15 5934   0.953   0.545   3.391
   65CHL1  H15A 5935   1.025   0.462   3.375
   65CHL1  H15B 5936   1.000   0.643   3.369
   65CHL1   C16 5937   0.896   0.547   3.533
   65CHL1  H16A 5938   0.942   0.471   3.600
   65CHL1  H16B 5939   0.911   0.647   3.581
   65CHL1   C17 5940   0.739   0.508   3.518
   65CHL1   H17 5941   0.683   0.602   3.497
   65CHL1   C13 5942   0.737   0.432   3.371
   65CHL1   C18 5943   0.792   0.287   3.395
   65CHL1  H18A 5944   0.716   0.218   3.437
   65CHL1  H18B 5945   0.822   0.245   3.297
   65CHL1  H18C 5946   0.883   0.303   3.458
   65CHL1   C12 5947   0.609   0.438   3.284
   65CHL1  H12A 5948   0.524   0.380   3.326
   65CHL1  H12B 5949   0.566   0.539   3.297
   65CHL1   C11 5950   0.630   0.399   3.130
   65CHL1  H11A 5951   0.640   0.289   3.139
   65CHL1  H11B 5952   0.535   0.426   3.079
   65CHL1    C9 5953   0.749   0.468   3.066
   65CHL1    H9 5954   0.715   0.573   3.049
   65CHL1   C10 5955   0.779   0.414   2.920
   65CHL1   C19 5956   0.804   0.257   2.920
   65CHL1  H19A 5957   0.833   0.230   3.024
   65CHL1  H19B 5958   0.715   0.199   2.886
   65CHL1  H19C 5959   0.879   0.226   2.845
   65CHL1    C1 5960   0.654   0.450   2.830
   65CHL1   H1A 5961   0.571   0.383   2.860
   65CHL1   H1B 5962   0.623   0.554   2.856
   65CHL1    C2 5963   0.673   0.441   2.686
   65CHL1   H2A 5964   0.586   0.467   2.622
   65CHL1   H2B 5965   0.693   0.335   2.659
   65CHL1   C20 5966   0.692   0.426   3.636
   65CHL1   H20 5967   0.749   0.336   3.668
   65CHL1   C21 5968   0.551   0.385   3.605
   65CHL1  H21A 5969   0.545   0.315   3.519
   65CHL1  H21B 5970   0.488   0.467   3.566
   65CHL1  H21C 5971   0.501   0.335   3.691
   65CHL1   C22 5972   0.686   0.520   3.754
   65CHL1  H22A 5973   0.765   0.597   3.756
   65CHL1  H22B 5974   0.594   0.582   3.758
   65CHL1   C23 5975   0.687   0.455   3.892
   65CHL1  H23A 5976   0.617   0.370   3.900
   65CHL1  H23B 5977   0.788   0.410   3.899
   65CHL1   C24 5978   0.654   0.554   4.008
   65CHL1  H24A 5979   0.695   0.656   3.992
   65CHL1  H24B 5980   0.544   0.567   4.019
   65CHL1   C25 5981   0.709   0.516   4.145
   65CHL1   H25 5982   0.818   0.494   4.142
   65CHL1   C26 5983   0.712   0.635   4.246
   65CHL1  H26A 5984   0.735   0.591   4.345
   65CHL1  H26B 5985   0.783   0.717   4.225
   65CHL1  H26C 5986   0.615   0.688   4.257
   65CHL1   C27 5987   0.617   0.402   4.220
   65CHL1  H27A 5988   0.514   0.443   4.216
   65CHL1  H27B 5989   0.629   0.309   4.161
   65CHL1  H27C 5990   0.633   0.384   4.329
   66CHL1    C3 5991   4.615   2.157   3.128
   66CHL1    H3 5992   4.708   2.095   3.127
   66CHL1    O3 5993   4.605   2.201   3.002
   66CHL1   H3' 5994   4.614   2.297   3.011
   66CHL1    C4 5995   4.487   2.058   3.153
   66CHL1   H4A 5996   4.390   2.111   3.145
   66CHL1   H4B 5997   4.495   1.982   3.073
   66CHL1    C5 5998   4.494   2.002   3.288
   66CHL1    C6 5999   4.483   1.867   3.309
   66CHL1    H6 6000   4.473   1.799   3.223
   66CHL1    C7 6001   4.479   1.803   3.443
   66CHL1   H7A 6002   4.392   1.735   3.457
   66CHL1   H7B 6003   4.574   1.748   3.460
   66CHL1    C8 6004   4.471   1.909   3.560
   66CHL1    H8 6005   4.368   1.951   3.553
   66CHL1   C14 6006   4.504   1.849   3.691
   66CHL1   H14 6007   4.614   1.836   3.700
   66CHL1   C15 6008   4.456   1.707   3.730
   66CHL1  H15A 6009   4.348   1.691   3.707
   66CHL1  H15B 6010   4.509   1.623   3.682
   66CHL1   C16 6011   4.462   1.707   3.882
   66CHL1  H16A 6012   4.357   1.694   3.914
   66CHL1  H16B 6013   4.511   1.615   3.918
   66CHL1   C17 6014   4.512   1.846   3.928
   66CHL1   H17 6015   4.622   1.828   3.936
   66CHL1   C13 6016   4.473   1.944   3.812
   66CHL1   C18 6017   4.322   1.987   3.815
   66CHL1  H18A 6018   4.309   2.037   3.913
   66CHL1  H18B 6019   4.308   2.057   3.730
   66CHL1  H18C 6020   4.262   1.894   3.810
   66CHL1   C12 6021   4.575   2.059   3.790
   66CHL1  H12A 6022   4.570   2.138   3.867
   66CHL1  H12B 6023   4.681   2.026   3.799
   66CHL1   C11 6024   4.553   2.132   3.656
   66CHL1  H11A 6025   4.459   2.187   3.675
   66CHL1  H11B 6026   4.634   2.205   3.637
   66CHL1    C9 6027   4.556   2.034   3.535
   66CHL1    H9 6028   4.659   2.001   3.512
   66CHL1   C10 6029   4.514   2.106   3.400
   66CHL1   C19 6030   4.380   2.178   3.418
   66CHL1  H19A 6031   4.401   2.261   3.489
   66CHL1  H19B 6032   4.349   2.236   3.328
   66CHL1  H19C 6033   4.290   2.118   3.444
   66CHL1    C1 6034   4.636   2.200   3.367
   66CHL1   H1A 6035   4.626   2.281   3.442
   66CHL1   H1B 6036   4.727   2.137   3.363
   66CHL1    C2 6037   4.636   2.270   3.231
   66CHL1   H2A 6038   4.732   2.324   3.219
   66CHL1   H2B 6039   4.549   2.338   3.217
   66CHL1   C20 6040   4.467   1.885   4.070
   66CHL1   H20 6041   4.356   1.890   4.065
   66CHL1   C21 6042   4.529   2.007   4.126
   66CHL1  H21A 6043   4.481   2.034   4.222
   66CHL1  H21B 6044   4.505   2.094   4.061
   66CHL1  H21C 6045   4.640   2.003   4.125
   66CHL1   C22 6046   4.488   1.763   4.171
   66CHL1  H22A 6047   4.454   1.797   4.271
   66CHL1  H22B 6048   4.408   1.689   4.149
   66CHL1   C23 6049   4.631   1.710   4.172
   66CHL1  H23A 6050   4.649   1.652   4.079
   66CHL1  H23B 6051   4.703   1.794   4.165
   66CHL1   C24 6052   4.656   1.613   4.286
   66CHL1  H24A 6053   4.623   1.657   4.383
   66CHL1  H24B 6054   4.591   1.524   4.273
   66CHL1   C25 6055   4.800   1.560   4.293
   66CHL1   H25 6056   4.863   1.631   4.237
   66CHL1   C26 6057   4.853   1.555   4.436
   66CHL1  H26A 6058   4.861   1.659   4.476
   66CHL1  H26B 6059   4.777   1.504   4.499
   66CHL1  H26C 6060   4.948   1.499   4.449
   66CHL1   C27 6061   4.816   1.429   4.221
   66CHL1  H27A 6062   4.918   1.389   4.205
   66CHL1  H27B 6063   4.766   1.449   4.124
   66CHL1  H27C 6064   4.763   1.344   4.269
   67CHL1    C3 6065   4.450   6.247   2.682
   67CHL1    H3 6066   4.389   6.334   2.715
   67CHL1    O3 6067   4.459   6.248   2.540
   67CHL1   H3' 6068   4.472   6.332   2.496
   67CHL1    C4 6069   4.592   6.257   2.731
   67CHL1   H4A 6070   4.648   6.167   2.698
   67CHL1   H4B 6071   4.633   6.347   2.679
   67CHL1    C5 6072   4.591   6.255   2.883
   67CHL1    C6 6073   4.637   6.363   2.949
   67CHL1    H6 6074   4.668   6.451   2.890
   67CHL1    C7 6075   4.660   6.360   3.101
   67CHL1   H7A 6076   4.763   6.394   3.123
   67CHL1   H7B 6077   4.595   6.436   3.148
   67CHL1    C8 6078   4.634   6.217   3.167
   67CHL1    H8 6079   4.721   6.150   3.147
   67CHL1   C14 6080   4.610   6.231   3.316
   67CHL1   H14 6081   4.516   6.288   3.328
   67CHL1   C15 6082   4.721   6.316   3.392
   67CHL1  H15A 6083   4.825   6.303   3.357
   67CHL1  H15B 6084   4.689   6.423   3.386
   67CHL1   C16 6085   4.700   6.258   3.538
   67CHL1  H16A 6086   4.794   6.203   3.561
   67CHL1  H16B 6087   4.681   6.332   3.619
   67CHL1   C17 6088   4.581   6.153   3.540
   67CHL1   H17 6089   4.486   6.210   3.549
   67CHL1   C13 6090   4.584   6.098   3.387
   67CHL1   C18 6091   4.697   5.994   3.383
   67CHL1  H18A 6092   4.657   5.903   3.434
   67CHL1  H18B 6093   4.718   5.961   3.279
   67CHL1  H18C 6094   4.789   6.035   3.430
   67CHL1   C12 6095   4.457   6.031   3.328
   67CHL1  H12A 6096   4.434   5.936   3.380
   67CHL1  H12B 6097   4.371   6.095   3.357
   67CHL1   C11 6098   4.462   6.013   3.178
   67CHL1  H11A 6099   4.543   5.937   3.165
   67CHL1  H11B 6100   4.366   5.972   3.141
   67CHL1    C9 6101   4.507   6.143   3.107
   67CHL1    H9 6102   4.421   6.213   3.119
   67CHL1   C10 6103   4.517   6.136   2.950
   67CHL1   C19 6104   4.613   6.011   2.923
   67CHL1  H19A 6105   4.707   6.024   2.980
   67CHL1  H19B 6106   4.562   5.918   2.955
   67CHL1  H19C 6107   4.634   6.001   2.814
   67CHL1    C1 6108   4.371   6.115   2.885
   67CHL1   H1A 6109   4.340   6.013   2.915
   67CHL1   H1B 6110   4.299   6.182   2.937
   67CHL1    C2 6111   4.374   6.123   2.732
   67CHL1   H2A 6112   4.272   6.114   2.691
   67CHL1   H2B 6113   4.431   6.035   2.695
   67CHL1   C20 6114   4.590   6.045   3.655
   67CHL1   H20 6115   4.662   5.961   3.643
   67CHL1   C21 6116   4.450   5.976   3.668
   67CHL1  H21A 6117   4.416   5.950   3.566
   67CHL1  H21B 6118   4.376   6.042   3.719
   67CHL1  H21C 6119   4.465   5.881   3.723
   67CHL1   C22 6120   4.639   6.109   3.782
   67CHL1  H22A 6121   4.744   6.145   3.779
   67CHL1  H22B 6122   4.574   6.197   3.797
   67CHL1   C23 6123   4.631   6.013   3.900
   67CHL1  H23A 6124   4.541   5.951   3.921
   67CHL1  H23B 6125   4.716   5.944   3.888
   67CHL1   C24 6126   4.659   6.078   4.037
   67CHL1  H24A 6127   4.744   6.149   4.026
   67CHL1  H24B 6128   4.575   6.148   4.056
   67CHL1   C25 6129   4.671   5.987   4.164
   67CHL1   H25 6130   4.595   5.906   4.160
   67CHL1   C26 6131   4.803   5.916   4.170
   67CHL1  H26A 6132   4.798   5.865   4.269
   67CHL1  H26B 6133   4.804   5.842   4.087
   67CHL1  H26C 6134   4.886   5.989   4.175
   67CHL1   C27 6135   4.646   6.064   4.294
   67CHL1  H27A 6136   4.699   6.159   4.274
   67CHL1  H27B 6137   4.538   6.088   4.303
   67CHL1  H27C 6138   4.677   5.999   4.379
   68CHL1    C3 6139   2.014   5.278   2.768
   68CHL1    H3 6140   2.105   5.338   2.791
   68CHL1    O3 6141   2.014   5.263   2.629
   68CHL1   H3' 6142   1.932   5.216   2.612
   68CHL1    C4 6143   2.032   5.139   2.833
   68CHL1   H4A 6144   1.941   5.082   2.803
   68CHL1   H4B 6145   2.123   5.094   2.789
   68CHL1    C5 6146   2.030   5.137   2.989
   68CHL1    C6 6147   2.127   5.073   3.067
   68CHL1    H6 6148   2.199   5.002   3.023
   68CHL1    C7 6149   2.141   5.072   3.220
   68CHL1   H7A 6150   2.160   4.976   3.273
   68CHL1   H7B 6151   2.237   5.125   3.238
   68CHL1    C8 6152   2.023   5.149   3.284
   68CHL1    H8 6153   1.938   5.080   3.295
   68CHL1   C14 6154   2.056   5.205   3.424
   68CHL1   H14 6155   2.143   5.274   3.413
   68CHL1   C15 6156   2.091   5.097   3.528
   68CHL1  H15A 6157   2.022   5.011   3.515
   68CHL1  H15B 6158   2.200   5.080   3.518
   68CHL1   C16 6159   2.065   5.160   3.668
   68CHL1  H16A 6160   1.997   5.083   3.711
   68CHL1  H16B 6161   2.163   5.163   3.721
   68CHL1   C17 6162   2.003   5.300   3.636
   68CHL1   H17 6163   2.090   5.368   3.628
   68CHL1   C13 6164   1.942   5.285   3.491
   68CHL1   C18 6165   1.809   5.211   3.502
   68CHL1  H18A 6166   1.780   5.154   3.410
   68CHL1  H18B 6167   1.817   5.137   3.585
   68CHL1  H18C 6168   1.728   5.283   3.527
   68CHL1   C12 6169   1.925   5.408   3.414
   68CHL1  H12A 6170   1.840   5.460   3.462
   68CHL1  H12B 6171   2.017   5.470   3.426
   68CHL1   C11 6172   1.896   5.373   3.265
   68CHL1  H11A 6173   1.794   5.328   3.262
   68CHL1  H11B 6174   1.902   5.462   3.199
   68CHL1    C9 6175   1.985   5.273   3.195
   68CHL1    H9 6176   2.081   5.329   3.187
   68CHL1   C10 6177   1.934   5.236   3.056
   68CHL1   C19 6178   1.800   5.161   3.067
   68CHL1  H19A 6179   1.798   5.068   3.127
   68CHL1  H19B 6180   1.723   5.237   3.090
   68CHL1  H19C 6181   1.779   5.131   2.962
   68CHL1    C1 6182   1.906   5.360   2.975
   68CHL1   H1A 6183   1.819   5.413   3.018
   68CHL1   H1B 6184   1.991   5.432   2.978
   68CHL1    C2 6185   1.889   5.346   2.825
   68CHL1   H2A 6186   1.872   5.441   2.770
   68CHL1   H2B 6187   1.800   5.282   2.807
   68CHL1   C20 6188   1.920   5.351   3.757
   68CHL1   H20 6189   1.822   5.298   3.761
   68CHL1   C21 6190   1.885   5.499   3.739
   68CHL1  H21A 6191   1.798   5.523   3.675
   68CHL1  H21B 6192   1.980   5.548   3.709
   68CHL1  H21C 6193   1.864   5.547   3.837
   68CHL1   C22 6194   2.002   5.335   3.893
   68CHL1  H22A 6195   2.029   5.228   3.898
   68CHL1  H22B 6196   2.100   5.387   3.884
   68CHL1   C23 6197   1.920   5.370   4.022
   68CHL1  H23A 6198   1.913   5.480   4.034
   68CHL1  H23B 6199   1.819   5.329   3.999
   68CHL1   C24 6200   1.972   5.305   4.154
   68CHL1  H24A 6201   1.978   5.197   4.131
   68CHL1  H24B 6202   2.070   5.340   4.194
   68CHL1   C25 6203   1.858   5.311   4.264
   68CHL1   H25 6204   1.771   5.267   4.211
   68CHL1   C26 6205   1.909   5.228   4.384
   68CHL1  H26A 6206   1.839   5.246   4.468
   68CHL1  H26B 6207   1.909   5.118   4.369
   68CHL1  H26C 6208   2.014   5.252   4.412
   68CHL1   C27 6209   1.831   5.456   4.309
   68CHL1  H27A 6210   1.820   5.524   4.221
   68CHL1  H27B 6211   1.739   5.471   4.369
   68CHL1  H27C 6212   1.910   5.500   4.373
   69CHL1    C3 6213   0.704   2.904   2.584
   69CHL1    H3 6214   0.593   2.893   2.582
   69CHL1    O3 6215   0.753   2.916   2.451
   69CHL1   H3' 6216   0.847   2.913   2.469
   69CHL1    C4 6217   0.746   3.034   2.652
   69CHL1   H4A 6218   0.850   3.065   2.627
   69CHL1   H4B 6219   0.691   3.119   2.606
   69CHL1    C5 6220   0.711   3.039   2.796
   69CHL1    C6 6221   0.638   3.139   2.856
   69CHL1    H6 6222   0.609   3.226   2.795
   69CHL1    C7 6223   0.583   3.136   2.999
   69CHL1   H7A 6224   0.594   3.235   3.049
   69CHL1   H7B 6225   0.474   3.114   2.997
   69CHL1    C8 6226   0.672   3.039   3.084
   69CHL1    H8 6227   0.774   3.078   3.107
   69CHL1   C14 6228   0.606   3.016   3.222
   69CHL1   H14 6229   0.509   2.967   3.195
   69CHL1   C15 6230   0.588   3.140   3.305
   69CHL1  H15A 6231   0.678   3.205   3.293
   69CHL1  H15B 6232   0.495   3.200   3.301
   69CHL1   C16 6233   0.583   3.085   3.451
   69CHL1  H16A 6234   0.664   3.143   3.501
   69CHL1  H16B 6235   0.491   3.118   3.503
   69CHL1   C17 6236   0.587   2.925   3.431
   69CHL1   H17 6237   0.482   2.906   3.399
   69CHL1   C13 6238   0.680   2.912   3.310
   69CHL1   C18 6239   0.822   2.956   3.334
   69CHL1  H18A 6240   0.861   2.877   3.402
   69CHL1  H18B 6241   0.882   2.958   3.241
   69CHL1  H18C 6242   0.834   3.053   3.385
   69CHL1   C12 6243   0.667   2.783   3.232
   69CHL1  H12A 6244   0.706   2.695   3.288
   69CHL1  H12B 6245   0.565   2.749   3.204
   69CHL1   C11 6246   0.744   2.790   3.097
   69CHL1  H11A 6247   0.850   2.806   3.123
   69CHL1  H11B 6248   0.739   2.691   3.047
   69CHL1    C9 6249   0.691   2.907   3.011
   69CHL1    H9 6250   0.589   2.870   2.988
   69CHL1   C10 6251   0.763   2.917   2.878
   69CHL1   C19 6252   0.916   2.947   2.896
   69CHL1  H19A 6253   0.959   2.857   2.945
   69CHL1  H19B 6254   0.968   2.981   2.804
   69CHL1  H19C 6255   0.937   3.029   2.967
   69CHL1    C1 6256   0.742   2.781   2.804
   69CHL1   H1A 6257   0.807   2.700   2.845
   69CHL1   H1B 6258   0.635   2.755   2.821
   69CHL1    C2 6259   0.772   2.787   2.652
   69CHL1   H2A 6260   0.757   2.690   2.601
   69CHL1   H2B 6261   0.881   2.804   2.646
   69CHL1   C20 6262   0.616   2.849   3.558
   69CHL1   H20 6263   0.724   2.850   3.587
   69CHL1   C21 6264   0.573   2.703   3.538
   69CHL1  H21A 6265   0.500   2.671   3.616
   69CHL1  H21B 6266   0.664   2.639   3.543
   69CHL1  H21C 6267   0.527   2.682   3.440
   69CHL1   C22 6268   0.524   2.892   3.679
   69CHL1  H22A 6269   0.533   3.000   3.704
   69CHL1  H22B 6270   0.416   2.870   3.663
   69CHL1   C23 6271   0.563   2.818   3.815
   69CHL1  H23A 6272   0.529   2.712   3.812
   69CHL1  H23B 6273   0.673   2.817   3.828
   69CHL1   C24 6274   0.511   2.877   3.952
   69CHL1  H24A 6275   0.512   2.987   3.945
   69CHL1  H24B 6276   0.402   2.854   3.957
   69CHL1   C25 6277   0.587   2.832   4.078
   69CHL1   H25 6278   0.680   2.891   4.063
   69CHL1   C26 6279   0.512   2.891   4.192
   69CHL1  H26A 6280   0.478   2.994   4.168
   69CHL1  H26B 6281   0.424   2.835   4.229
   69CHL1  H26C 6282   0.571   2.916   4.284
   69CHL1   C27 6283   0.606   2.681   4.106
   69CHL1  H27A 6284   0.511   2.628   4.129
   69CHL1  H27B 6285   0.648   2.640   4.012
   69CHL1  H27C 6286   0.681   2.669   4.188
   70CHL1    C3 6287   2.763   0.491   2.550
   70CHL1    H3 6288   2.873   0.484   2.535
   70CHL1    O3 6289   2.707   0.453   2.424
   70CHL1   H3' 6290   2.780   0.460   2.362
   70CHL1    C4 6291   2.735   0.375   2.654
   70CHL1   H4A 6292   2.624   0.368   2.649
   70CHL1   H4B 6293   2.788   0.290   2.606
   70CHL1    C5 6294   2.778   0.413   2.791
   70CHL1    C6 6295   2.853   0.333   2.866
   70CHL1    H6 6296   2.879   0.236   2.820
   70CHL1    C7 6297   2.884   0.355   3.010
   70CHL1   H7A 6298   2.862   0.257   3.058
   70CHL1   H7B 6299   2.991   0.381   3.019
   70CHL1    C8 6300   2.798   0.471   3.072
   70CHL1    H8 6301   2.695   0.432   3.085
   70CHL1   C14 6302   2.851   0.520   3.210
   70CHL1   H14 6303   2.959   0.536   3.188
   70CHL1   C15 6304   2.841   0.414   3.320
   70CHL1  H15A 6305   2.742   0.363   3.314
   70CHL1  H15B 6306   2.924   0.342   3.305
   70CHL1   C16 6307   2.859   0.494   3.455
   70CHL1  H16A 6308   2.769   0.474   3.516
   70CHL1  H16B 6309   2.941   0.454   3.518
   70CHL1   C17 6310   2.868   0.642   3.412
   70CHL1   H17 6311   2.976   0.662   3.398
   70CHL1   C13 6312   2.789   0.650   3.270
   70CHL1   C18 6313   2.638   0.644   3.281
   70CHL1  H18A 6314   2.597   0.739   3.321
   70CHL1  H18B 6315   2.590   0.622   3.184
   70CHL1  H18C 6316   2.617   0.568   3.359
   70CHL1   C12 6317   2.835   0.750   3.159
   70CHL1  H12A 6318   2.818   0.856   3.189
   70CHL1  H12B 6319   2.945   0.741   3.151
   70CHL1   C11 6320   2.768   0.724   3.024
   70CHL1  H11A 6321   2.658   0.731   3.032
   70CHL1  H11B 6322   2.797   0.800   2.949
   70CHL1    C9 6323   2.806   0.587   2.966
   70CHL1    H9 6324   2.915   0.591   2.945
   70CHL1   C10 6325   2.731   0.552   2.837
   70CHL1   C19 6326   2.583   0.541   2.870
   70CHL1  H19A 6327   2.540   0.637   2.906
   70CHL1  H19B 6328   2.523   0.534   2.777
   70CHL1  H19C 6329   2.559   0.470   2.952
   70CHL1    C1 6330   2.767   0.662   2.728
   70CHL1   H1A 6331   2.722   0.755   2.769
   70CHL1   H1B 6332   2.876   0.680   2.711
   70CHL1    C2 6333   2.702   0.625   2.586
   70CHL1   H2A 6334   2.738   0.712   2.528
   70CHL1   H2B 6335   2.591   0.625   2.592
   70CHL1   C20 6336   2.820   0.738   3.520
   70CHL1   H20 6337   2.712   0.722   3.539
   70CHL1   C21 6338   2.838   0.881   3.458
   70CHL1  H21A 6339   2.842   0.962   3.533
   70CHL1  H21B 6340   2.750   0.905   3.395
   70CHL1  H21C 6341   2.938   0.884   3.408
   70CHL1   C22 6342   2.904   0.718   3.655
   70CHL1  H22A 6343   2.879   0.614   3.684
   70CHL1  H22B 6344   3.015   0.729   3.653
   70CHL1   C23 6345   2.856   0.811   3.773
   70CHL1  H23A 6346   2.928   0.786   3.854
   70CHL1  H23B 6347   2.864   0.919   3.745
   70CHL1   C24 6348   2.710   0.787   3.805
   70CHL1  H24A 6349   2.641   0.835   3.733
   70CHL1  H24B 6350   2.695   0.677   3.794
   70CHL1   C25 6351   2.664   0.823   3.948
   70CHL1   H25 6352   2.732   0.786   4.027
   70CHL1   C26 6353   2.674   0.973   3.973
   70CHL1  H26A 6354   2.625   0.996   4.070
   70CHL1  H26B 6355   2.776   1.014   3.983
   70CHL1  H26C 6356   2.627   1.033   3.892
   70CHL1   C27 6357   2.525   0.779   3.982
   70CHL1  H27A 6358   2.529   0.672   3.949
   70CHL1  H27B 6359   2.508   0.793   4.091
   70CHL1  H27C 6360   2.444   0.833   3.928
   71CHL1    C3 6361   6.125   6.017   2.744
   71CHL1    H3 6362   6.085   5.916   2.767
   71CHL1    O3 6363   6.144   6.016   2.602
   71CHL1   H3' 6364   6.187   6.101   2.590
   71CHL1    C4 6365   6.018   6.129   2.770
   71CHL1   H4A 6366   6.056   6.223   2.724
   71CHL1   H4B 6367   5.929   6.089   2.717
   71CHL1    C5 6368   5.990   6.159   2.918
   71CHL1    C6 6369   5.865   6.171   2.975
   71CHL1    H6 6370   5.772   6.170   2.917
   71CHL1    C7 6371   5.843   6.199   3.121
   71CHL1   H7A 6372   5.762   6.273   3.142
   71CHL1   H7B 6373   5.814   6.102   3.167
   71CHL1    C8 6374   5.973   6.255   3.199
   71CHL1    H8 6375   5.987   6.364   3.184
   71CHL1   C14 6376   5.945   6.233   3.348
   71CHL1   H14 6377   5.940   6.123   3.359
   71CHL1   C15 6378   5.814   6.290   3.406
   71CHL1  H15A 6379   5.794   6.398   3.389
   71CHL1  H15B 6380   5.727   6.227   3.375
   71CHL1   C16 6381   5.844   6.290   3.559
   71CHL1  H16A 6382   5.815   6.388   3.602
   71CHL1  H16B 6383   5.778   6.216   3.609
   71CHL1   C17 6384   5.998   6.264   3.583
   71CHL1   H17 6385   6.005   6.156   3.609
   71CHL1   C13 6386   6.058   6.285   3.442
   71CHL1   C18 6387   6.091   6.441   3.416
   71CHL1  H18A 6388   6.006   6.500   3.455
   71CHL1  H18B 6389   6.181   6.469   3.474
   71CHL1  H18C 6390   6.120   6.463   3.311
   71CHL1   C12 6391   6.182   6.193   3.403
   71CHL1  H12A 6392   6.270   6.237   3.454
   71CHL1  H12B 6393   6.166   6.087   3.432
   71CHL1   C11 6394   6.211   6.193   3.253
   71CHL1  H11A 6395   6.238   6.297   3.224
   71CHL1  H11B 6396   6.292   6.126   3.216
   71CHL1    C9 6397   6.094   6.167   3.155
   71CHL1    H9 6398   6.056   6.065   3.180
   71CHL1   C10 6399   6.122   6.162   3.004
   71CHL1   C19 6400   6.174   6.309   2.964
   71CHL1  H19A 6401   6.215   6.315   2.861
   71CHL1  H19B 6402   6.104   6.393   2.982
   71CHL1  H19C 6403   6.269   6.325   3.019
   71CHL1    C1 6404   6.229   6.051   2.973
   71CHL1   H1A 6405   6.323   6.074   3.028
   71CHL1   H1B 6406   6.188   5.958   3.018
   71CHL1    C2 6407   6.257   6.039   2.821
   71CHL1   H2A 6408   6.324   5.952   2.803
   71CHL1   H2B 6409   6.313   6.128   2.786
   71CHL1   C20 6410   6.055   6.341   3.711
   71CHL1   H20 6411   6.037   6.448   3.688
   71CHL1   C21 6412   6.206   6.325   3.730
   71CHL1  H21A 6413   6.223   6.220   3.761
   71CHL1  H21B 6414   6.248   6.395   3.806
   71CHL1  H21C 6415   6.260   6.349   3.636
   71CHL1   C22 6416   5.977   6.283   3.828
   71CHL1  H22A 6417   5.867   6.296   3.814
   71CHL1  H22B 6418   5.987   6.173   3.825
   71CHL1   C23 6419   5.997   6.353   3.958
   71CHL1  H23A 6420   6.101   6.340   3.992
   71CHL1  H23B 6421   5.986   6.462   3.939
   71CHL1   C24 6422   5.900   6.321   4.071
   71CHL1  H24A 6423   5.794   6.312   4.039
   71CHL1  H24B 6424   5.932   6.216   4.089
   71CHL1   C25 6425   5.909   6.408   4.190
   71CHL1   H25 6426   5.888   6.509   4.150
   71CHL1   C26 6427   5.805   6.371   4.295
   71CHL1  H26A 6428   5.699   6.383   4.264
   71CHL1  H26B 6429   5.810   6.267   4.334
   71CHL1  H26C 6430   5.825   6.440   4.380
   71CHL1   C27 6431   6.048   6.423   4.258
   71CHL1  H27A 6432   6.122   6.477   4.196
   71CHL1  H27B 6433   6.041   6.479   4.354
   71CHL1  H27C 6434   6.088   6.321   4.281
   72CHL1    C3 6435   0.193   4.804   2.735
   72CHL1    H3 6436   0.118   4.727   2.763
   72CHL1    O3 6437   0.198   4.807   2.593
   72CHL1   H3' 6438   0.255   4.882   2.574
   72CHL1    C4 6439   0.137   4.939   2.793
   72CHL1   H4A 6440   0.208   5.014   2.751
   72CHL1   H4B 6441   0.039   4.959   2.745
   72CHL1    C5 6442   0.134   4.937   2.944
   72CHL1    C6 6443   0.020   4.958   3.012
   72CHL1    H6 6444   6.780   4.979   2.941
   72CHL1    C7 6445   0.012   4.969   3.160
   72CHL1   H7A 6446   6.807   5.067   3.184
   72CHL1   H7B 6447   6.792   4.891   3.211
   72CHL1    C8 6448   0.146   4.978   3.226
   72CHL1    H8 6449   0.176   5.084   3.212
   72CHL1   C14 6450   0.140   4.940   3.370
   72CHL1   H14 6451   0.122   4.831   3.373
   72CHL1   C15 6452   0.030   5.002   3.462
   72CHL1  H15A 6453   0.017   5.112   3.450
   72CHL1  H15B 6454   6.776   4.946   3.453
   72CHL1   C16 6455   0.085   4.983   3.610
   72CHL1  H16A 6456   0.071   5.082   3.659
   72CHL1  H16B 6457   0.027   4.909   3.670
   72CHL1   C17 6458   0.235   4.944   3.594
   72CHL1   H17 6459   0.251   4.834   3.600
   72CHL1   C13 6460   0.264   4.966   3.441
   72CHL1   C18 6461   0.315   5.105   3.426
   72CHL1  H18A 6462   0.418   5.113   3.467
   72CHL1  H18B 6463   0.319   5.144   3.322
   72CHL1  H18C 6464   0.246   5.173   3.481
   72CHL1   C12 6465   0.360   4.865   3.384
   72CHL1  H12A 6466   0.462   4.885   3.423
   72CHL1  H12B 6467   0.336   4.759   3.409
   72CHL1   C11 6468   0.378   4.889   3.238
   72CHL1  H11A 6469   0.441   4.978   3.220
   72CHL1  H11B 6470   0.440   4.802   3.206
   72CHL1    C9 6471   0.246   4.888   3.161
   72CHL1    H9 6472   0.213   4.783   3.177
   72CHL1   C10 6473   0.264   4.902   3.011
   72CHL1   C19 6474   0.362   5.023   2.983
   72CHL1  H19A 6475   0.365   5.057   2.878
   72CHL1  H19B 6476   0.328   5.105   3.050
   72CHL1  H19C 6477   0.470   5.001   2.998
   72CHL1    C1 6478   0.330   4.775   2.946
   72CHL1   H1A 6479   0.435   4.764   2.979
   72CHL1   H1B 6480   0.275   4.686   2.983
   72CHL1    C2 6481   0.331   4.776   2.790
   72CHL1   H2A 6482   0.380   4.682   2.758
   72CHL1   H2B 6483   0.406   4.854   2.765
   72CHL1   C20 6484   0.327   4.997   3.705
   72CHL1   H20 6485   0.329   5.108   3.698
   72CHL1   C21 6486   0.463   4.939   3.701
   72CHL1  H21A 6487   0.528   4.971   3.785
   72CHL1  H21B 6488   0.526   4.975   3.616
   72CHL1  H21C 6489   0.465   4.828   3.698
   72CHL1   C22 6490   0.267   4.951   3.840
   72CHL1  H22A 6491   0.162   4.987   3.836
   72CHL1  H22B 6492   0.256   4.840   3.841
   72CHL1   C23 6493   0.338   4.999   3.969
   72CHL1  H23A 6494   0.435   4.945   3.963
   72CHL1  H23B 6495   0.339   5.110   3.962
   72CHL1   C24 6496   0.255   4.958   4.095
   72CHL1  H24A 6497   0.150   4.989   4.075
   72CHL1  H24B 6498   0.261   4.848   4.105
   72CHL1   C25 6499   0.304   4.999   4.234
   72CHL1   H25 6500   0.250   4.940   4.311
   72CHL1   C26 6501   0.458   4.974   4.247
   72CHL1  H26A 6502   0.482   4.866   4.233
   72CHL1  H26B 6503   0.507   5.047   4.180
   72CHL1  H26C 6504   0.480   4.999   4.353
   72CHL1   C27 6505   0.265   5.148   4.265
   72CHL1  H27A 6506   0.156   5.165   4.254
   72CHL1  H27B 6507   0.286   5.177   4.371
   72CHL1  H27C 6508   0.315   5.221   4.198
   73CHL1    C3 6509   1.231   5.019   2.920
   73CHL1    H3 6510   1.259   4.913   2.902
   73CHL1    O3 6511   1.195   5.058   2.788
   73CHL1   H3' 6512   1.262   5.121   2.760
   73CHL1    C4 6513   1.113   5.037   3.016
   73CHL1   H4A 6514   1.064   5.135   2.998
   73CHL1   H4B 6515   1.043   4.956   2.986
   73CHL1    C5 6516   1.152   5.015   3.160
   73CHL1    C6 6517   1.073   4.935   3.237
   73CHL1    H6 6518   0.985   4.891   3.189
   73CHL1    C7 6519   1.094   4.909   3.383
   73CHL1   H7A 6520   0.997   4.888   3.434
   73CHL1   H7B 6521   1.142   4.810   3.388
   73CHL1    C8 6522   1.182   5.024   3.432
   73CHL1    H8 6523   1.122   5.117   3.433
   73CHL1   C14 6524   1.233   4.988   3.573
   73CHL1   H14 6525   1.294   4.896   3.561
   73CHL1   C15 6526   1.123   4.959   3.682
   73CHL1  H15A 6527   1.053   5.044   3.694
   73CHL1  H15B 6528   1.064   4.870   3.650
   73CHL1   C16 6529   1.210   4.934   3.811
   73CHL1  H16A 6530   1.154   4.963   3.903
   73CHL1  H16B 6531   1.231   4.825   3.811
   73CHL1   C17 6532   1.340   5.021   3.784
   73CHL1   H17 6533   1.418   4.947   3.758
   73CHL1   C13 6534   1.326   5.088   3.637
   73CHL1   C18 6535   1.271   5.219   3.652
   73CHL1  H18A 6536   1.340   5.297   3.691
   73CHL1  H18B 6537   1.220   5.249   3.558
   73CHL1  H18C 6538   1.191   5.207   3.729
   73CHL1   C12 6539   1.458   5.085   3.554
   73CHL1  H12A 6540   1.530   5.158   3.595
   73CHL1  H12B 6541   1.495   4.980   3.565
   73CHL1   C11 6542   1.436   5.122   3.409
   73CHL1  H11A 6543   1.424   5.232   3.408
   73CHL1  H11B 6544   1.534   5.099   3.361
   73CHL1    C9 6545   1.312   5.042   3.349
   73CHL1    H9 6546   1.359   4.942   3.336
   73CHL1   C10 6547   1.279   5.083   3.206
   73CHL1   C19 6548   1.246   5.232   3.199
   73CHL1  H19A 6549   1.337   5.291   3.223
   73CHL1  H19B 6550   1.231   5.272   3.096
   73CHL1  H19C 6551   1.155   5.262   3.255
   73CHL1    C1 6552   1.394   5.056   3.111
   73CHL1   H1A 6553   1.489   5.098   3.149
   73CHL1   H1B 6554   1.403   4.946   3.116
   73CHL1    C2 6555   1.361   5.088   2.964
   73CHL1   H2A 6556   1.450   5.060   2.904
   73CHL1   H2B 6557   1.351   5.198   2.952
   73CHL1   C20 6558   1.401   5.108   3.898
   73CHL1   H20 6559   1.333   5.195   3.912
   73CHL1   C21 6560   1.540   5.170   3.853
   73CHL1  H21A 6561   1.610   5.095   3.809
   73CHL1  H21B 6562   1.583   5.215   3.944
   73CHL1  H21C 6563   1.525   5.255   3.782
   73CHL1   C22 6564   1.420   5.030   4.029
   73CHL1  H22A 6565   1.319   4.991   4.051
   73CHL1  H22B 6566   1.490   4.946   4.013
   73CHL1   C23 6567   1.457   5.113   4.158
   73CHL1  H23A 6568   1.552   5.170   4.165
   73CHL1  H23B 6569   1.386   5.198   4.150
   73CHL1   C24 6570   1.445   5.022   4.274
   73CHL1  H24A 6571   1.369   4.944   4.253
   73CHL1  H24B 6572   1.533   4.955   4.284
   73CHL1   C25 6573   1.407   5.091   4.405
   73CHL1   H25 6574   1.354   5.183   4.375
   73CHL1   C26 6575   1.320   5.006   4.497
   73CHL1  H26A 6576   1.365   4.907   4.519
   73CHL1  H26B 6577   1.287   5.065   4.586
   73CHL1  H26C 6578   1.225   4.988   4.442
   73CHL1   C27 6579   1.533   5.129   4.478
   73CHL1  H27A 6580   1.509   5.181   4.573
   73CHL1  H27B 6581   1.603   5.046   4.505
   73CHL1  H27C 6582   1.580   5.199   4.406
   74CHL1    C3 6583   1.183   4.429   2.627
   74CHL1    H3 6584   1.098   4.501   2.639
   74CHL1    O3 6585   1.215   4.406   2.494
   74CHL1   H3' 6586   1.143   4.351   2.462
   74CHL1    C4 6587   1.302   4.481   2.705
   74CHL1   H4A 6588   1.391   4.417   2.687
   74CHL1   H4B 6589   1.325   4.571   2.644
   74CHL1    C5 6590   1.275   4.502   2.849
   74CHL1    C6 6591   1.293   4.619   2.913
   74CHL1    H6 6592   1.338   4.702   2.858
   74CHL1    C7 6593   1.280   4.646   3.063
   74CHL1   H7A 6594   1.366   4.703   3.104
   74CHL1   H7B 6595   1.186   4.703   3.080
   74CHL1    C8 6596   1.274   4.508   3.138
   74CHL1    H8 6597   1.378   4.469   3.140
   74CHL1   C14 6598   1.234   4.536   3.281
   74CHL1   H14 6599   1.134   4.584   3.272
   74CHL1   C15 6600   1.332   4.619   3.356
   74CHL1  H15A 6601   1.439   4.602   3.330
   74CHL1  H15B 6602   1.308   4.725   3.333
   74CHL1   C16 6603   1.293   4.600   3.502
   74CHL1  H16A 6604   1.382   4.583   3.567
   74CHL1  H16B 6605   1.244   4.694   3.534
   74CHL1   C17 6606   1.186   4.485   3.509
   74CHL1   H17 6607   1.087   4.534   3.508
   74CHL1   C13 6608   1.206   4.414   3.368
   74CHL1   C18 6609   1.330   4.317   3.377
   74CHL1  H18A 6610   1.376   4.302   3.277
   74CHL1  H18B 6611   1.408   4.347   3.450
   74CHL1  H18C 6612   1.300   4.221   3.422
   74CHL1   C12 6613   1.090   4.334   3.310
   74CHL1  H12A 6614   1.071   4.234   3.356
   74CHL1  H12B 6615   1.008   4.408   3.297
   74CHL1   C11 6616   1.116   4.309   3.160
   74CHL1  H11A 6617   1.187   4.224   3.169
   74CHL1  H11B 6618   1.022   4.280   3.109
   74CHL1    C9 6619   1.173   4.423   3.067
   74CHL1    H9 6620   1.082   4.485   3.057
   74CHL1   C10 6621   1.214   4.380   2.925
   74CHL1   C19 6622   1.320   4.273   2.937
   74CHL1  H19A 6623   1.416   4.302   2.985
   74CHL1  H19B 6624   1.293   4.188   3.003
   74CHL1  H19C 6625   1.341   4.229   2.837
   74CHL1    C1 6626   1.096   4.322   2.849
   74CHL1   H1A 6627   1.063   4.227   2.895
   74CHL1   H1B 6628   1.014   4.395   2.865
   74CHL1    C2 6629   1.120   4.306   2.693
   74CHL1   H2A 6630   1.020   4.281   2.651
   74CHL1   H2B 6631   1.190   4.220   2.682
   74CHL1   C20 6632   1.186   4.392   3.633
   74CHL1   H20 6633   1.281   4.335   3.629
   74CHL1   C21 6634   1.074   4.287   3.625
   74CHL1  H21A 6635   1.104   4.202   3.559
   74CHL1  H21B 6636   0.979   4.333   3.590
   74CHL1  H21C 6637   1.053   4.241   3.724
   74CHL1   C22 6638   1.181   4.477   3.764
   74CHL1  H22A 6639   1.207   4.417   3.853
   74CHL1  H22B 6640   1.253   4.561   3.764
   74CHL1   C23 6641   1.040   4.542   3.786
   74CHL1  H23A 6642   1.029   4.621   3.709
   74CHL1  H23B 6643   0.961   4.467   3.766
   74CHL1   C24 6644   1.023   4.611   3.925
   74CHL1  H24A 6645   1.050   4.543   4.009
   74CHL1  H24B 6646   1.085   4.703   3.923
   74CHL1   C25 6647   0.869   4.641   3.953
   74CHL1   H25 6648   0.810   4.548   3.939
   74CHL1   C26 6649   0.847   4.695   4.094
   74CHL1  H26A 6650   0.868   4.611   4.164
   74CHL1  H26B 6651   0.912   4.779   4.126
   74CHL1  H26C 6652   0.741   4.724   4.114
   74CHL1   C27 6653   0.823   4.744   3.850
   74CHL1  H27A 6654   0.825   4.692   3.752
   74CHL1  H27B 6655   0.721   4.781   3.871
   74CHL1  H27C 6656   0.891   4.832   3.844
   75CHL1    C3 6657   1.012   3.355   2.484
   75CHL1    H3 6658   0.930   3.281   2.470
   75CHL1    O3 6659   1.069   3.388   2.356
   75CHL1   H3' 6660   1.135   3.456   2.371
   75CHL1    C4 6661   0.951   3.485   2.542
   75CHL1   H4A 6662   1.006   3.576   2.510
   75CHL1   H4B 6663   0.850   3.496   2.496
   75CHL1    C5 6664   0.934   3.468   2.692
   75CHL1    C6 6665   0.819   3.506   2.743
   75CHL1    H6 6666   0.735   3.534   2.677
   75CHL1    C7 6667   0.781   3.482   2.884
   75CHL1   H7A 6668   0.716   3.564   2.923
   75CHL1   H7B 6669   0.720   3.390   2.896
   75CHL1    C8 6670   0.902   3.465   2.980
   75CHL1    H8 6671   0.958   3.560   2.980
   75CHL1   C14 6672   0.872   3.427   3.118
   75CHL1   H14 6673   0.840   3.321   3.123
   75CHL1   C15 6674   0.763   3.507   3.191
   75CHL1  H15A 6675   0.787   3.614   3.175
   75CHL1  H15B 6676   0.661   3.480   3.155
   75CHL1   C16 6677   0.788   3.468   3.342
   75CHL1  H16A 6678   0.798   3.568   3.389
   75CHL1  H16B 6679   0.714   3.412   3.404
   75CHL1   C17 6680   0.924   3.385   3.350
   75CHL1   H17 6681   0.889   3.279   3.341
   75CHL1   C13 6682   0.988   3.415   3.218
   75CHL1   C18 6683   1.066   3.549   3.234
   75CHL1  H18A 6684   1.106   3.594   3.140
   75CHL1  H18B 6685   1.001   3.612   3.298
   75CHL1  H18C 6686   1.151   3.514   3.296
   75CHL1   C12 6687   1.077   3.309   3.164
   75CHL1  H12A 6688   1.173   3.287   3.215
   75CHL1  H12B 6689   1.028   3.210   3.171
   75CHL1   C11 6690   1.114   3.333   3.021
   75CHL1  H11A 6691   1.182   3.420   3.015
   75CHL1  H11B 6692   1.159   3.240   2.982
   75CHL1    C9 6693   0.998   3.362   2.920
   75CHL1    H9 6694   0.932   3.274   2.906
   75CHL1   C10 6695   1.047   3.406   2.777
   75CHL1   C19 6696   1.166   3.512   2.781
   75CHL1  H19A 6697   1.259   3.482   2.834
   75CHL1  H19B 6698   1.195   3.523   2.675
   75CHL1  H19C 6699   1.124   3.603   2.828
   75CHL1    C1 6700   1.095   3.273   2.712
   75CHL1   H1A 6701   1.185   3.245   2.771
   75CHL1   H1B 6702   1.022   3.189   2.723
   75CHL1    C2 6703   1.125   3.296   2.565
   75CHL1   H2A 6704   1.156   3.201   2.516
   75CHL1   H2B 6705   1.216   3.358   2.554
   75CHL1   C20 6706   1.007   3.389   3.481
   75CHL1   H20 6707   1.063   3.485   3.492
   75CHL1   C21 6708   1.108   3.270   3.477
   75CHL1  H21A 6709   1.156   3.274   3.577
   75CHL1  H21B 6710   1.182   3.297   3.399
   75CHL1  H21C 6711   1.065   3.172   3.445
   75CHL1   C22 6712   0.921   3.380   3.608
   75CHL1  H22A 6713   0.881   3.483   3.623
   75CHL1  H22B 6714   0.850   3.298   3.586
   75CHL1   C23 6715   0.996   3.370   3.741
   75CHL1  H23A 6716   1.049   3.275   3.758
   75CHL1  H23B 6717   1.063   3.459   3.749
   75CHL1   C24 6718   0.901   3.383   3.865
   75CHL1  H24A 6719   0.952   3.394   3.962
   75CHL1  H24B 6720   0.855   3.484   3.859
   75CHL1   C25 6721   0.779   3.286   3.873
   75CHL1   H25 6722   0.710   3.305   3.788
   75CHL1   C26 6723   0.824   3.145   3.851
   75CHL1  H26A 6724   0.736   3.077   3.847
   75CHL1  H26B 6725   0.880   3.136   3.755
   75CHL1  H26C 6726   0.886   3.128   3.941
   75CHL1   C27 6727   0.687   3.293   3.994
   75CHL1  H27A 6728   0.638   3.393   4.002
   75CHL1  H27B 6729   0.612   3.212   3.986
   75CHL1  H27C 6730   0.748   3.271   4.084
   76CHL1    C3 6731   6.572   5.158   2.590
   76CHL1    H3 6732   6.673   5.121   2.621
   76CHL1    O3 6733   6.527   5.189   2.455
   76CHL1   H3' 6734   6.431   5.194   2.456
   76CHL1    C4 6735   6.478   5.047   2.644
   76CHL1   H4A 6736   6.374   5.075   2.614
   76CHL1   H4B 6737   6.490   4.955   2.582
   76CHL1    C5 6738   6.485   5.014   2.789
   76CHL1    C6 6739   6.516   4.890   2.832
   76CHL1    H6 6740   6.527   4.810   2.758
   76CHL1    C7 6741   6.517   4.849   2.974
   76CHL1   H7A 6742   6.466   4.751   2.987
   76CHL1   H7B 6743   6.623   4.834   3.006
   76CHL1    C8 6744   6.443   4.953   3.065
   76CHL1    H8 6745   6.334   4.950   3.043
   76CHL1   C14 6746   6.469   4.930   3.211
   76CHL1   H14 6747   6.580   4.928   3.217
   76CHL1   C15 6748   6.418   4.793   3.256
   76CHL1  H15A 6749   6.313   4.768   3.228
   76CHL1  H15B 6750   6.477   4.711   3.209
   76CHL1   C16 6751   6.423   4.795   3.408
   76CHL1  H16A 6752   6.332   4.762   3.462
   76CHL1  H16B 6753   6.501   4.728   3.452
   76CHL1   C17 6754   6.448   4.943   3.445
   76CHL1   H17 6755   6.558   4.950   3.458
   76CHL1   C13 6756   6.413   5.022   3.315
   76CHL1   C18 6757   6.260   5.019   3.308
   76CHL1  H18A 6758   6.224   5.114   3.352
   76CHL1  H18B 6759   6.234   5.031   3.200
   76CHL1  H18C 6760   6.215   4.929   3.354
   76CHL1   C12 6761   6.482   5.162   3.286
   76CHL1  H12A 6762   6.452   5.245   3.354
   76CHL1  H12B 6763   6.590   5.152   3.311
   76CHL1   C11 6764   6.454   5.203   3.140
   76CHL1  H11A 6765   6.349   5.239   3.141
   76CHL1  H11B 6766   6.517   5.288   3.109
   76CHL1    C9 6767   6.493   5.096   3.035
   76CHL1    H9 6768   6.603   5.086   3.039
   76CHL1   C10 6769   6.461   5.132   2.883
   76CHL1   C19 6770   6.318   5.176   2.882
   76CHL1  H19A 6771   6.260   5.108   2.948
   76CHL1  H19B 6772   6.320   5.274   2.934
   76CHL1  H19C 6773   6.276   5.184   2.780
   76CHL1    C1 6774   6.546   5.248   2.835
   76CHL1   H1A 6775   6.526   5.341   2.891
   76CHL1   H1B 6776   6.653   5.217   2.845
   76CHL1    C2 6777   6.537   5.281   2.682
   76CHL1   H2A 6778   6.603   5.366   2.652
   76CHL1   H2B 6779   6.433   5.309   2.652
   76CHL1   C20 6780   6.384   4.980   3.585
   76CHL1   H20 6781   6.283   4.932   3.584
   76CHL1   C21 6782   6.372   5.127   3.617
   76CHL1  H21A 6783   6.465   5.167   3.571
   76CHL1  H21B 6784   6.370   5.141   3.727
   76CHL1  H21C 6785   6.284   5.177   3.571
   76CHL1   C22 6786   6.459   4.915   3.706
   76CHL1  H22A 6787   6.395   4.914   3.797
   76CHL1  H22B 6788   6.482   4.807   3.691
   76CHL1   C23 6789   6.594   4.976   3.739
   76CHL1  H23A 6790   6.666   4.947   3.659
   76CHL1  H23B 6791   6.589   5.087   3.742
   76CHL1   C24 6792   6.670   4.922   3.867
   76CHL1  H24A 6793   6.698   4.816   3.854
   76CHL1  H24B 6794   6.757   4.988   3.883
   76CHL1   C25 6795   6.605   4.931   3.998
   76CHL1   H25 6796   6.532   4.850   4.019
   76CHL1   C26 6797   6.705   4.907   4.112
   76CHL1  H26A 6798   6.766   4.999   4.126
   76CHL1  H26B 6799   6.648   4.890   4.206
   76CHL1  H26C 6800   6.767   4.820   4.083
   76CHL1   C27 6801   6.547   5.073   4.016
   76CHL1  H27A 6802   6.509   5.098   4.117
   76CHL1  H27B 6803   6.628   5.146   3.990
   76CHL1  H27C 6804   6.466   5.072   3.940
   77SOPE     N 6805   2.969   2.930   6.614
   77SOPE   HN1 6806   2.986   2.995   6.693
   77SOPE   HN2 6807   2.945   2.838   6.658
   77SOPE   HN3 6808   3.064   2.913   6.576
   77SOPE   C12 6809   2.875   2.975   6.508
   77SOPE  H12A 6810   2.776   2.975   6.558
   77SOPE  H12B 6811   2.878   2.897   6.429
   77SOPE   C11 6812   2.916   3.114   6.462
   77SOPE  H11A 6813   2.841   3.156   6.392
   77SOPE  H11B 6814   3.016   3.090   6.421
   77SOPE     P 6815   3.023   3.341   6.540
   77SOPE   O13 6816   3.162   3.329   6.589
   77SOPE   O14 6817   2.938   3.453   6.586
   77SOPE   O12 6818   2.941   3.212   6.570
   77SOPE   O11 6819   3.037   3.352   6.385
   77SOPE    C1 6820   2.927   3.405   6.307
   77SOPE    HA 6821   2.899   3.505   6.345
   77SOPE    HB 6822   2.836   3.341   6.311
   77SOPE    C2 6823   2.971   3.426   6.156
   77SOPE    HS 6824   2.885   3.475   6.103
   77SOPE   O21 6825   2.991   3.302   6.088
   77SOPE   C21 6826   2.938   3.294   5.967
   77SOPE   O22 6827   2.869   3.373   5.910
   77SOPE   C22 6828   2.971   3.156   5.905
   77SOPE   H2R 6829   2.900   3.088   5.957
   77SOPE   H2S 6830   3.074   3.122   5.929
   77SOPE    C3 6831   3.095   3.514   6.144
   77SOPE    HX 6832   3.169   3.459   6.207
   77SOPE    HY 6833   3.079   3.607   6.202
   77SOPE   O31 6834   3.126   3.553   6.007
   77SOPE   C31 6835   3.246   3.615   5.992
   77SOPE   O32 6836   3.323   3.635   6.081
   77SOPE   C32 6837   3.258   3.669   5.846
   77SOPE   H2X 6838   3.200   3.762   5.827
   77SOPE   H2Y 6839   3.229   3.585   5.779
   77SOPE   C23 6840   2.945   3.151   5.753
   77SOPE   H3R 6841   3.013   3.229   5.711
   77SOPE   H3S 6842   2.846   3.188   5.720
   77SOPE   C24 6843   2.979   3.014   5.674
   77SOPE   H4R 6844   3.069   2.971   5.721
   77SOPE   H4S 6845   2.898   2.938   5.682
   77SOPE   C25 6846   3.007   3.045   5.527
   77SOPE   H5R 6847   3.091   3.115   5.510
   77SOPE   H5S 6848   3.050   2.958   5.473
   77SOPE   C26 6849   2.877   3.082   5.454
   77SOPE   H6R 6850   2.795   3.022   5.499
   77SOPE   H6S 6851   2.841   3.186   5.443
   77SOPE   C27 6852   2.874   3.038   5.310
   77SOPE   H7R 6853   2.967   2.986   5.279
   77SOPE   H7S 6854   2.805   2.953   5.295
   77SOPE   C28 6855   2.825   3.151   5.216
   77SOPE   H8R 6856   2.732   3.203   5.246
   77SOPE   H8S 6857   2.899   3.234   5.219
   77SOPE   C29 6858   2.820   3.112   5.073
   77SOPE   H91 6859   2.899   3.041   5.045
   77SOPE  C210 6860   2.733   3.162   4.975
   77SOPE  H101 6861   2.771   3.131   4.876
   77SOPE  C211 6862   2.633   3.267   4.998
   77SOPE  H11R 6863   2.674   3.370   4.997
   77SOPE  H11S 6864   2.580   3.262   5.096
   77SOPE  C212 6865   2.523   3.262   4.892
   77SOPE  H12R 6866   2.445   3.340   4.910
   77SOPE  H12S 6867   2.474   3.163   4.905
   77SOPE  C213 6868   2.572   3.271   4.741
   77SOPE  H13R 6869   2.639   3.186   4.718
   77SOPE  H13S 6870   2.637   3.360   4.726
   77SOPE  C214 6871   2.449   3.279   4.639
   77SOPE  H14R 6872   2.370   3.342   4.686
   77SOPE  H14S 6873   2.405   3.178   4.621
   77SOPE  C215 6874   2.497   3.332   4.503
   77SOPE  H15R 6875   2.562   3.422   4.511
   77SOPE  H15S 6876   2.405   3.360   4.447
   77SOPE  C216 6877   2.570   3.230   4.417
   77SOPE  H16R 6878   2.643   3.180   4.484
   77SOPE  H16S 6879   2.631   3.289   4.345
   77SOPE  C217 6880   2.482   3.127   4.348
   77SOPE  H17R 6881   2.414   3.185   4.283
   77SOPE  H17S 6882   2.424   3.081   4.431
   77SOPE  C218 6883   2.551   3.003   4.283
   77SOPE  H18R 6884   2.561   3.008   4.172
   77SOPE  H18S 6885   2.494   2.910   4.306
   77SOPE  H18T 6886   2.649   2.989   4.333
   77SOPE   C33 6887   3.405   3.715   5.822
   77SOPE   H3X 6888   3.463   3.624   5.796
   77SOPE   H3Y 6889   3.441   3.768   5.913
   77SOPE   C34 6890   3.410   3.820   5.704
   77SOPE   H4X 6891   3.494   3.892   5.715
   77SOPE   H4Y 6892   3.325   3.891   5.706
   77SOPE   C35 6893   3.418   3.747   5.571
   77SOPE   H5X 6894   3.327   3.685   5.556
   77SOPE   H5Y 6895   3.504   3.676   5.576
   77SOPE   C36 6896   3.434   3.841   5.447
   77SOPE   H6X 6897   3.526   3.900   5.468
   77SOPE   H6Y 6898   3.349   3.912   5.440
   77SOPE   C37 6899   3.451   3.765   5.315
   77SOPE   H7X 6900   3.363   3.703   5.285
   77SOPE   H7Y 6901   3.538   3.696   5.324
   77SOPE   C38 6902   3.483   3.851   5.188
   77SOPE   H8X 6903   3.584   3.894   5.201
   77SOPE   H8Y 6904   3.404   3.927   5.169
   77SOPE   C39 6905   3.466   3.774   5.058
   77SOPE   H9X 6906   3.370   3.719   5.070
   77SOPE   H9Y 6907   3.538   3.693   5.033
   77SOPE  C310 6908   3.460   3.856   4.935
   77SOPE  H10X 6909   3.554   3.916   4.931
   77SOPE  H10Y 6910   3.373   3.923   4.922
   77SOPE  C311 6911   3.453   3.769   4.803
   77SOPE  H11X 6912   3.363   3.705   4.804
   77SOPE  H11Y 6913   3.536   3.696   4.791
   77SOPE  C312 6914   3.453   3.849   4.674
   77SOPE  H12X 6915   3.551   3.894   4.651
   77SOPE  H12Y 6916   3.392   3.941   4.687
   77SOPE  C313 6917   3.404   3.767   4.553
   77SOPE  H13X 6918   3.294   3.753   4.556
   77SOPE  H13Y 6919   3.459   3.671   4.558
   77SOPE  C314 6920   3.452   3.819   4.418
   77SOPE  H14X 6921   3.563   3.829   4.425
   77SOPE  H14Y 6922   3.413   3.923   4.409
   77SOPE  C315 6923   3.413   3.737   4.297
   77SOPE  H15X 6924   3.304   3.751   4.277
   77SOPE  H15Y 6925   3.428   3.629   4.318
   77SOPE  C316 6926   3.490   3.777   4.163
   77SOPE  H16X 6927   3.461   3.704   4.085
   77SOPE  H16Y 6928   3.599   3.771   4.184
   77SOPE  C317 6929   3.455   3.916   4.115
   77SOPE  H17X 6930   3.483   3.989   4.194
   77SOPE  H17Y 6931   3.352   3.947   4.089
   77SOPE  C318 6932   3.538   3.949   3.987
   77SOPE  H18X 6933   3.497   3.886   3.905
   77SOPE  H18Y 6934   3.646   3.942   4.007
   77SOPE  H18Z 6935   3.520   4.056   3.962
   78SOPE     N 6936   2.708   3.515   6.700
   78SOPE   HN1 6937   2.718   3.598   6.762
   78SOPE   HN2 6938   2.805   3.490   6.672
   78SOPE   HN3 6939   2.647   3.545   6.621
   78SOPE   C12 6940   2.653   3.401   6.773
   78SOPE  H12A 6941   2.568   3.443   6.831
   78SOPE  H12B 6942   2.735   3.369   6.841
   78SOPE   C11 6943   2.625   3.278   6.675
   78SOPE  H11A 6944   2.717   3.268   6.613
   78SOPE  H11B 6945   2.545   3.310   6.606
   78SOPE     P 6946   2.450   3.094   6.750
   78SOPE   O13 6947   2.362   3.180   6.834
   78SOPE   O14 6948   2.454   2.950   6.785
   78SOPE   O12 6949   2.591   3.161   6.754
   78SOPE   O11 6950   2.417   3.101   6.600
   78SOPE    C1 6951   2.472   3.023   6.496
   78SOPE    HA 6952   2.448   2.919   6.526
   78SOPE    HB 6953   2.583   3.029   6.497
   78SOPE    C2 6954   2.417   3.051   6.352
   78SOPE    HS 6955   2.473   2.983   6.284
   78SOPE   O21 6956   2.413   3.190   6.323
   78SOPE   C21 6957   2.534   3.217   6.286
   78SOPE   O22 6958   2.630   3.138   6.281
   78SOPE   C22 6959   2.549   3.367   6.273
   78SOPE   H2R 6960   2.656   3.399   6.266
   78SOPE   H2S 6961   2.502   3.404   6.366
   78SOPE    C3 6962   2.272   3.002   6.328
   78SOPE    HX 6963   2.212   3.083   6.376
   78SOPE    HY 6964   2.253   2.916   6.396
   78SOPE   O31 6965   2.234   2.965   6.192
   78SOPE   C31 6966   2.106   2.971   6.171
   78SOPE   O32 6967   2.024   2.996   6.258
   78SOPE   C32 6968   2.078   2.954   6.021
   78SOPE   H2X 6969   2.018   2.862   6.008
   78SOPE   H2Y 6970   2.176   2.952   5.968
   78SOPE   C23 6971   2.480   3.426   6.145
   78SOPE   H3R 6972   2.484   3.537   6.146
   78SOPE   H3S 6973   2.370   3.411   6.143
   78SOPE   C24 6974   2.553   3.385   6.015
   78SOPE   H4R 6975   2.660   3.397   6.042
   78SOPE   H4S 6976   2.524   3.281   5.988
   78SOPE   C25 6977   2.508   3.465   5.891
   78SOPE   H5R 6978   2.398   3.467   5.876
   78SOPE   H5S 6979   2.551   3.567   5.899
   78SOPE   C26 6980   2.561   3.402   5.760
   78SOPE   H6R 6981   2.670   3.389   5.746
   78SOPE   H6S 6982   2.515   3.301   5.764
   78SOPE   C27 6983   2.490   3.467   5.645
   78SOPE   H7R 6984   2.381   3.453   5.653
   78SOPE   H7S 6985   2.499   3.578   5.655
   78SOPE   C28 6986   2.531   3.419   5.505
   78SOPE   H8R 6987   2.619   3.483   5.483
   78SOPE   H8S 6988   2.556   3.311   5.508
   78SOPE   C29 6989   2.428   3.442   5.400
   78SOPE   H91 6990   2.345   3.369   5.395
   78SOPE  C210 6991   2.421   3.533   5.302
   78SOPE  H101 6992   2.343   3.535   5.225
   78SOPE  C211 6993   2.533   3.632   5.284
   78SOPE  H11R 6994   2.633   3.589   5.260
   78SOPE  H11S 6995   2.534   3.695   5.375
   78SOPE  C212 6996   2.516   3.737   5.171
   78SOPE  H12R 6997   2.600   3.809   5.179
   78SOPE  H12S 6998   2.421   3.785   5.204
   78SOPE  C213 6999   2.493   3.681   5.030
   78SOPE  H13R 7000   2.419   3.598   5.021
   78SOPE  H13S 7001   2.592   3.633   5.013
   78SOPE  C214 7002   2.468   3.788   4.917
   78SOPE  H14R 7003   2.545   3.868   4.924
   78SOPE  H14S 7004   2.370   3.837   4.933
   78SOPE  C215 7005   2.467   3.727   4.768
   78SOPE  H15R 7006   2.574   3.699   4.759
   78SOPE  H15S 7007   2.437   3.803   4.693
   78SOPE  C216 7008   2.372   3.606   4.757
   78SOPE  H16R 7009   2.396   3.529   4.833
   78SOPE  H16S 7010   2.379   3.559   4.657
   78SOPE  C217 7011   2.221   3.645   4.787
   78SOPE  H17R 7012   2.226   3.679   4.893
   78SOPE  H17S 7013   2.161   3.552   4.782
   78SOPE  C218 7014   2.155   3.750   4.699
   78SOPE  H18R 7015   2.141   3.720   4.593
   78SOPE  H18S 7016   2.226   3.836   4.691
   78SOPE  H18T 7017   2.061   3.791   4.741
   78SOPE   C33 7018   1.993   3.076   5.965
   78SOPE   H3X 7019   1.888   3.049   5.991
   78SOPE   H3Y 7020   2.009   3.058   5.857
   78SOPE   C34 7021   2.029   3.217   5.997
   78SOPE   H4X 7022   2.011   3.248   6.102
   78SOPE   H4Y 7023   1.967   3.292   5.944
   78SOPE   C35 7024   2.178   3.247   5.964
   78SOPE   H5X 7025   2.247   3.202   6.038
   78SOPE   H5Y 7026   2.193   3.357   5.973
   78SOPE   C36 7027   2.223   3.208   5.822
   78SOPE   H6X 7028   2.216   3.097   5.817
   78SOPE   H6Y 7029   2.331   3.227   5.808
   78SOPE   C37 7030   2.146   3.269   5.708
   78SOPE   H7X 7031   2.165   3.379   5.709
   78SOPE   H7Y 7032   2.041   3.261   5.740
   78SOPE   C38 7033   2.167   3.192   5.576
   78SOPE   H8X 7034   2.138   3.087   5.600
   78SOPE   H8Y 7035   2.268   3.188   5.530
   78SOPE   C39 7036   2.069   3.237   5.471
   78SOPE   H9X 7037   2.070   3.349   5.469
   78SOPE   H9Y 7038   1.964   3.219   5.501
   78SOPE  C310 7039   2.098   3.186   5.325
   78SOPE  H10X 7040   2.078   3.077   5.322
   78SOPE  H10Y 7041   2.204   3.209   5.298
   78SOPE  C311 7042   2.020   3.263   5.227
   78SOPE  H11X 7043   2.028   3.371   5.252
   78SOPE  H11Y 7044   1.917   3.233   5.255
   78SOPE  C312 7045   2.065   3.235   5.082
   78SOPE  H12X 7046   2.088   3.127   5.083
   78SOPE  H12Y 7047   2.157   3.289   5.051
   78SOPE  C313 7048   1.953   3.255   4.976
   78SOPE  H13X 7049   1.955   3.365   4.960
   78SOPE  H13Y 7050   1.854   3.219   5.012
   78SOPE  C314 7051   1.980   3.182   4.842
   78SOPE  H14X 7052   2.000   3.077   4.870
   78SOPE  H14Y 7053   2.074   3.224   4.800
   78SOPE  C315 7054   1.856   3.180   4.745
   78SOPE  H15X 7055   1.894   3.135   4.650
   78SOPE  H15Y 7056   1.840   3.287   4.725
   78SOPE  C316 7057   1.727   3.118   4.789
   78SOPE  H16X 7058   1.689   3.181   4.872
   78SOPE  H16Y 7059   1.755   3.015   4.819
   78SOPE  C317 7060   1.610   3.128   4.692
   78SOPE  H17X 7061   1.613   3.086   4.589
   78SOPE  H17Y 7062   1.587   3.236   4.679
   78SOPE  C318 7063   1.484   3.064   4.753
   78SOPE  H18X 7064   1.460   3.106   4.853
   78SOPE  H18Y 7065   1.474   2.954   4.762
   78SOPE  H18Z 7066   1.394   3.088   4.692
   79SOPE     N 7067   4.806   0.510   6.714
   79SOPE   HN1 7068   4.718   0.540   6.759
   79SOPE   HN2 7069   4.803   0.408   6.693
   79SOPE   HN3 7070   4.875   0.527   6.791
   79SOPE   C12 7071   4.854   0.593   6.598
   79SOPE  H12A 7072   4.944   0.535   6.568
   79SOPE  H12B 7073   4.878   0.695   6.636
   79SOPE   C11 7074   4.755   0.598   6.481
   79SOPE  H11A 7075   4.743   0.495   6.441
   79SOPE  H11B 7076   4.799   0.658   6.398
   79SOPE     P 7077   4.588   0.795   6.553
   79SOPE   O13 7078   4.603   0.825   6.702
   79SOPE   O14 7079   4.449   0.825   6.513
   79SOPE   O12 7080   4.622   0.645   6.522
   79SOPE   O11 7081   4.687   0.882   6.467
   79SOPE    C1 7082   4.665   1.018   6.453
   79SOPE    HA 7083   4.767   1.060   6.459
   79SOPE    HB 7084   4.594   1.065   6.525
   79SOPE    C2 7085   4.618   1.059   6.308
   79SOPE    HS 7086   4.515   1.023   6.287
   79SOPE   O21 7087   4.704   1.014   6.206
   79SOPE   C21 7088   4.678   0.888   6.164
   79SOPE   O22 7089   4.572   0.831   6.178
   79SOPE   C22 7090   4.804   0.828   6.097
   79SOPE   H2R 7091   4.878   0.808   6.178
   79SOPE   H2S 7092   4.850   0.904   6.030
   79SOPE    C3 7093   4.609   1.210   6.292
   79SOPE    HX 7094   4.710   1.248   6.317
   79SOPE    HY 7095   4.545   1.256   6.370
   79SOPE   O31 7096   4.577   1.248   6.154
   79SOPE   C31 7097   4.450   1.232   6.121
   79SOPE   O32 7098   4.361   1.203   6.197
   79SOPE   C32 7099   4.440   1.262   5.964
   79SOPE   H2X 7100   4.490   1.360   5.964
   79SOPE   H2Y 7101   4.336   1.286   5.932
   79SOPE   C23 7102   4.767   0.694   6.033
   79SOPE   H3R 7103   4.691   0.699   5.952
   79SOPE   H3S 7104   4.723   0.631   6.113
   79SOPE   C24 7105   4.886   0.629   5.974
   79SOPE   H4R 7106   4.965   0.617   6.051
   79SOPE   H4S 7107   4.850   0.525   5.955
   79SOPE   C25 7108   4.941   0.682   5.834
   79SOPE   H5R 7109   4.947   0.791   5.857
   79SOPE   H5S 7110   5.033   0.623   5.814
   79SOPE   C26 7111   4.847   0.686   5.716
   79SOPE   H6R 7112   4.831   0.582   5.679
   79SOPE   H6S 7113   4.753   0.737   5.745
   79SOPE   C27 7114   4.905   0.760   5.591
   79SOPE   H7R 7115   4.912   0.868   5.617
   79SOPE   H7S 7116   5.005   0.715   5.571
   79SOPE   C28 7117   4.833   0.748   5.456
   79SOPE   H8R 7118   4.730   0.788   5.470
   79SOPE   H8S 7119   4.896   0.824   5.406
   79SOPE   C29 7120   4.835   0.611   5.400
   79SOPE   H91 7121   4.749   0.551   5.431
   79SOPE  C210 7122   4.907   0.570   5.298
   79SOPE  H101 7123   4.910   0.464   5.270
   79SOPE  C211 7124   5.003   0.651   5.214
   79SOPE  H11R 7125   5.099   0.600   5.192
   79SOPE  H11S 7126   5.038   0.737   5.275
   79SOPE  C212 7127   4.942   0.710   5.085
   79SOPE  H12R 7128   4.834   0.728   5.101
   79SOPE  H12S 7129   4.944   0.635   5.002
   79SOPE  C213 7130   5.001   0.845   5.054
   79SOPE  H13R 7131   5.108   0.833   5.027
   79SOPE  H13S 7132   4.991   0.920   5.136
   79SOPE  C214 7133   4.946   0.899   4.917
   79SOPE  H14R 7134   4.835   0.908   4.924
   79SOPE  H14S 7135   4.962   0.830   4.832
   79SOPE  C215 7136   5.003   1.039   4.888
   79SOPE  H15R 7137   5.110   1.030   4.860
   79SOPE  H15S 7138   5.005   1.088   4.987
   79SOPE  C216 7139   4.909   1.107   4.790
   79SOPE  H16R 7140   4.937   1.215   4.796
   79SOPE  H16S 7141   4.804   1.106   4.827
   79SOPE  C217 7142   4.927   1.069   4.642
   79SOPE  H17R 7143   4.887   0.968   4.620
   79SOPE  H17S 7144   5.036   1.057   4.620
   79SOPE  C218 7145   4.888   1.183   4.548
   79SOPE  H18R 7146   4.917   1.165   4.442
   79SOPE  H18S 7147   4.923   1.284   4.578
   79SOPE  H18T 7148   4.778   1.196   4.558
   79SOPE   C33 7149   4.511   1.165   5.869
   79SOPE   H3X 7150   4.601   1.124   5.919
   79SOPE   H3Y 7151   4.544   1.212   5.773
   79SOPE   C34 7152   4.435   1.033   5.839
   79SOPE   H4X 7153   4.352   1.057   5.769
   79SOPE   H4Y 7154   4.401   0.985   5.933
   79SOPE   C35 7155   4.527   0.929   5.772
   79SOPE   H5X 7156   4.624   0.928   5.828
   79SOPE   H5Y 7157   4.544   0.950   5.664
   79SOPE   C36 7158   4.469   0.786   5.780
   79SOPE   H6X 7159   4.445   0.759   5.885
   79SOPE   H6Y 7160   4.547   0.711   5.753
   79SOPE   C37 7161   4.362   0.760   5.679
   79SOPE   H7X 7162   4.300   0.849   5.656
   79SOPE   H7Y 7163   4.293   0.683   5.719
   79SOPE   C38 7164   4.419   0.712   5.545
   79SOPE   H8X 7165   4.484   0.624   5.561
   79SOPE   H8Y 7166   4.479   0.796   5.503
   79SOPE   C39 7167   4.303   0.660   5.457
   79SOPE   H9X 7168   4.233   0.746   5.449
   79SOPE   H9Y 7169   4.252   0.579   5.513
   79SOPE  C310 7170   4.344   0.621   5.310
   79SOPE  H10X 7171   4.385   0.717   5.271
   79SOPE  H10Y 7172   4.255   0.598   5.247
   79SOPE  C311 7173   4.440   0.501   5.301
   79SOPE  H11X 7174   4.410   0.403   5.343
   79SOPE  H11Y 7175   4.527   0.524   5.365
   79SOPE  C312 7176   4.487   0.482   5.149
   79SOPE  H12X 7177   4.524   0.580   5.112
   79SOPE  H12Y 7178   4.396   0.453   5.093
   79SOPE  C313 7179   4.601   0.386   5.132
   79SOPE  H13X 7180   4.569   0.285   5.165
   79SOPE  H13Y 7181   4.687   0.418   5.195
   79SOPE  C314 7182   4.648   0.391   4.983
   79SOPE  H14X 7183   4.627   0.484   4.927
   79SOPE  H14Y 7184   4.597   0.304   4.935
   79SOPE  C315 7185   4.781   0.326   4.960
   79SOPE  H15X 7186   4.852   0.404   4.993
   79SOPE  H15Y 7187   4.792   0.317   4.850
   79SOPE  C316 7188   4.787   0.192   5.028
   79SOPE  H16X 7189   4.814   0.106   4.963
   79SOPE  H16Y 7190   4.688   0.170   5.073
   79SOPE  C317 7191   4.884   0.189   5.147
   79SOPE  H17X 7192   4.902   0.086   5.186
   79SOPE  H17Y 7193   4.827   0.238   5.229
   79SOPE  C318 7194   5.018   0.254   5.137
   79SOPE  H18X 7195   5.082   0.243   5.228
   79SOPE  H18Y 7196   5.006   0.362   5.115
   79SOPE  H18Z 7197   5.078   0.206   5.056
   80SOPE     N 7198   2.269   3.336   7.027
   80SOPE   HN1 7199   2.222   3.429   7.020
   80SOPE   HN2 7200   2.346   3.346   7.097
   80SOPE   HN3 7201   2.304   3.290   6.941
   80SOPE   C12 7202   2.176   3.228   7.063
   80SOPE  H12A 7203   2.130   3.254   7.161
   80SOPE  H12B 7204   2.224   3.129   7.083
   80SOPE   C11 7205   2.068   3.211   6.946
   80SOPE  H11A 7206   1.987   3.141   6.976
   80SOPE  H11B 7207   2.128   3.164   6.866
   80SOPE     P 7208   1.894   3.328   6.792
   80SOPE   O13 7209   1.871   3.460   6.719
   80SOPE   O14 7210   1.781   3.255   6.855
   80SOPE   O12 7211   2.013   3.340   6.898
   80SOPE   O11 7212   1.952   3.234   6.686
   80SOPE    C1 7213   2.073   3.270   6.616
   80SOPE    HA 7214   2.116   3.178   6.572
   80SOPE    HB 7215   2.155   3.318   6.674
   80SOPE    C2 7216   2.052   3.360   6.484
   80SOPE    HS 7217   2.008   3.454   6.523
   80SOPE   O21 7218   1.965   3.281   6.399
   80SOPE   C21 7219   1.870   3.350   6.338
   80SOPE   O22 7220   1.868   3.473   6.330
   80SOPE   C22 7221   1.768   3.255   6.276
   80SOPE   H2R 7222   1.744   3.164   6.335
   80SOPE   H2S 7223   1.822   3.207   6.192
   80SOPE    C3 7224   2.193   3.398   6.423
   80SOPE    HX 7225   2.242   3.302   6.397
   80SOPE    HY 7226   2.270   3.430   6.497
   80SOPE   O31 7227   2.187   3.475   6.303
   80SOPE   C31 7228   2.164   3.612   6.311
   80SOPE   O32 7229   2.145   3.674   6.414
   80SOPE   C32 7230   2.162   3.673   6.172
   80SOPE   H2X 7231   2.258   3.655   6.119
   80SOPE   H2Y 7232   2.134   3.780   6.180
   80SOPE   C23 7233   1.635   3.324   6.238
   80SOPE   H3R 7234   1.625   3.421   6.290
   80SOPE   H3S 7235   1.553   3.262   6.279
   80SOPE   C24 7236   1.609   3.331   6.088
   80SOPE   H4R 7237   1.625   3.233   6.039
   80SOPE   H4S 7238   1.501   3.358   6.079
   80SOPE   C25 7239   1.692   3.430   6.011
   80SOPE   H5R 7240   1.673   3.527   6.062
   80SOPE   H5S 7241   1.799   3.401   6.014
   80SOPE   C26 7242   1.648   3.439   5.865
   80SOPE   H6R 7243   1.538   3.424   5.870
   80SOPE   H6S 7244   1.669   3.541   5.825
   80SOPE   C27 7245   1.698   3.330   5.771
   80SOPE   H7R 7246   1.808   3.316   5.776
   80SOPE   H7S 7247   1.664   3.227   5.796
   80SOPE   C28 7248   1.669   3.347   5.620
   80SOPE   H8R 7249   1.712   3.446   5.594
   80SOPE   H8S 7250   1.713   3.261   5.565
   80SOPE   C29 7251   1.515   3.344   5.601
   80SOPE   H91 7252   1.463   3.283   5.676
   80SOPE  C210 7253   1.452   3.427   5.516
   80SOPE  H101 7254   1.344   3.418   5.498
   80SOPE  C211 7255   1.518   3.529   5.418
   80SOPE  H11R 7256   1.626   3.515   5.399
   80SOPE  H11S 7257   1.510   3.630   5.465
   80SOPE  C212 7258   1.450   3.537   5.277
   80SOPE  H12R 7259   1.346   3.570   5.302
   80SOPE  H12S 7260   1.433   3.435   5.237
   80SOPE  C213 7261   1.516   3.636   5.176
   80SOPE  H13R 7262   1.563   3.725   5.222
   80SOPE  H13S 7263   1.427   3.674   5.120
   80SOPE  C214 7264   1.612   3.570   5.076
   80SOPE  H14R 7265   1.558   3.489   5.021
   80SOPE  H14S 7266   1.688   3.523   5.141
   80SOPE  C215 7267   1.669   3.658   4.964
   80SOPE  H15R 7268   1.743   3.735   4.995
   80SOPE  H15S 7269   1.579   3.715   4.932
   80SOPE  C216 7270   1.735   3.578   4.855
   80SOPE  H16R 7271   1.662   3.499   4.829
   80SOPE  H16S 7272   1.829   3.524   4.881
   80SOPE  C217 7273   1.763   3.658   4.727
   80SOPE  H17R 7274   1.831   3.746   4.738
   80SOPE  H17S 7275   1.670   3.709   4.694
   80SOPE  C218 7276   1.817   3.572   4.612
   80SOPE  H18R 7277   1.752   3.484   4.592
   80SOPE  H18S 7278   1.921   3.537   4.630
   80SOPE  H18T 7279   1.814   3.628   4.516
   80SOPE   C33 7280   2.060   3.609   6.072
   80SOPE   H3X 7281   1.955   3.615   6.106
   80SOPE   H3Y 7282   2.078   3.500   6.064
   80SOPE   C34 7283   2.089   3.670   5.935
   80SOPE   H4X 7284   2.191   3.642   5.898
   80SOPE   H4Y 7285   2.109   3.779   5.939
   80SOPE   C35 7286   1.979   3.633   5.822
   80SOPE   H5X 7287   1.876   3.647   5.863
   80SOPE   H5Y 7288   1.986   3.525   5.798
   80SOPE   C36 7289   1.992   3.703   5.686
   80SOPE   H6X 7290   2.098   3.699   5.652
   80SOPE   H6Y 7291   1.954   3.806   5.701
   80SOPE   C37 7292   1.912   3.631   5.572
   80SOPE   H7X 7293   1.807   3.623   5.608
   80SOPE   H7Y 7294   1.937   3.525   5.550
   80SOPE   C38 7295   1.925   3.700   5.439
   80SOPE   H8X 7296   1.891   3.805   5.447
   80SOPE   H8Y 7297   1.850   3.646   5.377
   80SOPE   C39 7298   2.057   3.691   5.383
   80SOPE   H9X 7299   2.098   3.589   5.403
   80SOPE   H9Y 7300   2.130   3.756   5.436
   80SOPE  C310 7301   2.067   3.716   5.233
   80SOPE  H10X 7302   2.033   3.626   5.178
   80SOPE  H10Y 7303   2.170   3.732   5.195
   80SOPE  C311 7304   1.998   3.842   5.187
   80SOPE  H11X 7305   2.028   3.929   5.248
   80SOPE  H11Y 7306   1.889   3.822   5.194
   80SOPE  C312 7307   2.018   3.888   5.043
   80SOPE  H12X 7308   1.964   3.821   4.973
   80SOPE  H12Y 7309   2.125   3.879   5.012
   80SOPE  C313 7310   1.964   4.030   5.024
   80SOPE  H13X 7311   2.032   4.094   5.084
   80SOPE  H13Y 7312   1.860   4.035   5.061
   80SOPE  C314 7313   1.984   4.070   4.875
   80SOPE  H14X 7314   1.915   4.156   4.858
   80SOPE  H14Y 7315   1.949   3.990   4.806
   80SOPE  C315 7316   2.128   4.104   4.836
   80SOPE  H15X 7317   2.194   4.019   4.866
   80SOPE  H15Y 7318   2.164   4.188   4.899
   80SOPE  C316 7319   2.160   4.143   4.689
   80SOPE  H16X 7320   2.085   4.219   4.660
   80SOPE  H16Y 7321   2.149   4.051   4.627
   80SOPE  C317 7322   2.298   4.194   4.658
   80SOPE  H17X 7323   2.330   4.280   4.721
   80SOPE  H17Y 7324   2.296   4.243   4.558
   80SOPE  C318 7325   2.416   4.092   4.659
   80SOPE  H18X 7326   2.512   4.144   4.636
   80SOPE  H18Y 7327   2.400   4.003   4.594
   80SOPE  H18Z 7328   2.422   4.035   4.754
   81SOPE     N 7329   5.148   0.697   7.256
   81SOPE   HN1 7330   5.211   0.781   7.260
   81SOPE   HN2 7331   5.108   0.684   7.351
   81SOPE   HN3 7332   5.206   0.615   7.230
   81SOPE   C12 7333   5.041   0.721   7.155
   81SOPE  H12A 7334   4.968   0.793   7.198
   81SOPE  H12B 7335   4.993   0.622   7.137
   81SOPE   C11 7336   5.107   0.779   7.024
   81SOPE  H11A 7337   5.161   0.868   7.064
   81SOPE  H11B 7338   5.028   0.822   6.959
   81SOPE     P 7339   5.146   0.590   6.849
   81SOPE   O13 7340   5.005   0.573   6.874
   81SOPE   O14 7341   5.234   0.469   6.848
   81SOPE   O12 7342   5.193   0.696   6.954
   81SOPE   O11 7343   5.165   0.663   6.710
   81SOPE    C1 7344   5.258   0.769   6.691
   81SOPE    HA 7345   5.360   0.728   6.709
   81SOPE    HB 7346   5.230   0.851   6.760
   81SOPE    C2 7347   5.262   0.814   6.545
   81SOPE    HS 7348   5.358   0.872   6.542
   81SOPE   O21 7349   5.154   0.900   6.517
   81SOPE   C21 7350   5.168   1.027   6.542
   81SOPE   O22 7351   5.266   1.078   6.597
   81SOPE   C22 7352   5.055   1.098   6.464
   81SOPE   H2R 7353   5.016   1.178   6.531
   81SOPE   H2S 7354   4.984   1.018   6.434
   81SOPE    C3 7355   5.255   0.695   6.446
   81SOPE    HX 7356   5.146   0.673   6.433
   81SOPE    HY 7357   5.318   0.614   6.490
   81SOPE   O31 7358   5.305   0.732   6.315
   81SOPE   C31 7359   5.293   0.647   6.215
   81SOPE   O32 7360   5.230   0.539   6.222
   81SOPE   C32 7361   5.351   0.707   6.089
   81SOPE   H2X 7362   5.457   0.722   6.120
   81SOPE   H2Y 7363   5.302   0.806   6.074
   81SOPE   C23 7364   5.113   1.176   6.347
   81SOPE   H3R 7365   5.181   1.110   6.289
   81SOPE   H3S 7366   5.169   1.264   6.385
   81SOPE   C24 7367   5.014   1.210   6.230
   81SOPE   H4R 7368   4.943   1.128   6.206
   81SOPE   H4S 7369   4.936   1.281   6.265
   81SOPE   C25 7370   5.081   1.279   6.108
   81SOPE   H5R 7371   5.095   1.383   6.145
   81SOPE   H5S 7372   5.180   1.229   6.097
   81SOPE   C26 7373   4.998   1.282   5.976
   81SOPE   H6R 7374   4.900   1.323   6.006
   81SOPE   H6S 7375   5.051   1.347   5.903
   81SOPE   C27 7376   4.980   1.151   5.912
   81SOPE   H7R 7377   5.080   1.105   5.901
   81SOPE   H7S 7378   4.929   1.095   5.994
   81SOPE   C28 7379   4.892   1.144   5.787
   81SOPE   H8R 7380   4.858   1.039   5.776
   81SOPE   H8S 7381   4.794   1.195   5.800
   81SOPE   C29 7382   4.970   1.202   5.670
   81SOPE   H91 7383   5.068   1.245   5.695
   81SOPE  C210 7384   4.911   1.213   5.547
   81SOPE  H101 7385   4.976   1.262   5.472
   81SOPE  C211 7386   4.781   1.165   5.503
   81SOPE  H11R 7387   4.702   1.235   5.536
   81SOPE  H11S 7388   4.768   1.067   5.553
   81SOPE  C212 7389   4.791   1.134   5.352
   81SOPE  H12R 7390   4.860   1.053   5.319
   81SOPE  H12S 7391   4.824   1.221   5.291
   81SOPE  C213 7392   4.649   1.091   5.302
   81SOPE  H13R 7393   4.574   1.170   5.324
   81SOPE  H13S 7394   4.614   1.009   5.368
   81SOPE  C214 7395   4.649   1.068   5.154
   81SOPE  H14R 7396   4.704   0.974   5.134
   81SOPE  H14S 7397   4.697   1.142   5.086
   81SOPE  C215 7398   4.510   1.040   5.092
   81SOPE  H15R 7399   4.432   1.114   5.120
   81SOPE  H15S 7400   4.484   0.937   5.124
   81SOPE  C216 7401   4.514   1.039   4.933
   81SOPE  H16R 7402   4.411   1.007   4.909
   81SOPE  H16S 7403   4.600   0.976   4.903
   81SOPE  C217 7404   4.546   1.182   4.868
   81SOPE  H17R 7405   4.638   1.220   4.918
   81SOPE  H17S 7406   4.469   1.259   4.894
   81SOPE  C218 7407   4.574   1.153   4.727
   81SOPE  H18R 7408   4.639   1.062   4.724
   81SOPE  H18S 7409   4.618   1.243   4.680
   81SOPE  H18T 7410   4.474   1.129   4.685
   81SOPE   C33 7411   5.332   0.634   5.952
   81SOPE   H3X 7412   5.225   0.615   5.933
   81SOPE   H3Y 7413   5.393   0.543   5.936
   81SOPE   C34 7414   5.378   0.720   5.831
   81SOPE   H4X 7415   5.378   0.660   5.737
   81SOPE   H4Y 7416   5.484   0.753   5.837
   81SOPE   C35 7417   5.286   0.847   5.801
   81SOPE   H5X 7418   5.280   0.904   5.895
   81SOPE   H5Y 7419   5.183   0.809   5.784
   81SOPE   C36 7420   5.342   0.915   5.675
   81SOPE   H6X 7421   5.374   0.836   5.604
   81SOPE   H6Y 7422   5.431   0.960   5.725
   81SOPE   C37 7423   5.252   1.017   5.606
   81SOPE   H7X 7424   5.233   1.093   5.685
   81SOPE   H7Y 7425   5.157   0.966   5.579
   81SOPE   C38 7426   5.316   1.087   5.493
   81SOPE   H8X 7427   5.413   1.129   5.525
   81SOPE   H8Y 7428   5.248   1.166   5.455
   81SOPE   C39 7429   5.350   0.993   5.377
   81SOPE   H9X 7430   5.268   0.921   5.355
   81SOPE   H9Y 7431   5.430   0.920   5.402
   81SOPE  C310 7432   5.370   1.071   5.245
   81SOPE  H10X 7433   5.476   1.105   5.256
   81SOPE  H10Y 7434   5.306   1.160   5.231
   81SOPE  C311 7435   5.372   0.975   5.123
   81SOPE  H11X 7436   5.283   0.909   5.130
   81SOPE  H11Y 7437   5.456   0.902   5.130
   81SOPE  C312 7438   5.376   1.054   4.991
   81SOPE  H12X 7439   5.454   1.132   4.983
   81SOPE  H12Y 7440   5.276   1.102   4.988
   81SOPE  C313 7441   5.389   0.972   4.859
   81SOPE  H13X 7442   5.311   0.894   4.856
   81SOPE  H13Y 7443   5.490   0.929   4.878
   81SOPE  C314 7444   5.382   1.044   4.724
   81SOPE  H14X 7445   5.480   1.081   4.688
   81SOPE  H14Y 7446   5.307   1.124   4.737
   81SOPE  C315 7447   5.318   0.955   4.604
   81SOPE  H15X 7448   5.207   0.957   4.614
   81SOPE  H15Y 7449   5.340   0.847   4.617
   81SOPE  C316 7450   5.355   1.011   4.469
   81SOPE  H16X 7451   5.466   1.011   4.463
   81SOPE  H16Y 7452   5.327   1.118   4.467
   81SOPE  C317 7453   5.305   0.940   4.338
   81SOPE  H17X 7454   5.294   1.012   4.254
   81SOPE  H17Y 7455   5.209   0.892   4.370
   81SOPE  C318 7456   5.388   0.821   4.290
   81SOPE  H18X 7457   5.387   0.750   4.376
   81SOPE  H18Y 7458   5.495   0.844   4.271
   81SOPE  H18Z 7459   5.345   0.766   4.203
   82SOPE     N 7460   1.760   0.470   6.775
   82SOPE   HN1 7461   1.687   0.542   6.757
   82SOPE   HN2 7462   1.707   0.386   6.806
   82SOPE   HN3 7463   1.833   0.498   6.843
   82SOPE   C12 7464   1.826   0.456   6.643
   82SOPE  H12A 7465   1.762   0.392   6.579
   82SOPE  H12B 7466   1.916   0.392   6.662
   82SOPE   C11 7467   1.881   0.586   6.587
   82SOPE  H11A 7468   1.802   0.661   6.567
   82SOPE  H11B 7469   1.920   0.551   6.489
   82SOPE     P 7470   2.143   0.623   6.646
   82SOPE   O13 7471   2.221   0.622   6.777
   82SOPE   O14 7472   2.192   0.724   6.551
   82SOPE   O12 7473   1.985   0.634   6.680
   82SOPE   O11 7474   2.151   0.482   6.584
   82SOPE    C1 7475   2.265   0.446   6.502
   82SOPE    HA 7476   2.324   0.370   6.557
   82SOPE    HB 7477   2.337   0.530   6.494
   82SOPE    C2 7478   2.229   0.384   6.364
   82SOPE    HS 7479   2.317   0.356   6.303
   82SOPE   O21 7480   2.144   0.481   6.301
   82SOPE   C21 7481   2.218   0.564   6.235
   82SOPE   O22 7482   2.335   0.568   6.234
   82SOPE   C22 7483   2.142   0.676   6.168
   82SOPE   H2R 7484   2.182   0.773   6.205
   82SOPE   H2S 7485   2.034   0.666   6.188
   82SOPE    C3 7486   2.153   0.249   6.392
   82SOPE    HX 7487   2.074   0.272   6.467
   82SOPE    HY 7488   2.218   0.170   6.436
   82SOPE   O31 7489   2.106   0.193   6.265
   82SOPE   C31 7490   1.979   0.223   6.246
   82SOPE   O32 7491   1.898   0.269   6.325
   82SOPE   C32 7492   1.968   0.197   6.091
   82SOPE   H2X 7493   1.964   0.087   6.077
   82SOPE   H2Y 7494   2.049   0.242   6.029
   82SOPE   C23 7495   2.183   0.667   6.022
   82SOPE   H3R 7496   2.288   0.644   5.997
   82SOPE   H3S 7497   2.170   0.762   5.964
   82SOPE   C24 7498   2.097   0.551   5.966
   82SOPE   H4R 7499   2.133   0.460   6.019
   82SOPE   H4S 7500   1.992   0.577   5.991
   82SOPE   C25 7501   2.112   0.534   5.812
   82SOPE   H5R 7502   2.214   0.563   5.779
   82SOPE   H5S 7503   2.100   0.425   5.800
   82SOPE   C26 7504   2.005   0.621   5.732
   82SOPE   H6R 7505   1.910   0.625   5.791
   82SOPE   H6S 7506   2.037   0.727   5.726
   82SOPE   C27 7507   1.985   0.550   5.597
   82SOPE   H7R 7508   2.081   0.549   5.541
   82SOPE   H7S 7509   1.974   0.441   5.615
   82SOPE   C28 7510   1.854   0.598   5.523
   82SOPE   H8R 7511   1.818   0.527   5.445
   82SOPE   H8S 7512   1.771   0.610   5.596
   82SOPE   C29 7513   1.890   0.732   5.456
   82SOPE   H91 7514   1.943   0.813   5.509
   82SOPE  C210 7515   1.881   0.757   5.322
   82SOPE  H101 7516   1.910   0.851   5.274
   82SOPE  C211 7517   1.854   0.648   5.223
   82SOPE  H11R 7518   1.902   0.551   5.246
   82SOPE  H11S 7519   1.901   0.662   5.123
   82SOPE  C212 7520   1.704   0.620   5.206
   82SOPE  H12R 7521   1.645   0.708   5.174
   82SOPE  H12S 7522   1.661   0.583   5.302
   82SOPE  C213 7523   1.684   0.502   5.106
   82SOPE  H13R 7524   1.584   0.462   5.132
   82SOPE  H13S 7525   1.752   0.414   5.112
   82SOPE  C214 7526   1.682   0.560   4.969
   82SOPE  H14R 7527   1.783   0.568   4.923
   82SOPE  H14S 7528   1.632   0.659   4.962
   82SOPE  C215 7529   1.616   0.454   4.879
   82SOPE  H15R 7530   1.513   0.435   4.915
   82SOPE  H15S 7531   1.670   0.357   4.885
   82SOPE  C216 7532   1.611   0.504   4.724
   82SOPE  H16R 7533   1.715   0.511   4.684
   82SOPE  H16S 7534   1.562   0.603   4.722
   82SOPE  C217 7535   1.531   0.399   4.651
   82SOPE  H17R 7536   1.434   0.393   4.704
   82SOPE  H17S 7537   1.575   0.299   4.671
   82SOPE  C218 7538   1.516   0.427   4.507
   82SOPE  H18R 7539   1.440   0.504   4.484
   82SOPE  H18S 7540   1.489   0.336   4.448
   82SOPE  H18T 7541   1.610   0.460   4.458
   82SOPE   C33 7542   1.831   0.236   6.030
   82SOPE   H3X 7543   1.821   0.344   6.053
   82SOPE   H3Y 7544   1.746   0.188   6.084
   82SOPE   C34 7545   1.825   0.202   5.883
   82SOPE   H4X 7546   1.830   0.092   5.868
   82SOPE   H4Y 7547   1.918   0.244   5.840
   82SOPE   C35 7548   1.696   0.258   5.800
   82SOPE   H5X 7549   1.684   0.363   5.835
   82SOPE   H5Y 7550   1.603   0.202   5.826
   82SOPE   C36 7551   1.711   0.252   5.650
   82SOPE   H6X 7552   1.745   0.148   5.628
   82SOPE   H6Y 7553   1.799   0.310   5.613
   82SOPE   C37 7554   1.586   0.284   5.573
   82SOPE   H7X 7555   1.557   0.389   5.593
   82SOPE   H7Y 7556   1.497   0.228   5.610
   82SOPE   C38 7557   1.606   0.275   5.418
   82SOPE   H8X 7558   1.715   0.289   5.404
   82SOPE   H8Y 7559   1.551   0.352   5.359
   82SOPE   C39 7560   1.568   0.133   5.365
   82SOPE   H9X 7561   1.461   0.114   5.384
   82SOPE   H9Y 7562   1.632   0.068   5.428
   82SOPE  C310 7563   1.570   0.117   5.213
   82SOPE  H10X 7564   1.672   0.139   5.176
   82SOPE  H10Y 7565   1.517   0.202   5.166
   82SOPE  C311 7566   1.538   6.808   5.166
   82SOPE  H11X 7567   1.433   6.784   5.192
   82SOPE  H11Y 7568   1.593   6.740   5.233
   82SOPE  C312 7569   1.551   6.771   5.019
   82SOPE  H12X 7570   1.549   0.019   4.951
   82SOPE  H12Y 7571   1.457   6.720   4.990
   82SOPE  C313 7572   1.671   6.678   4.996
   82SOPE  H13X 7573   1.676   6.602   5.077
   82SOPE  H13Y 7574   1.772   6.724   5.004
   82SOPE  C314 7575   1.650   6.598   4.866
   82SOPE  H14X 7576   1.655   6.672   4.784
   82SOPE  H14Y 7577   1.547   6.557   4.864
   82SOPE  C315 7578   1.749   6.483   4.849
   82SOPE  H15X 7579   1.759   6.429   4.946
   82SOPE  H15Y 7580   1.844   6.540   4.837
   82SOPE  C316 7581   1.713   6.384   4.733
   82SOPE  H16X 7582   1.799   6.313   4.723
   82SOPE  H16Y 7583   1.705   6.447   4.642
   82SOPE  C317 7584   1.595   6.295   4.778
   82SOPE  H17X 7585   1.505   6.357   4.802
   82SOPE  H17Y 7586   1.629   6.247   4.872
   82SOPE  C318 7587   1.555   6.193   4.667
   82SOPE  H18X 7588   1.644   6.158   4.610
   82SOPE  H18Y 7589   1.480   6.236   4.598
   82SOPE  H18Z 7590   1.508   6.100   4.706
   83SOPE     N 7591   2.115   2.763   1.953
   83SOPE   HN1 7592   2.037   2.695   1.962
   83SOPE   HN2 7593   2.209   2.720   1.952
   83SOPE   HN3 7594   2.112   2.822   2.039
   83SOPE   C12 7595   2.076   2.823   1.825
   83SOPE  H12A 7596   2.095   2.751   1.742
   83SOPE  H12B 7597   2.143   2.909   1.803
   83SOPE   C11 7598   1.934   2.875   1.829
   83SOPE  H11A 7599   1.918   2.913   1.725
   83SOPE  H11B 7600   1.944   2.970   1.886
   83SOPE     P 7601   1.703   2.811   1.913
   83SOPE   O13 7602   1.658   2.702   2.002
   83SOPE   O14 7603   1.630   2.830   1.786
   83SOPE   O12 7604   1.848   2.778   1.877
   83SOPE   O11 7605   1.711   2.944   2.000
   83SOPE    C1 7606   1.793   2.954   2.115
   83SOPE    HA 7607   1.856   3.046   2.106
   83SOPE    HB 7608   1.853   2.861   2.126
   83SOPE    C2 7609   1.701   2.968   2.248
   83SOPE    HS 7610   1.765   2.956   2.339
   83SOPE   O21 7611   1.589   2.869   2.253
   83SOPE   C21 7612   1.640   2.744   2.289
   83SOPE   O22 7613   1.753   2.714   2.293
   83SOPE   C22 7614   1.523   2.650   2.320
   83SOPE   H2R 7615   1.476   2.615   2.226
   83SOPE   H2S 7616   1.446   2.706   2.378
   83SOPE    C3 7617   1.639   3.106   2.250
   83SOPE    HX 7618   1.554   3.110   2.178
   83SOPE    HY 7619   1.710   3.186   2.221
   83SOPE   O31 7620   1.592   3.131   2.386
   83SOPE   C31 7621   1.468   3.095   2.417
   83SOPE   O32 7622   1.396   3.035   2.342
   83SOPE   C32 7623   1.443   3.140   2.560
   83SOPE   H2X 7624   1.381   3.232   2.562
   83SOPE   H2Y 7625   1.537   3.177   2.607
   83SOPE   C23 7626   1.569   2.527   2.403
   83SOPE   H3R 7627   1.650   2.465   2.358
   83SOPE   H3S 7628   1.473   2.472   2.412
   83SOPE   C24 7629   1.598   2.548   2.552
   83SOPE   H4R 7630   1.632   2.448   2.584
   83SOPE   H4S 7631   1.682   2.620   2.560
   83SOPE   C25 7632   1.480   2.589   2.632
   83SOPE   H5R 7633   1.449   2.695   2.619
   83SOPE   H5S 7634   1.399   2.522   2.595
   83SOPE   C26 7635   1.486   2.556   2.775
   83SOPE   H6R 7636   1.386   2.572   2.821
   83SOPE   H6S 7637   1.493   2.447   2.793
   83SOPE   C27 7638   1.597   2.622   2.856
   83SOPE   H7R 7639   1.701   2.611   2.819
   83SOPE   H7S 7640   1.566   2.728   2.860
   83SOPE   C28 7641   1.599   2.581   3.002
   83SOPE   H8R 7642   1.682   2.627   3.060
   83SOPE   H8S 7643   1.500   2.613   3.041
   83SOPE   C29 7644   1.613   2.433   3.034
   83SOPE   H91 7645   1.547   2.370   2.973
   83SOPE  C210 7646   1.680   2.373   3.139
   83SOPE  H101 7647   1.669   2.265   3.155
   83SOPE  C211 7648   1.742   2.445   3.255
   83SOPE  H11R 7649   1.717   2.551   3.274
   83SOPE  H11S 7650   1.853   2.434   3.258
   83SOPE  C212 7651   1.700   2.384   3.395
   83SOPE  H12R 7652   1.785   2.417   3.457
   83SOPE  H12S 7653   1.700   2.273   3.397
   83SOPE  C213 7654   1.565   2.440   3.448
   83SOPE  H13R 7655   1.498   2.415   3.363
   83SOPE  H13S 7656   1.572   2.547   3.477
   83SOPE  C214 7657   1.506   2.366   3.571
   83SOPE  H14R 7658   1.494   2.259   3.545
   83SOPE  H14S 7659   1.404   2.404   3.595
   83SOPE  C215 7660   1.598   2.372   3.686
   83SOPE  H15R 7661   1.599   2.473   3.732
   83SOPE  H15S 7662   1.701   2.348   3.653
   83SOPE  C216 7663   1.561   2.271   3.800
   83SOPE  H16R 7664   1.656   2.258   3.857
   83SOPE  H16S 7665   1.521   2.177   3.758
   83SOPE  C217 7666   1.450   2.327   3.891
   83SOPE  H17R 7667   1.354   2.326   3.834
   83SOPE  H17S 7668   1.472   2.432   3.922
   83SOPE  C218 7669   1.421   2.258   4.018
   83SOPE  H18R 7670   1.403   2.153   3.986
   83SOPE  H18S 7671   1.334   2.310   4.063
   83SOPE  H18T 7672   1.515   2.257   4.078
   83SOPE   C33 7673   1.381   3.024   2.647
   83SOPE   H3X 7674   1.433   2.932   2.613
   83SOPE   H3Y 7675   1.274   3.013   2.616
   83SOPE   C34 7676   1.409   3.045   2.794
   83SOPE   H4X 7677   1.397   3.149   2.831
   83SOPE   H4Y 7678   1.514   3.012   2.808
   83SOPE   C35 7679   1.306   2.964   2.885
   83SOPE   H5X 7680   1.308   2.857   2.858
   83SOPE   H5Y 7681   1.205   2.995   2.850
   83SOPE   C36 7682   1.316   2.994   3.037
   83SOPE   H6X 7683   1.336   3.102   3.048
   83SOPE   H6Y 7684   1.408   2.943   3.071
   83SOPE   C37 7685   1.195   2.952   3.122
   83SOPE   H7X 7686   1.167   2.846   3.105
   83SOPE   H7Y 7687   1.114   3.019   3.086
   83SOPE   C38 7688   1.211   2.972   3.278
   83SOPE   H8X 7689   1.106   2.970   3.316
   83SOPE   H8Y 7690   1.257   3.071   3.299
   83SOPE   C39 7691   1.297   2.862   3.351
   83SOPE   H9X 7692   1.400   2.870   3.312
   83SOPE   H9Y 7693   1.251   2.765   3.321
   83SOPE  C310 7694   1.307   2.867   3.503
   83SOPE  H10X 7695   1.207   2.859   3.551
   83SOPE  H10Y 7696   1.335   2.973   3.520
   83SOPE  C311 7697   1.399   2.758   3.565
   83SOPE  H11X 7698   1.500   2.770   3.520
   83SOPE  H11Y 7699   1.349   2.660   3.548
   83SOPE  C312 7700   1.408   2.772   3.716
   83SOPE  H12X 7701   1.479   2.704   3.769
   83SOPE  H12Y 7702   1.306   2.766   3.759
   83SOPE  C313 7703   1.473   2.909   3.756
   83SOPE  H13X 7704   1.414   2.986   3.702
   83SOPE  H13Y 7705   1.575   2.916   3.713
   83SOPE  C314 7706   1.477   2.911   3.907
   83SOPE  H14X 7707   1.379   2.875   3.942
   83SOPE  H14Y 7708   1.494   3.011   3.953
   83SOPE  C315 7709   1.585   2.828   3.984
   83SOPE  H15X 7710   1.678   2.887   3.973
   83SOPE  H15Y 7711   1.597   2.724   3.946
   83SOPE  C316 7712   1.550   2.806   4.133
   83SOPE  H16X 7713   1.628   2.754   4.192
   83SOPE  H16Y 7714   1.467   2.733   4.145
   83SOPE  C317 7715   1.520   2.936   4.206
   83SOPE  H17X 7716   1.423   2.978   4.175
   83SOPE  H17Y 7717   1.597   3.007   4.168
   83SOPE  C318 7718   1.515   2.940   4.361
   83SOPE  H18X 7719   1.600   2.905   4.423
   83SOPE  H18Y 7720   1.432   2.876   4.396
   83SOPE  H18Z 7721   1.490   3.043   4.394
   84SOPE     N 7722   1.192   0.913   2.382
   84SOPE   HN1 7723   1.242   0.946   2.467
   84SOPE   HN2 7724   1.163   0.814   2.391
   84SOPE   HN3 7725   1.239   0.931   2.291
   84SOPE   C12 7726   1.074   1.008   2.386
   84SOPE  H12A 7727   1.056   1.058   2.289
   84SOPE  H12B 7728   1.083   1.078   2.472
   84SOPE   C11 7729   0.943   0.922   2.409
   84SOPE  H11A 7730   0.868   0.996   2.445
   84SOPE  H11B 7731   0.968   0.856   2.495
   84SOPE     P 7732   0.812   0.894   2.191
   84SOPE   O13 7733   0.817   0.799   2.077
   84SOPE   O14 7734   0.840   1.037   2.161
   84SOPE   O12 7735   0.904   0.840   2.298
   84SOPE   O11 7736   0.674   0.886   2.255
   84SOPE    C1 7737   0.639   0.754   2.301
   84SOPE    HA 7738   0.717   0.721   2.372
   84SOPE    HB 7739   0.629   0.695   2.207
   84SOPE    C2 7740   0.491   0.754   2.368
   84SOPE    HS 7741   0.420   0.801   2.296
   84SOPE   O21 7742   0.491   0.825   2.493
   84SOPE   C21 7743   0.470   0.948   2.492
   84SOPE   O22 7744   0.462   1.020   2.397
   84SOPE   C22 7745   0.457   0.993   2.634
   84SOPE   H2R 7746   0.428   0.917   2.710
   84SOPE   H2S 7747   0.375   1.067   2.626
   84SOPE    C3 7748   0.451   0.608   2.392
   84SOPE    HX 7749   0.529   0.544   2.441
   84SOPE    HY 7750   0.430   0.550   2.300
   84SOPE   O31 7751   0.337   0.594   2.490
   84SOPE   C31 7752   0.213   0.615   2.438
   84SOPE   O32 7753   0.192   0.648   2.326
   84SOPE   C32 7754   0.115   0.588   2.549
   84SOPE   H2X 7755   0.117   0.484   2.589
   84SOPE   H2Y 7756   0.013   0.595   2.505
   84SOPE   C23 7757   0.588   1.060   2.683
   84SOPE   H3R 7758   0.566   1.111   2.779
   84SOPE   H3S 7759   0.598   1.147   2.615
   84SOPE   C24 7760   0.713   0.964   2.702
   84SOPE   H4R 7761   0.744   0.915   2.607
   84SOPE   H4S 7762   0.795   1.033   2.732
   84SOPE   C25 7763   0.708   0.855   2.815
   84SOPE   H5R 7764   0.631   0.776   2.799
   84SOPE   H5S 7765   0.804   0.799   2.812
   84SOPE   C26 7766   0.680   0.900   2.958
   84SOPE   H6R 7767   0.584   0.954   2.973
   84SOPE   H6S 7768   0.675   0.805   3.017
   84SOPE   C27 7769   0.797   0.986   3.013
   84SOPE   H7R 7770   0.899   0.946   2.999
   84SOPE   H7S 7771   0.806   1.079   2.952
   84SOPE   C28 7772   0.778   1.040   3.156
   84SOPE   H8R 7773   0.833   1.134   3.173
   84SOPE   H8S 7774   0.671   1.070   3.158
   84SOPE   C29 7775   0.802   0.928   3.252
   84SOPE   H91 7776   0.804   0.831   3.201
   84SOPE  C210 7777   0.805   0.925   3.389
   84SOPE  H101 7778   0.818   0.832   3.446
   84SOPE  C211 7779   0.761   1.057   3.461
   84SOPE  H11R 7780   0.658   1.042   3.499
   84SOPE  H11S 7781   0.751   1.143   3.391
   84SOPE  C212 7782   0.843   1.098   3.581
   84SOPE  H12R 7783   0.799   1.189   3.629
   84SOPE  H12S 7784   0.941   1.132   3.542
   84SOPE  C213 7785   0.856   0.980   3.685
   84SOPE  H13R 7786   0.921   0.903   3.639
   84SOPE  H13S 7787   0.763   0.930   3.720
   84SOPE  C214 7788   0.915   1.025   3.815
   84SOPE  H14R 7789   0.848   1.092   3.874
   84SOPE  H14S 7790   1.000   1.094   3.797
   84SOPE  C215 7791   0.944   0.920   3.922
   84SOPE  H15R 7792   1.001   0.842   3.867
   84SOPE  H15S 7793   0.855   0.885   3.978
   84SOPE  C216 7794   1.020   0.980   4.039
   84SOPE  H16R 7795   0.964   1.062   4.088
   84SOPE  H16S 7796   1.112   1.028   3.999
   84SOPE  C217 7797   1.075   0.887   4.154
   84SOPE  H17R 7798   1.161   0.834   4.109
   84SOPE  H17S 7799   1.012   0.802   4.187
   84SOPE  C218 7800   1.121   0.959   4.280
   84SOPE  H18R 7801   1.204   1.031   4.265
   84SOPE  H18S 7802   1.151   0.884   4.355
   84SOPE  H18T 7803   1.046   1.019   4.336
   84SOPE   C33 7804   0.123   0.698   2.667
   84SOPE   H3X 7805   0.026   0.698   2.721
   84SOPE   H3Y 7806   0.130   0.800   2.624
   84SOPE   C34 7807   0.210   0.656   2.780
   84SOPE   H4X 7808   0.312   0.684   2.748
   84SOPE   H4Y 7809   0.194   0.548   2.799
   84SOPE   C35 7810   0.201   0.759   2.893
   84SOPE   H5X 7811   0.100   0.775   2.936
   84SOPE   H5Y 7812   0.237   0.853   2.847
   84SOPE   C36 7813   0.288   0.711   3.008
   84SOPE   H6X 7814   0.388   0.693   2.963
   84SOPE   H6Y 7815   0.248   0.616   3.051
   84SOPE   C37 7816   0.282   0.813   3.122
   84SOPE   H7X 7817   0.174   0.827   3.146
   84SOPE   H7Y 7818   0.336   0.906   3.092
   84SOPE   C38 7819   0.342   0.762   3.256
   84SOPE   H8X 7820   0.449   0.736   3.240
   84SOPE   H8Y 7821   0.291   0.672   3.298
   84SOPE   C39 7822   0.350   0.868   3.364
   84SOPE   H9X 7823   0.245   0.899   3.380
   84SOPE   H9Y 7824   0.401   0.952   3.312
   84SOPE  C310 7825   0.420   0.828   3.494
   84SOPE  H10X 7826   0.527   0.822   3.466
   84SOPE  H10Y 7827   0.385   0.726   3.521
   84SOPE  C311 7828   0.397   0.921   3.613
   84SOPE  H11X 7829   0.288   0.935   3.625
   84SOPE  H11Y 7830   0.446   1.017   3.587
   84SOPE  C312 7831   0.461   0.877   3.747
   84SOPE  H12X 7832   0.561   0.835   3.724
   84SOPE  H12Y 7833   0.399   0.800   3.797
   84SOPE  C313 7834   0.478   1.004   3.835
   84SOPE  H13X 7835   0.379   1.053   3.846
   84SOPE  H13Y 7836   0.539   1.078   3.779
   84SOPE  C314 7837   0.519   0.973   3.982
   84SOPE  H14X 7838   0.616   0.920   3.985
   84SOPE  H14Y 7839   0.446   0.904   4.031
   84SOPE  C315 7840   0.549   1.104   4.062
   84SOPE  H15X 7841   0.624   1.163   4.006
   84SOPE  H15Y 7842   0.601   1.056   4.148
   84SOPE  C316 7843   0.424   1.188   4.099
   84SOPE  H16X 7844   0.369   1.226   4.010
   84SOPE  H16Y 7845   0.467   1.271   4.159
   84SOPE  C317 7846   0.327   1.109   4.191
   84SOPE  H17X 7847   0.376   1.081   4.287
   84SOPE  H17Y 7848   0.292   1.018   4.139
   84SOPE  C318 7849   0.220   1.207   4.240
   84SOPE  H18X 7850   0.246   1.281   4.319
   84SOPE  H18Y 7851   0.134   1.148   4.280
   84SOPE  H18Z 7852   0.185   1.271   4.156
   85SOPE     N 7853   4.754   4.493   1.637
   85SOPE   HN1 7854   4.656   4.484   1.669
   85SOPE   HN2 7855   4.768   4.452   1.543
   85SOPE   HN3 7856   4.815   4.436   1.699
   85SOPE   C12 7857   4.804   4.630   1.656
   85SOPE  H12A 7858   4.745   4.705   1.600
   85SOPE  H12B 7859   4.907   4.622   1.615
   85SOPE   C11 7860   4.819   4.672   1.803
   85SOPE  H11A 7861   4.723   4.721   1.829
   85SOPE  H11B 7862   4.894   4.751   1.826
   85SOPE     P 7863   4.998   4.509   1.917
   85SOPE   O13 7864   5.037   4.582   2.038
   85SOPE   O14 7865   5.071   4.528   1.792
   85SOPE   O12 7866   4.847   4.560   1.891
   85SOPE   O11 7867   4.981   4.357   1.946
   85SOPE    C1 7868   4.881   4.293   2.019
   85SOPE    HA 7869   4.814   4.236   1.952
   85SOPE    HB 7870   4.818   4.363   2.079
   85SOPE    C2 7871   4.928   4.182   2.121
   85SOPE    HS 7872   4.852   4.183   2.201
   85SOPE   O21 7873   5.052   4.207   2.181
   85SOPE   C21 7874   5.059   4.307   2.262
   85SOPE   O22 7875   4.959   4.373   2.302
   85SOPE   C22 7876   5.208   4.338   2.295
   85SOPE   H2R 7877   5.239   4.416   2.222
   85SOPE   H2S 7878   5.274   4.249   2.289
   85SOPE    C3 7879   4.939   4.047   2.049
   85SOPE    HX 7880   5.009   4.061   1.964
   85SOPE    HY 7881   4.838   4.024   2.009
   85SOPE   O31 7882   4.990   3.940   2.134
   85SOPE   C31 7883   5.121   3.932   2.145
   85SOPE   O32 7884   5.202   3.987   2.071
   85SOPE   C32 7885   5.161   3.859   2.277
   85SOPE   H2X 7886   5.209   3.764   2.244
   85SOPE   H2Y 7887   5.064   3.839   2.327
   85SOPE   C23 7888   5.232   4.394   2.446
   85SOPE   H3R 7889   5.189   4.324   2.520
   85SOPE   H3S 7890   5.174   4.489   2.454
   85SOPE   C24 7891   5.380   4.401   2.484
   85SOPE   H4R 7892   5.426   4.302   2.464
   85SOPE   H4S 7893   5.417   4.470   2.405
   85SOPE   C25 7894   5.417   4.468   2.618
   85SOPE   H5R 7895   5.525   4.496   2.609
   85SOPE   H5S 7896   5.359   4.563   2.620
   85SOPE   C26 7897   5.394   4.393   2.752
   85SOPE   H6R 7898   5.285   4.375   2.764
   85SOPE   H6S 7899   5.453   4.299   2.748
   85SOPE   C27 7900   5.442   4.479   2.864
   85SOPE   H7R 7901   5.552   4.488   2.850
   85SOPE   H7S 7902   5.392   4.577   2.847
   85SOPE   C28 7903   5.420   4.412   3.003
   85SOPE   H8R 7904   5.481   4.319   2.993
   85SOPE   H8S 7905   5.478   4.458   3.085
   85SOPE   C29 7906   5.282   4.372   3.035
   85SOPE   H91 7907   5.220   4.330   2.954
   85SOPE  C210 7908   5.225   4.384   3.158
   85SOPE  H101 7909   5.121   4.354   3.181
   85SOPE  C211 7910   5.299   4.453   3.272
   85SOPE  H11R 7911   5.238   4.532   3.320
   85SOPE  H11S 7912   5.393   4.506   3.244
   85SOPE  C212 7913   5.349   4.354   3.385
   85SOPE  H12R 7914   5.416   4.275   3.346
   85SOPE  H12S 7915   5.260   4.303   3.426
   85SOPE  C213 7916   5.414   4.419   3.505
   85SOPE  H13R 7917   5.360   4.516   3.507
   85SOPE  H13S 7918   5.523   4.427   3.489
   85SOPE  C214 7919   5.379   4.349   3.637
   85SOPE  H14R 7920   5.430   4.251   3.623
   85SOPE  H14S 7921   5.270   4.331   3.642
   85SOPE  C215 7922   5.407   4.424   3.766
   85SOPE  H15R 7923   5.358   4.367   3.848
   85SOPE  H15S 7924   5.354   4.521   3.772
   85SOPE  C216 7925   5.559   4.445   3.790
   85SOPE  H16R 7926   5.577   4.514   3.875
   85SOPE  H16S 7927   5.602   4.484   3.695
   85SOPE  C217 7928   5.628   4.311   3.809
   85SOPE  H17R 7929   5.738   4.329   3.813
   85SOPE  H17S 7930   5.601   4.241   3.727
   85SOPE  C218 7931   5.586   4.245   3.944
   85SOPE  H18R 7932   5.493   4.184   3.936
   85SOPE  H18S 7933   5.574   4.330   4.015
   85SOPE  H18T 7934   5.668   4.176   3.975
   85SOPE   C33 7935   5.244   3.960   2.362
   85SOPE   H3X 7936   5.182   4.042   2.403
   85SOPE   H3Y 7937   5.331   4.005   2.310
   85SOPE   C34 7938   5.312   3.888   2.474
   85SOPE   H4X 7939   5.348   3.793   2.429
   85SOPE   H4Y 7940   5.239   3.865   2.555
   85SOPE   C35 7941   5.424   3.967   2.532
   85SOPE   H5X 7942   5.386   4.069   2.556
   85SOPE   H5Y 7943   5.518   3.965   2.473
   85SOPE   C36 7944   5.468   3.913   2.671
   85SOPE   H6X 7945   5.449   3.804   2.684
   85SOPE   H6Y 7946   5.386   3.957   2.731
   85SOPE   C37 7947   5.606   3.958   2.716
   85SOPE   H7X 7948   5.610   4.069   2.708
   85SOPE   H7Y 7949   5.678   3.928   2.637
   85SOPE   C38 7950   5.638   3.918   2.859
   85SOPE   H8X 7951   5.736   3.961   2.888
   85SOPE   H8Y 7952   5.644   3.807   2.856
   85SOPE   C39 7953   5.537   3.958   2.967
   85SOPE   H9X 7954   5.436   3.926   2.932
   85SOPE   H9Y 7955   5.549   4.067   2.988
   85SOPE  C310 7956   5.545   3.882   3.097
   85SOPE  H10X 7957   5.643   3.882   3.149
   85SOPE  H10Y 7958   5.530   3.781   3.052
   85SOPE  C311 7959   5.424   3.913   3.192
   85SOPE  H11X 7960   5.330   3.867   3.153
   85SOPE  H11Y 7961   5.415   4.023   3.181
   85SOPE  C312 7962   5.464   3.853   3.329
   85SOPE  H12X 7963   5.568   3.891   3.339
   85SOPE  H12Y 7964   5.463   3.742   3.328
   85SOPE  C313 7965   5.386   3.913   3.448
   85SOPE  H13X 7966   5.277   3.927   3.430
   85SOPE  H13Y 7967   5.430   4.014   3.442
   85SOPE  C314 7968   5.416   3.843   3.583
   85SOPE  H14X 7969   5.365   3.745   3.579
   85SOPE  H14Y 7970   5.384   3.899   3.673
   85SOPE  C315 7971   5.561   3.813   3.618
   85SOPE  H15X 7972   5.603   3.915   3.625
   85SOPE  H15Y 7973   5.604   3.759   3.531
   85SOPE  C316 7974   5.582   3.721   3.736
   85SOPE  H16X 7975   5.502   3.643   3.736
   85SOPE  H16Y 7976   5.573   3.787   3.825
   85SOPE  C317 7977   5.723   3.666   3.738
   85SOPE  H17X 7978   5.790   3.754   3.746
   85SOPE  H17Y 7979   5.744   3.615   3.642
   85SOPE  C318 7980   5.740   3.570   3.855
   85SOPE  H18X 7981   5.848   3.554   3.874
   85SOPE  H18Y 7982   5.689   3.473   3.839
   85SOPE  H18Z 7983   5.701   3.613   3.950
   86SOPE     N 7984   5.017   1.394   2.548
   86SOPE   HN1 7985   4.935   1.331   2.559
   86SOPE   HN2 7986   5.102   1.343   2.514
   86SOPE   HN3 7987   5.045   1.423   2.644
   86SOPE   C12 7988   4.974   1.515   2.478
   86SOPE  H12A 7989   4.877   1.546   2.522
   86SOPE  H12B 7990   4.955   1.490   2.372
   86SOPE   C11 7991   5.079   1.622   2.494
   86SOPE  H11A 7992   5.097   1.647   2.601
   86SOPE  H11B 7993   5.035   1.709   2.441
   86SOPE     P 7994   5.350   1.617   2.464
   86SOPE   O13 7995   5.353   1.762   2.452
   86SOPE   O14 7996   5.442   1.537   2.382
   86SOPE   O12 7997   5.201   1.566   2.431
   86SOPE   O11 7998   5.373   1.581   2.617
   86SOPE    C1 7999   5.444   1.474   2.672
   86SOPE    HA 8000   5.549   1.505   2.687
   86SOPE    HB 8001   5.455   1.395   2.594
   86SOPE    C2 8002   5.377   1.411   2.797
   86SOPE    HS 8003   5.300   1.344   2.753
   86SOPE   O21 8004   5.320   1.519   2.875
   86SOPE   C21 8005   5.200   1.557   2.851
   86SOPE   O22 8006   5.125   1.508   2.771
   86SOPE   C22 8007   5.161   1.673   2.938
   86SOPE   H2R 8008   5.105   1.738   2.868
   86SOPE   H2S 8009   5.250   1.735   2.962
   86SOPE    C3 8010   5.484   1.349   2.880
   86SOPE    HX 8011   5.539   1.436   2.922
   86SOPE    HY 8012   5.557   1.279   2.835
   86SOPE   O31 8013   5.431   1.288   2.998
   86SOPE   C31 8014   5.402   1.159   2.985
   86SOPE   O32 8015   5.426   1.092   2.882
   86SOPE   C32 8016   5.341   1.101   3.115
   86SOPE   H2X 8017   5.237   1.075   3.087
   86SOPE   H2Y 8018   5.340   1.184   3.188
   86SOPE   C23 8019   5.083   1.634   3.066
   86SOPE   H3R 8020   4.999   1.564   3.044
   86SOPE   H3S 8021   5.034   1.722   3.112
   86SOPE   C24 8022   5.171   1.561   3.169
   86SOPE   H4R 8023   5.191   1.457   3.136
   86SOPE   H4S 8024   5.276   1.596   3.162
   86SOPE   C25 8025   5.113   1.566   3.307
   86SOPE   H5R 8026   5.105   1.669   3.345
   86SOPE   H5S 8027   5.006   1.542   3.291
   86SOPE   C26 8028   5.160   1.471   3.411
   86SOPE   H6R 8029   5.131   1.515   3.509
   86SOPE   H6S 8030   5.110   1.377   3.380
   86SOPE   C27 8031   5.313   1.442   3.413
   86SOPE   H7R 8032   5.364   1.442   3.315
   86SOPE   H7S 8033   5.359   1.508   3.490
   86SOPE   C28 8034   5.333   1.305   3.480
   86SOPE   H8R 8035   5.268   1.295   3.570
   86SOPE   H8S 8036   5.293   1.232   3.407
   86SOPE   C29 8037   5.480   1.276   3.511
   86SOPE   H91 8038   5.547   1.292   3.426
   86SOPE  C210 8039   5.536   1.245   3.629
   86SOPE  H101 8040   5.644   1.223   3.636
   86SOPE  C211 8041   5.460   1.226   3.755
   86SOPE  H11R 8042   5.383   1.146   3.748
   86SOPE  H11S 8043   5.403   1.321   3.763
   86SOPE  C212 8044   5.554   1.215   3.872
   86SOPE  H12R 8045   5.505   1.257   3.962
   86SOPE  H12S 8046   5.647   1.276   3.877
   86SOPE  C213 8047   5.584   1.074   3.912
   86SOPE  H13R 8048   5.632   1.014   3.832
   86SOPE  H13S 8049   5.490   1.017   3.929
   86SOPE  C214 8050   5.663   1.053   4.045
   86SOPE  H14R 8051   5.774   1.060   4.041
   86SOPE  H14S 8052   5.635   0.953   4.086
   86SOPE  C215 8053   5.634   1.156   4.151
   86SOPE  H15R 8054   5.524   1.171   4.159
   86SOPE  H15S 8055   5.668   1.252   4.106
   86SOPE  C216 8056   5.692   1.131   4.286
   86SOPE  H16R 8057   5.801   1.111   4.278
   86SOPE  H16S 8058   5.645   1.039   4.327
   86SOPE  C217 8059   5.660   1.251   4.389
   86SOPE  H17R 8060   5.549   1.245   4.391
   86SOPE  H17S 8061   5.688   1.347   4.342
   86SOPE  C218 8062   5.704   1.229   4.535
   86SOPE  H18R 8063   5.815   1.219   4.542
   86SOPE  H18S 8064   5.659   1.132   4.565
   86SOPE  H18T 8065   5.679   1.315   4.602
   86SOPE   C33 8066   5.410   0.976   3.159
   86SOPE   H3X 8067   5.520   0.969   3.143
   86SOPE   H3Y 8068   5.382   0.889   3.097
   86SOPE   C34 8069   5.384   0.936   3.307
   86SOPE   H4X 8070   5.276   0.943   3.331
   86SOPE   H4Y 8071   5.439   0.995   3.383
   86SOPE   C35 8072   5.432   0.792   3.338
   86SOPE   H5X 8073   5.540   0.795   3.311
   86SOPE   H5Y 8074   5.377   0.719   3.274
   86SOPE   C36 8075   5.386   0.746   3.481
   86SOPE   H6X 8076   5.277   0.763   3.484
   86SOPE   H6Y 8077   5.424   0.821   3.553
   86SOPE   C37 8078   5.415   0.594   3.515
   86SOPE   H7X 8079   5.525   0.578   3.519
   86SOPE   H7Y 8080   5.388   0.526   3.432
   86SOPE   C38 8081   5.360   0.556   3.651
   86SOPE   H8X 8082   5.401   0.614   3.736
   86SOPE   H8Y 8083   5.381   0.449   3.671
   86SOPE   C39 8084   5.208   0.571   3.658
   86SOPE   H9X 8085   5.158   0.505   3.585
   86SOPE   H9Y 8086   5.171   0.676   3.648
   86SOPE  C310 8087   5.156   0.528   3.800
   86SOPE  H10X 8088   5.178   0.422   3.821
   86SOPE  H10Y 8089   5.046   0.527   3.786
   86SOPE  C311 8090   5.200   0.624   3.910
   86SOPE  H11X 8091   5.170   0.729   3.890
   86SOPE  H11Y 8092   5.311   0.630   3.917
   86SOPE  C312 8093   5.161   0.597   4.054
   86SOPE  H12X 8094   5.172   0.686   4.119
   86SOPE  H12Y 8095   5.229   0.519   4.095
   86SOPE  C313 8096   5.027   0.537   4.070
   86SOPE  H13X 8097   5.021   0.444   4.011
   86SOPE  H13Y 8098   4.964   0.622   4.034
   86SOPE  C314 8099   4.989   0.494   4.213
   86SOPE  H14X 8100   5.073   0.433   4.253
   86SOPE  H14Y 8101   4.890   0.445   4.212
   86SOPE  C315 8102   4.961   0.606   4.315
   86SOPE  H15X 8103   4.882   0.677   4.283
   86SOPE  H15Y 8104   5.054   0.664   4.337
   86SOPE  C316 8105   4.914   0.544   4.451
   86SOPE  H16X 8106   5.013   0.528   4.499
   86SOPE  H16Y 8107   4.862   0.447   4.437
   86SOPE  C317 8108   4.817   0.638   4.513
   86SOPE  H17X 8109   4.726   0.647   4.448
   86SOPE  H17Y 8110   4.860   0.740   4.523
   86SOPE  C318 8111   4.763   0.605   4.651
   86SOPE  H18X 8112   4.716   0.505   4.648
   86SOPE  H18Y 8113   4.692   0.678   4.696
   86SOPE  H18Z 8114   4.851   0.593   4.718
   87SOPE     N 8115   6.717   0.762   2.162
   87SOPE   HN1 8116   6.716   0.810   2.254
   87SOPE   HN2 8117   6.791   0.689   2.158
   87SOPE   HN3 8118   6.741   0.829   2.086
   87SOPE   C12 8119   6.586   0.699   2.131
   87SOPE  H12A 8120   6.556   0.643   2.223
   87SOPE  H12B 8121   6.603   0.616   2.059
   87SOPE   C11 8122   6.475   0.803   2.102
   87SOPE  H11A 8123   6.386   0.746   2.067
   87SOPE  H11B 8124   6.500   0.871   2.018
   87SOPE     P 8125   6.321   0.856   2.301
   87SOPE   O13 8126   6.208   0.820   2.217
   87SOPE   O14 8127   6.311   0.975   2.386
   87SOPE   O12 8128   6.449   0.883   2.217
   87SOPE   O11 8129   6.363   0.736   2.391
   87SOPE    C1 8130   6.316   0.607   2.375
   87SOPE    HA 8131   6.358   0.560   2.284
   87SOPE    HB 8132   6.205   0.603   2.370
   87SOPE    C2 8133   6.348   0.520   2.507
   87SOPE    HS 8134   6.285   0.430   2.518
   87SOPE   O21 8135   6.330   0.601   2.626
   87SOPE   C21 8136   6.206   0.635   2.669
   87SOPE   O22 8137   6.103   0.599   2.616
   87SOPE   C22 8138   6.209   0.725   2.797
   87SOPE   H2R 8139   6.104   0.762   2.806
   87SOPE   H2S 8140   6.285   0.805   2.783
   87SOPE    C3 8141   6.496   0.466   2.497
   87SOPE    HX 8142   6.554   0.550   2.452
   87SOPE    HY 8143   6.495   0.379   2.428
   87SOPE   O31 8144   6.558   0.424   2.625
   87SOPE   C31 8145   6.611   0.526   2.701
   87SOPE   O32 8146   6.633   0.644   2.670
   87SOPE   C32 8147   6.666   0.453   2.827
   87SOPE   H2X 8148   6.765   0.417   2.793
   87SOPE   H2Y 8149   6.606   0.364   2.855
   87SOPE   C23 8150   6.245   0.647   2.925
   87SOPE   H3R 8151   6.346   0.615   2.891
   87SOPE   H3S 8152   6.177   0.563   2.951
   87SOPE   C24 8153   6.256   0.742   3.049
   87SOPE   H4R 8154   6.324   0.824   3.017
   87SOPE   H4S 8155   6.154   0.777   3.074
   87SOPE   C25 8156   6.317   0.670   3.169
   87SOPE   H5R 8157   6.246   0.594   3.210
   87SOPE   H5S 8158   6.410   0.627   3.128
   87SOPE   C26 8159   6.345   0.777   3.279
   87SOPE   H6R 8160   6.415   0.851   3.236
   87SOPE   H6S 8161   6.249   0.820   3.315
   87SOPE   C27 8162   6.416   0.713   3.401
   87SOPE   H7R 8163   6.408   0.602   3.390
   87SOPE   H7S 8164   6.525   0.732   3.386
   87SOPE   C28 8165   6.378   0.767   3.537
   87SOPE   H8R 8166   6.381   0.878   3.540
   87SOPE   H8S 8167   6.272   0.740   3.553
   87SOPE   C29 8168   6.451   0.712   3.657
   87SOPE   H91 8169   6.454   0.602   3.670
   87SOPE  C210 8170   6.515   0.794   3.741
   87SOPE  H101 8171   6.556   0.752   3.834
   87SOPE  C211 8172   6.518   0.946   3.742
   87SOPE  H11R 8173   6.515   1.000   3.645
   87SOPE  H11S 8174   6.618   0.980   3.777
   87SOPE  C212 8175   6.399   1.002   3.816
   87SOPE  H12R 8176   6.407   0.968   3.922
   87SOPE  H12S 8177   6.299   0.973   3.775
   87SOPE  C213 8178   6.407   1.154   3.818
   87SOPE  H13R 8179   6.514   1.179   3.835
   87SOPE  H13S 8180   6.349   1.195   3.903
   87SOPE  C214 8181   6.354   1.220   3.691
   87SOPE  H14R 8182   6.244   1.233   3.701
   87SOPE  H14S 8183   6.370   1.135   3.621
   87SOPE  C215 8184   6.413   1.337   3.621
   87SOPE  H15R 8185   6.361   1.368   3.527
   87SOPE  H15S 8186   6.518   1.318   3.590
   87SOPE  C216 8187   6.412   1.474   3.706
   87SOPE  H16R 8188   6.484   1.463   3.790
   87SOPE  H16S 8189   6.313   1.495   3.751
   87SOPE  C217 8190   6.463   1.591   3.629
   87SOPE  H17R 8191   6.393   1.619   3.547
   87SOPE  H17S 8192   6.561   1.570   3.583
   87SOPE  C218 8193   6.474   1.709   3.719
   87SOPE  H18R 8194   6.532   1.681   3.809
   87SOPE  H18S 8195   6.373   1.741   3.753
   87SOPE  H18T 8196   6.532   1.796   3.679
   87SOPE   C33 8197   6.706   0.547   2.946
   87SOPE   H3X 8198   6.618   0.611   2.971
   87SOPE   H3Y 8199   6.786   0.614   2.908
   87SOPE   C34 8200   6.760   0.498   3.081
   87SOPE   H4X 8201   0.009   0.434   3.069
   87SOPE   H4Y 8202   6.688   0.419   3.111
   87SOPE   C35 8203   6.788   0.606   3.194
   87SOPE   H5X 8204   6.688   0.648   3.221
   87SOPE   H5Y 8205   0.018   0.684   3.160
   87SOPE   C36 8206   0.014   0.531   3.314
   87SOPE   H6X 8207   0.122   0.516   3.291
   87SOPE   H6Y 8208   6.807   0.431   3.320
   87SOPE   C37 8209   6.840   0.594   3.454
   87SOPE   H7X 8210   6.734   0.618   3.480
   87SOPE   H7Y 8211   0.037   0.698   3.448
   87SOPE   C38 8212   0.075   0.507   3.551
   87SOPE   H8X 8213   0.177   0.494   3.508
   87SOPE   H8Y 8214   0.037   0.403   3.559
   87SOPE   C39 8215   0.087   0.562   3.694
   87SOPE   H9X 8216   6.825   0.562   3.737
   87SOPE   H9Y 8217   0.122   0.668   3.694
   87SOPE  C310 8218   0.180   0.482   3.789
   87SOPE  H10X 8219   0.289   0.494   3.773
   87SOPE  H10Y 8220   0.156   0.374   3.775
   87SOPE  C311 8221   0.177   0.520   3.948
   87SOPE  H11X 8222   0.256   0.470   4.008
   87SOPE  H11Y 8223   0.077   0.478   3.975
   87SOPE  C312 8224   0.170   0.663   3.985
   87SOPE  H12X 8225   0.093   0.720   3.929
   87SOPE  H12Y 8226   0.262   0.713   3.949
   87SOPE  C313 8227   0.144   0.692   4.136
   87SOPE  H13X 8228   0.044   0.651   4.161
   87SOPE  H13Y 8229   0.147   0.801   4.156
   87SOPE  C314 8230   0.251   0.629   4.230
   87SOPE  H14X 8231   0.352   0.668   4.202
   87SOPE  H14Y 8232   0.233   0.520   4.223
   87SOPE  C315 8233   0.238   0.669   4.377
   87SOPE  H15X 8234   0.266   0.584   4.443
   87SOPE  H15Y 8235   0.131   0.686   4.400
   87SOPE  C316 8236   0.320   0.790   4.416
   87SOPE  H16X 8237   0.288   0.884   4.366
   87SOPE  H16Y 8238   0.425   0.773   4.385
   87SOPE  C317 8239   0.307   0.812   4.566
   87SOPE  H17X 8240   0.339   0.714   4.608
   87SOPE  H17Y 8241   0.203   0.842   4.590
   87SOPE  C318 8242   0.401   0.930   4.608
   87SOPE  H18X 8243   0.377   0.948   4.715
   87SOPE  H18Y 8244   0.384   1.020   4.546
   87SOPE  H18Z 8245   0.505   0.895   4.594
   88SOPE     N 8246   1.496   6.000   1.886
   88SOPE   HN1 8247   1.506   5.936   1.804
   88SOPE   HN2 8248   1.485   5.945   1.974
   88SOPE   HN3 8249   1.413   6.060   1.868
   88SOPE   C12 8250   1.615   6.096   1.903
   88SOPE  H12A 8251   1.616   6.175   1.825
   88SOPE  H12B 8252   1.707   6.036   1.882
   88SOPE   C11 8253   1.631   6.150   2.047
   88SOPE  H11A 8254   1.724   6.211   2.045
   88SOPE  H11B 8255   1.634   6.068   2.123
   88SOPE     P 8256   1.409   6.201   2.168
   88SOPE   O13 8257   1.354   6.070   2.133
   88SOPE   O14 8258   1.311   6.310   2.160
   88SOPE   O12 8259   1.525   6.240   2.073
   88SOPE   O11 8260   1.477   6.197   2.308
   88SOPE    C1 8261   1.510   6.070   2.370
   88SOPE    HA 8262   1.592   6.090   2.443
   88SOPE    HB 8263   1.559   5.997   2.303
   88SOPE    C2 8264   1.399   6.010   2.457
   88SOPE    HS 8265   1.336   5.955   2.384
   88SOPE   O21 8266   1.332   6.112   2.530
   88SOPE   C21 8267   1.227   6.069   2.601
   88SOPE   O22 8268   1.167   5.967   2.581
   88SOPE   C22 8269   1.196   6.158   2.723
   88SOPE   H2R 8270   1.116   6.227   2.690
   88SOPE   H2S 8271   1.281   6.210   2.772
   88SOPE    C3 8272   1.462   5.903   2.556
   88SOPE    HX 8273   1.504   5.828   2.486
   88SOPE    HY 8274   1.377   5.856   2.611
   88SOPE   O31 8275   1.576   5.957   2.628
   88SOPE   C31 8276   1.565   5.984   2.756
   88SOPE   O32 8277   1.463   5.968   2.818
   88SOPE   C32 8278   1.693   6.047   2.805
   88SOPE   H2X 8279   1.759   6.076   2.721
   88SOPE   H2Y 8280   1.746   5.969   2.864
   88SOPE   C23 8281   1.124   6.076   2.831
   88SOPE   H3R 8282   1.178   5.986   2.868
   88SOPE   H3S 8283   1.031   6.032   2.790
   88SOPE   C24 8284   1.088   6.173   2.940
   88SOPE   H4R 8285   1.179   6.220   2.983
   88SOPE   H4S 8286   1.018   6.251   2.903
   88SOPE   C25 8287   1.030   6.104   3.064
   88SOPE   H5R 8288   1.080   6.007   3.083
   88SOPE   H5S 8289   1.063   6.161   3.153
   88SOPE   C26 8290   0.877   6.112   3.067
   88SOPE   H6R 8291   0.849   6.217   3.047
   88SOPE   H6S 8292   0.833   6.049   2.987
   88SOPE   C27 8293   0.808   6.061   3.197
   88SOPE   H7R 8294   0.841   5.955   3.191
   88SOPE   H7S 8295   0.840   6.125   3.282
   88SOPE   C28 8296   0.657   6.061   3.199
   88SOPE   H8R 8297   0.619   6.160   3.163
   88SOPE   H8S 8298   0.624   6.001   3.111
   88SOPE   C29 8299   0.591   6.016   3.325
   88SOPE   H91 8300   0.571   5.908   3.331
   88SOPE  C210 8301   0.565   6.099   3.435
   88SOPE  H101 8302   0.503   6.060   3.518
   88SOPE  C211 8303   0.576   6.249   3.449
   88SOPE  H11R 8304   0.615   6.282   3.350
   88SOPE  H11S 8305   0.655   6.275   3.523
   88SOPE  C212 8306   0.442   6.321   3.485
   88SOPE  H12R 8307   0.454   6.432   3.484
   88SOPE  H12S 8308   0.412   6.283   3.584
   88SOPE  C213 8309   0.328   6.300   3.391
   88SOPE  H13R 8310   0.281   6.200   3.401
   88SOPE  H13S 8311   0.365   6.315   3.288
   88SOPE  C214 8312   0.225   6.422   3.400
   88SOPE  H14R 8313   0.289   6.512   3.383
   88SOPE  H14S 8314   0.175   6.420   3.499
   88SOPE  C215 8315   0.123   6.453   3.297
   88SOPE  H15R 8316   0.066   6.544   3.323
   88SOPE  H15S 8317   0.051   6.370   3.281
   88SOPE  C216 8318   0.194   6.477   3.159
   88SOPE  H16R 8319   0.226   6.375   3.130
   88SOPE  H16S 8320   0.278   6.548   3.174
   88SOPE  C217 8321   0.093   6.521   3.052
   88SOPE  H17R 8322   0.080   6.629   3.075
   88SOPE  H17S 8323   6.831   6.481   3.064
   88SOPE  C218 8324   0.143   6.514   2.906
   88SOPE  H18R 8325   0.054   6.503   2.841
   88SOPE  H18S 8326   0.201   6.421   2.886
   88SOPE  H18T 8327   0.188   6.612   2.880
   88SOPE   C33 8328   1.667   6.166   2.903
   88SOPE   H3X 8329   1.613   6.244   2.845
   88SOPE   H3Y 8330   1.766   6.214   2.916
   88SOPE   C34 8331   1.585   6.144   3.031
   88SOPE   H4X 8332   1.479   6.130   3.003
   88SOPE   H4Y 8333   1.587   6.243   3.082
   88SOPE   C35 8334   1.623   6.021   3.121
   88SOPE   H5X 8335   1.733   6.011   3.127
   88SOPE   H5Y 8336   1.596   5.924   3.074
   88SOPE   C36 8337   1.546   6.013   3.250
   88SOPE   H6X 8338   1.570   6.103   3.311
   88SOPE   H6Y 8339   1.576   5.920   3.301
   88SOPE   C37 8340   1.391   6.023   3.246
   88SOPE   H7X 8341   1.351   5.948   3.174
   88SOPE   H7Y 8342   1.377   6.124   3.202
   88SOPE   C38 8343   1.338   6.017   3.390
   88SOPE   H8X 8344   1.383   6.099   3.450
   88SOPE   H8Y 8345   1.373   5.919   3.430
   88SOPE   C39 8346   1.188   5.995   3.402
   88SOPE   H9X 8347   1.159   5.917   3.329
   88SOPE   H9Y 8348   1.141   6.090   3.368
   88SOPE  C310 8349   1.138   5.952   3.538
   88SOPE  H10X 8350   1.146   5.842   3.553
   88SOPE  H10Y 8351   1.035   5.989   3.560
   88SOPE  C311 8352   1.221   5.998   3.659
   88SOPE  H11X 8353   1.239   6.106   3.675
   88SOPE  H11Y 8354   1.319   5.948   3.672
   88SOPE  C312 8355   1.135   5.957   3.779
   88SOPE  H12X 8356   1.134   5.846   3.784
   88SOPE  H12Y 8357   1.029   5.990   3.774
   88SOPE  C313 8358   1.183   6.018   3.916
   88SOPE  H13X 8359   1.171   6.128   3.914
   88SOPE  H13Y 8360   1.291   5.999   3.935
   88SOPE  C314 8361   1.102   5.969   4.036
   88SOPE  H14X 8362   1.101   5.859   4.026
   88SOPE  H14Y 8363   1.004   6.021   4.025
   88SOPE  C315 8364   1.156   6.013   4.169
   88SOPE  H15X 8365   1.176   6.122   4.175
   88SOPE  H15Y 8366   1.250   5.955   4.176
   88SOPE  C316 8367   1.064   5.956   4.279
   88SOPE  H16X 8368   1.116   5.957   4.377
   88SOPE  H16Y 8369   1.039   5.851   4.249
   88SOPE  C317 8370   0.928   6.026   4.280
   88SOPE  H17X 8371   0.863   5.992   4.197
   88SOPE  H17Y 8372   0.946   6.133   4.255
   88SOPE  C318 8373   0.836   6.028   4.404
   88SOPE  H18X 8374   0.900   6.008   4.493
   88SOPE  H18Y 8375   0.758   5.950   4.393
   88SOPE  H18Z 8376   0.794   6.127   4.432
   89SAPC     N 8377   5.048   2.931   6.703
   89SAPC   C12 8378   4.932   3.026   6.728
   89SAPC  H12A 8379   4.944   3.122   6.680
   89SAPC  H12B 8380   4.935   3.041   6.835
   89SAPC   C13 8381   5.174   2.981   6.764
   89SAPC  H13A 8382   5.192   2.966   6.869
   89SAPC  H13B 8383   5.261   2.942   6.713
   89SAPC  H13C 8384   5.176   3.088   6.747
   89SAPC   C14 8385   5.015   2.798   6.767
   89SAPC  H14A 8386   4.986   2.807   6.871
   89SAPC  H14B 8387   4.936   2.749   6.714
   89SAPC  H14C 8388   5.098   2.729   6.766
   89SAPC   C15 8389   5.071   2.909   6.560
   89SAPC  H15A 8390   4.978   2.877   6.515
   89SAPC  H15B 8391   5.089   3.007   6.521
   89SAPC  H15C 8392   5.145   2.838   6.528
   89SAPC   C11 8393   4.784   2.984   6.702
   89SAPC  H11A 8394   4.728   3.076   6.727
   89SAPC  H11B 8395   4.755   2.899   6.768
   89SAPC     P 8396   4.683   3.033   6.469
   89SAPC   O13 8397   4.553   2.964   6.473
   89SAPC   O14 8398   4.683   3.177   6.501
   89SAPC   O12 8399   4.778   2.953   6.567
   89SAPC   O11 8400   4.753   3.012   6.328
   89SAPC    C1 8401   4.872   3.078   6.285
   89SAPC    HA 8402   4.915   3.139   6.367
   89SAPC    HB 8403   4.949   3.004   6.254
   89SAPC    C2 8404   4.829   3.181   6.177
   89SAPC    HS 8405   4.719   3.195   6.181
   89SAPC   O21 8406   4.861   3.119   6.048
   89SAPC   C21 8407   4.784   3.159   5.947
   89SAPC   O22 8408   4.671   3.200   5.951
   89SAPC   C22 8409   4.856   3.115   5.820
   89SAPC   H2R 8410   4.961   3.095   5.851
   89SAPC   H2S 8411   4.818   3.016   5.788
   89SAPC    C3 8412   4.898   3.323   6.191
   89SAPC    HX 8413   5.006   3.301   6.205
   89SAPC    HY 8414   4.861   3.367   6.286
   89SAPC   O31 8415   4.886   3.396   6.070
   89SAPC   C31 8416   4.934   3.523   6.091
   89SAPC   O32 8417   5.001   3.561   6.186
   89SAPC   C32 8418   4.885   3.606   5.969
   89SAPC   H2X 8419   4.844   3.701   6.009
   89SAPC   H2Y 8420   4.798   3.551   5.928
   89SAPC   C23 8421   4.837   3.215   5.709
   89SAPC   H3R 8422   4.880   3.313   5.737
   89SAPC   H3S 8423   4.728   3.239   5.706
   89SAPC   C24 8424   4.892   3.172   5.570
   89SAPC   H4R 8425   4.847   3.079   5.530
   89SAPC   H4S 8426   5.000   3.145   5.574
   89SAPC   C25 8427   4.882   3.287   5.472
   89SAPC   H5R 8428   4.914   3.387   5.506
   89SAPC   C26 8429   4.866   3.286   5.335
   89SAPC   H6R 8430   4.890   3.382   5.287
   89SAPC   C27 8431   4.845   3.159   5.252
   89SAPC   H7R 8432   4.869   3.069   5.312
   89SAPC   H7S 8433   4.908   3.163   5.161
   89SAPC   C28 8434   4.690   3.143   5.226
   89SAPC   H8R 8435   4.628   3.151   5.317
   89SAPC   C29 8436   4.642   3.121   5.106
   89SAPC   H9R 8437   4.532   3.129   5.100
   89SAPC  C210 8438   4.711   3.115   4.971
   89SAPC  H10R 8439   4.771   3.021   4.969
   89SAPC  H10S 8440   4.788   3.196   4.969
   89SAPC  C211 8441   4.628   3.114   4.850
   89SAPC  H11R 8442   4.542   3.046   4.852
   89SAPC  C212 8443   4.640   3.194   4.745
   89SAPC  H12R 8444   4.556   3.191   4.673
   89SAPC  C213 8445   4.744   3.296   4.705
   89SAPC  H13R 8446   4.812   3.247   4.633
   89SAPC  H13S 8447   4.806   3.332   4.790
   89SAPC  C214 8448   4.673   3.423   4.643
   89SAPC  H14R 8449   4.644   3.500   4.716
   89SAPC  C215 8450   4.637   3.437   4.515
   89SAPC  H15R 8451   4.591   3.530   4.479
   89SAPC  C216 8452   4.655   3.331   4.403
   89SAPC  H16R 8453   4.680   3.234   4.452
   89SAPC  H16S 8454   4.740   3.360   4.337
   89SAPC  C217 8455   4.540   3.314   4.311
   89SAPC  H17R 8456   4.449   3.292   4.372
   89SAPC  H17S 8457   4.559   3.227   4.244
   89SAPC  C218 8458   4.508   3.434   4.216
   89SAPC  H18R 8459   4.587   3.444   4.140
   89SAPC  H18S 8460   4.519   3.525   4.278
   89SAPC  C219 8461   4.367   3.426   4.156
   89SAPC  H19R 8462   4.311   3.401   4.248
   89SAPC  H19S 8463   4.362   3.343   4.083
   89SAPC  C220 8464   4.319   3.562   4.099
   89SAPC  H20R 8465   4.371   3.590   4.005
   89SAPC  H20S 8466   4.329   3.642   4.176
   89SAPC  H20T 8467   4.209   3.551   4.094
   89SAPC   C33 8468   4.998   3.628   5.866
   89SAPC   H3X 8469   5.007   3.528   5.817
   89SAPC   H3Y 8470   5.097   3.660   5.905
   89SAPC   C34 8471   4.961   3.733   5.756
   89SAPC   H4X 8472   4.967   3.842   5.778
   89SAPC   H4Y 8473   4.852   3.715   5.752
   89SAPC   C35 8474   5.030   3.700   5.622
   89SAPC   H5X 8475   5.071   3.596   5.617
   89SAPC   H5Y 8476   5.105   3.779   5.602
   89SAPC   C36 8477   4.922   3.696   5.507
   89SAPC   H6X 8478   4.868   3.792   5.489
   89SAPC   H6Y 8479   4.849   3.615   5.530
   89SAPC   C37 8480   4.987   3.653   5.369
   89SAPC   H7X 8481   5.036   3.553   5.377
   89SAPC   H7Y 8482   5.074   3.713   5.335
   89SAPC   C38 8483   4.889   3.656   5.255
   89SAPC   H8X 8484   4.930   3.589   5.176
   89SAPC   H8Y 8485   4.883   3.754   5.203
   89SAPC   C39 8486   4.741   3.624   5.278
   89SAPC   H9X 8487   4.684   3.703   5.332
   89SAPC   H9Y 8488   4.718   3.531   5.335
   89SAPC  C310 8489   4.679   3.597   5.138
   89SAPC  H10X 8490   4.738   3.513   5.097
   89SAPC  H10Y 8491   4.695   3.688   5.076
   89SAPC  C311 8492   4.532   3.584   5.134
   89SAPC  H11X 8493   4.482   3.683   5.139
   89SAPC  H11Y 8494   4.526   3.535   5.234
   89SAPC  C312 8495   4.469   3.488   5.040
   89SAPC  H12X 8496   4.515   3.388   5.047
   89SAPC  H12Y 8497   4.504   3.513   4.937
   89SAPC  C313 8498   4.325   3.483   5.052
   89SAPC  H13X 8499   4.291   3.394   4.995
   89SAPC  H13Y 8500   4.287   3.574   5.001
   89SAPC  C314 8501   4.252   3.470   5.190
   89SAPC  H14X 8502   4.145   3.486   5.163
   89SAPC  H14Y 8503   4.292   3.553   5.253
   89SAPC  C315 8504   4.273   3.332   5.247
   89SAPC  H15X 8505   4.367   3.327   5.305
   89SAPC  H15Y 8506   4.279   3.260   5.163
   89SAPC  C316 8507   4.152   3.288   5.339
   89SAPC  H16X 8508   4.170   3.184   5.373
   89SAPC  H16Y 8509   4.056   3.292   5.284
   89SAPC  C317 8510   4.138   3.377   5.462
   89SAPC  H17X 8511   4.083   3.470   5.436
   89SAPC  H17Y 8512   4.243   3.396   5.493
   89SAPC  C318 8513   4.059   3.301   5.567
   89SAPC  H18X 8514   3.971   3.252   5.519
   89SAPC  H18Y 8515   4.029   3.363   5.654
   89SAPC  H18Z 8516   4.118   3.219   5.613
   90SAPC     N 8517   2.673   5.507   6.977
   90SAPC   C12 8518   2.769   5.472   6.866
   90SAPC  H12A 8519   2.772   5.364   6.855
   90SAPC  H12B 8520   2.869   5.502   6.890
   90SAPC   C13 8521   2.539   5.451   6.967
   90SAPC  H13A 8522   2.484   5.493   6.884
   90SAPC  H13B 8523   2.551   5.344   6.957
   90SAPC  H13C 8524   2.478   5.454   7.056
   90SAPC   C14 8525   2.736   5.471   7.109
   90SAPC  H14A 8526   2.821   5.537   7.124
   90SAPC  H14B 8527   2.670   5.484   7.193
   90SAPC  H14C 8528   2.776   5.370   7.111
   90SAPC   C15 8529   2.656   5.655   6.976
   90SAPC  H15A 8530   2.738   5.695   7.034
   90SAPC  H15B 8531   2.644   5.691   6.875
   90SAPC  H15C 8532   2.573   5.678   7.040
   90SAPC   C11 8533   2.738   5.530   6.724
   90SAPC  H11A 8534   2.638   5.495   6.691
   90SAPC  H11B 8535   2.810   5.494   6.648
   90SAPC     P 8536   2.878   5.744   6.729
   90SAPC   O13 8537   2.857   5.893   6.735
   90SAPC   O14 8538   2.950   5.684   6.842
   90SAPC   O12 8539   2.743   5.669   6.718
   90SAPC   O11 8540   2.947   5.699   6.594
   90SAPC    C1 8541   2.961   5.786   6.478
   90SAPC    HA 8542   2.964   5.727   6.384
   90SAPC    HB 8543   2.882   5.865   6.470
   90SAPC    C2 8544   3.103   5.861   6.481
   90SAPC    HS 8545   3.106   5.948   6.551
   90SAPC   O21 8546   3.127   5.912   6.354
   90SAPC   C21 8547   3.219   6.002   6.336
   90SAPC   O22 8548   3.301   6.042   6.423
   90SAPC   C22 8549   3.237   6.034   6.184
   90SAPC   H2R 8550   3.196   5.945   6.131
   90SAPC   H2S 8551   3.172   6.122   6.164
   90SAPC    C3 8552   3.224   5.770   6.525
   90SAPC    HX 8553   3.192   5.733   6.625
   90SAPC    HY 8554   3.311   5.838   6.538
   90SAPC   O31 8555   3.240   5.658   6.434
   90SAPC   C31 8556   3.346   5.656   6.355
   90SAPC   O32 8557   3.439   5.737   6.351
   90SAPC   C32 8558   3.330   5.537   6.268
   90SAPC   H2X 8559   3.292   5.452   6.330
   90SAPC   H2Y 8560   3.430   5.500   6.237
   90SAPC   C23 8561   3.377   6.077   6.120
   90SAPC   H3R 8562   3.443   5.989   6.105
   90SAPC   H3S 8563   3.426   6.142   6.196
   90SAPC   C24 8564   3.354   6.164   5.996
   90SAPC   H4R 8565   3.341   6.271   6.020
   90SAPC   H4S 8566   3.267   6.123   5.939
   90SAPC   C25 8567   3.480   6.148   5.918
   90SAPC   H5R 8568   3.580   6.137   5.962
   90SAPC   C26 8569   3.485   6.151   5.778
   90SAPC   H6R 8570   3.580   6.139   5.724
   90SAPC   C27 8571   3.368   6.156   5.682
   90SAPC   H7R 8572   3.352   6.264   5.663
   90SAPC   H7S 8573   3.278   6.120   5.735
   90SAPC   C28 8574   3.377   6.091   5.549
   90SAPC   H8R 8575   3.443   6.003   5.555
   90SAPC   C29 8576   3.314   6.123   5.434
   90SAPC   H9R 8577   3.323   6.053   5.350
   90SAPC  C210 8578   3.230   6.244   5.412
   90SAPC  H10R 8579   3.290   6.325   5.366
   90SAPC  H10S 8580   3.189   6.276   5.510
   90SAPC  C211 8581   3.100   6.212   5.342
   90SAPC  H11R 8582   3.035   6.144   5.400
   90SAPC  C212 8583   3.053   6.258   5.230
   90SAPC  H12R 8584   2.949   6.240   5.197
   90SAPC  C213 8585   3.151   6.340   5.143
   90SAPC  H13R 8586   3.255   6.306   5.162
   90SAPC  H13S 8587   3.146   6.445   5.178
   90SAPC  C214 8588   3.115   6.330   4.993
   90SAPC  H14R 8589   3.166   6.252   4.936
   90SAPC  C215 8590   3.026   6.406   4.927
   90SAPC  H15R 8591   3.009   6.381   4.822
   90SAPC  C216 8592   2.942   6.516   4.979
   90SAPC  H16R 8593   2.919   6.511   5.087
   90SAPC  H16S 8594   2.842   6.502   4.933
   90SAPC  C217 8595   2.993   6.658   4.932
   90SAPC  H17R 8596   3.093   6.656   4.980
   90SAPC  H17S 8597   2.942   6.740   4.985
   90SAPC  C218 8598   3.000   6.680   4.783
   90SAPC  H18R 8599   3.029   6.585   4.734
   90SAPC  H18S 8600   3.087   6.747   4.765
   90SAPC  C219 8601   2.875   6.744   4.731
   90SAPC  H19R 8602   2.868   6.841   4.785
   90SAPC  H19S 8603   2.781   6.687   4.749
   90SAPC  C220 8604   2.890   6.769   4.583
   90SAPC  H20R 8605   2.987   6.821   4.567
   90SAPC  H20S 8606   2.812   6.838   4.546
   90SAPC  H20T 8607   2.872   6.675   4.527
   90SAPC   C33 8608   3.247   5.564   6.138
   90SAPC   H3X 8609   3.162   5.635   6.151
   90SAPC   H3Y 8610   3.209   5.466   6.104
   90SAPC   C34 8611   3.325   5.626   6.025
   90SAPC   H4X 8612   3.404   5.556   5.990
   90SAPC   H4Y 8613   3.377   5.718   6.059
   90SAPC   C35 8614   3.240   5.648   5.901
   90SAPC   H5X 8615   3.160   5.725   5.898
   90SAPC   H5Y 8616   3.188   5.552   5.879
   90SAPC   C36 8617   3.331   5.668   5.775
   90SAPC   H6X 8618   3.386   5.575   5.750
   90SAPC   H6Y 8619   3.409   5.745   5.796
   90SAPC   C37 8620   3.238   5.707   5.654
   90SAPC   H7X 8621   3.197   5.805   5.685
   90SAPC   H7Y 8622   3.161   5.629   5.638
   90SAPC   C38 8623   3.312   5.727   5.526
   90SAPC   H8X 8624   3.348   5.625   5.500
   90SAPC   H8Y 8625   3.401   5.793   5.529
   90SAPC   C39 8626   3.229   5.765   5.409
   90SAPC   H9X 8627   3.169   5.856   5.430
   90SAPC   H9Y 8628   3.158   5.683   5.384
   90SAPC  C310 8629   3.295   5.798   5.272
   90SAPC  H10X 8630   3.322   5.705   5.219
   90SAPC  H10Y 8631   3.379   5.869   5.289
   90SAPC  C311 8632   3.191   5.873   5.184
   90SAPC  H11X 8633   3.150   5.969   5.223
   90SAPC  H11Y 8634   3.103   5.805   5.179
   90SAPC  C312 8635   3.218   5.907   5.039
   90SAPC  H12X 8636   3.136   5.966   4.994
   90SAPC  H12Y 8637   3.224   5.810   4.984
   90SAPC  C313 8638   3.344   5.997   5.012
   90SAPC  H13X 8639   3.434   5.936   5.037
   90SAPC  H13Y 8640   3.351   6.091   5.070
   90SAPC  C314 8641   3.346   6.040   4.863
   90SAPC  H14X 8642   3.254   6.101   4.847
   90SAPC  H14Y 8643   3.348   5.955   4.792
   90SAPC  C315 8644   3.473   6.107   4.823
   90SAPC  H15X 8645   3.552   6.030   4.824
   90SAPC  H15Y 8646   3.505   6.176   4.904
   90SAPC  C316 8647   3.480   6.165   4.687
   90SAPC  H16X 8648   3.554   6.245   4.667
   90SAPC  H16Y 8649   3.386   6.222   4.675
   90SAPC  C317 8650   3.495   6.064   4.569
   90SAPC  H17X 8651   3.412   5.992   4.587
   90SAPC  H17Y 8652   3.598   6.022   4.565
   90SAPC  C318 8653   3.470   6.129   4.436
   90SAPC  H18X 8654   3.526   6.225   4.430
   90SAPC  H18Y 8655   3.367   6.164   4.416
   90SAPC  H18Z 8656   3.502   6.062   4.354
   91SAPC     N 8657   0.155   5.751   6.990
   91SAPC   C12 8658   0.053   5.726   6.875
   91SAPC  H12A 8659   0.024   5.823   6.838
   91SAPC  H12B 8660   6.807   5.674   6.911
   91SAPC   C13 8661   0.241   5.633   7.026
   91SAPC  H13A 8662   0.181   5.546   7.047
   91SAPC  H13B 8663   0.290   5.600   6.936
   91SAPC  H13C 8664   0.312   5.642   7.107
   91SAPC   C14 8665   0.252   5.860   6.949
   91SAPC  H14A 8666   0.311   5.900   7.030
   91SAPC  H14B 8667   0.318   5.826   6.871
   91SAPC  H14C 8668   0.192   5.933   6.897
   91SAPC   C15 8669   0.089   5.792   7.116
   91SAPC  H15A 8670   0.158   5.793   7.199
   91SAPC  H15B 8671   0.033   5.884   7.107
   91SAPC  H15C 8672   0.021   5.711   7.138
   91SAPC   C11 8673   0.108   5.654   6.753
   91SAPC  H11A 8674   0.027   5.638   6.679
   91SAPC  H11B 8675   0.140   5.556   6.795
   91SAPC     P 8676   0.172   5.837   6.584
   91SAPC   O13 8677   0.042   5.904   6.629
   91SAPC   O14 8678   0.289   5.924   6.547
   91SAPC   O12 8679   0.219   5.725   6.685
   91SAPC   O11 8680   0.136   5.751   6.456
   91SAPC    C1 8681   0.184   5.623   6.442
   91SAPC    HA 8682   0.290   5.615   6.476
   91SAPC    HB 8683   0.134   5.558   6.517
   91SAPC    C2 8684   0.159   5.567   6.301
   91SAPC    HS 8685   0.214   5.472   6.286
   91SAPC   O21 8686   0.210   5.649   6.196
   91SAPC   C21 8687   0.334   5.678   6.184
   91SAPC   O22 8688   0.432   5.652   6.253
   91SAPC   C22 8689   0.348   5.737   6.048
   91SAPC   H2R 8690   0.271   5.687   5.986
   91SAPC   H2S 8691   0.326   5.845   6.035
   91SAPC    C3 8692   0.006   5.541   6.274
   91SAPC    HX 8693   6.789   5.632   6.301
   91SAPC    HY 8694   6.805   5.456   6.332
   91SAPC   O31 8695   6.830   5.509   6.133
   91SAPC   C31 8696   6.737   5.582   6.073
   91SAPC   O32 8697   6.657   5.657   6.124
   91SAPC   C32 8698   6.738   5.550   5.922
   91SAPC   H2X 8699   6.732   5.440   5.919
   91SAPC   H2Y 8700   6.839   5.579   5.885
   91SAPC   C23 8701   0.481   5.717   5.976
   91SAPC   H3R 8702   0.520   5.616   6.002
   91SAPC   H3S 8703   0.556   5.787   6.017
   91SAPC   C24 8704   0.466   5.741   5.824
   91SAPC   H4R 8705   0.383   5.675   5.791
   91SAPC   H4S 8706   0.560   5.702   5.779
   91SAPC   C25 8707   0.442   5.883   5.793
   91SAPC   H5R 8708   0.500   5.955   5.852
   91SAPC   C26 8709   0.353   5.931   5.700
   91SAPC   H6R 8710   0.349   6.040   5.682
   91SAPC   C27 8711   0.256   5.854   5.618
   91SAPC   H7R 8712   0.222   5.759   5.666
   91SAPC   H7S 8713   0.305   5.825   5.523
   91SAPC   C28 8714   0.132   5.936   5.573
   91SAPC   H8R 8715   0.103   6.027   5.627
   91SAPC   C29 8716   0.055   5.905   5.465
   91SAPC   H9R 8717   6.810   5.970   5.443
   91SAPC  C210 8718   0.062   5.789   5.368
   91SAPC  H10R 8719   0.133   5.715   5.410
   91SAPC  H10S 8720   0.113   5.834   5.281
   91SAPC  C211 8721   6.772   5.730   5.330
   91SAPC  H11R 8722   6.746   5.627   5.356
   91SAPC  C212 8723   6.682   5.792   5.248
   91SAPC  H12R 8724   6.593   5.736   5.215
   91SAPC  C213 8725   6.695   5.928   5.184
   91SAPC  H13R 8726   6.765   5.920   5.098
   91SAPC  H13S 8727   6.736   6.005   5.253
   91SAPC  C214 8728   6.554   5.972   5.140
   91SAPC  H14R 8729   6.490   6.006   5.223
   91SAPC  C215 8730   6.527   6.002   5.011
   91SAPC  H15R 8731   6.425   6.030   4.980
   91SAPC  C216 8732   6.614   5.985   4.893
   91SAPC  H16R 8733   6.712   6.028   4.922
   91SAPC  H16S 8734   6.572   6.027   4.799
   91SAPC  C217 8735   6.644   5.850   4.852
   91SAPC  H17R 8736   6.684   5.786   4.933
   91SAPC  H17S 8737   6.713   5.844   4.765
   91SAPC  C218 8738   6.527   5.763   4.794
   91SAPC  H18R 8739   6.445   5.775   4.867
   91SAPC  H18S 8740   6.569   5.661   4.800
   91SAPC  C219 8741   6.484   5.791   4.653
   91SAPC  H19R 8742   6.561   5.813   4.576
   91SAPC  H19S 8743   6.416   5.879   4.658
   91SAPC  C220 8744   6.405   5.673   4.611
   91SAPC  H20R 8745   6.352   5.698   4.517
   91SAPC  H20S 8746   6.326   5.645   4.684
   91SAPC  H20T 8747   6.464   5.583   4.583
   91SAPC   C33 8748   6.628   5.612   5.834
   91SAPC   H3X 8749   6.658   5.718   5.818
   91SAPC   H3Y 8750   6.533   5.601   5.890
   91SAPC   C34 8751   6.618   5.550   5.697
   91SAPC   H4X 8752   6.584   5.445   5.707
   91SAPC   H4Y 8753   6.721   5.541   5.656
   91SAPC   C35 8754   6.547   5.641   5.595
   91SAPC   H5X 8755   6.562   5.595   5.496
   91SAPC   H5Y 8756   6.600   5.738   5.582
   91SAPC   C36 8757   6.399   5.676   5.626
   91SAPC   H6X 8758   6.402   5.710   5.731
   91SAPC   H6Y 8759   6.335   5.585   5.624
   91SAPC   C37 8760   6.339   5.786   5.537
   91SAPC   H7X 8761   6.404   5.875   5.542
   91SAPC   H7Y 8762   6.245   5.823   5.583
   91SAPC   C38 8763   6.313   5.739   5.395
   91SAPC   H8X 8764   6.249   5.649   5.396
   91SAPC   H8Y 8765   6.411   5.700   5.359
   91SAPC   C39 8766   6.242   5.858   5.316
   91SAPC   H9X 8767   6.317   5.936   5.340
   91SAPC   H9Y 8768   6.151   5.866   5.379
   91SAPC  C310 8769   6.219   5.839   5.171
   91SAPC  H10X 8770   6.149   5.753   5.167
   91SAPC  H10Y 8771   6.311   5.810   5.116
   91SAPC  C311 8772   6.148   5.964   5.099
   91SAPC  H11X 8773   6.217   6.050   5.102
   91SAPC  H11Y 8774   6.053   5.987   5.152
   91SAPC  C312 8775   6.114   5.940   4.949
   91SAPC  H12X 8776   6.031   5.867   4.939
   91SAPC  H12Y 8777   6.205   5.910   4.892
   91SAPC  C313 8778   6.066   6.071   4.898
   91SAPC  H13X 8779   6.021   6.133   4.979
   91SAPC  H13Y 8780   5.990   6.063   4.818
   91SAPC  C314 8781   6.182   6.149   4.842
   91SAPC  H14X 8782   6.232   6.106   4.753
   91SAPC  H14Y 8783   6.255   6.148   4.925
   91SAPC  C315 8784   6.150   6.302   4.807
   91SAPC  H15X 8785   6.249   6.346   4.784
   91SAPC  H15Y 8786   6.088   6.322   4.897
   91SAPC  C316 8787   6.053   6.328   4.691
   91SAPC  H16X 8788   5.970   6.254   4.684
   91SAPC  H16Y 8789   6.104   6.307   4.594
   91SAPC  C317 8790   5.996   6.465   4.693
   91SAPC  H17X 8791   5.941   6.483   4.788
   91SAPC  H17Y 8792   5.916   6.463   4.615
   91SAPC  C318 8793   6.092   6.579   4.665
   91SAPC  H18X 8794   6.187   6.565   4.721
   91SAPC  H18Y 8795   6.056   6.677   4.700
   91SAPC  H18Z 8796   6.117   6.585   4.557
   92SAPC     N 8797   5.830   4.693   6.719
   92SAPC   C12 8798   5.812   4.829   6.665
   92SAPC  H12A 8799   5.734   4.884   6.716
   92SAPC  H12B 8800   5.772   4.821   6.565
   92SAPC   C13 8801   5.896   4.698   6.855
   92SAPC  H13A 8802   5.909   4.600   6.898
   92SAPC  H13B 8803   5.993   4.744   6.862
   92SAPC  H13C 8804   5.825   4.746   6.921
   92SAPC   C14 8805   5.694   4.636   6.739
   92SAPC  H14A 8806   5.698   4.535   6.778
   92SAPC  H14B 8807   5.624   4.690   6.801
   92SAPC  H14C 8808   5.638   4.623   6.647
   92SAPC   C15 8809   5.909   4.615   6.615
   92SAPC  H15A 8810   5.923   4.520   6.666
   92SAPC  H15B 8811   5.864   4.610   6.517
   92SAPC  H15C 8812   6.002   4.667   6.597
   92SAPC   C11 8813   5.933   4.921   6.637
   92SAPC  H11A 8814   5.897   5.023   6.611
   92SAPC  H11B 8815   5.976   4.874   6.547
   92SAPC     P 8816   6.182   4.905   6.745
   92SAPC   O13 8817   6.240   5.003   6.837
   92SAPC   O14 8818   6.224   4.760   6.766
   92SAPC   O12 8819   6.031   4.923   6.740
   92SAPC   O11 8820   6.227   4.943   6.599
   92SAPC    C1 8821   6.198   5.076   6.547
   92SAPC    HA 8822   6.104   5.087   6.490
   92SAPC    HB 8823   6.202   5.153   6.628
   92SAPC    C2 8824   6.309   5.115   6.450
   92SAPC    HS 8825   6.289   5.212   6.399
   92SAPC   O21 8826   6.322   5.018   6.345
   92SAPC   C21 8827   6.222   5.020   6.254
   92SAPC   O22 8828   6.130   5.097   6.237
   92SAPC   C22 8829   6.250   4.910   6.151
   92SAPC   H2R 8830   6.349   4.930   6.105
   92SAPC   H2S 8831   6.239   4.815   6.208
   92SAPC    C3 8832   6.446   5.129   6.524
   92SAPC    HX 8833   6.457   5.033   6.579
   92SAPC    HY 8834   6.425   5.203   6.605
   92SAPC   O31 8835   6.559   5.172   6.441
   92SAPC   C31 8836   6.618   5.072   6.382
   92SAPC   O32 8837   6.592   4.955   6.395
   92SAPC   C32 8838   6.707   5.123   6.265
   92SAPC   H2X 8839   6.812   5.116   6.300
   92SAPC   H2Y 8840   6.688   5.230   6.242
   92SAPC   C23 8841   6.165   4.919   6.016
   92SAPC   H3R 8842   6.191   5.017   5.970
   92SAPC   H3S 8843   6.057   4.897   6.032
   92SAPC   C24 8844   6.217   4.809   5.911
   92SAPC   H4R 8845   6.328   4.815   5.904
   92SAPC   H4S 8846   6.168   4.840   5.816
   92SAPC   C25 8847   6.163   4.675   5.950
   92SAPC   H5R 8848   6.173   4.659   6.058
   92SAPC   C26 8849   6.115   4.578   5.869
   92SAPC   H6R 8850   6.055   4.504   5.924
   92SAPC   C27 8851   6.090   4.592   5.724
   92SAPC   H7R 8852   6.149   4.514   5.671
   92SAPC   H7S 8853   6.138   4.685   5.686
   92SAPC   C28 8854   5.946   4.575   5.681
   92SAPC   H8R 8855   5.880   4.521   5.750
   92SAPC   C29 8856   5.901   4.625   5.568
   92SAPC   H9R 8857   5.795   4.611   5.541
   92SAPC  C210 8858   5.969   4.700   5.458
   92SAPC  H10R 8859   6.060   4.750   5.499
   92SAPC  H10S 8860   5.903   4.780   5.419
   92SAPC  C211 8861   6.023   4.603   5.348
   92SAPC  H11R 8862   6.039   4.497   5.374
   92SAPC  C212 8863   6.058   4.640   5.221
   92SAPC  H12R 8864   6.100   4.567   5.151
   92SAPC  C213 8865   6.029   4.776   5.158
   92SAPC  H13R 8866   6.117   4.794   5.093
   92SAPC  H13S 8867   6.035   4.846   5.244
   92SAPC  C214 8868   5.898   4.808   5.098
   92SAPC  H14R 8869   5.832   4.862   5.167
   92SAPC  C215 8870   5.847   4.774   4.977
   92SAPC  H15R 8871   5.744   4.793   4.945
   92SAPC  C216 8872   5.922   4.696   4.870
   92SAPC  H16R 8873   5.867   4.600   4.868
   92SAPC  H16S 8874   6.026   4.675   4.903
   92SAPC  C217 8875   5.908   4.765   4.739
   92SAPC  H17R 8876   5.964   4.860   4.731
   92SAPC  H17S 8877   5.799   4.786   4.725
   92SAPC  C218 8878   5.962   4.676   4.628
   92SAPC  H18R 8879   5.888   4.593   4.621
   92SAPC  H18S 8880   6.052   4.636   4.680
   92SAPC  C219 8881   6.001   4.723   4.488
   92SAPC  H19R 8882   6.090   4.789   4.486
   92SAPC  H19S 8883   5.920   4.782   4.442
   92SAPC  C220 8884   6.033   4.605   4.397
   92SAPC  H20R 8885   5.940   4.554   4.367
   92SAPC  H20S 8886   6.098   4.531   4.448
   92SAPC  H20T 8887   6.090   4.640   4.308
   92SAPC   C33 8888   6.697   5.038   6.142
   92SAPC   H3X 8889   6.592   5.036   6.105
   92SAPC   H3Y 8890   6.734   4.935   6.162
   92SAPC   C34 8891   6.777   5.105   6.026
   92SAPC   H4X 8892   0.045   5.107   6.047
   92SAPC   H4Y 8893   6.735   5.208   6.020
   92SAPC   C35 8894   6.770   5.036   5.889
   92SAPC   H5X 8895   6.667   5.019   5.852
   92SAPC   H5Y 8896   6.824   4.939   5.892
   92SAPC   C36 8897   0.003   5.109   5.772
   92SAPC   H6X 8898   0.112   5.113   5.797
   92SAPC   H6Y 8899   6.807   5.213   5.781
   92SAPC   C37 8900   6.820   5.044   5.639
   92SAPC   H7X 8901   6.712   5.023   5.633
   92SAPC   H7Y 8902   0.029   4.947   5.621
   92SAPC   C38 8903   0.019   5.135   5.520
   92SAPC   H8X 8904   0.125   5.165   5.528
   92SAPC   H8Y 8905   6.813   5.236   5.525
   92SAPC   C39 8906   6.834   5.078   5.375
   92SAPC   H9X 8907   6.729   5.042   5.366
   92SAPC   H9Y 8908   0.039   4.978   5.356
   92SAPC  C310 8909   0.040   5.169   5.269
   92SAPC  H10X 8910   0.151   5.175   5.272
   92SAPC  H10Y 8911   0.005   5.274   5.271
   92SAPC  C311 8912   6.840   5.119   5.138
   92SAPC  H11X 8913   6.732   5.094   5.126
   92SAPC  H11Y 8914   0.064   5.034   5.107
   92SAPC  C312 8915   0.033   5.209   5.021
   92SAPC  H12X 8916   0.140   5.208   4.991
   92SAPC  H12Y 8917   6.835   5.311   5.040
   92SAPC  C313 8918   6.787   5.180   4.894
   92SAPC  H13X 8919   6.680   5.184   4.924
   92SAPC  H13Y 8920   6.801   5.073   4.867
   92SAPC  C314 8921   6.823   5.290   4.791
   92SAPC  H14X 8922   0.091   5.286   4.770
   92SAPC  H14Y 8923   6.815   5.385   4.848
   92SAPC  C315 8924   6.747   5.288   4.656
   92SAPC  H15X 8925   6.761   5.379   4.594
   92SAPC  H15Y 8926   6.640   5.283   4.684
   92SAPC  C316 8927   6.794   5.167   4.570
   92SAPC  H16X 8928   6.781   5.067   4.617
   92SAPC  H16Y 8929   0.062   5.181   4.556
   92SAPC  C317 8930   6.718   5.159   4.431
   92SAPC  H17X 8931   6.612   5.127   4.442
   92SAPC  H17Y 8932   6.776   5.080   4.380
   92SAPC  C318 8933   6.730   5.283   4.336
   92SAPC  H18X 8934   6.832   5.295   4.295
   92SAPC  H18Y 8935   6.723   5.374   4.398
   92SAPC  H18Z 8936   6.668   5.272   4.244
   93SAPC     N 8937   1.089   0.203   6.468
   93SAPC   C12 8938   1.134   0.150   6.342
   93SAPC  H12A 8939   1.237   0.118   6.354
   93SAPC  H12B 8940   1.140   0.235   6.275
   93SAPC   C13 8941   1.131   0.119   6.582
   93SAPC  H13A 8942   1.239   0.106   6.585
   93SAPC  H13B 8943   1.095   0.159   6.675
   93SAPC  H13C 8944   1.083   0.023   6.570
   93SAPC   C14 8945   1.149   0.344   6.489
   93SAPC  H14A 8946   1.126   0.404   6.403
   93SAPC  H14B 8947   1.105   0.396   6.573
   93SAPC  H14C 8948   1.252   0.341   6.523
   93SAPC   C15 8949   0.942   0.212   6.474
   93SAPC  H15A 8950   0.899   0.275   6.397
   93SAPC  H15B 8951   0.892   0.116   6.473
   93SAPC  H15C 8952   0.911   0.259   6.566
   93SAPC   C11 8953   1.071   0.024   6.279
   93SAPC  H11A 8954   1.124   6.840   6.185
   93SAPC  H11B 8955   0.969   0.056   6.249
   93SAPC     P 8956   1.186   6.656   6.385
   93SAPC   O13 8957   1.304   6.728   6.442
   93SAPC   O14 8958   1.142   6.527   6.447
   93SAPC   O12 8959   1.066   6.751   6.368
   93SAPC   O11 8960   1.225   6.626   6.232
   93SAPC    C1 8961   1.192   6.507   6.164
   93SAPC    HA 8962   1.282   6.443   6.154
   93SAPC    HB 8963   1.122   6.443   6.221
   93SAPC    C2 8964   1.146   6.521   6.014
   93SAPC    HS 8965   1.194   6.444   5.950
   93SAPC   O21 8966   1.176   6.655   5.961
   93SAPC   C21 8967   1.304   6.679   5.954
   93SAPC   O22 8968   1.394   6.597   5.946
   93SAPC   C22 8969   1.324   6.833   5.953
   93SAPC   H2R 8970   1.252   0.056   6.009
   93SAPC   H2S 8971   1.426   0.010   5.993
   93SAPC    C3 8972   0.990   6.502   5.998
   93SAPC    HX 8973   0.949   6.601   6.029
   93SAPC    HY 8974   0.958   6.427   6.073
   93SAPC   O31 8975   0.959   6.462   5.867
   93SAPC   C31 8976   0.838   6.487   5.818
   93SAPC   O32 8977   0.749   6.547   5.871
   93SAPC   C32 8978   0.833   6.421   5.678
   93SAPC   H2X 8979   0.817   6.312   5.694
   93SAPC   H2Y 8980   0.931   6.441   5.630
   93SAPC   C23 8981   1.342   0.036   5.806
   93SAPC   H3R 8982   1.431   6.822   5.770
   93SAPC   H3S 8983   1.376   0.141   5.814
   93SAPC   C24 8984   1.229   0.003   5.710
   93SAPC   H4R 8985   1.134   0.043   5.751
   93SAPC   H4S 8986   1.199   6.737   5.707
   93SAPC   C25 8987   1.235   0.061   5.568
   93SAPC   H5R 8988   1.290   0.154   5.550
   93SAPC   C26 8989   1.187   0.004   5.457
   93SAPC   H6R 8990   1.218   0.037   5.356
   93SAPC   C27 8991   1.106   6.720   5.458
   93SAPC   H7R 8992   1.036   6.715   5.372
   93SAPC   H7S 8993   1.043   6.712   5.549
   93SAPC   C28 8994   1.200   6.604   5.451
   93SAPC   H8R 8995   1.262   6.590   5.540
   93SAPC   C29 8996   1.214   6.518   5.349
   93SAPC   H9R 8997   1.276   6.432   5.375
   93SAPC  C210 8998   1.139   6.496   5.219
   93SAPC  H10R 8999   1.046   6.556   5.208
   93SAPC  H10S 9000   1.102   6.392   5.211
   93SAPC  C211 9001   1.225   6.530   5.095
   93SAPC  H11R 9002   1.330   6.559   5.109
   93SAPC  C212 9003   1.181   6.541   4.969
   93SAPC  H12R 9004   1.251   6.548   4.885
   93SAPC  C213 9005   1.037   6.522   4.927
   93SAPC  H13R 9006   0.989   6.619   4.901
   93SAPC  H13S 9007   0.976   6.487   5.013
   93SAPC  C214 9008   1.029   6.423   4.811
   93SAPC  H14R 9009   1.103   6.341   4.807
   93SAPC  C215 9010   0.934   6.414   4.721
   93SAPC  H15R 9011   0.929   6.336   4.643
   93SAPC  C216 9012   0.806   6.496   4.720
   93SAPC  H16R 9013   0.823   6.587   4.781
   93SAPC  H16S 9014   0.714   6.443   4.752
   93SAPC  C217 9015   0.762   6.550   4.582
   93SAPC  H17R 9016   0.845   6.614   4.545
   93SAPC  H17S 9017   0.674   6.616   4.599
   93SAPC  C218 9018   0.731   6.436   4.484
   93SAPC  H18R 9019   0.637   6.388   4.520
   93SAPC  H18S 9020   0.810   6.357   4.481
   93SAPC  C219 9021   0.723   6.484   4.333
   93SAPC  H19R 9022   0.810   6.550   4.315
   93SAPC  H19S 9023   0.630   6.542   4.314
   93SAPC  C220 9024   0.728   6.374   4.228
   93SAPC  H20R 9025   0.816   6.307   4.243
   93SAPC  H20S 9026   0.739   6.423   4.129
   93SAPC  H20T 9027   0.650   6.296   4.228
   93SAPC   C33 9028   0.721   6.493   5.593
   93SAPC   H3X 9029   0.726   6.603   5.605
   93SAPC   H3Y 9030   0.622   6.470   5.638
   93SAPC   C34 9031   0.722   6.464   5.443
   93SAPC   H4X 9032   0.697   6.356   5.436
   93SAPC   H4Y 9033   0.822   6.476   5.396
   93SAPC   C35 9034   0.623   6.535   5.352
   93SAPC   H5X 9035   0.656   6.639   5.329
   93SAPC   H5Y 9036   0.526   6.545   5.405
   93SAPC   C36 9037   0.608   6.462   5.216
   93SAPC   H6X 9038   0.577   6.359   5.240
   93SAPC   H6Y 9039   0.710   6.450   5.173
   93SAPC   C37 9040   0.510   6.538   5.121
   93SAPC   H7X 9041   0.531   6.647   5.126
   93SAPC   H7Y 9042   0.410   6.544   5.168
   93SAPC   C38 9043   0.495   6.478   4.983
   93SAPC   H8X 9044   0.478   6.371   5.004
   93SAPC   H8Y 9045   0.595   6.483   4.935
   93SAPC   C39 9046   0.385   6.545   4.895
   93SAPC   H9X 9047   0.399   6.655   4.883
   93SAPC   H9Y 9048   0.295   6.520   4.956
   93SAPC  C310 9049   0.354   6.494   4.759
   93SAPC  H10X 9050   0.329   6.386   4.765
   93SAPC  H10Y 9051   0.450   6.495   4.702
   93SAPC  C311 9052   0.222   6.549   4.697
   93SAPC  H11X 9053   0.228   6.656   4.669
   93SAPC  H11Y 9054   0.144   6.551   4.776
   93SAPC  C312 9055   0.179   6.481   4.565
   93SAPC  H12X 9056   0.072   6.503   4.545
   93SAPC  H12Y 9057   0.191   6.371   4.572
   93SAPC  C313 9058   0.266   6.527   4.444
   93SAPC  H13X 9059   0.375   6.509   4.460
   93SAPC  H13Y 9060   0.244   6.636   4.445
   93SAPC  C314 9061   0.221   6.465   4.315
   93SAPC  H14X 9062   0.112   6.485   4.301
   93SAPC  H14Y 9063   0.234   6.355   4.315
   93SAPC  C315 9064   0.290   6.529   4.195
   93SAPC  H15X 9065   0.401   6.528   4.209
   93SAPC  H15Y 9066   0.259   6.636   4.184
   93SAPC  C316 9067   0.269   6.454   4.067
   93SAPC  H16X 9068   0.159   6.447   4.056
   93SAPC  H16Y 9069   0.301   6.348   4.063
   93SAPC  C317 9070   0.332   6.532   3.950
   93SAPC  H17X 9071   0.442   6.542   3.961
   93SAPC  H17Y 9072   0.303   6.639   3.955
   93SAPC  C318 9073   0.310   6.498   3.802
   93SAPC  H18X 9074   0.204   6.510   3.769
   93SAPC  H18Y 9075   0.345   6.393   3.787
   93SAPC  H18Z 9076   0.364   6.571   3.738
   94SAPC     N 9077   6.666   4.868   7.019
   94SAPC   C12 9078   6.772   4.756   7.027
   94SAPC  H12A 9079   6.806   4.727   6.929
   94SAPC  H12B 9080   6.716   4.671   7.061
   94SAPC   C13 9081   6.547   4.828   6.928
   94SAPC  H13A 9082   6.470   4.903   6.929
   94SAPC  H13B 9083   6.581   4.829   6.826
   94SAPC  H13C 9084   6.505   4.731   6.952
   94SAPC   C14 9085   6.608   4.896   7.156
   94SAPC  H14A 9086   6.511   4.943   7.144
   94SAPC  H14B 9087   6.597   4.807   7.215
   94SAPC  H14C 9088   6.664   4.969   7.213
   94SAPC   C15 9089   6.733   4.990   6.970
   94SAPC  H15A 9090   6.818   5.013   7.032
   94SAPC  H15B 9091   6.763   4.984   6.866
   94SAPC  H15C 9092   6.660   5.069   6.975
   94SAPC   C11 9093   0.057   4.778   7.122
   94SAPC  H11A 9094   0.096   4.674   7.135
   94SAPC  H11B 9095   0.031   4.819   7.222
   94SAPC     P 9096   0.229   4.814   6.925
   94SAPC   O13 9097   0.305   4.931   6.874
   94SAPC   O14 9098   0.307   4.690   6.955
   94SAPC   O12 9099   0.152   4.864   7.063
   94SAPC   O11 9100   0.111   4.780   6.826
   94SAPC    C1 9101   0.118   4.669   6.738
   94SAPC    HA 9102   0.130   4.573   6.792
   94SAPC    HB 9103   0.020   4.662   6.687
   94SAPC    C2 9104   0.234   4.685   6.626
   94SAPC    HS 9105   0.326   4.694   6.687
   94SAPC   O21 9106   0.213   4.806   6.548
   94SAPC   C21 9107   0.318   4.858   6.498
   94SAPC   O22 9108   0.430   4.831   6.523
   94SAPC   C22 9109   0.262   4.972   6.417
   94SAPC   H2R 9110   0.197   4.942   6.332
   94SAPC   H2S 9111   0.191   5.033   6.476
   94SAPC    C3 9112   0.234   4.559   6.530
   94SAPC    HX 9113   0.271   4.469   6.583
   94SAPC    HY 9114   0.300   4.585   6.445
   94SAPC   O31 9115   0.099   4.525   6.495
   94SAPC   C31 9116   0.060   4.554   6.370
   94SAPC   O32 9117   0.138   4.591   6.284
   94SAPC   C32 9118   6.761   4.524   6.359
   94SAPC   H2X 9119   6.705   4.617   6.384
   94SAPC   H2Y 9120   6.727   4.463   6.445
   94SAPC   C23 9121   0.367   5.072   6.367
   94SAPC   H3R 9122   0.443   5.008   6.316
   94SAPC   H3S 9123   0.418   5.121   6.452
   94SAPC   C24 9124   0.320   5.184   6.269
   94SAPC   H4R 9125   0.245   5.245   6.324
   94SAPC   H4S 9126   0.261   5.141   6.186
   94SAPC   C25 9127   0.440   5.267   6.224
   94SAPC   H5R 9128   0.500   5.299   6.310
   94SAPC   C26 9129   0.471   5.306   6.096
   94SAPC   H6R 9130   0.563   5.364   6.082
   94SAPC   C27 9131   0.395   5.281   5.963
   94SAPC   H7R 9132   0.354   5.179   5.975
   94SAPC   H7S 9133   0.473   5.276   5.884
   94SAPC   C28 9134   0.295   5.394   5.951
   94SAPC   H8R 9135   0.237   5.437   6.035
   94SAPC   C29 9136   0.260   5.432   5.832
   94SAPC   H9R 9137   0.189   5.515   5.818
   94SAPC  C210 9138   0.311   5.380   5.700
   94SAPC  H10R 9139   0.221   5.383   5.635
   94SAPC  H10S 9140   0.329   5.271   5.716
   94SAPC  C211 9141   0.431   5.449   5.641
   94SAPC  H11R 9142   0.526   5.430   5.693
   94SAPC  C212 9143   0.433   5.523   5.532
   94SAPC  H12R 9144   0.522   5.585   5.510
   94SAPC  C213 9145   0.318   5.541   5.438
   94SAPC  H13R 9146   0.340   5.642   5.398
   94SAPC  H13S 9147   0.220   5.543   5.490
   94SAPC  C214 9148   0.318   5.431   5.339
   94SAPC  H14R 9149   0.288   5.338   5.389
   94SAPC  C215 9150   0.331   5.448   5.206
   94SAPC  H15R 9151   0.315   5.361   5.140
   94SAPC  C216 9152   0.373   5.570   5.129
   94SAPC  H16R 9153   0.465   5.534   5.078
   94SAPC  H16S 9154   0.398   5.660   5.189
   94SAPC  C217 9155   0.264   5.599   5.032
   94SAPC  H17R 9156   0.166   5.622   5.079
   94SAPC  H17S 9157   0.252   5.517   4.958
   94SAPC  C218 9158   0.297   5.735   4.960
   94SAPC  H18R 9159   0.401   5.731   4.922
   94SAPC  H18S 9160   0.310   5.814   5.038
   94SAPC  C219 9161   0.200   5.768   4.842
   94SAPC  H19R 9162   0.205   5.877   4.826
   94SAPC  H19S 9163   0.103   5.735   4.885
   94SAPC  C220 9164   0.211   5.696   4.713
   94SAPC  H20R 9165   0.299   5.722   4.649
   94SAPC  H20S 9166   0.120   5.729   4.659
   94SAPC  H20T 9167   0.199   5.589   4.740
   94SAPC   C33 9168   6.716   4.458   6.222
   94SAPC   H3X 9169   6.726   4.351   6.250
   94SAPC   H3Y 9170   6.791   4.482   6.143
   94SAPC   C34 9171   6.579   4.502   6.161
   94SAPC   H4X 9172   6.499   4.459   6.224
   94SAPC   H4Y 9173   6.574   4.443   6.067
   94SAPC   C35 9174   6.577   4.647   6.121
   94SAPC   H5X 9175   6.623   4.712   6.199
   94SAPC   H5Y 9176   6.469   4.674   6.117
   94SAPC   C36 9177   6.642   4.686   5.984
   94SAPC   H6X 9178   6.735   4.627   5.973
   94SAPC   H6Y 9179   6.662   4.795   5.988
   94SAPC   C37 9180   6.556   4.647   5.859
   94SAPC   H7X 9181   6.450   4.662   5.888
   94SAPC   H7Y 9182   6.574   4.538   5.849
   94SAPC   C38 9183   6.592   4.715   5.728
   94SAPC   H8X 9184   6.690   4.686   5.683
   94SAPC   H8Y 9185   6.604   4.822   5.758
   94SAPC   C39 9186   6.484   4.716   5.618
   94SAPC   H9X 9187   6.389   4.745   5.666
   94SAPC   H9Y 9188   6.476   4.610   5.585
   94SAPC  C310 9189   6.530   4.803   5.502
   94SAPC  H10X 9190   6.625   4.769   5.455
   94SAPC  H10Y 9191   6.536   4.908   5.538
   94SAPC  C311 9192   6.434   4.805   5.380
   94SAPC  H11X 9193   6.328   4.828   5.401
   94SAPC  H11Y 9194   6.445   4.698   5.349
   94SAPC  C312 9195   6.491   4.881   5.262
   94SAPC  H12X 9196   6.588   4.836   5.233
   94SAPC  H12Y 9197   6.511   4.989   5.278
   94SAPC  C313 9198   6.381   4.869   5.151
   94SAPC  H13X 9199   6.296   4.937   5.172
   94SAPC  H13Y 9200   6.351   4.762   5.147
   94SAPC  C314 9201   6.434   4.921   5.013
   94SAPC  H14X 9202   6.530   4.872   4.987
   94SAPC  H14Y 9203   6.460   5.029   5.011
   94SAPC  C315 9204   6.337   4.901   4.894
   94SAPC  H15X 9205   6.257   4.972   4.921
   94SAPC  H15Y 9206   6.304   4.796   4.877
   94SAPC  C316 9207   6.400   4.948   4.763
   94SAPC  H16X 9208   6.488   4.886   4.736
   94SAPC  H16Y 9209   6.423   5.056   4.778
   94SAPC  C317 9210   6.289   4.930   4.650
   94SAPC  H17X 9211   6.196   4.973   4.691
   94SAPC  H17Y 9212   6.269   4.821   4.646
   94SAPC  C318 9213   6.338   4.981   4.515
   94SAPC  H18X 9214   6.263   4.978   4.434
   94SAPC  H18Y 9215   6.429   4.923   4.487
   94SAPC  H18Z 9216   6.367   5.088   4.527
   95SAPC     N 9217   4.177   6.259   2.330
   95SAPC   C12 9218   4.207   6.127   2.400
   95SAPC  H12A 9219   4.301   6.140   2.451
   95SAPC  H12B 9220   4.230   6.047   2.331
   95SAPC   C13 9221   4.304   6.313   2.266
   95SAPC  H13A 9222   4.285   6.416   2.237
   95SAPC  H13B 9223   4.384   6.322   2.337
   95SAPC  H13C 9224   4.333   6.255   2.180
   95SAPC   C14 9225   4.076   6.237   2.220
   95SAPC  H14A 9226   4.113   6.156   2.158
   95SAPC  H14B 9227   3.984   6.207   2.267
   95SAPC  H14C 9228   4.056   6.326   2.163
   95SAPC   C15 9229   4.127   6.367   2.417
   95SAPC  H15A 9230   4.187   6.362   2.506
   95SAPC  H15B 9231   4.124   6.463   2.366
   95SAPC  H15C 9232   4.033   6.338   2.461
   95SAPC   C11 9233   4.093   6.059   2.481
   95SAPC  H11A 9234   4.050   6.125   2.560
   95SAPC  H11B 9235   4.135   5.974   2.539
   95SAPC     P 9236   3.987   5.890   2.317
   95SAPC   O13 9237   4.010   5.927   2.177
   95SAPC   O14 9238   4.085   5.793   2.380
   95SAPC   O12 9239   3.981   6.026   2.403
   95SAPC   O11 9240   3.841   5.833   2.345
   95SAPC    C1 9241   3.810   5.764   2.465
   95SAPC    HA 9242   3.873   5.673   2.474
   95SAPC    HB 9243   3.828   5.822   2.559
   95SAPC    C2 9244   3.665   5.716   2.467
   95SAPC    HS 9245   3.644   5.682   2.364
   95SAPC   O21 9246   3.568   5.819   2.505
   95SAPC   C21 9247   3.445   5.791   2.471
   95SAPC   O22 9248   3.418   5.696   2.404
   95SAPC   C22 9249   3.341   5.882   2.559
   95SAPC   H2R 9250   3.347   5.849   2.664
   95SAPC   H2S 9251   3.378   5.987   2.559
   95SAPC    C3 9252   3.645   5.584   2.550
   95SAPC    HX 9253   3.700   5.500   2.503
   95SAPC    HY 9254   3.537   5.557   2.544
   95SAPC   O31 9255   3.675   5.595   2.688
   95SAPC   C31 9256   3.794   5.550   2.726
   95SAPC   O32 9257   3.884   5.514   2.652
   95SAPC   C32 9258   3.816   5.571   2.878
   95SAPC   H2X 9259   3.720   5.605   2.923
   95SAPC   H2Y 9260   3.898   5.642   2.899
   95SAPC   C23 9261   3.194   5.864   2.513
   95SAPC   H3R 9262   3.175   5.755   2.528
   95SAPC   H3S 9263   3.190   5.879   2.403
   95SAPC   C24 9264   3.093   5.941   2.590
   95SAPC   H4R 9265   3.080   5.886   2.686
   95SAPC   H4S 9266   2.999   5.913   2.537
   95SAPC   C25 9267   3.111   6.092   2.597
   95SAPC   H5R 9268   3.151   6.153   2.514
   95SAPC   C26 9269   3.091   6.163   2.708
   95SAPC   H6R 9270   3.113   6.271   2.712
   95SAPC   C27 9271   3.047   6.106   2.841
   95SAPC   H7R 9272   2.992   6.011   2.827
   95SAPC   H7S 9273   2.969   6.168   2.891
   95SAPC   C28 9274   3.166   6.077   2.935
   95SAPC   H8R 9275   3.261   6.074   2.878
   95SAPC   C29 9276   3.158   6.053   3.065
   95SAPC   H9R 9277   3.249   6.038   3.125
   95SAPC  C210 9278   3.029   6.056   3.152
   95SAPC  H10R 9279   3.048   5.991   3.240
   95SAPC  H10S 9280   2.947   6.003   3.100
   95SAPC  C211 9281   2.977   6.185   3.200
   95SAPC  H11R 9282   2.987   6.261   3.122
   95SAPC  C212 9283   2.938   6.212   3.328
   95SAPC  H12R 9284   2.882   6.306   3.340
   95SAPC  C213 9285   2.939   6.118   3.451
   95SAPC  H13R 9286   3.030   6.149   3.507
   95SAPC  H13S 9287   2.953   6.013   3.416
   95SAPC  C214 9288   2.820   6.131   3.543
   95SAPC  H14R 9289   2.728   6.097   3.493
   95SAPC  C215 9290   2.814   6.165   3.674
   95SAPC  H15R 9291   2.719   6.156   3.729
   95SAPC  C216 9292   2.922   6.225   3.755
   95SAPC  H16R 9293   2.879   6.314   3.805
   95SAPC  H16S 9294   3.003   6.268   3.691
   95SAPC  C217 9295   2.982   6.128   3.859
   95SAPC  H17R 9296   2.903   6.059   3.897
   95SAPC  H17S 9297   3.009   6.193   3.945
   95SAPC  C218 9298   3.106   6.048   3.820
   95SAPC  H18R 9299   3.185   6.118   3.787
   95SAPC  H18S 9300   3.089   5.974   3.738
   95SAPC  C219 9301   3.170   5.963   3.939
   95SAPC  H19R 9302   3.091   5.897   3.981
   95SAPC  H19S 9303   3.205   6.032   4.019
   95SAPC  C220 9304   3.293   5.880   3.900
   95SAPC  H20R 9305   3.341   5.832   3.988
   95SAPC  H20S 9306   3.370   5.953   3.866
   95SAPC  H20T 9307   3.276   5.790   3.838
   95SAPC   C33 9308   3.862   5.439   2.948
   95SAPC   H3X 9309   3.970   5.428   2.923
   95SAPC   H3Y 9310   3.816   5.355   2.890
   95SAPC   C34 9311   3.828   5.430   3.101
   95SAPC   H4X 9312   3.719   5.411   3.108
   95SAPC   H4Y 9313   3.860   5.527   3.145
   95SAPC   C35 9314   3.891   5.301   3.167
   95SAPC   H5X 9315   3.988   5.290   3.113
   95SAPC   H5Y 9316   3.835   5.213   3.129
   95SAPC   C36 9317   3.892   5.314   3.318
   95SAPC   H6X 9318   3.929   5.415   3.345
   95SAPC   H6Y 9319   3.967   5.245   3.361
   95SAPC   C37 9320   3.756   5.296   3.383
   95SAPC   H7X 9321   3.732   5.192   3.350
   95SAPC   H7Y 9322   3.679   5.368   3.346
   95SAPC   C38 9323   3.753   5.314   3.535
   95SAPC   H8X 9324   3.852   5.300   3.583
   95SAPC   H8Y 9325   3.675   5.247   3.577
   95SAPC   C39 9326   3.722   5.462   3.567
   95SAPC   H9X 9327   3.619   5.476   3.526
   95SAPC   H9Y 9328   3.792   5.533   3.518
   95SAPC  C310 9329   3.710   5.475   3.718
   95SAPC  H10X 9330   3.805   5.432   3.757
   95SAPC  H10Y 9331   3.628   5.411   3.756
   95SAPC  C311 9332   3.688   5.610   3.785
   95SAPC  H11X 9333   3.599   5.653   3.735
   95SAPC  H11Y 9334   3.772   5.677   3.758
   95SAPC  C312 9335   3.666   5.591   3.930
   95SAPC  H12X 9336   3.763   5.548   3.962
   95SAPC  H12Y 9337   3.594   5.508   3.942
   95SAPC  C313 9338   3.621   5.719   4.008
   95SAPC  H13X 9339   3.626   5.696   4.117
   95SAPC  H13Y 9340   3.516   5.726   3.975
   95SAPC  C314 9341   3.705   5.852   3.983
   95SAPC  H14X 9342   3.672   5.901   3.888
   95SAPC  H14Y 9343   3.813   5.831   3.970
   95SAPC  C315 9344   3.685   5.961   4.093
   95SAPC  H15X 9345   3.725   5.910   4.183
   95SAPC  H15Y 9346   3.577   5.986   4.105
   95SAPC  C316 9347   3.758   6.094   4.061
   95SAPC  H16X 9348   3.696   6.149   3.987
   95SAPC  H16Y 9349   3.853   6.081   4.006
   95SAPC  C317 9350   3.778   6.177   4.192
   95SAPC  H17X 9351   3.863   6.133   4.248
   95SAPC  H17Y 9352   3.685   6.174   4.254
   95SAPC  C318 9353   3.808   6.328   4.150
   95SAPC  H18X 9354   3.917   6.338   4.130
   95SAPC  H18Y 9355   3.783   6.401   4.231
   95SAPC  H18Z 9356   3.745   6.347   4.061
   96SAPC     N 9357   3.790   2.044   1.938
   96SAPC   C12 9358   3.670   2.032   2.028
   96SAPC  H12A 9359   3.587   2.065   1.968
   96SAPC  H12B 9360   3.674   2.105   2.107
   96SAPC   C13 9361   3.790   1.925   1.848
   96SAPC  H13A 9362   3.895   1.910   1.825
   96SAPC  H13B 9363   3.766   1.838   1.907
   96SAPC  H13C 9364   3.720   1.932   1.767
   96SAPC   C14 9365   3.780   2.163   1.848
   96SAPC  H14A 9366   3.874   2.187   1.801
   96SAPC  H14B 9367   3.717   2.146   1.762
   96SAPC  H14C 9368   3.755   2.250   1.907
   96SAPC   C15 9369   3.913   2.045   2.018
   96SAPC  H15A 9370   3.920   2.130   2.083
   96SAPC  H15B 9371   3.901   1.962   2.086
   96SAPC  H15C 9372   4.005   2.047   1.960
   96SAPC   C11 9373   3.635   1.898   2.104
   96SAPC  H11A 9374   3.610   1.821   2.028
   96SAPC  H11B 9375   3.550   1.912   2.173
   96SAPC     P 9376   3.773   1.697   2.187
   96SAPC   O13 9377   3.668   1.616   2.124
   96SAPC   O14 9378   3.908   1.681   2.127
   96SAPC   O12 9379   3.741   1.848   2.192
   96SAPC   O11 9380   3.779   1.663   2.347
   96SAPC    C1 9381   3.654   1.637   2.411
   96SAPC    HA 9382   3.593   1.567   2.351
   96SAPC    HB 9383   3.675   1.586   2.507
   96SAPC    C2 9384   3.562   1.766   2.442
   96SAPC    HS 9385   3.541   1.819   2.347
   96SAPC   O21 9386   3.635   1.851   2.527
   96SAPC   C21 9387   3.597   1.977   2.525
   96SAPC   O22 9388   3.511   2.019   2.443
   96SAPC   C22 9389   3.658   2.061   2.638
   96SAPC   H2R 9390   3.733   1.998   2.690
   96SAPC   H2S 9391   3.710   2.143   2.585
   96SAPC    C3 9392   3.428   1.730   2.508
   96SAPC    HX 9393   3.365   1.695   2.424
   96SAPC    HY 9394   3.375   1.823   2.540
   96SAPC   O31 9395   3.446   1.631   2.615
   96SAPC   C31 9396   3.479   1.673   2.733
   96SAPC   O32 9397   3.451   1.781   2.782
   96SAPC   C32 9398   3.560   1.557   2.800
   96SAPC   H2X 9399   3.654   1.546   2.743
   96SAPC   H2Y 9400   3.510   1.459   2.782
   96SAPC   C23 9401   3.553   2.100   2.748
   96SAPC   H3R 9402   3.537   2.011   2.813
   96SAPC   H3S 9403   3.460   2.112   2.687
   96SAPC   C24 9404   3.584   2.227   2.824
   96SAPC   H4R 9405   3.490   2.255   2.878
   96SAPC   H4S 9406   3.600   2.312   2.755
   96SAPC   C25 9407   3.704   2.206   2.909
   96SAPC   H5R 9408   3.795   2.172   2.856
   96SAPC   C26 9409   3.709   2.211   3.043
   96SAPC   H6R 9410   3.801   2.191   3.100
   96SAPC   C27 9411   3.593   2.249   3.136
   96SAPC   H7R 9412   3.522   2.320   3.089
   96SAPC   H7S 9413   3.630   2.307   3.224
   96SAPC   C28 9414   3.513   2.131   3.169
   96SAPC   H8R 9415   3.461   2.085   3.083
   96SAPC   C29 9416   3.481   2.080   3.293
   96SAPC   H9R 9417   3.423   1.987   3.288
   96SAPC  C210 9418   3.517   2.133   3.432
   96SAPC  H10R 9419   3.559   2.236   3.426
   96SAPC  H10S 9420   3.595   2.071   3.482
   96SAPC  C211 9421   3.394   2.139   3.517
   96SAPC  H11R 9422   3.298   2.143   3.464
   96SAPC  C212 9423   3.390   2.139   3.651
   96SAPC  H12R 9424   3.292   2.142   3.699
   96SAPC  C213 9425   3.512   2.142   3.741
   96SAPC  H13R 9426   3.590   2.213   3.704
   96SAPC  H13S 9427   3.552   2.039   3.742
   96SAPC  C214 9428   3.481   2.190   3.885
   96SAPC  H14R 9429   3.383   2.232   3.912
   96SAPC  C215 9430   3.578   2.207   3.978
   96SAPC  H15R 9431   3.554   2.261   4.071
   96SAPC  C216 9432   3.724   2.173   3.963
   96SAPC  H16R 9433   3.779   2.268   3.944
   96SAPC  H16S 9434   3.746   2.103   3.880
   96SAPC  C217 9435   3.800   2.119   4.092
   96SAPC  H17R 9436   3.762   2.018   4.114
   96SAPC  H17S 9437   3.786   2.188   4.178
   96SAPC  C218 9438   3.954   2.110   4.076
   96SAPC  H18R 9439   3.996   2.209   4.051
   96SAPC  H18S 9440   3.988   2.044   3.993
   96SAPC  C219 9441   4.025   2.081   4.205
   96SAPC  H19R 9442   4.131   2.071   4.175
   96SAPC  H19S 9443   3.988   1.988   4.252
   96SAPC  C220 9444   4.027   2.186   4.320
   96SAPC  H20R 9445   3.924   2.200   4.358
   96SAPC  H20S 9446   4.063   2.280   4.272
   96SAPC  H20T 9447   4.093   2.165   4.407
   96SAPC   C33 9448   3.587   1.584   2.948
   96SAPC   H3X 9449   3.630   1.684   2.971
   96SAPC   H3Y 9450   3.665   1.510   2.975
   96SAPC   C34 9451   3.459   1.565   3.035
   96SAPC   H4X 9452   3.406   1.467   3.026
   96SAPC   H4Y 9453   3.385   1.639   2.999
   96SAPC   C35 9454   3.487   1.584   3.187
   96SAPC   H5X 9455   3.389   1.565   3.236
   96SAPC   H5Y 9456   3.518   1.687   3.214
   96SAPC   C36 9457   3.595   1.482   3.234
   96SAPC   H6X 9458   3.693   1.527   3.207
   96SAPC   H6Y 9459   3.585   1.381   3.189
   96SAPC   C37 9460   3.593   1.475   3.393
   96SAPC   H7X 9461   3.598   1.584   3.412
   96SAPC   H7Y 9462   3.680   1.423   3.438
   96SAPC   C38 9463   3.462   1.430   3.458
   96SAPC   H8X 9464   3.438   1.324   3.434
   96SAPC   H8Y 9465   3.372   1.478   3.415
   96SAPC   C39 9466   3.453   1.445   3.610
   96SAPC   H9X 9467   3.531   1.383   3.659
   96SAPC   H9Y 9468   3.359   1.392   3.635
   96SAPC  C310 9469   3.454   1.579   3.677
   96SAPC  H10X 9470   3.360   1.632   3.650
   96SAPC  H10Y 9471   3.528   1.655   3.643
   96SAPC  C311 9472   3.471   1.576   3.833
   96SAPC  H11X 9473   3.574   1.540   3.858
   96SAPC  H11Y 9474   3.391   1.507   3.867
   96SAPC  C312 9475   3.446   1.711   3.911
   96SAPC  H12X 9476   3.340   1.741   3.901
   96SAPC  H12Y 9477   3.514   1.795   3.884
   96SAPC  C313 9478   3.459   1.684   4.052
   96SAPC  H13X 9479   3.554   1.627   4.065
   96SAPC  H13Y 9480   3.375   1.616   4.078
   96SAPC  C314 9481   3.446   1.822   4.133
   96SAPC  H14X 9482   3.359   1.874   4.088
   96SAPC  H14Y 9483   3.532   1.882   4.098
   96SAPC  C315 9484   3.432   1.816   4.286
   96SAPC  H15X 9485   3.501   1.737   4.322
   96SAPC  H15Y 9486   3.327   1.786   4.307
   96SAPC  C316 9487   3.468   1.951   4.357
   96SAPC  H16X 9488   3.430   2.039   4.300
   96SAPC  H16Y 9489   3.579   1.953   4.360
   96SAPC  C317 9490   3.393   1.971   4.492
   96SAPC  H17X 9491   3.404   1.881   4.556
   96SAPC  H17Y 9492   3.283   1.964   4.476
   96SAPC  C318 9493   3.425   2.091   4.569
   96SAPC  H18X 9494   3.412   2.184   4.508
   96SAPC  H18Y 9495   3.529   2.093   4.607
   96SAPC  H18Z 9496   3.367   2.107   4.663
   97SAPC     N 9497   2.607   0.784   2.140
   97SAPC   C12 9498   2.592   0.679   2.030
   97SAPC  H12A 9499   2.634   0.706   1.935
   97SAPC  H12B 9500   2.489   0.651   2.012
   97SAPC   C13 9501   2.537   0.905   2.091
   97SAPC  H13A 9502   2.590   0.946   2.006
   97SAPC  H13B 9503   2.441   0.880   2.050
   97SAPC  H13C 9504   2.522   0.965   2.180
   97SAPC   C14 9505   2.531   0.737   2.261
   97SAPC  H14A 9506   2.567   0.638   2.286
   97SAPC  H14B 9507   2.536   0.802   2.347
   97SAPC  H14C 9508   2.425   0.728   2.247
   97SAPC   C15 9509   2.750   0.801   2.170
   97SAPC  H15A 9510   2.769   0.903   2.199
   97SAPC  H15B 9511   2.786   0.725   2.238
   97SAPC  H15C 9512   2.803   0.798   2.076
   97SAPC   C11 9513   2.676   0.547   2.072
   97SAPC  H11A 9514   2.638   0.462   2.012
   97SAPC  H11B 9515   2.643   0.522   2.175
   97SAPC     P 9516   2.916   0.471   2.140
   97SAPC   O13 9517   2.839   0.341   2.157
   97SAPC   O14 9518   3.045   0.473   2.071
   97SAPC   O12 9519   2.819   0.566   2.062
   97SAPC   O11 9520   2.920   0.542   2.281
   97SAPC    C1 9521   3.033   0.622   2.306
   97SAPC    HA 9522   3.051   0.694   2.223
   97SAPC    HB 9523   3.004   0.679   2.397
   97SAPC    C2 9524   3.158   0.534   2.340
   97SAPC    HS 9525   3.198   0.489   2.246
   97SAPC   O21 9526   3.123   0.415   2.425
   97SAPC   C21 9527   3.200   0.314   2.409
   97SAPC   O22 9528   3.290   0.301   2.326
   97SAPC   C22 9529   3.161   0.198   2.505
   97SAPC   H2R 9530   3.188   0.234   2.606
   97SAPC   H2S 9531   3.051   0.187   2.512
   97SAPC    C3 9532   3.271   0.611   2.414
   97SAPC    HX 9533   3.302   0.699   2.354
   97SAPC    HY 9534   3.363   0.548   2.417
   97SAPC   O31 9535   3.234   0.657   2.551
   97SAPC   C31 9536   3.262   0.583   2.656
   97SAPC   O32 9537   3.351   0.496   2.661
   97SAPC   C32 9538   3.182   0.628   2.771
   97SAPC   H2X 9539   3.092   0.563   2.774
   97SAPC   H2Y 9540   3.146   0.733   2.764
   97SAPC   C23 9541   3.235   0.063   2.492
   97SAPC   H3R 9542   3.343   0.079   2.511
   97SAPC   H3S 9543   3.232   0.017   2.391
   97SAPC   C24 9544   3.189   6.798   2.594
   97SAPC   H4R 9545   3.208   0.004   2.692
   97SAPC   H4S 9546   3.261   6.713   2.590
   97SAPC   C25 9547   3.048   6.744   2.567
   97SAPC   H5R 9548   3.039   6.700   2.467
   97SAPC   C26 9549   2.954   6.721   2.661
   97SAPC   H6R 9550   2.868   6.656   2.641
   97SAPC   C27 9551   2.975   6.751   2.809
   97SAPC   H7R 9552   2.876   6.787   2.847
   97SAPC   H7S 9553   3.045   6.836   2.825
   97SAPC   C28 9554   3.041   6.627   2.877
   97SAPC   H8R 9555   3.086   6.548   2.815
   97SAPC   C29 9556   3.037   6.610   3.008
   97SAPC   H9R 9557   3.083   6.525   3.061
   97SAPC  C210 9558   2.960   6.709   3.093
   97SAPC  H10R 9559   2.865   6.737   3.044
   97SAPC  H10S 9560   3.025   6.797   3.113
   97SAPC  C211 9561   2.927   6.646   3.228
   97SAPC  H11R 9562   2.958   6.541   3.238
   97SAPC  C212 9563   2.881   6.719   3.333
   97SAPC  H12R 9564   2.854   6.658   3.420
   97SAPC  C213 9565   2.847   0.022   3.332
   97SAPC  H13R 9566   2.936   0.081   3.299
   97SAPC  H13S 9567   2.844   0.057   3.437
   97SAPC  C214 9568   2.727   0.077   3.259
   97SAPC  H14R 9569   2.744   0.113   3.156
   97SAPC  C215 9570   2.597   0.064   3.285
   97SAPC  H15R 9571   2.528   0.099   3.208
   97SAPC  C216 9572   2.546   0.002   3.413
   97SAPC  H16R 9573   2.619   6.778   3.466
   97SAPC  H16S 9574   2.462   6.773   3.394
   97SAPC  C217 9575   2.481   0.105   3.519
   97SAPC  H17R 9576   2.429   0.173   3.448
   97SAPC  H17S 9577   2.564   0.160   3.568
   97SAPC  C218 9578   2.389   0.042   3.623
   97SAPC  H18R 9579   2.326   6.807   3.571
   97SAPC  H18S 9580   2.327   0.117   3.676
   97SAPC  C219 9581   2.476   6.818   3.734
   97SAPC  H19R 9582   2.531   0.050   3.799
   97SAPC  H19S 9583   2.547   6.748   3.686
   97SAPC  C220 9584   2.392   6.739   3.836
   97SAPC  H20R 9585   2.449   6.710   3.927
   97SAPC  H20S 9586   2.354   6.644   3.794
   97SAPC  H20T 9587   2.303   6.792   3.876
   97SAPC   C33 9588   3.275   0.625   2.892
   97SAPC   H3X 9589   3.366   0.686   2.875
   97SAPC   H3Y 9590   3.311   0.522   2.913
   97SAPC   C34 9591   3.200   0.673   3.012
   97SAPC   H4X 9592   3.102   0.623   3.027
   97SAPC   H4Y 9593   3.183   0.779   2.984
   97SAPC   C35 9594   3.288   0.666   3.140
   97SAPC   H5X 9595   3.236   0.728   3.216
   97SAPC   H5Y 9596   3.392   0.701   3.123
   97SAPC   C36 9597   3.304   0.516   3.196
   97SAPC   H6X 9598   3.343   0.449   3.117
   97SAPC   H6Y 9599   3.198   0.484   3.211
   97SAPC   C37 9600   3.402   0.514   3.318
   97SAPC   H7X 9601   3.403   0.620   3.352
   97SAPC   H7Y 9602   3.500   0.473   3.286
   97SAPC   C38 9603   3.339   0.430   3.432
   97SAPC   H8X 9604   3.417   0.353   3.452
   97SAPC   H8Y 9605   3.250   0.373   3.399
   97SAPC   C39 9606   3.293   0.519   3.552
   97SAPC   H9X 9607   3.200   0.573   3.525
   97SAPC   H9Y 9608   3.372   0.591   3.585
   97SAPC  C310 9609   3.252   0.431   3.667
   97SAPC  H10X 9610   3.332   0.371   3.716
   97SAPC  H10Y 9611   3.179   0.356   3.629
   97SAPC  C311 9612   3.199   0.516   3.785
   97SAPC  H11X 9613   3.107   0.561   3.741
   97SAPC  H11Y 9614   3.267   0.602   3.802
   97SAPC  C312 9615   3.184   0.428   3.911
   97SAPC  H12X 9616   3.279   0.386   3.950
   97SAPC  H12Y 9617   3.116   0.342   3.893
   97SAPC  C313 9618   3.130   0.525   4.018
   97SAPC  H13X 9619   3.046   0.591   3.985
   97SAPC  H13Y 9620   3.206   0.593   4.061
   97SAPC  C314 9621   3.080   0.441   4.137
   97SAPC  H14X 9622   3.160   0.372   4.172
   97SAPC  H14Y 9623   2.994   0.380   4.102
   97SAPC  C315 9624   3.065   0.530   4.254
   97SAPC  H15X 9625   2.982   0.604   4.247
   97SAPC  H15Y 9626   3.151   0.596   4.278
   97SAPC  C316 9627   3.033   0.445   4.379
   97SAPC  H16X 9628   3.028   0.509   4.470
   97SAPC  H16Y 9629   3.113   0.369   4.393
   97SAPC  C317 9630   2.893   0.374   4.369
   97SAPC  H17X 9631   2.881   0.304   4.284
   97SAPC  H17Y 9632   2.817   0.451   4.346
   97SAPC  C318 9633   2.856   0.296   4.492
   97SAPC  H18X 9634   2.937   0.222   4.507
   97SAPC  H18Y 9635   2.760   0.242   4.474
   97SAPC  H18Z 9636   2.855   0.359   4.583
   98SAPC     N 9637   5.906   1.158   1.774
   98SAPC   C12 9638   5.854   1.289   1.842
   98SAPC  H12A 9639   5.750   1.267   1.858
   98SAPC  H12B 9640   5.867   1.367   1.768
   98SAPC   C13 9641   5.827   1.134   1.655
   98SAPC  H13A 9642   5.722   1.113   1.672
   98SAPC  H13B 9643   5.829   1.207   1.575
   98SAPC  H13C 9644   5.859   1.043   1.606
   98SAPC   C14 9645   6.048   1.166   1.741
   98SAPC  H14A 9646   6.085   1.065   1.730
   98SAPC  H14B 9647   6.069   1.228   1.655
   98SAPC  H14C 9648   6.107   1.208   1.821
   98SAPC   C15 9649   5.872   1.047   1.870
   98SAPC  H15A 9650   5.934   1.058   1.958
   98SAPC  H15B 9651   5.768   1.058   1.895
   98SAPC  H15C 9652   5.896   0.951   1.826
   98SAPC   C11 9653   5.911   1.318   1.977
   98SAPC  H11A 9654   5.899   1.427   1.996
   98SAPC  H11B 9655   6.020   1.296   1.984
   98SAPC     P 9656   5.823   1.308   2.214
   98SAPC   O13 9657   5.796   1.455   2.193
   98SAPC   O14 9658   5.724   1.234   2.286
   98SAPC   O12 9659   5.841   1.242   2.071
   98SAPC   O11 9660   5.960   1.302   2.289
   98SAPC    C1 9661   6.006   1.178   2.339
   98SAPC    HA 9662   5.990   1.090   2.274
   98SAPC    HB 9663   6.117   1.182   2.346
   98SAPC    C2 9664   5.947   1.141   2.476
   98SAPC    HS 9665   5.847   1.099   2.454
   98SAPC   O21 9666   5.944   1.255   2.565
   98SAPC   C21 9667   5.837   1.274   2.637
   98SAPC   O22 9668   5.737   1.206   2.642
   98SAPC   C22 9669   5.863   1.398   2.732
   98SAPC   H2R 9670   5.782   1.397   2.809
   98SAPC   H2S 9671   5.964   1.383   2.776
   98SAPC    C3 9672   6.028   1.027   2.549
   98SAPC    HX 9673   6.130   1.068   2.562
   98SAPC    HY 9674   6.040   0.939   2.483
   98SAPC   O31 9675   5.972   1.004   2.687
   98SAPC   C31 9676   5.878   0.910   2.686
   98SAPC   O32 9677   5.845   0.851   2.589
   98SAPC   C32 9678   5.816   0.887   2.827
   98SAPC   H2X 9679   5.809   0.777   2.836
   98SAPC   H2Y 9680   5.715   0.929   2.808
   98SAPC   C23 9681   5.844   1.537   2.660
   98SAPC   H3R 9682   5.823   1.613   2.738
   98SAPC   H3S 9683   5.761   1.540   2.586
   98SAPC   C24 9684   5.973   1.574   2.582
   98SAPC   H4R 9685   5.979   1.495   2.503
   98SAPC   H4S 9686   6.049   1.578   2.663
   98SAPC   C25 9687   5.959   1.708   2.521
   98SAPC   H5R 9688   5.865   1.731   2.468
   98SAPC   C26 9689   6.062   1.794   2.512
   98SAPC   H6R 9690   6.043   1.893   2.466
   98SAPC   C27 9691   6.206   1.768   2.560
   98SAPC   H7R 9692   6.261   1.801   2.469
   98SAPC   H7S 9693   6.214   1.658   2.576
   98SAPC   C28 9694   6.248   1.853   2.673
   98SAPC   H8R 9695   6.261   1.956   2.638
   98SAPC   C29 9696   6.284   1.806   2.800
   98SAPC   H9R 9697   6.304   1.887   2.871
   98SAPC  C210 9698   6.271   1.674   2.858
   98SAPC  H10R 9699   6.361   1.664   2.921
   98SAPC  H10S 9700   6.263   1.592   2.783
   98SAPC  C211 9701   6.138   1.668   2.931
   98SAPC  H11R 9702   6.057   1.711   2.870
   98SAPC  C212 9703   6.115   1.647   3.060
   98SAPC  H12R 9704   6.013   1.640   3.101
   98SAPC  C213 9705   6.223   1.610   3.163
   98SAPC  H13R 9706   6.255   1.701   3.217
   98SAPC  H13S 9707   6.305   1.562   3.106
   98SAPC  C214 9708   6.172   1.523   3.269
   98SAPC  H14R 9709   6.119   1.566   3.356
   98SAPC  C215 9710   6.201   1.395   3.276
   98SAPC  H15R 9711   6.156   1.338   3.359
   98SAPC  C216 9712   6.267   1.315   3.168
   98SAPC  H16R 9713   6.364   1.285   3.211
   98SAPC  H16S 9714   6.282   1.374   3.075
   98SAPC  C217 9715   6.184   1.190   3.136
   98SAPC  H17R 9716   6.095   1.227   3.080
   98SAPC  H17S 9717   6.154   1.127   3.222
   98SAPC  C218 9718   6.264   1.101   3.034
   98SAPC  H18R 9719   6.195   1.030   2.983
   98SAPC  H18S 9720   6.339   1.058   3.103
   98SAPC  C219 9721   6.325   1.179   2.915
   98SAPC  H19R 9722   6.398   1.111   2.866
   98SAPC  H19S 9723   6.396   1.256   2.951
   98SAPC  C220 9724   6.221   1.236   2.815
   98SAPC  H20R 9725   6.269   1.264   2.719
   98SAPC  H20S 9726   6.162   1.317   2.863
   98SAPC  H20T 9727   6.152   1.156   2.780
   98SAPC   C33 9728   5.889   0.956   2.951
   98SAPC   H3X 9729   5.871   1.066   2.949
   98SAPC   H3Y 9730   5.996   0.928   2.960
   98SAPC   C34 9731   5.842   0.896   3.081
   98SAPC   H4X 9732   5.861   0.786   3.082
   98SAPC   H4Y 9733   5.731   0.903   3.082
   98SAPC   C35 9734   5.908   0.951   3.206
   98SAPC   H5X 9735   5.883   1.059   3.217
   98SAPC   H5Y 9736   6.018   0.942   3.192
   98SAPC   C36 9737   5.867   0.879   3.336
   98SAPC   H6X 9738   5.903   0.774   3.341
   98SAPC   H6Y 9739   5.756   0.883   3.343
   98SAPC   C37 9740   5.916   0.944   3.469
   98SAPC   H7X 9741   5.897   1.053   3.464
   98SAPC   H7Y 9742   6.019   0.921   3.504
   98SAPC   C38 9743   5.823   0.899   3.592
   98SAPC   H8X 9744   5.720   0.936   3.575
   98SAPC   H8Y 9745   5.862   0.955   3.679
   98SAPC   C39 9746   5.823   0.743   3.610
   98SAPC   H9X 9747   5.923   0.696   3.625
   98SAPC   H9Y 9748   5.792   0.689   3.518
   98SAPC  C310 9749   5.732   0.687   3.721
   98SAPC  H10X 9750   5.724   0.577   3.717
   98SAPC  H10Y 9751   5.628   0.723   3.708
   98SAPC  C311 9752   5.769   0.721   3.860
   98SAPC  H11X 9753   5.763   0.831   3.860
   98SAPC  H11Y 9754   5.870   0.676   3.872
   98SAPC  C312 9755   5.663   0.664   3.960
   98SAPC  H12X 9756   5.561   0.693   3.927
   98SAPC  H12Y 9757   5.689   0.725   4.049
   98SAPC  C313 9758   5.664   0.513   3.978
   98SAPC  H13X 9759   5.766   0.490   4.017
   98SAPC  H13Y 9760   5.643   0.456   3.886
   98SAPC  C314 9761   5.557   0.454   4.075
   98SAPC  H14X 9762   5.564   0.344   4.064
   98SAPC  H14Y 9763   5.461   0.488   4.032
   98SAPC  C315 9764   5.577   0.504   4.214
   98SAPC  H15X 9765   5.578   0.614   4.223
   98SAPC  H15Y 9766   5.672   0.464   4.255
   98SAPC  C316 9767   5.465   0.446   4.308
   98SAPC  H16X 9768   5.365   0.462   4.261
   98SAPC  H16Y 9769   5.451   0.510   4.397
   98SAPC  C317 9770   5.484   0.296   4.346
   98SAPC  H17X 9771   5.502   0.236   4.254
   98SAPC  H17Y 9772   5.395   0.256   4.399
   98SAPC  C318 9773   5.589   0.288   4.456
   98SAPC  H18X 9774   5.601   0.188   4.502
   98SAPC  H18Y 9775   5.587   0.369   4.531
   98SAPC  H18Z 9776   5.689   0.298   4.409
   99SAPC     N 9777   4.052   5.606   1.930
   99SAPC   C12 9778   4.042   5.573   2.077
   99SAPC  H12A 9779   4.106   5.636   2.136
   99SAPC  H12B 9780   4.079   5.472   2.090
   99SAPC   C13 9781   4.196   5.643   1.910
   99SAPC  H13A 9782   4.213   5.729   1.974
   99SAPC  H13B 9783   4.260   5.563   1.944
   99SAPC  H13C 9784   4.214   5.661   1.805
   99SAPC   C14 9785   4.028   5.491   1.844
   99SAPC  H14A 9786   3.934   5.443   1.867
   99SAPC  H14B 9787   4.036   5.498   1.737
   99SAPC  H14C 9788   4.088   5.414   1.891
   99SAPC   C15 9789   3.969   5.719   1.896
   99SAPC  H15A 9790   3.867   5.687   1.880
   99SAPC  H15B 9791   3.970   5.777   1.987
   99SAPC  H15C 9792   3.997   5.781   1.812
   99SAPC   C11 9793   3.896   5.570   2.131
   99SAPC  H11A 9794   3.859   5.674   2.125
   99SAPC  H11B 9795   3.896   5.543   2.239
   99SAPC     P 9796   3.713   5.391   2.114
   99SAPC   O13 9797   3.578   5.450   2.098
   99SAPC   O14 9798   3.736   5.257   2.060
   99SAPC   O12 9799   3.818   5.489   2.048
   99SAPC   O11 9800   3.736   5.381   2.269
   99SAPC    C1 9801   3.842   5.311   2.334
   99SAPC    HA 9802   3.927   5.286   2.267
   99SAPC    HB 9803   3.888   5.367   2.418
   99SAPC    C2 9804   3.777   5.178   2.386
   99SAPC    HS 9805   3.727   5.127   2.301
   99SAPC   O21 9806   3.697   5.205   2.497
   99SAPC   C21 9807   3.586   5.135   2.515
   99SAPC   O22 9808   3.550   5.045   2.442
   99SAPC   C22 9809   3.517   5.179   2.643
   99SAPC   H2R 9810   3.522   5.289   2.656
   99SAPC   H2S 9811   3.408   5.156   2.649
   99SAPC    C3 9812   3.892   5.070   2.428
   99SAPC    HX 9813   3.951   5.123   2.507
   99SAPC    HY 9814   3.961   5.055   2.342
   99SAPC   O31 9815   3.835   4.946   2.480
   99SAPC   C31 9816   3.794   4.857   2.393
   99SAPC   O32 9817   3.813   4.862   2.272
   99SAPC   C32 9818   3.729   4.736   2.469
   99SAPC   H2X 9819   3.818   4.681   2.507
   99SAPC   H2Y 9820   3.662   4.687   2.396
   99SAPC   C23 9821   3.579   5.094   2.752
   99SAPC   H3R 9822   3.689   5.102   2.742
   99SAPC   H3S 9823   3.551   4.986   2.746
   99SAPC   C24 9824   3.547   5.132   2.895
   99SAPC   H4R 9825   3.559   5.242   2.912
   99SAPC   H4S 9826   3.623   5.088   2.963
   99SAPC   C25 9827   3.412   5.093   2.938
   99SAPC   H5R 9828   3.349   5.044   2.863
   99SAPC   C26 9829   3.362   5.109   3.060
   99SAPC   H6R 9830   3.261   5.069   3.079
   99SAPC   C27 9831   3.422   5.170   3.188
   99SAPC   H7R 9832   3.347   5.241   3.230
   99SAPC   H7S 9833   3.517   5.221   3.164
   99SAPC   C28 9834   3.449   5.055   3.280
   99SAPC   H8R 9835   3.520   4.975   3.253
   99SAPC   C29 9836   3.392   5.044   3.401
   99SAPC   H9R 9837   3.417   4.961   3.469
   99SAPC  C210 9838   3.303   5.152   3.461
   99SAPC  H10R 9839   3.211   5.162   3.400
   99SAPC  H10S 9840   3.368   5.242   3.452
   99SAPC  C211 9841   3.273   5.133   3.605
   99SAPC  H11R 9842   3.278   5.028   3.638
   99SAPC  C212 9843   3.244   5.237   3.695
   99SAPC  H12R 9844   3.224   5.201   3.797
   99SAPC  C213 9845   3.222   5.386   3.665
   99SAPC  H13R 9846   3.224   5.402   3.555
   99SAPC  H13S 9847   3.312   5.442   3.700
   99SAPC  C214 9848   3.101   5.442   3.733
   99SAPC  H14R 9849   3.003   5.450   3.682
   99SAPC  C215 9850   3.085   5.469   3.870
   99SAPC  H15R 9851   2.983   5.492   3.905
   99SAPC  C216 9852   3.206   5.469   3.962
   99SAPC  H16R 9853   3.266   5.561   3.949
   99SAPC  H16S 9854   3.278   5.385   3.951
   99SAPC  C217 9855   3.178   5.469   4.114
   99SAPC  H17R 9856   3.125   5.562   4.144
   99SAPC  H17S 9857   3.276   5.463   4.165
   99SAPC  C218 9858   3.104   5.343   4.175
   99SAPC  H18R 9859   3.165   5.251   4.166
   99SAPC  H18S 9860   3.011   5.328   4.116
   99SAPC  C219 9861   3.079   5.359   4.319
   99SAPC  H19R 9862   3.037   5.461   4.333
   99SAPC  H19S 9863   3.166   5.343   4.385
   99SAPC  C220 9864   2.992   5.247   4.379
   99SAPC  H20R 9865   3.047   5.153   4.402
   99SAPC  H20S 9866   2.910   5.217   4.310
   99SAPC  H20T 9867   2.945   5.285   4.472
   99SAPC   C33 9868   3.652   4.765   2.603
   99SAPC   H3X 9869   3.554   4.806   2.571
   99SAPC   H3Y 9870   3.702   4.844   2.662
   99SAPC   C34 9871   3.638   4.639   2.695
   99SAPC   H4X 9872   3.745   4.617   2.717
   99SAPC   H4Y 9873   3.593   4.551   2.645
   99SAPC   C35 9874   3.562   4.668   2.827
   99SAPC   H5X 9875   3.595   4.760   2.881
   99SAPC   H5Y 9876   3.594   4.586   2.896
   99SAPC   C36 9877   3.409   4.682   2.813
   99SAPC   H6X 9878   3.386   4.589   2.756
   99SAPC   H6Y 9879   3.391   4.766   2.743
   99SAPC   C37 9880   3.342   4.705   2.943
   99SAPC   H7X 9881   3.382   4.795   2.996
   99SAPC   H7Y 9882   3.359   4.613   3.002
   99SAPC   C38 9883   3.194   4.722   2.929
   99SAPC   H8X 9884   3.150   4.624   2.902
   99SAPC   H8Y 9885   3.168   4.794   2.849
   99SAPC   C39 9886   3.132   4.780   3.056
   99SAPC   H9X 9887   3.022   4.779   3.041
   99SAPC   H9Y 9888   3.163   4.884   3.076
   99SAPC  C310 9889   3.154   4.685   3.178
   99SAPC  H10X 9890   3.262   4.659   3.184
   99SAPC  H10Y 9891   3.094   4.593   3.157
   99SAPC  C311 9892   3.117   4.757   3.305
   99SAPC  H11X 9893   3.006   4.761   3.317
   99SAPC  H11Y 9894   3.154   4.861   3.295
   99SAPC  C312 9895   3.176   4.700   3.431
   99SAPC  H12X 9896   3.287   4.709   3.429
   99SAPC  H12Y 9897   3.148   4.593   3.442
   99SAPC  C313 9898   3.121   4.775   3.553
   99SAPC  H13X 9899   3.012   4.753   3.543
   99SAPC  H13Y 9900   3.147   4.882   3.544
   99SAPC  C314 9901   3.169   4.717   3.682
   99SAPC  H14X 9902   3.280   4.717   3.680
   99SAPC  H14Y 9903   3.135   4.612   3.691
   99SAPC  C315 9904   3.118   4.784   3.806
   99SAPC  H15X 9905   3.178   4.877   3.821
   99SAPC  H15Y 9906   3.129   4.720   3.896
   99SAPC  C316 9907   2.968   4.825   3.797
   99SAPC  H16X 9908   2.911   4.744   3.747
   99SAPC  H16Y 9909   2.951   4.899   3.716
   99SAPC  C317 9910   2.898   4.879   3.922
   99SAPC  H17X 9911   2.890   4.786   3.983
   99SAPC  H17Y 9912   2.792   4.905   3.901
   99SAPC  C318 9913   2.977   4.986   3.999
   99SAPC  H18X 9914   3.056   5.034   3.936
   99SAPC  H18Y 9915   3.035   4.945   4.084
   99SAPC  H18Z 9916   2.910   5.060   4.047
  100SAPC     N 9917   2.049   4.768   2.090
  100SAPC   C12 9918   1.914   4.727   2.039
  100SAPC  H12A 9919   1.854   4.809   2.001
  100SAPC  H12B 9920   1.859   4.690   2.124
  100SAPC   C13 9921   2.052   4.899   2.168
  100SAPC  H13A 9922   2.153   4.929   2.188
  100SAPC  H13B 9923   2.012   4.981   2.110
  100SAPC  H13C 9924   2.006   4.892   2.266
  100SAPC   C14 9925   2.095   4.672   2.194
  100SAPC  H14A 9926   2.050   4.693   2.290
  100SAPC  H14B 9927   2.078   4.568   2.170
  100SAPC  H14C 9928   2.201   4.685   2.205
  100SAPC   C15 9929   2.145   4.788   1.976
  100SAPC  H15A 9930   2.227   4.857   1.985
  100SAPC  H15B 9931   2.173   4.689   1.944
  100SAPC  H15C 9932   2.099   4.825   1.886
  100SAPC   C11 9933   1.904   4.612   1.935
  100SAPC  H11A 9934   1.948   4.656   1.843
  100SAPC  H11B 9935   1.796   4.595   1.918
  100SAPC     P 9936   1.907   4.378   2.059
  100SAPC   O13 9937   1.768   4.408   2.106
  100SAPC   O14 9938   1.932   4.244   1.995
  100SAPC   O12 9939   1.966   4.492   1.967
  100SAPC   O11 9940   2.000   4.390   2.181
  100SAPC    C1 9941   2.090   4.281   2.210
  100SAPC    HA 9942   2.136   4.237   2.119
  100SAPC    HB 9943   2.169   4.337   2.264
  100SAPC    C2 9944   2.033   4.173   2.303
  100SAPC    HS 9945   1.953   4.122   2.246
  100SAPC   O21 9946   1.992   4.230   2.426
  100SAPC   C21 9947   1.871   4.207   2.465
  100SAPC   O22 9948   1.790   4.137   2.407
  100SAPC   C22 9949   1.845   4.272   2.599
  100SAPC   H2R 9950   1.943   4.278   2.651
  100SAPC   H2S 9951   1.818   4.380   2.588
  100SAPC    C3 9952   2.145   4.069   2.322
  100SAPC    HX 9953   2.233   4.128   2.355
  100SAPC    HY 9954   2.173   4.028   2.223
  100SAPC   O31 9955   2.121   3.956   2.413
  100SAPC   C31 9956   2.014   3.880   2.378
  100SAPC   O32 9957   1.951   3.889   2.273
  100SAPC   C32 9958   1.984   3.784   2.485
  100SAPC   H2X 9959   2.065   3.756   2.556
  100SAPC   H2Y 9960   1.949   3.695   2.428
  100SAPC   C23 9961   1.728   4.214   2.676
  100SAPC   H3R 9962   1.753   4.107   2.695
  100SAPC   H3S 9963   1.634   4.223   2.617
  100SAPC   C24 9964   1.705   4.278   2.814
  100SAPC   H4R 9965   1.611   4.239   2.858
  100SAPC   H4S 9966   1.676   4.382   2.787
  100SAPC   C25 9967   1.831   4.271   2.902
  100SAPC   H5R 9968   1.922   4.299   2.846
  100SAPC   C26 9969   1.847   4.222   3.028
  100SAPC   H6R 9970   1.947   4.240   3.073
  100SAPC   C27 9971   1.742   4.172   3.132
  100SAPC   H7R 9972   1.796   4.095   3.191
  100SAPC   H7S 9973   1.659   4.115   3.084
  100SAPC   C28 9974   1.685   4.282   3.220
  100SAPC   H8R 9975   1.613   4.352   3.175
  100SAPC   C29 9976   1.711   4.303   3.350
  100SAPC   H9R 9977   1.670   4.394   3.398
  100SAPC  C210 9978   1.814   4.216   3.421
  100SAPC  H10R 9979   1.890   4.165   3.358
  100SAPC  H10S 9980   1.757   4.133   3.468
  100SAPC  C211 9981   1.890   4.296   3.527
  100SAPC  H11R 9982   1.980   4.348   3.491
  100SAPC  C212 9983   1.873   4.291   3.658
  100SAPC  H12R 9984   1.937   4.347   3.728
  100SAPC  C213 9985   1.769   4.217   3.740
  100SAPC  H13R 9986   1.709   4.147   3.677
  100SAPC  H13S 9987   1.692   4.297   3.745
  100SAPC  C214 9988   1.791   4.154   3.871
  100SAPC  H14R 9989   1.846   4.059   3.864
  100SAPC  C215 9990   1.755   4.198   3.988
  100SAPC  H15R 9991   1.780   4.140   4.078
  100SAPC  C216 9992   1.683   4.326   4.016
  100SAPC  H16R 9993   1.620   4.350   3.928
  100SAPC  H16S 9994   1.750   4.403   4.060
  100SAPC  C217 9995   1.562   4.314   4.117
  100SAPC  H17R 9996   1.594   4.250   4.202
  100SAPC  H17S 9997   1.481   4.255   4.068
  100SAPC  C218 9998   1.526   4.450   4.161
  100SAPC  H18R 9999   1.614   4.517   4.169
  100SAPC  H18S10000   1.477   4.437   4.260
  100SAPC  C21910001   1.408   4.515   4.087
  100SAPC  H19R10002   1.338   4.435   4.054
  100SAPC  H19S10003   1.446   4.562   3.994
  100SAPC  C22010004   1.324   4.608   4.180
  100SAPC  H20R10005   1.314   4.567   4.283
  100SAPC  H20S10006   1.228   4.640   4.133
  100SAPC  H20T10007   1.379   4.703   4.194
  100SAPC   C3310008   1.864   3.826   2.575
  100SAPC   H3X10009   1.765   3.826   2.523
  100SAPC   H3Y10010   1.883   3.928   2.613
  100SAPC   C3410011   1.857   3.740   2.700
  100SAPC   H4X10012   1.922   3.651   2.690
  100SAPC   H4Y10013   1.756   3.694   2.702
  100SAPC   C3510014   1.870   3.813   2.839
  100SAPC   H5X10015   1.791   3.891   2.842
  100SAPC   H5Y10016   1.970   3.859   2.850
  100SAPC   C3610017   1.843   3.719   2.959
  100SAPC   H6X10018   1.929   3.653   2.983
  100SAPC   H6Y10019   1.748   3.662   2.946
  100SAPC   C3710020   1.818   3.803   3.088
  100SAPC   H7X10021   1.740   3.881   3.072
  100SAPC   H7Y10022   1.915   3.853   3.109
  100SAPC   C3810023   1.774   3.703   3.195
  100SAPC   H8X10024   1.855   3.627   3.190
  100SAPC   H8Y10025   1.681   3.649   3.169
  100SAPC   C3910026   1.760   3.779   3.330
  100SAPC   H9X10027   1.685   3.859   3.312
  100SAPC   H9Y10028   1.859   3.824   3.353
  100SAPC  C31010029   1.725   3.687   3.446
  100SAPC  H10X10030   1.792   3.601   3.465
  100SAPC  H10Y10031   1.623   3.649   3.421
  100SAPC  C31110032   1.705   3.765   3.580
  100SAPC  H11X10033   1.619   3.836   3.577
  100SAPC  H11Y10034   1.800   3.822   3.584
  100SAPC  C31210035   1.683   3.677   3.693
  100SAPC  H12X10036   1.758   3.596   3.702
  100SAPC  H12Y10037   1.581   3.633   3.691
  100SAPC  C31310038   1.698   3.759   3.822
  100SAPC  H13X10039   1.638   3.851   3.812
  100SAPC  H13Y10040   1.807   3.782   3.820
  100SAPC  C31410041   1.657   3.684   3.954
  100SAPC  H14X10042   1.703   3.583   3.961
  100SAPC  H14Y10043   1.548   3.664   3.945
  100SAPC  C31510044   1.700   3.751   4.088
  100SAPC  H15X10045   1.793   3.807   4.063
  100SAPC  H15Y10046   1.729   3.664   4.150
  100SAPC  C31610047   1.592   3.841   4.149
  100SAPC  H16X10048   1.498   3.782   4.155
  100SAPC  H16Y10049   1.583   3.928   4.081
  100SAPC  C31710050   1.614   3.883   4.299
  100SAPC  H17X10051   1.682   3.970   4.290
  100SAPC  H17Y10052   1.666   3.806   4.360
  100SAPC  C31810053   1.494   3.940   4.376
  100SAPC  H18X10054   1.430   4.014   4.322
  100SAPC  H18Y10055   1.532   4.007   4.457
  100SAPC  H18Z10056   1.433   3.854   4.411
  101OSM      N10057   3.706   2.819   7.149
  101OSM    C1510058   3.558   2.844   7.171
  101OSM   H15A10059   3.521   2.800   7.263
  101OSM   H15B10060   3.492   2.809   7.093
  101OSM   H15C10061   3.530   2.948   7.180
  101OSM    C1410062   3.784   2.879   7.265
  101OSM   H14A10063   3.881   2.907   7.227
  101OSM   H14B10064   3.794   2.808   7.346
  101OSM   H14C10065   3.734   2.967   7.303
  101OSM    C1310066   3.731   2.674   7.159
  101OSM   H13A10067   3.683   2.633   7.248
  101OSM   H13B10068   3.837   2.655   7.156
  101OSM   H13C10069   3.683   2.625   7.075
  101OSM    C1210070   3.748   2.882   7.017
  101OSM   H12A10071   3.851   2.913   7.024
  101OSM   H12B10072   3.703   2.980   7.011
  101OSM    C1110073   3.722   2.804   6.887
  101OSM   H11A10074   3.734   2.866   6.796
  101OSM   H11B10075   3.614   2.776   6.890
  101OSM      P10076   3.955   2.724   6.828
  101OSM    O1310077   3.989   2.869   6.845
  101OSM    O1410078   4.049   2.622   6.884
  101OSM    O1110079   3.917   2.690   6.676
  101OSM    O1210080   3.812   2.690   6.890
  101OSM    C1S10081   3.930   2.789   6.579
  101OSM    H1S10082   4.037   2.812   6.562
  101OSM    H1T10083   3.884   2.883   6.618
  101OSM     NF10084   3.878   2.848   6.343
  101OSM    HNF10085   3.808   2.918   6.333
  101OSM    C2S10086   3.856   2.755   6.445
  101OSM    H2S10087   3.902   2.659   6.415
  101OSM    C3S10088   3.709   2.725   6.476
  101OSM    H3S10089   3.666   2.819   6.518
  101OSM     O310090   3.688   2.631   6.579
  101OSM    HO310091   3.766   2.627   6.635
  101OSM    C4S10092   3.627   2.673   6.356
  101OSM    H4S10093   3.671   2.583   6.312
  101OSM    C5S10094   3.508   2.716   6.300
  101OSM    H5S10095   3.467   2.808   6.344
  101OSM    C6S10096   3.455   2.664   6.181
  101OSM    H6S10097   3.344   2.656   6.183
  101OSM    H6T10098   3.499   2.564   6.162
  101OSM    C7S10099   3.464   2.746   6.043
  101OSM    H7S10100   3.568   2.784   6.045
  101OSM    H7T10101   3.400   2.837   6.054
  101OSM    C8S10102   3.420   2.667   5.917
  101OSM    H8S10103   3.326   2.610   5.932
  101OSM    H8T10104   3.498   2.596   5.881
  101OSM    C9S10105   3.387   2.764   5.805
  101OSM    H9S10106   3.478   2.801   5.754
  101OSM    H9T10107   3.333   2.852   5.846
  101OSM   C10S10108   3.311   2.702   5.694
  101OSM   H10S10109   3.212   2.666   5.727
  101OSM   H10T10110   3.373   2.615   5.663
  101OSM   C11S10111   3.307   2.797   5.567
  101OSM   H11S10112   3.407   2.841   5.546
  101OSM   H11T10113   3.232   2.876   5.591
  101OSM   C12S10114   3.261   2.703   5.461
  101OSM   H12S10115   3.170   2.642   5.480
  101OSM   H12T10116   3.344   2.629   5.452
  101OSM   C13S10117   3.240   2.778   5.326
  101OSM   H13S10118   3.324   2.851   5.320
  101OSM   H13T10119   3.146   2.833   5.348
  101OSM   C14S10120   3.228   2.704   5.198
  101OSM   H14S10121   3.119   2.700   5.181
  101OSM   H14T10122   3.272   2.605   5.221
  101OSM   C15S10123   3.297   2.773   5.080
  101OSM   H15S10124   3.270   2.718   4.987
  101OSM   H15T10125   3.406   2.760   5.092
  101OSM   C16S10126   3.253   2.921   5.068
  101OSM   H16S10127   3.281   2.979   5.159
  101OSM   H16T10128   3.143   2.932   5.062
  101OSM   C17S10129   3.309   2.997   4.944
  101OSM   H17S10130   3.304   2.926   4.858
  101OSM   H17T10131   3.418   3.020   4.947
  101OSM   C18S10132   3.214   3.119   4.917
  101OSM   H18S10133   3.267   3.175   4.837
  101OSM   H18T10134   3.206   3.180   5.010
  101OSM   H18U10135   3.110   3.085   4.897
  101OSM    C1F10136   3.997   2.867   6.288
  101OSM     OF10137   4.088   2.785   6.293
  101OSM    C2F10138   4.024   2.999   6.223
  101OSM    H2F10139   4.129   3.022   6.252
  101OSM    H2G10140   3.955   3.077   6.261
  101OSM    C3F10141   4.029   2.975   6.065
  101OSM    H3F10142   4.115   2.911   6.038
  101OSM    H3G10143   4.047   3.071   6.012
  101OSM    C4F10144   3.900   2.918   6.003
  101OSM    H4F10145   3.838   3.005   5.974
  101OSM    H4G10146   3.838   2.863   6.077
  101OSM    C5F10147   3.926   2.828   5.887
  101OSM    H5F10148   3.843   2.754   5.881
  101OSM    H5G10149   4.015   2.764   5.909
  101OSM    C6F10150   3.941   2.901   5.749
  101OSM    H6F10151   4.047   2.921   5.723
  101OSM    H6G10152   3.891   3.000   5.749
  101OSM    C7F10153   3.876   2.842   5.624
  101OSM    H7F10154   3.766   2.853   5.641
  101OSM    H7G10155   3.896   2.733   5.628
  101OSM    C8F10156   3.918   2.921   5.493
  101OSM    H8F10157   3.916   3.027   5.527
  101OSM    H8G10158   3.831   2.917   5.425
  101OSM    C9F10159   4.062   2.885   5.435
  101OSM    H9F10160   4.150   2.904   5.498
  101OSM   C10F10161   4.084   2.832   5.316
  101OSM   H10F10162   4.189   2.824   5.284
  101OSM   C11F10163   3.982   2.810   5.200
  101OSM   H11F10164   3.878   2.800   5.238
  101OSM   H11G10165   4.003   2.715   5.147
  101OSM   C12F10166   3.974   2.920   5.091
  101OSM   H12F10167   3.950   3.010   5.152
  101OSM   H12G10168   3.892   2.905   5.018
  101OSM   C13F10169   4.102   2.929   5.013
  101OSM   H13F10170   4.147   2.828   5.004
  101OSM   H13G10171   4.173   2.983   5.079
  101OSM   C14F10172   4.085   2.990   4.875
  101OSM   H14F10173   3.996   3.055   4.883
  101OSM   H14G10174   4.060   2.917   4.795
  101OSM   C15F10175   4.204   3.082   4.831
  101OSM   H15F10176   4.295   3.019   4.836
  101OSM   H15G10177   4.203   3.165   4.906
  101OSM   C16F10178   4.185   3.141   4.694
  101OSM   H16F10179   4.168   3.069   4.611
  101OSM   H16G10180   4.274   3.202   4.667
  101OSM   C17F10181   4.065   3.249   4.682
  101OSM   H17F10182   4.029   3.273   4.785
  101OSM   H17G10183   3.983   3.201   4.624
  101OSM   C18F10184   4.086   3.379   4.599
  101OSM   H18F10185   3.984   3.418   4.577
  101OSM   H18G10186   4.140   3.360   4.504
  101OSM   H18H10187   4.155   3.446   4.654
  102OSM      N10188   3.821   2.287   6.951
  102OSM    C1510189   3.733   2.335   7.061
  102OSM   H15A10190   3.695   2.253   7.121
  102OSM   H15B10191   3.653   2.397   7.022
  102OSM   H15C10192   3.791   2.395   7.129
  102OSM    C1410193   3.942   2.218   7.013
  102OSM   H14A10194   4.006   2.172   6.939
  102OSM   H14B10195   3.908   2.140   7.079
  102OSM   H14C10196   3.998   2.295   7.065
  102OSM    C1310197   3.743   2.180   6.874
  102OSM   H13A10198   3.659   2.217   6.818
  102OSM   H13B10199   3.714   2.094   6.933
  102OSM   H13C10200   3.806   2.153   6.790
  102OSM    C1210201   3.869   2.394   6.857
  102OSM   H12A10202   3.938   2.460   6.907
  102OSM   H12B10203   3.783   2.451   6.825
  102OSM    C1110204   3.944   2.348   6.722
  102OSM   H11A10205   3.969   2.436   6.660
  102OSM   H11B10206   3.868   2.294   6.661
  102OSM      P10207   4.106   2.141   6.651
  102OSM    O1310208   4.250   2.116   6.670
  102OSM    O1410209   4.015   2.033   6.693
  102OSM    O1110210   4.073   2.180   6.494
  102OSM    O1210211   4.065   2.272   6.739
  102OSM    C1S10212   4.172   2.221   6.405
  102OSM    H1S10213   4.234   2.133   6.378
  102OSM    H1T10214   4.245   2.287   6.455
  102OSM     NF10215   4.221   2.317   6.179
  102OSM    HNF10216   4.240   2.413   6.162
  102OSM    C2S10217   4.112   2.289   6.275
  102OSM    H2S10218   4.052   2.209   6.226
  102OSM    C3S10219   4.007   2.397   6.300
  102OSM    H3S10220   4.062   2.483   6.343
  102OSM     O310221   3.911   2.357   6.389
  102OSM    HO310222   3.952   2.300   6.455
  102OSM    C4S10223   3.936   2.431   6.170
  102OSM    H4S10224   3.968   2.529   6.131
  102OSM    C5S10225   3.834   2.371   6.110
  102OSM    H5S10226   3.793   2.277   6.149
  102OSM    C6S10227   3.777   2.431   5.985
  102OSM    H6S10228   3.781   2.542   5.994
  102OSM    H6T10229   3.669   2.406   5.986
  102OSM    C7S10230   3.820   2.389   5.844
  102OSM    H7S10231   3.819   2.278   5.845
  102OSM    H7T10232   3.926   2.417   5.828
  102OSM    C8S10233   3.746   2.451   5.722
  102OSM    H8S10234   3.751   2.561   5.726
  102OSM    H8T10235   3.638   2.423   5.724
  102OSM    C9S10236   3.824   2.422   5.592
  102OSM    H9S10237   3.853   2.315   5.599
  102OSM    H9T10238   3.916   2.483   5.593
  102OSM   C10S10239   3.745   2.440   5.463
  102OSM   H10S10240   3.649   2.385   5.459
  102OSM   H10T10241   3.817   2.401   5.387
  102OSM   C11S10242   3.709   2.584   5.428
  102OSM   H11S10243   3.803   2.641   5.444
  102OSM   H11T10244   3.631   2.628   5.493
  102OSM   C12S10245   3.661   2.596   5.283
  102OSM   H12S10246   3.675   2.700   5.245
  102OSM   H12T10247   3.554   2.569   5.294
  102OSM   C13S10248   3.725   2.504   5.174
  102OSM   H13S10249   3.684   2.404   5.199
  102OSM   H13T10250   3.836   2.508   5.168
  102OSM   C14S10251   3.661   2.545   5.039
  102OSM   H14S10252   3.552   2.565   5.051
  102OSM   H14T10253   3.669   2.456   4.973
  102OSM   C15S10254   3.743   2.663   4.973
  102OSM   H15S10255   3.851   2.639   4.972
  102OSM   H15T10256   3.738   2.756   5.035
  102OSM   C16S10257   3.697   2.701   4.834
  102OSM   H16S10258   3.587   2.690   4.833
  102OSM   H16T10259   3.746   2.628   4.766
  102OSM   C17S10260   3.732   2.843   4.801
  102OSM   H17S10261   3.843   2.839   4.805
  102OSM   H17T10262   3.698   2.908   4.885
  102OSM   C18S10263   3.686   2.899   4.665
  102OSM   H18S10264   3.747   2.989   4.644
  102OSM   H18T10265   3.576   2.908   4.665
  102OSM   H18U10266   3.708   2.823   4.587
  102OSM    C1F10267   4.308   2.230   6.124
  102OSM     OF10268   4.309   2.108   6.154
  102OSM    C2F10269   4.410   2.272   6.028
  102OSM    H2F10270   4.494   2.317   6.085
  102OSM    H2G10271   4.369   2.350   5.961
  102OSM    C3F10272   4.456   2.157   5.941
  102OSM    H3F10273   4.487   2.068   5.999
  102OSM    H3G10274   4.538   2.195   5.876
  102OSM    C4F10275   4.339   2.108   5.847
  102OSM    H4F10276   4.291   2.184   5.781
  102OSM    H4G10277   4.254   2.064   5.904
  102OSM    C5F10278   4.395   2.013   5.740
  102OSM    H5F10279   4.305   1.953   5.716
  102OSM    H5G10280   4.471   1.943   5.782
  102OSM    C6F10281   4.446   2.085   5.614
  102OSM    H6F10282   4.531   2.153   5.633
  102OSM    H6G10283   4.357   2.142   5.580
  102OSM    C7F10284   4.489   1.978   5.511
  102OSM    H7F10285   4.405   1.909   5.485
  102OSM    H7G10286   4.575   1.916   5.542
  102OSM    C8F10287   4.526   2.031   5.370
  102OSM    H8F10288   4.434   2.076   5.328
  102OSM    H8G10289   4.556   1.941   5.311
  102OSM    C9F10290   4.642   2.137   5.374
  102OSM    H9F10291   4.720   2.130   5.451
  102OSM   C10F10292   4.662   2.238   5.280
  102OSM   H10F10293   4.743   2.312   5.289
  102OSM   C11F10294   4.560   2.259   5.168
  102OSM   H11F10295   4.522   2.364   5.169
  102OSM   H11G10296   4.492   2.176   5.140
  102OSM   C12F10297   4.663   2.251   5.048
  102OSM   H12F10298   4.725   2.159   5.047
  102OSM   H12G10299   4.729   2.341   5.049
  102OSM   C13F10300   4.589   2.258   4.912
  102OSM   H13F10301   4.643   2.302   4.825
  102OSM   H13G10302   4.505   2.328   4.929
  102OSM   C14F10303   4.539   2.115   4.876
  102OSM   H14F10304   4.475   2.078   4.959
  102OSM   H14G10305   4.625   2.045   4.873
  102OSM   C15F10306   4.462   2.123   4.743
  102OSM   H15F10307   4.532   2.164   4.667
  102OSM   H15G10308   4.380   2.197   4.752
  102OSM   C16F10309   4.417   1.994   4.672
  102OSM   H16F10310   4.342   1.941   4.736
  102OSM   H16G10311   4.503   1.929   4.645
  102OSM   C17F10312   4.345   2.030   4.537
  102OSM   H17F10313   4.412   2.099   4.482
  102OSM   H17G10314   4.252   2.083   4.565
  102OSM   C18F10315   4.289   1.917   4.447
  102OSM   H18F10316   4.201   1.862   4.485
  102OSM   H18G10317   4.360   1.831   4.441
  102OSM   H18H10318   4.257   1.962   4.352
  103OSM      N10319   4.225   4.249   6.686
  103OSM    C1510320   4.158   4.210   6.814
  103OSM   H15A10321   4.063   4.163   6.792
  103OSM   H15B10322   4.129   4.287   6.883
  103OSM   H15C10323   4.217   4.145   6.876
  103OSM    C1410324   4.364   4.301   6.714
  103OSM   H14A10325   4.365   4.389   6.777
  103OSM   H14B10326   4.419   4.325   6.624
  103OSM   H14C10327   4.426   4.229   6.764
  103OSM    C1310328   4.230   4.125   6.602
  103OSM   H13A10329   4.283   4.144   6.510
  103OSM   H13B10330   4.135   4.095   6.562
  103OSM   H13C10331   4.288   4.049   6.653
  103OSM    C1210332   4.144   4.359   6.618
  103OSM   H12A10333   4.045   4.327   6.587
  103OSM   H12B10334   4.186   4.362   6.519
  103OSM    C1110335   4.133   4.502   6.684
  103OSM   H11A10336   4.057   4.500   6.765
  103OSM   H11B10337   4.080   4.554   6.601
  103OSM      P10338   4.312   4.691   6.658
  103OSM    O1310339   4.235   4.818   6.689
  103OSM    O1410340   4.458   4.694   6.676
  103OSM    O1110341   4.283   4.660   6.506
  103OSM    O1210342   4.251   4.569   6.730
  103OSM    C1S10343   4.359   4.560   6.441
  103OSM    H1S10344   4.334   4.459   6.480
  103OSM    H1T10345   4.467   4.577   6.461
  103OSM     NF10346   4.385   4.434   6.228
  103OSM    HNF10347   4.467   4.437   6.172
  103OSM    C2S10348   4.329   4.552   6.287
  103OSM    H2S10349   4.218   4.553   6.291
  103OSM    C3S10350   4.383   4.684   6.219
  103OSM    H3S10351   4.492   4.692   6.240
  103OSM     O310352   4.336   4.798   6.300
  103OSM    HO310353   4.303   4.755   6.379
  103OSM    C4S10354   4.349   4.687   6.069
  103OSM    H4S10355   4.241   4.685   6.050
  103OSM    C5S10356   4.438   4.701   5.972
  103OSM    H5S10357   4.543   4.712   6.004
  103OSM    C6S10358   4.413   4.705   5.826
  103OSM    H6S10359   4.304   4.687   5.813
  103OSM    H6T10360   4.466   4.619   5.781
  103OSM    C7S10361   4.456   4.821   5.742
  103OSM    H7S10362   4.566   4.826   5.755
  103OSM    H7T10363   4.410   4.919   5.769
  103OSM    C8S10364   4.416   4.796   5.588
  103OSM    H8S10365   4.312   4.757   5.588
  103OSM    H8T10366   4.480   4.711   5.554
  103OSM    C9S10367   4.448   4.911   5.500
  103OSM    H9S10368   4.558   4.916   5.505
  103OSM    H9T10369   4.415   5.005   5.549
  103OSM   C10S10370   4.407   4.902   5.353
  103OSM   H10S10371   4.296   4.911   5.346
  103OSM   H10T10372   4.430   4.804   5.306
  103OSM   C11S10373   4.462   5.018   5.271
  103OSM   H11S10374   4.571   4.996   5.268
  103OSM   H11T10375   4.433   5.118   5.310
  103OSM   C12S10376   4.407   5.018   5.127
  103OSM   H12S10377   4.297   5.014   5.138
  103OSM   H12T10378   4.442   4.921   5.086
  103OSM   C13S10379   4.441   5.146   5.042
  103OSM   H13S10380   4.549   5.155   5.021
  103OSM   H13T10381   4.421   5.229   5.112
  103OSM   C14S10382   4.358   5.163   4.910
  103OSM   H14S10383   4.379   5.261   4.864
  103OSM   H14T10384   4.255   5.188   4.942
  103OSM   C15S10385   4.370   5.039   4.830
  103OSM   H15S10386   4.322   4.958   4.889
  103OSM   H15T10387   4.474   5.003   4.816
  103OSM   C16S10388   4.308   5.073   4.694
  103OSM   H16S10389   4.352   5.160   4.641
  103OSM   H16T10390   4.200   5.095   4.706
  103OSM   C17S10391   4.310   4.947   4.604
  103OSM   H17S10392   4.288   4.845   4.643
  103OSM   H17T10393   4.415   4.944   4.567
  103OSM   C18S10394   4.221   4.962   4.486
  103OSM   H18S10395   4.261   4.902   4.402
  103OSM   H18T10396   4.206   5.068   4.454
  103OSM   H18U10397   4.119   4.926   4.511
  103OSM    C1F10398   4.325   4.315   6.243
  103OSM     OF10399   4.228   4.307   6.315
  103OSM    C2F10400   4.392   4.197   6.189
  103OSM    H2F10401   4.375   4.110   6.256
  103OSM    H2G10402   4.502   4.210   6.188
  103OSM    C3F10403   4.346   4.146   6.051
  103OSM    H3F10404   4.244   4.104   6.067
  103OSM    H3G10405   4.419   4.065   6.029
  103OSM    C4F10406   4.356   4.251   5.936
  103OSM    H4F10407   4.459   4.291   5.945
  103OSM    H4G10408   4.290   4.337   5.962
  103OSM    C5F10409   4.338   4.194   5.793
  103OSM    H5F10410   4.240   4.143   5.784
  103OSM    H5G10411   4.409   4.109   5.783
  103OSM    C6F10412   4.345   4.310   5.687
  103OSM    H6F10413   4.438   4.370   5.696
  103OSM    H6G10414   4.263   4.385   5.686
  103OSM    C7F10415   4.334   4.241   5.553
  103OSM    H7F10416   4.256   4.163   5.540
  103OSM    H7G10417   4.433   4.189   5.554
  103OSM    C8F10418   4.324   4.343   5.437
  103OSM    H8F10419   4.420   4.396   5.418
  103OSM    H8G10420   4.248   4.421   5.459
  103OSM    C9F10421   4.285   4.280   5.310
  103OSM    H9F10422   4.299   4.171   5.311
  103OSM   C10F10423   4.229   4.351   5.208
  103OSM   H10F10424   4.210   4.294   5.116
  103OSM   C11F10425   4.199   4.497   5.189
  103OSM   H11F10426   4.226   4.561   5.277
  103OSM   H11G10427   4.088   4.504   5.181
  103OSM   C12F10428   4.278   4.534   5.055
  103OSM   H12F10429   4.384   4.502   5.057
  103OSM   H12G10430   4.285   4.644   5.041
  103OSM   C13F10431   4.217   4.484   4.934
  103OSM   H13F10432   4.117   4.532   4.932
  103OSM   H13G10433   4.225   4.373   4.936
  103OSM   C14F10434   4.283   4.544   4.807
  103OSM   H14F10435   4.291   4.654   4.820
  103OSM   H14G10436   4.210   4.524   4.726
  103OSM   C15F10437   4.418   4.478   4.763
  103OSM   H15F10438   4.407   4.369   4.746
  103OSM   H15G10439   4.489   4.492   4.848
  103OSM   C16F10440   4.473   4.531   4.630
  103OSM   H16F10441   4.507   4.636   4.639
  103OSM   H16G10442   4.391   4.532   4.555
  103OSM   C17F10443   4.593   4.451   4.583
  103OSM   H17F10444   4.650   4.436   4.677
  103OSM   H17G10445   4.656   4.508   4.512
  103OSM   C18F10446   4.557   4.319   4.522
  103OSM   H18F10447   4.513   4.340   4.422
  103OSM   H18G10448   4.487   4.260   4.585
  103OSM   H18H10449   4.651   4.261   4.509
  104OSM      N10450   5.601   3.005   6.808
  104OSM    C1510451   5.734   3.046   6.860
  104OSM   H15A10452   5.803   3.048   6.777
  104OSM   H15B10453   5.772   2.986   6.941
  104OSM   H15C10454   5.734   3.148   6.896
  104OSM    C1410455   5.513   2.972   6.916
  104OSM   H14A10456   5.536   2.885   6.976
  104OSM   H14B10457   5.412   2.972   6.879
  104OSM   H14C10458   5.516   3.055   6.986
  104OSM    C1310459   5.538   3.112   6.721
  104OSM   H13A10460   5.445   3.082   6.677
  104OSM   H13B10461   5.609   3.143   6.646
  104OSM   H13C10462   5.511   3.190   6.791
  104OSM    C1210463   5.623   2.889   6.717
  104OSM   H12A10464   5.660   2.798   6.762
  104OSM   H12B10465   5.695   2.920   6.643
  104OSM    C1110466   5.503   2.836   6.632
  104OSM   H11A10467   5.532   2.761   6.555
  104OSM   H11B10468   5.452   2.917   6.576
  104OSM      P10469   5.408   2.635   6.765
  104OSM    O1310470   5.535   2.601   6.836
  104OSM    O1410471   5.281   2.581   6.824
  104OSM    O1110472   5.422   2.564   6.624
  104OSM    O1210473   5.404   2.784   6.722
  104OSM    C1S10474   5.315   2.577   6.525
  104OSM    H1S10475   5.246   2.663   6.537
  104OSM    H1T10476   5.245   2.492   6.542
  104OSM     NF10477   5.265   2.583   6.282
  104OSM    HNF10478   5.193   2.516   6.268
  104OSM    C2S10479   5.368   2.556   6.383
  104OSM    H2S10480   5.445   2.633   6.358
  104OSM    C3S10481   5.435   2.416   6.368
  104OSM    H3S10482   5.356   2.338   6.373
  104OSM     O310483   5.521   2.384   6.475
  104OSM    HO310484   5.502   2.450   6.543
  104OSM    C4S10485   5.508   2.414   6.233
  104OSM    H4S10486   5.452   2.383   6.144
  104OSM    C5S10487   5.639   2.455   6.215
  104OSM    H5S10488   5.695   2.495   6.300
  104OSM    C6S10489   5.729   2.456   6.094
  104OSM    H6S10490   5.805   2.375   6.102
  104OSM    H6T10491   5.780   2.555   6.101
  104OSM    C7S10492   5.664   2.432   5.959
  104OSM    H7S10493   5.583   2.507   5.952
  104OSM    H7T10494   5.618   2.332   5.972
  104OSM    C8S10495   5.755   2.429   5.832
  104OSM    H8S10496   5.820   2.341   5.851
  104OSM    H8T10497   5.803   2.529   5.832
  104OSM    C9S10498   5.677   2.415   5.702
  104OSM    H9S10499   5.615   2.507   5.690
  104OSM    H9T10500   5.607   2.329   5.701
  104OSM   C10S10501   5.769   2.400   5.579
  104OSM   H10S10502   5.840   2.317   5.602
  104OSM   H10T10503   5.842   2.483   5.570
  104OSM   C11S10504   5.677   2.401   5.455
  104OSM   H11S10505   5.613   2.491   5.466
  104OSM   H11T10506   5.603   2.318   5.458
  104OSM   C12S10507   5.741   2.403   5.312
  104OSM   H12S10508   5.796   2.306   5.306
  104OSM   H12T10509   5.811   2.489   5.300
  104OSM   C13S10510   5.635   2.417   5.199
  104OSM   H13S10511   5.594   2.519   5.182
  104OSM   H13T10512   5.554   2.356   5.246
  104OSM   C14S10513   5.677   2.368   5.066
  104OSM   H14S10514   5.744   2.280   5.079
  104OSM   H14T10515   5.734   2.446   5.011
  104OSM   C15S10516   5.562   2.337   4.969
  104OSM   H15S10517   5.485   2.272   5.015
  104OSM   H15T10518   5.609   2.281   4.885
  104OSM   C16S10519   5.506   2.458   4.906
  104OSM   H16S10520   5.586   2.531   4.884
  104OSM   H16T10521   5.436   2.513   4.973
  104OSM   C17S10522   5.424   2.433   4.778
  104OSM   H17S10523   5.360   2.515   4.739
  104OSM   H17T10524   5.355   2.347   4.793
  104OSM   C18S10525   5.525   2.418   4.663
  104OSM   H18S10526   5.587   2.328   4.681
  104OSM   H18T10527   5.577   2.513   4.640
  104OSM   H18U10528   5.467   2.401   4.569
  104OSM    C1F10529   5.224   2.711   6.265
  104OSM     OF10530   5.290   2.800   6.319
  104OSM    C2F10531   5.091   2.737   6.191
  104OSM    H2F10532   5.047   2.813   6.258
  104OSM    H2G10533   5.019   2.652   6.194
  104OSM    C3F10534   5.105   2.798   6.057
  104OSM    H3F10535   5.162   2.892   6.071
  104OSM    H3G10536   5.013   2.804   5.995
  104OSM    C4F10537   5.182   2.713   5.957
  104OSM    H4F10538   5.146   2.608   5.963
  104OSM    H4G10539   5.285   2.696   5.994
  104OSM    C5F10540   5.197   2.764   5.814
  104OSM    H5F10541   5.266   2.852   5.823
  104OSM    H5G10542   5.095   2.793   5.783
  104OSM    C6F10543   5.249   2.661   5.728
  104OSM    H6F10544   5.174   2.579   5.724
  104OSM    H6G10545   5.338   2.602   5.759
  104OSM    C7F10546   5.258   2.714   5.579
  104OSM    H7F10547   5.322   2.805   5.578
  104OSM    H7G10548   5.158   2.742   5.541
  104OSM    C8F10549   5.320   2.604   5.493
  104OSM    H8F10550   5.262   2.509   5.496
  104OSM    H8G10551   5.427   2.585   5.518
  104OSM    C9F10552   5.321   2.668   5.354
  104OSM    H9F10553   5.358   2.771   5.352
  104OSM   C10F10554   5.251   2.638   5.244
  104OSM   H10F10555   5.236   2.714   5.166
  104OSM   C11F10556   5.170   2.512   5.219
  104OSM   H11F10557   5.131   2.460   5.310
  104OSM   H11G10558   5.227   2.434   5.164
  104OSM   C12F10559   5.047   2.533   5.123
  104OSM   H12F10560   4.959   2.588   5.163
  104OSM   H12G10561   4.998   2.433   5.115
  104OSM   C13F10562   5.092   2.543   4.973
  104OSM   H13F10563   5.045   2.457   4.922
  104OSM   H13G10564   5.203   2.549   4.964
  104OSM   C14F10565   5.045   2.676   4.916
  104OSM   H14F10566   5.104   2.764   4.949
  104OSM   H14G10567   4.937   2.697   4.932
  104OSM   C15F10568   5.054   2.667   4.759
  104OSM   H15F10569   4.996   2.572   4.749
  104OSM   H15G10570   5.162   2.649   4.743
  104OSM   C16F10571   4.987   2.788   4.691
  104OSM   H16F10572   5.060   2.868   4.714
  104OSM   H16G10573   4.894   2.803   4.749
  104OSM   C17F10574   4.954   2.783   4.540
  104OSM   H17F10575   4.902   2.691   4.505
  104OSM   H17G10576   5.052   2.790   4.488
  104OSM   C18F10577   4.863   2.901   4.502
  104OSM   H18F10578   4.808   2.875   4.408
  104OSM   H18G10579   4.916   2.997   4.485
  104OSM   H18H10580   4.778   2.911   4.572
  105OSM      N10581   5.682   3.918   6.941
  105OSM    C1510582   5.635   3.777   6.973
  105OSM   H15A10583   5.530   3.770   6.948
  105OSM   H15B10584   5.654   3.752   7.077
  105OSM   H15C10585   5.694   3.703   6.920
  105OSM    C1410586   5.595   4.010   7.023
  105OSM   H14A10587   5.492   4.000   6.993
  105OSM   H14B10588   5.632   4.111   7.016
  105OSM   H14C10589   5.585   3.976   7.125
  105OSM    C1310590   5.828   3.933   6.981
  105OSM   H13A10591   5.860   4.030   6.946
  105OSM   H13B10592   5.891   3.864   6.926
  105OSM   H13C10593   5.845   3.916   7.087
  105OSM    C1210594   5.660   3.946   6.786
  105OSM   H12A10595   5.681   4.050   6.768
  105OSM   H12B10596   5.557   3.927   6.763
  105OSM    C1110597   5.737   3.857   6.675
  105OSM   H11A10598   5.842   3.888   6.690
  105OSM   H11B10599   5.701   3.891   6.576
  105OSM      P10600   5.593   3.642   6.629
  105OSM    O1310601   5.574   3.514   6.695
  105OSM    O1410602   5.470   3.726   6.621
  105OSM    O1110603   5.640   3.602   6.486
  105OSM    O1210604   5.718   3.722   6.699
  105OSM    C1S10605   5.769   3.554   6.459
  105OSM    H1S10606   5.806   3.466   6.517
  105OSM    H1T10607   5.839   3.635   6.488
  105OSM     NF10608   5.902   3.460   6.272
  105OSM    HNF10609   5.978   3.509   6.230
  105OSM    C2S10610   5.784   3.536   6.308
  105OSM    H2S10611   5.707   3.473   6.259
  105OSM    C3S10612   5.772   3.677   6.240
  105OSM    H3S10613   5.854   3.743   6.275
  105OSM     O310614   5.650   3.745   6.265
  105OSM    HO310615   5.608   3.687   6.328
  105OSM    C4S10616   5.783   3.658   6.092
  105OSM    H4S10617   5.723   3.580   6.043
  105OSM    C5S10618   5.859   3.728   6.015
  105OSM    H5S10619   5.918   3.811   6.057
  105OSM    C6S10620   5.868   3.721   5.868
  105OSM    H6S10621   5.962   3.668   5.842
  105OSM    H6T10622   5.875   3.829   5.840
  105OSM    C7S10623   5.748   3.657   5.784
  105OSM    H7S10624   5.669   3.735   5.780
  105OSM    H7T10625   5.719   3.554   5.814
  105OSM    C8S10626   5.770   3.652   5.631
  105OSM    H8S10627   5.689   3.622   5.562
  105OSM    H8T10628   5.845   3.572   5.616
  105OSM    C9S10629   5.837   3.779   5.573
  105OSM    H9S10630   5.920   3.820   5.635
  105OSM    H9T10631   5.754   3.847   5.544
  105OSM   C10S10632   5.901   3.744   5.432
  105OSM   H10S10633   5.976   3.664   5.448
  105OSM   H10T10634   5.960   3.835   5.407
  105OSM   C11S10635   5.822   3.714   5.303
  105OSM   H11S10636   5.740   3.787   5.286
  105OSM   H11T10637   5.779   3.611   5.304
  105OSM   C12S10638   5.911   3.716   5.172
  105OSM   H12S10639   5.863   3.653   5.095
  105OSM   H12T10640   6.008   3.673   5.207
  105OSM   C13S10641   5.905   3.862   5.124
  105OSM   H13S10642   5.931   3.927   5.210
  105OSM   H13T10643   5.800   3.878   5.091
  105OSM   C14S10644   5.994   3.896   5.008
  105OSM   H14S10645   6.092   3.862   5.049
  105OSM   H14T10646   5.990   3.998   4.964
  105OSM   C15S10647   5.987   3.805   4.881
  105OSM   H15S10648   5.903   3.820   4.810
  105OSM   H15T10649   5.975   3.702   4.922
  105OSM   C16S10650   6.121   3.814   4.806
  105OSM   H16S10651   6.211   3.791   4.867
  105OSM   H16T10652   6.141   3.917   4.770
  105OSM   C17S10653   6.118   3.728   4.678
  105OSM   H17S10654   6.185   3.763   4.597
  105OSM   H17T10655   6.017   3.743   4.632
  105OSM   C18S10656   6.140   3.576   4.700
  105OSM   H18S10657   6.049   3.533   4.747
  105OSM   H18T10658   6.221   3.560   4.773
  105OSM   H18U10659   6.166   3.529   4.603
  105OSM    C1F10660   5.908   3.332   6.301
  105OSM     OF10661   5.810   3.279   6.348
  105OSM    C2F10662   6.041   3.263   6.276
  105OSM    H2F10663   6.051   3.190   6.359
  105OSM    H2G10664   6.119   3.342   6.270
  105OSM    C3F10665   6.036   3.171   6.150
  105OSM    H3F10666   5.947   3.105   6.140
  105OSM    H3G10667   6.124   3.103   6.153
  105OSM    C4F10668   6.048   3.243   6.015
  105OSM    H4F10669   6.141   3.303   6.009
  105OSM    H4G10670   5.959   3.309   6.019
  105OSM    C5F10671   6.031   3.160   5.887
  105OSM    H5F10672   5.953   3.084   5.906
  105OSM    H5G10673   6.125   3.106   5.862
  105OSM    C6F10674   5.990   3.252   5.769
  105OSM    H6F10675   6.067   3.332   5.757
  105OSM    H6G10676   5.900   3.312   5.795
  105OSM    C7F10677   5.978   3.170   5.640
  105OSM    H7F10678   5.903   3.090   5.653
  105OSM    H7G10679   6.075   3.123   5.610
  105OSM    C8F10680   5.921   3.254   5.521
  105OSM    H8F10681   5.831   3.310   5.554
  105OSM    H8G10682   5.888   3.200   5.430
  105OSM    C9F10683   6.025   3.353   5.468
  105OSM    H9F10684   6.038   3.445   5.527
  105OSM   C10F10685   6.093   3.342   5.355
  105OSM   H10F10686   6.153   3.430   5.326
  105OSM   C11F10687   6.096   3.229   5.243
  105OSM   H11F10688   6.020   3.154   5.271
  105OSM   H11G10689   6.196   3.181   5.243
  105OSM   C12F10690   6.072   3.280   5.103
  105OSM   H12F10691   6.096   3.198   5.033
  105OSM   H12G10692   6.143   3.361   5.073
  105OSM   C13F10693   5.931   3.316   5.076
  105OSM   H13F10694   5.877   3.385   5.144
  105OSM   H13G10695   5.863   3.228   5.077
  105OSM   C14F10696   5.927   3.368   4.933
  105OSM   H14F10697   5.982   3.289   4.878
  105OSM   H14G10698   5.966   3.471   4.923
  105OSM   C15F10699   5.778   3.387   4.879
  105OSM   H15F10700   5.729   3.457   4.950
  105OSM   H15G10701   5.721   3.292   4.876
  105OSM   C16F10702   5.780   3.447   4.730
  105OSM   H16F10703   5.843   3.376   4.671
  105OSM   H16G10704   5.829   3.546   4.744
  105OSM   C17F10705   5.640   3.467   4.659
  105OSM   H17F10706   5.576   3.378   4.679
  105OSM   H17G10707   5.650   3.479   4.549
  105OSM   C18F10708   5.560   3.592   4.702
  105OSM   H18F10709   5.601   3.690   4.666
  105OSM   H18G10710   5.567   3.586   4.813
  105OSM   H18H10711   5.454   3.583   4.673
  106OSM      N10712   4.151   1.709   6.819
  106OSM    C1510713   4.021   1.641   6.834
  106OSM   H15A10714   3.937   1.705   6.811
  106OSM   H15B10715   4.008   1.597   6.931
  106OSM   H15C10716   4.016   1.553   6.771
  106OSM    C1410717   4.162   1.762   6.677
  106OSM   H14A10718   4.259   1.804   6.656
  106OSM   H14B10719   4.087   1.839   6.668
  106OSM   H14C10720   4.143   1.687   6.602
  106OSM    C1310721   4.151   1.819   6.926
  106OSM   H13A10722   4.175   1.774   7.021
  106OSM   H13B10723   4.051   1.860   6.929
  106OSM   H13C10724   4.216   1.903   6.906
  106OSM    C1210725   4.263   1.607   6.838
  106OSM   H12A10726   4.276   1.579   6.941
  106OSM   H12B10727   4.348   1.671   6.820
  106OSM    C1110728   4.278   1.495   6.739
  106OSM   H11A10729   4.276   1.532   6.634
  106OSM   H11B10730   4.196   1.422   6.752
  106OSM      P10731   4.450   1.334   6.653
  106OSM    O1310732   4.593   1.303   6.675
  106OSM    O1410733   4.353   1.221   6.642
  106OSM    O1110734   4.435   1.420   6.522
  106OSM    O1210735   4.400   1.430   6.765
  106OSM    C1S10736   4.521   1.525   6.482
  106OSM    H1S10737   4.626   1.490   6.494
  106OSM    H1T10738   4.509   1.615   6.546
  106OSM     NF10739   4.595   1.675   6.293
  106OSM    HNF10740   4.554   1.765   6.277
  106OSM    C2S10741   4.505   1.569   6.327
  106OSM    H2S10742   4.526   1.482   6.261
  106OSM    C3S10743   4.354   1.606   6.300
  106OSM    H3S10744   4.320   1.685   6.371
  106OSM     O310745   4.263   1.503   6.339
  106OSM    HO310746   4.313   1.448   6.400
  106OSM    C4S10747   4.338   1.652   6.160
  106OSM    H4S10748   4.346   1.761   6.151
  106OSM    C5S10749   4.292   1.577   6.057
  106OSM    H5S10750   4.259   1.474   6.078
  106OSM    C6S10751   4.255   1.605   5.909
  106OSM    H6S10752   4.334   1.565   5.842
  106OSM    H6T10753   4.250   1.715   5.899
  106OSM    C7S10754   4.121   1.540   5.861
  106OSM    H7S10755   4.035   1.578   5.922
  106OSM    H7T10756   4.125   1.430   5.867
  106OSM    C8S10757   4.083   1.556   5.713
  106OSM    H8S10758   3.979   1.522   5.693
  106OSM    H8T10759   4.140   1.484   5.650
  106OSM    C9S10760   4.107   1.693   5.654
  106OSM    H9S10761   4.215   1.716   5.667
  106OSM    H9T10762   4.050   1.768   5.712
  106OSM   C10S10763   4.075   1.699   5.501
  106OSM   H10S10764   3.967   1.673   5.502
  106OSM   H10T10765   4.150   1.629   5.459
  106OSM   C11S10766   4.101   1.841   5.451
  106OSM   H11S10767   4.206   1.874   5.444
  106OSM   H11T10768   4.053   1.916   5.517
  106OSM   C12S10769   4.047   1.849   5.304
  106OSM   H12S10770   4.019   1.954   5.280
  106OSM   H12T10771   3.952   1.794   5.289
  106OSM   C13S10772   4.163   1.797   5.212
  106OSM   H13S10773   4.153   1.688   5.231
  106OSM   H13T10774   4.270   1.812   5.239
  106OSM   C14S10775   4.132   1.831   5.066
  106OSM   H14S10776   4.151   1.940   5.054
  106OSM   H14T10777   4.025   1.811   5.043
  106OSM   C15S10778   4.208   1.759   4.961
  106OSM   H15S10779   4.318   1.757   4.981
  106OSM   H15T10780   4.205   1.815   4.866
  106OSM   C16S10781   4.173   1.612   4.946
  106OSM   H16S10782   4.067   1.621   4.912
  106OSM   H16T10783   4.165   1.567   5.047
  106OSM   C17S10784   4.278   1.531   4.867
  106OSM   H17S10785   4.233   1.429   4.861
  106OSM   H17T10786   4.364   1.535   4.938
  106OSM   C18S10787   4.323   1.584   4.721
  106OSM   H18S10788   4.251   1.564   4.639
  106OSM   H18T10789   4.419   1.531   4.701
  106OSM   H18U10790   4.340   1.694   4.719
  106OSM    C1F10791   4.721   1.645   6.273
  106OSM     OF10792   4.764   1.533   6.293
  106OSM    C2F10793   4.800   1.756   6.214
  106OSM    H2F10794   4.863   1.798   6.296
  106OSM    H2G10795   4.733   1.830   6.167
  106OSM    C3F10796   4.900   1.716   6.097
  106OSM    H3F10797   4.973   1.641   6.135
  106OSM    H3G10798   4.964   1.802   6.067
  106OSM    C4F10799   4.808   1.660   5.983
  106OSM    H4F10800   4.730   1.736   5.959
  106OSM    H4G10801   4.750   1.576   6.025
  106OSM    C5F10802   4.875   1.610   5.853
  106OSM    H5F10803   4.924   1.512   5.864
  106OSM    H5G10804   4.963   1.672   5.823
  106OSM    C6F10805   4.773   1.608   5.736
  106OSM    H6F10806   4.831   1.588   5.643
  106OSM    H6G10807   4.722   1.705   5.722
  106OSM    C7F10808   4.672   1.500   5.754
  106OSM    H7F10809   4.603   1.525   5.838
  106OSM    H7G10810   4.723   1.409   5.792
  106OSM    C8F10811   4.579   1.464   5.639
  106OSM    H8F10812   4.504   1.390   5.675
  106OSM    H8G10813   4.646   1.421   5.562
  106OSM    C9F10814   4.496   1.579   5.600
  106OSM    H9F10815   4.467   1.652   5.677
  106OSM   C10F10816   4.453   1.588   5.476
  106OSM   H10F10817   4.378   1.667   5.458
  106OSM   C11F10818   4.500   1.506   5.361
  106OSM   H11F10819   4.437   1.418   5.341
  106OSM   H11G10820   4.605   1.473   5.376
  106OSM   C12F10821   4.514   1.586   5.228
  106OSM   H12F10822   4.415   1.626   5.196
  106OSM   H12G10823   4.546   1.521   5.144
  106OSM   C13F10824   4.630   1.698   5.212
  106OSM   H13F10825   4.728   1.646   5.203
  106OSM   H13G10826   4.645   1.757   5.305
  106OSM   C14F10827   4.609   1.790   5.085
  106OSM   H14F10828   4.688   1.867   5.094
  106OSM   H14G10829   4.503   1.821   5.082
  106OSM   C15F10830   4.630   1.719   4.952
  106OSM   H15F10831   4.597   1.779   4.864
  106OSM   H15G10832   4.559   1.635   4.933
  106OSM   C16F10833   4.776   1.674   4.942
  106OSM   H16F10834   4.805   1.623   5.037
  106OSM   H16G10835   4.833   1.769   4.936
  106OSM   C17F10836   4.804   1.590   4.820
  106OSM   H17F10837   4.914   1.579   4.813
  106OSM   H17G10838   4.762   1.644   4.733
  106OSM   C18F10839   4.747   1.446   4.818
  106OSM   H18F10840   4.764   1.416   4.713
  106OSM   H18G10841   4.642   1.453   4.853
  106OSM   H18H10842   4.804   1.377   4.885
  107OSM      N10843   4.155   6.258   6.972
  107OSM    C1510844   4.023   6.312   7.023
  107OSM   H15A10845   3.937   6.258   6.985
  107OSM   H15B10846   4.014   6.417   7.002
  107OSM   H15C10847   4.026   6.301   7.131
  107OSM    C1410848   4.265   6.345   7.024
  107OSM   H14A10849   4.358   6.291   7.015
  107OSM   H14B10850   4.257   6.366   7.129
  107OSM   H14C10851   4.254   6.439   6.971
  107OSM    C1310852   4.173   6.120   7.028
  107OSM   H13A10853   4.264   6.081   6.985
  107OSM   H13B10854   4.097   6.053   6.991
  107OSM   H13C10855   4.174   6.123   7.136
  107OSM    C1210856   4.150   6.247   6.823
  107OSM   H12A10857   4.064   6.186   6.798
  107OSM   H12B10858   4.238   6.196   6.789
  107OSM    C1110859   4.147   6.389   6.753
  107OSM   H11A10860   4.165   6.362   6.646
  107OSM   H11B10861   4.235   6.448   6.787
  107OSM      P10862   4.020   6.606   6.714
  107OSM    O1310863   3.896   6.664   6.763
  107OSM    O1410864   4.143   6.680   6.752
  107OSM    O1110865   4.000   6.596   6.561
  107OSM    O1210866   4.024   6.460   6.766
  107OSM    C1S10867   3.863   6.580   6.515
  107OSM    H1S10868   3.809   6.676   6.526
  107OSM    H1T10869   3.804   6.508   6.576
  107OSM     NF10870   3.736   6.499   6.313
  107OSM    HNF10871   3.730   6.413   6.264
  107OSM    C2S10872   3.864   6.539   6.365
  107OSM    H2S10873   3.890   6.634   6.313
  107OSM    C3S10874   3.986   6.435   6.334
  107OSM    H3S10875   3.967   6.331   6.366
  107OSM     O310876   4.120   6.466   6.374
  107OSM    HO310877   4.103   6.529   6.445
  107OSM    C4S10878   3.978   6.414   6.177
  107OSM    H4S10879   3.944   6.313   6.152
  107OSM    C5S10880   4.014   6.501   6.074
  107OSM    H5S10881   4.055   6.600   6.099
  107OSM    C6S10882   4.013   6.461   5.924
  107OSM    H6S10883   3.914   6.414   5.904
  107OSM    H6T10884   4.092   6.384   5.908
  107OSM    C7S10885   4.027   6.583   5.825
  107OSM    H7S10886   4.135   6.605   5.822
  107OSM    H7T10887   3.969   6.671   5.861
  107OSM    C8S10888   3.979   6.543   5.687
  107OSM    H8S10889   3.869   6.545   5.676
  107OSM    H8T10890   4.016   6.444   5.654
  107OSM    C9S10891   4.050   6.633   5.581
  107OSM    H9S10892   4.159   6.616   5.565
  107OSM    H9T10893   4.022   6.737   5.608
  107OSM   C10S10894   3.981   6.595   5.444
  107OSM   H10S10895   3.874   6.619   5.461
  107OSM   H10T10896   3.983   6.484   5.440
  107OSM   C11S10897   4.048   6.660   5.327
  107OSM   H11S10898   4.146   6.613   5.302
  107OSM   H11T10899   4.061   6.768   5.347
  107OSM   C12S10900   3.978   6.643   5.191
  107OSM   H12S10901   3.887   6.707   5.196
  107OSM   H12T10902   3.935   6.541   5.186
  107OSM   C13S10903   4.068   6.675   5.073
  107OSM   H13S10904   4.151   6.602   5.072
  107OSM   H13T10905   4.111   6.775   5.095
  107OSM   C14S10906   3.982   6.672   4.946
  107OSM   H14S10907   3.902   6.747   4.960
  107OSM   H14T10908   3.940   6.570   4.930
  107OSM   C15S10909   4.071   6.701   4.825
  107OSM   H15S10910   4.148   6.622   4.834
  107OSM   H15T10911   4.118   6.801   4.834
  107OSM   C16S10912   4.011   6.688   4.683
  107OSM   H16S10913   4.100   6.705   4.618
  107OSM   H16T10914   3.942   6.773   4.660
  107OSM   C17S10915   3.945   6.558   4.650
  107OSM   H17S10916   3.852   6.543   4.708
  107OSM   H17T10917   4.013   6.476   4.682
  107OSM   C18S10918   3.903   6.534   4.507
  107OSM   H18S10919   3.865   6.626   4.456
  107OSM   H18T10920   3.841   6.445   4.485
  107OSM   H18U10921   3.995   6.518   4.447
  107OSM    C1F10922   3.623   6.575   6.323
  107OSM     OF10923   3.619   6.677   6.391
  107OSM    C2F10924   3.503   6.514   6.247
  107OSM    H2F10925   3.432   6.464   6.316
  107OSM    H2G10926   3.544   6.439   6.175
  107OSM    C3F10927   3.433   6.625   6.166
  107OSM    H3F10928   3.410   6.713   6.230
  107OSM    H3G10929   3.331   6.590   6.139
  107OSM    C4F10930   3.509   6.674   6.040
  107OSM    H4F10931   3.612   6.709   6.063
  107OSM    H4G10932   3.462   6.760   5.988
  107OSM    C5F10933   3.506   6.562   5.936
  107OSM    H5F10934   3.406   6.514   5.941
  107OSM    H5G10935   3.582   6.484   5.960
  107OSM    C6F10936   3.550   6.612   5.797
  107OSM    H6F10937   3.650   6.660   5.805
  107OSM    H6G10938   3.480   6.692   5.764
  107OSM    C7F10939   3.546   6.499   5.690
  107OSM    H7F10940   3.442   6.462   5.685
  107OSM    H7G10941   3.612   6.415   5.724
  107OSM    C8F10942   3.597   6.551   5.554
  107OSM    H8F10943   3.687   6.614   5.562
  107OSM    H8G10944   3.513   6.615   5.520
  107OSM    C9F10945   3.629   6.431   5.459
  107OSM    H9F10946   3.710   6.367   5.496
  107OSM   C10F10947   3.582   6.405   5.339
  107OSM   H10F10948   3.613   6.309   5.295
  107OSM   C11F10949   3.492   6.482   5.248
  107OSM   H11F10950   3.501   6.590   5.272
  107OSM   H11G10951   3.385   6.464   5.273
  107OSM   C12F10952   3.529   6.464   5.100
  107OSM   H12F10953   3.510   6.359   5.070
  107OSM   H12G10954   3.639   6.477   5.090
  107OSM   C13F10955   3.450   6.557   5.000
  107OSM   H13F10956   3.453   6.664   5.029
  107OSM   H13G10957   3.344   6.524   5.011
  107OSM   C14F10958   3.492   6.534   4.857
  107OSM   H14F10959   3.482   6.426   4.833
  107OSM   H14G10960   3.599   6.563   4.853
  107OSM   C15F10961   3.427   6.634   4.761
  107OSM   H15F10962   3.475   6.734   4.771
  107OSM   H15G10963   3.322   6.650   4.794
  107OSM   C16F10964   3.417   6.586   4.620
  107OSM   H16F10965   3.340   6.647   4.570
  107OSM   H16G10966   3.389   6.479   4.617
  107OSM   C17F10967   3.551   6.606   4.532
  107OSM   H17F10968   3.639   6.554   4.578
  107OSM   H17G10969   3.572   6.714   4.544
  107OSM   C18F10970   3.534   6.556   4.395
  107OSM   H18F10971   3.633   6.553   4.346
  107OSM   H18G10972   3.460   6.622   4.343
  107OSM   H18H10973   3.489   6.455   4.407
  108OSM      N10974   6.429   5.928   6.718
  108OSM    C1510975   6.562   5.895   6.771
  108OSM   H15A10976   6.636   5.876   6.694
  108OSM   H15B10977   6.557   5.798   6.817
  108OSM   H15C10978   6.607   5.966   6.838
  108OSM    C1410979   6.383   5.808   6.636
  108OSM   H14A10980   6.359   5.713   6.681
  108OSM   H14B10981   6.465   5.796   6.566
  108OSM   H14C10982   6.292   5.832   6.582
  108OSM    C1310983   6.333   5.938   6.833
  108OSM   H13A10984   6.322   5.842   6.882
  108OSM   H13B10985   6.235   5.970   6.801
  108OSM   H13C10986   6.367   6.011   6.905
  108OSM    C1210987   6.419   6.061   6.644
  108OSM   H12A10988   6.502   6.082   6.578
  108OSM   H12B10989   6.422   6.132   6.725
  108OSM    C1110990   6.286   6.090   6.566
  108OSM   H11A10991   6.286   6.033   6.471
  108OSM   H11B10992   6.295   6.196   6.534
  108OSM      P10993   6.036   5.999   6.581
  108OSM    O1310994   5.963   5.947   6.700
  108OSM    O1410995   5.971   6.098   6.494
  108OSM    O1110996   6.089   5.879   6.498
  108OSM    O1210997   6.161   6.074   6.636
  108OSM    C1S10998   6.060   5.882   6.348
  108OSM    H1S10999   6.100   5.977   6.306
  108OSM    H1T11000   5.954   5.892   6.316
  108OSM     NF11001   6.155   5.810   6.131
  108OSM    HNF11002   6.078   5.770   6.083
  108OSM    C2S11003   6.150   5.782   6.272
  108OSM    H2S11004   6.249   5.800   6.318
  108OSM    C3S11005   6.123   5.634   6.310
  108OSM    H3S11006   6.016   5.606   6.299
  108OSM     O311007   6.149   5.612   6.443
  108OSM    HO311008   6.135   5.698   6.483
  108OSM    C4S11009   6.196   5.532   6.232
  108OSM    H4S11010   6.137   5.516   6.141
  108OSM    C5S11011   6.310   5.464   6.247
  108OSM    H5S11012   6.376   5.499   6.328
  108OSM    C6S11013   6.382   5.376   6.150
  108OSM    H6S11014   6.380   5.269   6.180
  108OSM    H6T11015   6.489   5.403   6.156
  108OSM    C7S11016   6.325   5.382   6.005
  108OSM    H7S11017   6.343   5.482   5.962
  108OSM    H7T11018   6.214   5.372   6.005
  108OSM    C8S11019   6.378   5.261   5.920
  108OSM    H8S11020   6.361   5.171   5.983
  108OSM    H8T11021   6.485   5.279   5.896
  108OSM    C9S11022   6.307   5.245   5.787
  108OSM    H9S11023   6.331   5.338   5.731
  108OSM    H9T11024   6.197   5.248   5.800
  108OSM   C10S11025   6.365   5.132   5.704
  108OSM   H10S11026   6.344   5.032   5.748
  108OSM   H10T11027   6.475   5.143   5.696
  108OSM   C11S11028   6.289   5.127   5.574
  108OSM   H11S11029   6.183   5.108   5.602
  108OSM   H11T11030   6.327   5.038   5.520
  108OSM   C12S11031   6.307   5.248   5.480
  108OSM   H12S11032   6.273   5.342   5.530
  108OSM   H12T11033   6.245   5.235   5.388
  108OSM   C13S11034   6.444   5.293   5.430
  108OSM   H13S11035   6.499   5.205   5.391
  108OSM   H13T11036   6.501   5.313   5.523
  108OSM   C14S11037   6.443   5.407   5.332
  108OSM   H14S11038   6.545   5.435   5.296
  108OSM   H14T11039   6.380   5.483   5.381
  108OSM   C15S11040   6.380   5.367   5.197
  108OSM   H15S11041   6.275   5.332   5.205
  108OSM   H15T11042   6.449   5.296   5.147
  108OSM   C16S11043   6.360   5.499   5.115
  108OSM   H16S11044   6.467   5.528   5.102
  108OSM   H16T11045   6.309   5.573   5.180
  108OSM   C17S11046   6.300   5.496   4.975
  108OSM   H17S11047   6.317   5.596   4.931
  108OSM   H17T11048   6.189   5.490   4.978
  108OSM   C18S11049   6.363   5.386   4.891
  108OSM   H18S11050   6.339   5.392   4.782
  108OSM   H18T11051   6.320   5.289   4.923
  108OSM   H18U11052   6.473   5.378   4.894
  108OSM    C1F11053   6.226   5.908   6.083
  108OSM     OF11054   6.328   5.953   6.137
  108OSM    C2F11055   6.185   5.953   5.947
  108OSM    H2F11056   6.094   5.896   5.919
  108OSM    H2G11057   6.267   5.915   5.881
  108OSM    C3F11058   6.156   6.101   5.928
  108OSM    H3F11059   6.246   6.166   5.931
  108OSM    H3G11060   6.077   6.128   6.001
  108OSM    C4F11061   6.072   6.132   5.799
  108OSM    H4F11062   6.007   6.222   5.812
  108OSM    H4G11063   6.012   6.045   5.766
  108OSM    C5F11064   6.160   6.156   5.675
  108OSM    H5F11065   6.210   6.057   5.661
  108OSM    H5G11066   6.245   6.227   5.687
  108OSM    C6F11067   6.087   6.198   5.547
  108OSM    H6F11068   6.030   6.288   5.579
  108OSM    H6G11069   6.021   6.121   5.502
  108OSM    C7F11070   6.181   6.251   5.438
  108OSM    H7F11071   6.245   6.172   5.394
  108OSM    H7G11072   6.254   6.323   5.481
  108OSM    C8F11073   6.100   6.318   5.330
  108OSM    H8F11074   6.047   6.404   5.376
  108OSM    H8G11075   6.022   6.250   5.290
  108OSM    C9F11076   6.188   6.378   5.223
  108OSM    H9F11077   6.278   6.322   5.197
  108OSM   C10F11078   6.170   6.493   5.159
  108OSM   H10F11079   6.238   6.522   5.078
  108OSM   C11F11080   6.047   6.578   5.180
  108OSM   H11F11081   6.063   6.642   5.269
  108OSM   H11G11082   5.964   6.508   5.204
  108OSM   C12F11083   6.022   6.662   5.052
  108OSM   H12F11084   5.918   6.699   5.063
  108OSM   H12G11085   6.038   6.601   4.960
  108OSM   C13F11086   6.114   6.781   5.043
  108OSM   H13F11087   6.217   6.749   5.072
  108OSM   H13G11088   6.087   0.026   5.108
  108OSM   C14F11089   6.127   0.002   4.910
  108OSM   H14F11090   6.028   0.025   4.864
  108OSM   H14G11091   6.174   6.769   4.841
  108OSM   C15F11092   6.223   0.127   4.909
  108OSM   H15F11093   6.322   0.092   4.946
  108OSM   H15G11094   6.179   0.194   4.987
  108OSM   C16F11095   6.234   0.202   4.778
  108OSM   H16F11096   6.261   0.132   4.697
  108OSM   H16G11097   6.316   0.276   4.791
  108OSM   C17F11098   6.106   0.275   4.731
  108OSM   H17F11099   6.091   0.352   4.809
  108OSM   H17G11100   6.027   0.197   4.740
  108OSM   C18F11101   6.131   0.340   4.593
  108OSM   H18F11102   6.041   0.402   4.573
  108OSM   H18G11103   6.155   0.266   4.513
  108OSM   H18H11104   6.211   0.416   4.605
  109OSM      N11105   2.583   2.448   6.968
  109OSM    C1511106   2.650   2.571   7.034
  109OSM   H15A11107   2.727   2.533   7.099
  109OSM   H15B11108   2.573   2.616   7.095
  109OSM   H15C11109   2.686   2.633   6.953
  109OSM    C1411110   2.524   2.371   7.089
  109OSM   H14A11111   2.465   2.293   7.045
  109OSM   H14B11112   2.461   2.436   7.148
  109OSM   H14C11113   2.607   2.336   7.149
  109OSM    C1311114   2.482   2.497   6.879
  109OSM   H13A11115   2.423   2.576   6.923
  109OSM   H13B11116   2.406   2.427   6.849
  109OSM   H13C11117   2.529   2.527   6.787
  109OSM    C1211118   2.684   2.361   6.897
  109OSM   H12A11119   2.621   2.287   6.850
  109OSM   H12B11120   2.750   2.308   6.964
  109OSM    C1111121   2.772   2.426   6.791
  109OSM   H11A11122   2.830   2.342   6.747
  109OSM   H11B11123   2.851   2.486   6.840
  109OSM      P11124   2.751   2.610   6.599
  109OSM    O1311125   2.643   2.664   6.512
  109OSM    O1411126   2.825   2.712   6.680
  109OSM    O1111127   2.859   2.546   6.502
  109OSM    O1211128   2.692   2.500   6.700
  109OSM    C1S11129   2.853   2.417   6.451
  109OSM    H1S11130   2.760   2.365   6.482
  109OSM    H1T11131   2.942   2.375   6.502
  109OSM     NF11132   2.828   2.299   6.224
  109OSM    HNF11133   2.905   2.243   6.195
  109OSM    C2S11134   2.865   2.425   6.293
  109OSM    H2S11135   2.793   2.504   6.263
  109OSM    C3S11136   3.008   2.470   6.247
  109OSM    H3S11137   3.076   2.383   6.261
  109OSM     O311138   3.054   2.583   6.323
  109OSM    HO311139   2.986   2.582   6.391
  109OSM    C4S11140   3.013   2.504   6.105
  109OSM    H4S11141   3.014   2.414   6.042
  109OSM    C5S11142   2.981   2.620   6.049
  109OSM    H5S11143   2.950   2.704   6.114
  109OSM    C6S11144   2.957   2.649   5.904
  109OSM    H6S11145   3.030   2.726   5.873
  109OSM    H6T11146   2.858   2.697   5.893
  109OSM    C7S11147   2.969   2.541   5.796
  109OSM    H7S11148   2.900   2.456   5.815
  109OSM    H7T11149   3.075   2.506   5.790
  109OSM    C8S11150   2.921   2.602   5.664
  109OSM    H8S11151   2.991   2.679   5.625
  109OSM    H8T11152   2.823   2.651   5.684
  109OSM    C9S11153   2.911   2.501   5.553
  109OSM    H9S11154   2.855   2.406   5.567
  109OSM    H9T11155   3.010   2.457   5.528
  109OSM   C10S11156   2.859   2.571   5.427
  109OSM   H10S11157   2.937   2.640   5.389
  109OSM   H10T11158   2.763   2.622   5.449
  109OSM   C11S11159   2.822   2.464   5.321
  109OSM   H11S11160   2.746   2.393   5.359
  109OSM   H11T11161   2.918   2.414   5.295
  109OSM   C12S11162   2.769   2.539   5.201
  109OSM   H12S11163   2.839   2.622   5.176
  109OSM   H12T11164   2.671   2.583   5.227
  109OSM   C13S11165   2.762   2.462   5.066
  109OSM   H13S11166   2.702   2.371   5.088
  109OSM   H13T11167   2.863   2.433   5.031
  109OSM   C14S11168   2.686   2.538   4.957
  109OSM   H14S11169   2.594   2.592   4.988
  109OSM   H14T11170   2.658   2.457   4.887
  109OSM   C15S11171   2.777   2.648   4.886
  109OSM   H15S11172   2.881   2.614   4.872
  109OSM   H15T11173   2.785   2.740   4.947
  109OSM   C16S11174   2.712   2.682   4.748
  109OSM   H16S11175   2.642   2.766   4.768
  109OSM   H16T11176   2.645   2.603   4.708
  109OSM   C17S11177   2.815   2.717   4.643
  109OSM   H17S11178   2.897   2.642   4.644
  109OSM   H17T11179   2.847   2.820   4.671
  109OSM   C18S11180   2.756   2.721   4.507
  109OSM   H18S11181   2.710   2.620   4.493
  109OSM   H18T11182   2.837   2.739   4.434
  109OSM   H18U11183   2.670   2.792   4.506
  109OSM    C1F11184   2.699   2.260   6.216
  109OSM     OF11185   2.604   2.328   6.253
  109OSM    C2F11186   2.678   2.116   6.167
  109OSM    H2F11187   2.619   2.074   6.251
  109OSM    H2G11188   2.772   2.059   6.153
  109OSM    C3F11189   2.609   2.112   6.034
  109OSM    H3F11190   2.510   2.163   6.033
  109OSM    H3G11191   2.591   2.005   6.010
  109OSM    C4F11192   2.693   2.165   5.923
  109OSM    H4F11193   2.798   2.129   5.934
  109OSM    H4G11194   2.692   2.276   5.922
  109OSM    C5F11195   2.646   2.118   5.787
  109OSM    H5F11196   2.537   2.097   5.786
  109OSM    H5G11197   2.697   2.022   5.762
  109OSM    C6F11198   2.673   2.215   5.673
  109OSM    H6F11199   2.783   2.222   5.656
  109OSM    H6G11200   2.641   2.318   5.698
  109OSM    C7F11201   2.603   2.171   5.549
  109OSM    H7F11202   2.599   2.249   5.470
  109OSM    H7G11203   2.496   2.159   5.579
  109OSM    C8F11204   2.655   2.046   5.478
  109OSM    H8F11205   2.586   2.014   5.398
  109OSM    H8G11206   2.642   1.965   5.553
  109OSM    C9F11207   2.796   2.060   5.437
  109OSM    H9F11208   2.874   2.061   5.515
  109OSM   C10F11209   2.841   2.075   5.314
  109OSM   H10F11210   2.950   2.083   5.301
  109OSM   C11F11211   2.754   2.100   5.190
  109OSM   H11F11212   2.812   2.175   5.133
  109OSM   H11G11213   2.660   2.150   5.221
  109OSM   C12F11214   2.707   1.976   5.117
  109OSM   H12F11215   2.613   1.957   5.172
  109OSM   H12G11216   2.779   1.893   5.131
  109OSM   C13F11217   2.677   2.003   4.967
  109OSM   H13F11218   2.633   1.910   4.925
  109OSM   H13G11219   2.769   2.023   4.908
  109OSM   C14F11220   2.590   2.130   4.930
  109OSM   H14F11221   2.650   2.217   4.965
  109OSM   H14G11222   2.500   2.120   4.994
  109OSM   C15F11223   2.569   2.130   4.780
  109OSM   H15F11224   2.528   2.030   4.755
  109OSM   H15G11225   2.664   2.137   4.721
  109OSM   C16F11226   2.471   2.245   4.742
  109OSM   H16F11227   2.518   2.336   4.784
  109OSM   H16G11228   2.383   2.229   4.808
  109OSM   C17F11229   2.427   2.242   4.597
  109OSM   H17F11230   2.320   2.270   4.601
  109OSM   H17G11231   2.432   2.140   4.553
  109OSM   C18F11232   2.512   2.328   4.500
  109OSM   H18F11233   2.617   2.292   4.499
  109OSM   H18G11234   2.511   2.437   4.524
  109OSM   H18H11235   2.471   2.315   4.398
  110OSM      N11236   5.728   0.174   6.710
  110OSM    C1511237   5.742   0.117   6.848
  110OSM   H15A11238   5.718   0.192   6.922
  110OSM   H15B11239   5.847   0.092   6.855
  110OSM   H15C11240   5.674   0.034   6.858
  110OSM    C1411241   5.781   0.317   6.707
  110OSM   H14A11242   5.730   0.377   6.781
  110OSM   H14B11243   5.750   0.359   6.613
  110OSM   H14C11244   5.884   0.309   6.736
  110OSM    C1311245   5.794   0.101   6.604
  110OSM   H13A11246   5.757   6.840   6.595
  110OSM   H13B11247   5.901   0.095   6.620
  110OSM   H13C11248   5.784   0.148   6.508
  110OSM    C1211249   5.581   0.178   6.673
  110OSM   H12A11250   5.568   0.194   6.567
  110OSM   H12B11251   5.536   0.267   6.713
  110OSM    C1111252   5.490   0.056   6.703
  110OSM   H11A11253   5.385   0.087   6.680
  110OSM   H11B11254   5.494   0.038   6.812
  110OSM      P11255   5.443   6.664   6.620
  110OSM    O1311256   5.521   6.545   6.575
  110OSM    O1411257   5.371   6.652   6.755
  110OSM    O1111258   5.350   6.695   6.502
  110OSM    O1211259   5.538   6.790   6.630
  110OSM    C1S11260   5.388   6.792   6.399
  110OSM    H1S11261   5.481   0.006   6.424
  110OSM    H1T11262   5.309   0.030   6.400
  110OSM     NF11263   5.414   6.827   6.156
  110OSM    HNF11264   5.339   0.019   6.098
  110OSM    C2S11265   5.387   6.724   6.256
  110OSM    H2S11266   5.474   6.655   6.257
  110OSM    C3S11267   5.252   6.636   6.235
  110OSM    H3S11268   5.166   6.707   6.232
  110OSM     O311269   5.231   6.540   6.338
  110OSM    HO311270   5.288   6.567   6.410
  110OSM    C4S11271   5.253   6.573   6.097
  110OSM    H4S11272   5.222   6.647   6.022
  110OSM    C5S11273   5.300   6.450   6.056
  110OSM    H5S11274   5.365   6.384   6.115
  110OSM    C6S11275   5.305   6.411   5.912
  110OSM    H6S11276   5.220   6.341   5.899
  110OSM    H6T11277   5.405   6.367   5.893
  110OSM    C7S11278   5.284   6.520   5.800
  110OSM    H7S11279   5.353   6.607   5.801
  110OSM    H7T11280   5.182   6.560   5.815
  110OSM    C8S11281   5.275   6.445   5.664
  110OSM    H8S11282   5.194   6.369   5.660
  110OSM    H8T11283   5.372   6.394   5.645
  110OSM    C9S11284   5.241   6.537   5.539
  110OSM    H9S11285   5.161   6.604   5.577
  110OSM    H9T11286   5.190   6.476   5.461
  110OSM   C10S11287   5.359   6.630   5.501
  110OSM   H10S11288   5.430   6.560   5.453
  110OSM   H10T11289   5.397   6.665   5.600
  110OSM   C11S11290   5.299   6.728   5.399
  110OSM   H11S11291   5.249   6.810   5.456
  110OSM   H11T11292   5.223   6.679   5.334
  110OSM   C12S11293   5.417   6.784   5.316
  110OSM   H12S11294   5.456   6.693   5.266
  110OSM   H12T11295   5.480   6.840   5.389
  110OSM   C13S11296   5.361   0.041   5.206
  110OSM   H13S11297   5.308   0.120   5.263
  110OSM   H13T11298   5.289   6.835   5.135
  110OSM   C14S11299   5.471   0.102   5.122
  110OSM   H14S11300   5.537   0.156   5.194
  110OSM   H14T11301   5.419   0.172   5.054
  110OSM   C15S11302   5.547   0.001   5.037
  110OSM   H15S11303   5.466   6.774   5.004
  110OSM   H15T11304   5.634   6.791   5.082
  110OSM   C16S11305   5.624   0.065   4.917
  110OSM   H16S11306   5.691   0.149   4.947
  110OSM   H16T11307   5.545   0.111   4.855
  110OSM   C17S11308   5.705   6.801   4.834
  110OSM   H17S11309   5.643   6.710   4.818
  110OSM   H17T11310   5.792   6.771   4.896
  110OSM   C18S11311   5.748   0.004   4.695
  110OSM   H18S11312   5.772   0.112   4.699
  110OSM   H18T11313   5.671   6.831   4.616
  110OSM   H18U11314   5.847   6.801   4.666
  110OSM    C1F11315   5.529   0.053   6.139
  110OSM     OF11316   5.625   0.025   6.211
  110OSM    C2F11317   5.536   0.163   6.037
  110OSM    H2F11318   5.499   0.257   6.083
  110OSM    H2G11319   5.472   0.142   5.949
  110OSM    C3F11320   5.683   0.175   5.981
  110OSM    H3F11321   5.708   0.082   5.924
  110OSM    H3G11322   5.761   0.199   6.057
  110OSM    C4F11323   5.700   0.282   5.869
  110OSM    H4F11324   5.808   0.280   5.842
  110OSM    H4G11325   5.672   0.383   5.908
  110OSM    C5F11326   5.623   0.265   5.734
  110OSM    H5F11327   5.513   0.279   5.744
  110OSM    H5G11328   5.642   0.158   5.709
  110OSM    C6F11329   5.661   0.367   5.625
  110OSM    H6F11330   5.772   0.372   5.619
  110OSM    H6G11331   5.628   0.466   5.661
  110OSM    C7F11332   5.601   0.326   5.484
  110OSM    H7F11333   5.629   0.221   5.463
  110OSM    H7G11334   5.649   0.396   5.413
  110OSM    C8F11335   5.445   0.341   5.474
  110OSM    H8F11336   5.403   0.286   5.561
  110OSM    H8G11337   5.404   0.279   5.392
  110OSM    C9F11338   5.379   0.477   5.502
  110OSM    H9F11339   5.344   0.488   5.606
  110OSM   C10F11340   5.389   0.576   5.413
  110OSM   H10F11341   5.334   0.671   5.427
  110OSM   C11F11342   5.462   0.568   5.278
  110OSM   H11F11343   5.530   0.480   5.277
  110OSM   H11G11344   5.526   0.658   5.271
  110OSM   C12F11345   5.370   0.547   5.154
  110OSM   H12F11346   5.302   0.635   5.162
  110OSM   H12G11347   5.326   0.446   5.162
  110OSM   C13F11348   5.441   0.558   5.019
  110OSM   H13F11349   5.515   0.475   5.016
  110OSM   H13G11350   5.504   0.649   5.017
  110OSM   C14F11351   5.356   0.548   4.891
  110OSM   H14F11352   5.418   0.557   4.799
  110OSM   H14G11353   5.280   0.629   4.897
  110OSM   C15F11354   5.278   0.415   4.877
  110OSM   H15F11355   5.192   0.427   4.946
  110OSM   H15G11356   5.346   0.339   4.921
  110OSM   C16F11357   5.224   0.379   4.738
  110OSM   H16F11358   5.306   0.381   4.663
  110OSM   H16G11359   5.154   0.456   4.699
  110OSM   C17F11360   5.158   0.241   4.728
  110OSM   H17F11361   5.099   0.229   4.635
  110OSM   H17G11362   5.080   0.234   4.807
  110OSM   C18F11363   5.261   0.126   4.743
  110OSM   H18F11364   5.352   0.142   4.681
  110OSM   H18G11365   5.215   0.027   4.722
  110OSM   H18H11366   5.293   0.130   4.850
  111OSM      N11367   1.207   3.601   6.117
  111OSM    C1511368   1.145   3.730   6.148
  111OSM   H15A11369   1.217   3.804   6.179
  111OSM   H15B11370   1.066   3.719   6.220
  111OSM   H15C11371   1.089   3.774   6.066
  111OSM    C1411372   1.253   3.608   5.973
  111OSM   H14A11373   1.323   3.689   5.957
  111OSM   H14B11374   1.163   3.630   5.917
  111OSM   H14C11375   1.289   3.512   5.940
  111OSM    C1311376   1.330   3.593   6.200
  111OSM   H13A11377   1.301   3.582   6.304
  111OSM   H13B11378   1.394   3.680   6.192
  111OSM   H13C11379   1.385   3.504   6.174
  111OSM    C1211380   1.110   3.484   6.146
  111OSM   H12A11381   1.171   3.395   6.154
  111OSM   H12B11382   1.038   3.471   6.066
  111OSM    C1111383   1.027   3.503   6.273
  111OSM   H11A11384   1.089   3.536   6.359
  111OSM   H11B11385   0.985   3.408   6.311
  111OSM      P11386   0.779   3.545   6.201
  111OSM    O1311387   0.797   3.426   6.114
  111OSM    O1411388   0.685   3.527   6.317
  111OSM    O1111389   0.731   3.673   6.119
  111OSM    O1211390   0.925   3.593   6.261
  111OSM    C1S11391   0.810   3.791   6.123
  111OSM    H1S11392   0.915   3.770   6.091
  111OSM    H1T11393   0.826   3.833   6.225
  111OSM     NF11394   0.840   4.022   6.057
  111OSM    HNF11395   0.814   4.101   6.112
  111OSM    C2S11396   0.754   3.909   6.043
  111OSM    H2S11397   0.762   3.874   5.938
  111OSM    C3S11398   0.601   3.939   6.061
  111OSM    H3S11399   0.578   3.982   6.161
  111OSM     O311400   0.521   3.823   6.079
  111OSM    HO311401   0.574   3.743   6.081
  111OSM    C4S11402   0.542   4.027   5.955
  111OSM    H4S11403   0.559   4.135   5.968
  111OSM    C5S11404   0.478   3.994   5.840
  111OSM    H5S11405   0.455   3.888   5.818
  111OSM    C6S11406   0.424   4.095   5.733
  111OSM    H6S11407   0.315   4.117   5.742
  111OSM    H6T11408   0.439   4.055   5.631
  111OSM    C7S11409   0.487   4.237   5.730
  111OSM    H7S11410   0.475   4.272   5.835
  111OSM    H7T11411   0.425   4.302   5.665
  111OSM    C8S11412   0.630   4.261   5.679
  111OSM    H8S11413   0.685   4.180   5.732
  111OSM    H8T11414   0.661   4.367   5.692
  111OSM    C9S11415   0.649   4.237   5.533
  111OSM    H9S11416   0.614   4.133   5.513
  111OSM    H9T11417   0.758   4.241   5.514
  111OSM   C10S11418   0.580   4.337   5.449
  111OSM   H10S11419   0.566   4.434   5.501
  111OSM   H10T11420   0.480   4.295   5.424
  111OSM   C11S11421   0.645   4.357   5.315
  111OSM   H11S11422   0.653   4.256   5.269
  111OSM   H11T11423   0.743   4.407   5.333
  111OSM   C12S11424   0.580   4.451   5.212
  111OSM   H12S11425   0.578   4.551   5.262
  111OSM   H12T11426   0.478   4.410   5.193
  111OSM   C13S11427   0.654   4.458   5.075
  111OSM   H13S11428   0.631   4.360   5.028
  111OSM   H13T11429   0.763   4.449   5.096
  111OSM   C14S11430   0.626   4.584   5.008
  111OSM   H14S11431   0.663   4.678   5.056
  111OSM   H14T11432   0.516   4.586   4.996
  111OSM   C15S11433   0.676   4.583   4.859
  111OSM   H15S11434   0.656   4.490   4.802
  111OSM   H15T11435   0.787   4.588   4.866
  111OSM   C16S11436   0.608   4.690   4.774
  111OSM   H16S11437   0.621   4.794   4.811
  111OSM   H16T11438   0.499   4.667   4.771
  111OSM   C17S11439   0.653   4.697   4.625
  111OSM   H17S11440   0.636   4.604   4.566
  111OSM   H17T11441   0.763   4.709   4.616
  111OSM   C18S11442   0.581   4.813   4.549
  111OSM   H18S11443   0.601   4.815   4.439
  111OSM   H18T11444   0.623   4.908   4.590
  111OSM   H18U11445   0.472   4.806   4.568
  111OSM    C1F11446   0.968   4.020   6.008
  111OSM     OF11447   1.010   3.928   5.938
  111OSM    C2F11448   1.055   4.133   6.042
  111OSM    H2F11449   1.108   4.100   6.134
  111OSM    H2G11450   0.992   4.218   6.073
  111OSM    C3F11451   1.148   4.180   5.930
  111OSM    H3F11452   1.215   4.095   5.902
  111OSM    H3G11453   1.204   4.272   5.955
  111OSM    C4F11454   1.076   4.215   5.799
  111OSM    H4F11455   0.970   4.243   5.820
  111OSM    H4G11456   1.084   4.134   5.723
  111OSM    C5F11457   1.128   4.339   5.737
  111OSM    H5F11458   1.238   4.330   5.725
  111OSM    H5G11459   1.110   4.436   5.789
  111OSM    C6F11460   1.064   4.350   5.594
  111OSM    H6F11461   0.955   4.370   5.597
  111OSM    H6G11462   1.084   4.258   5.535
  111OSM    C7F11463   1.120   4.473   5.511
  111OSM    H7F11464   1.222   4.450   5.473
  111OSM    H7G11465   1.124   4.560   5.580
  111OSM    C8F11466   1.031   4.511   5.388
  111OSM    H8F11467   1.051   4.614   5.352
  111OSM    H8G11468   0.922   4.508   5.410
  111OSM    C9F11469   1.046   4.418   5.271
  111OSM    H9F11470   1.019   4.312   5.282
  111OSM   C10F11471   1.094   4.448   5.154
  111OSM   H10F11472   1.097   4.369   5.077
  111OSM   C11F11473   1.138   4.586   5.113
  111OSM   H11F11474   1.223   4.575   5.042
  111OSM   H11G11475   1.180   4.642   5.200
  111OSM   C12F11476   1.036   4.672   5.033
  111OSM   H12F11477   0.944   4.685   5.094
  111OSM   H12G11478   1.010   4.603   4.950
  111OSM   C13F11479   1.084   4.809   4.978
  111OSM   H13F11480   1.189   4.804   4.940
  111OSM   H13G11481   1.083   4.876   5.067
  111OSM   C14F11482   0.999   4.859   4.866
  111OSM   H14F11483   0.890   4.848   4.886
  111OSM   H14G11484   1.020   4.805   4.771
  111OSM   C15F11485   1.011   5.015   4.832
  111OSM   H15F11486   1.118   5.043   4.824
  111OSM   H15G11487   0.965   5.084   4.906
  111OSM   C16F11488   0.933   5.040   4.696
  111OSM   H16F11489   0.830   4.997   4.695
  111OSM   H16G11490   0.984   4.994   4.609
  111OSM   C17F11491   0.902   5.189   4.671
  111OSM   H17F11492   1.002   5.237   4.663
  111OSM   H17G11493   0.865   5.239   4.763
  111OSM   C18F11494   0.802   5.209   4.552
  111OSM   H18F11495   0.824   5.140   4.468
  111OSM   H18G11496   0.812   5.310   4.505
  111OSM   H18H11497   0.704   5.170   4.584
  112OSM      N11498   3.970   1.114   7.053
  112OSM    C1511499   4.024   1.022   7.153
  112OSM   H15A11500   3.957   1.023   7.238
  112OSM   H15B11501   4.123   1.057   7.181
  112OSM   H15C11502   4.025   0.921   7.116
  112OSM    C1411503   3.831   1.072   7.031
  112OSM   H14A11504   3.792   1.093   6.933
  112OSM   H14B11505   3.754   1.122   7.089
  112OSM   H14C11506   3.820   0.966   7.048
  112OSM    C1311507   3.978   1.258   7.100
  112OSM   H13A11508   4.082   1.282   7.120
  112OSM   H13B11509   3.914   1.272   7.185
  112OSM   H13C11510   3.941   1.324   7.023
  112OSM    C1211511   4.049   1.095   6.926
  112OSM   H12A11512   4.025   0.997   6.887
  112OSM   H12B11513   4.153   1.102   6.953
  112OSM    C1111514   4.023   1.200   6.815
  112OSM   H11A11515   4.081   1.168   6.726
  112OSM   H11B11516   4.076   1.290   6.853
  112OSM      P11517   3.821   1.356   6.767
  112OSM    O1311518   3.693   1.346   6.699
  112OSM    O1411519   3.824   1.417   6.903
  112OSM    O1111520   3.913   1.443   6.670
  112OSM    O1211521   3.892   1.218   6.768
  112OSM    C1S11522   3.960   1.393   6.551
  112OSM    H1S11523   3.940   1.285   6.533
  112OSM    H1T11524   4.067   1.422   6.558
  112OSM     NF11525   3.964   1.441   6.302
  112OSM    HNF11526   4.047   1.490   6.275
  112OSM    C2S11527   3.905   1.482   6.429
  112OSM    H2S11528   3.796   1.460   6.424
  112OSM    C3S11529   3.912   1.633   6.455
  112OSM    H3S11530   4.019   1.663   6.468
  112OSM     O311531   3.844   1.677   6.571
  112OSM    HO311532   3.826   1.593   6.614
  112OSM    C4S11533   3.849   1.716   6.352
  112OSM    H4S11534   3.752   1.682   6.312
  112OSM    C5S11535   3.902   1.831   6.302
  112OSM    H5S11536   4.007   1.852   6.326
  112OSM    C6S11537   3.836   1.922   6.210
  112OSM    H6S11538   3.870   2.025   6.232
  112OSM    H6T11539   3.726   1.925   6.227
  112OSM    C7S11540   3.861   1.882   6.066
  112OSM    H7S11541   3.850   1.773   6.049
  112OSM    H7T11542   3.969   1.896   6.043
  112OSM    C8S11543   3.785   1.969   5.957
  112OSM    H8S11544   3.813   2.076   5.965
  112OSM    H8T11545   3.677   1.960   5.981
  112OSM    C9S11546   3.794   1.910   5.819
  112OSM    H9S11547   3.751   1.808   5.825
  112OSM    H9T11548   3.900   1.899   5.787
  112OSM   C10S11549   3.717   1.993   5.716
  112OSM   H10S11550   3.743   2.098   5.741
  112OSM   H10T11551   3.609   1.983   5.739
  112OSM   C11S11552   3.740   1.955   5.567
  112OSM   H11S11553   3.725   1.845   5.563
  112OSM   H11T11554   3.847   1.964   5.536
  112OSM   C12S11555   3.658   2.032   5.462
  112OSM   H12S11556   3.700   2.134   5.474
  112OSM   H12T11557   3.550   2.035   5.486
  112OSM   C13S11558   3.693   1.978   5.323
  112OSM   H13S11559   3.637   1.889   5.289
  112OSM   H13T11560   3.794   1.935   5.337
  112OSM   C14S11561   3.670   2.089   5.218
  112OSM   H14S11562   3.697   2.186   5.265
  112OSM   H14T11563   3.563   2.096   5.188
  112OSM   C15S11564   3.758   2.083   5.085
  112OSM   H15S11565   3.763   1.977   5.054
  112OSM   H15T11566   3.858   2.127   5.107
  112OSM   C16S11567   3.687   2.157   4.965
  112OSM   H16S11568   3.657   2.259   4.998
  112OSM   H16T11569   3.589   2.106   4.957
  112OSM   C17S11570   3.761   2.160   4.835
  112OSM   H17S11571   3.857   2.217   4.841
  112OSM   H17T11572   3.696   2.207   4.758
  112OSM   C18S11573   3.804   2.026   4.767
  112OSM   H18S11574   3.849   1.959   4.843
  112OSM   H18T11575   3.884   2.047   4.693
  112OSM   H18U11576   3.717   1.978   4.717
  112OSM    C1F11577   3.947   1.318   6.253
  112OSM     OF11578   3.871   1.240   6.311
  112OSM    C2F11579   4.019   1.287   6.129
  112OSM    H2F11580   4.127   1.294   6.151
  112OSM    H2G11581   3.992   1.359   6.048
  112OSM    C3F11582   4.001   1.139   6.087
  112OSM    H3F11583   3.896   1.101   6.093
  112OSM    H3G11584   4.061   1.079   6.158
  112OSM    C4F11585   4.064   1.108   5.952
  112OSM    H4F11586   4.079   0.998   5.947
  112OSM    H4G11587   4.167   1.150   5.951
  112OSM    C5F11588   3.967   1.152   5.842
  112OSM    H5F11589   3.929   1.255   5.860
  112OSM    H5G11590   3.874   1.092   5.837
  112OSM    C6F11591   4.035   1.155   5.712
  112OSM    H6F11592   4.131   1.211   5.715
  112OSM    H6G11593   3.970   1.209   5.640
  112OSM    C7F11594   4.049   1.013   5.653
  112OSM    H7F11595   3.956   0.960   5.686
  112OSM    H7G11596   4.129   0.962   5.711
  112OSM    C8F11597   4.076   1.008   5.506
  112OSM    H8F11598   3.989   1.053   5.454
  112OSM    H8G11599   4.076   0.903   5.468
  112OSM    C9F11600   4.211   1.064   5.475
  112OSM    H9F11601   4.295   0.993   5.483
  112OSM   C10F11602   4.231   1.173   5.395
  112OSM   H10F11603   4.335   1.198   5.372
  112OSM   C11F11604   4.132   1.280   5.367
  112OSM   H11F11605   4.184   1.375   5.393
  112OSM   H11G11606   4.036   1.271   5.421
  112OSM   C12F11607   4.107   1.291   5.221
  112OSM   H12F11608   4.201   1.310   5.165
  112OSM   H12G11609   4.036   1.374   5.200
  112OSM   C13F11610   4.039   1.168   5.163
  112OSM   H13F11611   3.954   1.135   5.227
  112OSM   H13G11612   4.112   1.085   5.161
  112OSM   C14F11613   3.994   1.182   5.017
  112OSM   H14F11614   3.955   1.286   5.017
  112OSM   H14G11615   3.905   1.120   4.990
  112OSM   C15F11616   4.107   1.159   4.912
  112OSM   H15F11617   4.143   1.054   4.926
  112OSM   H15G11618   4.204   1.211   4.929
  112OSM   C16F11619   4.050   1.177   4.766
  112OSM   H16F11620   3.992   1.271   4.766
  112OSM   H16G11621   3.977   1.095   4.755
  112OSM   C17F11622   4.162   1.165   4.668
  112OSM   H17F11623   4.220   1.079   4.706
  112OSM   H17G11624   4.217   1.261   4.665
  112OSM   C18F11625   4.106   1.133   4.529
  112OSM   H18F11626   4.030   1.207   4.497
  112OSM   H18G11627   4.053   1.037   4.514
  112OSM   H18H11628   4.188   1.124   4.454
  113OSM      N11629   0.839   1.379   7.117
  113OSM    C1511630   0.724   1.375   7.216
  113OSM   H15A11631   0.678   1.469   7.243
  113OSM   H15B11632   0.765   1.318   7.298
  113OSM   H15C11633   0.640   1.316   7.183
  113OSM    C1411634   0.960   1.432   7.190
  113OSM   H14A11635   0.977   1.390   7.287
  113OSM   H14B11636   0.947   1.538   7.202
  113OSM   H14C11637   1.042   1.415   7.121
  113OSM    C1311638   0.871   1.238   7.081
  113OSM   H13A11639   0.796   1.201   7.011
  113OSM   H13B11640   0.876   1.178   7.171
  113OSM   H13C11641   0.965   1.238   7.029
  113OSM    C1211642   0.812   1.468   7.002
  113OSM   H12A11643   0.896   1.492   6.939
  113OSM   H12B11644   0.800   1.569   7.039
  113OSM    C1111645   0.686   1.430   6.917
  113OSM   H11A11646   0.661   1.509   6.843
  113OSM   H11B11647   0.603   1.409   6.988
  113OSM      P11648   0.592   1.261   6.755
  113OSM    O1311649   0.627   1.122   6.706
  113OSM    O1411650   0.453   1.280   6.805
  113OSM    O1111651   0.620   1.360   6.639
  113OSM    O1211652   0.704   1.300   6.865
  113OSM    C1S11653   0.608   1.315   6.506
  113OSM    H1S11654   0.516   1.253   6.496
  113OSM    H1T11655   0.704   1.273   6.466
  113OSM     NF11656   0.531   1.372   6.271
  113OSM    HNF11657   0.598   1.397   6.202
  113OSM    C2S11658   0.565   1.430   6.402
  113OSM    H2S11659   0.472   1.472   6.445
  113OSM    C3S11660   0.677   1.540   6.402
  113OSM    H3S11661   0.763   1.484   6.360
  113OSM     O311662   0.728   1.587   6.521
  113OSM    HO311663   0.687   1.530   6.586
  113OSM    C4S11664   0.632   1.649   6.310
  113OSM    H4S11665   0.652   1.632   6.203
  113OSM    C5S11666   0.568   1.759   6.340
  113OSM    H5S11667   0.548   1.777   6.446
  113OSM    C6S11668   0.515   1.851   6.236
  113OSM    H6S11669   0.555   1.950   6.264
  113OSM    H6T11670   0.404   1.850   6.244
  113OSM    C7S11671   0.561   1.834   6.092
  113OSM    H7S11672   0.539   1.729   6.061
  113OSM    H7T11673   0.670   1.845   6.076
  113OSM    C8S11674   0.502   1.922   5.979
  113OSM    H8S11675   0.530   2.028   5.995
  113OSM    H8T11676   0.392   1.925   5.997
  113OSM    C9S11677   0.531   1.877   5.835
  113OSM    H9S11678   0.492   1.774   5.822
  113OSM    H9T11679   0.641   1.870   5.818
  113OSM   C10S11680   0.455   1.965   5.738
  113OSM   H10S11681   0.481   2.067   5.772
  113OSM   H10T11682   0.350   1.936   5.756
  113OSM   C11S11683   0.497   1.938   5.595
  113OSM   H11S11684   0.452   1.840   5.567
  113OSM   H11T11685   0.608   1.934   5.591
  113OSM   C12S11686   0.435   2.050   5.509
  113OSM   H12S11687   0.463   2.153   5.540
  113OSM   H12T11688   0.325   2.040   5.515
  113OSM   C13S11689   0.459   2.034   5.359
  113OSM   H13S11690   0.441   1.931   5.323
  113OSM   H13T11691   0.567   2.049   5.336
  113OSM   C14S11692   0.386   2.138   5.273
  113OSM   H14S11693   0.427   2.240   5.289
  113OSM   H14T11694   0.276   2.139   5.289
  113OSM   C15S11695   0.401   2.105   5.125
  113OSM   H15S11696   0.334   2.173   5.068
  113OSM   H15T11697   0.369   2.000   5.103
  113OSM   C16S11698   0.543   2.144   5.077
  113OSM   H16S11699   0.615   2.072   5.123
  113OSM   H16T11700   0.566   2.246   5.115
  113OSM   C17S11701   0.551   2.145   4.920
  113OSM   H17S11702   0.459   2.197   4.885
  113OSM   H17T11703   0.531   2.043   4.882
  113OSM   C18S11704   0.681   2.210   4.866
  113OSM   H18S11705   0.721   2.293   4.928
  113OSM   H18T11706   0.653   2.253   4.768
  113OSM   H18U11707   0.762   2.138   4.842
  113OSM    C1F11708   0.418   1.309   6.239
  113OSM     OF11709   0.327   1.291   6.323
  113OSM    C2F11710   0.410   1.246   6.099
  113OSM    H2F11711   0.377   1.140   6.099
  113OSM    H2G11712   0.514   1.223   6.070
  113OSM    C3F11713   0.332   1.329   5.991
  113OSM    H3F11714   0.395   1.418   5.972
  113OSM    H3G11715   0.226   1.349   6.015
  113OSM    C4F11716   0.334   1.247   5.855
  113OSM    H4F11717   0.314   1.142   5.885
  113OSM    H4G11718   0.439   1.249   5.820
  113OSM    C5F11719   0.224   1.295   5.755
  113OSM    H5F11720   0.251   1.401   5.733
  113OSM    H5G11721   0.121   1.278   5.792
  113OSM    C6F11722   0.228   1.225   5.623
  113OSM    H6F11723   0.332   1.221   5.584
  113OSM    H6G11724   0.156   1.282   5.560
  113OSM    C7F11725   0.168   1.079   5.625
  113OSM    H7F11726   0.059   1.078   5.645
  113OSM    H7G11727   0.210   1.028   5.714
  113OSM    C8F11728   0.202   1.005   5.486
  113OSM    H8F11729   0.182   0.898   5.507
  113OSM    H8G11730   0.312   1.012   5.476
  113OSM    C9F11731   0.127   1.044   5.365
  113OSM    H9F11732   0.026   1.001   5.367
  113OSM   C10F11733   0.157   1.132   5.269
  113OSM   H10F11734   0.082   1.135   5.190
  113OSM   C11F11735   0.284   1.214   5.242
  113OSM   H11F11736   0.362   1.198   5.319
  113OSM   H11G11737   0.254   1.320   5.246
  113OSM   C12F11738   0.344   1.186   5.104
  113OSM   H12F11739   0.337   1.077   5.086
  113OSM   H12G11740   0.450   1.219   5.102
  113OSM   C13F11741   0.259   1.242   4.989
  113OSM   H13F11742   0.264   1.350   5.014
  113OSM   H13G11743   0.152   1.216   4.983
  113OSM   C14F11744   0.326   1.249   4.847
  113OSM   H14F11745   0.336   1.154   4.790
  113OSM   H14G11746   0.427   1.286   4.873
  113OSM   C15F11747   0.257   1.343   4.749
  113OSM   H15F11748   0.267   1.447   4.785
  113OSM   H15G11749   0.149   1.321   4.733
  113OSM   C16F11750   0.336   1.340   4.615
  113OSM   H16F11751   0.275   1.405   4.548
  113OSM   H16G11752   0.338   1.238   4.570
  113OSM   C17F11753   0.478   1.393   4.635
  113OSM   H17F11754   0.540   1.315   4.684
  113OSM   H17G11755   0.487   1.482   4.700
  113OSM   C18F11756   0.542   1.432   4.504
  113OSM   H18F11757   0.492   1.520   4.457
  113OSM   H18G11758   0.549   1.349   4.431
  113OSM   H18H11759   0.648   1.461   4.523
  114OSM      N11760   0.316   6.811   6.620
  114OSM    C1511761   0.466   6.833   6.625
  114OSM   H15A11762   0.508   6.804   6.530
  114OSM   H15B11763   0.514   6.761   6.690
  114OSM   H15C11764   0.495   0.091   6.656
  114OSM    C1411765   0.250   0.056   6.517
  114OSM   H14A11766   0.147   0.028   6.502
  114OSM   H14B11767   0.299   0.049   6.421
  114OSM   H14C11768   0.254   0.161   6.539
  114OSM    C1311769   0.293   6.663   6.593
  114OSM   H13A11770   0.289   6.646   6.487
  114OSM   H13B11771   0.205   6.635   6.649
  114OSM   H13C11772   0.379   6.613   6.635
  114OSM    C1211773   0.263   0.006   6.761
  114OSM   H12A11774   0.280   0.110   6.780
  114OSM   H12B11775   0.308   6.789   6.840
  114OSM    C1111776   0.106   0.007   6.772
  114OSM   H11A11777   0.067   0.050   6.678
  114OSM   H11B11778   0.075   0.070   6.858
  114OSM      P11779   6.738   6.686   6.793
  114OSM    O1311780   6.714   6.537   6.814
  114OSM    O1411781   6.668   6.778   6.883
  114OSM    O1111782   6.695   6.720   6.647
  114OSM    O1211783   0.056   6.719   6.796
  114OSM    C1S11784   6.761   6.638   6.546
  114OSM    H1S11785   6.731   6.531   6.550
  114OSM    H1T11786   0.031   6.635   6.553
  114OSM     NF11787   6.790   6.601   6.306
  114OSM    HNF11788   0.034   6.627   6.260
  114OSM    C2S11789   6.726   6.681   6.403
  114OSM    H2S11790   6.618   6.660   6.384
  114OSM    C3S11791   6.747   6.832   6.372
  114OSM    H3S11792   0.015   0.010   6.385
  114OSM     O311793   6.693   0.075   6.471
  114OSM    HO311794   6.659   0.011   6.534
  114OSM    C4S11795   6.701   0.025   6.235
  114OSM    H4S11796   6.606   6.814   6.209
  114OSM    C5S11797   6.762   0.108   6.146
  114OSM    H5S11798   0.026   0.134   6.169
  114OSM    C6S11799   6.722   0.146   6.003
  114OSM    H6S11800   6.799   0.107   5.934
  114OSM    H6T11801   6.737   0.256   5.991
  114OSM    C7S11802   6.577   0.108   5.966
  114OSM    H7S11803   6.513   0.133   6.053
  114OSM    H7T11804   6.569   0.002   5.935
  114OSM    C8S11805   6.532   0.169   5.828
  114OSM    H8S11806   6.533   0.279   5.840
  114OSM    H8T11807   6.424   0.146   5.821
  114OSM    C9S11808   6.612   0.120   5.706
  114OSM    H9S11809   6.598   0.011   5.692
  114OSM    H9T11810   6.716   0.150   5.731
  114OSM   C10S11811   6.567   0.197   5.584
  114OSM   H10S11812   6.537   0.300   5.615
  114OSM   H10T11813   6.476   0.152   5.539
  114OSM   C11S11814   6.678   0.212   5.474
  114OSM   H11S11815   6.706   0.110   5.443
  114OSM   H11T11816   6.760   0.263   5.528
  114OSM   C12S11817   6.631   0.300   5.363
  114OSM   H12S11818   6.614   0.402   5.403
  114OSM   H12T11819   6.535   0.264   5.322
  114OSM   C13S11820   6.714   0.282   5.238
  114OSM   H13S11821   6.724   0.172   5.223
  114OSM   H13T11822   6.816   0.319   5.264
  114OSM   C14S11823   6.666   0.351   5.105
  114OSM   H14S11824   6.648   0.460   5.114
  114OSM   H14T11825   6.580   0.302   5.055
  114OSM   C15S11826   6.766   0.359   4.991
  114OSM   H15S11827   6.788   0.256   4.955
  114OSM   H15T11828   0.025   0.402   5.015
  114OSM   C16S11829   6.716   0.435   4.863
  114OSM   H16S11830   6.678   0.535   4.893
  114OSM   H16T11831   6.624   0.380   4.834
  114OSM   C17S11832   6.811   0.439   4.743
  114OSM   H17S11833   0.015   0.341   4.714
  114OSM   H17T11834   0.064   0.492   4.768
  114OSM   C18S11835   6.757   0.506   4.619
  114OSM   H18S11836   6.714   0.608   4.632
  114OSM   H18T11837   6.684   0.445   4.562
  114OSM   H18U11838   6.839   0.521   4.546
  114OSM    C1F11839   6.750   6.478   6.293
  114OSM     OF11840   6.672   6.423   6.373
  114OSM    C2F11841   6.820   6.399   6.182
  114OSM    H2F11842   6.827   6.299   6.230
  114OSM    H2G11843   0.080   6.434   6.153
  114OSM    C3F11844   6.734   6.387   6.054
  114OSM    H3F11845   6.635   6.345   6.081
  114OSM    H3G11846   6.788   6.306   6.000
  114OSM    C4F11847   6.725   6.516   5.972
  114OSM    H4F11848   6.822   6.546   5.927
  114OSM    H4G11849   6.691   6.601   6.034
  114OSM    C5F11850   6.620   6.506   5.854
  114OSM    H5F11851   6.627   6.410   5.798
  114OSM    H5G11852   6.626   6.595   5.788
  114OSM    C6F11853   6.472   6.513   5.908
  114OSM    H6F11854   6.458   6.616   5.947
  114OSM    H6G11855   6.449   6.443   5.991
  114OSM    C7F11856   6.357   6.494   5.808
  114OSM    H7F11857   6.259   6.477   5.857
  114OSM    H7G11858   6.381   6.401   5.752
  114OSM    C8F11859   6.343   6.607   5.704
  114OSM    H8F11860   6.429   6.603   5.634
  114OSM    H8G11861   6.341   6.704   5.758
  114OSM    C9F11862   6.219   6.596   5.623
  114OSM    H9F11863   6.165   6.505   5.655
  114OSM   C10F11864   6.163   6.685   5.537
  114OSM   H10F11865   6.070   6.651   5.489
  114OSM   C11F11866   6.216   6.816   5.495
  114OSM   H11F11867   6.212   6.824   5.384
  114OSM   H11G11868   6.317   6.825   5.542
  114OSM   C12F11869   6.128   0.088   5.548
  114OSM   H12F11870   6.163   0.190   5.520
  114OSM   H12G11871   6.127   0.086   5.659
  114OSM   C13F11872   5.973   0.083   5.522
  114OSM   H13F11873   5.927   0.169   5.576
  114OSM   H13G11874   5.927   6.829   5.557
  114OSM   C14F11875   5.937   0.096   5.366
  114OSM   H14F11876   5.833   0.068   5.339
  114OSM   H14G11877   6.008   0.035   5.306
  114OSM   C15F11878   5.948   0.246   5.321
  114OSM   H15F11879   6.052   0.284   5.328
  114OSM   H15G11880   5.894   0.309   5.394
  114OSM   C16F11881   5.880   0.276   5.190
  114OSM   H16F11882   5.771   0.261   5.206
  114OSM   H16G11883   5.905   0.199   5.114
  114OSM   C17F11884   5.910   0.415   5.127
  114OSM   H17F11885   6.020   0.427   5.113
  114OSM   H17G11886   5.875   0.498   5.192
  114OSM   C18F11887   5.842   0.429   4.982
  114OSM   H18F11888   5.732   0.419   4.991
  114OSM   H18G11889   5.888   0.354   4.915
  114OSM   H18H11890   5.859   0.531   4.941
  115OSM      N11891   0.050   3.098   6.690
  115OSM    C1511892   6.815   3.225   6.716
  115OSM   H15A11893   0.011   3.282   6.800
  115OSM   H15B11894   6.708   3.214   6.728
  115OSM   H15C11895   6.823   3.295   6.635
  115OSM    C1411896   0.011   3.059   6.554
  115OSM   H14A11897   0.035   3.143   6.491
  115OSM   H14B11898   6.749   3.031   6.542
  115OSM   H14C11899   0.080   2.982   6.522
  115OSM    C1311900   0.196   3.143   6.681
  115OSM   H13A11901   0.227   3.189   6.773
  115OSM   H13B11902   0.197   3.225   6.611
  115OSM   H13C11903   0.253   3.062   6.638
  115OSM    C1211904   0.029   2.995   6.799
  115OSM   H12A11905   0.088   3.029   6.883
  115OSM   H12B11906   0.088   2.909   6.769
  115OSM    C1111907   6.733   2.952   6.841
  115OSM   H11A11908   6.671   3.034   6.884
  115OSM   H11B11909   6.736   2.871   6.917
  115OSM      P11910   6.652   2.790   6.636
  115OSM    O1311911   6.794   2.745   6.612
  115OSM    O1411912   6.556   2.682   6.672
  115OSM    O1111913   6.603   2.843   6.497
  115OSM    O1211914   6.649   2.912   6.728
  115OSM    C1S11915   6.680   2.811   6.379
  115OSM    H1S11916   6.676   2.701   6.365
  115OSM    H1T11917   6.785   2.848   6.382
  115OSM     NF11918   6.663   2.790   6.137
  115OSM    HNF11919   6.719   2.837   6.069
  115OSM    C2S11920   6.628   2.871   6.247
  115OSM    H2S11921   6.517   2.860   6.244
  115OSM    C3S11922   6.658   3.029   6.242
  115OSM    H3S11923   6.769   3.036   6.237
  115OSM     O311924   6.605   3.101   6.351
  115OSM    HO311925   6.554   3.035   6.399
  115OSM    C4S11926   6.612   3.082   6.108
  115OSM    H4S11927   6.682   3.057   6.027
  115OSM    C5S11928   6.490   3.131   6.080
  115OSM    H5S11929   6.420   3.121   6.163
  115OSM    C6S11930   6.431   3.186   5.946
  115OSM    H6S11931   6.388   3.285   5.972
  115OSM    H6T11932   6.352   3.120   5.906
  115OSM    C7S11933   6.520   3.195   5.829
  115OSM    H7S11934   6.562   3.096   5.802
  115OSM    H7T11935   6.602   3.265   5.856
  115OSM    C8S11936   6.457   3.236   5.695
  115OSM    H8S11937   6.389   3.323   5.706
  115OSM    H8T11938   6.391   3.160   5.649
  115OSM    C9S11939   6.556   3.255   5.575
  115OSM    H9S11940   6.619   3.164   5.578
  115OSM    H9T11941   6.612   3.350   5.585
  115OSM   C10S11942   6.481   3.232   5.447
  115OSM   H10S11943   6.388   3.292   5.462
  115OSM   H10T11944   6.456   3.124   5.434
  115OSM   C11S11945   6.556   3.276   5.317
  115OSM   H11S11946   6.660   3.239   5.307
  115OSM   H11T11947   6.566   3.386   5.321
  115OSM   C12S11948   6.492   3.244   5.181
  115OSM   H12S11949   6.408   3.315   5.165
  115OSM   H12T11950   6.463   3.137   5.180
  115OSM   C13S11951   6.587   3.270   5.058
  115OSM   H13S11952   6.647   3.185   5.020
  115OSM   H13T11953   6.656   3.353   5.085
  115OSM   C14S11954   6.504   3.318   4.937
  115OSM   H14S11955   6.569   3.351   4.853
  115OSM   H14T11956   6.448   3.409   4.968
  115OSM   C15S11957   6.408   3.209   4.887
  115OSM   H15S11958   6.353   3.175   4.977
  115OSM   H15T11959   6.465   3.128   4.836
  115OSM   C16S11960   6.311   3.271   4.785
  115OSM   H16S11961   6.361   3.356   4.734
  115OSM   H16T11962   6.217   3.301   4.836
  115OSM   C17S11963   6.276   3.167   4.673
  115OSM   H17S11964   6.231   3.077   4.720
  115OSM   H17T11965   6.364   3.128   4.618
  115OSM   C18S11966   6.174   3.223   4.573
  115OSM   H18S11967   6.212   3.306   4.509
  115OSM   H18T11968   6.086   3.259   4.631
  115OSM   H18U11969   6.152   3.143   4.499
  115OSM    C1F11970   6.622   2.666   6.121
  115OSM     OF11971   6.535   2.632   6.202
  115OSM    C2F11972   6.667   2.581   6.009
  115OSM    H2F11973   6.627   2.477   6.014
  115OSM    H2G11974   6.776   2.571   6.027
  115OSM    C3F11975   6.625   2.640   5.871
  115OSM    H3F11976   6.681   2.735   5.855
  115OSM    H3G11977   6.516   2.662   5.879
  115OSM    C4F11978   6.657   2.554   5.757
  115OSM    H4F11979   6.603   2.457   5.765
  115OSM    H4G11980   6.766   2.533   5.757
  115OSM    C5F11981   6.618   2.610   5.621
  115OSM    H5F11982   6.683   2.699   5.614
  115OSM    H5G11983   6.510   2.638   5.622
  115OSM    C6F11984   6.652   2.527   5.500
  115OSM    H6F11985   6.599   2.430   5.498
  115OSM    H6G11986   6.760   2.500   5.501
  115OSM    C7F11987   6.622   2.594   5.371
  115OSM    H7F11988   6.665   2.696   5.374
  115OSM    H7G11989   6.511   2.592   5.362
  115OSM    C8F11990   6.680   2.502   5.261
  115OSM    H8F11991   6.636   2.400   5.259
  115OSM    H8G11992   6.789   2.486   5.276
  115OSM    C9F11993   6.668   2.557   5.120
  115OSM    H9F11994   6.565   2.582   5.089
  115OSM   C10F11995   6.769   2.590   5.033
  115OSM   H10F11996   6.742   2.617   4.930
  115OSM   C11F11997   0.075   2.557   5.044
  115OSM   H11F11998   0.107   2.540   5.149
  115OSM   H11G11999   0.117   2.653   5.008
  115OSM   C12F12000   0.131   2.444   4.951
  115OSM   H12F12001   0.105   2.342   4.986
  115OSM   H12G12002   0.241   2.452   4.962
  115OSM   C13F12003   0.104   2.459   4.801
  115OSM   H13F12004   0.122   2.566   4.777
  115OSM   H13G12005   6.839   2.431   4.788
  115OSM   C14F12006   0.197   2.380   4.713
  115OSM   H14F12007   0.135   2.332   4.634
  115OSM   H14G12008   0.241   2.305   4.781
  115OSM   C15F12009   0.295   2.479   4.650
  115OSM   H15F12010   0.347   2.542   4.725
  115OSM   H15G12011   0.245   2.549   4.579
  115OSM   C16F12012   0.401   2.395   4.564
  115OSM   H16F12013   0.352   2.318   4.500
  115OSM   H16G12014   0.472   2.345   4.634
  115OSM   C17F12015   0.480   2.491   4.477
  115OSM   H17F12016   0.532   2.571   4.534
  115OSM   H17G12017   0.415   2.530   4.395
  115OSM   C18F12018   0.600   2.414   4.415
  115OSM   H18F12019   0.637   2.366   4.509
  115OSM   H18G12020   0.687   2.466   4.369
  115OSM   H18H12021   0.565   2.335   4.346
  116OSM      N12022   1.491   1.869   6.905
  116OSM    C1512023   1.449   1.774   7.009
  116OSM   H15A12024   1.398   1.820   7.092
  116OSM   H15B12025   1.536   1.729   7.053
  116OSM   H15C12026   1.400   1.695   6.952
  116OSM    C1412027   1.371   1.947   6.874
  116OSM   H14A12028   1.350   1.995   6.969
  116OSM   H14B12029   1.287   1.892   6.835
  116OSM   H14C12030   1.396   2.034   6.815
  116OSM    C1312031   1.596   1.967   6.957
  116OSM   H13A12032   1.562   2.024   7.042
  116OSM   H13B12033   1.609   2.035   6.874
  116OSM   H13C12034   1.692   1.923   6.983
  116OSM    C1212035   1.546   1.783   6.784
  116OSM   H12A12036   1.628   1.721   6.817
  116OSM   H12B12037   1.599   1.853   6.721
  116OSM    C1112038   1.451   1.702   6.695
  116OSM   H11A12039   1.508   1.675   6.603
  116OSM   H11B12040   1.369   1.770   6.665
  116OSM      P12041   1.455   1.452   6.763
  116OSM    O1312042   1.603   1.468   6.776
  116OSM    O1412043   1.383   1.368   6.859
  116OSM    O1112044   1.423   1.400   6.620
  116OSM    O1212045   1.390   1.593   6.765
  116OSM    C1S12046   1.289   1.424   6.569
  116OSM    H1S12047   1.247   1.523   6.596
  116OSM    H1T12048   1.224   1.339   6.600
  116OSM     NF12049   1.157   1.468   6.376
  116OSM    HNF12050   1.077   1.414   6.401
  116OSM    C2S12051   1.281   1.413   6.412
  116OSM    H2S12052   1.369   1.475   6.382
  116OSM    C3S12053   1.311   1.260   6.366
  116OSM    H3S12054   1.227   1.195   6.396
  116OSM     O312055   1.427   1.199   6.426
  116OSM    HO312056   1.450   1.257   6.499
  116OSM    C4S12057   1.304   1.247   6.218
  116OSM    H4S12058   1.197   1.240   6.193
  116OSM    C5S12059   1.385   1.235   6.112
  116OSM    H5S12060   1.494   1.230   6.127
  116OSM    C6S12061   1.336   1.249   5.968
  116OSM    H6S12062   1.287   1.155   5.936
  116OSM    H6T12063   1.428   1.256   5.905
  116OSM    C7S12064   1.235   1.367   5.940
  116OSM    H7S12065   1.281   1.462   5.973
  116OSM    H7T12066   1.151   1.351   6.012
  116OSM    C8S12067   1.179   1.362   5.798
  116OSM    H8S12068   1.098   1.438   5.791
  116OSM    H8T12069   1.136   1.259   5.791
  116OSM    C9S12070   1.282   1.398   5.693
  116OSM    H9S12071   1.365   1.324   5.695
  116OSM    H9T12072   1.323   1.496   5.728
  116OSM   C10S12073   1.215   1.421   5.555
  116OSM   H10S12074   1.116   1.468   5.575
  116OSM   H10T12075   1.185   1.319   5.521
  116OSM   C11S12076   1.301   1.489   5.443
  116OSM   H11S12077   1.388   1.427   5.411
  116OSM   H11T12078   1.324   1.589   5.484
  116OSM   C12S12079   1.229   1.494   5.300
  116OSM   H12S12080   1.158   1.580   5.295
  116OSM   H12T12081   1.171   1.399   5.307
  116OSM   C13S12082   1.323   1.494   5.181
  116OSM   H13S12083   1.384   1.403   5.167
  116OSM   H13T12084   1.397   1.576   5.172
  116OSM   C14S12085   1.243   1.540   5.059
  116OSM   H14S12086   1.310   1.575   4.978
  116OSM   H14T12087   1.184   1.630   5.085
  116OSM   C15S12088   1.159   1.434   4.995
  116OSM   H15S12089   1.073   1.422   5.064
  116OSM   H15T12090   1.216   1.339   4.993
  116OSM   C16S12091   1.107   1.480   4.859
  116OSM   H16S12092   1.044   1.572   4.860
  116OSM   H16T12093   1.033   1.404   4.826
  116OSM   C17S12094   1.205   1.509   4.746
  116OSM   H17S12095   1.261   1.604   4.758
  116OSM   H17T12096   1.154   1.524   4.648
  116OSM   C18S12097   1.294   1.391   4.712
  116OSM   H18S12098   1.347   1.364   4.805
  116OSM   H18T12099   1.359   1.398   4.622
  116OSM   H18U12100   1.235   1.300   4.687
  116OSM    C1F12101   1.140   1.595   6.359
  116OSM     OF12102   1.234   1.673   6.378
  116OSM    C2F12103   1.009   1.635   6.318
  116OSM    H2F12104   0.961   1.696   6.398
  116OSM    H2G12105   0.949   1.544   6.300
  116OSM    C3F12106   1.025   1.740   6.208
  116OSM    H3F12107   1.082   1.830   6.241
  116OSM    H3G12108   0.923   1.776   6.183
  116OSM    C4F12109   1.088   1.688   6.079
  116OSM    H4F12110   1.021   1.612   6.035
  116OSM    H4G12111   1.181   1.634   6.106
  116OSM    C5F12112   1.125   1.804   5.988
  116OSM    H5F12113   1.176   1.895   6.025
  116OSM    H5G12114   1.024   1.843   5.961
  116OSM    C6F12115   1.201   1.762   5.857
  116OSM    H6F12116   1.153   1.671   5.816
  116OSM    H6G12117   1.305   1.736   5.884
  116OSM    C7F12118   1.186   1.873   5.755
  116OSM    H7F12119   1.209   1.976   5.790
  116OSM    H7G12120   1.081   1.880   5.719
  116OSM    C8F12121   1.283   1.840   5.639
  116OSM    H8F12122   1.250   1.901   5.551
  116OSM    H8G12123   1.266   1.734   5.613
  116OSM    C9F12124   1.428   1.865   5.674
  116OSM    H9F12125   1.443   1.864   5.783
  116OSM   C10F12126   1.533   1.859   5.583
  116OSM   H10F12127   1.635   1.879   5.619
  116OSM   C11F12128   1.512   1.841   5.434
  116OSM   H11F12129   1.404   1.834   5.412
  116OSM   H11G12130   1.560   1.747   5.399
  116OSM   C12F12131   1.590   1.946   5.345
  116OSM   H12F12132   1.700   1.946   5.359
  116OSM   H12G12133   1.550   2.046   5.371
  116OSM   C13F12134   1.575   1.925   5.192
  116OSM   H13F12135   1.606   1.822   5.165
  116OSM   H13G12136   1.638   2.003   5.144
  116OSM   C14F12137   1.436   1.936   5.129
  116OSM   H14F12138   1.388   2.037   5.132
  116OSM   H14G12139   1.371   1.868   5.187
  116OSM   C15F12140   1.425   1.894   4.980
  116OSM   H15F12141   1.469   1.792   4.975
  116OSM   H15G12142   1.494   1.954   4.917
  116OSM   C16F12143   1.286   1.893   4.926
  116OSM   H16F12144   1.223   1.978   4.962
  116OSM   H16G12145   1.239   1.801   4.967
  116OSM   C17F12146   1.286   1.880   4.770
  116OSM   H17F12147   1.359   1.809   4.725
  116OSM   H17G12148   1.333   1.979   4.750
  116OSM   C18F12149   1.151   1.866   4.697
  116OSM   H18F12150   1.170   1.870   4.588
  116OSM   H18G12151   1.085   1.945   4.738
  116OSM   H18H12152   1.097   1.771   4.714
  117OSM      N12153   0.785   3.843   6.585
  117OSM    C1512154   0.661   3.763   6.609
  117OSM   H15A12155   0.677   3.670   6.661
  117OSM   H15B12156   0.621   3.745   6.510
  117OSM   H15C12157   0.590   3.824   6.662
  117OSM    C1412158   0.875   3.743   6.520
  117OSM   H14A12159   0.975   3.784   6.516
  117OSM   H14B12160   0.835   3.724   6.422
  117OSM   H14C12161   0.869   3.646   6.567
  117OSM    C1312162   0.764   3.953   6.483
  117OSM   H13A12163   0.713   3.917   6.395
  117OSM   H13B12164   0.861   3.995   6.464
  117OSM   H13C12165   0.695   4.029   6.518
  117OSM    C1212166   0.832   3.891   6.721
  117OSM   H12A12167   0.930   3.933   6.708
  117OSM   H12B12168   0.839   3.799   6.778
  117OSM    C1112169   0.746   3.983   6.804
  117OSM   H11A12170   0.816   4.012   6.886
  117OSM   H11B12171   0.656   3.946   6.858
  117OSM      P12172   0.559   4.153   6.716
  117OSM    O1312173   0.476   4.061   6.789
  117OSM    O1412174   0.555   4.295   6.757
  117OSM    O1112175   0.515   4.147   6.566
  117OSM    O1212176   0.709   4.098   6.727
  117OSM    C1S12177   0.581   4.242   6.475
  117OSM    H1S12178   0.678   4.207   6.434
  117OSM    H1T12179   0.603   4.341   6.521
  117OSM     NF12180   0.551   4.357   6.251
  117OSM    HNF12181   0.510   4.448   6.242
  117OSM    C2S12182   0.498   4.256   6.341
  117OSM    H2S12183   0.508   4.159   6.288
  117OSM    C3S12184   0.347   4.270   6.347
  117OSM    H3S12185   0.323   4.376   6.370
  117OSM     O312186   0.282   4.203   6.450
  117OSM    HO312187   0.348   4.188   6.517
  117OSM    C4S12188   0.282   4.253   6.215
  117OSM    H4S12189   0.261   4.356   6.184
  117OSM    C5S12190   0.237   4.134   6.164
  117OSM    H5S12191   0.257   4.039   6.216
  117OSM    C6S12192   0.142   4.132   6.046
  117OSM    H6S12193   0.041   4.102   6.081
  117OSM    H6T12194   0.179   4.050   5.981
  117OSM    C7S12195   0.139   4.258   5.962
  117OSM    H7S12196   0.245   4.279   5.936
  117OSM    H7T12197   0.103   4.337   6.031
  117OSM    C8S12198   0.067   4.253   5.834
  117OSM    H8S12199   6.804   4.288   5.851
  117OSM    H8T12200   0.072   4.152   5.786
  117OSM    C9S12201   0.123   4.349   5.728
  117OSM    H9S12202   0.214   4.304   5.683
  117OSM    H9T12203   0.157   4.442   5.779
  117OSM   C10S12204   0.014   4.393   5.631
  117OSM   H10S12205   6.761   4.423   5.683
  117OSM   H10T12206   6.832   4.297   5.580
  117OSM   C11S12207   0.061   4.495   5.526
  117OSM   H11S12208   0.160   4.468   5.484
  117OSM   H11T12209   0.075   4.596   5.571
  117OSM   C12S12210   6.801   4.515   5.411
  117OSM   H12S12211   6.704   4.541   5.457
  117OSM   H12T12212   6.789   4.415   5.363
  117OSM   C13S12213   6.840   4.624   5.316
  117OSM   H13S12214   0.011   4.720   5.369
  117OSM   H13T12215   6.759   4.631   5.240
  117OSM   C14S12216   0.123   4.608   5.232
  117OSM   H14S12217   0.109   4.517   5.169
  117OSM   H14T12218   0.213   4.582   5.292
  117OSM   C15S12219   0.158   4.728   5.136
  117OSM   H15S12220   0.263   4.708   5.109
  117OSM   H15T12221   0.152   4.818   5.201
  117OSM   C16S12222   0.067   4.741   5.015
  117OSM   H16S12223   6.805   4.775   5.041
  117OSM   H16T12224   0.051   4.638   4.976
  117OSM   C17S12225   0.129   4.819   4.904
  117OSM   H17S12226   0.231   4.781   4.882
  117OSM   H17T12227   0.134   4.925   4.938
  117OSM   C18S12228   0.053   4.807   4.775
  117OSM   H18S12229   6.785   4.794   4.790
  117OSM   H18T12230   0.092   4.723   4.713
  117OSM   H18U12231   0.072   4.898   4.714
  117OSM    C1F12232   0.681   4.349   6.202
  117OSM     OF12233   0.753   4.246   6.206
  117OSM    C2F12234   0.741   4.471   6.149
  117OSM    H2F12235   0.841   4.474   6.198
  117OSM    H2G12236   0.701   4.563   6.196
  117OSM    C3F12237   0.772   4.470   5.998
  117OSM    H3F12238   0.677   4.454   5.941
  117OSM    H3G12239   0.825   4.378   5.967
  117OSM    C4F12240   0.834   4.600   5.943
  117OSM    H4F12241   0.933   4.629   5.985
  117OSM    H4G12242   0.758   4.674   5.977
  117OSM    C5F12243   0.837   4.622   5.787
  117OSM    H5F12244   0.737   4.595   5.746
  117OSM    H5G12245   0.911   4.548   5.749
  117OSM    C6F12246   0.884   4.765   5.746
  117OSM    H6F12247   0.985   4.781   5.790
  117OSM    H6G12248   0.821   4.845   5.790
  117OSM    C7F12249   0.889   4.790   5.600
  117OSM    H7F12250   0.789   4.772   5.556
  117OSM    H7G12251   0.966   4.726   5.552
  117OSM    C8F12252   0.912   4.935   5.563
  117OSM    H8F12253   0.838   4.992   5.623
  117OSM    H8G12254   0.882   4.950   5.457
  117OSM    C9F12255   1.052   4.974   5.603
  117OSM    H9F12256   1.075   4.950   5.708
  117OSM   C10F12257   1.132   5.045   5.520
  117OSM   H10F12258   1.237   5.063   5.545
  117OSM   C11F12259   1.102   5.077   5.375
  117OSM   H11F12260   1.011   5.139   5.364
  117OSM   H11G12261   1.092   4.979   5.324
  117OSM   C12F12262   1.222   5.152   5.308
  117OSM   H12F12263   1.316   5.091   5.311
  117OSM   H12G12264   1.242   5.237   5.376
  117OSM   C13F12265   1.190   5.209   5.168
  117OSM   H13F12266   1.126   5.299   5.181
  117OSM   H13G12267   1.133   5.125   5.125
  117OSM   C14F12268   1.308   5.243   5.081
  117OSM   H14F12269   1.354   5.147   5.050
  117OSM   H14G12270   1.378   5.299   5.147
  117OSM   C15F12271   1.272   5.321   4.957
  117OSM   H15F12272   1.253   5.429   4.972
  117OSM   H15G12273   1.184   5.267   4.915
  117OSM   C16F12274   1.377   5.299   4.850
  117OSM   H16F12275   1.334   5.334   4.754
  117OSM   H16G12276   1.403   5.192   4.836
  117OSM   C17F12277   1.506   5.375   4.888
  117OSM   H17F12278   1.554   5.327   4.977
  117OSM   H17G12279   1.490   5.480   4.924
  117OSM   C18F12280   1.617   5.385   4.784
  117OSM   H18F12281   1.598   5.464   4.709
  117OSM   H18G12282   1.633   5.285   4.739
  117OSM   H18H12283   1.716   5.419   4.821
  118OSM      N12284   0.058   3.577   6.407
  118OSM    C1512285   0.164   3.556   6.514
  118OSM   H15A12286   0.158   3.459   6.562
  118OSM   H15B12287   0.130   3.618   6.595
  118OSM   H15C12288   0.262   3.571   6.470
  118OSM    C1412289   6.764   3.548   6.473
  118OSM   H14A12290   6.681   3.568   6.406
  118OSM   H14B12291   6.750   3.614   6.558
  118OSM   H14C12292   6.762   3.442   6.494
  118OSM    C1312293   0.067   3.712   6.351
  118OSM   H13A12294   6.836   3.729   6.273
  118OSM   H13B12295   0.165   3.737   6.313
  118OSM   H13C12296   0.039   3.780   6.430
  118OSM    C1212297   0.083   3.492   6.294
  118OSM   H12A12298   0.185   3.494   6.259
  118OSM   H12B12299   0.021   3.520   6.210
  118OSM    C1112300   0.060   3.338   6.305
  118OSM   H11A12301   0.061   3.291   6.204
  118OSM   H11B12302   6.798   3.329   6.344
  118OSM      P12303   0.281   3.218   6.349
  118OSM    O1312304   0.371   3.257   6.458
  118OSM    O1412305   0.271   3.075   6.313
  118OSM    O1112306   0.321   3.306   6.230
  118OSM    O1212307   0.143   3.274   6.404
  118OSM    C1S12308   0.455   3.289   6.177
  118OSM    H1S12309   0.493   3.186   6.194
  118OSM    H1T12310   0.523   3.369   6.213
  118OSM     NF12311   0.572   3.265   5.950
  118OSM    HNF12312   0.661   3.310   5.959
  118OSM    C2S12313   0.449   3.315   6.018
  118OSM    H2S12314   0.359   3.260   5.984
  118OSM    C3S12315   0.416   3.466   5.997
  118OSM    H3S12316   0.495   3.531   6.040
  118OSM     O312317   0.292   3.498   6.057
  118OSM    HO312318   0.275   3.423   6.114
  118OSM    C4S12319   0.402   3.501   5.849
  118OSM    H4S12320   0.320   3.442   5.805
  118OSM    C5S12321   0.463   3.598   5.781
  118OSM    H5S12322   0.544   3.656   5.829
  118OSM    C6S12323   0.431   3.631   5.641
  118OSM    H6S12324   0.420   3.741   5.626
  118OSM    H6T12325   0.335   3.595   5.598
  118OSM    C7S12326   0.536   3.580   5.543
  118OSM    H7S12327   0.553   3.470   5.552
  118OSM    H7T12328   0.632   3.627   5.574
  118OSM    C8S12329   0.514   3.631   5.400
  118OSM    H8S12330   0.544   3.737   5.382
  118OSM    H8T12331   0.403   3.634   5.389
  118OSM    C9S12332   0.567   3.543   5.282
  118OSM    H9S12333   0.509   3.448   5.282
  118OSM    H9T12334   0.674   3.523   5.302
  118OSM   C10S12335   0.564   3.603   5.139
  118OSM   H10S12336   0.648   3.676   5.140
  118OSM   H10T12337   0.469   3.655   5.113
  118OSM   C11S12338   0.594   3.503   5.020
  118OSM   H11S12339   0.511   3.432   5.002
  118OSM   H11T12340   0.691   3.453   5.041
  118OSM   C12S12341   0.607   3.579   4.879
  118OSM   H12S12342   0.652   3.504   4.812
  118OSM   H12T12343   0.687   3.655   4.887
  118OSM   C13S12344   0.480   3.647   4.819
  118OSM   H13S12345   0.447   3.721   4.895
  118OSM   H13T12346   0.409   3.565   4.798
  118OSM   C14S12347   0.511   3.709   4.685
  118OSM   H14S12348   0.563   3.641   4.615
  118OSM   H14T12349   0.579   3.791   4.716
  118OSM   C15S12350   0.381   3.767   4.623
  118OSM   H15S12351   0.352   3.858   4.679
  118OSM   H15T12352   0.296   3.697   4.633
  118OSM   C16S12353   0.380   3.786   4.465
  118OSM   H16S12354   0.361   3.688   4.415
  118OSM   H16T12355   0.478   3.826   4.430
  118OSM   C17S12356   0.271   3.885   4.420
  118OSM   H17S12357   0.258   3.880   4.310
  118OSM   H17T12358   0.289   3.992   4.444
  118OSM   C18S12359   0.127   3.855   4.470
  118OSM   H18S12360   0.125   3.743   4.471
  118OSM   H18T12361   0.060   3.911   4.401
  118OSM   H18U12362   0.117   3.899   4.571
  118OSM    C1F12363   0.579   3.132   5.929
  118OSM     OF12364   0.480   3.064   5.951
  118OSM    C2F12365   0.710   3.067   5.888
  118OSM    H2F12366   0.709   2.970   5.942
  118OSM    H2G12367   0.802   3.125   5.912
  118OSM    C3F12368   0.717   3.060   5.730
  118OSM    H3F12369   0.623   3.017   5.689
  118OSM    H3G12370   0.795   2.993   5.689
  118OSM    C4F12371   0.737   3.197   5.663
  118OSM    H4F12372   0.835   3.243   5.689
  118OSM    H4G12373   0.661   3.276   5.684
  118OSM    C5F12374   0.741   3.177   5.507
  118OSM    H5F12375   0.637   3.160   5.470
  118OSM    H5G12376   0.797   3.084   5.486
  118OSM    C6F12377   0.821   3.293   5.432
  118OSM    H6F12378   0.789   3.391   5.473
  118OSM    H6G12379   0.797   3.302   5.324
  118OSM    C7F12380   0.974   3.278   5.441
  118OSM    H7F12381   1.016   3.254   5.541
  118OSM    H7G12382   1.011   3.380   5.416
  118OSM    C8F12383   1.021   3.190   5.321
  118OSM    H8F12384   0.982   3.224   5.223
  118OSM    H8G12385   0.980   3.087   5.336
  118OSM    C9F12386   1.173   3.187   5.305
  118OSM    H9F12387   1.219   3.167   5.403
  118OSM   C10F12388   1.246   3.192   5.192
  118OSM   H10F12389   1.356   3.182   5.197
  118OSM   C11F12390   1.195   3.231   5.054
  118OSM   H11F12391   1.097   3.285   5.052
  118OSM   H11G12392   1.186   3.141   4.989
  118OSM   C12F12393   1.290   3.324   4.979
  118OSM   H12F12394   1.393   3.281   4.985
  118OSM   H12G12395   1.298   3.423   5.028
  118OSM   C13F12396   1.254   3.338   4.822
  118OSM   H13F12397   1.151   3.379   4.820
  118OSM   H13G12398   1.256   3.230   4.796
  118OSM   C14F12399   1.347   3.418   4.742
  118OSM   H14F12400   1.449   3.409   4.785
  118OSM   H14G12401   1.309   3.522   4.736
  118OSM   C15F12402   1.353   3.381   4.586
  118OSM   H15F12403   1.245   3.388   4.564
  118OSM   H15G12404   1.373   3.274   4.566
  118OSM   C16F12405   1.419   3.475   4.485
  118OSM   H16F12406   1.509   3.530   4.520
  118OSM   H16G12407   1.340   3.548   4.459
  118OSM   C17F12408   1.461   3.400   4.355
  118OSM   H17F12409   1.447   3.470   4.270
  118OSM   H17G12410   1.381   3.324   4.340
  118OSM   C18F12411   1.603   3.340   4.362
  118OSM   H18F12412   1.589   3.240   4.408
  118OSM   H18G12413   1.671   3.405   4.422
  118OSM   H18H12414   1.648   3.324   4.262
  119OSM      N12415   3.162   1.332   6.752
  119OSM    C1512416   3.050   1.262   6.820
  119OSM   H15A12417   3.089   1.168   6.857
  119OSM   H15B12418   2.971   1.246   6.748
  119OSM   H15C12419   2.998   1.314   6.899
  119OSM    C1412420   3.113   1.445   6.675
  119OSM   H14A12421   3.052   1.505   6.740
  119OSM   H14B12422   3.054   1.410   6.591
  119OSM   H14C12423   3.194   1.497   6.626
  119OSM    C1312424   3.255   1.382   6.851
  119OSM   H13A12425   3.194   1.438   6.920
  119OSM   H13B12426   3.334   1.441   6.808
  119OSM   H13C12427   3.310   1.317   6.917
  119OSM    C1212428   3.233   1.235   6.653
  119OSM   H12A12429   3.320   1.284   6.612
  119OSM   H12B12430   3.163   1.217   6.572
  119OSM    C1112431   3.272   1.099   6.704
  119OSM   H11A12432   3.345   1.111   6.786
  119OSM   H11B12433   3.337   1.051   6.628
  119OSM      P12434   3.067   0.942   6.645
  119OSM    O1312435   3.112   0.796   6.638
  119OSM    O1412436   2.932   0.970   6.694
  119OSM    O1112437   3.095   1.010   6.502
  119OSM    O1212438   3.164   1.013   6.743
  119OSM    C1S12439   3.130   0.920   6.397
  119OSM    H1S12440   3.077   0.823   6.396
  119OSM    H1T12441   3.238   0.893   6.400
  119OSM     NF12442   3.099   0.871   6.160
  119OSM    HNF12443   3.176   0.863   6.097
  119OSM    C2S12444   3.098   0.976   6.260
  119OSM    H2S12445   3.002   1.032   6.251
  119OSM    C3S12446   3.197   1.098   6.235
  119OSM    H3S12447   3.299   1.055   6.225
  119OSM     O312448   3.198   1.202   6.336
  119OSM    HO312449   3.157   1.159   6.412
  119OSM    C4S12450   3.170   1.159   6.103
  119OSM    H4S12451   3.249   1.130   6.032
  119OSM    C5S12452   3.076   1.246   6.069
  119OSM    H5S12453   3.005   1.272   6.148
  119OSM    C6S12454   3.043   1.307   5.931
  119OSM    H6S12455   3.074   1.413   5.946
  119OSM    H6T12456   2.934   1.294   5.915
  119OSM    C7S12457   3.112   1.240   5.813
  119OSM    H7S12458   3.099   1.130   5.815
  119OSM    H7T12459   3.218   1.268   5.828
  119OSM    C8S12460   3.064   1.287   5.683
  119OSM    H8S12461   3.076   1.398   5.686
  119OSM    H8T12462   2.956   1.262   5.674
  119OSM    C9S12463   3.142   1.227   5.562
  119OSM    H9S12464   3.155   1.118   5.580
  119OSM    H9T12465   3.246   1.266   5.566
  119OSM   C10S12466   3.074   1.251   5.428
  119OSM   H10S12467   3.056   1.358   5.407
  119OSM   H10T12468   2.980   1.192   5.436
  119OSM   C11S12469   3.161   1.189   5.315
  119OSM   H11S12470   3.169   1.079   5.322
  119OSM   H11T12471   3.263   1.232   5.320
  119OSM   C12S12472   3.112   1.224   5.176
  119OSM   H12S12473   3.112   1.334   5.159
  119OSM   H12T12474   3.008   1.188   5.163
  119OSM   C13S12475   3.203   1.162   5.074
  119OSM   H13S12476   3.199   1.051   5.066
  119OSM   H13T12477   3.310   1.184   5.093
  119OSM   C14S12478   3.180   1.218   4.931
  119OSM   H14S12479   3.276   1.193   4.881
  119OSM   H14T12480   3.176   1.329   4.935
  119OSM   C15S12481   3.067   1.161   4.850
  119OSM   H15S12482   2.964   1.169   4.892
  119OSM   H15T12483   3.090   1.055   4.828
  119OSM   C16S12484   3.055   1.232   4.711
  119OSM   H16S12485   3.152   1.241   4.659
  119OSM   H16T12486   3.019   1.335   4.732
  119OSM   C17S12487   2.942   1.178   4.624
  119OSM   H17S12488   2.845   1.184   4.678
  119OSM   H17T12489   2.971   1.073   4.601
  119OSM   C18S12490   2.922   1.256   4.498
  119OSM   H18S12491   3.013   1.260   4.434
  119OSM   H18T12492   2.910   1.366   4.515
  119OSM   H18U12493   2.828   1.236   4.441
  119OSM    C1F12494   3.001   0.778   6.152
  119OSM     OF12495   2.908   0.788   6.228
  119OSM    C2F12496   3.007   0.659   6.053
  119OSM    H2F12497   3.051   0.580   6.118
  119OSM    H2G12498   3.085   0.686   5.978
  119OSM    C3F12499   2.878   0.630   5.989
  119OSM    H3F12500   2.804   0.617   6.071
  119OSM    H3G12501   2.881   0.532   5.937
  119OSM    C4F12502   2.831   0.743   5.897
  119OSM    H4F12503   2.827   0.841   5.951
  119OSM    H4G12504   2.727   0.723   5.865
  119OSM    C5F12505   2.914   0.760   5.768
  119OSM    H5F12506   2.918   0.662   5.715
  119OSM    H5G12507   3.011   0.794   5.811
  119OSM    C6F12508   2.874   0.870   5.674
  119OSM    H6F12509   2.886   0.968   5.724
  119OSM    H6G12510   2.768   0.884   5.642
  119OSM    C7F12511   2.970   0.885   5.554
  119OSM    H7F12512   3.071   0.884   5.600
  119OSM    H7G12513   2.961   0.989   5.516
  119OSM    C8F12514   2.953   0.776   5.447
  119OSM    H8F12515   2.851   0.787   5.405
  119OSM    H8G12516   2.963   0.671   5.483
  119OSM    C9F12517   3.039   0.795   5.321
  119OSM    H9F12518   3.148   0.782   5.331
  119OSM   C10F12519   2.999   0.835   5.194
  119OSM   H10F12520   3.078   0.840   5.118
  119OSM   C11F12521   2.855   0.853   5.148
  119OSM   H11F12522   2.802   0.932   5.206
  119OSM   H11G12523   2.803   0.757   5.169
  119OSM   C12F12524   2.837   0.891   5.006
  119OSM   H12F12525   2.899   0.980   4.980
  119OSM   H12G12526   2.734   0.930   4.993
  119OSM   C13F12527   2.830   0.765   4.919
  119OSM   H13F12528   2.756   0.692   4.959
  119OSM   H13G12529   2.931   0.719   4.909
  119OSM   C14F12530   2.795   0.805   4.779
  119OSM   H14F12531   2.874   0.875   4.745
  119OSM   H14G12532   2.700   0.860   4.765
  119OSM   C15F12533   2.765   0.687   4.691
  119OSM   H15F12534   2.679   0.633   4.737
  119OSM   H15G12535   2.856   0.624   4.702
  119OSM   C16F12536   2.753   0.710   4.538
  119OSM   H16F12537   2.764   0.607   4.497
  119OSM   H16G12538   2.843   0.767   4.506
  119OSM   C17F12539   2.622   0.767   4.490
  119OSM   H17F12540   2.589   0.862   4.538
  119OSM   H17G12541   2.549   0.688   4.516
  119OSM   C18F12542   2.616   0.805   4.344
  119OSM   H18F12543   2.633   0.720   4.274
  119OSM   H18G12544   2.682   0.891   4.318
  119OSM   H18H12545   2.512   0.836   4.321
  120OSM      N12546   5.214   5.235   6.564
  120OSM    C1512547   5.237   5.092   6.611
  120OSM   H15A12548   5.182   5.081   6.703
  120OSM   H15B12549   5.340   5.073   6.638
  120OSM   H15C12550   5.205   5.031   6.528
  120OSM    C1412551   5.096   5.232   6.487
  120OSM   H14A12552   5.016   5.168   6.520
  120OSM   H14B12553   5.122   5.196   6.388
  120OSM   H14C12554   5.056   5.331   6.469
  120OSM    C1312555   5.192   5.317   6.680
  120OSM   H13A12556   5.279   5.325   6.744
  120OSM   H13B12557   5.107   5.276   6.732
  120OSM   H13C12558   5.177   5.416   6.642
  120OSM    C1212559   5.335   5.286   6.488
  120OSM   H12A12560   5.316   5.387   6.455
  120OSM   H12B12561   5.325   5.232   6.395
  120OSM    C1112562   5.484   5.274   6.544
  120OSM   H11A12563   5.500   5.333   6.637
  120OSM   H11B12564   5.550   5.335   6.480
  120OSM      P12565   5.573   5.042   6.448
  120OSM    O1312566   5.718   5.066   6.411
  120OSM    O1412567   5.532   4.906   6.489
  120OSM    O1112568   5.487   5.083   6.323
  120OSM    O1212569   5.526   5.138   6.563
  120OSM    C1S12570   5.553   5.111   6.192
  120OSM    H1S12571   5.642   5.046   6.180
  120OSM    H1T12572   5.574   5.219   6.178
  120OSM     NF12573   5.528   5.110   5.940
  120OSM    HNF12574   5.486   5.180   5.884
  120OSM    C2S12575   5.466   5.071   6.070
  120OSM    H2S12576   5.458   4.960   6.073
  120OSM    C3S12577   5.315   5.112   6.099
  120OSM    H3S12578   5.315   5.213   6.145
  120OSM     O312579   5.254   5.018   6.184
  120OSM    HO312580   5.325   4.969   6.226
  120OSM    C4S12581   5.232   5.126   5.971
  120OSM    H4S12582   5.227   5.039   5.904
  120OSM    C5S12583   5.157   5.233   5.940
  120OSM    H5S12584   5.159   5.306   6.022
  120OSM    C6S12585   5.071   5.255   5.816
  120OSM    H6S12586   5.087   5.357   5.775
  120OSM    H6T12587   4.963   5.253   5.844
  120OSM    C7S12588   5.083   5.162   5.692
  120OSM    H7S12589   5.017   5.077   5.718
  120OSM    H7T12590   5.184   5.116   5.689
  120OSM    C8S12591   5.036   5.201   5.552
  120OSM    H8S12592   5.085   5.297   5.526
  120OSM    H8T12593   4.926   5.215   5.562
  120OSM    C9S12594   5.069   5.113   5.430
  120OSM    H9S12595   4.998   5.027   5.439
  120OSM    H9T12596   5.170   5.068   5.437
  120OSM   C10S12597   5.033   5.176   5.291
  120OSM   H10S12598   5.085   5.273   5.277
  120OSM   H10T12599   4.924   5.200   5.291
  120OSM   C11S12600   5.076   5.079   5.172
  120OSM   H11S12601   5.074   4.973   5.203
  120OSM   H11T12602   5.174   5.102   5.126
  120OSM   C12S12603   4.961   5.095   5.071
  120OSM   H12S12604   4.988   5.185   5.012
  120OSM   H12T12605   4.857   5.108   5.108
  120OSM   C13S12606   4.957   4.986   4.960
  120OSM   H13S12607   4.960   4.886   5.008
  120OSM   H13T12608   5.043   4.992   4.890
  120OSM   C14S12609   4.828   4.999   4.882
  120OSM   H14S12610   4.835   5.093   4.824
  120OSM   H14T12611   4.742   5.002   4.953
  120OSM   C15S12612   4.793   4.899   4.771
  120OSM   H15S12613   4.691   4.918   4.732
  120OSM   H15T12614   4.796   4.794   4.806
  120OSM   C16S12615   4.887   4.905   4.655
  120OSM   H16S12616   4.991   4.887   4.690
  120OSM   H16T12617   4.870   4.999   4.600
  120OSM   C17S12618   4.854   4.787   4.557
  120OSM   H17S12619   4.800   4.701   4.601
  120OSM   H17T12620   4.944   4.746   4.507
  120OSM   C18S12621   4.753   4.829   4.449
  120OSM   H18S12622   4.800   4.885   4.365
  120OSM   H18T12623   4.677   4.889   4.503
  120OSM   H18U12624   4.704   4.737   4.410
  120OSM    C1F12625   5.647   5.060   5.905
  120OSM     OF12626   5.710   4.984   5.975
  120OSM    C2F12627   5.711   5.097   5.770
  120OSM    H2F12628   5.750   5.201   5.778
  120OSM    H2G12629   5.635   5.100   5.688
  120OSM    C3F12630   5.835   5.012   5.741
  120OSM    H3F12631   5.793   4.909   5.733
  120OSM    H3G12632   5.907   5.024   5.825
  120OSM    C4F12633   5.909   5.056   5.612
  120OSM    H4F12634   5.981   4.974   5.595
  120OSM    H4G12635   5.961   5.149   5.641
  120OSM    C5F12636   5.835   5.081   5.485
  120OSM    H5F12637   5.759   5.162   5.495
  120OSM    H5G12638   5.786   4.983   5.464
  120OSM    C6F12639   5.919   5.122   5.358
  120OSM    H6F12640   6.001   5.049   5.340
  120OSM    H6G12641   5.970   5.219   5.379
  120OSM    C7F12642   5.834   5.162   5.236
  120OSM    H7F12643   5.762   5.244   5.257
  120OSM    H7G12644   5.780   5.071   5.202
  120OSM    C8F12645   5.901   5.221   5.108
  120OSM    H8F12646   5.956   5.312   5.140
  120OSM    H8G12647   5.813   5.244   5.044
  120OSM    C9F12648   5.989   5.133   5.029
  120OSM    H9F12649   6.046   5.061   5.089
  120OSM   C10F12650   5.992   5.132   4.888
  120OSM   H10F12651   6.065   5.071   4.834
  120OSM   C11F12652   5.903   5.194   4.781
  120OSM   H11F12653   5.800   5.208   4.820
  120OSM   H11G12654   5.891   5.120   4.699
  120OSM   C12F12655   5.975   5.319   4.726
  120OSM   H12F12656   6.016   5.386   4.804
  120OSM   H12G12657   5.902   5.383   4.673
  120OSM   C13F12658   6.082   5.305   4.621
  120OSM   H13F12659   6.050   5.234   4.542
  120OSM   H13G12660   6.171   5.250   4.659
  120OSM   C14F12661   6.119   5.433   4.551
  120OSM   H14F12662   6.152   5.497   4.636
  120OSM   H14G12663   6.030   5.467   4.493
  120OSM   C15F12664   6.244   5.424   4.464
  120OSM   H15F12665   6.324   5.369   4.519
  120OSM   H15G12666   6.274   5.527   4.435
  120OSM   C16F12667   6.221   5.347   4.340
  120OSM   H16F12668   6.140   5.389   4.278
  120OSM   H16G12669   6.188   5.243   4.362
  120OSM   C17F12670   6.351   5.344   4.251
  120OSM   H17F12671   6.422   5.277   4.304
  120OSM   H17G12672   6.397   5.444   4.242
  120OSM   C18F12673   6.325   5.290   4.110
  120OSM   H18F12674   6.310   5.180   4.124
  120OSM   H18G12675   6.403   5.298   4.032
  120OSM   H18H12676   6.226   5.327   4.074
  121OSM      N12677   6.503   0.940   6.919
  121OSM    C1512678   6.651   0.952   6.882
  121OSM   H15A12679   6.713   1.017   6.942
  121OSM   H15B12680   6.662   0.986   6.780
  121OSM   H15C12681   6.707   0.860   6.888
  121OSM    C1412682   6.478   0.847   7.041
  121OSM   H14A12683   6.535   0.889   7.122
  121OSM   H14B12684   6.503   0.749   7.002
  121OSM   H14C12685   6.371   0.835   7.053
  121OSM    C1312686   6.461   1.076   6.959
  121OSM   H13A12687   6.358   1.088   6.927
  121OSM   H13B12688   6.520   1.148   6.905
  121OSM   H13C12689   6.485   1.097   7.062
  121OSM    C1212690   6.420   0.891   6.797
  121OSM   H12A12691   6.321   0.862   6.829
  121OSM   H12B12692   6.462   0.798   6.761
  121OSM    C1112693   6.407   0.974   6.668
  121OSM   H11A12694   6.373   1.076   6.695
  121OSM   H11B12695   6.327   0.935   6.602
  121OSM      P12696   6.593   0.866   6.525
  121OSM    O1312697   6.724   0.888   6.465
  121OSM    O1412698   6.588   0.742   6.611
  121OSM    O1112699   6.482   0.858   6.410
  121OSM    O1212700   6.533   0.991   6.603
  121OSM    C1S12701   6.457   0.984   6.334
  121OSM    H1S12702   6.519   1.068   6.372
  121OSM    H1T12703   6.349   1.011   6.339
  121OSM     NF12704   6.473   1.099   6.109
  121OSM    HNF12705   6.378   1.099   6.080
  121OSM    C2S12706   6.489   0.969   6.182
  121OSM    H2S12707   6.592   0.932   6.163
  121OSM    C3S12708   6.399   0.862   6.123
  121OSM    H3S12709   6.295   0.900   6.131
  121OSM     O312710   6.370   0.746   6.204
  121OSM    HO312711   6.386   0.780   6.292
  121OSM    C4S12712   6.431   0.838   5.978
  121OSM    H4S12713   6.398   0.925   5.919
  121OSM    C5S12714   6.506   0.729   5.943
  121OSM    H5S12715   6.538   0.652   6.015
  121OSM    C6S12716   6.565   0.713   5.804
  121OSM    H6S12717   6.539   0.620   5.750
  121OSM    H6T12718   6.675   0.703   5.816
  121OSM    C7S12719   6.534   0.813   5.691
  121OSM    H7S12720   6.514   0.918   5.722
  121OSM    H7T12721   6.437   0.790   5.641
  121OSM    C8S12722   6.641   0.812   5.583
  121OSM    H8S12723   6.742   0.827   5.628
  121OSM    H8T12724   6.624   0.892   5.508
  121OSM    C9S12725   6.632   0.683   5.498
  121OSM    H9S12726   6.527   0.653   5.478
  121OSM    H9T12727   6.681   0.601   5.554
  121OSM   C10S12728   6.701   0.725   5.361
  121OSM   H10S12729   6.743   0.634   5.312
  121OSM   H10T12730   6.794   0.778   5.392
  121OSM   C11S12731   6.624   0.806   5.255
  121OSM   H11S12732   6.571   0.891   5.304
  121OSM   H11T12733   6.548   0.737   5.213
  121OSM   C12S12734   6.720   0.853   5.148
  121OSM   H12S12735   6.787   0.769   5.121
  121OSM   H12T12736   6.777   0.939   5.190
  121OSM   C13S12737   6.638   0.896   5.024
  121OSM   H13S12738   6.568   0.977   5.051
  121OSM   H13T12739   6.579   0.813   4.978
  121OSM   C14S12740   6.745   0.963   4.926
  121OSM   H14S12741   6.812   0.886   4.883
  121OSM   H14T12742   6.806   1.036   4.983
  121OSM   C15S12743   6.676   1.034   4.805
  121OSM   H15S12744   6.605   1.108   4.848
  121OSM   H15T12745   6.619   0.953   4.756
  121OSM   C16S12746   6.746   1.118   4.702
  121OSM   H16S12747   6.807   1.055   4.634
  121OSM   H16T12748   6.807   1.194   4.754
  121OSM   C17S12749   6.658   1.203   4.609
  121OSM   H17S12750   6.570   1.242   4.666
  121OSM   H17T12751   6.605   1.135   4.539
  121OSM   C18S12752   6.746   1.298   4.527
  121OSM   H18S12753   0.010   1.261   4.527
  121OSM   H18T12754   6.742   1.398   4.577
  121OSM   H18U12755   6.710   1.297   4.422
  121OSM    C1F12756   6.564   1.203   6.119
  121OSM     OF12757   6.659   1.189   6.199
  121OSM    C2F12758   6.524   1.332   6.061
  121OSM    H2F12759   6.502   1.396   6.150
  121OSM    H2G12760   6.425   1.318   6.013
  121OSM    C3F12761   6.630   1.391   5.965
  121OSM    H3F12762   6.719   1.404   6.030
  121OSM    H3G12763   6.602   1.494   5.934
  121OSM    C4F12764   6.652   1.318   5.831
  121OSM    H4F12765   6.706   1.227   5.867
  121OSM    H4G12766   6.730   1.378   5.781
  121OSM    C5F12767   6.528   1.283   5.749
  121OSM    H5F12768   6.464   1.372   5.732
  121OSM    H5G12769   6.473   1.198   5.795
  121OSM    C6F12770   6.557   1.226   5.608
  121OSM    H6F12771   6.457   1.229   5.560
  121OSM    H6G12772   6.590   1.119   5.610
  121OSM    C7F12773   6.662   1.309   5.527
  121OSM    H7F12774   6.766   1.322   5.565
  121OSM    H7G12775   6.630   1.415   5.528
  121OSM    C8F12776   6.647   1.276   5.376
  121OSM    H8F12777   6.540   1.302   5.360
  121OSM    H8G12778   6.660   1.168   5.356
  121OSM    C9F12779   6.735   1.360   5.282
  121OSM    H9F12780   6.828   1.403   5.323
  121OSM   C10F12781   6.724   1.383   5.151
  121OSM   H10F12782   6.790   1.452   5.098
  121OSM   C11F12783   6.617   1.315   5.074
  121OSM   H11F12784   6.559   1.241   5.132
  121OSM   H11G12785   6.664   1.277   4.981
  121OSM   C12F12786   6.507   1.414   5.016
  121OSM   H12F12787   6.446   1.468   5.093
  121OSM   H12G12788   6.434   1.345   4.968
  121OSM   C13F12789   6.558   1.518   4.925
  121OSM   H13F12790   6.643   1.485   4.862
  121OSM   H13G12791   6.584   1.609   4.982
  121OSM   C14F12792   6.455   1.578   4.829
  121OSM   H14F12793   6.371   1.622   4.888
  121OSM   H14G12794   6.427   1.497   4.758
  121OSM   C15F12795   6.509   1.706   4.756
  121OSM   H15F12796   6.584   1.677   4.679
  121OSM   H15G12797   6.540   1.781   4.831
  121OSM   C16F12798   6.412   1.779   4.669
  121OSM   H16F12799   6.324   1.813   4.728
  121OSM   H16G12800   6.380   1.700   4.597
  121OSM   C17F12801   6.481   1.890   4.583
  121OSM   H17F12802   6.569   1.837   4.540
  121OSM   H17G12803   6.526   1.968   4.649
  121OSM   C18F12804   6.389   1.960   4.489
  121OSM   H18F12805   6.334   1.876   4.442
  121OSM   H18G12806   6.439   2.011   4.404
  121OSM   H18H12807   6.327   2.037   4.539
  122OSM      N12808   6.610   3.993   6.804
  122OSM    C1512809   6.687   3.995   6.673
  122OSM   H15A12810   6.697   4.094   6.629
  122OSM   H15B12811   6.625   3.944   6.601
  122OSM   H15C12812   6.782   3.947   6.690
  122OSM    C1412813   6.582   3.848   6.841
  122OSM   H14A12814   6.554   3.793   6.752
  122OSM   H14B12815   6.509   3.832   6.919
  122OSM   H14C12816   6.669   3.794   6.872
  122OSM    C1312817   6.697   4.052   6.912
  122OSM   H13A12818   6.623   4.084   6.984
  122OSM   H13B12819   6.751   4.138   6.875
  122OSM   H13C12820   6.765   3.981   6.956
  122OSM    C1212821   6.483   4.080   6.792
  122OSM   H12A12822   6.511   4.184   6.783
  122OSM   H12B12823   6.429   4.080   6.886
  122OSM    C1112824   6.381   4.047   6.685
  122OSM   H11A12825   6.418   4.062   6.582
  122OSM   H11B12826   6.296   4.116   6.704
  122OSM      P12827   6.189   3.870   6.695
  122OSM    O1312828   6.170   3.726   6.661
  122OSM    O1412829   6.135   3.911   6.827
  122OSM    O1112830   6.122   3.966   6.581
  122OSM    O1212831   6.336   3.907   6.691
  122OSM    C1S12832   6.179   3.975   6.448
  122OSM    H1S12833   6.251   3.895   6.420
  122OSM    H1T12834   6.233   4.071   6.447
  122OSM     NF12835   6.112   3.935   6.221
  122OSM    HNF12836   6.149   3.994   6.149
  122OSM    C2S12837   6.065   3.971   6.348
  122OSM    H2S12838   6.000   3.888   6.383
  122OSM    C3S12839   5.981   4.097   6.344
  122OSM    H3S12840   6.042   4.184   6.309
  122OSM     O312841   5.931   4.133   6.477
  122OSM    HO312842   5.973   4.074   6.540
  122OSM    C4S12843   5.860   4.088   6.253
  122OSM    H4S12844   5.767   4.042   6.288
  122OSM    C5S12845   5.848   4.145   6.131
  122OSM    H5S12846   5.933   4.194   6.082
  122OSM    C6S12847   5.712   4.150   6.057
  122OSM    H6S12848   5.668   4.252   6.066
  122OSM    H6T12849   5.642   4.072   6.093
  122OSM    C7S12850   5.739   4.131   5.910
  122OSM    H7S12851   5.636   4.133   5.868
  122OSM    H7T12852   5.786   4.031   5.893
  122OSM    C8S12853   5.826   4.243   5.853
  122OSM    H8S12854   5.929   4.251   5.893
  122OSM    H8T12855   5.769   4.337   5.869
  122OSM    C9S12856   5.844   4.227   5.701
  122OSM    H9S12857   5.889   4.130   5.671
  122OSM    H9T12858   5.917   4.302   5.664
  122OSM   C10S12859   5.714   4.235   5.626
  122OSM   H10S12860   5.653   4.312   5.678
  122OSM   H10T12861   5.649   4.145   5.633
  122OSM   C11S12862   5.719   4.267   5.476
  122OSM   H11S12863   5.773   4.361   5.453
  122OSM   H11T12864   5.620   4.296   5.435
  122OSM   C12S12865   5.788   4.168   5.388
  122OSM   H12S12866   5.771   4.062   5.415
  122OSM   H12T12867   5.899   4.172   5.401
  122OSM   C13S12868   5.748   4.180   5.241
  122OSM   H13S12869   5.640   4.168   5.222
  122OSM   H13T12870   5.799   4.100   5.183
  122OSM   C14S12871   5.778   4.320   5.191
  122OSM   H14S12872   5.880   4.357   5.216
  122OSM   H14T12873   5.712   4.398   5.234
  122OSM   C15S12874   5.754   4.324   5.029
  122OSM   H15S12875   5.763   4.431   5.001
  122OSM   H15T12876   5.652   4.292   4.998
  122OSM   C16S12877   5.861   4.247   4.953
  122OSM   H16S12878   5.823   4.144   4.937
  122OSM   H16T12879   5.947   4.240   5.024
  122OSM   C17S12880   5.904   4.296   4.813
  122OSM   H17S12881   5.948   4.397   4.826
  122OSM   H17T12882   5.819   4.311   4.743
  122OSM   C18S12883   6.003   4.210   4.743
  122OSM   H18S12884   6.096   4.191   4.800
  122OSM   H18T12885   6.029   4.251   4.643
  122OSM   H18U12886   5.962   4.107   4.741
  122OSM    C1F12887   6.145   3.806   6.202
  122OSM     OF12888   6.118   3.720   6.283
  122OSM    C2F12889   6.225   3.768   6.080
  122OSM    H2F12890   6.328   3.805   6.100
  122OSM    H2G12891   6.185   3.826   5.995
  122OSM    C3F12892   6.211   3.626   6.040
  122OSM    H3F12893   6.105   3.605   6.014
  122OSM    H3G12894   6.244   3.555   6.119
  122OSM    C4F12895   6.309   3.596   5.921
  122OSM    H4F12896   6.282   3.493   5.889
  122OSM    H4G12897   6.410   3.590   5.965
  122OSM    C5F12898   6.314   3.695   5.802
  122OSM    H5F12899   6.346   3.797   5.832
  122OSM    H5G12900   6.209   3.716   5.770
  122OSM    C6F12901   6.378   3.634   5.684
  122OSM    H6F12902   6.335   3.534   5.659
  122OSM    H6G12903   6.485   3.615   5.709
  122OSM    C7F12904   6.357   3.708   5.552
  122OSM    H7F12905   6.414   3.803   5.546
  122OSM    H7G12906   6.247   3.729   5.551
  122OSM    C8F12907   6.382   3.623   5.422
  122OSM    H8F12908   6.338   3.523   5.443
  122OSM    H8G12909   6.492   3.613   5.410
  122OSM    C9F12910   6.312   3.691   5.309
  122OSM    H9F12911   6.202   3.692   5.313
  122OSM   C10F12912   6.377   3.755   5.210
  122OSM   H10F12913   6.314   3.809   5.138
  122OSM   C11F12914   6.527   3.769   5.189
  122OSM   H11F12915   6.594   3.725   5.266
  122OSM   H11G12916   6.566   3.872   5.182
  122OSM   C12F12917   6.580   3.701   5.062
  122OSM   H12F12918   6.548   3.595   5.078
  122OSM   H12G12919   6.690   3.697   5.048
  122OSM   C13F12920   6.518   3.754   4.926
  122OSM   H13F12921   6.422   3.808   4.940
  122OSM   H13G12922   6.494   3.668   4.859
  122OSM   C14F12923   6.607   3.857   4.866
  122OSM   H14F12924   6.692   3.795   4.833
  122OSM   H14G12925   6.638   3.923   4.950
  122OSM   C15F12926   6.534   3.937   4.757
  122OSM   H15F12927   6.452   4.000   4.799
  122OSM   H15G12928   6.488   3.865   4.687
  122OSM   C16F12929   6.625   4.023   4.673
  122OSM   H16F12930   6.572   4.082   4.595
  122OSM   H16G12931   6.704   3.959   4.629
  122OSM   C17F12932   6.704   4.120   4.763
  122OSM   H17F12933   6.750   4.066   4.849
  122OSM   H17G12934   6.632   4.189   4.812
  122OSM   C18F12935   6.815   4.195   4.697
  122OSM   H18F12936   0.022   4.264   4.769
  122OSM   H18G12937   6.773   4.244   4.606
  122OSM   H18H12938   0.054   4.122   4.668
  123OSM      N12939   2.662   3.129   2.135
  123OSM    C1512940   2.779   3.106   2.228
  123OSM   H15A12941   2.783   3.183   2.304
  123OSM   H15B12942   2.872   3.118   2.174
  123OSM   H15C12943   2.770   3.011   2.278
  123OSM    C1412944   2.689   3.242   2.051
  123OSM   H14A12945   2.781   3.243   1.994
  123OSM   H14B12946   2.684   3.334   2.107
  123OSM   H14C12947   2.602   3.254   1.988
  123OSM    C1312948   2.670   3.014   2.048
  123OSM   H13A12949   2.588   3.012   1.978
  123OSM   H13B12950   2.650   2.925   2.106
  123OSM   H13C12951   2.767   2.996   2.003
  123OSM    C1212952   2.533   3.136   2.209
  123OSM   H12A12953   2.458   3.129   2.132
  123OSM   H12B12954   2.521   3.233   2.255
  123OSM    C1112955   2.510   3.025   2.316
  123OSM   H11A12956   2.414   3.046   2.368
  123OSM   H11B12957   2.596   3.031   2.387
  123OSM      P12958   2.563   2.768   2.341
  123OSM    O1312959   2.521   2.639   2.289
  123OSM    O1412960   2.709   2.779   2.360
  123OSM    O1112961   2.509   2.781   2.483
  123OSM    O1212962   2.515   2.895   2.255
  123OSM    C1S12963   2.367   2.756   2.502
  123OSM    H1S12964   2.349   2.646   2.501
  123OSM    H1T12965   2.303   2.806   2.426
  123OSM     NF12966   2.187   2.759   2.673
  123OSM    HNF12967   2.114   2.825   2.655
  123OSM    C2S12968   2.324   2.796   2.643
  123OSM    H2S12969   2.387   2.737   2.712
  123OSM    C3S12970   2.344   2.948   2.680
  123OSM    H3S12971   2.275   2.993   2.605
  123OSM     O312972   2.475   3.001   2.653
  123OSM    HO312973   2.521   2.928   2.611
  123OSM    C4S12974   2.292   2.985   2.816
  123OSM    H4S12975   2.183   2.990   2.812
  123OSM    C5S12976   2.356   3.033   2.925
  123OSM    H5S12977   2.464   3.049   2.909
  123OSM    C6S12978   2.293   3.059   3.059
  123OSM    H6S12979   2.186   3.031   3.064
  123OSM    H6T12980   2.298   3.169   3.074
  123OSM    C7S12981   2.346   2.988   3.185
  123OSM    H7S12982   2.449   3.010   3.220
  123OSM    H7T12983   2.347   2.879   3.167
  123OSM    C8S12984   2.254   3.011   3.304
  123OSM    H8S12985   2.158   2.954   3.301
  123OSM    H8T12986   2.231   3.119   3.296
  123OSM    C9S12987   2.317   2.985   3.441
  123OSM    H9S12988   2.391   3.065   3.464
  123OSM    H9T12989   2.355   2.881   3.446
  123OSM   C10S12990   2.210   2.988   3.552
  123OSM   H10S12991   2.156   2.891   3.548
  123OSM   H10T12992   2.134   3.065   3.527
  123OSM   C11S12993   2.263   3.024   3.701
  123OSM   H11S12994   2.176   3.051   3.765
  123OSM   H11T12995   2.345   3.099   3.705
  123OSM   C12S12996   2.326   2.903   3.779
  123OSM   H12S12997   2.406   2.869   3.711
  123OSM   H12T12998   2.247   2.825   3.773
  123OSM   C13S12999   2.387   2.939   3.919
  123OSM   H13S13000   2.429   3.042   3.926
  123OSM   H13T13001   2.476   2.872   3.922
  123OSM   C14S13002   2.305   2.902   4.039
  123OSM   H14S13003   2.374   2.889   4.125
  123OSM   H14T13004   2.250   2.806   4.024
  123OSM   C15S13005   2.206   3.016   4.081
  123OSM   H15S13006   2.161   3.057   3.988
  123OSM   H15T13007   2.264   3.100   4.125
  123OSM   C16S13008   2.096   2.968   4.176
  123OSM   H16S13009   2.152   2.955   4.272
  123OSM   H16T13010   2.058   2.868   4.145
  123OSM   C17S13011   1.987   3.072   4.197
  123OSM   H17S13012   1.928   3.085   4.103
  123OSM   H17T13013   2.017   3.175   4.226
  123OSM   C18S13014   1.879   3.017   4.295
  123OSM   H18S13015   1.932   2.982   4.386
  123OSM   H18T13016   1.817   2.943   4.241
  123OSM   H18U13017   1.814   3.106   4.311
  123OSM    C1F13018   2.151   2.632   2.687
  123OSM     OF13019   2.227   2.536   2.672
  123OSM    C2F13020   2.005   2.604   2.727
  123OSM    H2F13021   1.963   2.534   2.652
  123OSM    H2G13022   1.951   2.701   2.717
  123OSM    C3F13023   1.987   2.545   2.869
  123OSM    H3F13024   2.070   2.473   2.891
  123OSM    H3G13025   1.893   2.487   2.873
  123OSM    C4F13026   1.973   2.651   2.980
  123OSM    H4F13027   1.923   2.619   3.074
  123OSM    H4G13028   1.909   2.737   2.951
  123OSM    C5F13029   2.115   2.703   3.026
  123OSM    H5F13030   2.103   2.800   3.079
  123OSM    H5G13031   2.181   2.718   2.938
  123OSM    C6F13032   2.189   2.601   3.114
  123OSM    H6F13033   2.299   2.589   3.097
  123OSM    H6G13034   2.151   2.497   3.102
  123OSM    C7F13035   2.160   2.630   3.263
  123OSM    H7F13036   2.053   2.617   3.288
  123OSM    H7G13037   2.169   2.739   3.283
  123OSM    C8F13038   2.253   2.545   3.350
  123OSM    H8F13039   2.353   2.562   3.304
  123OSM    H8G13040   2.230   2.437   3.337
  123OSM    C9F13041   2.245   2.573   3.495
  123OSM    H9F13042   2.307   2.659   3.523
  123OSM   C10F13043   2.162   2.519   3.591
  123OSM   H10F13044   2.173   2.553   3.695
  123OSM   C11F13045   2.054   2.422   3.562
  123OSM   H11F13046   2.075   2.354   3.476
  123OSM   H11G13047   1.967   2.487   3.538
  123OSM   C12F13048   2.015   2.335   3.682
  123OSM   H12F13049   1.921   2.285   3.649
  123OSM   H12G13050   1.993   2.393   3.774
  123OSM   C13F13051   2.112   2.226   3.720
  123OSM   H13F13052   2.195   2.274   3.776
  123OSM   H13G13053   2.165   2.171   3.639
  123OSM   C14F13054   2.039   2.129   3.813
  123OSM   H14F13055   1.962   2.077   3.753
  123OSM   H14G13056   1.998   2.187   3.898
  123OSM   C15F13057   2.131   2.027   3.879
  123OSM   H15F13058   2.082   1.984   3.969
  123OSM   H15G13059   2.218   2.088   3.912
  123OSM   C16F13060   2.172   1.906   3.794
  123OSM   H16F13061   2.201   1.948   3.696
  123OSM   H16G13062   2.081   1.843   3.786
  123OSM   C17F13063   2.287   1.812   3.846
  123OSM   H17F13064   2.383   1.867   3.838
  123OSM   H17G13065   2.288   1.723   3.780
  123OSM   C18F13066   2.290   1.767   3.991
  123OSM   H18F13067   2.209   1.693   4.009
  123OSM   H18G13068   2.268   1.846   4.065
  123OSM   H18H13069   2.380   1.710   4.023
  124OSM      N13070   2.984   3.980   2.067
  124OSM    C1513071   3.091   3.877   2.059
  124OSM   H15A13072   3.188   3.924   2.067
  124OSM   H15B13073   3.082   3.820   1.968
  124OSM   H15C13074   3.089   3.800   2.135
  124OSM    C1413075   2.983   4.045   2.201
  124OSM   H14A13076   3.073   4.104   2.210
  124OSM   H14B13077   2.980   3.972   2.281
  124OSM   H14C13078   2.904   4.115   2.221
  124OSM    C1313079   3.019   4.091   1.973
  124OSM   H13A13080   2.931   4.155   1.972
  124OSM   H13B13081   3.029   4.053   1.873
  124OSM   H13C13082   3.105   4.149   2.002
  124OSM    C1213083   2.846   3.919   2.036
  124OSM   H12A13084   2.766   3.992   2.037
  124OSM   H12B13085   2.820   3.845   2.111
  124OSM    C1113086   2.818   3.838   1.903
  124OSM   H11A13087   2.859   3.902   1.821
  124OSM   H11B13088   2.711   3.822   1.877
  124OSM      P13089   2.830   3.591   1.976
  124OSM    O1313090   2.704   3.566   1.901
  124OSM    O1413091   2.935   3.487   1.979
  124OSM    O1113092   2.791   3.635   2.122
  124OSM    O1213093   2.895   3.720   1.912
  124OSM    C1S13094   2.868   3.598   2.236
  124OSM    H1S13095   2.963   3.655   2.242
  124OSM    H1T13096   2.895   3.491   2.237
  124OSM     NF13097   2.839   3.603   2.495
  124OSM    HNF13098   2.817   3.518   2.542
  124OSM    C2S13099   2.771   3.626   2.367
  124OSM    H2S13100   2.755   3.735   2.356
  124OSM    C3S13101   2.638   3.544   2.360
  124OSM    H3S13102   2.666   3.440   2.388
  124OSM     O313103   2.579   3.546   2.227
  124OSM    HO313104   2.647   3.597   2.182
  124OSM    C4S13105   2.541   3.598   2.461
  124OSM    H4S13106   2.546   3.546   2.558
  124OSM    C5S13107   2.456   3.703   2.445
  124OSM    H5S13108   2.443   3.748   2.346
  124OSM    C6S13109   2.365   3.757   2.554
  124OSM    H6S13110   2.278   3.688   2.544
  124OSM    H6T13111   2.319   3.854   2.527
  124OSM    C7S13112   2.398   3.744   2.700
  124OSM    H7S13113   2.480   3.818   2.717
  124OSM    H7T13114   2.435   3.641   2.717
  124OSM    C8S13115   2.287   3.770   2.798
  124OSM    H8S13116   2.211   3.689   2.792
  124OSM    H8T13117   2.254   3.871   2.768
  124OSM    C9S13118   2.332   3.777   2.945
  124OSM    H9S13119   2.413   3.851   2.962
  124OSM    H9T13120   2.373   3.677   2.970
  124OSM   C10S13121   2.227   3.810   3.052
  124OSM   H10S13122   2.130   3.766   3.019
  124OSM   H10T13123   2.211   3.920   3.054
  124OSM   C11S13124   2.276   3.763   3.192
  124OSM   H11S13125   2.361   3.830   3.215
  124OSM   H11T13126   2.304   3.655   3.193
  124OSM   C12S13127   2.180   3.788   3.309
  124OSM   H12S13128   2.077   3.752   3.293
  124OSM   H12T13129   2.179   3.899   3.310
  124OSM   C13S13130   2.220   3.737   3.448
  124OSM   H13S13131   2.318   3.785   3.473
  124OSM   H13T13132   2.229   3.626   3.451
  124OSM   C14S13133   2.120   3.774   3.555
  124OSM   H14S13134   2.031   3.709   3.545
  124OSM   H14T13135   2.076   3.873   3.529
  124OSM   C15S13136   2.193   3.786   3.690
  124OSM   H15S13137   2.270   3.866   3.683
  124OSM   H15T13138   2.238   3.690   3.722
  124OSM   C16S13139   2.099   3.818   3.807
  124OSM   H16S13140   2.025   3.738   3.827
  124OSM   H16T13141   2.033   3.899   3.770
  124OSM   C17S13142   2.171   3.853   3.939
  124OSM   H17S13143   2.256   3.919   3.910
  124OSM   H17T13144   2.209   3.773   4.006
  124OSM   C18S13145   2.075   3.937   4.030
  124OSM   H18S13146   2.074   4.046   4.008
  124OSM   H18T13147   2.111   3.929   4.134
  124OSM   H18U13148   1.974   3.890   4.020
  124OSM    C1F13149   2.946   3.676   2.537
  124OSM     OF13150   2.990   3.771   2.472
  124OSM    C2F13151   3.002   3.620   2.662
  124OSM    H2F13152   3.004   3.509   2.655
  124OSM    H2G13153   2.944   3.662   2.746
  124OSM    C3F13154   3.143   3.671   2.671
  124OSM    H3F13155   3.138   3.777   2.704
  124OSM    H3G13156   3.203   3.652   2.580
  124OSM    C4F13157   3.217   3.615   2.792
  124OSM    H4F13158   3.326   3.634   2.800
  124OSM    H4G13159   3.206   3.504   2.784
  124OSM    C5F13160   3.159   3.663   2.928
  124OSM    H5F13161   3.049   3.649   2.936
  124OSM    H5G13162   3.184   3.771   2.923
  124OSM    C6F13163   3.234   3.610   3.054
  124OSM    H6F13164   3.336   3.575   3.025
  124OSM    H6G13165   3.169   3.527   3.089
  124OSM    C7F13166   3.248   3.726   3.158
  124OSM    H7F13167   3.149   3.766   3.188
  124OSM    H7G13168   3.313   3.805   3.113
  124OSM    C8F13169   3.331   3.673   3.279
  124OSM    H8F13170   3.372   3.762   3.331
  124OSM    H8G13171   3.418   3.619   3.236
  124OSM    C9F13172   3.252   3.583   3.371
  124OSM    H9F13173   3.242   3.479   3.335
  124OSM   C10F13174   3.207   3.615   3.497
  124OSM   H10F13175   3.164   3.535   3.560
  124OSM   C11F13176   3.230   3.752   3.561
  124OSM   H11F13177   3.134   3.805   3.574
  124OSM   H11G13178   3.286   3.828   3.502
  124OSM   C12F13179   3.290   3.747   3.703
  124OSM   H12F13180   3.332   3.844   3.737
  124OSM   H12G13181   3.380   3.682   3.709
  124OSM   C13F13182   3.183   3.699   3.800
  124OSM   H13F13183   3.150   3.594   3.788
  124OSM   H13G13184   3.092   3.759   3.777
  124OSM   C14F13185   3.234   3.695   3.947
  124OSM   H14F13186   3.257   3.797   3.983
  124OSM   H14G13187   3.330   3.639   3.954
  124OSM   C15F13188   3.137   3.632   4.044
  124OSM   H15F13189   3.186   3.599   4.138
  124OSM   H15G13190   3.091   3.544   3.994
  124OSM   C16F13191   3.021   3.727   4.090
  124OSM   H16F13192   2.928   3.718   4.029
  124OSM   H16G13193   3.073   3.822   4.069
  124OSM   C17F13194   2.983   3.723   4.236
  124OSM   H17F13195   3.076   3.693   4.289
  124OSM   H17G13196   2.901   3.654   4.266
  124OSM   C18F13197   2.930   3.863   4.283
  124OSM   H18F13198   2.851   3.901   4.215
  124OSM   H18G13199   3.015   3.933   4.267
  124OSM   H18H13200   2.895   3.861   4.389
  125OSM      N13201   4.175   0.656   2.413
  125OSM    C1513202   4.229   0.749   2.308
  125OSM   H15A13203   4.202   0.849   2.338
  125OSM   H15B13204   4.186   0.732   2.211
  125OSM   H15C13205   4.336   0.748   2.294
  125OSM    C1413206   4.273   0.647   2.527
  125OSM   H14A13207   4.258   0.584   2.613
  125OSM   H14B13208   4.300   0.741   2.574
  125OSM   H14C13209   4.368   0.612   2.488
  125OSM    C1313210   4.038   0.685   2.468
  125OSM   H13A13211   4.027   0.787   2.501
  125OSM   H13B13212   4.032   0.624   2.557
  125OSM   H13C13213   3.959   0.658   2.400
  125OSM    C1213214   4.169   0.517   2.340
  125OSM   H12A13215   4.103   0.528   2.255
  125OSM   H12B13216   4.118   0.452   2.411
  125OSM    C1113217   4.302   0.437   2.307
  125OSM   H11A13218   4.358   0.508   2.243
  125OSM   H11B13219   4.268   0.347   2.252
  125OSM      P13220   4.339   0.262   2.488
  125OSM    O1313221   4.374   0.152   2.393
  125OSM    O1413222   4.401   0.263   2.622
  125OSM    O1113223   4.178   0.278   2.495
  125OSM    O1213224   4.375   0.400   2.425
  125OSM    C1S13225   4.089   0.170   2.519
  125OSM    H1S13226   4.129   0.075   2.478
  125OSM    H1T13227   3.991   0.189   2.471
  125OSM     NF13228   3.976   0.019   2.686
  125OSM    HNF13229   3.877   0.029   2.695
  125OSM    C2S13230   4.063   0.139   2.671
  125OSM    H2S13231   4.161   0.108   2.715
  125OSM    C3S13232   4.007   0.270   2.742
  125OSM    H3S13233   3.906   0.287   2.698
  125OSM     O313234   4.069   0.397   2.712
  125OSM    HO313235   4.119   0.374   2.634
  125OSM    C4S13236   3.979   0.257   2.889
  125OSM    H4S13237   3.879   0.213   2.902
  125OSM    C5S13238   4.050   0.294   3.004
  125OSM    H5S13239   4.152   0.333   2.995
  125OSM    C6S13240   4.006   0.287   3.149
  125OSM    H6S13241   3.989   0.391   3.185
  125OSM    H6T13242   4.090   0.239   3.204
  125OSM    C7S13243   3.863   0.226   3.176
  125OSM    H7S13244   3.858   0.117   3.152
  125OSM    H7T13245   3.778   0.275   3.124
  125OSM    C8S13246   3.840   0.239   3.330
  125OSM    H8S13247   3.799   0.339   3.353
  125OSM    H8T13248   3.941   0.220   3.370
  125OSM    C9S13249   3.742   0.131   3.382
  125OSM    H9S13250   3.789   0.030   3.381
  125OSM    H9T13251   3.653   0.112   3.319
  125OSM   C10S13252   3.693   0.170   3.522
  125OSM   H10S13253   3.665   0.278   3.518
  125OSM   H10T13254   3.782   0.157   3.587
  125OSM   C11S13255   3.582   0.079   3.584
  125OSM   H11S13256   3.626   6.820   3.608
  125OSM   H11T13257   3.496   0.072   3.514
  125OSM   C12S13258   3.516   0.125   3.716
  125OSM   H12S13259   3.466   0.223   3.700
  125OSM   H12T13260   3.594   0.157   3.788
  125OSM   C13S13261   3.413   0.032   3.769
  125OSM   H13S13262   3.447   6.771   3.798
  125OSM   H13T13263   3.322   0.029   3.706
  125OSM   C14S13264   3.346   0.093   3.895
  125OSM   H14S13265   3.267   0.161   3.855
  125OSM   H14T13266   3.404   0.165   3.955
  125OSM   C15S13267   3.278   6.831   3.989
  125OSM   H15S13268   3.343   6.744   4.010
  125OSM   H15T13269   3.192   6.787   3.933
  125OSM   C16S13270   3.225   0.047   4.124
  125OSM   H16S13271   3.174   6.807   4.181
  125OSM   H16T13272   3.137   0.109   4.095
  125OSM   C17S13273   3.320   0.129   4.206
  125OSM   H17S13274   3.328   0.229   4.160
  125OSM   H17T13275   3.420   0.081   4.208
  125OSM   C18S13276   3.265   0.133   4.356
  125OSM   H18S13277   3.275   0.033   4.404
  125OSM   H18T13278   3.161   0.170   4.355
  125OSM   H18U13279   3.332   0.193   4.422
  125OSM    C1F13280   4.019   6.738   2.663
  125OSM     OF13281   4.138   6.725   2.646
  125OSM    C2F13282   3.926   6.621   2.662
  125OSM    H2F13283   3.937   6.582   2.559
  125OSM    H2G13284   3.829   6.666   2.691
  125OSM    C3F13285   3.959   6.500   2.753
  125OSM    H3F13286   4.050   6.449   2.716
  125OSM    H3G13287   3.871   6.433   2.738
  125OSM    C4F13288   3.965   6.529   2.903
  125OSM    H4F13289   4.043   6.606   2.921
  125OSM    H4G13290   4.003   6.450   2.972
  125OSM    C5F13291   3.827   6.577   2.954
  125OSM    H5F13292   3.741   6.512   2.927
  125OSM    H5G13293   3.818   6.669   2.893
  125OSM    C6F13294   3.832   6.629   3.103
  125OSM    H6F13295   3.734   6.678   3.121
  125OSM    H6G13296   3.922   6.693   3.114
  125OSM    C7F13297   3.858   6.517   3.205
  125OSM    H7F13298   3.963   6.483   3.200
  125OSM    H7G13299   3.800   6.429   3.171
  125OSM    C8F13300   3.823   6.552   3.354
  125OSM    H8F13301   3.870   6.645   3.393
  125OSM    H8G13302   3.865   6.466   3.410
  125OSM    C9F13303   3.675   6.565   3.379
  125OSM    H9F13304   3.615   6.632   3.315
  125OSM   C10F13305   3.615   6.517   3.493
  125OSM   H10F13306   3.505   6.513   3.498
  125OSM   C11F13307   3.680   6.435   3.603
  125OSM   H11F13308   3.790   6.440   3.610
  125OSM   H11G13309   3.645   6.331   3.587
  125OSM   C12F13310   3.625   6.472   3.745
  125OSM   H12F13311   3.648   6.580   3.761
  125OSM   H12G13312   3.697   6.415   3.809
  125OSM   C13F13313   3.483   6.415   3.782
  125OSM   H13F13314   3.471   6.311   3.744
  125OSM   H13G13315   3.411   6.469   3.717
  125OSM   C14F13316   3.431   6.423   3.931
  125OSM   H14F13317   3.379   6.520   3.939
  125OSM   H14G13318   3.514   6.415   4.004
  125OSM   C15F13319   3.327   6.310   3.957
  125OSM   H15F13320   3.386   6.216   3.965
  125OSM   H15G13321   3.260   6.294   3.870
  125OSM   C16F13322   3.236   6.338   4.078
  125OSM   H16F13323   3.166   6.251   4.081
  125OSM   H16G13324   3.178   6.429   4.051
  125OSM   C17F13325   3.310   6.362   4.208
  125OSM   H17F13326   3.358   6.462   4.214
  125OSM   H17G13327   3.402   6.300   4.219
  125OSM   C18F13328   3.225   6.367   4.337
  125OSM   H18F13329   3.132   6.422   4.309
  125OSM   H18G13330   3.270   6.421   4.423
  125OSM   H18H13331   3.202   6.264   4.372
  126OSM      N13332   2.503   1.407   1.882
  126OSM    C1513333   2.429   1.436   1.756
  126OSM   H15A13334   2.497   1.460   1.676
  126OSM   H15B13335   2.361   1.519   1.772
  126OSM   H15C13336   2.380   1.344   1.726
  126OSM    C1413337   2.572   1.531   1.923
  126OSM   H14A13338   2.606   1.519   2.024
  126OSM   H14B13339   2.521   1.626   1.910
  126OSM   H14C13340   2.656   1.545   1.856
  126OSM    C1313341   2.393   1.377   1.983
  126OSM   H13A13342   2.310   1.443   1.966
  126OSM   H13B13343   2.437   1.390   2.081
  126OSM   H13C13344   2.354   1.278   1.969
  126OSM    C1213345   2.604   1.298   1.862
  126OSM   H12A13346   2.672   1.329   1.783
  126OSM   H12B13347   2.556   1.208   1.827
  126OSM    C1113348   2.690   1.245   1.978
  126OSM   H11A13349   2.613   1.208   2.049
  126OSM   H11B13350   2.750   1.322   2.032
  126OSM      P13351   2.890   1.171   1.842
  126OSM    O1313352   2.895   1.081   1.723
  126OSM    O1413353   2.889   1.316   1.818
  126OSM    O1113354   3.015   1.137   1.935
  126OSM    O1213355   2.774   1.143   1.929
  126OSM    C1S13356   3.068   1.228   2.029
  126OSM    H1S13357   3.048   1.333   2.000
  126OSM    H1T13358   3.179   1.230   2.031
  126OSM     NF13359   3.081   1.314   2.254
  126OSM    HNF13360   3.145   1.275   2.320
  126OSM    C2S13361   3.019   1.208   2.171
  126OSM    H2S13362   2.909   1.221   2.175
  126OSM    C3S13363   3.053   1.066   2.216
  126OSM    H3S13364   3.163   1.060   2.231
  126OSM     O313365   3.030   0.963   2.119
  126OSM    HO313366   2.989   1.019   2.052
  126OSM    C4S13367   2.988   1.026   2.350
  126OSM    H4S13368   2.882   1.054   2.365
  126OSM    C5S13369   3.048   0.963   2.451
  126OSM    H5S13370   3.155   0.937   2.442
  126OSM    C6S13371   2.986   0.949   2.591
  126OSM    H6S13372   3.028   0.858   2.637
  126OSM    H6T13373   2.880   0.916   2.581
  126OSM    C7S13374   2.992   1.072   2.688
  126OSM    H7S13375   2.933   1.157   2.647
  126OSM    H7T13376   3.101   1.096   2.693
  126OSM    C8S13377   2.941   1.046   2.833
  126OSM    H8S13378   2.966   0.941   2.860
  126OSM    H8T13379   2.830   1.045   2.824
  126OSM    C9S13380   2.986   1.152   2.934
  126OSM    H9S13381   2.935   1.247   2.905
  126OSM    H9T13382   3.094   1.166   2.912
  126OSM   C10S13383   2.951   1.128   3.082
  126OSM   H10S13384   2.985   1.027   3.114
  126OSM   H10T13385   2.842   1.108   3.090
  126OSM   C11S13386   3.007   1.234   3.177
  126OSM   H11S13387   2.970   1.336   3.153
  126OSM   H11T13388   3.118   1.233   3.172
  126OSM   C12S13389   2.982   1.193   3.320
  126OSM   H12S13390   3.029   1.094   3.338
  126OSM   H12T13391   2.874   1.171   3.327
  126OSM   C13S13392   3.014   1.297   3.430
  126OSM   H13S13393   2.952   1.388   3.409
  126OSM   H13T13394   3.123   1.312   3.439
  126OSM   C14S13395   2.979   1.251   3.573
  126OSM   H14S13396   3.026   1.150   3.581
  126OSM   H14T13397   2.869   1.239   3.588
  126OSM   C15S13398   3.043   1.343   3.682
  126OSM   H15S13399   3.016   1.448   3.658
  126OSM   H15T13400   3.153   1.344   3.671
  126OSM   C16S13401   3.006   1.297   3.820
  126OSM   H16S13402   3.031   1.190   3.832
  126OSM   H16T13403   2.895   1.292   3.832
  126OSM   C17S13404   3.072   1.372   3.939
  126OSM   H17S13405   3.048   1.481   3.942
  126OSM   H17T13406   3.179   1.383   3.909
  126OSM   C18S13407   3.048   1.308   4.071
  126OSM   H18S13408   3.073   1.381   4.151
  126OSM   H18T13409   3.109   1.216   4.085
  126OSM   H18U13410   2.941   1.285   4.091
  126OSM    C1F13411   3.042   1.441   2.262
  126OSM     OF13412   2.962   1.482   2.174
  126OSM    C2F13413   3.114   1.539   2.366
  126OSM    H2F13414   3.157   1.623   2.307
  126OSM    H2G13415   3.199   1.479   2.403
  126OSM    C3F13416   3.020   1.590   2.480
  126OSM    H3F13417   2.920   1.625   2.447
  126OSM    H3G13418   3.069   1.673   2.535
  126OSM    C4F13419   2.999   1.481   2.590
  126OSM    H4F13420   3.097   1.437   2.618
  126OSM    H4G13421   2.948   1.387   2.558
  126OSM    C5F13422   2.922   1.519   2.718
  126OSM    H5F13423   2.879   1.423   2.752
  126OSM    H5G13424   2.847   1.591   2.680
  126OSM    C6F13425   3.016   1.584   2.820
  126OSM    H6F13426   3.061   1.673   2.772
  126OSM    H6G13427   3.104   1.520   2.844
  126OSM    C7F13428   2.944   1.621   2.955
  126OSM    H7F13429   2.853   1.557   2.967
  126OSM    H7G13430   2.905   1.725   2.950
  126OSM    C8F13431   3.050   1.624   3.065
  126OSM    H8F13432   3.129   1.699   3.042
  126OSM    H8G13433   3.102   1.526   3.062
  126OSM    C9F13434   2.978   1.656   3.188
  126OSM    H9F13435   2.928   1.574   3.242
  126OSM   C10F13436   2.967   1.776   3.244
  126OSM   H10F13437   2.897   1.784   3.329
  126OSM   C11F13438   3.035   1.904   3.199
  126OSM   H11F13439   3.022   1.922   3.090
  126OSM   H11G13440   3.144   1.907   3.220
  126OSM   C12F13441   2.970   2.018   3.276
  126OSM   H12F13442   2.862   2.008   3.255
  126OSM   H12G13443   3.011   2.114   3.236
  126OSM   C13F13444   3.006   2.015   3.425
  126OSM   H13F13445   3.116   2.000   3.430
  126OSM   H13G13446   2.954   1.937   3.484
  126OSM   C14F13447   2.969   2.151   3.492
  126OSM   H14F13448   2.886   2.205   3.442
  126OSM   H14G13449   3.041   2.236   3.489
  126OSM   C15F13450   2.919   2.133   3.632
  126OSM   H15F13451   2.825   2.074   3.636
  126OSM   H15G13452   2.895   2.232   3.675
  126OSM   C16F13453   3.016   2.066   3.734
  126OSM   H16F13454   3.103   2.135   3.735
  126OSM   H16G13455   3.044   1.963   3.703
  126OSM   C17F13456   2.973   2.053   3.882
  126OSM   H17F13457   2.883   1.989   3.882
  126OSM   H17G13458   2.946   2.149   3.932
  126OSM   C18F13459   3.080   1.977   3.958
  126OSM   H18F13460   3.180   2.022   3.977
  126OSM   H18G13461   3.097   1.884   3.900
  126OSM   H18H13462   3.040   1.946   4.057
  127OSM      N13463   1.810   3.315   1.789
  127OSM    C1513464   1.762   3.257   1.662
  127OSM   H15A13465   1.784   3.152   1.673
  127OSM   H15B13466   1.822   3.304   1.585
  127OSM   H15C13467   1.657   3.279   1.649
  127OSM    C1413468   1.747   3.449   1.817
  127OSM   H14A13469   1.639   3.452   1.820
  127OSM   H14B13470   1.773   3.512   1.733
  127OSM   H14C13471   1.782   3.501   1.905
  127OSM    C1313472   1.762   3.222   1.897
  127OSM   H13A13473   1.805   3.239   1.995
  127OSM   H13B13474   1.784   3.120   1.872
  127OSM   H13C13475   1.656   3.240   1.913
  127OSM    C1213476   1.969   3.312   1.786
  127OSM   H12A13477   1.994   3.389   1.715
  127OSM   H12B13478   1.986   3.213   1.746
  127OSM    C1113479   2.043   3.321   1.921
  127OSM   H11A13480   1.996   3.392   1.993
  127OSM   H11B13481   2.146   3.360   1.904
  127OSM      P13482   2.155   3.154   2.091
  127OSM    O1313483   2.132   3.014   2.137
  127OSM    O1413484   2.289   3.193   2.045
  127OSM    O1113485   2.114   3.256   2.203
  127OSM    O1213486   2.044   3.183   1.978
  127OSM    C1S13487   2.026   3.227   2.307
  127OSM    H1S13488   1.985   3.124   2.309
  127OSM    H1T13489   1.937   3.292   2.290
  127OSM     NF13490   1.970   3.193   2.535
  127OSM    HNF13491   1.903   3.263   2.556
  127OSM    C2S13492   2.070   3.246   2.453
  127OSM    H2S13493   2.159   3.185   2.481
  127OSM    C3S13494   2.103   3.387   2.491
  127OSM    H3S13495   2.011   3.450   2.490
  127OSM     O313496   2.201   3.433   2.398
  127OSM    HO313497   2.217   3.355   2.344
  127OSM    C4S13498   2.170   3.388   2.627
  127OSM    H4S13499   2.274   3.352   2.623
  127OSM    C5S13500   2.107   3.413   2.742
  127OSM    H5S13501   2.005   3.453   2.731
  127OSM    C6S13502   2.169   3.416   2.881
  127OSM    H6S13503   2.183   3.524   2.901
  127OSM    H6T13504   2.265   3.362   2.895
  127OSM    C7S13505   2.070   3.369   2.994
  127OSM    H7S13506   2.053   3.259   2.986
  127OSM    H7T13507   1.969   3.414   2.978
  127OSM    C8S13508   2.113   3.412   3.138
  127OSM    H8S13509   2.112   3.522   3.145
  127OSM    H8T13510   2.221   3.385   3.146
  127OSM    C9S13511   2.019   3.355   3.244
  127OSM    H9S13512   2.030   3.246   3.227
  127OSM    H9T13513   1.917   3.393   3.223
  127OSM   C10S13514   2.044   3.398   3.392
  127OSM   H10S13515   2.014   3.504   3.408
  127OSM   H10T13516   2.151   3.368   3.403
  127OSM   C11S13517   1.949   3.317   3.490
  127OSM   H11S13518   1.943   3.211   3.458
  127OSM   H11T13519   1.846   3.344   3.460
  127OSM   C12S13520   1.979   3.349   3.637
  127OSM   H12S13521   1.976   3.458   3.659
  127OSM   H12T13522   2.080   3.307   3.653
  127OSM   C13S13523   1.892   3.274   3.739
  127OSM   H13S13524   1.928   3.171   3.760
  127OSM   H13T13525   1.788   3.280   3.699
  127OSM   C14S13526   1.880   3.353   3.871
  127OSM   H14S13527   1.821   3.285   3.937
  127OSM   H14T13528   1.814   3.441   3.856
  127OSM   C15S13529   2.012   3.379   3.949
  127OSM   H15S13530   2.076   3.449   3.892
  127OSM   H15T13531   2.080   3.292   3.965
  127OSM   C16S13532   1.986   3.451   4.092
  127OSM   H16S13533   1.904   3.396   4.143
  127OSM   H16T13534   1.947   3.551   4.063
  127OSM   C17S13535   2.114   3.472   4.178
  127OSM   H17S13536   2.190   3.540   4.133
  127OSM   H17T13537   2.155   3.373   4.207
  127OSM   C18S13538   2.079   3.548   4.307
  127OSM   H18S13539   2.162   3.558   4.380
  127OSM   H18T13540   1.996   3.490   4.353
  127OSM   H18U13541   2.038   3.648   4.280
  127OSM    C1F13542   1.954   3.062   2.566
  127OSM     OF13543   2.036   2.974   2.536
  127OSM    C2F13544   1.838   3.028   2.653
  127OSM    H2F13545   1.797   2.929   2.624
  127OSM    H2G13546   1.756   3.103   2.648
  127OSM    C3F13547   1.888   3.025   2.798
  127OSM    H3F13548   1.923   3.126   2.830
  127OSM    H3G13549   1.971   2.955   2.821
  127OSM    C4F13550   1.781   2.988   2.911
  127OSM    H4F13551   1.751   2.882   2.895
  127OSM    H4G13552   1.697   3.059   2.892
  127OSM    C5F13553   1.843   3.012   3.043
  127OSM    H5F13554   1.878   3.117   3.044
  127OSM    H5G13555   1.939   2.956   3.046
  127OSM    C6F13556   1.770   2.941   3.162
  127OSM    H6F13557   1.779   2.833   3.139
  127OSM    H6G13558   1.666   2.979   3.162
  127OSM    C7F13559   1.827   2.970   3.303
  127OSM    H7F13560   1.851   3.079   3.301
  127OSM    H7G13561   1.919   2.912   3.323
  127OSM    C8F13562   1.729   2.951   3.419
  127OSM    H8F13563   1.705   2.843   3.412
  127OSM    H8G13564   1.636   3.004   3.392
  127OSM    C9F13565   1.780   2.997   3.556
  127OSM    H9F13566   1.755   3.100   3.586
  127OSM   C10F13567   1.831   2.918   3.650
  127OSM   H10F13568   1.864   2.964   3.744
  127OSM   C11F13569   1.866   2.774   3.628
  127OSM   H11F13570   1.975   2.762   3.610
  127OSM   H11G13571   1.839   2.732   3.529
  127OSM   C12F13572   1.816   2.678   3.734
  127OSM   H12F13573   1.816   2.571   3.704
  127OSM   H12G13574   1.708   2.701   3.748
  127OSM   C13F13575   1.902   2.680   3.860
  127OSM   H13F13576   1.916   2.782   3.902
  127OSM   H13G13577   2.004   2.658   3.819
  127OSM   C14F13578   1.850   2.580   3.969
  127OSM   H14F13579   1.840   2.480   3.921
  127OSM   H14G13580   1.747   2.604   4.001
  127OSM   C15F13581   1.939   2.572   4.097
  127OSM   H15F13582   1.908   2.487   4.161
  127OSM   H15G13583   1.914   2.662   4.156
  127OSM   C16F13584   2.086   2.562   4.078
  127OSM   H16F13585   2.114   2.637   4.001
  127OSM   H16G13586   2.108   2.464   4.030
  127OSM   C17F13587   2.169   2.573   4.212
  127OSM   H17F13588   2.118   2.502   4.280
  127OSM   H17G13589   2.169   2.676   4.254
  127OSM   C18F13590   2.317   2.531   4.205
  127OSM   H18F13591   2.328   2.421   4.196
  127OSM   H18G13592   2.361   2.561   4.303
  127OSM   H18H13593   2.371   2.586   4.125
  128OSM      N13594   1.793   0.450   2.159
  128OSM    C1513595   1.905   0.540   2.124
  128OSM   H15A13596   1.960   0.540   2.217
  128OSM   H15B13597   1.893   0.646   2.108
  128OSM   H15C13598   1.974   0.501   2.051
  128OSM    C1413599   1.706   0.445   2.042
  128OSM   H14A13600   1.666   0.542   2.018
  128OSM   H14B13601   1.627   0.371   2.047
  128OSM   H14C13602   1.761   0.405   1.958
  128OSM    C1313603   1.847   0.314   2.185
  128OSM   H13A13604   1.760   0.252   2.201
  128OSM   H13B13605   1.906   0.320   2.276
  128OSM   H13C13606   1.907   0.279   2.103
  128OSM    C1213607   1.716   0.498   2.279
  128OSM   H12A13608   1.634   0.431   2.300
  128OSM   H12B13609   1.673   0.594   2.256
  128OSM    C1113610   1.777   0.518   2.413
  128OSM   H11A13611   1.827   0.424   2.445
  128OSM   H11B13612   1.705   0.530   2.497
  128OSM      P13613   1.858   0.764   2.462
  128OSM    O1313614   1.980   0.825   2.520
  128OSM    O1413615   1.783   0.841   2.359
  128OSM    O1113616   1.761   0.742   2.581
  128OSM    O1213617   1.885   0.618   2.411
  128OSM    C1S13618   1.798   0.675   2.710
  128OSM    H1S13619   1.881   0.603   2.692
  128OSM    H1T13620   1.715   0.611   2.746
  128OSM     NF13621   1.892   0.702   2.952
  128OSM    HNF13622   1.832   0.716   3.030
  128OSM    C2S13623   1.835   0.766   2.830
  128OSM    H2S13624   1.910   0.837   2.789
  128OSM    C3S13625   1.713   0.860   2.858
  128OSM    H3S13626   1.637   0.797   2.909
  128OSM     O313627   1.646   0.909   2.738
  128OSM    HO313628   1.676   0.847   2.671
  128OSM    C4S13629   1.748   0.977   2.946
  128OSM    H4S13630   1.739   0.946   3.052
  128OSM    C5S13631   1.755   1.110   2.919
  128OSM    H5S13632   1.749   1.153   2.818
  128OSM    C6S13633   1.783   1.213   3.023
  128OSM    H6S13634   1.721   1.301   2.997
  128OSM    H6T13635   1.888   1.250   3.028
  128OSM    C7S13636   1.756   1.177   3.176
  128OSM    H7S13637   1.841   1.116   3.212
  128OSM    H7T13638   1.654   1.132   3.180
  128OSM    C8S13639   1.756   1.312   3.249
  128OSM    H8S13640   1.685   1.387   3.209
  128OSM    H8T13641   1.855   1.362   3.247
  128OSM    C9S13642   1.724   1.300   3.396
  128OSM    H9S13643   1.625   1.254   3.419
  128OSM    H9T13644   1.719   1.404   3.434
  128OSM   C10S13645   1.833   1.229   3.480
  128OSM   H10S13646   1.900   1.313   3.507
  128OSM   H10T13647   1.884   1.157   3.412
  128OSM   C11S13648   1.771   1.144   3.587
  128OSM   H11S13649   1.700   1.073   3.540
  128OSM   H11T13650   1.722   1.207   3.664
  128OSM   C12S13651   1.875   1.066   3.673
  128OSM   H12S13652   1.958   1.132   3.704
  128OSM   H12T13653   1.929   0.985   3.619
  128OSM   C13S13654   1.796   1.014   3.796
  128OSM   H13S13655   1.704   0.969   3.753
  128OSM   H13T13656   1.758   1.102   3.852
  128OSM   C14S13657   1.881   0.930   3.888
  128OSM   H14S13658   1.852   0.940   3.995
  128OSM   H14T13659   1.983   0.975   3.884
  128OSM   C15S13660   1.896   0.785   3.844
  128OSM   H15S13661   1.887   0.778   3.734
  128OSM   H15T13662   1.807   0.736   3.888
  128OSM   C16S13663   2.024   0.711   3.889
  128OSM   H16S13664   2.114   0.751   3.837
  128OSM   H16T13665   2.006   0.609   3.850
  128OSM   C17S13666   2.038   0.702   4.048
  128OSM   H17S13667   1.945   0.667   4.099
  128OSM   H17T13668   2.062   0.802   4.090
  128OSM   C18S13669   2.147   0.607   4.100
  128OSM   H18S13670   2.247   0.653   4.081
  128OSM   H18T13671   2.156   0.515   4.038
  128OSM   H18U13672   2.129   0.579   4.206
  128OSM    C1F13673   2.005   0.629   2.956
  128OSM     OF13674   2.074   0.617   2.861
  128OSM    C2F13675   2.055   0.565   3.094
  128OSM    H2F13676   2.110   0.647   3.144
  128OSM    H2G13677   2.118   0.478   3.068
  128OSM    C3F13678   1.938   0.519   3.187
  128OSM    H3F13679   1.906   0.423   3.140
  128OSM    H3G13680   1.864   0.600   3.204
  128OSM    C4F13681   1.997   0.481   3.327
  128OSM    H4F13682   2.021   0.575   3.381
  128OSM    H4G13683   2.079   0.410   3.305
  128OSM    C5F13684   1.893   0.413   3.409
  128OSM    H5F13685   1.837   0.333   3.356
  128OSM    H5G13686   1.818   0.493   3.424
  128OSM    C6F13687   1.951   0.357   3.540
  128OSM    H6F13688   1.982   0.438   3.609
  128OSM    H6G13689   2.043   0.297   3.521
  128OSM    C7F13690   1.847   0.278   3.619
  128OSM    H7F13691   1.813   0.187   3.564
  128OSM    H7G13692   1.763   0.350   3.634
  128OSM    C8F13693   1.890   0.225   3.755
  128OSM    H8F13694   1.968   0.148   3.735
  128OSM    H8G13695   1.808   0.162   3.797
  128OSM    C9F13696   1.934   0.337   3.849
  128OSM    H9F13697   2.012   0.409   3.819
  128OSM   C10F13698   1.893   0.351   3.976
  128OSM   H10F13699   1.921   0.447   4.023
  128OSM   C11F13700   1.792   0.260   4.056
  128OSM   H11F13701   1.813   0.152   4.038
  128OSM   H11G13702   1.687   0.279   4.023
  128OSM   C12F13703   1.802   0.293   4.206
  128OSM   H12F13704   1.726   0.237   4.266
  128OSM   H12G13705   1.785   0.401   4.221
  128OSM   C13F13706   1.935   0.245   4.265
  128OSM   H13F13707   2.021   0.284   4.207
  128OSM   H13G13708   1.933   0.134   4.264
  128OSM   C14F13709   1.967   0.266   4.417
  128OSM   H14F13710   1.911   0.352   4.458
  128OSM   H14G13711   2.074   0.281   4.444
  128OSM   C15F13712   1.913   0.153   4.507
  128OSM   H15F13713   1.969   0.057   4.503
  128OSM   H15G13714   1.818   0.120   4.459
  128OSM   C16F13715   1.895   0.193   4.657
  128OSM   H16F13716   1.825   0.279   4.656
  128OSM   H16G13717   1.989   0.246   4.687
  128OSM   C17F13718   1.855   0.086   4.747
  128OSM   H17F13719   1.751   0.054   4.725
  128OSM   H17G13720   1.851   0.140   4.845
  128OSM   C18F13721   1.955   6.821   4.749
  128OSM   H18F13722   1.949   6.773   4.849
  128OSM   H18G13723   2.058   0.017   4.732
  128OSM   H18H13724   1.928   6.744   4.672
  129OSM      N13725   3.453   0.132   2.027
  129OSM    C1513726   3.459   0.037   2.140
  129OSM   H15A13727   3.461   0.076   2.240
  129OSM   H15B13728   3.554   6.827   2.137
  129OSM   H15C13729   3.372   6.814   2.144
  129OSM    C1413730   3.460   0.067   1.890
  129OSM   H14A13731   3.467   0.139   1.810
  129OSM   H14B13732   3.371   0.007   1.876
  129OSM   H14C13733   3.543   6.838   1.890
  129OSM    C1313734   3.323   0.206   2.044
  129OSM   H13A13735   3.311   0.256   1.949
  129OSM   H13B13736   3.324   0.275   2.127
  129OSM   H13C13737   3.249   0.127   2.047
  129OSM    C1213738   3.559   0.236   2.039
  129OSM   H12A13739   3.578   0.260   2.142
  129OSM   H12B13740   3.533   0.324   1.983
  129OSM    C1113741   3.702   0.203   1.999
  129OSM   H11A13742   3.765   0.294   2.002
  129OSM   H11B13743   3.697   0.167   1.894
  129OSM      P13744   3.847   0.142   2.202
  129OSM    O1313745   3.854   0.028   2.301
  129OSM    O1413746   3.977   0.190   2.148
  129OSM    O1113747   3.766   0.269   2.271
  129OSM    O1213748   3.762   0.099   2.080
  129OSM    C1S13749   3.674   0.238   2.374
  129OSM    H1S13750   3.675   0.136   2.418
  129OSM    H1T13751   3.570   0.245   2.335
  129OSM     NF13752   3.598   0.306   2.615
  129OSM    HNF13753   3.528   0.374   2.633
  129OSM    C2S13754   3.688   0.339   2.503
  129OSM    H2S13755   3.789   0.320   2.545
  129OSM    C3S13756   3.679   0.488   2.455
  129OSM    H3S13757   3.573   0.499   2.422
  129OSM     O313758   3.758   0.523   2.341
  129OSM    HO313759   3.778   0.438   2.300
  129OSM    C4S13760   3.709   0.590   2.565
  129OSM    H4S13761   3.806   0.586   2.617
  129OSM    C5S13762   3.624   0.687   2.608
  129OSM    H5S13763   3.519   0.694   2.573
  129OSM    C6S13764   3.663   0.760   2.733
  129OSM    H6S13765   3.568   0.814   2.756
  129OSM    H6T13766   3.737   0.838   2.705
  129OSM    C7S13767   3.693   0.680   2.856
  129OSM    H7S13768   3.795   0.639   2.843
  129OSM    H7T13769   3.617   0.599   2.868
  129OSM    C8S13770   3.686   0.756   2.988
  129OSM    H8S13771   3.589   0.804   3.010
  129OSM    H8T13772   3.754   0.843   2.994
  129OSM    C9S13773   3.733   0.660   3.103
  129OSM    H9S13774   3.837   0.634   3.076
  129OSM    H9T13775   3.657   0.579   3.096
  129OSM   C10S13776   3.731   0.732   3.242
  129OSM   H10S13777   3.630   0.776   3.258
  129OSM   H10T13778   3.809   0.810   3.246
  129OSM   C11S13779   3.750   0.639   3.360
  129OSM   H11S13780   3.856   0.610   3.369
  129OSM   H11T13781   3.686   0.550   3.343
  129OSM   C12S13782   3.696   0.691   3.503
  129OSM   H12S13783   3.595   0.729   3.481
  129OSM   H12T13784   3.762   0.776   3.533
  129OSM   C13S13785   3.696   0.576   3.611
  129OSM   H13S13786   3.803   0.552   3.629
  129OSM   H13T13787   3.640   0.485   3.580
  129OSM   C14S13788   3.649   0.611   3.754
  129OSM   H14S13789   3.540   0.633   3.753
  129OSM   H14T13790   3.709   0.695   3.792
  129OSM   C15S13791   3.657   0.483   3.839
  129OSM   H15S13792   3.765   0.461   3.855
  129OSM   H15T13793   3.605   0.407   3.778
  129OSM   C16S13794   3.592   0.512   3.975
  129OSM   H16S13795   3.492   0.555   3.952
  129OSM   H16T13796   3.647   0.595   4.025
  129OSM   C17S13797   3.598   0.391   4.072
  129OSM   H17S13798   3.705   0.369   4.093
  129OSM   H17T13799   3.558   0.310   4.007
  129OSM   C18S13800   3.533   0.405   4.208
  129OSM   H18S13801   3.425   0.427   4.195
  129OSM   H18T13802   3.580   0.481   4.274
  129OSM   H18U13803   3.537   0.299   4.242
  129OSM    C1F13804   3.608   0.197   2.693
  129OSM     OF13805   3.694   0.110   2.670
  129OSM    C2F13806   3.535   0.190   2.815
  129OSM    H2F13807   3.435   0.240   2.814
  129OSM    H2G13808   3.583   0.248   2.897
  129OSM    C3F13809   3.508   0.048   2.860
  129OSM    H3F13810   3.600   6.834   2.887
  129OSM    H3G13811   3.454   6.829   2.784
  129OSM    C4F13812   3.419   0.036   2.983
  129OSM    H4F13813   3.355   6.786   2.976
  129OSM    H4G13814   3.356   0.126   2.969
  129OSM    C5F13815   3.477   0.042   3.127
  129OSM    H5F13816   3.551   0.125   3.133
  129OSM    H5G13817   3.542   6.793   3.138
  129OSM    C6F13818   3.385   0.072   3.244
  129OSM    H6F13819   3.300   0.134   3.208
  129OSM    H6G13820   3.416   0.136   3.329
  129OSM    C7F13821   3.328   6.791   3.317
  129OSM    H7F13822   3.406   6.721   3.352
  129OSM    H7G13823   3.271   6.726   3.247
  129OSM    C8F13824   3.218   6.837   3.415
  129OSM    H8F13825   3.125   0.030   3.364
  129OSM    H8G13826   3.254   0.082   3.476
  129OSM    C9F13827   3.182   6.718   3.509
  129OSM    H9F13828   3.240   6.630   3.478
  129OSM   C10F13829   3.111   6.720   3.625
  129OSM   H10F13830   3.097   6.627   3.683
  129OSM   C11F13831   3.039   6.839   3.681
  129OSM   H11F13832   3.042   0.086   3.613
  129OSM   H11G13833   3.092   0.040   3.769
  129OSM   C12F13834   2.894   6.810   3.727
  129OSM   H12F13835   2.899   6.723   3.796
  129OSM   H12G13836   2.832   6.788   3.638
  129OSM   C13F13837   2.821   0.073   3.813
  129OSM   H13F13838   2.873   0.075   3.912
  129OSM   H13G13839   2.723   0.025   3.829
  129OSM   C14F13840   2.790   0.207   3.749
  129OSM   H14F13841   2.759   0.194   3.643
  129OSM   H14G13842   2.876   0.277   3.744
  129OSM   C15F13843   2.679   0.294   3.816
  129OSM   H15F13844   2.581   0.242   3.820
  129OSM   H15G13845   2.660   0.386   3.757
  129OSM   C16F13846   2.702   0.338   3.964
  129OSM   H16F13847   2.751   0.438   3.969
  129OSM   H16G13848   2.746   0.266   4.035
  129OSM   C17F13849   2.558   0.373   4.023
  129OSM   H17F13850   2.495   0.281   4.024
  129OSM   H17G13851   2.500   0.448   3.965
  129OSM   C18F13852   2.572   0.421   4.176
  129OSM   H18F13853   2.643   0.507   4.177
  129OSM   H18G13854   2.611   0.345   4.248
  129OSM   H18H13855   2.470   0.448   4.209
  130OSM      N13856   3.399   4.421   1.675
  130OSM    C1513857   3.272   4.426   1.752
  130OSM   H15A13858   3.263   4.519   1.807
  130OSM   H15B13859   3.264   4.350   1.828
  130OSM   H15C13860   3.184   4.405   1.693
  130OSM    C1413861   3.425   4.281   1.618
  130OSM   H14A13862   3.349   4.247   1.549
  130OSM   H14B13863   3.431   4.198   1.686
  130OSM   H14C13864   3.518   4.282   1.563
  130OSM    C1313865   3.386   4.521   1.559
  130OSM   H13A13866   3.297   4.494   1.503
  130OSM   H13B13867   3.472   4.518   1.494
  130OSM   H13C13868   3.369   4.622   1.593
  130OSM    C1213869   3.519   4.457   1.764
  130OSM   H12A13870   3.522   4.387   1.846
  130OSM   H12B13871   3.505   4.555   1.808
  130OSM    C1113872   3.656   4.449   1.698
  130OSM   H11A13873   3.647   4.470   1.589
  130OSM   H11B13874   3.701   4.348   1.703
  130OSM      P13875   3.858   4.530   1.835
  130OSM    O1313876   3.965   4.501   1.740
  130OSM    O1413877   3.888   4.637   1.934
  130OSM    O1113878   3.831   4.390   1.901
  130OSM    O1213879   3.726   4.552   1.760
  130OSM    C1S13880   3.841   4.384   2.045
  130OSM    H1S13881   3.739   4.405   2.085
  130OSM    H1T13882   3.926   4.441   2.087
  130OSM     NF13883   3.915   4.219   2.228
  130OSM    HNF13884   4.007   4.184   2.245
  130OSM    C2S13885   3.865   4.230   2.093
  130OSM    H2S13886   3.765   4.184   2.080
  130OSM    C3S13887   3.954   4.138   1.996
  130OSM    H3S13888   4.055   4.180   2.013
  130OSM     O313889   3.918   4.140   1.859
  130OSM    HO313890   3.886   4.230   1.854
  130OSM    C4S13891   3.967   3.994   2.035
  130OSM    H4S13892   4.062   3.970   2.084
  130OSM    C5S13893   3.894   3.889   1.996
  130OSM    H5S13894   3.820   3.910   1.917
  130OSM    C6S13895   3.931   3.746   2.021
  130OSM    H6S13896   4.018   3.731   2.090
  130OSM    H6T13897   3.955   3.693   1.927
  130OSM    C7S13898   3.808   3.670   2.079
  130OSM    H7S13899   3.857   3.571   2.091
  130OSM    H7T13900   3.727   3.660   2.003
  130OSM    C8S13901   3.744   3.721   2.210
  130OSM    H8S13902   3.680   3.810   2.192
  130OSM    H8T13903   3.827   3.756   2.274
  130OSM    C9S13904   3.656   3.625   2.285
  130OSM    H9S13905   3.723   3.544   2.320
  130OSM    H9T13906   3.593   3.582   2.205
  130OSM   C10S13907   3.565   3.692   2.392
  130OSM   H10S13908   3.496   3.614   2.430
  130OSM   H10T13909   3.509   3.772   2.339
  130OSM   C11S13910   3.644   3.753   2.505
  130OSM   H11S13911   3.708   3.838   2.472
  130OSM   H11T13912   3.709   3.676   2.550
  130OSM   C12S13913   3.551   3.797   2.621
  130OSM   H12S13914   3.493   3.709   2.658
  130OSM   H12T13915   3.483   3.879   2.590
  130OSM   C13S13916   3.643   3.860   2.732
  130OSM   H13S13917   3.669   3.966   2.709
  130OSM   H13T13918   3.744   3.815   2.728
  130OSM   C14S13919   3.576   3.855   2.876
  130OSM   H14S13920   3.525   3.756   2.886
  130OSM   H14T13921   3.500   3.936   2.875
  130OSM   C15S13922   3.683   3.892   2.979
  130OSM   H15S13923   3.713   3.998   2.967
  130OSM   H15T13924   3.773   3.829   2.963
  130OSM   C16S13925   3.638   3.880   3.124
  130OSM   H16S13926   3.580   3.787   3.139
  130OSM   H16T13927   3.566   3.960   3.151
  130OSM   C17S13928   3.749   3.885   3.225
  130OSM   H17S13929   3.805   3.980   3.217
  130OSM   H17T13930   3.822   3.802   3.212
  130OSM   C18S13931   3.683   3.884   3.372
  130OSM   H18S13932   3.615   3.970   3.391
  130OSM   H18T13933   3.760   3.876   3.452
  130OSM   H18U13934   3.612   3.798   3.374
  130OSM    C1F13935   3.832   4.251   2.335
  130OSM     OF13936   3.725   4.306   2.324
  130OSM    C2F13937   3.886   4.208   2.468
  130OSM    H2F13938   3.996   4.216   2.456
  130OSM    H2G13939   3.859   4.102   2.488
  130OSM    C3F13940   3.844   4.305   2.578
  130OSM    H3F13941   3.733   4.314   2.573
  130OSM    H3G13942   3.899   4.398   2.554
  130OSM    C4F13943   3.872   4.258   2.719
  130OSM    H4F13944   3.971   4.207   2.707
  130OSM    H4G13945   3.801   4.175   2.736
  130OSM    C5F13946   3.893   4.355   2.832
  130OSM    H5F13947   3.797   4.406   2.855
  130OSM    H5G13948   3.970   4.430   2.804
  130OSM    C6F13949   3.951   4.295   2.962
  130OSM    H6F13950   4.054   4.258   2.942
  130OSM    H6G13951   3.894   4.204   2.993
  130OSM    C7F13952   3.952   4.401   3.071
  130OSM    H7F13953   3.856   4.457   3.061
  130OSM    H7G13954   4.031   4.466   3.028
  130OSM    C8F13955   3.989   4.346   3.206
  130OSM    H8F13956   4.028   4.428   3.270
  130OSM    H8G13957   4.066   4.270   3.180
  130OSM    C9F13958   3.864   4.272   3.262
  130OSM    H9F13959   3.787   4.255   3.186
  130OSM   C10F13960   3.842   4.232   3.386
  130OSM   H10F13961   3.744   4.186   3.406
  130OSM   C11F13962   3.936   4.265   3.500
  130OSM   H11F13963   4.044   4.265   3.476
  130OSM   H11G13964   3.926   4.179   3.570
  130OSM   C12F13965   3.898   4.395   3.572
  130OSM   H12F13966   3.921   4.484   3.510
  130OSM   H12G13967   3.960   4.404   3.664
  130OSM   C13F13968   3.749   4.409   3.600
  130OSM   H13F13969   3.700   4.313   3.627
  130OSM   H13G13970   3.692   4.470   3.526
  130OSM   C14F13971   3.727   4.502   3.725
  130OSM   H14F13972   3.760   4.606   3.702
  130OSM   H14G13973   3.767   4.467   3.822
  130OSM   C15F13974   3.576   4.522   3.746
  130OSM   H15F13975   3.523   4.425   3.740
  130OSM   H15G13976   3.535   4.594   3.671
  130OSM   C16F13977   3.557   4.594   3.882
  130OSM   H16F13978   3.454   4.636   3.882
  130OSM   H16G13979   3.642   4.666   3.890
  130OSM   C17F13980   3.564   4.497   4.003
  130OSM   H17F13981   3.660   4.442   4.003
  130OSM   H17G13982   3.484   4.420   3.996
  130OSM   C18F13983   3.553   4.566   4.143
  130OSM   H18F13984   3.632   4.645   4.149
  130OSM   H18G13985   3.574   4.492   4.223
  130OSM   H18H13986   3.457   4.618   4.163
  131OSM      N13987   1.010   0.498   2.132
  131OSM    C1513988   1.083   0.370   2.142
  131OSM   H15A13989   1.026   0.298   2.198
  131OSM   H15B13990   1.179   0.385   2.189
  131OSM   H15C13991   1.096   0.322   2.046
  131OSM    C1413992   1.083   0.590   2.033
  131OSM   H14A13993   1.167   0.638   2.082
  131OSM   H14B13994   1.017   0.674   2.018
  131OSM   H14C13995   1.110   0.537   1.943
  131OSM    C1313996   0.877   0.470   2.077
  131OSM   H13A13997   0.829   0.565   2.064
  131OSM   H13B13998   0.819   0.403   2.138
  131OSM   H13C13999   0.890   0.419   1.982
  131OSM    C1214000   0.998   0.576   2.266
  131OSM   H12A14001   0.908   0.542   2.315
  131OSM   H12B14002   0.979   0.679   2.239
  131OSM    C1114003   1.120   0.581   2.362
  131OSM   H11A14004   1.142   0.478   2.397
  131OSM   H11B14005   1.074   0.637   2.446
  131OSM      P14006   1.371   0.590   2.300
  131OSM    O1314007   1.370   0.469   2.214
  131OSM    O1414008   1.472   0.687   2.273
  131OSM    O1114009   1.392   0.546   2.444
  131OSM    O1214010   1.229   0.656   2.312
  131OSM    C1S14011   1.418   0.631   2.559
  131OSM    H1S14012   1.380   0.734   2.543
  131OSM    H1T14013   1.525   0.629   2.588
  131OSM     NF14014   1.343   0.674   2.782
  131OSM    HNF14015   1.419   0.674   2.847
  131OSM    C2S14016   1.345   0.568   2.680
  131OSM    H2S14017   1.241   0.541   2.654
  131OSM    C3S14018   1.421   0.445   2.716
  131OSM    H3S14019   1.521   0.469   2.757
  131OSM     O314020   1.442   0.355   2.607
  131OSM    HO314021   1.420   0.405   2.528
  131OSM    C4S14022   1.358   0.371   2.832
  131OSM    H4S14023   1.429   0.379   2.916
  131OSM    C5S14024   1.243   0.299   2.856
  131OSM    H5S14025   1.188   0.273   2.764
  131OSM    C6S14026   1.189   0.231   2.974
  131OSM    H6S14027   1.082   0.260   2.982
  131OSM    H6T14028   1.241   0.273   3.062
  131OSM    C7S14029   1.172   0.079   2.970
  131OSM    H7S14030   1.260   0.026   2.929
  131OSM    H7T14031   1.096   0.064   2.891
  131OSM    C8S14032   1.103   0.030   3.095
  131OSM    H8S14033   1.075   6.765   3.076
  131OSM    H8T14034   1.009   0.085   3.118
  131OSM    C9S14035   1.183   0.041   3.223
  131OSM    H9S14036   1.240   0.136   3.233
  131OSM    H9T14037   1.255   6.797   3.212
  131OSM   C10S14038   1.088   0.045   3.351
  131OSM   H10S14039   1.013   6.804   3.353
  131OSM   H10T14040   1.037   0.143   3.348
  131OSM   C11S14041   1.174   0.048   3.478
  131OSM   H11S14042   1.246   0.132   3.476
  131OSM   H11T14043   1.232   6.795   3.490
  131OSM   C12S14044   1.086   0.076   3.601
  131OSM   H12S14045   0.985   0.029   3.592
  131OSM   H12T14046   1.075   0.186   3.606
  131OSM   C13S14047   1.164   0.029   3.726
  131OSM   H13S14048   1.245   0.101   3.752
  131OSM   H13T14049   1.224   6.778   3.706
  131OSM   C14S14050   1.075   0.024   3.852
  131OSM   H14S14051   0.995   6.788   3.842
  131OSM   H14T14052   1.028   0.123   3.866
  131OSM   C15S14053   1.170   6.834   3.969
  131OSM   H15S14054   1.254   0.066   3.958
  131OSM   H15T14055   1.212   6.734   3.944
  131OSM   C16S14056   1.106   0.001   4.100
  131OSM   H16S14057   1.068   0.105   4.116
  131OSM   H16T14058   1.181   6.824   4.180
  131OSM   C17S14059   1.002   6.730   4.128
  131OSM   H17S14060   0.941   6.715   4.037
  131OSM   H17T14061   0.924   6.757   4.203
  131OSM   C18S14062   1.074   6.604   4.171
  131OSM   H18S14063   1.008   6.517   4.192
  131OSM   H18T14064   1.139   6.620   4.260
  131OSM   H18U14065   1.145   6.574   4.091
  131OSM    C1F14066   1.253   0.769   2.783
  131OSM     OF14067   1.158   0.759   2.707
  131OSM    C2F14068   1.272   0.888   2.869
  131OSM    H2F14069   1.375   0.929   2.870
  131OSM    H2G14070   1.248   0.843   2.968
  131OSM    C3F14071   1.167   1.001   2.841
  131OSM    H3F14072   1.066   0.956   2.826
  131OSM    H3G14073   1.202   1.049   2.747
  131OSM    C4F14074   1.169   1.116   2.942
  131OSM    H4F14075   1.088   1.183   2.906
  131OSM    H4G14076   1.260   1.179   2.935
  131OSM    C5F14077   1.151   1.073   3.085
  131OSM    H5F14078   1.087   0.982   3.090
  131OSM    H5G14079   1.100   1.157   3.137
  131OSM    C6F14080   1.281   1.038   3.156
  131OSM    H6F14081   1.336   1.130   3.184
  131OSM    H6G14082   1.346   0.984   3.084
  131OSM    C7F14083   1.258   0.955   3.278
  131OSM    H7F14084   1.349   0.921   3.333
  131OSM    H7G14085   1.200   0.865   3.250
  131OSM    C8F14086   1.171   1.020   3.385
  131OSM    H8F14087   1.149   0.949   3.467
  131OSM    H8G14088   1.069   1.046   3.351
  131OSM    C9F14089   1.230   1.142   3.452
  131OSM    H9F14090   1.202   1.236   3.403
  131OSM   C10F14091   1.283   1.158   3.574
  131OSM   H10F14092   1.318   1.253   3.617
  131OSM   C11F14093   1.327   1.038   3.657
  131OSM   H11F14094   1.360   0.959   3.586
  131OSM   H11G14095   1.240   0.993   3.711
  131OSM   C12F14096   1.424   1.063   3.765
  131OSM   H12F14097   1.507   1.109   3.707
  131OSM   H12G14098   1.465   0.975   3.820
  131OSM   C13F14099   1.381   1.173   3.872
  131OSM   H13F14100   1.297   1.132   3.933
  131OSM   H13G14101   1.357   1.270   3.824
  131OSM   C14F14102   1.491   1.192   3.979
  131OSM   H14F14103   1.567   1.233   3.909
  131OSM   H14G14104   1.518   1.093   4.020
  131OSM   C15F14105   1.444   1.296   4.084
  131OSM   H15F14106   1.357   1.247   4.134
  131OSM   H15G14107   1.408   1.387   4.031
  131OSM   C16F14108   1.554   1.369   4.162
  131OSM   H16F14109   1.623   1.432   4.103
  131OSM   H16G14110   1.617   1.297   4.218
  131OSM   C17F14111   1.511   1.473   4.268
  131OSM   H17F14112   1.460   1.421   4.352
  131OSM   H17G14113   1.430   1.535   4.224
  131OSM   C18F14114   1.625   1.557   4.334
  131OSM   H18F14115   1.696   1.491   4.388
  131OSM   H18G14116   1.592   1.630   4.410
  131OSM   H18H14117   1.675   1.618   4.256
  132OSM      N14118   6.133   0.126   1.766
  132OSM    C1514119   6.217   6.840   1.731
  132OSM   H15A14120   6.251   0.000   1.629
  132OSM   H15B14121   6.163   6.748   1.741
  132OSM   H15C14122   6.296   6.817   1.801
  132OSM    C1414123   6.198   0.250   1.708
  132OSM   H14A14124   6.228   0.235   1.605
  132OSM   H14B14125   6.290   0.266   1.762
  132OSM   H14C14126   6.137   0.338   1.724
  132OSM    C1314127   5.994   0.119   1.702
  132OSM   H13A14128   5.942   0.211   1.725
  132OSM   H13B14129   5.938   0.030   1.726
  132OSM   H13C14130   6.002   0.119   1.595
  132OSM    C1214131   6.124   0.140   1.917
  132OSM   H12A14132   6.082   0.238   1.934
  132OSM   H12B14133   6.224   0.136   1.958
  132OSM    C1114134   6.045   0.030   1.991
  132OSM   H11A14135   5.948   0.000   1.945
  132OSM   H11B14136   6.022   0.077   2.089
  132OSM      P14137   6.241   6.745   2.105
  132OSM    O1314138   6.318   6.618   2.080
  132OSM    O1414139   6.313   0.031   2.096
  132OSM    O1114140   6.161   6.750   2.241
  132OSM    O1214141   6.123   6.749   2.000
  132OSM    C1S14142   6.199   6.687   2.360
  132OSM    H1S14143   6.302   6.648   2.353
  132OSM    H1T14144   6.137   6.598   2.385
  132OSM     NF14145   6.280   6.699   2.587
  132OSM    HNF14146   6.226   6.631   2.637
  132OSM    C2S14147   6.213   6.783   2.487
  132OSM    H2S14148   6.279   0.024   2.451
  132OSM    C3S14149   6.078   0.005   2.528
  132OSM    H3S14150   6.006   6.762   2.544
  132OSM     O314151   6.013   0.091   2.429
  132OSM    HO314152   6.064   0.062   2.353
  132OSM    C4S14153   6.097   0.066   2.666
  132OSM    H4S14154   6.078   0.006   2.756
  132OSM    C5S14155   6.134   0.196   2.684
  132OSM    H5S14156   6.138   0.260   2.595
  132OSM    C6S14157   6.173   0.265   2.817
  132OSM    H6S14158   6.096   0.345   2.823
  132OSM    H6T14159   6.270   0.317   2.818
  132OSM    C7S14160   6.167   0.184   2.949
  132OSM    H7S14161   6.245   0.105   2.952
  132OSM    H7T14162   6.068   0.135   2.964
  132OSM    C8S14163   6.189   0.267   3.073
  132OSM    H8S14164   6.098   0.331   3.086
  132OSM    H8T14165   6.269   0.341   3.052
  132OSM    C9S14166   6.226   0.205   3.207
  132OSM    H9S14167   6.292   0.116   3.194
  132OSM    H9T14168   6.143   0.164   3.268
  132OSM   C10S14169   6.313   0.300   3.291
  132OSM   H10S14170   6.263   0.398   3.305
  132OSM   H10T14171   6.401   0.338   3.235
  132OSM   C11S14172   6.371   0.233   3.418
  132OSM   H11S14173   6.420   0.147   3.367
  132OSM   H11T14174   6.289   0.190   3.478
  132OSM   C12S14175   6.467   0.328   3.481
  132OSM   H12S14176   6.401   0.414   3.504
  132OSM   H12T14177   6.536   0.359   3.399
  132OSM   C13S14178   6.554   0.248   3.576
  132OSM   H13S14179   6.638   0.309   3.616
  132OSM   H13T14180   6.611   0.165   3.529
  132OSM   C14S14181   6.465   0.193   3.699
  132OSM   H14S14182   6.384   0.130   3.657
  132OSM   H14T14183   6.408   0.284   3.727
  132OSM   C15S14184   6.539   0.143   3.826
  132OSM   H15S14185   6.638   0.104   3.795
  132OSM   H15T14186   6.486   0.052   3.859
  132OSM   C16S14187   6.538   0.257   3.928
  132OSM   H16S14188   6.569   0.223   4.030
  132OSM   H16T14189   6.433   0.292   3.936
  132OSM   C17S14190   6.626   0.372   3.898
  132OSM   H17S14191   6.601   0.409   3.797
  132OSM   H17T14192   6.731   0.336   3.896
  132OSM   C18S14193   6.613   0.488   4.006
  132OSM   H18S14194   6.647   0.439   4.100
  132OSM   H18T14195   6.508   0.519   4.021
  132OSM   H18U14196   6.683   0.572   3.986
  132OSM    C1F14197   6.406   6.668   2.582
  132OSM     OF14198   6.483   6.730   2.514
  132OSM    C2F14199   6.442   6.540   2.648
  132OSM    H2F14200   6.372   6.458   2.620
  132OSM    H2G14201   6.438   6.565   2.757
  132OSM    C3F14202   6.587   6.491   2.613
  132OSM    H3F14203   6.659   6.566   2.650
  132OSM    H3G14204   6.600   6.484   2.502
  132OSM    C4F14205   6.620   6.357   2.683
  132OSM    H4F14206   6.724   6.328   2.658
  132OSM    H4G14207   6.562   6.272   2.642
  132OSM    C5F14208   6.594   6.366   2.833
  132OSM    H5F14209   6.489   6.389   2.860
  132OSM    H5G14210   6.657   6.439   2.888
  132OSM    C6F14211   6.620   6.235   2.904
  132OSM    H6F14212   6.725   6.203   2.889
  132OSM    H6G14213   6.549   6.155   2.871
  132OSM    C7F14214   6.595   6.241   3.057
  132OSM    H7F14215   6.488   6.259   3.080
  132OSM    H7G14216   6.652   6.322   3.108
  132OSM    C8F14217   6.638   6.115   3.127
  132OSM    H8F14218   6.740   6.084   3.096
  132OSM    H8G14219   6.572   6.036   3.085
  132OSM    C9F14220   6.627   6.123   3.275
  132OSM    H9F14221   6.563   6.201   3.320
  132OSM   C10F14222   6.692   6.040   3.361
  132OSM   H10F14223   6.681   6.056   3.469
  132OSM   C11F14224   6.792   5.929   3.333
  132OSM   H11F14225   6.781   5.895   3.227
  132OSM   H11G14226   6.766   5.841   3.396
  132OSM   C12F14227   0.094   5.981   3.345
  132OSM   H12F14228   0.110   6.015   3.450
  132OSM   H12G14229   0.085   6.077   3.290
  132OSM   C13F14230   0.196   5.885   3.287
  132OSM   H13F14231   0.196   5.789   3.344
  132OSM   H13G14232   0.301   5.918   3.298
  132OSM   C14F14233   0.195   5.857   3.139
  132OSM   H14F14234   0.097   5.812   3.115
  132OSM   H14G14235   0.269   5.783   3.101
  132OSM   C15F14236   0.205   5.983   3.056
  132OSM   H15F14237   0.297   6.044   3.065
  132OSM   H15G14238   0.121   6.052   3.080
  132OSM   C16F14239   0.198   5.950   2.903
  132OSM   H16F14240   0.141   5.861   2.867
  132OSM   H16G14241   0.303   5.933   2.870
  132OSM   C17F14242   0.153   6.071   2.819
  132OSM   H17F14243   0.075   6.134   2.867
  132OSM   H17G14244   0.120   6.033   2.720
  132OSM   C18F14245   0.267   6.176   2.793
  132OSM   H18F14246   0.290   6.224   2.890
  132OSM   H18G14247   0.234   6.254   2.721
  132OSM   H18H14248   0.361   6.131   2.754
  133OSM      N14249   4.625   3.028   1.915
  133OSM    C1514250   4.555   3.159   1.949
  133OSM   H15A14251   4.507   3.210   1.867
  133OSM   H15B14252   4.624   3.226   1.998
  133OSM   H15C14253   4.475   3.134   2.018
  133OSM    C1414254   4.525   2.951   1.828
  133OSM   H14A14255   4.579   2.869   1.782
  133OSM   H14B14256   4.488   3.005   1.742
  133OSM   H14C14257   4.439   2.913   1.880
  133OSM    C1314258   4.753   3.066   1.839
  133OSM   H13A14259   4.797   2.985   1.782
  133OSM   H13B14260   4.828   3.113   1.900
  133OSM   H13C14261   4.731   3.160   1.792
  133OSM    C1214262   4.661   2.936   2.030
  133OSM   H12A14263   4.570   2.934   2.087
  133OSM   H12B14264   4.740   2.974   2.093
  133OSM    C1114265   4.716   2.798   1.994
  133OSM   H11A14266   4.645   2.755   1.921
  133OSM   H11B14267   4.719   2.731   2.083
  133OSM      P14268   4.968   2.768   2.009
  133OSM    O1314269   4.943   2.625   2.052
  133OSM    O1414270   5.097   2.788   1.937
  133OSM    O1114271   4.957   2.856   2.138
  133OSM    O1214272   4.845   2.808   1.928
  133OSM    C1S14273   4.924   2.804   2.263
  133OSM    H1S14274   4.990   2.721   2.297
  133OSM    H1T14275   4.820   2.766   2.276
  133OSM     NF14276   4.907   2.865   2.509
  133OSM    HNF14277   4.816   2.884   2.547
  133OSM    C2S14278   4.937   2.918   2.375
  133OSM    H2S14279   5.040   2.959   2.376
  133OSM    C3S14280   4.838   3.035   2.335
  133OSM    H3S14281   4.738   2.988   2.323
  133OSM     O314282   4.863   3.100   2.209
  133OSM    HO314283   4.912   3.036   2.158
  133OSM    C4S14284   4.824   3.147   2.443
  133OSM    H4S14285   4.918   3.175   2.493
  133OSM    C5S14286   4.712   3.186   2.510
  133OSM    H5S14287   4.616   3.136   2.490
  133OSM    C6S14288   4.708   3.268   2.634
  133OSM    H6S14289   4.621   3.336   2.637
  133OSM    H6T14290   4.797   3.334   2.628
  133OSM    C7S14291   4.714   3.183   2.767
  133OSM    H7S14292   4.803   3.117   2.752
  133OSM    H7T14293   4.619   3.126   2.777
  133OSM    C8S14294   4.746   3.264   2.895
  133OSM    H8S14295   4.662   3.328   2.928
  133OSM    H8T14296   4.842   3.320   2.892
  133OSM    C9S14297   4.756   3.174   3.017
  133OSM    H9S14298   4.850   3.116   3.006
  133OSM    H9T14299   4.668   3.107   3.006
  133OSM   C10S14300   4.749   3.251   3.157
  133OSM   H10S14301   4.652   3.306   3.155
  133OSM   H10T14302   4.835   3.321   3.169
  133OSM   C11S14303   4.770   3.160   3.274
  133OSM   H11S14304   4.786   3.230   3.358
  133OSM   H11T14305   4.866   3.104   3.261
  133OSM   C12S14306   4.649   3.071   3.302
  133OSM   H12S14307   4.643   2.988   3.229
  133OSM   H12T14308   4.557   3.133   3.296
  133OSM   C13S14309   4.657   3.009   3.443
  133OSM   H13S14310   4.755   2.957   3.452
  133OSM   H13T14311   4.588   2.922   3.457
  133OSM   C14S14312   4.626   3.111   3.550
  133OSM   H14S14313   4.526   3.160   3.540
  133OSM   H14T14314   4.701   3.192   3.539
  133OSM   C15S14315   4.617   3.062   3.696
  133OSM   H15S14316   4.671   2.966   3.700
  133OSM   H15T14317   4.510   3.032   3.706
  133OSM   C16S14318   4.668   3.151   3.812
  133OSM   H16S14319   4.650   3.097   3.907
  133OSM   H16T14320   4.603   3.241   3.819
  133OSM   C17S14321   4.812   3.182   3.797
  133OSM   H17S14322   4.824   3.288   3.764
  133OSM   H17T14323   4.857   3.124   3.715
  133OSM   C18S14324   4.893   3.152   3.922
  133OSM   H18S14325   4.876   3.059   3.981
  133OSM   H18T14326   4.882   3.235   3.994
  133OSM   H18U14327   4.999   3.158   3.892
  133OSM    C1F14328   4.997   2.782   2.566
  133OSM     OF14329   5.109   2.770   2.511
  133OSM    C2F14330   4.962   2.721   2.695
  133OSM    H2F14331   4.916   2.623   2.671
  133OSM    H2G14332   4.881   2.781   2.742
  133OSM    C3F14333   5.077   2.701   2.792
  133OSM    H3F14334   5.137   2.795   2.796
  133OSM    H3G14335   5.143   2.621   2.753
  133OSM    C4F14336   5.029   2.657   2.929
  133OSM    H4F14337   5.113   2.610   2.984
  133OSM    H4G14338   4.947   2.582   2.919
  133OSM    C5F14339   4.963   2.765   3.018
  133OSM    H5F14340   4.998   2.866   2.985
  133OSM    H5G14341   5.006   2.749   3.120
  133OSM    C6F14342   4.808   2.755   3.026
  133OSM    H6F14343   4.770   2.742   2.922
  133OSM    H6G14344   4.766   2.854   3.053
  133OSM    C7F14345   4.743   2.648   3.112
  133OSM    H7F14346   4.789   2.548   3.093
  133OSM    H7G14347   4.637   2.650   3.078
  133OSM    C8F14348   4.756   2.686   3.266
  133OSM    H8F14349   4.714   2.787   3.282
  133OSM    H8G14350   4.863   2.693   3.295
  133OSM    C9F14351   4.692   2.587   3.354
  133OSM    H9F14352   4.588   2.569   3.320
  133OSM   C10F14353   4.746   2.527   3.463
  133OSM   H10F14354   4.683   2.468   3.531
  133OSM   C11F14355   4.884   2.550   3.516
  133OSM   H11F14356   4.905   2.659   3.502
  133OSM   H11G14357   4.950   2.490   3.449
  133OSM   C12F14358   4.895   2.518   3.666
  133OSM   H12F14359   4.796   2.525   3.716
  133OSM   H12G14360   4.966   2.591   3.711
  133OSM   C13F14361   4.931   2.372   3.680
  133OSM   H13F14362   5.038   2.361   3.653
  133OSM   H13G14363   4.854   2.314   3.625
  133OSM   C14F14364   4.920   2.312   3.833
  133OSM   H14F14365   4.957   2.207   3.827
  133OSM   H14G14366   4.810   2.310   3.845
  133OSM   C15F14367   4.984   2.398   3.942
  133OSM   H15F14368   4.956   2.506   3.935
  133OSM   H15G14369   5.094   2.384   3.931
  133OSM   C16F14370   4.934   2.349   4.076
  133OSM   H16F14371   4.950   2.240   4.070
  133OSM   H16G14372   4.823   2.363   4.079
  133OSM   C17F14373   4.987   2.436   4.197
  133OSM   H17F14374   5.097   2.446   4.211
  133OSM   H17G14375   4.955   2.368   4.279
  133OSM   C18F14376   4.926   2.573   4.215
  133OSM   H18F14377   4.941   2.638   4.126
  133OSM   H18G14378   4.974   2.629   4.298
  133OSM   H18H14379   4.818   2.569   4.241
  134OSM      N14380   5.489   5.340   1.965
  134OSM    C1514381   5.597   5.249   1.924
  134OSM   H15A14382   5.574   5.214   1.824
  134OSM   H15B14383   5.591   5.151   1.969
  134OSM   H15C14384   5.694   5.297   1.923
  134OSM    C1414385   5.516   5.393   2.110
  134OSM   H14A14386   5.491   5.318   2.183
  134OSM   H14B14387   5.458   5.478   2.141
  134OSM   H14C14388   5.620   5.423   2.117
  134OSM    C1314389   5.485   5.467   1.878
  134OSM   H13A14390   5.569   5.530   1.903
  134OSM   H13B14391   5.385   5.507   1.882
  134OSM   H13C14392   5.500   5.431   1.777
  134OSM    C1214393   5.356   5.266   1.962
  134OSM   H12A14394   5.365   5.168   2.006
  134OSM   H12B14395   5.338   5.248   1.857
  134OSM    C1114396   5.230   5.338   2.021
  134OSM   H11A14397   5.245   5.338   2.131
  134OSM   H11B14398   5.139   5.277   2.004
  134OSM      P14399   5.111   5.568   2.059
  134OSM    O1314400   5.148   5.706   2.035
  134OSM    O1414401   4.967   5.528   2.043
  134OSM    O1114402   5.156   5.525   2.204
  134OSM    O1214403   5.206   5.470   1.974
  134OSM    C1S14404   5.112   5.581   2.329
  134OSM    H1S14405   5.020   5.522   2.343
  134OSM    H1T14406   5.091   5.690   2.320
  134OSM     NF14407   5.151   5.560   2.567
  134OSM    HNF14408   5.187   5.641   2.613
  134OSM    C2S14409   5.210   5.540   2.437
  134OSM    H2S14410   5.244   5.434   2.433
  134OSM    C3S14411   5.344   5.618   2.419
  134OSM    H3S14412   5.319   5.724   2.441
  134OSM     O314413   5.390   5.611   2.285
  134OSM    HO314414   5.315   5.564   2.247
  134OSM    C4S14415   5.451   5.570   2.519
  134OSM    H4S14416   5.463   5.625   2.613
  134OSM    C5S14417   5.531   5.460   2.504
  134OSM    H5S14418   5.523   5.393   2.417
  134OSM    C6S14419   5.635   5.416   2.610
  134OSM    H6S14420   5.645   5.492   2.691
  134OSM    H6T14421   5.729   5.387   2.559
  134OSM    C7S14422   5.569   5.300   2.682
  134OSM    H7S14423   5.553   5.216   2.610
  134OSM    H7T14424   5.473   5.318   2.734
  134OSM    C8S14425   5.657   5.256   2.800
  134OSM    H8S14426   5.615   5.160   2.839
  134OSM    H8T14427   5.650   5.324   2.887
  134OSM    C9S14428   5.794   5.203   2.758
  134OSM    H9S14429   5.795   5.154   2.659
  134OSM    H9T14430   5.807   5.109   2.815
  134OSM   C10S14431   5.907   5.301   2.784
  134OSM   H10S14432   5.893   5.398   2.731
  134OSM   H10T14433   5.999   5.263   2.735
  134OSM   C11S14434   5.937   5.350   2.928
  134OSM   H11S14435   5.858   5.424   2.952
  134OSM   H11T14436   6.025   5.417   2.932
  134OSM   C12S14437   5.934   5.246   3.045
  134OSM   H12S14438   6.021   5.176   3.042
  134OSM   H12T14439   5.841   5.187   3.030
  134OSM   C13S14440   5.924   5.322   3.185
  134OSM   H13S14441   5.836   5.389   3.178
  134OSM   H13T14442   6.015   5.386   3.197
  134OSM   C14S14443   5.911   5.228   3.307
  134OSM   H14S14444   5.979   5.141   3.309
  134OSM   H14T14445   5.814   5.178   3.292
  134OSM   C15S14446   5.919   5.311   3.440
  134OSM   H15S14447   5.928   5.237   3.523
  134OSM   H15T14448   5.823   5.365   3.456
  134OSM   C16S14449   6.036   5.400   3.459
  134OSM   H16S14450   6.018   5.489   3.395
  134OSM   H16T14451   6.126   5.345   3.423
  134OSM   C17S14452   6.039   5.458   3.607
  134OSM   H17S14453   5.932   5.472   3.632
  134OSM   H17T14454   6.082   5.560   3.617
  134OSM   C18S14455   6.090   5.365   3.715
  134OSM   H18S14456   6.195   5.336   3.693
  134OSM   H18T14457   6.037   5.267   3.712
  134OSM   H18U14458   6.090   5.407   3.817
  134OSM    C1F14459   5.042   5.508   2.607
  134OSM     OF14460   5.003   5.405   2.555
  134OSM    C2F14461   4.966   5.578   2.709
  134OSM    H2F14462   4.908   5.664   2.669
  134OSM    H2G14463   5.035   5.619   2.786
  134OSM    C3F14464   4.860   5.490   2.780
  134OSM    H3F14465   4.911   5.401   2.823
  134OSM    H3G14466   4.788   5.448   2.706
  134OSM    C4F14467   4.764   5.559   2.871
  134OSM    H4F14468   4.695   5.489   2.923
  134OSM    H4G14469   4.711   5.642   2.820
  134OSM    C5F14470   4.841   5.623   2.981
  134OSM    H5F14471   4.870   5.729   2.967
  134OSM    H5G14472   4.934   5.565   2.999
  134OSM    C6F14473   4.766   5.587   3.110
  134OSM    H6F14474   4.765   5.476   3.117
  134OSM    H6G14475   4.661   5.623   3.102
  134OSM    C7F14476   4.822   5.649   3.233
  134OSM    H7F14477   4.832   5.759   3.223
  134OSM    H7G14478   4.920   5.607   3.262
  134OSM    C8F14479   4.725   5.627   3.357
  134OSM    H8F14480   4.628   5.667   3.321
  134OSM    H8G14481   4.767   5.694   3.435
  134OSM    C9F14482   4.721   5.481   3.390
  134OSM    H9F14483   4.696   5.423   3.299
  134OSM   C10F14484   4.759   5.425   3.510
  134OSM   H10F14485   4.750   5.315   3.517
  134OSM   C11F14486   4.814   5.492   3.628
  134OSM   H11F14487   4.852   5.595   3.608
  134OSM   H11G14488   4.909   5.441   3.655
  134OSM   C12F14489   4.721   5.476   3.752
  134OSM   H12F14490   4.786   5.489   3.842
  134OSM   H12G14491   4.667   5.379   3.755
  134OSM   C13F14492   4.611   5.586   3.767
  134OSM   H13F14493   4.553   5.590   3.673
  134OSM   H13G14494   4.656   5.688   3.779
  134OSM   C14F14495   4.501   5.560   3.872
  134OSM   H14F14496   4.454   5.463   3.845
  134OSM   H14G14497   4.431   5.642   3.898
  134OSM   C15F14498   4.560   5.540   4.013
  134OSM   H15F14499   4.610   5.636   4.039
  134OSM   H15G14500   4.630   5.455   4.029
  134OSM   C16F14501   4.443   5.529   4.114
  134OSM   H16F14502   4.381   5.439   4.095
  134OSM   H16G14503   4.382   5.621   4.126
  134OSM   C17F14504   4.503   5.503   4.261
  134OSM   H17F14505   4.552   5.404   4.259
  134OSM   H17G14506   4.417   5.501   4.331
  134OSM   C18F14507   4.598   5.620   4.315
  134OSM   H18F14508   4.553   5.719   4.294
  134OSM   H18G14509   4.697   5.624   4.265
  134OSM   H18H14510   4.623   5.600   4.422
  135OSM      N14511   0.486   1.054   1.982
  135OSM    C1514512   0.546   0.942   1.913
  135OSM   H15A14513   0.603   0.982   1.831
  135OSM   H15B14514   0.468   0.885   1.864
  135OSM   H15C14515   0.604   0.880   1.980
  135OSM    C1414516   0.589   1.146   2.030
  135OSM   H14A14517   0.662   1.093   2.089
  135OSM   H14B14518   0.535   1.222   2.084
  135OSM   H14C14519   0.636   1.185   1.941
  135OSM    C1314520   0.410   1.131   1.886
  135OSM   H13A14521   0.332   1.065   1.851
  135OSM   H13B14522   0.462   1.171   1.801
  135OSM   H13C14523   0.349   1.205   1.936
  135OSM    C1214524   0.409   1.003   2.100
  135OSM   H12A14525   0.382   1.087   2.161
  135OSM   H12B14526   0.484   0.959   2.163
  135OSM    C1114527   0.296   0.899   2.077
  135OSM   H11A14528   0.255   0.878   2.178
  135OSM   H11B14529   0.343   0.803   2.047
  135OSM      P14530   0.094   1.050   2.012
  135OSM    O1314531   0.092   1.125   1.886
  135OSM    O1414532   6.800   0.997   2.051
  135OSM    O1114533   0.162   1.137   2.127
  135OSM    O1214534   0.195   0.935   1.988
  135OSM    C1S14535   0.088   1.158   2.248
  135OSM    H1S14536   0.062   1.061   2.296
  135OSM    H1T14537   0.001   1.222   2.223
  135OSM     NF14538   0.123   1.257   2.475
  135OSM    HNF14539   0.088   1.349   2.486
  135OSM    C2S14540   0.178   1.239   2.347
  135OSM    H2S14541   0.270   1.178   2.357
  135OSM    C3S14542   0.233   1.364   2.275
  135OSM    H3S14543   0.155   1.435   2.241
  135OSM     O314544   0.316   1.339   2.160
  135OSM    HO314545   0.294   1.253   2.121
  135OSM    C4S14546   0.338   1.431   2.356
  135OSM    H4S14547   0.410   1.355   2.391
  135OSM    C5S14548   0.348   1.555   2.407
  135OSM    H5S14549   0.281   1.633   2.368
  135OSM    C6S14550   0.445   1.593   2.522
  135OSM    H6S14551   0.392   1.680   2.566
  135OSM    H6T14552   0.536   1.638   2.477
  135OSM    C7S14553   0.462   1.495   2.637
  135OSM    H7S14554   0.534   1.537   2.710
  135OSM    H7T14555   0.510   1.405   2.594
  135OSM    C8S14556   0.342   1.486   2.725
  135OSM    H8S14557   0.269   1.417   2.677
  135OSM    H8T14558   0.288   1.580   2.750
  135OSM    C9S14559   0.389   1.405   2.851
  135OSM    H9S14560   0.463   1.461   2.913
  135OSM    H9T14561   0.429   1.308   2.815
  135OSM   C10S14562   0.281   1.369   2.953
  135OSM   H10S14563   0.210   1.304   2.897
  135OSM   H10T14564   0.233   1.463   2.990
  135OSM   C11S14565   0.357   1.318   3.078
  135OSM   H11S14566   0.436   1.390   3.109
  135OSM   H11T14567   0.403   1.219   3.060
  135OSM   C12S14568   0.263   1.313   3.198
  135OSM   H12S14569   0.177   1.250   3.165
  135OSM   H12T14570   0.222   1.414   3.218
  135OSM   C13S14571   0.309   1.260   3.331
  135OSM   H13S14572   0.338   1.153   3.320
  135OSM   H13T14573   0.224   1.260   3.402
  135OSM   C14S14574   0.421   1.345   3.382
  135OSM   H14S14575   0.395   1.453   3.390
  135OSM   H14T14576   0.518   1.334   3.330
  135OSM   C15S14577   0.463   1.303   3.525
  135OSM   H15S14578   0.555   1.243   3.540
  135OSM   H15T14579   0.379   1.236   3.551
  135OSM   C16S14580   0.481   1.419   3.617
  135OSM   H16S14581   0.413   1.502   3.588
  135OSM   H16T14582   0.590   1.441   3.610
  135OSM   C17S14583   0.470   1.375   3.759
  135OSM   H17S14584   0.547   1.305   3.797
  135OSM   H17T14585   0.371   1.328   3.777
  135OSM   C18S14586   0.475   1.491   3.865
  135OSM   H18S14587   0.380   1.475   3.921
  135OSM   H18T14588   0.474   1.593   3.822
  135OSM   H18U14589   0.555   1.492   3.942
  135OSM    C1F14590   0.096   1.158   2.560
  135OSM     OF14591   0.117   1.042   2.524
  135OSM    C2F14592   0.007   1.187   2.671
  135OSM    H2F14593   6.741   1.188   2.639
  135OSM    H2G14594   0.028   1.292   2.699
  135OSM    C3F14595   0.031   1.084   2.788
  135OSM    H3F14596   0.134   1.092   2.830
  135OSM    H3G14597   0.029   0.978   2.755
  135OSM    C4F14598   6.776   1.099   2.902
  135OSM    H4F14599   6.676   1.061   2.872
  135OSM    H4G14600   6.755   1.204   2.933
  135OSM    C5F14601   6.831   1.028   3.031
  135OSM    H5F14602   0.075   1.097   3.053
  135OSM    H5G14603   0.016   0.921   3.022
  135OSM    C6F14604   6.737   1.054   3.150
  135OSM    H6F14605   6.634   1.017   3.135
  135OSM    H6G14606   6.724   1.164   3.159
  135OSM    C7F14607   6.799   0.996   3.272
  135OSM    H7F14608   0.057   1.045   3.284
  135OSM    H7G14609   6.818   0.887   3.262
  135OSM    C8F14610   6.725   1.025   3.406
  135OSM    H8F14611   6.782   0.969   3.483
  135OSM    H8G14612   6.626   0.976   3.396
  135OSM    C9F14613   6.724   1.170   3.459
  135OSM    H9F14614   6.653   1.233   3.405
  135OSM   C10F14615   6.801   1.219   3.562
  135OSM   H10F14616   6.790   1.325   3.589
  135OSM   C11F14617   0.062   1.150   3.653
  135OSM   H11F14618   0.158   1.188   3.612
  135OSM   H11G14619   0.068   1.039   3.650
  135OSM   C12F14620   0.050   1.211   3.797
  135OSM   H12F14621   0.128   1.170   3.864
  135OSM   H12G14622   6.791   1.185   3.838
  135OSM   C13F14623   0.070   1.368   3.807
  135OSM   H13F14624   6.831   1.412   3.743
  135OSM   H13G14625   0.161   1.402   3.753
  135OSM   C14F14626   0.064   1.425   3.942
  135OSM   H14F14627   0.161   1.439   3.993
  135OSM   H14G14628   0.002   1.352   3.998
  135OSM   C15F14629   6.827   1.557   3.945
  135OSM   H15F14630   6.733   1.521   3.897
  135OSM   H15G14631   0.032   1.640   3.888
  135OSM   C16F14632   6.800   1.591   4.095
  135OSM   H16F14633   0.059   1.605   4.142
  135OSM   H16G14634   6.749   1.508   4.148
  135OSM   C17F14635   6.717   1.727   4.112
  135OSM   H17F14636   6.637   1.737   4.036
  135OSM   H17G14637   6.784   1.815   4.108
  135OSM   C18F14638   6.634   1.728   4.241
  135OSM   H18F14639   6.590   1.827   4.267
  135OSM   H18G14640   6.703   1.699   4.323
  135OSM   H18H14641   6.549   1.657   4.238
  136OSM      N14642   2.235   4.451   1.694
  136OSM    C1514643   2.094   4.405   1.720
  136OSM   H15A14644   2.052   4.454   1.806
  136OSM   H15B14645   2.085   4.299   1.733
  136OSM   H15C14646   2.036   4.438   1.635
  136OSM    C1414647   2.282   4.402   1.566
  136OSM   H14A14648   2.264   4.296   1.552
  136OSM   H14B14649   2.388   4.413   1.548
  136OSM   H14C14650   2.232   4.449   1.483
  136OSM    C1314651   2.243   4.605   1.695
  136OSM   H13A14652   2.223   4.629   1.798
  136OSM   H13B14653   2.173   4.644   1.622
  136OSM   H13C14654   2.335   4.637   1.649
  136OSM    C1214655   2.327   4.398   1.801
  136OSM   H12A14656   2.431   4.390   1.770
  136OSM   H12B14657   2.302   4.295   1.820
  136OSM    C1114658   2.334   4.468   1.940
  136OSM   H11A14659   2.393   4.394   1.999
  136OSM   H11B14660   2.240   4.481   1.997
  136OSM      P14661   2.552   4.585   1.944
  136OSM    O1314662   2.596   4.482   1.852
  136OSM    O1414663   2.592   4.721   1.918
  136OSM    O1114664   2.572   4.553   2.098
  136OSM    O1214665   2.392   4.593   1.931
  136OSM    C1S14666   2.495   4.643   2.190
  136OSM    H1S14667   2.390   4.607   2.196
  136OSM    H1T14668   2.484   4.747   2.152
  136OSM     NF14669   2.487   4.746   2.418
  136OSM    HNF14670   2.539   4.820   2.461
  136OSM    C2S14671   2.562   4.652   2.336
  136OSM    H2S14672   2.546   4.552   2.383
  136OSM    C3S14673   2.713   4.688   2.322
  136OSM    H3S14674   2.724   4.793   2.287
  136OSM     O314675   2.787   4.616   2.228
  136OSM    HO314676   2.723   4.567   2.176
  136OSM    C4S14677   2.773   4.697   2.459
  136OSM    H4S14678   2.785   4.799   2.499
  136OSM    C5S14679   2.824   4.588   2.532
  136OSM    H5S14680   2.825   4.483   2.499
  136OSM    C6S14681   2.875   4.603   2.670
  136OSM    H6S14682   2.894   4.708   2.701
  136OSM    H6T14683   2.974   4.554   2.681
  136OSM    C7S14684   2.776   4.530   2.765
  136OSM    H7S14685   2.774   4.421   2.745
  136OSM    H7T14686   2.671   4.564   2.755
  136OSM    C8S14687   2.825   4.529   2.906
  136OSM    H8S14688   2.861   4.629   2.936
  136OSM    H8T14689   2.908   4.458   2.925
  136OSM    C9S14690   2.710   4.498   3.011
  136OSM    H9S14691   2.685   4.391   2.999
  136OSM    H9T14692   2.626   4.566   2.986
  136OSM   C10S14693   2.759   4.530   3.159
  136OSM   H10S14694   2.800   4.633   3.159
  136OSM   H10T14695   2.848   4.467   3.178
  136OSM   C11S14696   2.672   4.515   3.280
  136OSM   H11S14697   2.622   4.416   3.279
  136OSM   H11T14698   2.589   4.589   3.288
  136OSM   C12S14699   2.750   4.520   3.420
  136OSM   H12S14700   2.766   4.628   3.436
  136OSM   H12T14701   2.852   4.476   3.416
  136OSM   C13S14702   2.672   4.458   3.534
  136OSM   H13S14703   2.684   4.349   3.520
  136OSM   H13T14704   2.565   4.487   3.526
  136OSM   C14S14705   2.726   4.513   3.668
  136OSM   H14S14706   2.729   4.624   3.665
  136OSM   H14T14707   2.824   4.472   3.700
  136OSM   C15S14708   2.627   4.483   3.786
  136OSM   H15S14709   2.647   4.387   3.837
  136OSM   H15T14710   2.522   4.476   3.750
  136OSM   C16S14711   2.634   4.597   3.892
  136OSM   H16S14712   2.593   4.685   3.837
  136OSM   H16T14713   2.733   4.601   3.943
  136OSM   C17S14714   2.545   4.573   4.016
  136OSM   H17S14715   2.461   4.503   3.996
  136OSM   H17T14716   2.499   4.672   4.038
  136OSM   C18S14717   2.632   4.527   4.140
  136OSM   H18S14718   2.565   4.485   4.219
  136OSM   H18T14719   2.691   4.615   4.174
  136OSM   H18U14720   2.698   4.443   4.111
  136OSM    C1F14721   2.352   4.740   2.445
  136OSM     OF14722   2.288   4.638   2.418
  136OSM    C2F14723   2.292   4.857   2.499
  136OSM    H2F14724   2.261   4.923   2.415
  136OSM    H2G14725   2.367   4.922   2.549
  136OSM    C3F14726   2.175   4.839   2.606
  136OSM    H3F14727   2.089   4.784   2.563
  136OSM    H3G14728   2.145   4.943   2.634
  136OSM    C4F14729   2.221   4.786   2.743
  136OSM    H4F14730   2.290   4.862   2.787
  136OSM    H4G14731   2.288   4.700   2.720
  136OSM    C5F14732   2.104   4.757   2.835
  136OSM    H5F14733   2.023   4.704   2.780
  136OSM    H5G14734   2.057   4.848   2.878
  136OSM    C6F14735   2.158   4.660   2.948
  136OSM    H6F14736   2.261   4.699   2.965
  136OSM    H6G14737   2.169   4.559   2.903
  136OSM    C7F14738   2.077   4.669   3.077
  136OSM    H7F14739   1.967   4.655   3.064
  136OSM    H7G14740   2.094   4.772   3.115
  136OSM    C8F14741   2.120   4.569   3.185
  136OSM    H8F14742   2.112   4.465   3.146
  136OSM    H8G14743   2.047   4.557   3.267
  136OSM    C9F14744   2.263   4.585   3.243
  136OSM    H9F14745   2.339   4.556   3.169
  136OSM   C10F14746   2.297   4.619   3.365
  136OSM   H10F14747   2.404   4.630   3.388
  136OSM   C11F14748   2.211   4.649   3.485
  136OSM   H11F14749   2.158   4.559   3.524
  136OSM   H11G14750   2.128   4.720   3.465
  136OSM   C12F14751   2.280   4.698   3.615
  136OSM   H12F14752   2.351   4.776   3.582
  136OSM   H12G14753   2.333   4.610   3.658
  136OSM   C13F14754   2.188   4.762   3.713
  136OSM   H13F14755   2.112   4.688   3.744
  136OSM   H13G14756   2.127   4.840   3.663
  136OSM   C14F14757   2.255   4.803   3.843
  136OSM   H14F14758   2.356   4.838   3.813
  136OSM   H14G14759   2.273   4.719   3.914
  136OSM   C15F14760   2.185   4.916   3.924
  136OSM   H15F14761   2.076   4.906   3.945
  136OSM   H15G14762   2.174   5.003   3.855
  136OSM   C16F14763   2.265   4.944   4.050
  136OSM   H16F14764   2.242   5.048   4.079
  136OSM   H16G14765   2.369   4.964   4.017
  136OSM   C17F14766   2.260   4.840   4.158
  136OSM   H17F14767   2.333   4.848   4.241
  136OSM   H17G14768   2.279   4.740   4.113
  136OSM   C18F14769   2.116   4.844   4.229
  136OSM   H18F14770   2.082   4.948   4.250
  136OSM   H18G14771   2.117   4.791   4.327
  136OSM   H18H14772   2.038   4.804   4.161
  137OSM      N14773   0.966   2.007   1.743
  137OSM    C1514774   1.105   2.060   1.737
  137OSM   H15A14775   1.129   2.115   1.826
  137OSM   H15B14776   1.119   2.123   1.650
  137OSM   H15C14777   1.181   1.984   1.727
  137OSM    C1414778   0.875   2.125   1.724
  137OSM   H14A14779   0.861   2.161   1.623
  137OSM   H14B14780   0.918   2.206   1.781
  137OSM   H14C14781   0.776   2.112   1.766
  137OSM    C1314782   0.949   1.911   1.625
  137OSM   H13A14783   0.974   1.949   1.527
  137OSM   H13B14784   0.846   1.878   1.622
  137OSM   H13C14785   1.010   1.824   1.643
  137OSM    C1214786   0.941   1.934   1.875
  137OSM   H12A14787   1.026   1.872   1.901
  137OSM   H12B14788   0.859   1.865   1.860
  137OSM    C1114789   0.913   2.017   2.004
  137OSM   H11A14790   0.902   1.940   2.083
  137OSM   H11B14791   0.807   2.043   1.986
  137OSM      P14792   1.137   2.108   2.087
  137OSM    O1314793   1.172   1.971   2.042
  137OSM    O1414794   1.229   2.217   2.042
  137OSM    O1114795   1.117   2.103   2.243
  137OSM    O1214796   0.988   2.135   2.036
  137OSM    C1S14797   0.992   2.105   2.314
  137OSM    H1S14798   0.958   2.001   2.333
  137OSM    H1T14799   0.915   2.163   2.259
  137OSM     NF14800   0.891   2.168   2.531
  137OSM    HNF14801   0.847   2.257   2.545
  137OSM    C2S14802   1.011   2.166   2.456
  137OSM    H2S14803   1.081   2.099   2.509
  137OSM    C3S14804   1.077   2.312   2.450
  137OSM    H3S14805   1.014   2.380   2.389
  137OSM     O314806   1.192   2.325   2.371
  137OSM    HO314807   1.198   2.244   2.321
  137OSM    C4S14808   1.108   2.372   2.584
  137OSM    H4S14809   1.202   2.343   2.633
  137OSM    C5S14810   1.035   2.466   2.642
  137OSM    H5S14811   0.944   2.503   2.592
  137OSM    C6S14812   1.075   2.523   2.777
  137OSM    H6S14813   1.050   2.630   2.761
  137OSM    H6T14814   1.183   2.511   2.799
  137OSM    C7S14815   0.995   2.456   2.891
  137OSM    H7S14816   0.999   2.345   2.891
  137OSM    H7T14817   0.890   2.483   2.867
  137OSM    C8S14818   1.031   2.508   3.025
  137OSM    H8S14819   1.036   2.619   3.033
  137OSM    H8T14820   1.135   2.471   3.037
  137OSM    C9S14821   0.944   2.454   3.137
  137OSM    H9S14822   0.943   2.343   3.128
  137OSM    H9T14823   0.838   2.487   3.141
  137OSM   C10S14824   1.000   2.484   3.281
  137OSM   H10S14825   0.992   2.592   3.305
  137OSM   H10T14826   1.107   2.456   3.274
  137OSM   C11S14827   0.941   2.387   3.391
  137OSM   H11S14828   0.968   2.283   3.364
  137OSM   H11T14829   0.831   2.382   3.376
  137OSM   C12S14830   0.992   2.419   3.533
  137OSM   H12S14831   1.103   2.416   3.536
  137OSM   H12T14832   0.962   2.338   3.602
  137OSM   C13S14833   0.948   2.556   3.584
  137OSM   H13S14834   0.851   2.583   3.536
  137OSM   H13T14835   1.015   2.639   3.554
  137OSM   C14S14836   0.918   2.576   3.734
  137OSM   H14S14837   0.824   2.528   3.769
  137OSM   H14T14838   0.905   2.685   3.754
  137OSM   C15S14839   1.024   2.518   3.838
  137OSM   H15S14840   1.118   2.573   3.819
  137OSM   H15T14841   1.033   2.411   3.808
  137OSM   C16S14842   0.981   2.542   3.985
  137OSM   H16S14843   0.948   2.447   4.033
  137OSM   H16T14844   0.886   2.599   3.978
  137OSM   C17S14845   1.089   2.621   4.072
  137OSM   H17S14846   1.092   2.725   4.035
  137OSM   H17T14847   1.183   2.562   4.067
  137OSM   C18S14848   1.061   2.617   4.224
  137OSM   H18S14849   1.065   2.513   4.262
  137OSM   H18T14850   0.960   2.657   4.248
  137OSM   H18U14851   1.136   2.680   4.276
  137OSM    C1F14852   0.836   2.059   2.570
  137OSM     OF14853   0.899   1.953   2.559
  137OSM    C2F14854   0.689   2.050   2.605
  137OSM    H2F14855   0.636   1.967   2.554
  137OSM    H2G14856   0.636   2.141   2.568
  137OSM    C3F14857   0.654   2.031   2.754
  137OSM    H3F14858   0.700   1.934   2.784
  137OSM    H3G14859   0.547   2.007   2.774
  137OSM    C4F14860   0.704   2.143   2.849
  137OSM    H4F14861   0.693   2.236   2.790
  137OSM    H4G14862   0.814   2.137   2.863
  137OSM    C5F14863   0.626   2.144   2.977
  137OSM    H5F14864   0.686   2.192   3.057
  137OSM    H5G14865   0.621   2.042   3.021
  137OSM    C6F14866   0.481   2.206   2.958
  137OSM    H6F14867   0.434   2.140   2.882
  137OSM    H6G14868   0.490   2.308   2.917
  137OSM    C7F14869   0.383   2.205   3.077
  137OSM    H7F14870   0.392   2.120   3.147
  137OSM    H7G14871   0.281   2.198   3.035
  137OSM    C8F14872   0.381   2.342   3.151
  137OSM    H8F14873   0.293   2.337   3.217
  137OSM    H8G14874   0.375   2.432   3.086
  137OSM    C9F14875   0.508   2.359   3.231
  137OSM    H9F14876   0.598   2.375   3.169
  137OSM   C10F14877   0.523   2.356   3.363
  137OSM   H10F14878   0.622   2.369   3.409
  137OSM   C11F14879   0.419   2.327   3.463
  137OSM   H11F14880   0.317   2.340   3.421
  137OSM   H11G14881   0.435   2.403   3.542
  137OSM   C12F14882   0.446   2.180   3.523
  137OSM   H12F14883   0.439   2.105   3.441
  137OSM   H12G14884   0.371   2.163   3.603
  137OSM   C13F14885   0.584   2.175   3.593
  137OSM   H13F14886   0.596   2.265   3.656
  137OSM   H13G14887   0.676   2.167   3.531
  137OSM   C14F14888   0.608   2.057   3.692
  137OSM   H14F14889   0.584   1.964   3.636
  137OSM   H14G14890   0.540   2.062   3.781
  137OSM   C15F14891   0.758   2.048   3.745
  137OSM   H15F14892   0.830   2.031   3.662
  137OSM   H15G14893   0.759   1.948   3.795
  137OSM   C16F14894   0.806   2.149   3.852
  137OSM   H16F14895   0.797   2.257   3.825
  137OSM   H16G14896   0.914   2.130   3.869
  137OSM   C17F14897   0.743   2.123   3.994
  137OSM   H17F14898   0.742   2.016   4.023
  137OSM   H17G14899   0.632   2.128   3.991
  137OSM   C18F14900   0.792   2.210   4.108
  137OSM   H18F14901   0.902   2.195   4.118
  137OSM   H18G14902   0.752   2.172   4.204
  137OSM   H18H14903   0.764   2.318   4.111
  138OSM      N14904   5.660   6.278   2.122
  138OSM    C1514905   5.618   6.351   2.255
  138OSM   H15A14906   5.510   6.348   2.260
  138OSM   H15B14907   5.655   6.453   2.254
  138OSM   H15C14908   5.658   6.299   2.340
  138OSM    C1414909   5.594   6.141   2.112
  138OSM   H14A14910   5.487   6.154   2.114
  138OSM   H14B14911   5.620   6.073   2.191
  138OSM   H14C14912   5.603   6.097   2.014
  138OSM    C1314913   5.603   6.357   2.012
  138OSM   H13A14914   5.496   6.369   2.020
  138OSM   H13B14915   5.625   6.307   1.918
  138OSM   H13C14916   5.648   6.455   2.016
  138OSM    C1214917   5.813   6.273   2.120
  138OSM   H12A14918   5.853   6.226   2.032
  138OSM   H12B14919   5.844   6.200   2.193
  138OSM    C1114920   5.896   6.396   2.138
  138OSM   H11A14921   5.849   6.483   2.088
  138OSM   H11B14922   5.991   6.382   2.083
  138OSM      P14923   6.010   6.324   2.360
  138OSM    O1314924   5.951   6.184   2.345
  138OSM    O1414925   6.156   6.340   2.334
  138OSM    O1114926   5.984   6.374   2.512
  138OSM    O1214927   5.934   6.427   2.269
  138OSM    C1S14928   5.845   6.398   2.542
  138OSM    H1S14929   5.775   6.320   2.506
  138OSM    H1T14930   5.823   6.489   2.482
  138OSM     NF14931   5.678   6.434   2.709
  138OSM    HNF14932   5.639   6.519   2.742
  138OSM    C2S14933   5.817   6.429   2.687
  138OSM    H2S14934   5.855   6.348   2.754
  138OSM    C3S14935   5.892   6.557   2.720
  138OSM    H3S14936   5.867   6.644   2.656
  138OSM     O314937   6.034   6.544   2.703
  138OSM    HO314938   6.043   6.460   2.659
  138OSM    C4S14939   5.853   6.609   2.856
  138OSM    H4S14940   5.817   6.713   2.852
  138OSM    C5S14941   5.865   6.552   2.974
  138OSM    H5S14942   5.894   6.446   2.970
  138OSM    C6S14943   5.836   6.611   3.107
  138OSM    H6S14944   5.841   6.533   3.186
  138OSM    H6T14945   5.731   6.643   3.123
  138OSM    C7S14946   5.925   6.737   3.130
  138OSM    H7S14947   5.927   6.809   3.046
  138OSM    H7T14948   6.029   6.706   3.155
  138OSM    C8S14949   5.880   6.830   3.244
  138OSM    H8S14950   5.780   0.022   3.210
  138OSM    H8T14951   5.957   0.068   3.240
  138OSM    C9S14952   5.879   6.765   3.384
  138OSM    H9S14953   5.865   6.658   3.357
  138OSM    H9T14954   5.787   6.803   3.434
  138OSM   C10S14955   6.012   6.779   3.452
  138OSM   H10S14956   6.034   0.048   3.453
  138OSM   H10T14957   6.084   6.725   3.388
  138OSM   C11S14958   6.010   6.739   3.597
  138OSM   H11S14959   5.979   6.632   3.598
  138OSM   H11T14960   5.922   6.778   3.651
  138OSM   C12S14961   6.147   6.741   3.672
  138OSM   H12S14962   6.194   0.001   3.670
  138OSM   H12T14963   6.221   6.674   3.624
  138OSM   C13S14964   6.141   6.704   3.820
  138OSM   H13S14965   6.125   6.594   3.833
  138OSM   H13T14966   6.048   6.750   3.860
  138OSM   C14S14967   6.259   6.755   3.907
  138OSM   H14S14968   6.257   0.025   3.898
  138OSM   H14T14969   6.352   6.719   3.857
  138OSM   C15S14970   6.256   6.717   4.056
  138OSM   H15S14971   6.353   6.744   4.104
  138OSM   H15T14972   6.246   6.606   4.059
  138OSM   C16S14973   6.139   6.777   4.143
  138OSM   H16S14974   6.044   6.731   4.108
  138OSM   H16T14975   6.142   0.043   4.113
  138OSM   C17S14976   6.150   6.757   4.296
  138OSM   H17S14977   6.237   6.810   4.339
  138OSM   H17T14978   6.147   6.647   4.312
  138OSM   C18S14979   6.017   6.808   4.359
  138OSM   H18S14980   6.039   6.832   4.465
  138OSM   H18T14981   5.944   6.724   4.352
  138OSM   H18U14982   5.974   0.060   4.318
  138OSM    C1F14983   5.598   6.329   2.700
  138OSM     OF14984   5.647   6.217   2.670
  138OSM    C2F14985   5.451   6.342   2.716
  138OSM    H2F14986   5.397   6.287   2.636
  138OSM    H2G14987   5.425   6.448   2.698
  138OSM    C3F14988   5.408   6.298   2.856
  138OSM    H3F14989   5.436   6.192   2.871
  138OSM    H3G14990   5.297   6.297   2.854
  138OSM    C4F14991   5.471   6.393   2.963
  138OSM    H4F14992   5.465   6.502   2.944
  138OSM    H4G14993   5.581   6.382   2.979
  138OSM    C5F14994   5.418   6.356   3.103
  138OSM    H5F14995   5.444   6.250   3.126
  138OSM    H5G14996   5.308   6.363   3.090
  138OSM    C6F14997   5.462   6.460   3.209
  138OSM    H6F14998   5.406   6.556   3.206
  138OSM    H6G14999   5.570   6.481   3.198
  138OSM    C7F15000   5.435   6.400   3.351
  138OSM    H7F15001   5.498   6.310   3.364
  138OSM    H7G15002   5.329   6.367   3.350
  138OSM    C8F15003   5.427   6.508   3.460
  138OSM    H8F15004   5.364   6.465   3.541
  138OSM    H8G15005   5.377   6.592   3.407
  138OSM    C9F15006   5.556   6.550   3.520
  138OSM    H9F15007   5.626   6.615   3.465
  138OSM   C10F15008   5.586   6.536   3.645
  138OSM   H10F15009   5.686   6.576   3.667
  138OSM   C11F15010   5.531   6.450   3.751
  138OSM   H11F15011   5.426   6.474   3.778
  138OSM   H11G15012   5.591   6.461   3.844
  138OSM   C12F15013   5.527   6.293   3.747
  138OSM   H12F15014   5.630   6.253   3.744
  138OSM   H12G15015   5.467   6.265   3.658
  138OSM   C13F15016   5.460   6.234   3.874
  138OSM   H13F15017   5.357   6.267   3.900
  138OSM   H13G15018   5.531   6.258   3.956
  138OSM   C14F15019   5.461   6.072   3.860
  138OSM   H14F15020   5.565   6.035   3.865
  138OSM   H14G15021   5.410   6.051   3.764
  138OSM   C15F15022   5.381   5.998   3.967
  138OSM   H15F15023   5.352   5.899   3.925
  138OSM   H15G15024   5.279   6.039   3.982
  138OSM   C16F15025   5.450   5.981   4.104
  138OSM   H16F15026   5.377   5.954   4.184
  138OSM   H16G15027   5.489   6.081   4.133
  138OSM   C17F15028   5.559   5.878   4.096
  138OSM   H17F15029   5.639   5.899   4.021
  138OSM   H17G15030   5.511   5.782   4.067
  138OSM   C18F15031   5.623   5.864   4.234
  138OSM   H18F15032   5.687   5.773   4.233
  138OSM   H18G15033   5.556   5.837   4.319
  138OSM   H18H15034   5.676   5.959   4.259
  139OSM      N15035   1.552   1.532   2.059
  139OSM    C1515036   1.406   1.568   2.053
  139OSM   H15A15037   1.378   1.659   2.105
  139OSM   H15B15038   1.346   1.488   2.092
  139OSM   H15C15039   1.365   1.566   1.953
  139OSM    C1415040   1.638   1.632   1.997
  139OSM   H14A15041   1.643   1.615   1.890
  139OSM   H14B15042   1.735   1.620   2.041
  139OSM   H14C15043   1.604   1.734   2.011
  139OSM    C1315044   1.588   1.537   2.202
  139OSM   H13A15045   1.584   1.639   2.237
  139OSM   H13B15046   1.689   1.500   2.216
  139OSM   H13C15047   1.515   1.483   2.260
  139OSM    C1215048   1.574   1.396   2.005
  139OSM   H12A15049   1.680   1.380   1.992
  139OSM   H12B15050   1.525   1.400   1.909
  139OSM    C1115051   1.515   1.268   2.076
  139OSM   H11A15052   1.516   1.278   2.187
  139OSM   H11B15053   1.577   1.179   2.052
  139OSM      P15054   1.256   1.223   2.128
  139OSM    O1315055   1.129   1.280   2.068
  139OSM    O1415056   1.267   1.080   2.167
  139OSM    O1115057   1.299   1.308   2.253
  139OSM    O1215058   1.380   1.254   2.025
  139OSM    C1S15059   1.206   1.394   2.311
  139OSM    H1S15060   1.102   1.358   2.296
  139OSM    H1T15061   1.206   1.496   2.268
  139OSM     NF15062   1.089   1.472   2.516
  139OSM    HNF15063   1.092   1.566   2.549
  139OSM    C2S15064   1.211   1.413   2.465
  139OSM    H2S15065   1.221   1.308   2.501
  139OSM    C3S15066   1.343   1.481   2.504
  139OSM    H3S15067   1.340   1.582   2.459
  139OSM     O315068   1.457   1.411   2.459
  139OSM    HO315069   1.414   1.346   2.403
  139OSM    C4S15070   1.354   1.497   2.653
  139OSM    H4S15071   1.295   1.582   2.691
  139OSM    C5S15072   1.405   1.402   2.741
  139OSM    H5S15073   1.444   1.306   2.702
  139OSM    C6S15074   1.401   1.421   2.893
  139OSM    H6S15075   1.486   1.364   2.937
  139OSM    H6T15076   1.311   1.375   2.938
  139OSM    C7S15077   1.395   1.567   2.937
  139OSM    H7S15078   1.293   1.605   2.917
  139OSM    H7T15079   1.468   1.628   2.878
  139OSM    C8S15080   1.444   1.585   3.084
  139OSM    H8S15081   1.550   1.555   3.097
  139OSM    H8T15082   1.389   1.521   3.156
  139OSM    C9S15083   1.426   1.729   3.128
  139OSM    H9S15084   1.319   1.743   3.156
  139OSM    H9T15085   1.448   1.800   3.046
  139OSM   C10S15086   1.511   1.772   3.251
  139OSM   H10S15087   1.485   1.874   3.285
  139OSM   H10T15088   1.620   1.765   3.230
  139OSM   C11S15089   1.486   1.691   3.378
  139OSM   H11S15090   1.532   1.592   3.360
  139OSM   H11T15091   1.378   1.672   3.391
  139OSM   C12S15092   1.566   1.742   3.506
  139OSM   H12S15093   1.530   1.839   3.548
  139OSM   H12T15094   1.675   1.750   3.486
  139OSM   C13S15095   1.552   1.638   3.616
  139OSM   H13S15096   1.557   1.539   3.567
  139OSM   H13T15097   1.446   1.646   3.651
  139OSM   C14S15098   1.655   1.645   3.728
  139OSM   H14S15099   1.747   1.590   3.697
  139OSM   H14T15100   1.611   1.584   3.810
  139OSM   C15S15101   1.699   1.784   3.768
  139OSM   H15S15102   1.603   1.840   3.768
  139OSM   H15T15103   1.767   1.827   3.692
  139OSM   C16S15104   1.768   1.787   3.902
  139OSM   H16S15105   1.875   1.758   3.897
  139OSM   H16T15106   1.709   1.712   3.961
  139OSM   C17S15107   1.749   1.925   3.962
  139OSM   H17S15108   1.640   1.938   3.947
  139OSM   H17T15109   1.789   2.008   3.899
  139OSM   C18S15110   1.788   1.947   4.109
  139OSM   H18S15111   1.746   2.046   4.137
  139OSM   H18T15112   1.896   1.944   4.137
  139OSM   H18U15113   1.745   1.865   4.171
  139OSM    C1F15114   0.974   1.401   2.529
  139OSM     OF15115   0.960   1.285   2.490
  139OSM    C2F15116   0.862   1.491   2.589
  139OSM    H2F15117   0.768   1.437   2.567
  139OSM    H2G15118   0.864   1.591   2.542
  139OSM    C3F15119   0.861   1.502   2.745
  139OSM    H3F15120   0.773   1.563   2.774
  139OSM    H3G15121   0.941   1.559   2.798
  139OSM    C4F15122   0.848   1.363   2.814
  139OSM    H4F15123   0.940   1.304   2.795
  139OSM    H4G15124   0.765   1.318   2.758
  139OSM    C5F15125   0.807   1.372   2.965
  139OSM    H5F15126   0.749   1.281   2.992
  139OSM    H5G15127   0.729   1.452   2.968
  139OSM    C6F15128   0.917   1.407   3.064
  139OSM    H6F15129   0.932   1.512   3.029
  139OSM    H6G15130   1.003   1.339   3.045
  139OSM    C7F15131   0.853   1.403   3.204
  139OSM    H7F15132   0.776   1.323   3.210
  139OSM    H7G15133   0.803   1.499   3.226
  139OSM    C8F15134   0.953   1.373   3.316
  139OSM    H8F15135   1.001   1.276   3.292
  139OSM    H8G15136   0.904   1.352   3.413
  139OSM    C9F15137   1.053   1.482   3.339
  139OSM    H9F15138   1.113   1.513   3.252
  139OSM   C10F15139   1.061   1.566   3.441
  139OSM   H10F15140   1.148   1.634   3.447
  139OSM   C11F15141   0.971   1.563   3.566
  139OSM   H11F15142   0.876   1.514   3.533
  139OSM   H11G15143   0.952   1.662   3.611
  139OSM   C12F15144   1.021   1.471   3.674
  139OSM   H12F15145   1.127   1.494   3.701
  139OSM   H12G15146   1.029   1.365   3.643
  139OSM   C13F15147   0.928   1.464   3.797
  139OSM   H13F15148   0.833   1.409   3.776
  139OSM   H13G15149   0.892   1.562   3.834
  139OSM   C14F15150   0.982   1.390   3.917
  139OSM   H14F15151   1.083   1.433   3.933
  139OSM   H14G15152   0.997   1.281   3.898
  139OSM   C15F15153   0.908   1.412   4.054
  139OSM   H15F15154   0.820   1.344   4.045
  139OSM   H15G15155   0.879   1.520   4.057
  139OSM   C16F15156   1.004   1.362   4.167
  139OSM   H16F15157   1.080   1.293   4.125
  139OSM   H16G15158   0.946   1.301   4.239
  139OSM   C17F15159   1.083   1.466   4.247
  139OSM   H17F15160   1.009   1.544   4.276
  139OSM   H17G15161   1.149   1.516   4.173
  139OSM   C18F15162   1.159   1.406   4.371
  139OSM   H18F15163   1.230   1.482   4.410
  139OSM   H18G15164   1.208   1.309   4.351
  139OSM   H18H15165   1.083   1.389   4.450
  140OSM      N15166   4.703   0.498   1.874
  140OSM    C1515167   4.844   0.454   1.852
  140OSM   H15A15168   4.906   0.448   1.940
  140OSM   H15B15169   4.893   0.536   1.802
  140OSM   H15C15170   4.855   0.362   1.796
  140OSM    C1415171   4.708   0.629   1.956
  140OSM   H14A15172   4.754   0.712   1.904
  140OSM   H14B15173   4.765   0.604   2.044
  140OSM   H14C15174   4.605   0.655   1.977
  140OSM    C1315175   4.632   0.531   1.749
  140OSM   H13A15176   4.666   0.620   1.699
  140OSM   H13B15177   4.528   0.556   1.764
  140OSM   H13C15178   4.647   0.453   1.675
  140OSM    C1215179   4.620   0.396   1.955
  140OSM   H12A15180   4.596   0.313   1.891
  140OSM   H12B15181   4.520   0.431   1.978
  140OSM    C1115182   4.673   0.360   2.096
  140OSM   H11A15183   4.592   0.296   2.138
  140OSM   H11B15184   4.678   0.453   2.156
  140OSM      P15185   4.900   0.304   2.202
  140OSM    O1315186   4.987   0.187   2.212
  140OSM    O1415187   4.974   0.427   2.167
  140OSM    O1115188   4.812   0.333   2.331
  140OSM    O1215189   4.797   0.289   2.089
  140OSM    C1S15190   4.752   0.224   2.393
  140OSM    H1S15191   4.776   0.126   2.347
  140OSM    H1T15192   4.643   0.230   2.371
  140OSM     NF15193   4.750   0.102   2.613
  140OSM    HNF15194   4.669   0.113   2.671
  140OSM    C2S15195   4.795   0.220   2.547
  140OSM    H2S15196   4.906   0.225   2.552
  140OSM    C3S15197   4.746   0.352   2.630
  140OSM    H3S15198   4.635   0.344   2.635
  140OSM     O315199   4.762   0.481   2.559
  140OSM    HO315200   4.806   0.446   2.481
  140OSM    C4S15201   4.794   0.360   2.771
  140OSM    H4S15202   4.904   0.358   2.771
  140OSM    C5S15203   4.726   0.352   2.886
  140OSM    H5S15204   4.616   0.361   2.887
  140OSM    C6S15205   4.794   0.360   3.019
  140OSM    H6S15206   4.758   0.454   3.065
  140OSM    H6T15207   4.903   0.377   3.010
  140OSM    C7S15208   4.763   0.243   3.120
  140OSM    H7S15209   4.799   0.146   3.080
  140OSM    H7T15210   4.655   0.230   3.140
  140OSM    C8S15211   4.820   0.280   3.257
  140OSM    H8S15212   4.799   0.388   3.272
  140OSM    H8T15213   4.931   0.274   3.248
  140OSM    C9S15214   4.757   0.210   3.376
  140OSM    H9S15215   4.789   0.104   3.375
  140OSM    H9T15216   4.647   0.205   3.365
  140OSM   C10S15217   4.801   0.272   3.509
  140OSM   H10S15218   4.758   0.373   3.529
  140OSM   H10T15219   4.911   0.285   3.501
  140OSM   C11S15220   4.773   0.189   3.636
  140OSM   H11S15221   4.798   0.083   3.612
  140OSM   H11T15222   4.663   0.181   3.646
  140OSM   C12S15223   4.839   0.236   3.763
  140OSM   H12S15224   4.807   0.340   3.785
  140OSM   H12T15225   4.947   0.243   3.738
  140OSM   C13S15226   4.814   0.151   3.891
  140OSM   H13S15227   4.876   0.191   3.974
  140OSM   H13T15228   4.848   0.051   3.857
  140OSM   C14S15229   4.665   0.126   3.916
  140OSM   H14S15230   4.619   0.077   3.828
  140OSM   H14T15231   4.624   0.228   3.933
  140OSM   C15S15232   4.624   0.032   4.032
  140OSM   H15S15233   4.513   0.025   4.033
  140OSM   H15T15234   4.664   0.086   4.120
  140OSM   C16S15235   4.684   6.729   4.021
  140OSM   H16S15236   4.793   6.737   4.040
  140OSM   H16T15237   4.675   6.695   3.916
  140OSM   C17S15238   4.610   6.622   4.108
  140OSM   H17S15239   4.503   6.617   4.079
  140OSM   H17T15240   4.601   6.661   4.212
  140OSM   C18S15241   4.672   6.489   4.124
  140OSM   H18S15242   4.698   6.448   4.024
  140OSM   H18T15243   4.599   6.421   4.173
  140OSM   H18U15244   4.767   6.497   4.182
  140OSM    C1F15245   4.803   6.826   2.588
  140OSM     OF15246   4.901   6.814   2.508
  140OSM    C2F15247   4.744   6.707   2.652
  140OSM    H2F15248   4.700   6.641   2.574
  140OSM    H2G15249   4.662   6.736   2.722
  140OSM    C3F15250   4.859   6.643   2.737
  140OSM    H3F15251   4.931   6.602   2.663
  140OSM    H3G15252   4.812   6.564   2.799
  140OSM    C4F15253   4.927   6.736   2.840
  140OSM    H4F15254   4.843   6.794   2.884
  140OSM    H4G15255   4.993   6.811   2.793
  140OSM    C5F15256   5.001   6.655   2.948
  140OSM    H5F15257   5.107   6.651   2.915
  140OSM    H5G15258   4.963   6.551   2.939
  140OSM    C6F15259   5.000   6.703   3.093
  140OSM    H6F15260   4.891   6.697   3.116
  140OSM    H6G15261   5.035   6.809   3.091
  140OSM    C7F15262   5.082   6.614   3.183
  140OSM    H7F15263   5.182   6.600   3.137
  140OSM    H7G15264   5.033   6.515   3.179
  140OSM    C8F15265   5.088   6.656   3.332
  140OSM    H8F15266   5.132   6.757   3.345
  140OSM    H8G15267   5.155   6.582   3.382
  140OSM    C9F15268   4.949   6.653   3.401
  140OSM    H9F15269   4.862   6.692   3.345
  140OSM   C10F15270   4.918   6.606   3.524
  140OSM   H10F15271   4.816   6.612   3.565
  140OSM   C11F15272   5.017   6.557   3.626
  140OSM   H11F15273   5.123   6.587   3.609
  140OSM   H11G15274   5.015   6.446   3.628
  140OSM   C12F15275   4.975   6.612   3.763
  140OSM   H12F15276   4.868   6.585   3.780
  140OSM   H12G15277   4.991   6.720   3.743
  140OSM   C13F15278   5.060   6.567   3.881
  140OSM   H13F15279   5.061   6.627   3.974
  140OSM   H13G15280   5.163   6.555   3.842
  140OSM   C14F15281   5.001   6.427   3.935
  140OSM   H14F15282   5.006   6.343   3.862
  140OSM   H14G15283   4.896   6.442   3.970
  140OSM   C15F15284   5.074   6.380   4.058
  140OSM   H15F15285   5.077   6.460   4.136
  140OSM   H15G15286   5.174   6.342   4.026
  140OSM   C16F15287   5.007   6.253   4.127
  140OSM   H16F15288   5.007   6.169   4.054
  140OSM   H16G15289   4.900   6.273   4.150
  140OSM   C17F15290   5.082   6.207   4.255
  140OSM   H17F15291   5.033   6.111   4.286
  140OSM   H17G15292   5.058   6.272   4.342
  140OSM   C18F15293   5.241   6.202   4.251
  140OSM   H18F15294   5.280   6.290   4.306
  140OSM   H18G15295   5.290   6.207   4.151
  140OSM   H18H15296   5.279   6.107   4.293
  141OSM      N15297   0.067   4.214   1.889
  141OSM    C1515298   6.832   4.304   1.977
  141OSM   H15A15299   6.746   4.257   2.022
  141OSM   H15B15300   6.792   4.392   1.928
  141OSM   H15C15301   0.058   4.338   2.055
  141OSM    C1415302   6.815   4.162   1.784
  141OSM   H14A15303   6.775   4.247   1.731
  141OSM   H14B15304   6.728   4.124   1.836
  141OSM   H14C15305   0.001   4.082   1.717
  141OSM    C1315306   0.171   4.300   1.823
  141OSM   H13A15307   0.241   4.331   1.898
  141OSM   H13B15308   0.132   4.382   1.765
  141OSM   H13C15309   0.233   4.243   1.755
  141OSM    C1215310   0.135   4.100   1.959
  141OSM   H12A15311   0.193   4.050   1.882
  141OSM   H12B15312   0.067   4.025   1.997
  141OSM    C1115313   0.232   4.131   2.079
  141OSM   H11A15314   0.256   4.032   2.122
  141OSM   H11B15315   0.177   4.183   2.161
  141OSM      P15316   0.398   4.350   2.083
  141OSM    O1315317   0.523   4.387   2.016
  141OSM    O1415318   0.291   4.447   2.072
  141OSM    O1115319   0.433   4.329   2.235
  141OSM    O1215320   0.350   4.201   2.041
  141OSM    C1S15321   0.480   4.213   2.300
  141OSM    H1S15322   0.533   4.144   2.232
  141OSM    H1T15323   0.397   4.157   2.348
  141OSM     NF15324   0.642   4.116   2.454
  141OSM    HNF15325   0.586   4.053   2.507
  141OSM    C2S15326   0.582   4.244   2.417
  141OSM    H2S15327   0.666   4.313   2.393
  141OSM    C3S15328   0.499   4.310   2.529
  141OSM    H3S15329   0.415   4.251   2.571
  141OSM     O315330   0.441   4.441   2.493
  141OSM    HO315331   0.432   4.435   2.398
  141OSM    C4S15332   0.589   4.325   2.645
  141OSM    H4S15333   0.645   4.419   2.654
  141OSM    C5S15334   0.592   4.257   2.764
  141OSM    H5S15335   0.514   4.180   2.772
  141OSM    C6S15336   0.667   4.304   2.890
  141OSM    H6S15337   0.696   4.410   2.878
  141OSM    H6T15338   0.767   4.257   2.897
  141OSM    C7S15339   0.585   4.287   3.024
  141OSM    H7S15340   0.646   4.316   3.112
  141OSM    H7T15341   0.577   4.177   3.028
  141OSM    C8S15342   0.446   4.351   3.008
  141OSM    H8S15343   0.378   4.299   2.937
  141OSM    H8T15344   0.462   4.454   2.971
  141OSM    C9S15345   0.365   4.343   3.144
  141OSM    H9S15346   0.264   4.386   3.126
  141OSM    H9T15347   0.406   4.402   3.228
  141OSM   C10S15348   0.352   4.196   3.188
  141OSM   H10S15349   0.444   4.167   3.244
  141OSM   H10T15350   0.348   4.124   3.104
  141OSM   C11S15351   0.233   4.183   3.286
  141OSM   H11S15352   0.137   4.196   3.230
  141OSM   H11T15353   0.230   4.260   3.366
  141OSM   C12S15354   0.240   4.045   3.361
  141OSM   H12S15355   0.339   4.011   3.399
  141OSM   H12T15356   0.218   3.970   3.283
  141OSM   C13S15357   0.141   4.048   3.487
  141OSM   H13S15358   0.044   4.084   3.448
  141OSM   H13T15359   0.169   4.125   3.562
  141OSM   C14S15360   0.143   3.915   3.554
  141OSM   H14S15361   0.244   3.910   3.600
  141OSM   H14T15362   0.150   3.824   3.490
  141OSM   C15S15363   0.025   3.885   3.646
  141OSM   H15S15364   0.020   3.778   3.675
  141OSM   H15T15365   6.777   3.909   3.583
  141OSM   C16S15366   0.022   3.975   3.777
  141OSM   H16S15367   6.763   3.983   3.824
  141OSM   H16T15368   0.038   4.081   3.751
  141OSM   C17S15369   0.126   3.936   3.886
  141OSM   H17S15370   0.233   3.928   3.858
  141OSM   H17T15371   0.097   3.835   3.921
  141OSM   C18S15372   0.125   4.035   3.999
  141OSM   H18S15373   0.208   4.020   4.072
  141OSM   H18T15374   0.028   4.038   4.052
  141OSM   H18U15375   0.157   4.133   3.957
  141OSM    C1F15376   0.745   4.063   2.382
  141OSM     OF15377   0.793   4.128   2.287
  141OSM    C2F15378   0.796   3.923   2.408
  141OSM    H2F15379   0.887   3.900   2.348
  141OSM    H2G15380   0.723   3.848   2.370
  141OSM    C3F15381   0.819   3.894   2.563
  141OSM    H3F15382   0.823   3.783   2.569
  141OSM    H3G15383   0.729   3.924   2.620
  141OSM    C4F15384   0.951   3.956   2.618
  141OSM    H4F15385   0.935   4.066   2.619
  141OSM    H4G15386   1.036   3.928   2.552
  141OSM    C5F15387   0.986   3.929   2.766
  141OSM    H5F15388   1.081   3.978   2.796
  141OSM    H5G15389   0.995   3.818   2.766
  141OSM    C6F15390   0.880   3.973   2.871
  141OSM    H6F15391   0.786   3.923   2.839
  141OSM    H6G15392   0.876   4.084   2.867
  141OSM    C7F15393   0.923   3.930   3.012
  141OSM    H7F15394   1.008   3.998   3.035
  141OSM    H7G15395   0.962   3.826   3.002
  141OSM    C8F15396   0.823   3.954   3.128
  141OSM    H8F15397   0.730   3.904   3.093
  141OSM    H8G15398   0.798   4.061   3.143
  141OSM    C9F15399   0.858   3.887   3.258
  141OSM    H9F15400   0.923   3.800   3.245
  141OSM   C10F15401   0.815   3.909   3.389
  141OSM   H10F15402   0.840   3.841   3.472
  141OSM   C11F15403   0.721   4.022   3.424
  141OSM   H11F15404   0.618   3.981   3.427
  141OSM   H11G15405   0.726   4.092   3.338
  141OSM   C12F15406   0.762   4.081   3.559
  141OSM   H12F15407   0.709   4.178   3.566
  141OSM   H12G15408   0.872   4.100   3.562
  141OSM   C13F15409   0.722   3.990   3.679
  141OSM   H13F15410   0.741   3.882   3.661
  141OSM   H13G15411   0.613   4.001   3.697
  141OSM   C14F15412   0.784   4.021   3.820
  141OSM   H14F15413   0.892   4.031   3.799
  141OSM   H14G15414   0.773   3.939   3.894
  141OSM   C15F15415   0.745   4.150   3.882
  141OSM   H15F15416   0.634   4.148   3.895
  141OSM   H15G15417   0.768   4.243   3.826
  141OSM   C16F15418   0.802   4.174   4.023
  141OSM   H16F15419   0.814   4.283   4.042
  141OSM   H16G15420   0.905   4.131   4.024
  141OSM   C17F15421   0.720   4.125   4.138
  141OSM   H17F15422   0.707   4.015   4.130
  141OSM   H17G15423   0.617   4.167   4.141
  141OSM   C18F15424   0.779   4.167   4.269
  141OSM   H18F15425   0.771   4.276   4.289
  141OSM   H18G15426   0.885   4.135   4.263
  141OSM   H18H15427   0.732   4.104   4.348
  142OSM      N15428   1.615   5.427   1.820
  142OSM    C1515429   1.724   5.512   1.769
  142OSM   H15A15430   1.800   5.442   1.734
  142OSM   H15B15431   1.754   5.583   1.844
  142OSM   H15C15432   1.698   5.555   1.674
  142OSM    C1415433   1.489   5.502   1.815
  142OSM   H14A15434   1.492   5.589   1.879
  142OSM   H14B15435   1.408   5.444   1.857
  142OSM   H14C15436   1.485   5.526   1.710
  142OSM    C1315437   1.599   5.305   1.738
  142OSM   H13A15438   1.612   5.322   1.633
  142OSM   H13B15439   1.503   5.262   1.763
  142OSM   H13C15440   1.677   5.234   1.765
  142OSM    C1215441   1.648   5.376   1.959
  142OSM   H12A15442   1.752   5.348   1.966
  142OSM   H12B15443   1.597   5.285   1.987
  142OSM    C1115444   1.633   5.473   2.081
  142OSM   H11A15445   1.675   5.422   2.170
  142OSM   H11B15446   1.524   5.491   2.089
  142OSM      P15447   1.666   5.729   2.085
  142OSM    O1315448   1.770   5.825   2.049
  142OSM    O1415449   1.534   5.746   2.018
  142OSM    O1115450   1.643   5.725   2.241
  142OSM    O1215451   1.718   5.588   2.059
  142OSM    C1S15452   1.761   5.703   2.325
  142OSM    H1S15453   1.824   5.794   2.328
  142OSM    H1T15454   1.834   5.632   2.279
  142OSM     NF15455   1.867   5.623   2.529
  142OSM    HNF15456   1.907   5.532   2.521
  142OSM    C2S15457   1.736   5.654   2.473
  142OSM    H2S15458   1.690   5.735   2.533
  142OSM    C3S15459   1.628   5.545   2.477
  142OSM    H3S15460   1.669   5.452   2.431
  142OSM     O315461   1.512   5.569   2.398
  142OSM    HO315462   1.541   5.636   2.335
  142OSM    C4S15463   1.603   5.504   2.618
  142OSM    H4S15464   1.685   5.438   2.650
  142OSM    C5S15465   1.511   5.552   2.709
  142OSM    H5S15466   1.445   5.627   2.664
  142OSM    C6S15467   1.482   5.518   2.850
  142OSM    H6S15468   1.511   5.414   2.875
  142OSM    H6T15469   1.373   5.514   2.872
  142OSM    C7S15470   1.557   5.603   2.959
  142OSM    H7S15471   1.545   5.712   2.945
  142OSM    H7T15472   1.666   5.584   2.954
  142OSM    C8S15473   1.523   5.564   3.102
  142OSM    H8S15474   1.513   5.457   3.128
  142OSM    H8T15475   1.423   5.602   3.132
  142OSM    C9S15476   1.626   5.610   3.204
  142OSM    H9S15477   1.657   5.707   3.160
  142OSM    H9T15478   1.705   5.532   3.210
  142OSM   C10S15479   1.579   5.639   3.345
  142OSM   H10S15480   1.508   5.724   3.352
  142OSM   H10T15481   1.663   5.665   3.412
  142OSM   C11S15482   1.513   5.519   3.416
  142OSM   H11S15483   1.571   5.425   3.412
  142OSM   H11T15484   1.417   5.492   3.367
  142OSM   C12S15485   1.506   5.540   3.572
  142OSM   H12S15486   1.600   5.585   3.610
  142OSM   H12T15487   1.492   5.438   3.614
  142OSM   C13S15488   1.393   5.632   3.603
  142OSM   H13S15489   1.302   5.575   3.572
  142OSM   H13T15490   1.397   5.720   3.535
  142OSM   C14S15491   1.382   5.670   3.754
  142OSM   H14S15492   1.282   5.716   3.773
  142OSM   H14T15493   1.453   5.755   3.758
  142OSM   C15S15494   1.415   5.568   3.860
  142OSM   H15S15495   1.523   5.547   3.841
  142OSM   H15T15496   1.360   5.472   3.850
  142OSM   C16S15497   1.397   5.618   4.006
  142OSM   H16S15498   1.291   5.602   4.036
  142OSM   H16T15499   1.425   5.725   4.017
  142OSM   C17S15500   1.489   5.550   4.105
  142OSM   H17S15501   1.585   5.599   4.078
  142OSM   H17T15502   1.495   5.441   4.083
  142OSM   C18S15503   1.450   5.573   4.249
  142OSM   H18S15504   1.351   5.527   4.274
  142OSM   H18T15505   1.437   5.683   4.254
  142OSM   H18U15506   1.526   5.555   4.329
  142OSM    C1F15507   1.937   5.723   2.579
  142OSM     OF15508   1.897   5.836   2.565
  142OSM    C2F15509   2.062   5.696   2.661
  142OSM    H2F15510   2.153   5.732   2.608
  142OSM    H2G15511   2.071   5.588   2.683
  142OSM    C3F15512   2.060   5.779   2.794
  142OSM    H3F15513   2.064   5.886   2.765
  142OSM    H3G15514   2.150   5.747   2.850
  142OSM    C4F15515   1.940   5.748   2.888
  142OSM    H4F15516   1.939   5.637   2.890
  142OSM    H4G15517   1.848   5.780   2.832
  142OSM    C5F15518   1.949   5.809   3.020
  142OSM    H5F15519   1.849   5.803   3.068
  142OSM    H5G15520   1.972   5.918   3.014
  142OSM    C6F15521   2.059   5.747   3.110
  142OSM    H6F15522   2.156   5.763   3.057
  142OSM    H6G15523   2.055   5.636   3.109
  142OSM    C7F15524   2.056   5.803   3.253
  142OSM    H7F15525   2.074   5.912   3.250
  142OSM    H7G15526   2.149   5.764   3.300
  142OSM    C8F15527   1.934   5.764   3.329
  142OSM    H8F15528   1.898   5.666   3.292
  142OSM    H8G15529   1.847   5.833   3.320
  142OSM    C9F15530   1.975   5.746   3.475
  142OSM    H9F15531   2.054   5.672   3.495
  142OSM   C10F15532   1.911   5.810   3.577
  142OSM   H10F15533   1.960   5.800   3.675
  142OSM   C11F15534   1.802   5.914   3.571
  142OSM   H11F15535   1.743   5.895   3.479
  142OSM   H11G15536   1.862   6.008   3.571
  142OSM   C12F15537   1.696   5.928   3.686
  142OSM   H12F15538   1.679   5.842   3.754
  142OSM   H12G15539   1.601   5.954   3.634
  142OSM   C13F15540   1.717   6.052   3.783
  142OSM   H13F15541   1.728   6.148   3.729
  142OSM   H13G15542   1.810   6.033   3.841
  142OSM   C14F15543   1.598   6.073   3.874
  142OSM   H14F15544   1.588   5.975   3.925
  142OSM   H14G15545   1.511   6.090   3.807
  142OSM   C15F15546   1.614   6.177   3.992
  142OSM   H15F15547   1.636   6.282   3.962
  142OSM   H15G15548   1.713   6.135   4.019
  142OSM   C16F15549   1.504   6.162   4.090
  142OSM   H16F15550   1.483   6.056   4.113
  142OSM   H16G15551   1.412   6.198   4.040
  142OSM   C17F15552   1.527   6.243   4.218
  142OSM   H17F15553   1.583   6.335   4.192
  142OSM   H17G15554   1.580   6.189   4.299
  142OSM   C18F15555   1.391   6.290   4.280
  142OSM   H18F15556   1.328   6.200   4.297
  142OSM   H18G15557   1.343   6.358   4.206
  142OSM   H18H15558   1.424   6.347   4.369
  143OSM      N15559   1.164   4.385   1.980
  143OSM    C1515560   1.299   4.367   1.918
  143OSM   H15A15561   1.294   4.338   1.814
  143OSM   H15B15562   1.357   4.293   1.971
  143OSM   H15C15563   1.347   4.464   1.918
  143OSM    C1415564   1.095   4.483   1.895
  143OSM   H14A15565   1.122   4.469   1.792
  143OSM   H14B15566   1.128   4.584   1.914
  143OSM   H14C15567   0.990   4.476   1.922
  143OSM    C1315568   1.089   4.255   1.965
  143OSM   H13A15569   0.988   4.267   2.003
  143OSM   H13B15570   1.132   4.177   2.026
  143OSM   H13C15571   1.098   4.212   1.867
  143OSM    C1215572   1.162   4.429   2.127
  143OSM   H12A15573   1.223   4.361   2.186
  143OSM   H12B15574   1.061   4.413   2.160
  143OSM    C1115575   1.201   4.574   2.172
  143OSM   H11A15576   1.309   4.588   2.148
  143OSM   H11B15577   1.180   4.578   2.281
  143OSM      P15578   1.165   4.823   2.091
  143OSM    O1315579   1.262   4.819   1.977
  143OSM    O1415580   1.056   4.920   2.078
  143OSM    O1115581   1.244   4.857   2.222
  143OSM    O1215582   1.115   4.679   2.116
  143OSM    C1S15583   1.164   4.873   2.345
  143OSM    H1S15584   1.073   4.809   2.346
  143OSM    H1T15585   1.117   4.974   2.349
  143OSM     NF15586   1.151   4.849   2.587
  143OSM    HNF15587   1.177   4.918   2.654
  143OSM    C2S15588   1.240   4.835   2.473
  143OSM    H2S15589   1.262   4.726   2.464
  143OSM    C3S15590   1.374   4.909   2.482
  143OSM    H3S15591   1.341   5.009   2.517
  143OSM     O315592   1.447   4.926   2.357
  143OSM    HO315593   1.384   4.897   2.291
  143OSM    C4S15594   1.466   4.857   2.589
  143OSM    H4S15595   1.484   4.923   2.676
  143OSM    C5S15596   1.536   4.741   2.594
  143OSM    H5S15597   1.527   4.665   2.515
  143OSM    C6S15598   1.620   4.688   2.708
  143OSM    H6S15599   1.723   4.659   2.679
  143OSM    H6T15600   1.581   4.589   2.738
  143OSM    C7S15601   1.643   4.774   2.841
  143OSM    H7S15602   1.547   4.823   2.867
  143OSM    H7T15603   1.718   4.854   2.822
  143OSM    C8S15604   1.682   4.682   2.963
  143OSM    H8S15605   1.773   4.622   2.941
  143OSM    H8T15606   1.602   4.609   2.984
  143OSM    C9S15607   1.711   4.777   3.080
  143OSM    H9S15608   1.633   4.857   3.074
  143OSM    H9T15609   1.812   4.819   3.065
  143OSM   C10S15610   1.710   4.710   3.225
  143OSM   H10S15611   1.801   4.647   3.237
  143OSM   H10T15612   1.615   4.654   3.236
  143OSM   C11S15613   1.725   4.831   3.323
  143OSM   H11S15614   1.633   4.892   3.312
  143OSM   H11T15615   1.814   4.895   3.304
  143OSM   C12S15616   1.750   4.799   3.469
  143OSM   H12S15617   1.761   4.900   3.514
  143OSM   H12T15618   1.847   4.748   3.485
  143OSM   C13S15619   1.636   4.719   3.539
  143OSM   H13S15620   1.621   4.623   3.487
  143OSM   H13T15621   1.539   4.774   3.533
  143OSM   C14S15622   1.670   4.672   3.683
  143OSM   H14S15623   1.760   4.610   3.665
  143OSM   H14T15624   1.587   4.611   3.725
  143OSM   C15S15625   1.697   4.791   3.776
  143OSM   H15S15626   1.610   4.859   3.775
  143OSM   H15T15627   1.790   4.840   3.738
  143OSM   C16S15628   1.717   4.738   3.923
  143OSM   H16S15629   1.781   4.648   3.933
  143OSM   H16T15630   1.616   4.695   3.941
  143OSM   C17S15631   1.758   4.842   4.027
  143OSM   H17S15632   1.697   4.934   4.012
  143OSM   H17T15633   1.863   4.875   4.011
  143OSM   C18S15634   1.738   4.795   4.177
  143OSM   H18S15635   1.793   4.700   4.194
  143OSM   H18T15636   1.628   4.785   4.187
  143OSM   H18U15637   1.776   4.871   4.248
  143OSM    C1F15638   1.042   4.779   2.606
  143OSM     OF15639   1.019   4.686   2.532
  143OSM    C2F15640   0.956   4.806   2.727
  143OSM    H2F15641   0.952   4.916   2.743
  143OSM    H2G15642   1.017   4.780   2.817
  143OSM    C3F15643   0.817   4.740   2.743
  143OSM    H3F15644   0.830   4.629   2.748
  143OSM    H3G15645   0.754   4.771   2.657
  143OSM    C4F15646   0.746   4.779   2.871
  143OSM    H4F15647   0.644   4.737   2.860
  143OSM    H4G15648   0.728   4.888   2.863
  143OSM    C5F15649   0.817   4.735   3.000
  143OSM    H5F15650   0.906   4.791   3.033
  143OSM    H5G15651   0.856   4.633   2.978
  143OSM    C6F15652   0.714   4.725   3.113
  143OSM    H6F15653   0.616   4.688   3.075
  143OSM    H6G15654   0.696   4.829   3.148
  143OSM    C7F15655   0.772   4.643   3.223
  143OSM    H7F15656   0.875   4.679   3.243
  143OSM    H7G15657   0.775   4.541   3.180
  143OSM    C8F15658   0.682   4.664   3.346
  143OSM    H8F15659   0.580   4.642   3.308
  143OSM    H8G15660   0.674   4.768   3.385
  143OSM    C9F15661   0.747   4.576   3.452
  143OSM    H9F15662   0.854   4.586   3.474
  143OSM   C10F15663   0.687   4.473   3.521
  143OSM   H10F15664   0.745   4.422   3.600
  143OSM   C11F15665   0.540   4.433   3.518
  143OSM   H11F15666   0.529   4.323   3.527
  143OSM   H11G15667   0.491   4.462   3.422
  143OSM   C12F15668   0.445   4.500   3.626
  143OSM   H12F15669   0.341   4.465   3.608
  143OSM   H12G15670   0.450   4.610   3.611
  143OSM   C13F15671   0.478   4.460   3.768
  143OSM   H13F15672   0.586   4.466   3.791
  143OSM   H13G15673   0.456   4.352   3.774
  143OSM   C14F15674   0.402   4.539   3.870
  143OSM   H14F15675   0.293   4.520   3.855
  143OSM   H14G15676   0.417   4.647   3.853
  143OSM   C15F15677   0.429   4.500   4.018
  143OSM   H15F15678   0.539   4.503   4.033
  143OSM   H15G15679   0.402   4.395   4.042
  143OSM   C16F15680   0.362   4.603   4.111
  143OSM   H16F15681   0.255   4.594   4.084
  143OSM   H16G15682   0.399   4.708   4.102
  143OSM   C17F15683   0.387   4.558   4.252
  143OSM   H17F15684   0.494   4.574   4.280
  143OSM   H17G15685   0.358   4.451   4.254
  143OSM   C18F15686   0.305   4.631   4.359
  143OSM   H18F15687   0.298   4.576   4.456
  143OSM   H18G15688   0.204   4.659   4.322
  143OSM   H18H15689   0.354   4.728   4.379
  144OSM      N15690   0.889   5.618   1.934
  144OSM    C1515691   0.739   5.622   1.928
  144OSM   H15A15692   0.685   5.557   1.995
  144OSM   H15B15693   0.715   5.604   1.824
  144OSM   H15C15694   0.708   5.723   1.950
  144OSM    C1415695   0.940   5.700   1.821
  144OSM   H14A15696   0.911   5.804   1.822
  144OSM   H14B15697   0.908   5.649   1.732
  144OSM   H14C15698   1.048   5.699   1.821
  144OSM    C1315699   0.941   5.676   2.059
  144OSM   H13A15700   0.916   5.598   2.128
  144OSM   H13B15701   0.925   5.780   2.082
  144OSM   H13C15702   1.047   5.671   2.081
  144OSM    C1215703   0.931   5.476   1.916
  144OSM   H12A15704   1.038   5.482   1.901
  144OSM   H12B15705   0.881   5.445   1.826
  144OSM    C1115706   0.900   5.373   2.026
  144OSM   H11A15707   0.923   5.272   1.985
  144OSM   H11B15708   0.789   5.371   2.026
  144OSM      P15709   0.951   5.321   2.273
  144OSM    O1315710   0.821   5.249   2.268
  144OSM    O1415711   1.071   5.239   2.298
  144OSM    O1115712   0.937   5.420   2.396
  144OSM    O1215713   0.972   5.402   2.145
  144OSM    C1S15714   0.958   5.559   2.402
  144OSM    H1S15715   0.884   5.619   2.346
  144OSM    H1T15716   1.056   5.583   2.356
  144OSM     NF15717   0.943   5.763   2.551
  144OSM    HNF15718   1.026   5.817   2.566
  144OSM    C2S15719   0.954   5.617   2.547
  144OSM    H2S15720   0.860   5.585   2.596
  144OSM    C3S15721   1.071   5.550   2.622
  144OSM    H3S15722   1.166   5.580   2.574
  144OSM     O315723   1.087   5.407   2.622
  144OSM    HO315724   1.019   5.375   2.563
  144OSM    C4S15725   1.077   5.594   2.764
  144OSM    H4S15726   0.994   5.551   2.822
  144OSM    C5S15727   1.158   5.676   2.828
  144OSM    H5S15728   1.245   5.719   2.775
  144OSM    C6S15729   1.160   5.710   2.974
  144OSM    H6S15730   1.122   5.813   2.992
  144OSM    H6T15731   1.265   5.703   3.011
  144OSM    C7S15732   1.089   5.611   3.065
  144OSM    H7S15733   1.147   5.517   3.077
  144OSM    H7T15734   0.989   5.586   3.023
  144OSM    C8S15735   1.082   5.668   3.208
  144OSM    H8S15736   1.012   5.755   3.209
  144OSM    H8T15737   1.183   5.696   3.243
  144OSM    C9S15738   1.009   5.570   3.299
  144OSM    H9S15739   1.059   5.471   3.288
  144OSM    H9T15740   0.905   5.548   3.266
  144OSM   C10S15741   1.008   5.605   3.447
  144OSM   H10S15742   0.950   5.697   3.466
  144OSM   H10T15743   1.109   5.618   3.490
  144OSM   C11S15744   0.947   5.482   3.529
  144OSM   H11S15745   0.995   5.390   3.490
  144OSM   H11T15746   0.838   5.482   3.507
  144OSM   C12S15747   0.969   5.495   3.681
  144OSM   H12S15748   1.068   5.541   3.703
  144OSM   H12T15749   0.950   5.396   3.728
  144OSM   C13S15750   0.862   5.590   3.732
  144OSM   H13S15751   0.762   5.546   3.711
  144OSM   H13T15752   0.881   5.688   3.682
  144OSM   C14S15753   0.870   5.603   3.884
  144OSM   H14S15754   0.975   5.622   3.913
  144OSM   H14T15755   0.854   5.504   3.932
  144OSM   C15S15756   0.780   5.719   3.927
  144OSM   H15S15757   0.677   5.719   3.885
  144OSM   H15T15758   0.831   5.808   3.885
  144OSM   C16S15759   0.768   5.737   4.080
  144OSM   H16S15760   0.726   5.836   4.105
  144OSM   H16T15761   0.869   5.740   4.125
  144OSM   C17S15762   0.677   5.629   4.146
  144OSM   H17S15763   0.725   5.529   4.138
  144OSM   H17T15764   0.577   5.616   4.099
  144OSM   C18S15765   0.647   5.656   4.295
  144OSM   H18S15766   0.572   5.737   4.311
  144OSM   H18T15767   0.742   5.682   4.347
  144OSM   H18U15768   0.598   5.572   4.348
  144OSM    C1F15769   0.832   5.830   2.512
  144OSM     OF15770   0.735   5.770   2.470
  144OSM    C2F15771   0.837   5.982   2.512
  144OSM    H2F15772   0.855   6.011   2.406
  144OSM    H2G15773   0.929   6.015   2.565
  144OSM    C3F15774   0.725   6.051   2.580
  144OSM    H3F15775   0.725   6.009   2.683
  144OSM    H3G15776   0.626   6.044   2.530
  144OSM    C4F15777   0.755   6.199   2.589
  144OSM    H4F15778   0.775   6.243   2.489
  144OSM    H4G15779   0.850   6.208   2.648
  144OSM    C5F15780   0.656   6.298   2.665
  144OSM    H5F15781   0.608   6.252   2.754
  144OSM    H5G15782   0.582   6.344   2.597
  144OSM    C6F15783   0.745   6.401   2.736
  144OSM    H6F15784   0.798   6.443   2.648
  144OSM    H6G15785   0.819   6.352   2.802
  144OSM    C7F15786   0.669   6.518   2.799
  144OSM    H7F15787   0.585   6.489   2.867
  144OSM    H7G15788   0.633   6.578   2.713
  144OSM    C8F15789   0.768   6.587   2.897
  144OSM    H8F15790   0.871   6.583   2.855
  144OSM    H8G15791   0.782   6.507   2.973
  144OSM    C9F15792   0.734   6.723   2.945
  144OSM    H9F15793   0.726   6.801   2.868
  144OSM   C10F15794   0.712   6.763   3.073
  144OSM   H10F15795   0.703   0.029   3.100
  144OSM   C11F15796   0.723   6.669   3.192
  144OSM   H11F15797   0.786   6.712   3.273
  144OSM   H11G15798   0.767   6.573   3.159
  144OSM   C12F15799   0.587   6.664   3.266
  144OSM   H12F15800   0.584   6.567   3.320
  144OSM   H12G15801   0.506   6.662   3.190
  144OSM   C13F15802   0.560   6.778   3.373
  144OSM   H13F15803   0.454   6.806   3.386
  144OSM   H13G15804   0.605   0.030   3.332
  144OSM   C14F15805   0.618   6.749   3.509
  144OSM   H14F15806   0.727   6.733   3.495
  144OSM   H14G15807   0.560   6.659   3.542
  144OSM   C15F15808   0.593   0.013   3.626
  144OSM   H15F15809   0.486   0.041   3.641
  144OSM   H15G15810   0.639   0.109   3.594
  144OSM   C16F15811   0.658   6.816   3.764
  144OSM   H16F15812   0.769   6.819   3.754
  144OSM   H16G15813   0.637   6.710   3.788
  144OSM   C17F15814   0.617   0.060   3.884
  144OSM   H17F15815   0.507   0.048   3.891
  144OSM   H17G15816   0.649   0.166   3.878
  144OSM   C18F15817   0.667   0.004   4.018
  144OSM   H18F15818   0.632   0.063   4.105
  144OSM   H18G15819   0.778   0.008   4.015
  144OSM   H18H15820   0.638   6.738   4.031
  145SAPE     N15821   1.662   1.033   6.796
  145SAPE   HN115822   1.601   1.012   6.877
  145SAPE   HN215823   1.708   0.943   6.773
  145SAPE   HN315824   1.735   1.106   6.812
  145SAPE   C1215825   1.575   1.077   6.689
  145SAPE  H12A15826   1.633   1.053   6.597
  145SAPE  H12B15827   1.547   1.183   6.707
  145SAPE   C1115828   1.446   0.985   6.682
  145SAPE  H11A15829   1.392   1.006   6.587
  145SAPE  H11B15830   1.378   1.036   6.753
  145SAPE     P15831   1.501   0.749   6.586
  145SAPE   O1315832   1.591   0.831   6.498
  145SAPE   O1415833   1.549   0.621   6.640
  145SAPE   O1215834   1.467   0.848   6.702
  145SAPE   O1115835   1.362   0.724   6.517
  145SAPE    C115836   1.303   0.819   6.427
  145SAPE    HA15837   1.222   0.878   6.474
  145SAPE    HB15838   1.375   0.896   6.392
  145SAPE    C215839   1.242   0.758   6.297
  145SAPE    HS15840   1.148   0.706   6.325
  145SAPE   O2115841   1.346   0.677   6.236
  145SAPE   C2115842   1.305   0.555   6.217
  145SAPE   O2215843   1.204   0.505   6.257
  145SAPE   C2215844   1.407   0.479   6.129
  145SAPE   H2R15845   1.497   0.539   6.102
  145SAPE   H2S15846   1.446   0.409   6.206
  145SAPE    C315847   1.194   0.867   6.189
  145SAPE    HX15848   1.277   0.931   6.153
  145SAPE    HY15849   1.127   0.931   6.249
  145SAPE   O3115850   1.132   0.787   6.082
  145SAPE   C3115851   1.040   0.852   6.018
  145SAPE   O3215852   1.003   0.967   6.054
  145SAPE   C3215853   0.980   0.785   5.901
  145SAPE   H2X15854   0.954   0.679   5.924
  145SAPE   H2Y15855   1.057   0.797   5.821
  145SAPE   C2315856   1.344   0.406   6.009
  145SAPE   H3R15857   1.264   0.340   6.047
  145SAPE   H3S15858   1.420   0.344   5.956
  145SAPE   C2415859   1.273   0.488   5.902
  145SAPE   H4R15860   1.359   0.542   5.857
  145SAPE   H4S15861   1.207   0.570   5.940
  145SAPE   C2515862   1.184   0.405   5.816
  145SAPE   H5R15863   1.138   0.317   5.862
  145SAPE   C2615864   1.143   0.434   5.688
  145SAPE   H6R15865   1.092   0.360   5.624
  145SAPE   C2715866   1.185   0.555   5.614
  145SAPE   H7R15867   1.286   0.543   5.568
  145SAPE   H7S15868   1.179   0.644   5.680
  145SAPE   C2815869   1.090   0.572   5.496
  145SAPE   H8R15870   1.026   0.661   5.492
  145SAPE   C2915871   1.086   0.492   5.384
  145SAPE   H9R15872   1.013   0.517   5.305
  145SAPE  C21015873   1.166   0.368   5.349
  145SAPE  H10R15874   1.106   0.277   5.328
  145SAPE  H10S15875   1.224   0.337   5.438
  145SAPE  C21115876   1.264   0.399   5.239
  145SAPE  H11R15877   1.364   0.440   5.261
  145SAPE  C21215878   1.235   0.378   5.107
  145SAPE  H12R15879   1.309   0.404   5.031
  145SAPE  C21315880   1.107   0.307   5.064
  145SAPE  H13R15881   1.089   0.361   4.969
  145SAPE  H13S15882   1.028   0.330   5.138
  145SAPE  C21415883   1.120   0.159   5.063
  145SAPE  H14R15884   1.076   0.113   5.153
  145SAPE  C21515885   1.185   0.079   4.978
  145SAPE  H15R15886   1.179   6.811   4.993
  145SAPE  C21615887   1.263   0.129   4.857
  145SAPE  H16R15888   1.369   0.096   4.856
  145SAPE  H16S15889   1.268   0.240   4.856
  145SAPE  C21715890   1.220   0.108   4.716
  145SAPE  H17R15891   1.279   0.165   4.640
  145SAPE  H17S15892   1.117   0.147   4.706
  145SAPE  C21815893   1.213   6.800   4.677
  145SAPE  H18R15894   1.157   6.809   4.581
  145SAPE  H18S15895   1.145   6.759   4.755
  145SAPE  C21915896   1.346   6.737   4.645
  145SAPE  H19R15897   1.414   6.746   4.732
  145SAPE  H19S15898   1.381   6.793   4.555
  145SAPE  C22015899   1.336   6.587   4.592
  145SAPE  H20R15900   1.252   6.577   4.521
  145SAPE  H20S15901   1.315   6.505   4.664
  145SAPE  H20T15902   1.426   6.551   4.536
  145SAPE   C3315903   0.848   0.856   5.851
  145SAPE   H3X15904   0.822   0.805   5.755
  145SAPE   H3Y15905   0.870   0.958   5.815
  145SAPE   C3415906   0.734   0.853   5.952
  145SAPE   H4X15907   0.769   0.910   6.041
  145SAPE   H4Y15908   0.729   0.751   5.996
  145SAPE   C3515909   0.594   0.908   5.903
  145SAPE   H5X15910   0.601   1.019   5.900
  145SAPE   H5Y15911   0.510   0.889   5.973
  145SAPE   C3615912   0.535   0.863   5.771
  145SAPE   H6X15913   0.425   0.864   5.785
  145SAPE   H6Y15914   0.551   0.754   5.755
  145SAPE   C3715915   0.551   0.946   5.648
  145SAPE   H7X15916   0.512   1.049   5.664
  145SAPE   H7Y15917   0.480   0.912   5.569
  145SAPE   C3815918   0.684   0.942   5.568
  145SAPE   H8X15919   0.718   0.836   5.563
  145SAPE   H8Y15920   0.756   0.991   5.636
  145SAPE   C3915921   0.682   1.011   5.431
  145SAPE   H9X15922   0.641   1.113   5.448
  145SAPE   H9Y15923   0.616   0.942   5.375
  145SAPE  C31015924   0.823   1.009   5.367
  145SAPE  H10X15925   0.861   0.905   5.369
  145SAPE  H10Y15926   0.899   1.064   5.426
  145SAPE  C31115927   0.821   1.063   5.226
  145SAPE  H11X15928   0.792   1.170   5.223
  145SAPE  H11Y15929   0.750   1.000   5.167
  145SAPE  C31215930   0.957   1.048   5.146
  145SAPE  H12X15931   0.963   0.939   5.130
  145SAPE  H12Y15932   1.047   1.087   5.199
  145SAPE  C31315933   0.953   1.120   5.010
  145SAPE  H13X15934   1.052   1.126   4.960
  145SAPE  H13Y15935   0.922   1.227   5.011
  145SAPE  C31415936   0.855   1.048   4.911
  145SAPE  H14X15937   0.752   1.075   4.943
  145SAPE  H14Y15938   0.881   0.942   4.892
  145SAPE  C31515939   0.860   1.118   4.772
  145SAPE  H15X15940   0.965   1.111   4.739
  145SAPE  H15Y15941   0.826   1.224   4.777
  145SAPE  C31615942   0.774   1.044   4.676
  145SAPE  H16X15943   0.666   1.055   4.700
  145SAPE  H16Y15944   0.793   0.935   4.680
  145SAPE  C31715945   0.784   1.103   4.537
  145SAPE  H17X15946   0.893   1.114   4.514
  145SAPE  H17Y15947   0.751   1.209   4.540
  145SAPE  C31815948   0.713   1.024   4.427
  145SAPE  H18X15949   0.606   1.050   4.415
  145SAPE  H18Y15950   0.735   0.917   4.450
  145SAPE  H18Z15951   0.764   1.056   4.334
  146SAPE     N15952   4.536   0.001   6.440
  146SAPE   HN115953   4.600   6.785   6.381
  146SAPE   HN215954   4.462   6.774   6.468
  146SAPE   HN315955   4.493   0.080   6.388
  146SAPE   C1215956   4.584   0.056   6.568
  146SAPE  H12A15957   4.695   0.049   6.567
  146SAPE  H12B15958   4.551   6.820   6.642
  146SAPE   C1115959   4.532   0.200   6.586
  146SAPE  H11A15960   4.589   0.268   6.519
  146SAPE  H11B15961   4.555   0.227   6.691
  146SAPE     P15962   4.299   0.289   6.671
  146SAPE   O1315963   4.314   0.216   6.798
  146SAPE   O1415964   4.320   0.432   6.671
  146SAPE   O1215965   4.393   0.217   6.560
  146SAPE   O1115966   4.144   0.262   6.626
  146SAPE    C115967   4.113   0.137   6.559
  146SAPE    HA15968   4.160   0.043   6.596
  146SAPE    HB15969   4.005   0.116   6.575
  146SAPE    C215970   4.139   0.142   6.401
  146SAPE    HS15971   4.246   0.155   6.373
  146SAPE   O2115972   4.058   0.244   6.341
  146SAPE   C2115973   4.116   0.311   6.245
  146SAPE   O2215974   4.215   0.277   6.187
  146SAPE   C2215975   4.019   0.427   6.212
  146SAPE   H2R15976   3.921   0.385   6.180
  146SAPE   H2S15977   4.002   0.493   6.299
  146SAPE    C315978   4.085   0.006   6.336
  146SAPE    HX15979   3.974   6.840   6.343
  146SAPE    HY15980   4.115   6.756   6.393
  146SAPE   O3115981   4.100   6.836   6.193
  146SAPE   C3115982   4.230   6.822   6.165
  146SAPE   O3215983   4.318   6.815   6.253
  146SAPE   C3215984   4.250   6.799   6.019
  146SAPE   H2X15985   4.203   0.040   5.961
  146SAPE   H2Y15986   4.215   6.697   5.992
  146SAPE   C2315987   4.077   0.502   6.085
  146SAPE   H3R15988   4.107   0.431   6.005
  146SAPE   H3S15989   4.168   0.555   6.118
  146SAPE   C2415990   3.972   0.606   6.028
  146SAPE   H4R15991   3.944   0.683   6.103
  146SAPE   H4S15992   3.886   0.547   5.990
  146SAPE   C2515993   4.035   0.681   5.908
  146SAPE   H5R15994   4.105   0.756   5.946
  146SAPE   C2615995   4.014   0.664   5.776
  146SAPE   H6R15996   4.069   0.727   5.704
  146SAPE   C2715997   3.943   0.542   5.719
  146SAPE   H7R15998   3.936   0.463   5.797
  146SAPE   H7S15999   3.991   0.499   5.629
  146SAPE   C2816000   3.795   0.582   5.687
  146SAPE   H8R16001   3.736   0.579   5.780
  146SAPE   C2916002   3.761   0.635   5.574
  146SAPE   H9R16003   3.660   0.673   5.551
  146SAPE  C21016004   3.849   0.653   5.456
  146SAPE  H10R16005   3.838   0.555   5.405
  146SAPE  H10S16006   3.957   0.653   5.485
  146SAPE  C21116007   3.817   0.774   5.375
  146SAPE  H11R16008   3.739   0.845   5.409
  146SAPE  C21216009   3.860   0.793   5.249
  146SAPE  H12R16010   3.819   0.885   5.204
  146SAPE  C21316011   3.949   0.703   5.170
  146SAPE  H13R16012   3.988   0.613   5.222
  146SAPE  H13S16013   4.040   0.762   5.146
  146SAPE  C21416014   3.874   0.657   5.044
  146SAPE  H14R16015   3.810   0.569   5.058
  146SAPE  C21516016   3.874   0.720   4.929
  146SAPE  H15R16017   3.804   0.683   4.853
  146SAPE  C21616018   3.961   0.840   4.894
  146SAPE  H16R16019   4.004   0.893   4.982
  146SAPE  H16S16020   3.889   0.913   4.849
  146SAPE  C21716021   4.073   0.808   4.799
  146SAPE  H17R16022   4.088   0.905   4.747
  146SAPE  H17S16023   4.036   0.741   4.718
  146SAPE  C21816024   4.198   0.747   4.871
  146SAPE  H18R16025   4.188   0.643   4.907
  146SAPE  H18S16026   4.230   0.807   4.959
  146SAPE  C21916027   4.308   0.750   4.767
  146SAPE  H19R16028   4.314   0.850   4.719
  146SAPE  H19S16029   4.284   0.675   4.689
  146SAPE  C22016030   4.432   0.692   4.836
  146SAPE  H20R16031   4.418   0.583   4.826
  146SAPE  H20S16032   4.434   0.717   4.945
  146SAPE  H20T16033   4.523   0.731   4.786
  146SAPE   C3316034   4.403   6.811   5.976
  146SAPE   H3X16035   4.462   6.764   6.057
  146SAPE   H3Y16036   4.424   0.078   5.965
  146SAPE   C3416037   4.418   6.742   5.838
  146SAPE   H4X16038   4.506   6.777   5.779
  146SAPE   H4Y16039   4.330   6.769   5.775
  146SAPE   C3516040   4.436   6.584   5.838
  146SAPE   H5X16041   4.344   6.531   5.872
  146SAPE   H5Y16042   4.517   6.552   5.908
  146SAPE   C3616043   4.450   6.534   5.691
  146SAPE   H6X16044   4.539   6.595   5.661
  146SAPE   H6Y16045   4.355   6.576   5.651
  146SAPE   C3716046   4.450   6.382   5.677
  146SAPE   H7X16047   4.352   6.342   5.712
  146SAPE   H7Y16048   4.535   6.343   5.738
  146SAPE   C3816049   4.472   6.332   5.531
  146SAPE   H8X16050   4.453   6.223   5.533
  146SAPE   H8Y16051   4.580   6.338   5.504
  146SAPE   C3916052   4.372   6.397   5.435
  146SAPE   H9X16053   4.403   6.501   5.411
  146SAPE   H9Y16054   4.269   6.397   5.476
  146SAPE  C31016055   4.384   6.307   5.306
  146SAPE  H10X16056   4.323   6.215   5.316
  146SAPE  H10Y16057   4.489   6.276   5.290
  146SAPE  C31116058   4.337   6.388   5.186
  146SAPE  H11X16059   4.375   6.492   5.194
  146SAPE  H11Y16060   4.229   6.401   5.208
  146SAPE  C31216061   4.366   6.317   5.052
  146SAPE  H12X16062   4.336   6.210   5.053
  146SAPE  H12Y16063   4.476   6.328   5.044
  146SAPE  C31316064   4.298   6.375   4.928
  146SAPE  H13X16065   4.314   6.485   4.923
  146SAPE  H13Y16066   4.194   6.342   4.949
  146SAPE  C31416067   4.358   6.305   4.802
  146SAPE  H14X16068   4.465   6.336   4.805
  146SAPE  H14Y16069   4.327   6.350   4.706
  146SAPE  C31516070   4.337   6.150   4.797
  146SAPE  H15X16071   4.228   6.140   4.811
  146SAPE  H15Y16072   4.389   6.092   4.876
  146SAPE  C31616073   4.363   6.084   4.666
  146SAPE  H16X16074   4.471   6.101   4.643
  146SAPE  H16Y16075   4.290   6.122   4.592
  146SAPE  C31716076   4.358   5.932   4.668
  146SAPE  H17X16077   4.251   5.902   4.660
  146SAPE  H17Y16078   4.375   5.887   4.769
  146SAPE  C31816079   4.437   5.867   4.557
  146SAPE  H18X16080   4.547   5.876   4.570
  146SAPE  H18Y16081   4.421   5.925   4.463
  146SAPE  H18Z16082   4.406   5.762   4.540
  147SAPE     N16083   4.101   5.622   7.019
  147SAPE   HN116084   4.054   5.595   7.108
  147SAPE   HN216085   4.103   5.546   6.949
  147SAPE   HN316086   4.199   5.650   7.040
  147SAPE   C1216087   4.036   5.753   6.969
  147SAPE  H12A16088   4.036   5.825   7.053
  147SAPE  H12B16089   3.934   5.720   6.939
  147SAPE   C1116090   4.106   5.810   6.848
  147SAPE  H11A16091   4.069   5.912   6.825
  147SAPE  H11B16092   4.089   5.749   6.756
  147SAPE     P16093   4.358   5.867   6.788
  147SAPE   O1316094   4.356   6.008   6.751
  147SAPE   O1416095   4.486   5.823   6.851
  147SAPE   O1216096   4.242   5.829   6.884
  147SAPE   O1116097   4.339   5.772   6.667
  147SAPE    C116098   4.351   5.626   6.678
  147SAPE    HA16099   4.323   5.588   6.779
  147SAPE    HB16100   4.274   5.594   6.605
  147SAPE    C216101   4.478   5.567   6.616
  147SAPE    HS16102   4.556   5.613   6.680
  147SAPE   O2116103   4.497   5.595   6.479
  147SAPE   C2116104   4.589   5.682   6.444
  147SAPE   O2216105   4.633   5.764   6.523
  147SAPE   C2216106   4.634   5.651   6.305
  147SAPE   H2R16107   4.671   5.547   6.294
  147SAPE   H2S16108   4.556   5.651   6.226
  147SAPE    C316109   4.474   5.414   6.636
  147SAPE    HX16110   4.384   5.383   6.579
  147SAPE    HY16111   4.453   5.394   6.744
  147SAPE   O3116112   4.592   5.352   6.585
  147SAPE   C3116113   4.579   5.292   6.464
  147SAPE   O3216114   4.481   5.281   6.397
  147SAPE   C3216115   4.714   5.213   6.445
  147SAPE   H2X16116   4.704   5.126   6.515
  147SAPE   H2Y16117   4.804   5.269   6.478
  147SAPE   C2316118   4.735   5.761   6.246
  147SAPE   H3R16119   4.830   5.749   6.303
  147SAPE   H3S16120   4.687   5.858   6.268
  147SAPE   C2416121   4.785   5.761   6.098
  147SAPE   H4R16122   4.848   5.848   6.071
  147SAPE   H4S16123   4.693   5.761   6.035
  147SAPE   C2516124   4.858   5.626   6.067
  147SAPE   H5R16125   4.891   5.550   6.140
  147SAPE   C2616126   4.892   5.586   5.947
  147SAPE   H6R16127   4.930   5.483   5.938
  147SAPE   C2716128   4.887   5.668   5.816
  147SAPE   H7R16129   4.875   5.778   5.826
  147SAPE   H7S16130   4.806   5.625   5.752
  147SAPE   C2816131   5.023   5.670   5.749
  147SAPE   H8R16132   5.109   5.714   5.803
  147SAPE   C2916133   5.053   5.633   5.621
  147SAPE   H9R16134   5.155   5.644   5.580
  147SAPE  C21016135   4.953   5.599   5.518
  147SAPE  H10R16136   4.848   5.604   5.553
  147SAPE  H10S16137   4.974   5.495   5.486
  147SAPE  C21116138   4.954   5.692   5.399
  147SAPE  H11R16139   4.910   5.792   5.406
  147SAPE  C21216140   5.011   5.659   5.279
  147SAPE  H12R16141   5.006   5.731   5.196
  147SAPE  C21316142   5.089   5.533   5.256
  147SAPE  H13R16143   5.022   5.464   5.200
  147SAPE  H13S16144   5.122   5.484   5.350
  147SAPE  C21416145   5.208   5.546   5.165
  147SAPE  H14R16146   5.303   5.568   5.215
  147SAPE  C21516147   5.212   5.540   5.033
  147SAPE  H15R16148   5.309   5.555   4.983
  147SAPE  C21616149   5.111   5.499   4.926
  147SAPE  H16R16150   5.076   5.588   4.869
  147SAPE  H16S16151   5.020   5.465   4.979
  147SAPE  C21716152   5.157   5.392   4.819
  147SAPE  H17R16153   5.072   5.365   4.753
  147SAPE  H17S16154   5.179   5.303   4.882
  147SAPE  C21816155   5.282   5.441   4.741
  147SAPE  H18R16156   5.368   5.435   4.812
  147SAPE  H18S16157   5.271   5.545   4.704
  147SAPE  C21916158   5.318   5.343   4.633
  147SAPE  H19R16159   5.237   5.333   4.559
  147SAPE  H19S16160   5.330   5.239   4.669
  147SAPE  C22016161   5.451   5.370   4.561
  147SAPE  H20R16162   5.541   5.325   4.609
  147SAPE  H20S16163   5.463   5.480   4.552
  147SAPE  H20T16164   5.445   5.312   4.466
  147SAPE   C3316165   4.736   5.163   6.301
  147SAPE   H3X16166   4.635   5.131   6.268
  147SAPE   H3Y16167   4.811   5.080   6.298
  147SAPE   C3416168   4.798   5.257   6.193
  147SAPE   H4X16169   4.895   5.226   6.149
  147SAPE   H4Y16170   4.802   5.358   6.239
  147SAPE   C3516171   4.704   5.265   6.069
  147SAPE   H5X16172   4.736   5.348   6.003
  147SAPE   H5Y16173   4.601   5.291   6.103
  147SAPE   C3616174   4.690   5.140   5.980
  147SAPE   H6X16175   4.638   5.071   6.049
  147SAPE   H6Y16176   4.795   5.106   5.966
  147SAPE   C3716177   4.608   5.155   5.846
  147SAPE   H7X16178   4.506   5.195   5.865
  147SAPE   H7Y16179   4.597   5.060   5.789
  147SAPE   C3816180   4.685   5.232   5.740
  147SAPE   H8X16181   4.792   5.203   5.742
  147SAPE   H8Y16182   4.668   5.334   5.781
  147SAPE   C3916183   4.626   5.226   5.597
  147SAPE   H9X16184   4.519   5.242   5.620
  147SAPE   H9Y16185   4.646   5.123   5.560
  147SAPE  C31016186   4.669   5.336   5.504
  147SAPE  H10X16187   4.779   5.349   5.512
  147SAPE  H10Y16188   4.636   5.438   5.534
  147SAPE  C31116189   4.632   5.322   5.358
  147SAPE  H11X16190   4.521   5.328   5.349
  147SAPE  H11Y16191   4.669   5.221   5.328
  147SAPE  C31216192   4.702   5.420   5.264
  147SAPE  H12X16193   4.811   5.399   5.273
  147SAPE  H12Y16194   4.687   5.525   5.296
  147SAPE  C31316195   4.665   5.397   5.115
  147SAPE  H13X16196   4.554   5.404   5.108
  147SAPE  H13Y16197   4.695   5.299   5.072
  147SAPE  C31416198   4.726   5.512   5.027
  147SAPE  H14X16199   4.831   5.535   5.059
  147SAPE  H14Y16200   4.667   5.605   5.037
  147SAPE  C31516201   4.732   5.483   4.881
  147SAPE  H15X16202   4.796   5.393   4.868
  147SAPE  H15Y16203   4.786   5.555   4.815
  147SAPE  C31616204   4.592   5.468   4.826
  147SAPE  H16X16205   4.540   5.563   4.848
  147SAPE  H16Y16206   4.547   5.385   4.885
  147SAPE  C31716207   4.600   5.439   4.676
  147SAPE  H17X16208   4.648   5.532   4.640
  147SAPE  H17Y16209   4.496   5.422   4.640
  147SAPE  C31816210   4.677   5.314   4.626
  147SAPE  H18X16211   4.784   5.323   4.653
  147SAPE  H18Y16212   4.667   5.319   4.516
  147SAPE  H18Z16213   4.632   5.221   4.665
  148SAPE     N16214   2.342   0.464   6.954
  148SAPE   HN116215   2.351   0.519   7.041
  148SAPE   HN216216   2.435   0.430   6.922
  148SAPE   HN316217   2.311   0.534   6.883
  148SAPE   C1216218   2.249   0.342   6.973
  148SAPE  H12A16219   2.145   0.378   6.983
  148SAPE  H12B16220   2.277   0.299   7.071
  148SAPE   C1116221   2.238   0.248   6.850
  148SAPE  H11A16222   2.331   0.218   6.797
  148SAPE  H11B16223   2.183   0.304   6.772
  148SAPE     P16224   2.223   6.828   6.905
  148SAPE   O1316225   2.365   0.007   6.933
  148SAPE   O1416226   2.142   6.743   7.002
  148SAPE   O1216227   2.153   0.134   6.891
  148SAPE   O1116228   2.199   6.778   6.757
  148SAPE    C116229   2.079   6.808   6.681
  148SAPE    HA16230   1.993   6.760   6.733
  148SAPE    HB16231   2.061   0.074   6.655
  148SAPE    C216232   2.079   6.733   6.542
  148SAPE    HS16233   2.096   6.627   6.567
  148SAPE   O2116234   2.192   6.780   6.461
  148SAPE   C2116235   2.234   6.702   6.366
  148SAPE   O2216236   2.182   6.598   6.335
  148SAPE   C2216237   2.348   6.762   6.291
  148SAPE   H2R16238   2.340   0.032   6.303
  148SAPE   H2S16239   2.446   6.739   6.337
  148SAPE    C316240   1.940   6.757   6.464
  148SAPE    HX16241   1.930   0.026   6.454
  148SAPE    HY16242   1.858   6.715   6.526
  148SAPE   O3116243   1.942   6.686   6.345
  148SAPE   C3116244   1.862   6.730   6.244
  148SAPE   O3216245   1.792   6.830   6.248
  148SAPE   C3216246   1.849   6.604   6.150
  148SAPE   H2X16247   1.810   6.523   6.215
  148SAPE   H2Y16248   1.952   6.578   6.116
  148SAPE   C2316249   2.352   6.702   6.144
  148SAPE   H3R16250   2.332   6.594   6.130
  148SAPE   H3S16251   2.451   6.733   6.105
  148SAPE   C2416252   2.251   6.789   6.063
  148SAPE   H4R16253   2.296   0.040   6.020
  148SAPE   H4S16254   2.175   6.833   6.131
  148SAPE   C2516255   2.177   6.702   5.960
  148SAPE   H5R16256   2.155   6.598   5.985
  148SAPE   C2616257   2.146   6.746   5.835
  148SAPE   H6R16258   2.089   6.675   5.774
  148SAPE   C2716259   2.164   0.036   5.771
  148SAPE   H7R16260   2.197   0.111   5.846
  148SAPE   H7S16261   2.063   0.078   5.750
  148SAPE   C2816262   2.252   0.037   5.642
  148SAPE   H8R16263   2.338   6.809   5.648
  148SAPE   C2916264   2.227   0.111   5.533
  148SAPE   H9R16265   2.285   0.119   5.441
  148SAPE  C21016266   2.104   0.198   5.507
  148SAPE  H10R16267   2.145   0.297   5.477
  148SAPE  H10S16268   2.044   0.213   5.600
  148SAPE  C21116269   2.019   0.129   5.401
  148SAPE  H11R16270   1.952   0.048   5.435
  148SAPE  C21216271   2.031   0.158   5.272
  148SAPE  H12R16272   1.946   0.121   5.212
  148SAPE  C21316273   2.146   0.240   5.211
  148SAPE  H13R16274   2.242   0.191   5.238
  148SAPE  H13S16275   2.150   0.336   5.265
  148SAPE  C21416276   2.121   0.268   5.067
  148SAPE  H14R16277   2.041   0.341   5.045
  148SAPE  C21516278   2.183   0.201   4.965
  148SAPE  H15R16279   2.148   0.213   4.862
  148SAPE  C21616280   2.288   0.092   4.979
  148SAPE  H16R16281   2.245   6.838   4.941
  148SAPE  H16S16282   2.317   0.085   5.086
  148SAPE  C21716283   2.420   0.119   4.900
  148SAPE  H17R16284   2.393   0.131   4.793
  148SAPE  H17S16285   2.482   0.026   4.897
  148SAPE  C21816286   2.498   0.238   4.959
  148SAPE  H18R16287   2.524   0.214   5.065
  148SAPE  H18S16288   2.432   0.327   4.962
  148SAPE  C21916289   2.619   0.288   4.883
  148SAPE  H19R16290   2.596   0.305   4.776
  148SAPE  H19S16291   2.697   0.209   4.875
  148SAPE  C22016292   2.679   0.420   4.934
  148SAPE  H20R16293   2.617   0.509   4.909
  148SAPE  H20S16294   2.782   0.432   4.892
  148SAPE  H20T16295   2.673   0.419   5.045
  148SAPE   C3316296   1.765   6.619   6.027
  148SAPE   H3X16297   1.768   6.717   5.976
  148SAPE   H3Y16298   1.658   6.609   6.057
  148SAPE   C3416299   1.800   6.526   5.907
  148SAPE   H4X16300   1.793   6.422   5.946
  148SAPE   H4Y16301   1.905   6.536   5.874
  148SAPE   C3516302   1.703   6.548   5.794
  148SAPE   H5X16303   1.698   6.655   5.764
  148SAPE   H5Y16304   1.604   6.508   5.827
  148SAPE   C3616305   1.737   6.459   5.668
  148SAPE   H6X16306   1.665   6.483   5.587
  148SAPE   H6Y16307   1.722   6.354   5.700
  148SAPE   C3716308   1.874   6.463   5.596
  148SAPE   H7X16309   1.882   6.384   5.517
  148SAPE   H7Y16310   1.954   6.443   5.671
  148SAPE   C3816311   1.892   6.607   5.527
  148SAPE   H8X16312   1.899   6.684   5.607
  148SAPE   H8Y16313   1.811   6.638   5.457
  148SAPE   C3916314   2.032   6.609   5.459
  148SAPE   H9X16315   2.100   6.533   5.505
  148SAPE   H9Y16316   2.084   6.702   5.489
  148SAPE  C31016317   2.026   6.592   5.305
  148SAPE  H10X16318   1.962   6.670   5.259
  148SAPE  H10Y16319   1.978   6.494   5.287
  148SAPE  C31116320   2.163   6.589   5.234
  148SAPE  H11X16321   2.208   6.503   5.288
  148SAPE  H11Y16322   2.211   6.686   5.258
  148SAPE  C31216323   2.155   6.579   5.082
  148SAPE  H12X16324   2.099   6.663   5.034
  148SAPE  H12Y16325   2.102   6.484   5.060
  148SAPE  C31316326   2.293   6.562   5.011
  148SAPE  H13X16327   2.341   6.474   5.057
  148SAPE  H13Y16328   2.365   6.644   5.036
  148SAPE  C31416329   2.277   6.542   4.856
  148SAPE  H14X16330   2.197   6.606   4.812
  148SAPE  H14Y16331   2.254   6.434   4.840
  148SAPE  C31516332   2.410   6.568   4.777
  148SAPE  H15X16333   2.496   6.513   4.820
  148SAPE  H15Y16334   2.435   6.671   4.810
  148SAPE  C31616335   2.386   6.552   4.629
  148SAPE  H16X16336   2.422   6.639   4.570
  148SAPE  H16Y16337   2.281   6.533   4.598
  148SAPE  C31716338   2.450   6.419   4.574
  148SAPE  H17X16339   2.421   6.405   4.468
  148SAPE  H17Y16340   2.428   6.326   4.632
  148SAPE  C31816341   2.604   6.436   4.561
  148SAPE  H18X16342   2.626   6.529   4.504
  148SAPE  H18Y16343   2.642   6.356   4.494
  148SAPE  H18Z16344   2.657   6.428   4.659
  149SAPE     N16345   2.093   1.879   6.217
  149SAPE   HN116346   2.163   1.866   6.141
  149SAPE   HN216347   2.093   1.972   6.264
  149SAPE   HN316348   2.123   1.829   6.303
  149SAPE   C1216349   1.969   1.837   6.155
  149SAPE  H12A16350   1.953   1.729   6.174
  149SAPE  H12B16351   1.981   1.852   6.045
  149SAPE   C1116352   1.842   1.913   6.210
  149SAPE  H11A16353   1.744   1.891   6.163
  149SAPE  H11B16354   1.864   2.021   6.199
  149SAPE     P16355   1.733   1.775   6.408
  149SAPE   O1316356   1.808   1.686   6.506
  149SAPE   O1416357   1.614   1.853   6.457
  149SAPE   O1216358   1.832   1.874   6.349
  149SAPE   O1116359   1.696   1.696   6.275
  149SAPE    C116360   1.665   1.561   6.282
  149SAPE    HA16361   1.739   1.508   6.346
  149SAPE    HB16362   1.567   1.543   6.332
  149SAPE    C216363   1.666   1.508   6.138
  149SAPE    HS16364   1.630   1.403   6.149
  149SAPE   O2116365   1.805   1.501   6.092
  149SAPE   C2116366   1.892   1.418   6.149
  149SAPE   O2216367   1.861   1.328   6.231
  149SAPE   C2216368   2.037   1.436   6.097
  149SAPE   H2R16369   2.082   1.518   6.157
  149SAPE   H2S16370   2.087   1.338   6.112
  149SAPE    C316371   1.589   1.599   6.036
  149SAPE    HX16372   1.643   1.695   6.037
  149SAPE    HY16373   1.491   1.613   6.085
  149SAPE   O3116374   1.572   1.546   5.897
  149SAPE   C3116375   1.673   1.586   5.817
  149SAPE   O3216376   1.758   1.669   5.838
  149SAPE   C3216377   1.639   1.522   5.677
  149SAPE   H2X16378   1.546   1.567   5.638
  149SAPE   H2Y16379   1.620   1.413   5.688
  149SAPE   C2316380   2.048   1.469   5.943
  149SAPE   H3R16381   2.152   1.482   5.906
  149SAPE   H3S16382   1.997   1.564   5.918
  149SAPE   C2416383   1.997   1.356   5.853
  149SAPE   H4R16384   1.984   1.400   5.752
  149SAPE   H4S16385   1.895   1.342   5.896
  149SAPE   C2516386   2.078   1.233   5.857
  149SAPE   H5R16387   2.128   1.208   5.952
  149SAPE   C2616388   2.105   1.156   5.748
  149SAPE   H6R16389   2.160   1.064   5.769
  149SAPE   C2716390   2.072   1.169   5.607
  149SAPE   H7R16391   1.967   1.204   5.604
  149SAPE   H7S16392   2.060   1.067   5.565
  149SAPE   C2816393   2.154   1.269   5.521
  149SAPE   H8R16394   2.201   1.351   5.578
  149SAPE   C2916395   2.149   1.273   5.384
  149SAPE   H9R16396   2.234   1.325   5.339
  149SAPE  C21016397   2.070   1.188   5.286
  149SAPE  H10R16398   2.050   1.258   5.202
  149SAPE  H10S16399   1.969   1.171   5.329
  149SAPE  C21116400   2.130   1.060   5.239
  149SAPE  H11R16401   2.200   1.025   5.316
  149SAPE  C21216402   2.108   0.990   5.124
  149SAPE  H12R16403   2.165   0.899   5.101
  149SAPE  C21316404   2.018   1.045   5.011
  149SAPE  H13R16405   2.071   1.064   4.915
  149SAPE  H13S16406   1.980   1.145   5.042
  149SAPE  C21416407   1.891   0.968   4.993
  149SAPE  H14R16408   1.823   0.970   5.079
  149SAPE  C21516409   1.853   0.900   4.882
  149SAPE  H15R16410   1.763   0.836   4.882
  149SAPE  C21616411   1.925   0.890   4.755
  149SAPE  H16R16412   2.024   0.938   4.762
  149SAPE  H16S16413   1.883   0.963   4.682
  149SAPE  C21716414   1.917   0.752   4.696
  149SAPE  H17R16415   1.811   0.723   4.686
  149SAPE  H17S16416   1.968   0.674   4.757
  149SAPE  C21816417   1.994   0.743   4.560
  149SAPE  H18R16418   2.093   0.794   4.565
  149SAPE  H18S16419   1.930   0.798   4.487
  149SAPE  C21916420   2.022   0.598   4.507
  149SAPE  H19R16421   2.037   0.609   4.398
  149SAPE  H19S16422   1.932   0.536   4.524
  149SAPE  C22016423   2.145   0.542   4.569
  149SAPE  H20R16424   2.178   0.465   4.496
  149SAPE  H20S16425   2.125   0.505   4.672
  149SAPE  H20T16426   2.224   0.620   4.567
  149SAPE   C3316427   1.751   1.541   5.567
  149SAPE   H3X16428   1.847   1.502   5.607
  149SAPE   H3Y16429   1.765   1.651   5.563
  149SAPE   C3416430   1.709   1.480   5.430
  149SAPE   H4X16431   1.611   1.520   5.395
  149SAPE   H4Y16432   1.708   1.369   5.442
  149SAPE   C3516433   1.814   1.502   5.318
  149SAPE   H5X16434   1.913   1.480   5.365
  149SAPE   H5Y16435   1.812   1.606   5.280
  149SAPE   C3616436   1.794   1.415   5.191
  149SAPE   H6X16437   1.791   1.310   5.228
  149SAPE   H6Y16438   1.883   1.422   5.125
  149SAPE   C3716439   1.667   1.445   5.112
  149SAPE   H7X16440   1.619   1.542   5.135
  149SAPE   H7Y16441   1.588   1.373   5.143
  149SAPE   C3816442   1.671   1.439   4.957
  149SAPE   H8X16443   1.567   1.454   4.922
  149SAPE   H8Y16444   1.700   1.335   4.930
  149SAPE   C3916445   1.763   1.540   4.882
  149SAPE   H9X16446   1.842   1.572   4.953
  149SAPE   H9Y16447   1.711   1.632   4.849
  149SAPE  C31016448   1.828   1.472   4.755
  149SAPE  H10X16449   1.882   1.550   4.697
  149SAPE  H10Y16450   1.742   1.439   4.694
  149SAPE  C31116451   1.912   1.349   4.779
  149SAPE  H11X16452   1.853   1.276   4.838
  149SAPE  H11Y16453   1.993   1.379   4.850
  149SAPE  C31216454   1.976   1.294   4.646
  149SAPE  H12X16455   2.054   1.215   4.657
  149SAPE  H12Y16456   2.022   1.381   4.594
  149SAPE  C31316457   1.866   1.244   4.548
  149SAPE  H13X16458   1.814   1.334   4.510
  149SAPE  H13Y16459   1.802   1.185   4.617
  149SAPE  C31416460   1.909   1.157   4.431
  149SAPE  H14X16461   1.990   1.091   4.469
  149SAPE  H14Y16462   1.961   1.222   4.358
  149SAPE  C31516463   1.797   1.079   4.364
  149SAPE  H15X16464   1.734   1.154   4.311
  149SAPE  H15Y16465   1.745   1.025   4.446
  149SAPE  C31616466   1.853   0.984   4.269
  149SAPE  H16X16467   1.943   0.931   4.306
  149SAPE  H16Y16468   1.889   1.050   4.186
  149SAPE  C31716469   1.740   0.888   4.218
  149SAPE  H17X16470   1.781   0.819   4.141
  149SAPE  H17Y16471   1.656   0.943   4.171
  149SAPE  C31816472   1.679   0.795   4.320
  149SAPE  H18X16473   1.761   0.725   4.347
  149SAPE  H18Y16474   1.604   0.725   4.277
  149SAPE  H18Z16475   1.635   0.846   4.409
  150SAPE     N16476   4.302   2.829   6.459
  150SAPE   HN116477   4.402   2.857   6.469
  150SAPE   HN216478   4.279   2.831   6.358
  150SAPE   HN316479   4.246   2.898   6.513
  150SAPE   C1216480   4.294   2.686   6.514
  150SAPE  H12A16481   4.193   2.653   6.482
  150SAPE  H12B16482   4.311   2.700   6.623
  150SAPE   C1116483   4.407   2.599   6.453
  150SAPE  H11A16484   4.400   2.600   6.342
  150SAPE  H11B16485   4.364   2.500   6.478
  150SAPE     P16486   4.648   2.522   6.490
  150SAPE   O1316487   4.750   2.542   6.603
  150SAPE   O1416488   4.596   2.384   6.461
  150SAPE   O1216489   4.536   2.622   6.510
  150SAPE   O1116490   4.716   2.561   6.352
  150SAPE    C116491   4.693   2.675   6.277
  150SAPE    HA16492   4.604   2.732   6.312
  150SAPE    HB16493   4.768   2.755   6.295
  150SAPE    C216494   4.679   2.655   6.126
  150SAPE    HS16495   4.584   2.600   6.112
  150SAPE   O2116496   4.793   2.587   6.072
  150SAPE   C2116497   4.766   2.518   5.961
  150SAPE   O2216498   4.655   2.524   5.911
  150SAPE   C2216499   4.889   2.452   5.903
  150SAPE   H2R16500   4.952   2.527   5.851
  150SAPE   H2S16501   4.952   2.406   5.981
  150SAPE    C316502   4.669   2.801   6.064
  150SAPE    HX16503   4.774   2.836   6.070
  150SAPE    HY16504   4.609   2.875   6.120
  150SAPE   O3116505   4.637   2.789   5.923
  150SAPE   C3116506   4.509   2.779   5.899
  150SAPE   O3216507   4.422   2.770   5.986
  150SAPE   C3216508   4.488   2.754   5.751
  150SAPE   H2X16509   4.566   2.683   5.716
  150SAPE   H2Y16510   4.496   2.854   5.704
  150SAPE   C2316511   4.846   2.337   5.815
  150SAPE   H3R16512   4.778   2.275   5.878
  150SAPE   H3S16513   4.937   2.277   5.792
  150SAPE   C2416514   4.779   2.383   5.684
  150SAPE   H4R16515   4.709   2.468   5.698
  150SAPE   H4S16516   4.732   2.302   5.624
  150SAPE   C2516517   4.886   2.421   5.584
  150SAPE   H5R16518   4.970   2.351   5.567
  150SAPE   C2616519   4.888   2.527   5.498
  150SAPE   H6R16520   4.975   2.547   5.433
  150SAPE   C2716521   4.784   2.637   5.481
  150SAPE   H7R16522   4.779   2.709   5.566
  150SAPE   H7S16523   4.686   2.584   5.481
  150SAPE   C2816524   4.809   2.724   5.363
  150SAPE   H8R16525   4.894   2.794   5.373
  150SAPE   C2916526   4.745   2.726   5.249
  150SAPE   H9R16527   4.780   2.795   5.171
  150SAPE  C21016528   4.643   2.637   5.201
  150SAPE  H10R16529   4.615   2.562   5.278
  150SAPE  H10S16530   4.681   2.574   5.117
  150SAPE  C21116531   4.517   2.710   5.168
  150SAPE  H11R16532   4.483   2.780   5.246
  150SAPE  C21216533   4.462   2.717   5.041
  150SAPE  H12R16534   4.368   2.771   5.025
  150SAPE  C21316535   4.499   2.625   4.925
  150SAPE  H13R16536   4.407   2.597   4.870
  150SAPE  H13S16537   4.535   2.532   4.974
  150SAPE  C21416538   4.601   2.688   4.836
  150SAPE  H14R16539   4.667   2.762   4.883
  150SAPE  C21516540   4.632   2.655   4.707
  150SAPE  H15R16541   4.696   2.723   4.649
  150SAPE  C21616542   4.558   2.559   4.616
  150SAPE  H16R16543   4.495   2.616   4.544
  150SAPE  H16S16544   4.485   2.496   4.671
  150SAPE  C21716545   4.657   2.473   4.532
  150SAPE  H17R16546   4.726   2.423   4.603
  150SAPE  H17S16547   4.723   2.538   4.472
  150SAPE  C21816548   4.585   2.373   4.437
  150SAPE  H18R16549   4.554   2.292   4.506
  150SAPE  H18S16550   4.654   2.337   4.358
  150SAPE  C21916551   4.451   2.414   4.356
  150SAPE  H19R16552   4.478   2.508   4.304
  150SAPE  H19S16553   4.364   2.432   4.423
  150SAPE  C22016554   4.419   2.304   4.257
  150SAPE  H20R16555   4.389   2.210   4.307
  150SAPE  H20S16556   4.514   2.293   4.199
  150SAPE  H20T16557   4.346   2.337   4.180
  150SAPE   C3316558   4.354   2.676   5.718
  150SAPE   H3X16559   4.273   2.752   5.717
  150SAPE   H3Y16560   4.345   2.589   5.787
  150SAPE   C3416561   4.355   2.641   5.567
  150SAPE   H4X16562   4.462   2.639   5.538
  150SAPE   H4Y16563   4.312   2.727   5.511
  150SAPE   C3516564   4.271   2.524   5.538
  150SAPE   H5X16565   4.164   2.556   5.539
  150SAPE   H5Y16566   4.285   2.444   5.614
  150SAPE   C3616567   4.288   2.453   5.402
  150SAPE   H6X16568   4.395   2.425   5.396
  150SAPE   H6Y16569   4.271   2.539   5.333
  150SAPE   C3716570   4.191   2.343   5.379
  150SAPE   H7X16571   4.097   2.374   5.431
  150SAPE   H7Y16572   4.231   2.260   5.441
  150SAPE   C3816573   4.167   2.287   5.235
  150SAPE   H8X16574   4.095   2.203   5.236
  150SAPE   H8Y16575   4.260   2.233   5.207
  150SAPE   C3916576   4.135   2.394   5.127
  150SAPE   H9X16577   4.219   2.467   5.126
  150SAPE   H9Y16578   4.042   2.448   5.152
  150SAPE  C31016579   4.134   2.339   4.983
  150SAPE  H10X16580   4.058   2.262   4.963
  150SAPE  H10Y16581   4.235   2.294   4.969
  150SAPE  C31116582   4.104   2.440   4.871
  150SAPE  H11X16583   4.180   2.521   4.876
  150SAPE  H11Y16584   4.006   2.490   4.883
  150SAPE  C31216585   4.102   2.375   4.726
  150SAPE  H12X16586   4.032   2.289   4.738
  150SAPE  H12Y16587   4.195   2.325   4.691
  150SAPE  C31316588   4.057   2.468   4.618
  150SAPE  H13X16589   3.946   2.471   4.611
  150SAPE  H13Y16590   4.086   2.416   4.525
  150SAPE  C31416591   4.137   2.599   4.609
  150SAPE  H14X16592   4.245   2.570   4.612
  150SAPE  H14Y16593   4.117   2.653   4.704
  150SAPE  C31516594   4.117   2.683   4.483
  150SAPE  H15X16595   4.114   2.618   4.392
  150SAPE  H15Y16596   4.215   2.733   4.468
  150SAPE  C31616597   4.006   2.781   4.486
  150SAPE  H16X16598   4.005   2.840   4.581
  150SAPE  H16Y16599   3.911   2.724   4.474
  150SAPE  C31716600   4.009   2.877   4.367
  150SAPE  H17X16601   4.055   2.821   4.282
  150SAPE  H17Y16602   4.070   2.963   4.402
  150SAPE  C31816603   3.872   2.935   4.326
  150SAPE  H18X16604   3.838   2.979   4.422
  150SAPE  H18Y16605   3.797   2.867   4.280
  150SAPE  H18Z16606   3.880   3.028   4.266
  151SAPE     N16607   4.979   6.627   6.731
  151SAPE   HN116608   5.040   6.580   6.800
  151SAPE   HN216609   4.943   6.718   6.767
  151SAPE   HN316610   4.900   6.569   6.695
  151SAPE   C1216611   5.065   6.676   6.617
  151SAPE  H12A16612   5.093   6.587   6.557
  151SAPE  H12B16613   5.154   6.730   6.654
  151SAPE   C1116614   4.968   6.761   6.520
  151SAPE  H11A16615   4.890   6.693   6.479
  151SAPE  H11B16616   5.031   6.787   6.433
  151SAPE     P16617   4.965   0.184   6.566
  151SAPE   O1316618   4.874   0.269   6.646
  151SAPE   O1416619   5.107   0.179   6.604
  151SAPE   O1216620   4.911   0.037   6.579
  151SAPE   O1116621   4.953   0.228   6.421
  151SAPE    C116622   4.855   0.189   6.320
  151SAPE    HA16623   4.809   0.096   6.357
  151SAPE    HB16624   4.775   0.265   6.310
  151SAPE    C216625   4.917   0.150   6.185
  151SAPE    HS16626   4.972   0.054   6.197
  151SAPE   O2116627   5.003   0.257   6.140
  151SAPE   C2116628   5.097   0.216   6.060
  151SAPE   O2216629   5.136   0.101   6.054
  151SAPE   C2216630   5.160   0.333   5.981
  151SAPE   H2R16631   5.121   0.437   5.991
  151SAPE   H2S16632   5.266   0.336   6.015
  151SAPE    C316633   4.806   0.148   6.079
  151SAPE    HX16634   4.769   0.253   6.071
  151SAPE    HY16635   4.730   0.079   6.120
  151SAPE   O3116636   4.857   0.091   5.955
  151SAPE   C3116637   4.848   6.799   5.942
  151SAPE   O3216638   4.795   6.720   6.020
  151SAPE   C3216639   4.934   6.752   5.827
  151SAPE   H2X16640   5.035   6.731   5.868
  151SAPE   H2Y16641   4.947   6.839   5.760
  151SAPE   C2316642   5.159   0.304   5.831
  151SAPE   H3R16643   5.202   0.202   5.822
  151SAPE   H3S16644   5.224   0.383   5.787
  151SAPE   C2416645   5.022   0.322   5.763
  151SAPE   H4R16646   4.980   0.418   5.797
  151SAPE   H4S16647   4.960   0.247   5.818
  151SAPE   C2516648   5.034   0.307   5.613
  151SAPE   H5R16649   5.134   0.335   5.574
  151SAPE   C2616650   4.934   0.257   5.536
  151SAPE   H6R16651   4.952   0.244   5.429
  151SAPE   C2716652   4.801   0.203   5.574
  151SAPE   H7R16653   4.809   0.168   5.679
  151SAPE   H7S16654   4.777   0.107   5.523
  151SAPE   C2816655   4.679   0.298   5.555
  151SAPE   H8R16656   4.653   0.321   5.450
  151SAPE   C2916657   4.606   0.362   5.649
  151SAPE   H9R16658   4.528   0.437   5.629
  151SAPE  C21016659   4.626   0.336   5.794
  151SAPE  H10R16660   4.728   0.368   5.824
  151SAPE  H10S16661   4.627   0.226   5.809
  151SAPE  C21116662   4.528   0.382   5.900
  151SAPE  H11R16663   4.581   0.449   5.969
  151SAPE  C21216664   4.393   0.356   5.912
  151SAPE  H12R16665   4.351   0.389   6.008
  151SAPE  C21316666   4.306   0.272   5.817
  151SAPE  H13R16667   4.225   0.224   5.876
  151SAPE  H13S16668   4.378   0.193   5.786
  151SAPE  C21416669   4.247   0.336   5.698
  151SAPE  H14R16670   4.240   0.445   5.709
  151SAPE  C21516671   4.236   0.282   5.574
  151SAPE  H15R16672   4.177   0.335   5.498
  151SAPE  C21616673   4.240   0.132   5.547
  151SAPE  H16R16674   4.153   0.098   5.488
  151SAPE  H16S16675   4.247   0.071   5.640
  151SAPE  C21716676   4.368   0.101   5.471
  151SAPE  H17R16677   4.449   0.106   5.547
  151SAPE  H17S16678   4.386   0.162   5.380
  151SAPE  C21816679   4.375   6.796   5.417
  151SAPE  H18R16680   4.313   6.785   5.326
  151SAPE  H18S16681   4.340   6.729   5.498
  151SAPE  C21916682   4.526   6.770   5.385
  151SAPE  H19R16683   4.537   6.671   5.337
  151SAPE  H19S16684   4.575   6.774   5.484
  151SAPE  C22016685   4.592   0.029   5.290
  151SAPE  H20R16686   4.584   0.131   5.333
  151SAPE  H20S16687   4.524   0.037   5.202
  151SAPE  H20T16688   4.696   0.011   5.256
  151SAPE   C3316689   4.879   6.636   5.747
  151SAPE   H3X16690   4.777   6.610   5.783
  151SAPE   H3Y16691   4.959   6.563   5.770
  151SAPE   C3416692   4.858   6.662   5.597
  151SAPE   H4X16693   4.951   6.711   5.561
  151SAPE   H4Y16694   4.770   6.725   5.571
  151SAPE   C3516695   4.850   6.530   5.521
  151SAPE   H5X16696   4.758   6.474   5.551
  151SAPE   H5Y16697   4.938   6.466   5.539
  151SAPE   C3616698   4.821   6.554   5.375
  151SAPE   H6X16699   4.756   6.638   5.341
  151SAPE   H6Y16700   4.772   6.466   5.330
  151SAPE   C3716701   4.950   6.582   5.298
  151SAPE   H7X16702   5.031   6.514   5.332
  151SAPE   H7Y16703   4.975   6.687   5.324
  151SAPE   C3816704   4.947   6.558   5.144
  151SAPE   H8X16705   4.872   6.623   5.094
  151SAPE   H8Y16706   4.925   6.450   5.130
  151SAPE   C3916707   5.081   6.582   5.078
  151SAPE   H9X16708   5.159   6.525   5.133
  151SAPE   H9Y16709   5.096   6.692   5.076
  151SAPE  C31016710   5.084   6.521   4.935
  151SAPE  H10X16711   4.996   6.547   4.873
  151SAPE  H10Y16712   5.093   6.410   4.943
  151SAPE  C31116713   5.210   6.573   4.867
  151SAPE  H11X16714   5.299   6.516   4.901
  151SAPE  H11Y16715   5.223   6.683   4.877
  151SAPE  C31216716   5.218   6.552   4.720
  151SAPE  H12X16717   5.129   6.608   4.685
  151SAPE  H12Y16718   5.203   6.444   4.700
  151SAPE  C31316719   5.350   6.604   4.663
  151SAPE  H13X16720   5.425   6.529   4.698
  151SAPE  H13Y16721   5.377   6.705   4.701
  151SAPE  C31416722   5.366   6.614   4.504
  151SAPE  H14X16723   5.279   6.667   4.461
  151SAPE  H14Y16724   5.366   6.511   4.463
  151SAPE  C31516725   5.503   6.671   4.471
  151SAPE  H15X16726   5.583   6.608   4.516
  151SAPE  H15Y16727   5.497   6.772   4.518
  151SAPE  C31616728   5.524   6.665   4.319
  151SAPE  H16X16729   5.446   6.734   4.282
  151SAPE  H16Y16730   5.496   6.561   4.291
  151SAPE  C31716731   5.663   6.697   4.270
  151SAPE  H17X16732   5.733   6.614   4.293
  151SAPE  H17Y16733   5.702   6.776   4.338
  151SAPE  C31816734   5.656   6.720   4.123
  151SAPE  H18X16735   5.621   6.824   4.102
  151SAPE  H18Y16736   5.589   6.653   4.066
  151SAPE  H18Z16737   5.753   6.716   4.069
  152SAPE     N16738   6.743   2.161   6.692
  152SAPE   HN116739   6.779   2.258   6.691
  152SAPE   HN216740   6.741   2.124   6.594
  152SAPE   HN316741   6.644   2.176   6.720
  152SAPE   C1216742   6.816   2.050   6.764
  152SAPE  H12A16743   6.763   1.957   6.733
  152SAPE  H12B16744   6.803   2.078   6.871
  152SAPE   C1116745   0.117   2.052   6.719
  152SAPE  H11A16746   0.169   1.962   6.759
  152SAPE  H11B16747   0.169   2.142   6.758
  152SAPE     P16748   0.239   1.973   6.495
  152SAPE   O1316749   0.365   2.049   6.503
  152SAPE   O1416750   0.252   1.829   6.525
  152SAPE   O1216751   0.118   2.039   6.575
  152SAPE   O1116752   0.182   1.977   6.350
  152SAPE    C116753   0.213   2.079   6.259
  152SAPE    HA16754   0.194   2.181   6.299
  152SAPE    HB16755   0.319   2.066   6.227
  152SAPE    C216756   0.135   2.052   6.124
  152SAPE    HS16757   0.028   2.054   6.153
  152SAPE   O2116758   0.180   1.922   6.078
  152SAPE   C2116759   0.091   1.830   6.056
  152SAPE   O2216760   6.813   1.837   6.084
  152SAPE   C2216761   0.156   1.714   5.994
  152SAPE   H2R16762   0.236   1.731   5.918
  152SAPE   H2S16763   0.203   1.656   6.077
  152SAPE    C316764   0.179   2.158   6.018
  152SAPE    HX16765   0.287   2.153   5.995
  152SAPE    HY16766   0.159   2.258   6.063
  152SAPE   O3116767   0.117   2.132   5.892
  152SAPE   C3116768   0.010   2.209   5.871
  152SAPE   O3216769   6.790   2.275   5.953
  152SAPE   C3216770   6.811   2.199   5.721
  152SAPE   H2X16771   0.051   2.145   5.666
  152SAPE   H2Y16772   6.797   2.298   5.673
  152SAPE   C2316773   0.054   1.624   5.926
  152SAPE   H3R16774   6.815   1.600   5.999
  152SAPE   H3S16775   0.107   1.532   5.891
  152SAPE   C2416776   6.824   1.683   5.799
  152SAPE   H4R16777   6.744   1.751   5.837
  152SAPE   H4S16778   6.772   1.610   5.734
  152SAPE   C2516779   0.066   1.771   5.713
  152SAPE   H5R16780   0.088   1.862   5.771
  152SAPE   C2616781   0.111   1.759   5.587
  152SAPE   H6R16782   0.155   1.841   5.528
  152SAPE   C2716783   0.086   1.637   5.506
  152SAPE   H7R16784   0.008   1.665   5.431
  152SAPE   H7S16785   0.043   1.555   5.566
  152SAPE   C2816786   0.214   1.596   5.453
  152SAPE   H8R16787   0.285   1.566   5.531
  152SAPE   C2916788   0.255   1.594   5.323
  152SAPE   H9R16789   0.356   1.556   5.300
  152SAPE  C21016790   0.176   1.623   5.206
  152SAPE  H10R16791   0.069   1.645   5.227
  152SAPE  H10S16792   0.181   1.533   5.142
  152SAPE  C21116793   0.224   1.747   5.137
  152SAPE  H11R16794   0.251   1.827   5.207
  152SAPE  C21216795   0.250   1.764   5.008
  152SAPE  H12R16796   0.283   1.861   4.967
  152SAPE  C21316797   0.221   1.674   4.890
  152SAPE  H13R16798   0.186   1.575   4.927
  152SAPE  H13S16799   0.315   1.676   4.830
  152SAPE  C21416800   0.094   1.729   4.829
  152SAPE  H14R16801   0.022   1.776   4.898
  152SAPE  C21516802   0.068   1.745   4.695
  152SAPE  H15R16803   6.818   1.797   4.660
  152SAPE  C21616804   0.151   1.693   4.581
  152SAPE  H16R16805   0.097   1.615   4.524
  152SAPE  H16S16806   0.252   1.656   4.610
  152SAPE  C21716807   0.192   1.809   4.486
  152SAPE  H17R16808   0.244   1.892   4.540
  152SAPE  H17S16809   0.101   1.858   4.448
  152SAPE  C21816810   0.271   1.748   4.368
  152SAPE  H18R16811   0.213   1.662   4.326
  152SAPE  H18S16812   0.363   1.711   4.418
  152SAPE  C21916813   0.289   1.845   4.255
  152SAPE  H19R16814   0.366   1.920   4.280
  152SAPE  H19S16815   0.190   1.891   4.236
  152SAPE  C22016816   0.337   1.779   4.127
  152SAPE  H20R16817   0.435   1.729   4.143
  152SAPE  H20S16818   0.369   1.854   4.051
  152SAPE  H20T16819   0.264   1.708   4.082
  152SAPE   C3316820   6.684   2.109   5.709
  152SAPE   H3X16821   6.606   2.145   5.778
  152SAPE   H3Y16822   6.717   2.010   5.749
  152SAPE   C3416823   6.623   2.074   5.576
  152SAPE   H4X16824   6.574   2.164   5.532
  152SAPE   H4Y16825   6.542   2.000   5.590
  152SAPE   C3516826   6.729   2.030   5.477
  152SAPE   H5X16827   6.806   1.973   5.534
  152SAPE   H5Y16828   6.769   2.117   5.421
  152SAPE   C3616829   6.663   1.947   5.371
  152SAPE   H6X16830   6.568   1.995   5.338
  152SAPE   H6Y16831   6.645   1.857   5.433
  152SAPE   C3716832   6.762   1.926   5.267
  152SAPE   H7X16833   6.735   1.840   5.202
  152SAPE   H7Y16834   0.019   1.898   5.311
  152SAPE   C3816835   6.785   2.041   5.159
  152SAPE   H8X16836   0.021   2.000   5.091
  152SAPE   H8Y16837   6.821   2.130   5.215
  152SAPE   C3916838   6.654   2.072   5.097
  152SAPE   H9X16839   6.590   2.119   5.174
  152SAPE   H9Y16840   6.619   1.971   5.065
  152SAPE  C31016841   6.664   2.145   4.956
  152SAPE  H10X16842   6.718   2.082   4.883
  152SAPE  H10Y16843   6.720   2.238   4.980
  152SAPE  C31116844   6.524   2.188   4.914
  152SAPE  H11X16845   6.493   2.265   4.989
  152SAPE  H11Y16846   6.447   2.109   4.921
  152SAPE  C31216847   6.524   2.262   4.782
  152SAPE  H12X16848   6.595   2.214   4.711
  152SAPE  H12Y16849   6.580   2.359   4.789
  152SAPE  C31316850   6.385   2.271   4.720
  152SAPE  H13X16851   6.317   2.344   4.770
  152SAPE  H13Y16852   6.334   2.174   4.739
  152SAPE  C31416853   6.369   2.309   4.570
  152SAPE  H14X16854   6.397   2.235   4.492
  152SAPE  H14Y16855   6.429   2.402   4.564
  152SAPE  C31516856   6.223   2.345   4.543
  152SAPE  H15X16857   6.185   2.418   4.618
  152SAPE  H15Y16858   6.164   2.254   4.568
  152SAPE  C31616859   6.194   2.399   4.402
  152SAPE  H16X16860   6.268   2.482   4.392
  152SAPE  H16Y16861   6.091   2.442   4.396
  152SAPE  C31716862   6.218   2.295   4.299
  152SAPE  H17X16863   6.151   2.209   4.318
  152SAPE  H17Y16864   6.321   2.258   4.321
  152SAPE  C31816865   6.218   2.338   4.149
  152SAPE  H18X16866   6.209   2.248   4.083
  152SAPE  H18Y16867   6.305   2.404   4.129
  152SAPE  H18Z16868   6.128   2.400   4.134
  153SAPE     N16869   6.565   1.260   6.625
  153SAPE   HN116870   6.520   1.292   6.713
  153SAPE   HN216871   6.519   1.169   6.603
  153SAPE   HN316872   6.663   1.247   6.659
  153SAPE   C1216873   6.543   1.358   6.510
  153SAPE  H12A16874   6.561   1.296   6.419
  153SAPE  H12B16875   6.620   1.434   6.530
  153SAPE   C1116876   6.401   1.417   6.524
  153SAPE  H11A16877   6.384   1.485   6.437
  153SAPE  H11B16878   6.386   1.471   6.620
  153SAPE     P16879   6.159   1.338   6.542
  153SAPE   O1316880   6.093   1.205   6.562
  153SAPE   O1416881   6.143   1.431   6.657
  153SAPE   O1216882   6.309   1.308   6.517
  153SAPE   O1116883   6.116   1.410   6.411
  153SAPE    C116884   6.173   1.381   6.277
  153SAPE    HA16885   6.200   1.478   6.231
  153SAPE    HB16886   6.262   1.314   6.270
  153SAPE    C216887   6.071   1.323   6.175
  153SAPE    HS16888   6.089   1.350   6.068
  153SAPE   O2116889   5.937   1.378   6.207
  153SAPE   C2116890   5.921   1.496   6.158
  153SAPE   O2216891   5.999   1.559   6.087
  153SAPE   C2216892   5.773   1.520   6.176
  153SAPE   H2R16893   5.708   1.440   6.135
  153SAPE   H2S16894   5.755   1.540   6.284
  153SAPE    C316895   6.058   1.167   6.190
  153SAPE    HX16896   5.994   1.149   6.279
  153SAPE    HY16897   6.155   1.124   6.223
  153SAPE   O3116898   5.993   1.101   6.081
  153SAPE   C3116899   6.082   1.064   5.989
  153SAPE   O3216900   6.202   1.079   5.996
  153SAPE   C3216901   6.013   0.988   5.880
  153SAPE   H2X16902   5.934   1.055   5.840
  153SAPE   H2Y16903   5.962   0.901   5.926
  153SAPE   C2316904   5.712   1.642   6.103
  153SAPE   H3R16905   5.773   1.733   6.121
  153SAPE   H3S16906   5.614   1.660   6.153
  153SAPE   C2416907   5.697   1.614   5.951
  153SAPE   H4R16908   5.629   1.526   5.945
  153SAPE   H4S16909   5.795   1.582   5.909
  153SAPE   C2516910   5.626   1.733   5.884
  153SAPE   H5R16911   5.518   1.747   5.896
  153SAPE   C2616912   5.705   1.819   5.808
  153SAPE   H6R16913   5.656   1.907   5.763
  153SAPE   C2716914   5.851   1.806   5.778
  153SAPE   H7R16915   5.860   1.773   5.673
  153SAPE   H7S16916   5.909   1.730   5.836
  153SAPE   C2816917   5.921   1.934   5.802
  153SAPE   H8R16918   5.970   1.956   5.898
  153SAPE   C2916919   5.943   2.033   5.709
  153SAPE   H9R16920   6.005   2.118   5.740
  153SAPE  C21016921   5.908   2.025   5.564
  153SAPE  H10R16922   5.945   1.934   5.512
  153SAPE  H10S16923   5.968   2.101   5.510
  153SAPE  C21116924   5.770   2.050   5.523
  153SAPE  H11R16925   5.722   2.125   5.588
  153SAPE  C21216926   5.707   2.023   5.413
  153SAPE  H12R16927   5.607   2.068   5.408
  153SAPE  C21316928   5.751   1.941   5.291
  153SAPE  H13R16929   5.699   1.843   5.300
  153SAPE  H13S16930   5.859   1.919   5.295
  153SAPE  C21416931   5.727   2.014   5.161
  153SAPE  H14R16932   5.778   2.111   5.161
  153SAPE  C21516933   5.663   1.971   5.044
  153SAPE  H15R16934   5.667   2.038   4.957
  153SAPE  C21616935   5.578   1.848   5.037
  153SAPE  H16R16936   5.472   1.882   5.042
  153SAPE  H16S16937   5.594   1.776   5.121
  153SAPE  C21716938   5.598   1.774   4.905
  153SAPE  H17R16939   5.548   1.675   4.895
  153SAPE  H17S16940   5.706   1.755   4.887
  153SAPE  C21816941   5.541   1.850   4.788
  153SAPE  H18R16942   5.572   1.956   4.791
  153SAPE  H18S16943   5.430   1.856   4.790
  153SAPE  C21916944   5.575   1.791   4.643
  153SAPE  H19R16945   5.539   1.686   4.645
  153SAPE  H19S16946   5.683   1.787   4.617
  153SAPE  C22016947   5.513   1.875   4.523
  153SAPE  H20R16948   5.535   1.819   4.429
  153SAPE  H20S16949   5.563   1.974   4.516
  153SAPE  H20T16950   5.406   1.899   4.538
  153SAPE   C3316951   6.112   0.946   5.767
  153SAPE   H3X16952   6.084   0.849   5.720
  153SAPE   H3Y16953   6.208   0.917   5.816
  153SAPE   C3416954   6.124   1.048   5.651
  153SAPE   H4X16955   6.193   1.129   5.683
  153SAPE   H4Y16956   6.025   1.098   5.638
  153SAPE   C3516957   6.181   0.991   5.526
  153SAPE   H5X16958   6.108   0.913   5.495
  153SAPE   H5Y16959   6.278   0.936   5.529
  153SAPE   C3616960   6.191   1.090   5.408
  153SAPE   H6X16961   6.270   1.167   5.421
  153SAPE   H6Y16962   6.091   1.137   5.402
  153SAPE   C3716963   6.203   1.033   5.271
  153SAPE   H7X16964   6.137   0.944   5.257
  153SAPE   H7Y16965   6.307   1.001   5.252
  153SAPE   C3816966   6.174   1.133   5.160
  153SAPE   H8X16967   6.201   1.235   5.193
  153SAPE   H8Y16968   6.062   1.134   5.159
  153SAPE   C3916969   6.238   1.112   5.025
  153SAPE   H9X16970   6.240   1.003   5.003
  153SAPE   H9Y16971   6.347   1.133   5.029
  153SAPE  C31016972   6.166   1.177   4.903
  153SAPE  H10X16973   6.175   1.287   4.914
  153SAPE  H10Y16974   6.061   1.142   4.905
  153SAPE  C31116975   6.218   1.119   4.765
  153SAPE  H11X16976   6.155   1.028   4.751
  153SAPE  H11Y16977   6.322   1.083   4.776
  153SAPE  C31216978   6.200   1.206   4.640
  153SAPE  H12X16979   6.281   1.281   4.633
  153SAPE  H12Y16980   6.102   1.254   4.659
  153SAPE  C31316981   6.171   1.127   4.513
  153SAPE  H13X16982   6.088   1.058   4.543
  153SAPE  H13Y16983   6.265   1.074   4.487
  153SAPE  C31416984   6.127   1.214   4.398
  153SAPE  H14X16985   6.058   1.285   4.448
  153SAPE  H14Y16986   6.070   1.154   4.324
  153SAPE  C31516987   6.247   1.292   4.337
  153SAPE  H15X16988   6.306   1.323   4.426
  153SAPE  H15Y16989   6.201   1.381   4.289
  153SAPE  C31616990   6.341   1.218   4.237
  153SAPE  H16X16991   6.288   1.160   4.159
  153SAPE  H16Y16992   6.398   1.146   4.299
  153SAPE  C31716993   6.442   1.303   4.167
  153SAPE  H17X16994   6.465   1.394   4.226
  153SAPE  H17Y16995   6.386   1.337   4.077
  153SAPE  C31816996   6.569   1.232   4.120
  153SAPE  H18X16997   6.622   1.187   4.207
  153SAPE  H18Y16998   6.635   1.304   4.068
  153SAPE  H18Z16999   6.542   1.145   4.056
  154SAPE     N17000   4.100   0.876   6.504
  154SAPE   HN117001   4.063   0.852   6.598
  154SAPE   HN217002   4.140   0.785   6.473
  154SAPE   HN317003   4.169   0.952   6.523
  154SAPE   C1217004   3.993   0.937   6.421
  154SAPE  H12A17005   4.028   1.017   6.353
  154SAPE  H12B17006   3.915   0.978   6.489
  154SAPE   C1117007   3.939   0.826   6.335
  154SAPE  H11A17008   4.021   0.771   6.282
  154SAPE  H11B17009   3.875   0.863   6.252
  154SAPE     P17010   3.719   0.739   6.464
  154SAPE   O1317011   3.684   0.607   6.526
  154SAPE   O1417012   3.710   0.868   6.540
  154SAPE   O1217013   3.869   0.735   6.420
  154SAPE   O1117014   3.652   0.752   6.324
  154SAPE    C117015   3.674   0.650   6.224
  154SAPE    HA17016   3.696   0.700   6.127
  154SAPE    HB17017   3.764   0.589   6.246
  154SAPE    C217018   3.546   0.562   6.200
  154SAPE    HS17019   3.504   0.534   6.299
  154SAPE   O2117020   3.588   0.438   6.132
  154SAPE   C2117021   3.649   0.343   6.193
  154SAPE   O2217022   3.666   0.331   6.317
  154SAPE   C2217023   3.667   0.233   6.089
  154SAPE   H2R17024   3.564   0.200   6.066
  154SAPE   H2S17025   3.709   0.275   5.995
  154SAPE    C317026   3.441   0.629   6.111
  154SAPE    HX17027   3.404   0.709   6.179
  154SAPE    HY17028   3.358   0.559   6.086
  154SAPE   O3117029   3.502   0.683   5.995
  154SAPE   C3117030   3.422   0.774   5.940
  154SAPE   O3217031   3.309   0.802   5.982
  154SAPE   C3217032   3.494   0.830   5.817
  154SAPE   H2X17033   3.520   0.746   5.750
  154SAPE   H2Y17034   3.587   0.874   5.858
  154SAPE   C2317035   3.763   0.119   6.144
  154SAPE   H3R17036   3.700   0.062   6.215
  154SAPE   H3S17037   3.852   0.160   6.196
  154SAPE   C2417038   3.828   0.035   6.032
  154SAPE   H4R17039   3.747   0.001   5.965
  154SAPE   H4S17040   3.881   6.784   6.066
  154SAPE   C2517041   3.929   0.113   5.952
  154SAPE   H5R17042   4.005   0.169   6.008
  154SAPE   C2617043   3.925   0.136   5.820
  154SAPE   H6R17044   4.007   0.202   5.789
  154SAPE   C2717045   3.838   0.088   5.708
  154SAPE   H7R17046   3.794   6.832   5.741
  154SAPE   H7S17047   3.898   0.070   5.616
  154SAPE   C2817048   3.722   0.189   5.693
  154SAPE   H8R17049   3.693   0.240   5.786
  154SAPE   C2917050   3.663   0.224   5.576
  154SAPE   H9R17051   3.577   0.292   5.586
  154SAPE  C21017052   3.674   0.157   5.439
  154SAPE  H10R17053   3.588   0.093   5.407
  154SAPE  H10S17054   3.765   0.093   5.440
  154SAPE  C21117055   3.683   0.271   5.340
  154SAPE  H11R17056   3.644   0.369   5.369
  154SAPE  C21217057   3.720   0.260   5.215
  154SAPE  H12R17058   3.713   0.347   5.148
  154SAPE  C21317059   3.781   0.139   5.150
  154SAPE  H13R17060   3.767   0.040   5.199
  154SAPE  H13S17061   3.890   0.158   5.139
  154SAPE  C21417062   3.718   0.115   5.006
  154SAPE  H14R17063   3.636   0.042   5.002
  154SAPE  C21517064   3.762   0.169   4.885
  154SAPE  H15R17065   3.727   0.113   4.797
  154SAPE  C21617066   3.878   0.273   4.888
  154SAPE  H16R17067   3.880   0.318   4.990
  154SAPE  H16S17068   3.856   0.360   4.822
  154SAPE  C21717069   4.026   0.227   4.862
  154SAPE  H17R17070   4.027   0.212   4.752
  154SAPE  H17S17071   4.031   0.124   4.904
  154SAPE  C21817072   4.133   0.331   4.902
  154SAPE  H18R17073   4.105   0.366   5.004
  154SAPE  H18S17074   4.135   0.415   4.830
  154SAPE  C21917075   4.274   0.276   4.894
  154SAPE  H19R17076   4.352   0.355   4.903
  154SAPE  H19S17077   4.298   0.232   4.795
  154SAPE  C22017078   4.300   0.182   5.013
  154SAPE  H20R17079   4.408   0.156   5.019
  154SAPE  H20S17080   4.237   0.090   5.006
  154SAPE  H20T17081   4.271   0.229   5.109
  154SAPE   C3317082   3.408   0.944   5.754
  154SAPE   H3X17083   3.383   1.009   5.841
  154SAPE   H3Y17084   3.305   0.922   5.721
  154SAPE   C3417085   3.470   1.029   5.642
  154SAPE   H4X17086   3.576   1.056   5.659
  154SAPE   H4Y17087   3.415   1.123   5.619
  154SAPE   C3517088   3.470   0.949   5.514
  154SAPE   H5X17089   3.369   0.908   5.489
  154SAPE   H5Y17090   3.534   0.860   5.533
  154SAPE   C3617091   3.522   1.038   5.398
  154SAPE   H6X17092   3.625   1.068   5.425
  154SAPE   H6Y17093   3.455   1.127   5.397
  154SAPE   C3717094   3.511   0.973   5.263
  154SAPE   H7X17095   3.403   0.979   5.238
  154SAPE   H7Y17096   3.560   0.874   5.271
  154SAPE   C3817097   3.577   1.062   5.157
  154SAPE   H8X17098   3.680   1.087   5.189
  154SAPE   H8Y17099   3.522   1.158   5.155
  154SAPE   C3917100   3.567   0.987   5.022
  154SAPE   H9X17101   3.463   0.950   5.015
  154SAPE   H9Y17102   3.629   0.894   5.018
  154SAPE  C31017103   3.593   1.075   4.898
  154SAPE  H10X17104   3.698   1.109   4.892
  154SAPE  H10Y17105   3.526   1.163   4.907
  154SAPE  C31117106   3.547   1.008   4.765
  154SAPE  H11X17107   3.439   1.002   4.739
  154SAPE  H11Y17108   3.581   0.903   4.774
  154SAPE  C31217109   3.622   1.072   4.650
  154SAPE  H12X17110   3.731   1.058   4.664
  154SAPE  H12Y17111   3.596   1.178   4.628
  154SAPE  C31317112   3.583   0.992   4.522
  154SAPE  H13X17113   3.474   0.972   4.521
  154SAPE  H13Y17114   3.625   0.889   4.524
  154SAPE  C31417115   3.607   1.061   4.386
  154SAPE  H14X17116   3.550   1.156   4.395
  154SAPE  H14Y17117   3.573   0.996   4.303
  154SAPE  C31517118   3.755   1.095   4.349
  154SAPE  H15X17119   3.820   1.006   4.361
  154SAPE  H15Y17120   3.800   1.161   4.426
  154SAPE  C31617121   3.776   1.123   4.202
  154SAPE  H16X17122   3.754   1.040   4.131
  154SAPE  H16Y17123   3.884   1.148   4.191
  154SAPE  C31717124   3.699   1.243   4.142
  154SAPE  H17X17125   3.688   1.332   4.208
  154SAPE  H17Y17126   3.596   1.209   4.120
  154SAPE  C31817127   3.769   1.300   4.015
  154SAPE  H18X17128   3.859   1.346   4.060
  154SAPE  H18Y17129   3.713   1.384   3.968
  154SAPE  H18Z17130   3.801   1.236   3.930
  155SAPE     N17131   5.194   6.001   6.341
  155SAPE   HN117132   5.115   5.979   6.405
  155SAPE   HN217133   5.282   5.954   6.371
  155SAPE   HN317134   5.220   6.102   6.341
  155SAPE   C1217135   5.178   5.923   6.206
  155SAPE  H12A17136   5.268   5.937   6.142
  155SAPE  H12B17137   5.092   5.979   6.162
  155SAPE   C1117138   5.150   5.771   6.227
  155SAPE  H11A17139   5.162   5.723   6.128
  155SAPE  H11B17140   5.049   5.755   6.270
  155SAPE     P17141   5.363   5.633   6.301
  155SAPE   O1317142   5.453   5.656   6.417
  155SAPE   O1417143   5.334   5.495   6.263
  155SAPE   O1217144   5.228   5.708   6.327
  155SAPE   O1117145   5.417   5.716   6.175
  155SAPE    C117146   5.513   5.657   6.086
  155SAPE    HA17147   5.612   5.707   6.098
  155SAPE    HB17148   5.542   5.552   6.107
  155SAPE    C217149   5.464   5.660   5.934
  155SAPE    HS17150   5.560   5.651   5.878
  155SAPE   O2117151   5.405   5.790   5.905
  155SAPE   C2117152   5.491   5.894   5.902
  155SAPE   O2217153   5.612   5.885   5.920
  155SAPE   C2217154   5.423   6.018   5.846
  155SAPE   H2R17155   5.407   6.077   5.939
  155SAPE   H2S17156   5.496   6.066   5.777
  155SAPE    C317157   5.368   5.541   5.904
  155SAPE    HX17158   5.271   5.556   5.955
  155SAPE    HY17159   5.399   5.446   5.952
  155SAPE   O3117160   5.343   5.522   5.759
  155SAPE   C3117161   5.368   5.401   5.708
  155SAPE   O3217162   5.400   5.301   5.768
  155SAPE   C3217163   5.387   5.421   5.556
  155SAPE   H2X17164   5.441   5.517   5.536
  155SAPE   H2Y17165   5.286   5.451   5.520
  155SAPE   C2317166   5.293   5.999   5.767
  155SAPE   H3R17167   5.245   6.098   5.746
  155SAPE   H3S17168   5.229   5.933   5.829
  155SAPE   C2417169   5.320   5.928   5.634
  155SAPE   H4R17170   5.217   5.908   5.600
  155SAPE   H4S17171   5.357   5.823   5.641
  155SAPE   C2517172   5.395   6.004   5.534
  155SAPE   H5R17173   5.500   6.025   5.560
  155SAPE   C2617174   5.356   6.021   5.407
  155SAPE   H6R17175   5.422   6.083   5.345
  155SAPE   C2717176   5.220   5.995   5.343
  155SAPE   H7R17177   5.171   5.900   5.375
  155SAPE   H7S17178   5.242   5.978   5.235
  155SAPE   C2817179   5.122   6.103   5.367
  155SAPE   H8R17180   5.098   6.130   5.471
  155SAPE   C2917181   5.073   6.176   5.265
  155SAPE   H9R17182   5.020   6.270   5.290
  155SAPE  C21017183   5.089   6.149   5.121
  155SAPE  H10R17184   5.000   6.180   5.061
  155SAPE  H10S17185   5.093   6.039   5.116
  155SAPE  C21117186   5.210   6.221   5.062
  155SAPE  H11R17187   5.246   6.309   5.117
  155SAPE  C21217188   5.265   6.181   4.944
  155SAPE  H12R17189   5.353   6.234   4.905
  155SAPE  C21317190   5.224   6.061   4.866
  155SAPE  H13R17191   5.146   5.998   4.915
  155SAPE  H13S17192   5.318   6.002   4.859
  155SAPE  C21417193   5.184   6.103   4.727
  155SAPE  H14R17194   5.110   6.183   4.711
  155SAPE  C21517195   5.227   6.055   4.611
  155SAPE  H15R17196   5.180   6.101   4.522
  155SAPE  C21617197   5.323   5.939   4.584
  155SAPE  H16R17198   5.419   5.935   4.640
  155SAPE  H16S17199   5.356   5.941   4.478
  155SAPE  C21717200   5.260   5.807   4.604
  155SAPE  H17R17201   5.230   5.807   4.711
  155SAPE  H17S17202   5.324   5.718   4.589
  155SAPE  C21817203   5.147   5.784   4.500
  155SAPE  H18R17204   5.183   5.797   4.395
  155SAPE  H18S17205   5.070   5.864   4.508
  155SAPE  C21917206   5.075   5.646   4.515
  155SAPE  H19R17207   5.050   5.640   4.623
  155SAPE  H19S17208   5.141   5.559   4.494
  155SAPE  C22017209   4.946   5.621   4.435
  155SAPE  H20R17210   4.890   5.533   4.473
  155SAPE  H20S17211   4.947   5.617   4.324
  155SAPE  H20T17212   4.885   5.712   4.451
  155SAPE   C3317213   5.446   5.302   5.492
  155SAPE   H3X17214   5.390   5.210   5.517
  155SAPE   H3Y17215   5.549   5.284   5.531
  155SAPE   C3417216   5.454   5.310   5.336
  155SAPE   H4X17217   5.532   5.388   5.317
  155SAPE   H4Y17218   5.362   5.361   5.300
  155SAPE   C3517219   5.473   5.175   5.268
  155SAPE   H5X17220   5.388   5.106   5.290
  155SAPE   H5Y17221   5.569   5.133   5.306
  155SAPE   C3617222   5.487   5.191   5.119
  155SAPE   H6X17223   5.562   5.270   5.095
  155SAPE   H6Y17224   5.390   5.224   5.076
  155SAPE   C3717225   5.532   5.063   5.049
  155SAPE   H7X17226   5.482   4.979   5.103
  155SAPE   H7Y17227   5.641   5.049   5.067
  155SAPE   C3817228   5.485   5.061   4.899
  155SAPE   H8X17229   5.503   5.158   4.848
  155SAPE   H8Y17230   5.374   5.059   4.894
  155SAPE   C3917231   5.548   4.936   4.828
  155SAPE   H9X17232   5.540   4.847   4.894
  155SAPE   H9Y17233   5.655   4.958   4.806
  155SAPE  C31017234   5.467   4.891   4.701
  155SAPE  H10X17235   5.360   4.914   4.718
  155SAPE  H10Y17236   5.476   4.781   4.690
  155SAPE  C31117237   5.496   4.967   4.573
  155SAPE  H11X17238   5.603   4.996   4.580
  155SAPE  H11Y17239   5.431   5.057   4.576
  155SAPE  C31217240   5.460   4.886   4.451
  155SAPE  H12X17241   5.367   4.928   4.408
  155SAPE  H12Y17242   5.438   4.780   4.477
  155SAPE  C31317243   5.574   4.873   4.348
  155SAPE  H13X17244   5.663   4.828   4.397
  155SAPE  H13Y17245   5.598   4.974   4.309
  155SAPE  C31417246   5.532   4.794   4.218
  155SAPE  H14X17247   5.476   4.867   4.155
  155SAPE  H14Y17248   5.462   4.707   4.220
  155SAPE  C31517249   5.654   4.754   4.121
  155SAPE  H15X17250   5.741   4.820   4.140
  155SAPE  H15Y17251   5.636   4.785   4.016
  155SAPE  C31617252   5.707   4.612   4.147
  155SAPE  H16X17253   5.616   4.552   4.126
  155SAPE  H16Y17254   5.741   4.600   4.252
  155SAPE  C31717255   5.824   4.580   4.054
  155SAPE  H17X17256   5.901   4.648   4.097
  155SAPE  H17Y17257   5.803   4.610   3.949
  155SAPE  C31817258   5.883   4.431   4.048
  155SAPE  H18X17259   5.907   4.413   4.155
  155SAPE  H18Y17260   5.974   4.419   3.985
  155SAPE  H18Z17261   5.819   4.345   4.019
  156SAPE     N17262   0.515   0.614   7.029
  156SAPE   HN117263   0.538   0.712   7.002
  156SAPE   HN217264   0.567   0.583   7.113
  156SAPE   HN317265   0.546   0.550   6.954
  156SAPE   C1217266   0.371   0.608   7.033
  156SAPE  H12A17267   0.341   0.707   7.072
  156SAPE  H12B17268   0.340   0.523   7.098
  156SAPE   C1117269   0.315   0.584   6.885
  156SAPE  H11A17270   0.310   0.677   6.825
  156SAPE  H11B17271   0.211   0.552   6.904
  156SAPE     P17272   0.352   0.329   6.790
  156SAPE   O1317273   0.461   0.242   6.814
  156SAPE   O1417274   0.222   0.302   6.859
  156SAPE   O1217275   0.389   0.479   6.824
  156SAPE   O1117276   0.326   0.339   6.637
  156SAPE    C117277   0.384   0.440   6.555
  156SAPE    HA17278   0.348   0.544   6.575
  156SAPE    HB17279   0.493   0.427   6.570
  156SAPE    C217280   0.360   0.410   6.399
  156SAPE    HS17281   0.388   0.506   6.350
  156SAPE   O2117282   0.224   0.366   6.385
  156SAPE   C2117283   0.135   0.454   6.402
  156SAPE   O2217284   0.157   0.576   6.394
  156SAPE   C2217285   6.837   0.388   6.419
  156SAPE   H2R17286   6.825   0.290   6.369
  156SAPE   H2S17287   6.822   0.374   6.529
  156SAPE    C317288   0.458   0.304   6.341
  156SAPE    HX17289   0.443   0.216   6.408
  156SAPE    HY17290   0.557   0.352   6.334
  156SAPE   O3117291   0.407   0.285   6.208
  156SAPE   C3117292   0.364   0.163   6.164
  156SAPE   O3217293   0.335   0.073   6.236
  156SAPE   C3217294   0.363   0.160   6.015
  156SAPE   H2X17295   0.454   0.105   5.983
  156SAPE   H2Y17296   0.360   0.262   5.972
  156SAPE   C2317297   6.730   0.490   6.371
  156SAPE   H3R17298   6.746   0.589   6.418
  156SAPE   H3S17299   6.634   0.456   6.415
  156SAPE   C2417300   6.715   0.496   6.215
  156SAPE   H4R17301   6.605   0.497   6.204
  156SAPE   H4S17302   6.752   0.404   6.165
  156SAPE   C2517303   6.768   0.615   6.144
  156SAPE   H5R17304   6.711   0.708   6.156
  156SAPE   C2617305   0.037   0.621   6.070
  156SAPE   H6R17306   0.077   0.712   6.021
  156SAPE   C2717307   0.129   0.499   6.042
  156SAPE   H7R17308   0.102   0.453   5.945
  156SAPE   H7S17309   0.114   0.431   6.129
  156SAPE   C2817310   0.273   0.555   6.032
  156SAPE   H8R17311   0.322   0.568   6.129
  156SAPE   C2917312   0.338   0.590   5.916
  156SAPE   H9R17313   0.437   0.638   5.921
  156SAPE  C21017314   0.281   0.576   5.777
  156SAPE  H10R17315   0.315   0.652   5.704
  156SAPE  H10S17316   0.171   0.592   5.776
  156SAPE  C21117317   0.316   0.444   5.712
  156SAPE  H11R17318   0.364   0.364   5.770
  156SAPE  C21217319   0.298   0.430   5.584
  156SAPE  H12R17320   0.328   0.330   5.548
  156SAPE  C21317321   0.227   0.517   5.486
  156SAPE  H13R17322   0.279   0.614   5.475
  156SAPE  H13S17323   0.124   0.538   5.524
  156SAPE  C21417324   0.227   0.455   5.347
  156SAPE  H14R17325   0.223   0.345   5.340
  156SAPE  C21517326   0.238   0.519   5.235
  156SAPE  H15R17327   0.231   0.463   5.140
  156SAPE  C21617328   0.240   0.673   5.214
  156SAPE  H16R17329   0.235   0.732   5.308
  156SAPE  H16S17330   0.152   0.695   5.151
  156SAPE  C21717331   0.367   0.722   5.146
  156SAPE  H17R17332   0.443   0.730   5.227
  156SAPE  H17S17333   0.351   0.831   5.129
  156SAPE  C21817334   0.413   0.660   5.011
  156SAPE  H18R17335   0.323   0.614   4.965
  156SAPE  H18S17336   0.478   0.570   5.023
  156SAPE  C21917337   0.468   0.763   4.915
  156SAPE  H19R17338   0.391   0.842   4.900
  156SAPE  H19S17339   0.468   0.713   4.816
  156SAPE  C22017340   0.603   0.822   4.949
  156SAPE  H20R17341   0.588   0.881   5.041
  156SAPE  H20S17342   0.643   0.888   4.869
  156SAPE  H20T17343   0.685   0.748   4.963
  156SAPE   C3317344   0.230   0.101   5.955
  156SAPE   H3X17345   0.159   0.182   5.980
  156SAPE   H3Y17346   0.185   0.016   6.011
  156SAPE   C3417347   0.243   0.059   5.804
  156SAPE   H4X17348   0.342   0.009   5.795
  156SAPE   H4Y17349   0.241   0.158   5.754
  156SAPE   C3517350   0.146   6.794   5.746
  156SAPE   H5X17351   0.044   6.836   5.739
  156SAPE   H5Y17352   0.152   6.715   5.824
  156SAPE   C3617353   0.175   6.721   5.614
  156SAPE   H6X17354   0.101   6.639   5.605
  156SAPE   H6Y17355   0.273   6.671   5.628
  156SAPE   C3717356   0.174   6.819   5.501
  156SAPE   H7X17357   0.262   0.046   5.501
  156SAPE   H7Y17358   0.098   0.059   5.514
  156SAPE   C3817359   0.168   6.761   5.360
  156SAPE   H8X17360   0.073   6.711   5.334
  156SAPE   H8Y17361   0.250   6.686   5.353
  156SAPE   C3917362   0.191   0.035   5.264
  156SAPE   H9X17363   0.280   0.095   5.292
  156SAPE   H9Y17364   0.103   0.103   5.254
  156SAPE  C31017365   0.225   6.832   5.123
  156SAPE  H10X17366   0.149   6.764   5.080
  156SAPE  H10Y17367   0.325   6.784   5.127
  156SAPE  C31117368   0.241   0.117   5.034
  156SAPE  H11X17369   0.295   0.198   5.087
  156SAPE  H11Y17370   0.137   0.157   5.027
  156SAPE  C31217371   0.302   0.093   4.892
  156SAPE  H12X17372   0.246   0.023   4.825
  156SAPE  H12Y17373   0.407   0.059   4.892
  156SAPE  C31317374   0.299   0.219   4.806
  156SAPE  H13X17375   0.363   0.294   4.857
  156SAPE  H13Y17376   0.190   0.242   4.816
  156SAPE  C31417377   0.336   0.202   4.659
  156SAPE  H14X17378   0.300   0.102   4.626
  156SAPE  H14Y17379   0.447   0.193   4.662
  156SAPE  C31517380   0.286   0.311   4.566
  156SAPE  H15X17381   0.327   0.409   4.597
  156SAPE  H15Y17382   0.178   0.317   4.590
  156SAPE  C31617383   0.314   0.283   4.416
  156SAPE  H16X17384   0.422   0.304   4.406
  156SAPE  H16Y17385   0.252   0.355   4.359
  156SAPE  C31717386   0.266   0.146   4.358
  156SAPE  H17X17387   0.155   0.140   4.357
  156SAPE  H17Y17388   0.314   0.081   4.435
  156SAPE  C31817389   0.329   0.112   4.227
  156SAPE  H18X17390   0.279   0.173   4.149
  156SAPE  H18Y17391   0.328   0.004   4.198
  156SAPE  H18Z17392   0.434   0.146   4.230
  157SAPE     N17393   1.186   6.237   6.437
  157SAPE   HN117394   1.164   6.339   6.436
  157SAPE   HN217395   1.226   6.199   6.525
  157SAPE   HN317396   1.238   6.214   6.349
  157SAPE   C1217397   1.060   6.147   6.419
  157SAPE  H12A17398   0.997   6.163   6.509
  157SAPE  H12B17399   1.101   6.044   6.412
  157SAPE   C1117400   0.987   6.177   6.285
  157SAPE  H11A17401   0.915   6.097   6.258
  157SAPE  H11B17402   1.060   6.180   6.201
  157SAPE     P17403   0.783   6.323   6.308
  157SAPE   O1317404   0.746   6.271   6.441
  157SAPE   O1417405   0.750   6.463   6.286
  157SAPE   O1217406   0.931   6.309   6.291
  157SAPE   O1117407   0.712   6.242   6.193
  157SAPE    C117408   0.617   6.137   6.217
  157SAPE    HA17409   0.610   6.081   6.121
  157SAPE    HB17410   0.652   6.068   6.296
  157SAPE    C217411   0.476   6.194   6.257
  157SAPE    HS17412   0.480   6.212   6.367
  157SAPE   O2117413   0.378   6.103   6.218
  157SAPE   C2117414   0.265   6.105   6.295
  157SAPE   O2217415   0.248   6.174   6.394
  157SAPE   C2217416   0.145   6.038   6.242
  157SAPE   H2R17417   0.155   5.933   6.276
  157SAPE   H2S17418   0.054   6.075   6.294
  157SAPE    C317419   0.432   6.333   6.194
  157SAPE    HX17420   0.505   6.407   6.235
  157SAPE    HY17421   0.331   6.363   6.230
  157SAPE   O3117422   0.430   6.328   6.052
  157SAPE   C3117423   0.366   6.423   5.988
  157SAPE   O3217424   0.299   6.513   6.040
  157SAPE   C3217425   0.398   6.404   5.838
  157SAPE   H2X17426   0.491   6.344   5.830
  157SAPE   H2Y17427   0.415   6.507   5.799
  157SAPE   C2317428   0.126   6.044   6.088
  157SAPE   H3R17429   0.213   6.007   6.030
  157SAPE   H3S17430   0.102   6.147   6.056
  157SAPE   C2417431   0.019   5.943   6.050
  157SAPE   H4R17432   0.025   5.851   6.111
  157SAPE   H4S17433   0.036   5.908   5.946
  157SAPE   C2517434   6.723   5.995   6.054
  157SAPE   H5R17435   6.679   5.990   6.155
  157SAPE   C2617436   6.649   6.034   5.952
  157SAPE   H6R17437   6.547   6.067   5.978
  157SAPE   C2717438   6.686   6.040   5.800
  157SAPE   H7R17439   6.752   5.954   5.774
  157SAPE   H7S17440   6.735   6.139   5.785
  157SAPE   C2817441   6.572   6.041   5.706
  157SAPE   H8R17442   6.499   5.963   5.731
  157SAPE   C2917443   6.540   6.120   5.599
  157SAPE   H9R17444   6.447   6.100   5.542
  157SAPE  C21017445   6.620   6.236   5.550
  157SAPE  H10R17446   6.722   6.236   5.594
  157SAPE  H10S17447   6.577   6.329   5.593
  157SAPE  C21117448   6.623   6.250   5.399
  157SAPE  H11R17449   6.603   6.156   5.345
  157SAPE  C21217450   6.636   6.367   5.336
  157SAPE  H12R17451   6.626   6.357   5.227
  157SAPE  C21317452   6.666   6.506   5.397
  157SAPE  H13R17453   6.768   6.536   5.368
  157SAPE  H13S17454   6.679   6.490   5.506
  157SAPE  C21417455   6.551   6.604   5.363
  157SAPE  H14R17456   6.468   6.609   5.435
  157SAPE  C21517457   6.554   6.687   5.259
  157SAPE  H15R17458   6.482   6.770   5.259
  157SAPE  C21617459   6.666   6.703   5.161
  157SAPE  H16R17460   6.724   6.608   5.152
  157SAPE  H16S17461   6.742   6.778   5.193
  157SAPE  C21717462   6.614   6.734   5.016
  157SAPE  H17R17463   6.556   6.829   5.023
  157SAPE  H17S17464   6.548   6.655   4.975
  157SAPE  C21817465   6.736   6.763   4.924
  157SAPE  H18R17466   6.800   6.673   4.929
  157SAPE  H18S17467   6.793   0.011   4.961
  157SAPE  C21917468   6.694   6.786   4.774
  157SAPE  H19R17469   6.667   6.691   4.723
  157SAPE  H19S17470   6.780   6.840   4.727
  157SAPE  C22017471   6.580   0.040   4.758
  157SAPE  H20R17472   6.572   0.081   4.655
  157SAPE  H20S17473   6.601   0.121   4.831
  157SAPE  H20T17474   6.484   6.827   4.775
  157SAPE   C3317475   0.289   6.333   5.763
  157SAPE   H3X17476   0.189   6.377   5.780
  157SAPE   H3Y17477   0.286   6.224   5.787
  157SAPE   C3417478   0.327   6.347   5.614
  157SAPE   H4X17479   0.400   6.263   5.613
  157SAPE   H4Y17480   0.368   6.449   5.605
  157SAPE   C3517481   0.210   6.327   5.517
  157SAPE   H5X17482   0.135   6.409   5.526
  157SAPE   H5Y17483   0.164   6.232   5.552
  157SAPE   C3617484   0.246   6.318   5.361
  157SAPE   H6X17485   0.328   6.244   5.349
  157SAPE   H6Y17486   0.287   6.414   5.324
  157SAPE   C3717487   0.131   6.292   5.270
  157SAPE   H7X17488   0.058   6.375   5.271
  157SAPE   H7Y17489   0.079   6.195   5.289
  157SAPE   C3817490   0.188   6.285   5.122
  157SAPE   H8X17491   0.264   6.206   5.137
  157SAPE   H8Y17492   0.239   6.380   5.096
  157SAPE   C3917493   0.088   6.241   5.010
  157SAPE   H9X17494   0.032   6.151   5.045
  157SAPE   H9Y17495   0.157   6.211   4.929
  157SAPE  C31017496   6.831   6.352   4.974
  157SAPE  H10X17497   0.049   6.441   4.941
  157SAPE  H10Y17498   6.773   6.380   5.064
  157SAPE  C31117499   6.738   6.312   4.850
  157SAPE  H11X17500   6.687   6.402   4.810
  157SAPE  H11Y17501   6.654   6.248   4.883
  157SAPE  C31217502   6.808   6.247   4.731
  157SAPE  H12X17503   6.824   6.139   4.755
  157SAPE  H12Y17504   0.062   6.297   4.701
  157SAPE  C31317505   6.717   6.237   4.607
  157SAPE  H13X17506   6.697   6.345   4.593
  157SAPE  H13Y17507   6.626   6.177   4.629
  157SAPE  C31417508   6.790   6.180   4.487
  157SAPE  H14X17509   0.014   6.092   4.508
  157SAPE  H14Y17510   0.022   6.258   4.454
  157SAPE  C31517511   6.700   6.163   4.363
  157SAPE  H15X17512   6.689   6.264   4.319
  157SAPE  H15Y17513   6.600   6.138   4.407
  157SAPE  C31617514   6.753   6.055   4.264
  157SAPE  H16X17515   6.665   6.029   4.201
  157SAPE  H16Y17516   6.783   5.959   4.311
  157SAPE  C31717517   0.037   6.117   4.184
  157SAPE  H17X17518   0.115   6.153   4.255
  157SAPE  H17Y17519   0.012   6.208   4.127
  157SAPE  C31817520   0.091   6.008   4.100
  157SAPE  H18X17521   0.174   6.048   4.037
  157SAPE  H18Y17522   0.020   5.959   4.031
  157SAPE  H18Z17523   0.141   5.928   4.159
  158SAPE     N17524   2.634   4.714   6.761
  158SAPE   HN117525   2.654   4.632   6.821
  158SAPE   HN217526   2.539   4.748   6.785
  158SAPE   HN317527   2.646   4.695   6.660
  158SAPE   C1217528   2.722   4.824   6.791
  158SAPE  H12A17529   2.828   4.799   6.771
  158SAPE  H12B17530   2.710   4.836   6.901
  158SAPE   C1117531   2.676   4.941   6.701
  158SAPE  H11A17532   2.653   4.903   6.599
  158SAPE  H11B17533   2.758   5.015   6.691
  158SAPE     P17534   2.519   5.133   6.780
  158SAPE   O1317535   2.372   5.150   6.789
  158SAPE   O1417536   2.602   5.154   6.900
  158SAPE   O1217537   2.550   4.987   6.735
  158SAPE   O1117538   2.568   5.227   6.666
  158SAPE    C117539   2.510   5.248   6.541
  158SAPE    HA17540   2.447   5.168   6.497
  158SAPE    HB17541   2.446   5.337   6.558
  158SAPE    C217542   2.619   5.297   6.444
  158SAPE    HS17543   2.678   5.374   6.497
  158SAPE   O2117544   2.567   5.351   6.323
  158SAPE   C2117545   2.543   5.482   6.333
  158SAPE   O2217546   2.527   5.548   6.435
  158SAPE   C2217547   2.536   5.537   6.190
  158SAPE   H2R17548   2.565   5.457   6.118
  158SAPE   H2S17549   2.431   5.569   6.174
  158SAPE    C317550   2.715   5.180   6.418
  158SAPE    HX17551   2.666   5.107   6.350
  158SAPE    HY17552   2.737   5.137   6.518
  158SAPE   O3117553   2.841   5.232   6.365
  158SAPE   C3117554   2.905   5.147   6.290
  158SAPE   O3217555   2.875   5.033   6.272
  158SAPE   C3217556   3.035   5.227   6.243
  158SAPE   H2X17557   3.114   5.211   6.319
  158SAPE   H2Y17558   3.008   5.335   6.240
  158SAPE   C2317559   2.631   5.655   6.167
  158SAPE   H3R17560   2.633   5.719   6.258
  158SAPE   H3S17561   2.589   5.716   6.085
  158SAPE   C2417562   2.768   5.599   6.126
  158SAPE   H4R17563   2.754   5.545   6.030
  158SAPE   H4S17564   2.804   5.519   6.194
  158SAPE   C2517565   2.868   5.722   6.104
  158SAPE   H5R17566   2.944   5.729   6.183
  158SAPE   C2617567   2.868   5.810   6.004
  158SAPE   H6R17568   2.950   5.883   6.004
  158SAPE   C2717569   2.778   5.801   5.880
  158SAPE   H7R17570   2.735   5.698   5.884
  158SAPE   H7S17571   2.842   5.803   5.790
  158SAPE   C2817572   2.686   5.921   5.879
  158SAPE   H8R17573   2.606   5.927   5.954
  158SAPE   C2917574   2.683   6.022   5.796
  158SAPE   H9R17575   2.594   6.086   5.808
  158SAPE  C21017576   2.777   6.045   5.676
  158SAPE  H10R17577   2.715   6.025   5.585
  158SAPE  H10S17578   2.863   5.974   5.675
  158SAPE  C21117579   2.831   6.188   5.657
  158SAPE  H11R17580   2.887   6.229   5.743
  158SAPE  C21217581   2.799   6.277   5.563
  158SAPE  H12R17582   2.859   6.369   5.566
  158SAPE  C21317583   2.707   6.252   5.441
  158SAPE  H13R17584   2.705   6.144   5.417
  158SAPE  H13S17585   2.762   6.294   5.354
  158SAPE  C21417586   2.567   6.322   5.437
  158SAPE  H14R17587   2.499   6.256   5.493
  158SAPE  C21517588   2.515   6.418   5.357
  158SAPE  H15R17589   2.408   6.440   5.373
  158SAPE  C21617590   2.592   6.506   5.262
  158SAPE  H16R17591   2.567   6.485   5.156
  158SAPE  H16S17592   2.703   6.497   5.269
  158SAPE  C21717593   2.566   6.653   5.290
  158SAPE  H17R17594   2.578   6.668   5.400
  158SAPE  H17S17595   2.466   6.682   5.252
  158SAPE  C21817596   2.670   6.737   5.232
  158SAPE  H18R17597   2.645   6.760   5.126
  158SAPE  H18S17598   2.766   6.682   5.222
  158SAPE  C21917599   2.706   0.023   5.321
  158SAPE  H19R17600   2.781   0.083   5.264
  158SAPE  H19S17601   2.750   6.825   5.415
  158SAPE  C22017602   2.584   0.101   5.373
  158SAPE  H20R17603   2.505   0.031   5.408
  158SAPE  H20S17604   2.540   0.152   5.284
  158SAPE  H20T17605   2.599   0.167   5.460
  158SAPE   C3317606   3.109   5.183   6.111
  158SAPE   H3X17607   3.143   5.077   6.117
  158SAPE   H3Y17608   3.207   5.236   6.117
  158SAPE   C3417609   3.024   5.211   5.985
  158SAPE   H4X17610   2.981   5.313   5.992
  158SAPE   H4Y17611   2.929   5.152   5.982
  158SAPE   C3517612   3.108   5.198   5.852
  158SAPE   H5X17613   3.105   5.088   5.833
  158SAPE   H5Y17614   3.202   5.251   5.875
  158SAPE   C3617615   3.037   5.260   5.728
  158SAPE   H6X17616   3.036   5.368   5.754
  158SAPE   H6Y17617   2.935   5.221   5.707
  158SAPE   C3717618   3.118   5.245   5.605
  158SAPE   H7X17619   3.140   5.138   5.581
  158SAPE   H7Y17620   3.221   5.286   5.613
  158SAPE   C3817621   3.056   5.317   5.482
  158SAPE   H8X17622   3.029   5.422   5.509
  158SAPE   H8Y17623   2.957   5.272   5.461
  158SAPE   C3917624   3.144   5.318   5.360
  158SAPE   H9X17625   3.129   5.212   5.328
  158SAPE   H9Y17626   3.253   5.329   5.380
  158SAPE  C31017627   3.091   5.415   5.250
  158SAPE  H10X17628   3.095   5.519   5.290
  158SAPE  H10Y17629   2.983   5.392   5.241
  158SAPE  C31117630   3.179   5.413   5.122
  158SAPE  H11X17631   3.210   5.318   5.072
  158SAPE  H11Y17632   3.274   5.464   5.148
  158SAPE  C31217633   3.123   5.505   5.014
  158SAPE  H12X17634   3.108   5.609   5.051
  158SAPE  H12Y17635   3.024   5.459   4.993
  158SAPE  C31317636   3.209   5.518   4.884
  158SAPE  H13X17637   3.234   5.416   4.847
  158SAPE  H13Y17638   3.307   5.558   4.916
  158SAPE  C31417639   3.158   5.604   4.771
  158SAPE  H14X17640   3.159   5.712   4.798
  158SAPE  H14Y17641   3.063   5.570   4.724
  158SAPE  C31517642   3.247   5.584   4.654
  158SAPE  H15X17643   3.233   5.482   4.612
  158SAPE  H15Y17644   3.353   5.606   4.678
  158SAPE  C31617645   3.227   5.685   4.542
  158SAPE  H16X17646   3.247   5.788   4.580
  158SAPE  H16Y17647   3.130   5.672   4.490
  158SAPE  C31717648   3.340   5.673   4.430
  158SAPE  H17X17649   3.330   5.579   4.373
  158SAPE  H17Y17650   3.439   5.676   4.479
  158SAPE  C31817651   3.324   5.792   4.334
  158SAPE  H18X17652   3.416   5.823   4.279
  158SAPE  H18Y17653   3.302   5.879   4.399
  158SAPE  H18Z17654   3.247   5.770   4.258
  159SAPE     N17655   5.347   2.685   2.404
  159SAPE   HN117656   5.396   2.595   2.419
  159SAPE   HN217657   5.421   2.753   2.434
  159SAPE   HN317658   5.261   2.701   2.460
  159SAPE   C1217659   5.311   2.689   2.258
  159SAPE  H12A17660   5.207   2.649   2.258
  159SAPE  H12B17661   5.382   2.618   2.210
  159SAPE   C1117662   5.298   2.826   2.205
  159SAPE  H11A17663   5.197   2.861   2.235
  159SAPE  H11B17664   5.294   2.830   2.094
  159SAPE     P17665   5.540   2.925   2.181
  159SAPE   O1317666   5.604   2.798   2.215
  159SAPE   O1417667   5.525   2.949   2.039
  159SAPE   O1217668   5.402   2.918   2.253
  159SAPE   O1117669   5.617   3.038   2.258
  159SAPE    C117670   5.759   3.041   2.274
  159SAPE    HA17671   5.812   3.003   2.184
  159SAPE    HB17672   5.789   3.147   2.286
  159SAPE    C217673   5.798   2.962   2.405
  159SAPE    HS17674   5.772   2.856   2.385
  159SAPE   O2117675   5.728   3.024   2.517
  159SAPE   C2117676   5.621   2.969   2.564
  159SAPE   O2217677   5.559   2.875   2.514
  159SAPE   C2217678   5.553   3.052   2.673
  159SAPE   H2R17679   5.588   3.032   2.776
  159SAPE   H2S17680   5.569   3.161   2.664
  159SAPE    C317681   5.947   2.973   2.430
  159SAPE    HX17682   6.008   2.948   2.340
  159SAPE    HY17683   5.974   2.897   2.506
  159SAPE   O3117684   5.976   3.110   2.472
  159SAPE   C3117685   5.985   3.149   2.606
  159SAPE   O3217686   5.965   3.069   2.697
  159SAPE   C3217687   6.002   3.303   2.616
  159SAPE   H2X17688   5.905   3.333   2.660
  159SAPE   H2Y17689   6.004   3.344   2.513
  159SAPE   C2317690   5.404   3.026   2.669
  159SAPE   H3R17691   5.380   2.920   2.695
  159SAPE   H3S17692   5.362   3.057   2.572
  159SAPE   C2417693   5.334   3.122   2.769
  159SAPE   H4R17694   5.347   3.219   2.717
  159SAPE   H4S17695   5.396   3.135   2.860
  159SAPE   C2517696   5.193   3.093   2.810
  159SAPE   H5R17697   5.122   3.072   2.728
  159SAPE   C2617698   5.136   3.095   2.930
  159SAPE   H6R17699   5.032   3.060   2.932
  159SAPE   C2717700   5.197   3.128   3.065
  159SAPE   H7R17701   5.130   3.155   3.149
  159SAPE   H7S17702   5.263   3.215   3.044
  159SAPE   C2817703   5.295   3.011   3.106
  159SAPE   H8R17704   5.359   2.981   3.021
  159SAPE   C2917705   5.316   2.962   3.226
  159SAPE   H9R17706   5.388   2.880   3.221
  159SAPE  C21017707   5.259   3.003   3.362
  159SAPE  H10R17708   5.236   3.111   3.376
  159SAPE  H10S17709   5.332   2.985   3.444
  159SAPE  C21117710   5.134   2.933   3.404
  159SAPE  H11R17711   5.071   2.903   3.319
  159SAPE  C21217712   5.079   2.916   3.527
  159SAPE  H12R17713   4.985   2.860   3.537
  159SAPE  C21317714   5.145   2.960   3.663
  159SAPE  H13R17715   5.107   3.062   3.683
  159SAPE  H13S17716   5.256   2.961   3.660
  159SAPE  C21417717   5.099   2.886   3.789
  159SAPE  H14R17718   4.990   2.870   3.798
  159SAPE  C21517719   5.179   2.833   3.880
  159SAPE  H15R17720   5.126   2.773   3.955
  159SAPE  C21617721   5.332   2.832   3.878
  159SAPE  H16R17722   5.365   2.930   3.919
  159SAPE  H16S17723   5.380   2.815   3.779
  159SAPE  C21717724   5.388   2.710   3.959
  159SAPE  H17R17725   5.491   2.679   3.930
  159SAPE  H17S17726   5.323   2.625   3.932
  159SAPE  C21817727   5.385   2.714   4.106
  159SAPE  H18R17728   5.288   2.740   4.154
  159SAPE  H18S17729   5.452   2.793   4.147
  159SAPE  C21917730   5.434   2.581   4.176
  159SAPE  H19R17731   5.539   2.562   4.146
  159SAPE  H19S17732   5.374   2.494   4.142
  159SAPE  C22017733   5.420   2.595   4.329
  159SAPE  H20R17734   5.507   2.657   4.360
  159SAPE  H20S17735   5.432   2.494   4.375
  159SAPE  H20T17736   5.335   2.647   4.378
  159SAPE   C3317737   6.123   3.344   2.701
  159SAPE   H3X17738   6.143   3.453   2.690
  159SAPE   H3Y17739   6.211   3.305   2.645
  159SAPE   C3417740   6.123   3.301   2.844
  159SAPE   H4X17741   6.169   3.201   2.855
  159SAPE   H4Y17742   6.015   3.296   2.869
  159SAPE   C3517743   6.204   3.400   2.932
  159SAPE   H5X17744   6.186   3.371   3.037
  159SAPE   H5Y17745   6.167   3.505   2.933
  159SAPE   C3617746   6.353   3.391   2.905
  159SAPE   H6X17747   6.369   3.412   2.797
  159SAPE   H6Y17748   6.374   3.285   2.932
  159SAPE   C3717749   6.429   3.486   2.990
  159SAPE   H7X17750   6.395   3.470   3.094
  159SAPE   H7Y17751   6.398   3.592   2.977
  159SAPE   C3817752   6.582   3.475   2.976
  159SAPE   H8X17753   6.612   3.526   2.882
  159SAPE   H8Y17754   6.593   3.365   2.959
  159SAPE   C3917755   6.658   3.547   3.091
  159SAPE   H9X17756   6.593   3.627   3.132
  159SAPE   H9Y17757   6.755   3.584   3.052
  159SAPE  C31017758   6.687   3.458   3.214
  159SAPE  H10X17759   6.739   3.363   3.192
  159SAPE  H10Y17760   6.586   3.426   3.249
  159SAPE  C31117761   6.752   3.519   3.340
  159SAPE  H11X17762   6.689   3.610   3.351
  159SAPE  H11Y17763   0.021   3.531   3.331
  159SAPE  C31217764   6.712   3.450   3.472
  159SAPE  H12X17765   6.745   3.344   3.468
  159SAPE  H12Y17766   6.605   3.447   3.502
  159SAPE  C31317767   6.796   3.505   3.592
  159SAPE  H13X17768   6.781   3.614   3.606
  159SAPE  H13Y17769   0.062   3.495   3.562
  159SAPE  C31417770   6.787   3.442   3.728
  159SAPE  H14X17771   6.774   3.334   3.702
  159SAPE  H14Y17772   6.691   3.476   3.774
  159SAPE  C31517773   0.067   3.462   3.820
  159SAPE  H15X17774   0.104   3.563   3.791
  159SAPE  H15Y17775   0.145   3.384   3.806
  159SAPE  C31617776   0.039   3.465   3.973
  159SAPE  H16X17777   6.835   3.365   3.994
  159SAPE  H16Y17778   6.799   3.541   3.981
  159SAPE  C31717779   0.165   3.511   4.039
  159SAPE  H17X17780   0.196   3.607   3.992
  159SAPE  H17Y17781   0.246   3.435   4.029
  159SAPE  C31817782   0.123   3.517   4.179
  159SAPE  H18X17783   0.049   3.600   4.193
  159SAPE  H18Y17784   0.199   3.543   4.256
  159SAPE  H18Z17785   0.079   3.421   4.213
  160SAPE     N17786   5.332   1.991   2.298
  160SAPE   HN117787   5.280   1.945   2.220
  160SAPE   HN217788   5.392   2.069   2.263
  160SAPE   HN317789   5.378   1.911   2.347
  160SAPE   C1217790   5.222   2.058   2.374
  160SAPE  H12A17791   5.270   2.094   2.467
  160SAPE  H12B17792   5.144   1.986   2.409
  160SAPE   C1117793   5.171   2.182   2.298
  160SAPE  H11A17794   5.266   2.239   2.287
  160SAPE  H11B17795   5.096   2.232   2.363
  160SAPE     P17796   4.972   2.083   2.170
  160SAPE   O1317797   4.877   2.174   2.106
  160SAPE   O1417798   4.982   1.946   2.121
  160SAPE   O1217799   5.112   2.148   2.176
  160SAPE   O1117800   4.923   2.063   2.323
  160SAPE    C117801   4.808   2.128   2.373
  160SAPE    HA17802   4.823   2.238   2.370
  160SAPE    HB17803   4.726   2.093   2.308
  160SAPE    C217804   4.777   2.077   2.518
  160SAPE    HS17805   4.701   2.148   2.558
  160SAPE   O2117806   4.893   2.060   2.601
  160SAPE   C2117807   4.951   2.174   2.637
  160SAPE   O2217808   4.913   2.286   2.615
  160SAPE   C2217809   5.072   2.134   2.723
  160SAPE   H2R17810   5.132   2.065   2.660
  160SAPE   H2S17811   5.128   2.230   2.729
  160SAPE    C317812   4.702   1.941   2.512
  160SAPE    HX17813   4.770   1.878   2.452
  160SAPE    HY17814   4.612   1.951   2.447
  160SAPE   O3117815   4.674   1.890   2.641
  160SAPE   C3117816   4.748   1.804   2.696
  160SAPE   O3217817   4.843   1.742   2.644
  160SAPE   C3217818   4.683   1.780   2.830
  160SAPE   H2X17819   4.587   1.724   2.825
  160SAPE   H2Y17820   4.664   1.882   2.870
  160SAPE   C2317821   5.024   2.069   2.852
  160SAPE   H3R17822   5.103   2.008   2.901
  160SAPE   H3S17823   4.942   1.998   2.830
  160SAPE   C2417824   4.947   2.161   2.954
  160SAPE   H4R17825   4.914   2.082   3.025
  160SAPE   H4S17826   4.854   2.198   2.905
  160SAPE   C2517827   5.017   2.277   3.020
  160SAPE   H5R17828   5.017   2.368   2.958
  160SAPE   C2617829   5.069   2.280   3.141
  160SAPE   H6R17830   5.112   2.375   3.175
  160SAPE   C2717831   5.069   2.172   3.253
  160SAPE   H7R17832   5.142   2.094   3.224
  160SAPE   H7S17833   4.967   2.127   3.245
  160SAPE   C2817834   5.095   2.212   3.395
  160SAPE   H8R17835   5.106   2.320   3.413
  160SAPE   C2917836   5.101   2.129   3.499
  160SAPE   H9R17837   5.112   2.167   3.602
  160SAPE  C21017838   5.101   1.979   3.477
  160SAPE  H10R17839   5.162   1.936   3.559
  160SAPE  H10S17840   5.153   1.960   3.381
  160SAPE  C21117841   4.969   1.905   3.483
  160SAPE  H11R17842   4.914   1.899   3.388
  160SAPE  C21217843   4.901   1.857   3.592
  160SAPE  H12R17844   4.801   1.813   3.576
  160SAPE  C21317845   4.955   1.853   3.725
  160SAPE  H13R17846   4.945   1.953   3.773
  160SAPE  H13S17847   5.064   1.831   3.727
  160SAPE  C21417848   4.880   1.755   3.823
  160SAPE  H14R17849   4.813   1.808   3.892
  160SAPE  C21517850   4.905   1.625   3.839
  160SAPE  H15R17851   4.848   1.572   3.916
  160SAPE  C21617852   4.995   1.547   3.748
  160SAPE  H16R17853   5.028   1.619   3.670
  160SAPE  H16S17854   4.931   1.465   3.708
  160SAPE  C21717855   5.128   1.494   3.807
  160SAPE  H17R17856   5.179   1.429   3.733
  160SAPE  H17S17857   5.106   1.415   3.881
  160SAPE  C21817858   5.221   1.606   3.863
  160SAPE  H18R17859   5.160   1.674   3.925
  160SAPE  H18S17860   5.261   1.659   3.774
  160SAPE  C21917861   5.343   1.549   3.954
  160SAPE  H19R17862   5.392   1.471   3.892
  160SAPE  H19S17863   5.304   1.510   4.050
  160SAPE  C22017864   5.457   1.649   3.987
  160SAPE  H20R17865   5.491   1.713   3.903
  160SAPE  H20S17866   5.544   1.588   4.016
  160SAPE  H20T17867   5.426   1.718   4.069
  160SAPE   C3317868   4.791   1.729   2.933
  160SAPE   H3X17869   4.872   1.806   2.937
  160SAPE   H3Y17870   4.844   1.643   2.887
  160SAPE   C3417871   4.733   1.697   3.071
  160SAPE   H4X17872   4.678   1.785   3.109
  160SAPE   H4Y17873   4.813   1.665   3.141
  160SAPE   C3517874   4.639   1.576   3.069
  160SAPE   H5X17875   4.698   1.504   3.008
  160SAPE   H5Y17876   4.550   1.609   3.010
  160SAPE   C3617877   4.590   1.506   3.207
  160SAPE   H6X17878   4.534   1.574   3.275
  160SAPE   H6Y17879   4.677   1.483   3.272
  160SAPE   C3717880   4.505   1.380   3.190
  160SAPE   H7X17881   4.570   1.315   3.126
  160SAPE   H7Y17882   4.412   1.401   3.134
  160SAPE   C3817883   4.476   1.307   3.313
  160SAPE   H8X17884   4.566   1.276   3.370
  160SAPE   H8Y17885   4.422   1.211   3.309
  160SAPE   C3917886   4.392   1.402   3.400
  160SAPE   H9X17887   4.331   1.469   3.336
  160SAPE   H9Y17888   4.463   1.475   3.445
  160SAPE  C31017889   4.302   1.333   3.502
  160SAPE  H10X17890   4.227   1.269   3.451
  160SAPE  H10Y17891   4.260   1.422   3.553
  160SAPE  C31117892   4.368   1.242   3.616
  160SAPE  H11X17893   4.452   1.295   3.666
  160SAPE  H11Y17894   4.401   1.148   3.566
  160SAPE  C31217895   4.266   1.194   3.720
  160SAPE  H12X17896   4.315   1.114   3.778
  160SAPE  H12Y17897   4.172   1.156   3.674
  160SAPE  C31317898   4.227   1.299   3.821
  160SAPE  H13X17899   4.124   1.287   3.860
  160SAPE  H13Y17900   4.245   1.397   3.771
  160SAPE  C31417901   4.325   1.296   3.941
  160SAPE  H14X17902   4.429   1.314   3.907
  160SAPE  H14Y17903   4.340   1.189   3.967
  160SAPE  C31517904   4.277   1.391   4.049
  160SAPE  H15X17905   4.170   1.372   4.069
  160SAPE  H15Y17906   4.280   1.499   4.022
  160SAPE  C31617907   4.343   1.365   4.182
  160SAPE  H16X17908   4.441   1.414   4.200
  160SAPE  H16Y17909   4.366   1.258   4.200
  160SAPE  C31717910   4.256   1.398   4.303
  160SAPE  H17X17911   4.310   1.348   4.386
  160SAPE  H17Y17912   4.156   1.351   4.307
  160SAPE  C31817913   4.237   1.549   4.313
  160SAPE  H18X17914   4.205   1.600   4.220
  160SAPE  H18Y17915   4.336   1.597   4.333
  160SAPE  H18Z17916   4.174   1.572   4.402
  161SAPE     N17917   2.435   3.645   1.796
  161SAPE   HN117918   2.531   3.686   1.801
  161SAPE   HN217919   2.447   3.547   1.830
  161SAPE   HN317920   2.420   3.641   1.694
  161SAPE   C1217921   2.328   3.723   1.871
  161SAPE  H12A17922   2.247   3.652   1.898
  161SAPE  H12B17923   2.296   3.791   1.789
  161SAPE   C1117924   2.385   3.801   1.995
  161SAPE  H11A17925   2.445   3.739   2.065
  161SAPE  H11B17926   2.298   3.824   2.060
  161SAPE     P17927   2.459   4.057   2.003
  161SAPE   O1317928   2.587   4.124   1.991
  161SAPE   O1417929   2.342   4.115   1.931
  161SAPE   O1217930   2.470   3.903   1.953
  161SAPE   O1117931   2.431   4.058   2.160
  161SAPE    C117932   2.528   4.013   2.254
  161SAPE    HA17933   2.468   3.977   2.340
  161SAPE    HB17934   2.588   3.931   2.210
  161SAPE    C217935   2.612   4.131   2.310
  161SAPE    HS17936   2.662   4.174   2.221
  161SAPE   O2117937   2.691   4.088   2.420
  161SAPE   C2117938   2.795   4.160   2.449
  161SAPE   O2217939   2.851   4.243   2.377
  161SAPE   C2217940   2.857   4.121   2.585
  161SAPE   H2R17941   2.958   4.077   2.572
  161SAPE   H2S17942   2.856   4.209   2.653
  161SAPE    C317943   2.520   4.245   2.367
  161SAPE    HX17944   2.439   4.263   2.292
  161SAPE    HY17945   2.574   4.341   2.382
  161SAPE   O3117946   2.433   4.213   2.477
  161SAPE   C3117947   2.464   4.254   2.597
  161SAPE   O3217948   2.567   4.306   2.636
  161SAPE   C3217949   2.337   4.252   2.676
  161SAPE   H2X17950   2.290   4.151   2.683
  161SAPE   H2Y17951   2.263   4.316   2.623
  161SAPE   C2317952   2.780   4.003   2.656
  161SAPE   H3R17953   2.792   3.908   2.600
  161SAPE   H3S17954   2.670   4.018   2.662
  161SAPE   C2417955   2.826   3.983   2.799
  161SAPE   H4R17956   2.796   4.072   2.858
  161SAPE   H4S17957   2.937   3.984   2.805
  161SAPE   C2517958   2.773   3.861   2.858
  161SAPE   H5R17959   2.745   3.786   2.782
  161SAPE   C2617960   2.731   3.848   2.985
  161SAPE   H6R17961   2.692   3.747   3.005
  161SAPE   C2717962   2.741   3.958   3.091
  161SAPE   H7R17963   2.660   3.943   3.166
  161SAPE   H7S17964   2.727   4.056   3.041
  161SAPE   C2817965   2.875   3.949   3.155
  161SAPE   H8R17966   2.962   3.994   3.105
  161SAPE   C2917967   2.897   3.916   3.287
  161SAPE   H9R17968   3.003   3.907   3.315
  161SAPE  C21017969   2.793   3.874   3.388
  161SAPE  H10R17970   2.723   3.803   3.341
  161SAPE  H10S17971   2.735   3.966   3.409
  161SAPE  C21117972   2.837   3.819   3.522
  161SAPE  H11R17973   2.931   3.762   3.515
  161SAPE  C21217974   2.760   3.799   3.630
  161SAPE  H12R17975   2.810   3.743   3.711
  161SAPE  C21317976   2.625   3.852   3.651
  161SAPE  H13R17977   2.560   3.827   3.565
  161SAPE  H13S17978   2.645   3.960   3.662
  161SAPE  C21417979   2.544   3.826   3.781
  161SAPE  H14R17980   2.456   3.761   3.768
  161SAPE  C21517981   2.571   3.861   3.911
  161SAPE  H15R17982   2.499   3.840   3.991
  161SAPE  C21617983   2.686   3.944   3.955
  161SAPE  H16R17984   2.751   3.972   3.869
  161SAPE  H16S17985   2.746   3.889   4.031
  161SAPE  C21717986   2.650   4.081   4.019
  161SAPE  H17R17987   2.588   4.133   3.944
  161SAPE  H17S17988   2.746   4.137   4.025
  161SAPE  C21817989   2.582   4.072   4.150
  161SAPE  H18R17990   2.628   4.019   4.236
  161SAPE  H18S17991   2.476   4.038   4.139
  161SAPE  C21917992   2.548   4.207   4.211
  161SAPE  H19R17993   2.512   4.281   4.136
  161SAPE  H19S17994   2.649   4.250   4.225
  161SAPE  C22017995   2.476   4.210   4.344
  161SAPE  H20R17996   2.450   4.315   4.370
  161SAPE  H20S17997   2.537   4.155   4.418
  161SAPE  H20T17998   2.379   4.158   4.329
  161SAPE   C3317999   2.360   4.306   2.821
  161SAPE   H3X18000   2.259   4.325   2.863
  161SAPE   H3Y18001   2.416   4.401   2.818
  161SAPE   C3418002   2.425   4.200   2.911
  161SAPE   H4X18003   2.536   4.207   2.912
  161SAPE   H4Y18004   2.383   4.104   2.873
  161SAPE   C3518005   2.378   4.229   3.052
  161SAPE   H5X18006   2.268   4.221   3.068
  161SAPE   H5Y18007   2.399   4.333   3.084
  161SAPE   C3618008   2.446   4.141   3.162
  161SAPE   H6X18009   2.552   4.171   3.150
  161SAPE   H6Y18010   2.442   4.032   3.142
  161SAPE   C3718011   2.390   4.178   3.301
  161SAPE   H7X18012   2.283   4.149   3.310
  161SAPE   H7Y18013   2.388   4.286   3.326
  161SAPE   C3818014   2.482   4.123   3.406
  161SAPE   H8X18015   2.586   4.158   3.395
  161SAPE   H8Y18016   2.481   4.012   3.409
  161SAPE   C3918017   2.434   4.161   3.546
  161SAPE   H9X18018   2.445   4.269   3.568
  161SAPE   H9Y18019   2.486   4.101   3.623
  161SAPE  C31018020   2.280   4.140   3.575
  161SAPE  H10X18021   2.251   4.036   3.550
  161SAPE  H10Y18022   2.232   4.201   3.495
  161SAPE  C31118023   2.229   4.176   3.717
  161SAPE  H11X18024   2.284   4.123   3.797
  161SAPE  H11Y18025   2.122   4.146   3.726
  161SAPE  C31218026   2.231   4.330   3.740
  161SAPE  H12X18027   2.165   4.369   3.659
  161SAPE  H12Y18028   2.333   4.367   3.716
  161SAPE  C31318029   2.184   4.393   3.868
  161SAPE  H13X18030   2.074   4.396   3.859
  161SAPE  H13Y18031   2.215   4.498   3.886
  161SAPE  C31418032   2.245   4.318   3.987
  161SAPE  H14X18033   2.352   4.295   3.970
  161SAPE  H14Y18034   2.197   4.218   3.995
  161SAPE  C31518035   2.217   4.402   4.104
  161SAPE  H15X18036   2.228   4.509   4.079
  161SAPE  H15Y18037   2.280   4.380   4.193
  161SAPE  C31618038   2.080   4.365   4.169
  161SAPE  H16X18039   2.033   4.293   4.099
  161SAPE  H16Y18040   2.016   4.455   4.181
  161SAPE  C31718041   2.085   4.287   4.311
  161SAPE  H17X18042   2.135   4.349   4.388
  161SAPE  H17Y18043   2.146   4.196   4.291
  161SAPE  C31818044   1.946   4.254   4.357
  161SAPE  H18X18045   1.939   4.220   4.462
  161SAPE  H18Y18046   1.888   4.196   4.283
  161SAPE  H18Z18047   1.880   4.340   4.379
  162SAPE     N18048   2.665   0.178   2.269
  162SAPE   HN118049   2.592   0.241   2.307
  162SAPE   HN218050   2.739   0.235   2.222
  162SAPE   HN318051   2.622   0.121   2.193
  162SAPE   C1218052   2.706   0.087   2.387
  162SAPE  H12A18053   2.721   0.161   2.469
  162SAPE  H12B18054   2.801   0.032   2.371
  162SAPE   C1118055   2.588   6.837   2.429
  162SAPE  H11A18056   2.504   0.059   2.466
  162SAPE  H11B18057   2.621   6.777   2.517
  162SAPE     P18058   2.406   6.728   2.280
  162SAPE   O1318059   2.386   0.001   2.190
  162SAPE   O1418060   2.370   6.594   2.232
  162SAPE   O1218061   2.552   6.736   2.329
  162SAPE   O1118062   2.317   6.763   2.409
  162SAPE    C118063   2.265   6.662   2.496
  162SAPE    HA18064   2.164   6.682   2.537
  162SAPE    HB18065   2.239   6.573   2.435
  162SAPE    C218066   2.353   6.610   2.621
  162SAPE    HS18067   2.287   6.576   2.704
  162SAPE   O2118068   2.441   6.721   2.659
  162SAPE   C2118069   2.385   6.809   2.738
  162SAPE   O2218070   2.271   6.807   2.778
  162SAPE   C2218071   2.498   0.074   2.766
  162SAPE   H2R18072   2.594   0.018   2.757
  162SAPE   H2S18073   2.497   0.154   2.688
  162SAPE    C318074   2.440   6.491   2.583
  162SAPE    HX18075   2.515   6.519   2.506
  162SAPE    HY18076   2.380   6.415   2.529
  162SAPE   O3118077   2.488   6.431   2.703
  162SAPE   C3118078   2.622   6.442   2.721
  162SAPE   O3218079   2.698   6.503   2.644
  162SAPE   C3218080   2.662   6.381   2.852
  162SAPE   H2X18081   2.760   6.334   2.829
  162SAPE   H2Y18082   2.590   6.309   2.897
  162SAPE   C2318083   2.482   0.124   2.912
  162SAPE   H3R18084   2.576   0.167   2.954
  162SAPE   H3S18085   2.466   0.032   2.972
  162SAPE   C2418086   2.367   0.230   2.941
  162SAPE   H4R18087   2.266   0.192   2.911
  162SAPE   H4S18088   2.380   0.320   2.876
  162SAPE   C2518089   2.349   0.286   3.075
  162SAPE   H5R18090   2.388   0.389   3.081
  162SAPE   C2618091   2.282   0.232   3.174
  162SAPE   H6R18092   2.263   0.285   3.268
  162SAPE   C2718093   2.227   0.087   3.156
  162SAPE   H7R18094   2.258   0.026   3.244
  162SAPE   H7S18095   2.270   0.042   3.064
  162SAPE   C2818096   2.076   0.095   3.147
  162SAPE   H8R18097   2.038   0.085   3.044
  162SAPE   C2918098   2.003   0.061   3.256
  162SAPE   H9R18099   1.899   0.032   3.235
  162SAPE  C21018100   2.047   0.028   3.396
  162SAPE  H10R18101   1.962   0.064   3.459
  162SAPE  H10S18102   2.133   0.094   3.418
  162SAPE  C21118103   2.099   6.726   3.415
  162SAPE  H11R18104   2.162   6.691   3.332
  162SAPE  C21218105   2.073   6.647   3.518
  162SAPE  H12R18106   2.122   6.548   3.509
  162SAPE  C21318107   1.982   6.675   3.636
  162SAPE  H13R18108   1.892   6.611   3.632
  162SAPE  H13S18109   1.932   6.773   3.629
  162SAPE  C21418110   2.048   6.659   3.768
  162SAPE  H14R18111   2.135   6.726   3.771
  162SAPE  C21518112   2.038   6.560   3.862
  162SAPE  H15R18113   2.112   6.551   3.944
  162SAPE  C21618114   1.937   6.452   3.864
  162SAPE  H16R18115   1.870   6.454   3.775
  162SAPE  H16S18116   1.880   6.487   3.952
  162SAPE  C21718117   1.992   6.310   3.887
  162SAPE  H17R18118   1.916   6.240   3.928
  162SAPE  H17S18119   2.078   6.308   3.957
  162SAPE  C21818120   2.046   6.259   3.746
  162SAPE  H18R18121   2.107   6.332   3.689
  162SAPE  H18S18122   1.960   6.244   3.677
  162SAPE  C21918123   2.137   6.141   3.770
  162SAPE  H19R18124   2.076   6.057   3.811
  162SAPE  H19S18125   2.215   6.162   3.846
  162SAPE  C22018126   2.203   6.097   3.639
  162SAPE  H20R18127   2.224   6.183   3.573
  162SAPE  H20S18128   2.137   6.023   3.587
  162SAPE  H20T18129   2.300   6.046   3.661
  162SAPE   C3318130   2.693   6.499   2.955
  162SAPE   H3X18131   2.748   6.574   2.894
  162SAPE   H3Y18132   2.763   6.473   3.037
  162SAPE   C3418133   2.564   6.561   3.008
  162SAPE   H4X18134   2.478   6.544   2.940
  162SAPE   H4Y18135   2.580   6.669   3.032
  162SAPE   C3518136   2.508   6.493   3.138
  162SAPE   H5X18137   2.494   6.386   3.111
  162SAPE   H5Y18138   2.408   6.535   3.163
  162SAPE   C3618139   2.603   6.505   3.256
  162SAPE   H6X18140   2.609   6.607   3.301
  162SAPE   H6Y18141   2.700   6.468   3.218
  162SAPE   C3718142   2.563   6.408   3.365
  162SAPE   H7X18143   2.648   6.402   3.436
  162SAPE   H7Y18144   2.548   6.304   3.330
  162SAPE   C3818145   2.430   6.440   3.438
  162SAPE   H8X18146   2.340   6.419   3.376
  162SAPE   H8Y18147   2.427   6.547   3.469
  162SAPE   C3918148   2.419   6.356   3.567
  162SAPE   H9X18149   2.432   6.247   3.546
  162SAPE   H9Y18150   2.318   6.374   3.610
  162SAPE  C31018151   2.529   6.390   3.669
  162SAPE  H10X18152   2.532   6.500   3.687
  162SAPE  H10Y18153   2.623   6.355   3.623
  162SAPE  C31118154   2.501   6.308   3.802
  162SAPE  H11X18155   2.527   6.203   3.779
  162SAPE  H11Y18156   2.394   6.305   3.831
  162SAPE  C31218157   2.583   6.366   3.917
  162SAPE  H12X18158   2.550   6.472   3.931
  162SAPE  H12Y18159   2.689   6.356   3.887
  162SAPE  C31318160   2.569   6.292   4.051
  162SAPE  H13X18161   2.558   6.183   4.033
  162SAPE  H13Y18162   2.477   6.333   4.099
  162SAPE  C31418163   2.680   6.310   4.154
  162SAPE  H14X18164   2.776   6.260   4.129
  162SAPE  H14Y18165   2.639   6.267   4.248
  162SAPE  C31518166   2.710   6.463   4.180
  162SAPE  H15X18167   2.748   6.467   4.284
  162SAPE  H15Y18168   2.619   6.524   4.161
  162SAPE  C31618169   2.819   6.527   4.091
  162SAPE  H16X18170   2.765   6.560   3.999
  162SAPE  H16Y18171   2.896   6.451   4.066
  162SAPE  C31718172   2.884   6.660   4.143
  162SAPE  H17X18173   2.941   6.699   4.056
  162SAPE  H17Y18174   2.962   6.634   4.217
  162SAPE  C31818175   2.802   6.773   4.192
  162SAPE  H18X18176   2.720   6.805   4.124
  162SAPE  H18Y18177   2.863   0.021   4.219
  162SAPE  H18Z18178   2.748   6.740   4.283
  163SAPE     N18179   1.102   3.275   2.106
  163SAPE   HN118180   1.145   3.369   2.101
  163SAPE   HN218181   1.044   3.260   2.021
  163SAPE   HN318182   1.033   3.272   2.184
  163SAPE   C1218183   1.220   3.186   2.108
  163SAPE  H12A18184   1.186   3.083   2.083
  163SAPE  H12B18185   1.257   3.180   2.213
  163SAPE   C1118186   1.326   3.231   2.012
  163SAPE  H11A18187   1.281   3.236   1.910
  163SAPE  H11B18188   1.408   3.156   2.009
  163SAPE     P18189   1.352   3.493   2.011
  163SAPE   O1318190   1.349   3.497   1.865
  163SAPE   O1418191   1.228   3.526   2.080
  163SAPE   O1218192   1.397   3.347   2.059
  163SAPE   O1118193   1.475   3.585   2.069
  163SAPE    C118194   1.570   3.524   2.153
  163SAPE    HA18195   1.603   3.422   2.124
  163SAPE    HB18196   1.657   3.593   2.156
  163SAPE    C218197   1.513   3.514   2.299
  163SAPE    HS18198   1.436   3.434   2.300
  163SAPE   O2118199   1.469   3.649   2.334
  163SAPE   C2118200   1.358   3.651   2.403
  163SAPE   O2218201   1.274   3.563   2.412
  163SAPE   C2218202   1.351   3.776   2.493
  163SAPE   H2R18203   1.381   3.859   2.425
  163SAPE   H2S18204   1.246   3.803   2.521
  163SAPE    C318205   1.624   3.465   2.398
  163SAPE    HX18206   1.709   3.536   2.396
  163SAPE    HY18207   1.661   3.370   2.353
  163SAPE   O3118208   1.572   3.455   2.527
  163SAPE   C3118209   1.650   3.415   2.623
  163SAPE   O3218210   1.762   3.372   2.615
  163SAPE   C3218211   1.580   3.452   2.764
  163SAPE   H2X18212   1.471   3.433   2.752
  163SAPE   H2Y18213   1.606   3.558   2.784
  163SAPE   C2318214   1.446   3.786   2.614
  163SAPE   H3R18215   1.553   3.763   2.596
  163SAPE   H3S18216   1.408   3.707   2.682
  163SAPE   C2418217   1.420   3.922   2.676
  163SAPE   H4R18218   1.310   3.931   2.686
  163SAPE   H4S18219   1.438   4.004   2.603
  163SAPE   C2518220   1.488   3.961   2.800
  163SAPE   H5R18221   1.575   4.026   2.791
  163SAPE   C2618222   1.451   3.928   2.920
  163SAPE   H6R18223   1.506   3.984   2.997
  163SAPE   C2718224   1.336   3.846   2.968
  163SAPE   H7R18225   1.298   3.786   2.882
  163SAPE   H7S18226   1.250   3.913   2.992
  163SAPE   C2818227   1.352   3.746   3.077
  163SAPE   H8R18228   1.376   3.644   3.045
  163SAPE   C2918229   1.355   3.779   3.212
  163SAPE   H9R18230   1.389   3.705   3.286
  163SAPE  C21018231   1.340   3.911   3.267
  163SAPE  H10R18232   1.233   3.940   3.258
  163SAPE  H10S18233   1.403   3.973   3.200
  163SAPE  C21118234   1.385   3.932   3.408
  163SAPE  H11R18235   1.483   3.981   3.417
  163SAPE  C21218236   1.313   3.901   3.517
  163SAPE  H12R18237   1.360   3.931   3.612
  163SAPE  C21318238   1.175   3.827   3.526
  163SAPE  H13R18239   1.138   3.796   3.426
  163SAPE  H13S18240   1.094   3.886   3.575
  163SAPE  C21418241   1.182   3.699   3.609
  163SAPE  H14R18242   1.212   3.614   3.546
  163SAPE  C21518243   1.185   3.696   3.744
  163SAPE  H15R18244   1.198   3.601   3.797
  163SAPE  C21618245   1.165   3.812   3.837
  163SAPE  H16R18246   1.079   3.798   3.906
  163SAPE  H16S18247   1.137   3.901   3.778
  163SAPE  C21718248   1.290   3.849   3.926
  163SAPE  H17R18249   1.375   3.850   3.855
  163SAPE  H17S18250   1.314   3.770   4.000
  163SAPE  C21818251   1.277   3.990   3.986
  163SAPE  H18R18252   1.247   4.063   3.908
  163SAPE  H18S18253   1.379   4.025   4.016
  163SAPE  C21918254   1.170   4.003   4.083
  163SAPE  H19R18255   1.191   3.926   4.159
  163SAPE  H19S18256   1.075   3.974   4.034
  163SAPE  C22018257   1.177   4.138   4.147
  163SAPE  H20R18258   1.282   4.142   4.183
  163SAPE  H20S18259   1.111   4.145   4.237
  163SAPE  H20T18260   1.158   4.220   4.074
  163SAPE   C3318261   1.637   3.370   2.879
  163SAPE   H3X18262   1.735   3.407   2.916
  163SAPE   H3Y18263   1.645   3.260   2.865
  163SAPE   C3418264   1.549   3.385   3.002
  163SAPE   H4X18265   1.466   3.311   3.000
  163SAPE   H4Y18266   1.524   3.493   3.015
  163SAPE   C3518267   1.622   3.354   3.134
  163SAPE   H5X18268   1.693   3.437   3.155
  163SAPE   H5Y18269   1.690   3.267   3.124
  163SAPE   C3618270   1.516   3.358   3.249
  163SAPE   H6X18271   1.439   3.284   3.218
  163SAPE   H6Y18272   1.462   3.454   3.265
  163SAPE   C3718273   1.576   3.320   3.386
  163SAPE   H7X18274   1.640   3.405   3.420
  163SAPE   H7Y18275   1.626   3.221   3.382
  163SAPE   C3818276   1.468   3.308   3.500
  163SAPE   H8X18277   1.414   3.212   3.483
  163SAPE   H8Y18278   1.395   3.390   3.491
  163SAPE   C3918279   1.516   3.310   3.648
  163SAPE   H9X18280   1.571   3.403   3.674
  163SAPE   H9Y18281   1.578   3.222   3.675
  163SAPE  C31018282   1.394   3.317   3.745
  163SAPE  H10X18283   1.352   3.215   3.730
  163SAPE  H10Y18284   1.331   3.397   3.702
  163SAPE  C31118285   1.445   3.350   3.878
  163SAPE  H11X18286   1.486   3.453   3.875
  163SAPE  H11Y18287   1.521   3.282   3.923
  163SAPE  C31218288   1.325   3.360   3.980
  163SAPE  H12X18289   1.246   3.417   3.927
  163SAPE  H12Y18290   1.354   3.410   4.075
  163SAPE  C31318291   1.259   3.227   4.023
  163SAPE  H13X18292   1.337   3.153   4.053
  163SAPE  H13Y18293   1.217   3.182   3.931
  163SAPE  C31418294   1.164   3.248   4.137
  163SAPE  H14X18295   1.077   3.311   4.107
  163SAPE  H14Y18296   1.223   3.300   4.215
  163SAPE  C31518297   1.093   3.120   4.188
  163SAPE  H15X18298   1.171   3.051   4.226
  163SAPE  H15Y18299   1.037   3.075   4.103
  163SAPE  C31618300   0.996   3.146   4.297
  163SAPE  H16X18301   0.935   3.063   4.339
  163SAPE  H16Y18302   0.945   3.229   4.244
  163SAPE  C31718303   1.051   3.196   4.433
  163SAPE  H17X18304   1.132   3.267   4.405
  163SAPE  H17Y18305   1.095   3.104   4.476
  163SAPE  C31818306   0.948   3.250   4.527
  163SAPE  H18X18307   0.849   3.198   4.530
  163SAPE  H18Y18308   0.930   3.354   4.495
  163SAPE  H18Z18309   0.995   3.257   4.627
  164SAPE     N18310   6.398   3.676   2.038
  164SAPE   HN118311   6.357   3.761   1.994
  164SAPE   HN218312   6.480   3.645   1.982
  164SAPE   HN318313   6.331   3.597   2.039
  164SAPE   C1218314   6.421   3.695   2.181
  164SAPE  H12A18315   6.459   3.600   2.224
  164SAPE  H12B18316   6.324   3.711   2.232
  164SAPE   C1118317   6.525   3.802   2.209
  164SAPE  H11A18318   6.621   3.756   2.178
  164SAPE  H11B18319   6.538   3.810   2.319
  164SAPE     P18320   6.594   4.041   2.129
  164SAPE   O1318321   6.715   3.985   2.063
  164SAPE   O1418322   6.524   4.158   2.067
  164SAPE   O1218323   6.489   3.921   2.135
  164SAPE   O1118324   6.612   4.066   2.285
  164SAPE    C118325   6.534   4.171   2.353
  164SAPE    HA18326   6.431   4.157   2.313
  164SAPE    HB18327   6.522   4.153   2.462
  164SAPE    C218328   6.590   4.317   2.335
  164SAPE    HS18329   6.608   4.328   2.226
  164SAPE   O2118330   6.701   4.323   2.425
  164SAPE   C2118331   6.796   4.400   2.389
  164SAPE   O2218332   6.811   4.452   2.280
  164SAPE   C2218333   0.058   4.414   2.501
  164SAPE   H2R18334   0.155   4.394   2.450
  164SAPE   H2S18335   0.063   4.522   2.524
  164SAPE    C318336   6.480   4.411   2.375
  164SAPE    HX18337   6.400   4.393   2.300
  164SAPE    HY18338   6.506   4.517   2.359
  164SAPE   O3118339   6.427   4.376   2.507
  164SAPE   C3118340   6.459   4.458   2.607
  164SAPE   O3218341   6.519   4.560   2.592
  164SAPE   C3218342   6.422   4.390   2.738
  164SAPE   H2X18343   6.496   4.310   2.757
  164SAPE   H2Y18344   6.332   4.327   2.719
  164SAPE   C2318345   0.039   4.319   2.620
  164SAPE   H3R18346   0.046   4.216   2.579
  164SAPE   H3S18347   6.777   4.332   2.659
  164SAPE   C2418348   0.139   4.342   2.731
  164SAPE   H4R18349   0.145   4.448   2.763
  164SAPE   H4S18350   0.241   4.327   2.688
  164SAPE   C2518351   0.118   4.244   2.839
  164SAPE   H5R18352   0.174   4.151   2.823
  164SAPE   C2618353   0.039   4.260   2.945
  164SAPE   H6R18354   0.027   4.173   3.011
  164SAPE   C2718355   6.809   4.383   2.995
  164SAPE   H7R18356   6.731   4.426   2.928
  164SAPE   H7S18357   0.047   4.455   3.024
  164SAPE   C2818358   6.731   4.349   3.116
  164SAPE   H8R18359   6.664   4.263   3.098
  164SAPE   C2918360   6.749   4.401   3.234
  164SAPE   H9R18361   6.672   4.378   3.309
  164SAPE  C21018362   0.005   4.504   3.280
  164SAPE  H10R18363   0.051   4.558   3.194
  164SAPE  H10S18364   0.088   4.451   3.331
  164SAPE  C21118365   6.782   4.613   3.362
  164SAPE  H11R18366   6.697   4.656   3.306
  164SAPE  C21218367   6.810   4.654   3.493
  164SAPE  H12R18368   6.754   4.746   3.515
  164SAPE  C21318369   0.074   4.603   3.590
  164SAPE  H13R18370   0.067   4.678   3.673
  164SAPE  H13S18371   0.171   4.621   3.540
  164SAPE  C21418372   0.057   4.459   3.629
  164SAPE  H14R18373   0.095   4.386   3.555
  164SAPE  C21518374   0.009   4.413   3.747
  164SAPE  H15R18375   6.821   4.307   3.754
  164SAPE  C21618376   6.788   4.496   3.857
  164SAPE  H16R18377   6.677   4.489   3.867
  164SAPE  H16S18378   6.806   4.605   3.846
  164SAPE  C21718379   0.002   4.474   4.005
  164SAPE  H17R18380   6.806   4.568   4.052
  164SAPE  H17S18381   0.112   4.486   4.005
  164SAPE  C21818382   6.779   4.348   4.071
  164SAPE  H18R18383   6.792   4.258   4.006
  164SAPE  H18S18384   6.672   4.380   4.070
  164SAPE  C21918385   6.840   4.319   4.206
  164SAPE  H19R18386   0.034   4.416   4.247
  164SAPE  H19S18387   0.098   4.267   4.215
  164SAPE  C22018388   6.757   4.248   4.314
  164SAPE  H20R18389   6.670   4.307   4.350
  164SAPE  H20S18390   6.820   4.202   4.394
  164SAPE  H20T18391   6.703   4.163   4.268
  164SAPE   C3318392   6.395   4.475   2.866
  164SAPE   H3X18393   6.319   4.554   2.849
  164SAPE   H3Y18394   6.487   4.528   2.899
  164SAPE   C3418395   6.366   4.382   2.990
  164SAPE   H4X18396   6.464   4.370   3.041
  164SAPE   H4Y18397   6.329   4.281   2.965
  164SAPE   C3518398   6.269   4.454   3.084
  164SAPE   H5X18399   6.180   4.492   3.031
  164SAPE   H5Y18400   6.324   4.541   3.128
  164SAPE   C3618401   6.227   4.355   3.200
  164SAPE   H6X18402   6.213   4.251   3.161
  164SAPE   H6Y18403   6.133   4.400   3.236
  164SAPE   C3718404   6.334   4.350   3.312
  164SAPE   H7X18405   6.368   4.453   3.337
  164SAPE   H7Y18406   6.425   4.299   3.275
  164SAPE   C3818407   6.294   4.274   3.442
  164SAPE   H8X18408   6.264   4.172   3.410
  164SAPE   H8Y18409   6.211   4.320   3.501
  164SAPE   C3918410   6.426   4.273   3.528
  164SAPE   H9X18411   6.451   4.379   3.547
  164SAPE   H9Y18412   6.507   4.234   3.462
  164SAPE  C31018413   6.406   4.202   3.655
  164SAPE  H10X18414   6.379   4.096   3.638
  164SAPE  H10Y18415   6.321   4.251   3.708
  164SAPE  C31118416   6.531   4.196   3.742
  164SAPE  H11X18417   6.579   4.292   3.770
  164SAPE  H11Y18418   6.603   4.146   3.674
  164SAPE  C31218419   6.518   4.109   3.865
  164SAPE  H12X18420   6.617   4.105   3.915
  164SAPE  H12Y18421   6.490   4.005   3.836
  164SAPE  C31318422   6.415   4.154   3.967
  164SAPE  H13X18423   6.319   4.111   3.929
  164SAPE  H13Y18424   6.411   4.265   3.961
  164SAPE  C31418425   6.440   4.103   4.108
  164SAPE  H14X18426   6.535   4.135   4.155
  164SAPE  H14Y18427   6.412   3.995   4.104
  164SAPE  C31518428   6.335   4.166   4.198
  164SAPE  H15X18429   6.233   4.159   4.156
  164SAPE  H15Y18430   6.367   4.273   4.203
  164SAPE  C31618431   6.336   4.122   4.347
  164SAPE  H16X18432   6.425   4.150   4.407
  164SAPE  H16Y18433   6.316   4.013   4.344
  164SAPE  C31718434   6.225   4.192   4.427
  164SAPE  H17X18435   6.260   4.297   4.428
  164SAPE  H17Y18436   6.224   4.149   4.529
  164SAPE  C31818437   6.087   4.185   4.366
  164SAPE  H18X18438   6.078   4.257   4.281
  164SAPE  H18Y18439   6.020   4.213   4.449
  164SAPE  H18Z18440   6.052   4.082   4.342
  165SAPE     N18441   5.747   0.205   2.485
  165SAPE   HN118442   5.655   0.220   2.440
  165SAPE   HN218443   5.775   0.296   2.527
  165SAPE   HN318444   5.813   0.181   2.408
  165SAPE   C1218445   5.734   0.091   2.586
  165SAPE  H12A18446   5.836   0.076   2.627
  165SAPE  H12B18447   5.695   0.009   2.521
  165SAPE   C1118448   5.626   0.123   2.692
  165SAPE  H11A18449   5.621   0.234   2.698
  165SAPE  H11B18450   5.657   0.082   2.790
  165SAPE     P18451   5.446   6.775   2.711
  165SAPE   O1318452   5.327   6.750   2.624
  165SAPE   O1418453   5.555   6.677   2.712
  165SAPE   O1218454   5.500   0.069   2.654
  165SAPE   O1118455   5.399   6.804   2.857
  165SAPE    C118456   5.279   0.036   2.888
  165SAPE    HA18457   5.208   0.024   2.804
  165SAPE    HB18458   5.235   0.000   2.984
  165SAPE    C218459   5.319   0.187   2.907
  165SAPE    HS18460   5.339   0.226   2.805
  165SAPE   O2118461   5.440   0.204   2.985
  165SAPE   C2118462   5.502   0.324   2.968
  165SAPE   O2218463   5.470   0.402   2.877
  165SAPE   C2218464   5.583   0.349   3.093
  165SAPE   H2R18465   5.554   0.298   3.187
  165SAPE   H2S18466   5.686   0.309   3.076
  165SAPE    C318467   5.199   0.262   2.974
  165SAPE    HX18468   5.107   0.252   2.913
  165SAPE    HY18469   5.224   0.370   2.972
  165SAPE   O3118470   5.162   0.210   3.106
  165SAPE   C3118471   5.228   0.260   3.210
  165SAPE   O3218472   5.292   0.362   3.197
  165SAPE   C3218473   5.217   0.162   3.327
  165SAPE   H2X18474   5.284   0.077   3.301
  165SAPE   H2Y18475   5.107   0.143   3.335
  165SAPE   C2318476   5.593   0.501   3.120
  165SAPE   H3R18477   5.494   0.539   3.153
  165SAPE   H3S18478   5.627   0.557   3.030
  165SAPE   C2418479   5.692   0.532   3.232
  165SAPE   H4R18480   5.646   0.504   3.329
  165SAPE   H4S18481   5.689   0.643   3.237
  165SAPE   C2518482   5.829   0.476   3.223
  165SAPE   H5R18483   5.877   0.510   3.130
  165SAPE   C2618484   5.890   0.388   3.304
  165SAPE   H6R18485   5.997   0.372   3.284
  165SAPE   C2718486   5.842   0.339   3.436
  165SAPE   H7R18487   5.837   0.423   3.508
  165SAPE   H7S18488   5.924   0.280   3.483
  165SAPE   C2818489   5.725   0.247   3.435
  165SAPE   H8R18490   5.716   0.197   3.337
  165SAPE   C2918491   5.654   0.205   3.535
  165SAPE   H9R18492   5.568   0.141   3.510
  165SAPE  C21018493   5.651   0.247   3.682
  165SAPE  H10R18494   5.556   0.289   3.720
  165SAPE  H10S18495   5.709   0.342   3.675
  165SAPE  C21118496   5.703   0.149   3.781
  165SAPE  H11R18497   5.644   0.058   3.802
  165SAPE  C21218498   5.813   0.173   3.858
  165SAPE  H12R18499   5.840   0.097   3.933
  165SAPE  C21318500   5.915   0.284   3.840
  165SAPE  H13R18501   5.880   0.387   3.861
  165SAPE  H13S18502   5.931   0.301   3.731
  165SAPE  C21418503   6.057   0.263   3.900
  165SAPE  H14R18504   6.105   0.172   3.861
  165SAPE  C21518505   6.124   0.340   3.992
  165SAPE  H15R18506   6.228   0.323   4.023
  165SAPE  C21618507   6.081   0.484   4.037
  165SAPE  H16R18508   6.050   0.489   4.144
  165SAPE  H16S18509   5.995   0.515   3.974
  165SAPE  C21718510   6.186   0.587   4.007
  165SAPE  H17R18511   6.207   0.591   3.898
  165SAPE  H17S18512   6.286   0.567   4.052
  165SAPE  C21818513   6.143   0.727   4.041
  165SAPE  H18R18514   6.047   0.757   3.993
  165SAPE  H18S18515   6.219   0.803   4.014
  165SAPE  C21918516   6.127   0.757   4.188
  165SAPE  H19R18517   6.228   0.746   4.234
  165SAPE  H19S18518   6.061   0.674   4.218
  165SAPE  C22018519   6.082   0.898   4.228
  165SAPE  H20R18520   6.052   0.894   4.335
  165SAPE  H20S18521   5.989   0.933   4.179
  165SAPE  H20T18522   6.171   0.965   4.223
  165SAPE   C3318523   5.264   0.212   3.460
  165SAPE   H3X18524   5.193   0.294   3.482
  165SAPE   H3Y18525   5.361   0.264   3.454
  165SAPE   C3418526   5.248   0.105   3.570
  165SAPE   H4X18527   5.322   0.022   3.567
  165SAPE   H4Y18528   5.161   0.036   3.569
  165SAPE   C3518529   5.262   0.160   3.706
  165SAPE   H5X18530   5.194   0.249   3.710
  165SAPE   H5Y18531   5.368   0.186   3.722
  165SAPE   C3618532   5.212   0.076   3.824
  165SAPE   H6X18533   5.255   6.815   3.823
  165SAPE   H6Y18534   5.103   0.056   3.816
  165SAPE   C3718535   5.247   0.144   3.956
  165SAPE   H7X18536   5.209   0.248   3.961
  165SAPE   H7Y18537   5.356   0.138   3.978
  165SAPE   C3818538   5.180   0.075   4.076
  165SAPE   H8X18539   5.193   6.807   4.057
  165SAPE   H8Y18540   5.069   0.082   4.074
  165SAPE   C3918541   5.216   0.119   4.215
  165SAPE   H9X18542   5.184   0.225   4.222
  165SAPE   H9Y18543   5.326   0.110   4.231
  165SAPE  C31018544   5.143   0.049   4.328
  165SAPE  H10X18545   5.200   0.078   4.418
  165SAPE  H10Y18546   5.138   6.780   4.309
  165SAPE  C31118547   5.001   0.106   4.333
  165SAPE  H11X18548   4.958   0.069   4.237
  165SAPE  H11Y18549   4.998   0.217   4.332
  165SAPE  C31218550   4.916   0.048   4.446
  165SAPE  H12X18551   4.944   0.105   4.538
  165SAPE  H12Y18552   4.926   6.779   4.439
  165SAPE  C31318553   4.770   0.087   4.432
  165SAPE  H13X18554   4.716   0.017   4.365
  165SAPE  H13Y18555   4.765   0.189   4.388
  165SAPE  C31418556   4.705   0.080   4.569
  165SAPE  H14X18557   4.599   0.106   4.547
  165SAPE  H14Y18558   4.753   0.164   4.623
  165SAPE  C31518559   4.705   6.789   4.634
  165SAPE  H15X18560   4.805   6.775   4.681
  165SAPE  H15Y18561   4.679   6.713   4.558
  165SAPE  C31618562   4.601   6.783   4.750
  165SAPE  H16X18563   4.499   6.791   4.707
  165SAPE  H16Y18564   4.607   0.037   4.809
  165SAPE  C31718565   4.623   6.668   4.844
  165SAPE  H17X18566   4.720   6.667   4.897
  165SAPE  H17Y18567   4.616   6.565   4.802
  165SAPE  C31818568   4.521   6.674   4.961
  165SAPE  H18X18569   4.545   6.765   5.020
  165SAPE  H18Y18570   4.523   6.578   5.017
  165SAPE  H18Z18571   4.416   6.690   4.928
  166SAPE     N18572   0.582   5.377   2.238
  166SAPE   HN118573   0.554   5.384   2.138
  166SAPE   HN218574   0.669   5.321   2.239
  166SAPE   HN318575   0.508   5.326   2.289
  166SAPE   C1218576   0.584   5.510   2.298
  166SAPE  H12A18577   0.648   5.568   2.227
  166SAPE  H12B18578   0.626   5.482   2.397
  166SAPE   C1118579   0.442   5.563   2.300
  166SAPE  H11A18580   0.450   5.665   2.343
  166SAPE  H11B18581   0.389   5.497   2.372
  166SAPE     P18582   0.244   5.611   2.139
  166SAPE   O1318583   0.228   5.756   2.106
  166SAPE   O1418584   0.192   5.517   2.043
  166SAPE   O1218585   0.391   5.571   2.165
  166SAPE   O1118586   0.176   5.578   2.273
  166SAPE    C118587   0.081   5.661   2.339
  166SAPE    HA18588   6.839   5.679   2.266
  166SAPE    HB18589   0.024   5.617   2.423
  166SAPE    C218590   0.131   5.794   2.397
  166SAPE    HS18591   0.185   5.848   2.316
  166SAPE   O2118592   0.237   5.757   2.490
  166SAPE   C2118593   0.315   5.851   2.528
  166SAPE   O2218594   0.290   5.967   2.505
  166SAPE   C2218595   0.439   5.798   2.605
  166SAPE   H2R18596   0.505   5.743   2.535
  166SAPE   H2S18597   0.500   5.891   2.613
  166SAPE    C318598   0.015   5.886   2.459
  166SAPE    HX18599   6.787   5.919   2.379
  166SAPE    HY18600   0.061   5.976   2.507
  166SAPE   O3118601   6.801   5.813   2.572
  166SAPE   C3118602   6.684   5.857   2.612
  166SAPE   O3218603   6.624   5.959   2.576
  166SAPE   C3218604   6.628   5.756   2.709
  166SAPE   H2X18605   6.708   5.686   2.743
  166SAPE   H2Y18606   6.547   5.697   2.661
  166SAPE   C2318607   0.418   5.698   2.724
  166SAPE   H3R18608   0.349   5.614   2.702
  166SAPE   H3S18609   0.364   5.751   2.805
  166SAPE   C2418610   0.551   5.630   2.752
  166SAPE   H4R18611   0.586   5.568   2.667
  166SAPE   H4S18612   0.541   5.554   2.833
  166SAPE   C2518613   0.670   5.720   2.790
  166SAPE   H5R18614   0.689   5.792   2.709
  166SAPE   C2618615   0.725   5.747   2.914
  166SAPE   H6R18616   0.805   5.823   2.918
  166SAPE   C2718617   0.695   5.687   3.043
  166SAPE   H7R18618   0.757   5.743   3.116
  166SAPE   H7S18619   0.735   5.584   3.032
  166SAPE   C2818620   0.549   5.680   3.084
  166SAPE   H8R18621   0.482   5.743   3.023
  166SAPE   C2918622   0.491   5.609   3.185
  166SAPE   H9R18623   0.387   5.629   3.215
  166SAPE  C21018624   0.563   5.522   3.280
  166SAPE  H10R18625   0.664   5.484   3.254
  166SAPE  H10S18626   0.494   5.436   3.292
  166SAPE  C21118627   0.578   5.581   3.416
  166SAPE  H11R18628   0.661   5.652   3.406
  166SAPE  C21218629   0.516   5.566   3.527
  166SAPE  H12R18630   0.556   5.628   3.609
  166SAPE  C21318631   0.413   5.458   3.561
  166SAPE  H13R18632   0.450   5.368   3.616
  166SAPE  H13S18633   0.372   5.414   3.467
  166SAPE  C21418634   0.302   5.526   3.625
  166SAPE  H14R18635   0.227   5.564   3.554
  166SAPE  C21518636   0.283   5.539   3.755
  166SAPE  H15R18637   0.197   5.593   3.797
  166SAPE  C21618638   0.376   5.499   3.863
  166SAPE  H16R18639   0.434   5.590   3.890
  166SAPE  H16S18640   0.449   5.418   3.843
  166SAPE  C21718641   0.318   5.459   4.004
  166SAPE  H17R18642   0.393   5.402   4.063
  166SAPE  H17S18643   0.232   5.391   3.984
  166SAPE  C21818644   0.258   5.583   4.077
  166SAPE  H18R18645   0.193   5.637   4.005
  166SAPE  H18S18646   0.332   5.656   4.116
  166SAPE  C21918647   0.162   5.546   4.192
  166SAPE  H19R18648   0.224   5.478   4.256
  166SAPE  H19S18649   0.079   5.486   4.149
  166SAPE  C22018650   0.124   5.666   4.279
  166SAPE  H20R18651   0.082   5.622   4.372
  166SAPE  H20S18652   0.052   5.735   4.230
  166SAPE  H20T18653   0.223   5.716   4.289
  166SAPE   C3318654   6.581   5.810   2.852
  166SAPE   H3X18655   6.515   5.899   2.847
  166SAPE   H3Y18656   6.668   5.848   2.910
  166SAPE   C3418657   6.520   5.699   2.936
  166SAPE   H4X18658   6.589   5.612   2.929
  166SAPE   H4Y18659   6.425   5.666   2.888
  166SAPE   C3518660   6.486   5.743   3.081
  166SAPE   H5X18661   6.402   5.814   3.067
  166SAPE   H5Y18662   6.574   5.793   3.128
  166SAPE   C3618663   6.450   5.617   3.163
  166SAPE   H6X18664   6.541   5.559   3.192
  166SAPE   H6Y18665   6.390   5.557   3.091
  166SAPE   C3718666   6.355   5.634   3.289
  166SAPE   H7X18667   6.341   5.543   3.351
  166SAPE   H7Y18668   6.254   5.644   3.245
  166SAPE   C3818669   6.396   5.755   3.371
  166SAPE   H8X18670   6.382   5.844   3.306
  166SAPE   H8Y18671   6.497   5.753   3.417
  166SAPE   C3918672   6.305   5.770   3.500
  166SAPE   H9X18673   6.304   5.682   3.567
  166SAPE   H9Y18674   6.206   5.787   3.452
  166SAPE  C31018675   6.343   5.898   3.580
  166SAPE  H10X18676   6.256   5.919   3.646
  166SAPE  H10Y18677   6.374   5.982   3.515
  166SAPE  C31118678   6.444   5.859   3.683
  166SAPE  H11X18679   6.542   5.837   3.635
  166SAPE  H11Y18680   6.420   5.758   3.722
  166SAPE  C31218681   6.469   5.978   3.777
  166SAPE  H12X18682   6.465   6.077   3.726
  166SAPE  H12Y18683   6.570   5.969   3.822
  166SAPE  C31318684   6.369   5.991   3.890
  166SAPE  H13X18685   6.379   5.896   3.946
  166SAPE  H13Y18686   6.262   5.990   3.860
  166SAPE  C31418687   6.397   6.110   3.986
  166SAPE  H14X18688   6.382   6.205   3.929
  166SAPE  H14Y18689   6.506   6.105   4.006
  166SAPE  C31518690   6.291   6.103   4.097
  166SAPE  H15X18691   6.237   6.007   4.080
  166SAPE  H15Y18692   6.223   6.190   4.084
  166SAPE  C31618693   6.360   6.121   4.230
  166SAPE  H16X18694   6.396   6.226   4.242
  166SAPE  H16Y18695   6.446   6.050   4.230
  166SAPE  C31718696   6.264   6.078   4.342
  166SAPE  H17X18697   6.240   5.971   4.323
  166SAPE  H17Y18698   6.167   6.132   4.334
  166SAPE  C31818699   6.318   6.099   4.481
  166SAPE  H18X18700   6.415   6.047   4.491
  166SAPE  H18Y18701   6.249   6.051   4.554
  166SAPE  H18Z18702   6.325   6.206   4.510
  167SAPE     N18703   6.424   3.083   1.846
  167SAPE   HN118704   6.516   3.116   1.810
  167SAPE   HN218705   6.441   2.993   1.896
  167SAPE   HN318706   6.373   3.054   1.760
  167SAPE   C1218707   6.356   3.177   1.939
  167SAPE  H12A18708   6.283   3.118   1.999
  167SAPE  H12B18709   6.294   3.247   1.879
  167SAPE   C1118710   6.468   3.240   2.030
  167SAPE  H11A18711   6.517   3.151   2.075
  167SAPE  H11B18712   6.424   3.299   2.113
  167SAPE     P18713   6.668   3.407   2.005
  167SAPE   O1318714   6.796   3.357   1.949
  167SAPE   O1418715   6.627   3.545   1.978
  167SAPE   O1218716   6.550   3.325   1.949
  167SAPE   O1118717   6.665   3.376   2.163
  167SAPE    C118718   6.729   3.463   2.255
  167SAPE    HA18719   6.839   3.469   2.236
  167SAPE    HB18720   6.689   3.564   2.232
  167SAPE    C218721   6.703   3.432   2.404
  167SAPE    HS18722   6.596   3.438   2.433
  167SAPE   O2118723   6.786   3.514   2.486
  167SAPE   C2118724   6.724   3.636   2.510
  167SAPE   O2218725   6.615   3.668   2.475
  167SAPE   C2218726   6.819   3.725   2.594
  167SAPE   H2R18727   0.009   3.670   2.686
  167SAPE   H2S18728   0.072   3.731   2.534
  167SAPE    C318729   6.748   3.283   2.424
  167SAPE    HX18730   0.017   3.283   2.404
  167SAPE    HY18731   6.707   3.221   2.342
  167SAPE   O3118732   6.733   3.244   2.563
  167SAPE   C3118733   6.611   3.203   2.600
  167SAPE   O3218734   6.510   3.199   2.534
  167SAPE   C3218735   6.626   3.155   2.743
  167SAPE   H2X18736   6.577   3.236   2.802
  167SAPE   H2Y18737   6.731   3.166   2.780
  167SAPE   C2318738   6.751   3.860   2.630
  167SAPE   H3R18739   6.702   3.914   2.547
  167SAPE   H3S18740   6.839   3.924   2.654
  167SAPE   C2418741   6.645   3.849   2.748
  167SAPE   H4R18742   6.676   3.784   2.832
  167SAPE   H4S18743   6.552   3.807   2.706
  167SAPE   C2518744   6.618   3.992   2.789
  167SAPE   H5R18745   6.598   4.059   2.705
  167SAPE   C2618746   6.602   4.027   2.923
  167SAPE   H6R18747   6.573   4.132   2.932
  167SAPE   C2718748   6.581   3.943   3.057
  167SAPE   H7R18749   6.568   3.836   3.029
  167SAPE   H7S18750   6.489   3.968   3.114
  167SAPE   C2818751   6.699   3.937   3.142
  167SAPE   H8R18752   6.798   3.948   3.096
  167SAPE   C2918753   6.699   3.940   3.270
  167SAPE   H9R18754   6.789   3.946   3.333
  167SAPE  C21018755   6.576   3.948   3.352
  167SAPE  H10R18756   6.525   4.046   3.339
  167SAPE  H10S18757   6.613   3.963   3.456
  167SAPE  C21118758   6.478   3.832   3.359
  167SAPE  H11R18759   6.455   3.794   3.258
  167SAPE  C21218760   6.415   3.773   3.457
  167SAPE  H12R18761   6.341   3.692   3.449
  167SAPE  C21318762   6.437   3.805   3.603
  167SAPE  H13R18763   6.469   3.911   3.611
  167SAPE  H13S18764   6.525   3.745   3.635
  167SAPE  C21418765   6.305   3.778   3.680
  167SAPE  H14R18766   6.237   3.864   3.676
  167SAPE  C21518767   6.271   3.674   3.759
  167SAPE  H15R18768   6.182   3.678   3.823
  167SAPE  C21618769   6.369   3.561   3.793
  167SAPE  H16R18770   6.460   3.562   3.729
  167SAPE  H16S18771   6.314   3.467   3.774
  167SAPE  C21718772   6.397   3.556   3.944
  167SAPE  H17R18773   6.446   3.457   3.960
  167SAPE  H17S18774   6.310   3.563   4.013
  167SAPE  C21818775   6.495   3.678   3.981
  167SAPE  H18R18776   6.426   3.765   3.988
  167SAPE  H18S18777   6.582   3.703   3.917
  167SAPE  C21918778   6.557   3.670   4.114
  167SAPE  H19R18779   6.591   3.567   4.138
  167SAPE  H19S18780   6.470   3.679   4.184
  167SAPE  C22018781   6.648   3.786   4.159
  167SAPE  H20R18782   6.698   3.755   4.254
  167SAPE  H20S18783   6.581   3.871   4.180
  167SAPE  H20T18784   6.724   3.808   4.081
  167SAPE   C3318785   6.572   3.018   2.778
  167SAPE   H3X18786   6.606   2.957   2.691
  167SAPE   H3Y18787   6.462   3.020   2.792
  167SAPE   C3418788   6.637   2.951   2.899
  167SAPE   H4X18789   6.743   2.983   2.905
  167SAPE   H4Y18790   6.634   2.840   2.901
  167SAPE   C3518791   6.568   2.992   3.035
  167SAPE   H5X18792   6.468   2.944   3.031
  167SAPE   H5Y18793   6.568   3.103   3.034
  167SAPE   C3618794   6.644   2.950   3.164
  167SAPE   H6X18795   6.749   2.982   3.151
  167SAPE   H6Y18796   6.651   2.840   3.177
  167SAPE   C3718797   6.576   3.004   3.286
  167SAPE   H7X18798   6.476   2.958   3.302
  167SAPE   H7Y18799   6.556   3.113   3.277
  167SAPE   C3818800   6.643   2.982   3.424
  167SAPE   H8X18801   6.732   3.048   3.439
  167SAPE   H8Y18802   6.682   2.878   3.430
  167SAPE   C3918803   6.553   3.008   3.552
  167SAPE   H9X18804   6.590   2.950   3.639
  167SAPE   H9Y18805   6.447   2.985   3.528
  167SAPE  C31018806   6.554   3.157   3.594
  167SAPE  H10X18807   6.529   3.223   3.509
  167SAPE  H10Y18808   6.661   3.173   3.619
  167SAPE  C31118809   6.446   3.194   3.705
  167SAPE  H11X18810   6.350   3.139   3.693
  167SAPE  H11Y18811   6.428   3.301   3.684
  167SAPE  C31218812   6.501   3.169   3.843
  167SAPE  H12X18813   6.581   3.239   3.875
  167SAPE  H12Y18814   6.562   3.077   3.831
  167SAPE  C31318815   6.401   3.159   3.953
  167SAPE  H13X18816   6.309   3.114   3.910
  167SAPE  H13Y18817   6.365   3.258   3.989
  167SAPE  C31418818   6.435   3.078   4.082
  167SAPE  H14X18819   6.536   3.094   4.126
  167SAPE  H14Y18820   6.430   2.970   4.056
  167SAPE  C31518821   6.335   3.100   4.205
  167SAPE  H15X18822   6.239   3.137   4.161
  167SAPE  H15Y18823   6.361   3.194   4.259
  167SAPE  C31618824   6.317   2.985   4.297
  167SAPE  H16X18825   6.284   3.028   4.394
  167SAPE  H16Y18826   6.417   2.938   4.306
  167SAPE  C31718827   6.216   2.879   4.255
  167SAPE  H17X18828   6.252   2.830   4.162
  167SAPE  H17Y18829   6.120   2.926   4.228
  167SAPE  C31818830   6.206   2.773   4.361
  167SAPE  H18X18831   6.305   2.732   4.389
  167SAPE  H18Y18832   6.139   2.693   4.325
  167SAPE  H18Z18833   6.153   2.818   4.448
  168SAPE     N18834   2.808   4.822   2.026
  168SAPE   HN118835   2.864   4.744   2.067
  168SAPE   HN218836   2.798   4.888   2.105
  168SAPE   HN318837   2.715   4.783   2.001
  168SAPE   C1218838   2.864   4.891   1.901
  168SAPE  H12A18839   2.807   4.842   1.819
  168SAPE  H12B18840   2.971   4.863   1.896
  168SAPE   C1118841   2.848   5.046   1.903
  168SAPE  H11A18842   2.740   5.071   1.891
  168SAPE  H11B18843   2.905   5.082   1.815
  168SAPE     P18844   2.831   5.138   2.157
  168SAPE   O1318845   2.739   5.025   2.184
  168SAPE   O1418846   2.934   5.169   2.255
  168SAPE   O1218847   2.905   5.108   2.021
  168SAPE   O1118848   2.745   5.257   2.125
  168SAPE    C118849   2.789   5.393   2.139
  168SAPE    HA18850   2.900   5.396   2.134
  168SAPE    HB18851   2.748   5.460   2.061
  168SAPE    C218852   2.729   5.447   2.275
  168SAPE    HS18853   2.719   5.557   2.278
  168SAPE   O2118854   2.795   5.410   2.402
  168SAPE   C2118855   2.925   5.451   2.403
  168SAPE   O2218856   2.978   5.525   2.321
  168SAPE   C2218857   2.996   5.404   2.522
  168SAPE   H2R18858   2.947   5.434   2.617
  168SAPE   H2S18859   2.998   5.293   2.523
  168SAPE    C318860   2.576   5.411   2.275
  168SAPE    HX18861   2.561   5.301   2.268
  168SAPE    HY18862   2.535   5.448   2.178
  168SAPE   O3118863   2.513   5.471   2.383
  168SAPE   C3118864   2.511   5.393   2.495
  168SAPE   O3218865   2.554   5.280   2.500
  168SAPE   C3218866   2.441   5.475   2.603
  168SAPE   H2X18867   2.340   5.510   2.574
  168SAPE   H2Y18868   2.492   5.573   2.616
  168SAPE   C2318869   3.144   5.451   2.544
  168SAPE   H3R18870   3.122   5.558   2.564
  168SAPE   H3S18871   3.209   5.431   2.456
  168SAPE   C2418872   3.216   5.387   2.661
  168SAPE   H4R18873   3.325   5.407   2.654
  168SAPE   H4S18874   3.212   5.279   2.634
  168SAPE   C2518875   3.145   5.405   2.799
  168SAPE   H5R18876   3.041   5.369   2.803
  168SAPE   C2618877   3.204   5.455   2.912
  168SAPE   H6R18878   3.154   5.463   3.009
  168SAPE   C2718879   3.343   5.500   2.918
  168SAPE   H7R18880   3.411   5.470   2.835
  168SAPE   H7S18881   3.388   5.455   3.009
  168SAPE   C2818882   3.349   5.651   2.939
  168SAPE   H8R18883   3.318   5.717   2.857
  168SAPE   C2918884   3.402   5.702   3.051
  168SAPE   H9R18885   3.394   5.811   3.059
  168SAPE  C21018886   3.475   5.646   3.168
  168SAPE  H10R18887   3.549   5.722   3.201
  168SAPE  H10S18888   3.556   5.575   3.141
  168SAPE  C21118889   3.388   5.598   3.278
  168SAPE  H11R18890   3.358   5.494   3.298
  168SAPE  C21218891   3.367   5.682   3.384
  168SAPE  H12R18892   3.310   5.645   3.470
  168SAPE  C21318893   3.406   5.826   3.409
  168SAPE  H13R18894   3.430   5.874   3.312
  168SAPE  H13S18895   3.498   5.821   3.472
  168SAPE  C21418896   3.304   5.903   3.484
  168SAPE  H14R18897   3.216   5.846   3.516
  168SAPE  C21518898   3.304   6.028   3.523
  168SAPE  H15R18899   3.227   6.071   3.589
  168SAPE  C21618900   3.404   6.137   3.485
  168SAPE  H16R18901   3.477   6.101   3.409
  168SAPE  H16S18902   3.467   6.166   3.572
  168SAPE  C21718903   3.347   6.263   3.426
  168SAPE  H17R18904   3.383   6.346   3.490
  168SAPE  H17S18905   3.236   6.259   3.427
  168SAPE  C21818906   3.395   6.299   3.282
  168SAPE  H18R18907   3.393   6.203   3.225
  168SAPE  H18S18908   3.503   6.325   3.286
  168SAPE  C21918909   3.311   6.401   3.220
  168SAPE  H19R18910   3.314   6.492   3.284
  168SAPE  H19S18911   3.206   6.365   3.219
  168SAPE  C22018912   3.369   6.434   3.077
  168SAPE  H20R18913   3.332   6.366   2.997
  168SAPE  H20S18914   3.480   6.434   3.081
  168SAPE  H20T18915   3.333   6.537   3.061
  168SAPE   C3318916   2.445   5.407   2.737
  168SAPE   H3X18917   2.549   5.388   2.769
  168SAPE   H3Y18918   2.394   5.308   2.738
  168SAPE   C3418919   2.401   5.488   2.858
  168SAPE   H4X18920   2.296   5.524   2.854
  168SAPE   H4Y18921   2.455   5.585   2.855
  168SAPE   C3518922   2.403   5.414   2.990
  168SAPE   H5X18923   2.512   5.391   2.995
  168SAPE   H5Y18924   2.341   5.322   2.980
  168SAPE   C3618925   2.359   5.501   3.113
  168SAPE   H6X18926   2.248   5.499   3.109
  168SAPE   H6Y18927   2.395   5.605   3.098
  168SAPE   C3718928   2.400   5.459   3.252
  168SAPE   H7X18929   2.511   5.462   3.262
  168SAPE   H7Y18930   2.364   5.357   3.278
  168SAPE   C3818931   2.347   5.557   3.361
  168SAPE   H8X18932   2.237   5.559   3.375
  168SAPE   H8Y18933   2.387   5.657   3.335
  168SAPE   C3918934   2.403   5.513   3.501
  168SAPE   H9X18935   2.502   5.564   3.498
  168SAPE   H9Y18936   2.397   5.402   3.499
  168SAPE  C31018937   2.316   5.550   3.622
  168SAPE  H10X18938   2.368   5.500   3.707
  168SAPE  H10Y18939   2.214   5.513   3.598
  168SAPE  C31118940   2.311   5.698   3.655
  168SAPE  H11X18941   2.265   5.750   3.568
  168SAPE  H11Y18942   2.404   5.753   3.681
  168SAPE  C31218943   2.223   5.728   3.786
  168SAPE  H12X18944   2.121   5.684   3.781
  168SAPE  H12Y18945   2.204   5.838   3.786
  168SAPE  C31318946   2.292   5.666   3.903
  168SAPE  H13X18947   2.377   5.732   3.930
  168SAPE  H13Y18948   2.321   5.560   3.893
  168SAPE  C31418949   2.194   5.676   4.024
  168SAPE  H14X18950   2.131   5.584   4.015
  168SAPE  H14Y18951   2.127   5.764   4.028
  168SAPE  C31518952   2.277   5.651   4.150
  168SAPE  H15X18953   2.356   5.728   4.166
  168SAPE  H15Y18954   2.309   5.545   4.144
  168SAPE  C31618955   2.180   5.659   4.275
  168SAPE  H16X18956   2.088   5.597   4.264
  168SAPE  H16Y18957   2.145   5.764   4.283
  168SAPE  C31718958   2.243   5.638   4.410
  168SAPE  H17X18959   2.177   5.687   4.484
  168SAPE  H17Y18960   2.337   5.696   4.423
  168SAPE  C31818961   2.278   5.489   4.443
  168SAPE  H18X18962   2.182   5.433   4.438
  168SAPE  H18Y18963   2.315   5.480   4.547
  168SAPE  H18Z18964   2.356   5.452   4.373
  169SAPE     N18965   0.181   3.030   1.984
  169SAPE   HN118966   0.176   2.932   2.016
  169SAPE   HN218967   0.274   3.043   1.939
  169SAPE   HN318968   0.175   3.105   2.056
  169SAPE   C1218969   0.066   3.047   1.887
  169SAPE  H12A18970   0.086   2.974   1.806
  169SAPE  H12B18971   0.069   3.153   1.852
  169SAPE   C1118972   6.774   3.013   1.951
  169SAPE  H11A18973   6.700   3.020   1.868
  169SAPE  H11B18974   6.749   3.088   2.029
  169SAPE     P18975   6.644   2.792   2.010
  169SAPE   O1318976   6.529   2.849   1.938
  169SAPE   O1418977   6.685   2.652   1.980
  169SAPE   O1218978   6.772   2.877   1.996
  169SAPE   O1118979   6.621   2.827   2.166
  169SAPE    C118980   6.717   2.842   2.258
  169SAPE    HA18981   6.813   2.803   2.220
  169SAPE    HB18982   6.733   2.945   2.296
  169SAPE    C218983   6.687   2.755   2.381
  169SAPE    HS18984   6.660   2.654   2.343
  169SAPE   O2118985   6.572   2.816   2.444
  169SAPE   C2118986   6.457   2.752   2.433
  169SAPE   O2218987   6.431   2.656   2.362
  169SAPE   C2218988   6.351   2.813   2.521
  169SAPE   H2R18989   6.404   2.888   2.584
  169SAPE   H2S18990   6.265   2.858   2.467
  169SAPE    C318991   6.804   2.743   2.480
  169SAPE    HX18992   0.002   2.845   2.500
  169SAPE    HY18993   0.045   2.681   2.437
  169SAPE   O3118994   6.764   2.704   2.612
  169SAPE   C3118995   6.735   2.571   2.618
  169SAPE   O3218996   6.747   2.488   2.532
  169SAPE   C3218997   6.698   2.534   2.762
  169SAPE   H2X18998   6.590   2.512   2.750
  169SAPE   H2Y18999   6.705   2.619   2.833
  169SAPE   C2319000   6.284   2.706   2.604
  169SAPE   H3R19001   6.281   2.606   2.556
  169SAPE   H3S19002   6.175   2.729   2.616
  169SAPE   C2419003   6.350   2.693   2.746
  169SAPE   H4R19004   6.294   2.773   2.799
  169SAPE   H4S19005   6.460   2.712   2.749
  169SAPE   C2519006   6.329   2.554   2.811
  169SAPE   H5R19007   6.260   2.485   2.761
  169SAPE   C2619008   6.369   2.526   2.936
  169SAPE   H6R19009   6.346   2.427   2.978
  169SAPE   C2719010   6.440   2.620   3.035
  169SAPE   H7R19011   6.496   2.695   2.976
  169SAPE   H7S19012   6.517   2.558   3.087
  169SAPE   C2819013   6.331   2.683   3.115
  169SAPE   H8R19014   6.241   2.716   3.061
  169SAPE   C2919015   6.321   2.689   3.247
  169SAPE   H9R19016   6.235   2.739   3.295
  169SAPE  C21019017   6.441   2.655   3.343
  169SAPE  H10R19018   6.463   2.725   3.426
  169SAPE  H10S19019   6.535   2.647   3.283
  169SAPE  C21119020   6.422   2.517   3.406
  169SAPE  H11R19021   6.370   2.439   3.348
  169SAPE  C21219022   6.464   2.483   3.532
  169SAPE  H12R19023   6.446   2.377   3.559
  169SAPE  C21319024   6.546   2.555   3.637
  169SAPE  H13R19025   6.632   2.609   3.592
  169SAPE  H13S19026   6.592   2.488   3.713
  169SAPE  C21419027   6.463   2.650   3.722
  169SAPE  H14R19028   6.363   2.671   3.681
  169SAPE  C21519029   6.484   2.710   3.843
  169SAPE  H15R19030   6.413   2.787   3.878
  169SAPE  C21619031   6.609   2.704   3.932
  169SAPE  H16R19032   6.643   2.808   3.949
  169SAPE  H16S19033   6.692   2.655   3.877
  169SAPE  C21719034   6.586   2.641   4.079
  169SAPE  H17R19035   6.589   2.530   4.068
  169SAPE  H17S19036   6.488   2.682   4.112
  169SAPE  C21819037   6.693   2.676   4.186
  169SAPE  H18R19038   6.645   2.683   4.286
  169SAPE  H18S19039   6.732   2.776   4.156
  169SAPE  C21919040   6.808   2.570   4.195
  169SAPE  H19R19041   0.018   2.563   4.096
  169SAPE  H19S19042   6.754   2.473   4.203
  169SAPE  C22019043   0.072   2.614   4.305
  169SAPE  H20R19044   0.136   2.697   4.268
  169SAPE  H20S19045   0.129   2.529   4.350
  169SAPE  H20T19046   0.015   2.661   4.388
  169SAPE   C3319047   6.772   2.412   2.819
  169SAPE   H3X19048   0.040   2.432   2.805
  169SAPE   H3Y19049   6.761   2.320   2.758
  169SAPE   C3419050   6.739   2.391   2.966
  169SAPE   H4X19051   6.632   2.374   2.989
  169SAPE   H4Y19052   6.761   2.483   3.023
  169SAPE   C3519053   6.824   2.287   3.041
  169SAPE   H5X19054   0.091   2.309   3.031
  169SAPE   H5Y19055   6.805   2.194   2.984
  169SAPE   C3619056   6.785   2.252   3.188
  169SAPE   H6X19057   6.674   2.240   3.184
  169SAPE   H6Y19058   6.819   2.333   3.255
  169SAPE   C3719059   6.834   2.116   3.224
  169SAPE   H7X19060   0.102   2.113   3.243
  169SAPE   H7Y19061   6.818   2.051   3.135
  169SAPE   C3819062   6.775   2.048   3.352
  169SAPE   H8X19063   6.812   1.944   3.360
  169SAPE   H8Y19064   6.667   2.041   3.326
  169SAPE   C3919065   6.767   2.123   3.486
  169SAPE   H9X19066   6.734   2.228   3.470
  169SAPE   H9Y19067   0.023   2.115   3.540
  169SAPE  C31019068   6.657   2.065   3.580
  169SAPE  H10X19069   6.679   1.965   3.622
  169SAPE  H10Y19070   6.562   2.059   3.523
  169SAPE  C31119071   6.642   2.169   3.694
  169SAPE  H11X19072   6.592   2.258   3.651
  169SAPE  H11Y19073   6.741   2.198   3.735
  169SAPE  C31219074   6.554   2.117   3.810
  169SAPE  H12X19075   6.555   2.007   3.826
  169SAPE  H12Y19076   6.452   2.147   3.779
  169SAPE  C31319077   6.597   2.171   3.946
  169SAPE  H13X19078   6.598   2.282   3.932
  169SAPE  H13Y19079   6.704   2.141   3.957
  169SAPE  C31419080   6.526   2.115   4.073
  169SAPE  H14X19081   6.560   2.010   4.079
  169SAPE  H14Y19082   6.415   2.121   4.069
  169SAPE  C31519083   6.578   2.184   4.197
  169SAPE  H15X19084   6.526   2.147   4.288
  169SAPE  H15Y19085   6.546   2.290   4.184
  169SAPE  C31619086   6.732   2.172   4.210
  169SAPE  H16X19087   6.787   2.226   4.130
  169SAPE  H16Y19088   6.748   2.064   4.188
  169SAPE  C31719089   6.791   2.212   4.339
  169SAPE  H17X19090   6.749   2.308   4.374
  169SAPE  H17Y19091   0.058   2.233   4.322
  169SAPE  C31819092   6.777   2.106   4.446
  169SAPE  H18X19093   6.697   2.035   4.416
  169SAPE  H18Y19094   6.751   2.145   4.547
  169SAPE  H18Z19095   0.030   2.046   4.460
  170SAPE     N19096   0.784   4.013   1.831
  170SAPE   HN119097   0.882   4.029   1.800
  170SAPE   HN219098   0.734   3.971   1.751
  170SAPE   HN319099   0.743   4.108   1.836
  170SAPE   C1219100   0.793   3.945   1.961
  170SAPE  H12A19101   0.869   3.993   2.025
  170SAPE  H12B19102   0.815   3.837   1.949
  170SAPE   C1119103   0.658   3.952   2.040
  170SAPE  H11A19104   0.615   4.054   2.047
  170SAPE  H11B19105   0.679   3.926   2.146
  170SAPE     P19106   0.531   3.718   2.033
  170SAPE   O1319107   0.407   3.661   1.988
  170SAPE   O1419108   0.648   3.641   2.007
  170SAPE   O1219109   0.558   3.865   1.982
  170SAPE   O1119110   0.529   3.744   2.184
  170SAPE    C119111   0.411   3.804   2.234
  170SAPE    HA19112   0.417   3.911   2.208
  170SAPE    HB19113   0.317   3.773   2.184
  170SAPE    C219114   0.401   3.786   2.388
  170SAPE    HS19115   0.502   3.807   2.430
  170SAPE   O2119116   0.372   3.644   2.414
  170SAPE   C2119117   0.472   3.556   2.423
  170SAPE   O2219118   0.591   3.592   2.420
  170SAPE   C2219119   0.421   3.420   2.443
  170SAPE   H2R19120   0.310   3.426   2.443
  170SAPE   H2S19121   0.448   3.355   2.356
  170SAPE    C319122   0.295   3.874   2.460
  170SAPE    HX19123   0.200   3.847   2.410
  170SAPE    HY19124   0.302   3.984   2.444
  170SAPE   O3119125   0.285   3.849   2.607
  170SAPE   C3119126   0.372   3.924   2.672
  170SAPE   O3219127   0.447   3.998   2.617
  170SAPE   C3219128   0.357   3.896   2.819
  170SAPE   H2X19129   0.375   3.992   2.871
  170SAPE   H2Y19130   0.428   3.813   2.841
  170SAPE   C2319131   0.472   3.363   2.581
  170SAPE   H3R19132   0.582   3.353   2.571
  170SAPE   H3S19133   0.427   3.263   2.595
  170SAPE   C2419134   0.447   3.459   2.701
  170SAPE   H4R19135   0.515   3.546   2.689
  170SAPE   H4S19136   0.478   3.408   2.795
  170SAPE   C2519137   0.304   3.488   2.711
  170SAPE   H5R19138   0.265   3.560   2.637
  170SAPE   C2619139   0.215   3.442   2.807
  170SAPE   H6R19140   0.113   3.484   2.808
  170SAPE   C2719141   0.236   3.349   2.927
  170SAPE   H7R19142   0.258   3.409   3.018
  170SAPE   H7S19143   0.322   3.283   2.905
  170SAPE   C2819144   0.115   3.274   2.964
  170SAPE   H8R19145   0.043   3.257   2.883
  170SAPE   C2919146   0.092   3.215   3.082
  170SAPE   H9R19147   6.837   3.160   3.087
  170SAPE  C21019148   0.173   3.231   3.202
  170SAPE  H10R19149   0.134   3.308   3.272
  170SAPE  H10S19150   0.276   3.266   3.179
  170SAPE  C21119151   0.176   3.101   3.270
  170SAPE  H11R19152   0.203   3.023   3.197
  170SAPE  C21219153   0.154   3.073   3.403
  170SAPE  H12R19154   0.144   2.969   3.436
  170SAPE  C21319155   0.119   3.179   3.507
  170SAPE  H13R19156   0.021   3.156   3.554
  170SAPE  H13S19157   0.107   3.281   3.466
  170SAPE  C21419158   0.229   3.177   3.614
  170SAPE  H14R19159   0.301   3.256   3.588
  170SAPE  C21519160   0.235   3.101   3.724
  170SAPE  H15R19161   0.317   3.108   3.797
  170SAPE  C21619162   0.136   2.985   3.751
  170SAPE  H16R19163   0.188   2.901   3.801
  170SAPE  H16S19164   0.101   2.934   3.659
  170SAPE  C21719165   0.023   3.024   3.843
  170SAPE  H17R19166   6.792   2.941   3.862
  170SAPE  H17S19167   6.796   3.091   3.784
  170SAPE  C21819168   0.061   3.083   3.980
  170SAPE  H18R19169   6.812   3.126   4.030
  170SAPE  H18S19170   0.126   3.171   3.964
  170SAPE  C21919171   0.147   2.991   4.075
  170SAPE  H19R19172   0.253   3.003   4.044
  170SAPE  H19S19173   0.112   2.886   4.063
  170SAPE  C22019174   0.139   3.024   4.223
  170SAPE  H20R19175   0.163   2.931   4.280
  170SAPE  H20S19176   0.033   3.039   4.251
  170SAPE  H20T19177   0.207   3.103   4.262
  170SAPE   C3319178   0.213   3.850   2.863
  170SAPE   H3X19179   0.177   3.756   2.816
  170SAPE   H3Y19180   0.146   3.934   2.837
  170SAPE   C3419181   0.204   3.825   3.017
  170SAPE   H4X19182   0.099   3.796   3.042
  170SAPE   H4Y19183   0.216   3.922   3.069
  170SAPE   C3519184   0.312   3.720   3.062
  170SAPE   H5X19185   0.413   3.762   3.082
  170SAPE   H5Y19186   0.314   3.636   2.990
  170SAPE   C3619187   0.285   3.653   3.192
  170SAPE   H6X19188   0.194   3.589   3.191
  170SAPE   H6Y19189   0.289   3.722   3.280
  170SAPE   C3719190   0.402   3.564   3.238
  170SAPE   H7X19191   0.496   3.621   3.228
  170SAPE   H7Y19192   0.408   3.484   3.161
  170SAPE   C3819193   0.389   3.501   3.375
  170SAPE   H8X19194   0.473   3.429   3.380
  170SAPE   H8Y19195   0.289   3.460   3.398
  170SAPE   C3919196   0.427   3.611   3.484
  170SAPE   H9X19197   0.362   3.701   3.482
  170SAPE   H9Y19198   0.523   3.658   3.454
  170SAPE  C31019199   0.446   3.545   3.626
  170SAPE  H10X19200   0.523   3.466   3.627
  170SAPE  H10Y19201   0.349   3.498   3.655
  170SAPE  C31119202   0.460   3.651   3.735
  170SAPE  H11X19203   0.376   3.722   3.751
  170SAPE  H11Y19204   0.545   3.719   3.711
  170SAPE  C31219205   0.505   3.593   3.867
  170SAPE  H12X19206   0.604   3.551   3.837
  170SAPE  H12Y19207   0.446   3.511   3.912
  170SAPE  C31319208   0.512   3.702   3.974
  170SAPE  H13X19209   0.411   3.746   3.992
  170SAPE  H13Y19210   0.578   3.787   3.945
  170SAPE  C31419211   0.553   3.634   4.107
  170SAPE  H14X19212   0.498   3.538   4.111
  170SAPE  H14Y19213   0.513   3.693   4.192
  170SAPE  C31519214   0.705   3.626   4.131
  170SAPE  H15X19215   0.756   3.593   4.037
  170SAPE  H15Y19216   0.721   3.553   4.213
  170SAPE  C31619217   0.771   3.767   4.170
  170SAPE  H16X19218   0.711   3.817   4.249
  170SAPE  H16Y19219   0.764   3.829   4.078
  170SAPE  C31719220   0.918   3.761   4.226
  170SAPE  H17X19221   0.899   3.728   4.330
  170SAPE  H17Y19222   0.959   3.863   4.244
  170SAPE  C31819223   1.003   3.659   4.159
  170SAPE  H18X19224   1.107   3.679   4.192
  170SAPE  H18Y19225   1.001   3.673   4.049
  170SAPE  H18Z19226   0.986   3.555   4.192
  171SAPE     N19227   6.737   2.410   2.052
  171SAPE   HN119228   6.710   2.507   2.026
  171SAPE   HN219229   6.816   2.370   1.997
  171SAPE   HN319230   6.670   2.332   2.037
  171SAPE   C1219231   6.776   2.428   2.194
  171SAPE  H12A19232   6.769   2.331   2.248
  171SAPE  H12B19233   6.703   2.494   2.245
  171SAPE   C1119234   0.080   2.474   2.209
  171SAPE  H11A19235   0.143   2.399   2.158
  171SAPE  H11B19236   0.106   2.476   2.317
  171SAPE     P19237   0.231   2.645   2.083
  171SAPE   O1319238   0.242   2.569   1.954
  171SAPE   O1419239   0.240   2.790   2.077
  171SAPE   O1219240   0.102   2.605   2.162
  171SAPE   O1119241   0.338   2.601   2.185
  171SAPE    C119242   0.433   2.686   2.247
  171SAPE    HA19243   0.517   2.620   2.280
  171SAPE    HB19244   0.468   2.772   2.186
  171SAPE    C219245   0.379   2.748   2.380
  171SAPE    HS19246   0.474   2.779   2.429
  171SAPE   O2119247   0.311   2.659   2.462
  171SAPE   C2119248   0.378   2.553   2.498
  171SAPE   O2219249   0.500   2.544   2.508
  171SAPE   C2219250   0.275   2.448   2.559
  171SAPE   H2R19251   0.265   2.458   2.669
  171SAPE   H2S19252   0.173   2.480   2.531
  171SAPE    C319253   0.285   2.865   2.361
  171SAPE    HX19254   0.189   2.837   2.312
  171SAPE    HY19255   0.327   2.944   2.295
  171SAPE   O3119256   0.235   2.915   2.490
  171SAPE   C3119257   0.312   3.004   2.540
  171SAPE   O3219258   0.418   3.042   2.488
  171SAPE   C3219259   0.259   3.048   2.672
  171SAPE   H2X19260   0.149   3.035   2.680
  171SAPE   H2Y19261   0.276   3.158   2.679
  171SAPE   C2319262   0.312   2.301   2.511
  171SAPE   H3R19263   0.417   2.288   2.545
  171SAPE   H3S19264   0.304   2.305   2.401
  171SAPE   C2419265   0.217   2.190   2.567
  171SAPE   H4R19266   0.113   2.204   2.531
  171SAPE   H4S19267   0.194   2.218   2.672
  171SAPE   C2519268   0.262   2.051   2.549
  171SAPE   H5R19269   0.316   2.017   2.459
  171SAPE   C2619270   0.245   1.953   2.639
  171SAPE   H6R19271   0.281   1.851   2.617
  171SAPE   C2719272   0.172   1.955   2.773
  171SAPE   H7R19273   0.088   2.028   2.770
  171SAPE   H7S19274   0.242   2.002   2.845
  171SAPE   C2819275   0.110   1.832   2.834
  171SAPE   H8R19276   0.009   1.803   2.801
  171SAPE   C2919277   0.176   1.753   2.919
  171SAPE   H9R19278   0.119   1.675   2.971
  171SAPE  C21019279   0.317   1.772   2.967
  171SAPE  H10R19280   0.370   1.841   2.898
  171SAPE  H10S19281   0.362   1.671   2.972
  171SAPE  C21119282   0.317   1.833   3.107
  171SAPE  H11R19283   0.239   1.910   3.123
  171SAPE  C21219284   0.415   1.808   3.195
  171SAPE  H12R19285   0.415   1.854   3.295
  171SAPE  C21319286   0.528   1.715   3.159
  171SAPE  H13R19287   0.592   1.761   3.081
  171SAPE  H13S19288   0.489   1.618   3.123
  171SAPE  C21419289   0.606   1.677   3.289
  171SAPE  H14R19290   0.582   1.574   3.320
  171SAPE  C21519291   0.684   1.755   3.370
  171SAPE  H15R19292   0.751   1.698   3.435
  171SAPE  C21619293   0.721   1.902   3.352
  171SAPE  H16R19294   0.691   1.967   3.437
  171SAPE  H16S19295   0.668   1.939   3.262
  171SAPE  C21719296   0.874   1.918   3.329
  171SAPE  H17R19297   0.920   1.884   3.424
  171SAPE  H17S19298   0.882   2.027   3.310
  171SAPE  C21819299   0.935   1.843   3.211
  171SAPE  H18R19300   0.914   1.735   3.214
  171SAPE  H18S19301   1.044   1.866   3.216
  171SAPE  C21919302   0.884   1.896   3.078
  171SAPE  H19R19303   0.906   2.005   3.075
  171SAPE  H19S19304   0.773   1.891   3.065
  171SAPE  C22019305   0.949   1.835   2.960
  171SAPE  H20R19306   1.055   1.817   2.986
  171SAPE  H20S19307   0.963   1.900   2.872
  171SAPE  H20T19308   0.892   1.745   2.928
  171SAPE   C3319309   0.327   2.967   2.787
  171SAPE   H3X19310   0.309   3.020   2.883
  171SAPE   H3Y19311   0.438   2.961   2.784
  171SAPE   C3419312   0.255   2.833   2.812
  171SAPE   H4X19313   0.250   2.778   2.716
  171SAPE   H4Y19314   0.153   2.849   2.853
  171SAPE   C3519315   0.328   2.730   2.899
  171SAPE   H5X19316   0.436   2.724   2.875
  171SAPE   H5Y19317   0.277   2.635   2.872
  171SAPE   C3619318   0.296   2.728   3.055
  171SAPE   H6X19319   0.324   2.827   3.096
  171SAPE   H6Y19320   0.371   2.665   3.107
  171SAPE   C3719321   0.152   2.682   3.084
  171SAPE   H7X19322   0.131   2.600   3.013
  171SAPE   H7Y19323   0.072   2.755   3.061
  171SAPE   C3819324   0.124   2.623   3.221
  171SAPE   H8X19325   0.194   2.541   3.245
  171SAPE   H8Y19326   0.027   2.568   3.219
  171SAPE   C3919327   0.133   2.733   3.328
  171SAPE   H9X19328   0.034   2.783   3.341
  171SAPE   H9Y19329   0.214   2.805   3.302
  171SAPE  C31019330   0.180   2.678   3.461
  171SAPE  H10X19331   0.208   2.767   3.521
  171SAPE  H10Y19332   0.271   2.613   3.456
  171SAPE  C31119333   0.065   2.597   3.523
  171SAPE  H11X19334   0.048   2.497   3.477
  171SAPE  H11Y19335   6.815   2.660   3.509
  171SAPE  C31219336   0.083   2.572   3.671
  171SAPE  H12X19337   6.832   2.527   3.716
  171SAPE  H12Y19338   0.080   2.670   3.724
  171SAPE  C31319339   0.205   2.485   3.708
  171SAPE  H13X19340   0.298   2.514   3.656
  171SAPE  H13Y19341   0.190   2.378   3.682
  171SAPE  C31419342   0.229   2.478   3.861
  171SAPE  H14X19343   0.134   2.455   3.915
  171SAPE  H14Y19344   0.263   2.574   3.904
  171SAPE  C31519345   0.338   2.383   3.889
  171SAPE  H15X19346   0.426   2.400   3.824
  171SAPE  H15Y19347   0.310   2.278   3.865
  171SAPE  C31619348   0.384   2.375   4.039
  171SAPE  H16X19349   0.392   2.483   4.063
  171SAPE  H16Y19350   0.481   2.323   4.049
  171SAPE  C31719351   0.284   2.313   4.128
  171SAPE  H17X19352   0.184   2.353   4.100
  171SAPE  H17Y19353   0.301   2.334   4.235
  171SAPE  C31819354   0.280   2.158   4.113
  171SAPE  H18X19355   0.201   2.114   4.178
  171SAPE  H18Y19356   0.377   2.104   4.120
  171SAPE  H18Z19357   0.239   2.125   4.015
  172SAPE     N19358   0.129   4.636   2.179
  172SAPE   HN119359   0.193   4.570   2.130
  172SAPE   HN219360   0.042   4.584   2.202
  172SAPE   HN319361   0.112   4.714   2.112
  172SAPE   C1219362   0.203   4.687   2.304
  172SAPE  H12A19363   0.212   4.602   2.375
  172SAPE  H12B19364   0.147   4.769   2.354
  172SAPE   C1119365   0.349   4.736   2.283
  172SAPE  H11A19366   0.404   4.665   2.218
  172SAPE  H11B19367   0.395   4.741   2.384
  172SAPE     P19368   0.347   5.003   2.265
  172SAPE   O1319369   0.420   5.087   2.170
  172SAPE   O1419370   0.206   5.038   2.302
  172SAPE   O1219371   0.342   4.861   2.209
  172SAPE   O1119372   0.421   4.979   2.402
  172SAPE    C119373   0.558   4.986   2.420
  172SAPE    HA19374   0.598   4.882   2.420
  172SAPE    HB19375   0.603   5.046   2.338
  172SAPE    C219376   0.578   5.041   2.563
  172SAPE    HS19377   0.589   4.949   2.625
  172SAPE   O2119378   0.473   5.125   2.612
  172SAPE   C2119379   0.420   5.220   2.547
  172SAPE   O2219380   0.449   5.254   2.436
  172SAPE   C2219381   0.306   5.276   2.638
  172SAPE   H2R19382   0.268   5.187   2.693
  172SAPE   H2S19383   0.347   5.352   2.707
  172SAPE    C319384   0.718   5.106   2.579
  172SAPE    HX19385   0.731   5.196   2.515
  172SAPE    HY19386   0.782   5.027   2.533
  172SAPE   O3119387   0.763   5.140   2.713
  172SAPE   C3119388   0.729   5.255   2.759
  172SAPE   O3219389   0.647   5.333   2.709
  172SAPE   C3219390   0.808   5.295   2.874
  172SAPE   H2X19391   0.852   5.395   2.856
  172SAPE   H2Y19392   0.886   5.220   2.899
  172SAPE   C2319393   0.196   5.335   2.552
  172SAPE   H3R19394   0.173   5.272   2.462
  172SAPE   H3S19395   0.225   5.435   2.515
  172SAPE   C2419396   0.071   5.362   2.638
  172SAPE   H4R19397   0.055   5.283   2.715
  172SAPE   H4S19398   6.820   5.372   2.576
  172SAPE   C2519399   0.093   5.490   2.725
  172SAPE   H5R19400   0.139   5.572   2.668
  172SAPE   C2619401   0.083   5.502   2.861
  172SAPE   H6R19402   0.088   5.606   2.897
  172SAPE   C2719403   0.050   5.404   2.962
  172SAPE   H7R19404   0.052   5.300   2.922
  172SAPE   H7S19405   6.790   5.423   3.006
  172SAPE   C2819406   0.166   5.403   3.057
  172SAPE   H8R19407   0.261   5.423   3.008
  172SAPE   C2919408   0.166   5.386   3.195
  172SAPE   H9R19409   0.263   5.394   3.247
  172SAPE  C21019410   0.055   5.358   3.296
  172SAPE  H10R19411   0.084   5.293   3.382
  172SAPE  H10S19412   6.823   5.294   3.242
  172SAPE  C21119413   6.834   5.486   3.340
  172SAPE  H11R19414   0.043   5.573   3.293
  172SAPE  C21219415   6.769   5.510   3.457
  172SAPE  H12R19416   6.731   5.610   3.480
  172SAPE  C21319417   6.705   5.399   3.537
  172SAPE  H13R19418   6.775   5.352   3.609
  172SAPE  H13S19419   6.693   5.313   3.468
  172SAPE  C21419420   6.577   5.425   3.609
  172SAPE  H14R19421   6.481   5.418   3.555
  172SAPE  C21519422   6.577   5.458   3.739
  172SAPE  H15R19423   6.485   5.489   3.790
  172SAPE  C21619424   6.699   5.466   3.833
  172SAPE  H16R19425   6.795   5.469   3.777
  172SAPE  H16S19426   6.702   5.380   3.903
  172SAPE  C21719427   6.700   5.597   3.916
  172SAPE  H17R19428   6.693   5.691   3.857
  172SAPE  H17S19429   6.794   5.593   3.975
  172SAPE  C21819430   6.589   5.597   4.021
  172SAPE  H18R19431   6.596   5.511   4.091
  172SAPE  H18S19432   6.498   5.575   3.962
  172SAPE  C21919433   6.574   5.727   4.104
  172SAPE  H19R19434   6.544   5.810   4.036
  172SAPE  H19S19435   6.675   5.752   4.142
  172SAPE  C22019436   6.470   5.728   4.211
  172SAPE  H20R19437   6.373   5.704   4.162
  172SAPE  H20S19438   6.455   5.829   4.256
  172SAPE  H20T19439   6.493   5.648   4.284
  172SAPE   C3319440   0.724   5.312   3.010
  172SAPE   H3X19441   0.638   5.379   2.988
  172SAPE   H3Y19442   0.793   5.360   3.083
  172SAPE   C3419443   0.678   5.179   3.060
  172SAPE   H4X19444   0.683   5.104   2.978
  172SAPE   H4Y19445   0.568   5.175   3.080
  172SAPE   C3519446   0.767   5.136   3.188
  172SAPE   H5X19447   0.872   5.160   3.160
  172SAPE   H5Y19448   0.769   5.027   3.171
  172SAPE   C3619449   0.719   5.190   3.325
  172SAPE   H6X19450   0.609   5.178   3.322
  172SAPE   H6Y19451   0.755   5.295   3.334
  172SAPE   C3719452   0.767   5.120   3.449
  172SAPE   H7X19453   0.878   5.127   3.457
  172SAPE   H7Y19454   0.732   5.014   3.447
  172SAPE   C3819455   0.709   5.191   3.578
  172SAPE   H8X19456   0.598   5.191   3.572
  172SAPE   H8Y19457   0.726   5.300   3.580
  172SAPE   C3919458   0.756   5.137   3.711
  172SAPE   H9X19459   0.861   5.165   3.735
  172SAPE   H9Y19460   0.753   5.026   3.707
  172SAPE  C31019461   0.678   5.195   3.831
  172SAPE  H10X19462   0.568   5.187   3.818
  172SAPE  H10Y19463   0.689   5.305   3.826
  172SAPE  C31119464   0.728   5.142   3.960
  172SAPE  H11X19465   0.709   5.033   3.954
  172SAPE  H11Y19466   0.669   5.169   4.050
  172SAPE  C31219467   0.875   5.152   3.990
  172SAPE  H12X19468   0.919   5.242   3.942
  172SAPE  H12Y19469   0.927   5.065   3.943
  172SAPE  C31319470   0.901   5.151   4.136
  172SAPE  H13X19471   0.879   5.046   4.165
  172SAPE  H13Y19472   0.834   5.217   4.195
  172SAPE  C31419473   1.048   5.179   4.176
  172SAPE  H14X19474   1.116   5.122   4.110
  172SAPE  H14Y19475   1.069   5.153   4.282
  172SAPE  C31519476   1.095   5.319   4.154
  172SAPE  H15X19477   1.082   5.345   4.047
  172SAPE  H15Y19478   1.205   5.308   4.166
  172SAPE  C31619479   1.034   5.433   4.242
  172SAPE  H16X19480   0.923   5.430   4.238
  172SAPE  H16Y19481   1.074   5.525   4.195
  172SAPE  C31719482   1.063   5.427   4.394
  172SAPE  H17X19483   1.172   5.417   4.415
  172SAPE  H17Y19484   1.027   5.325   4.421
  172SAPE  C31819485   0.990   5.536   4.479
  172SAPE  H18X19486   1.009   5.515   4.587
  172SAPE  H18Y19487   0.880   5.530   4.462
  172SAPE  H18Z19488   1.024   5.640   4.460
  173SLPC     N19489   6.262   6.454   6.820
  173SLPC   C1319490   6.182   6.327   6.815
  173SLPC  H13A19491   6.077   6.347   6.800
  173SLPC  H13B19492   6.212   6.260   6.736
  173SLPC  H13C19493   6.183   6.270   6.907
  173SLPC   C1419494   6.397   6.433   6.887
  173SLPC  H14A19495   6.393   6.402   6.991
  173SLPC  H14B19496   6.451   6.354   6.837
  173SLPC  H14C19497   6.437   6.533   6.883
  173SLPC   C1519498   6.187   6.559   6.894
  173SLPC  H15A19499   6.080   6.556   6.879
  173SLPC  H15B19500   6.206   6.542   6.999
  173SLPC  H15C19501   6.225   6.658   6.875
  173SLPC   C1219502   6.291   6.513   6.676
  173SLPC  H12A19503   6.195   6.543   6.638
  173SLPC  H12B19504   6.334   6.440   6.609
  173SLPC   C1119505   6.361   6.651   6.665
  173SLPC  H11A19506   6.384   6.657   6.556
  173SLPC  H11B19507   6.461   6.655   6.714
  173SLPC     P19508   6.167   6.823   6.624
  173SLPC   O1319509   6.058   6.722   6.621
  173SLPC   O1419510   6.126   0.117   6.676
  173SLPC   O1219511   6.283   6.760   6.710
  173SLPC   O1119512   6.234   6.838   6.484
  173SLPC    C119513   6.330   0.103   6.455
  173SLPC    HA19514   6.334   0.187   6.528
  173SLPC    HB19515   6.433   0.064   6.438
  173SLPC    C219516   6.285   0.173   6.324
  173SLPC    HS19517   6.182   0.209   6.344
  173SLPC   O2119518   6.277   0.072   6.219
  173SLPC   C2119519   6.183   0.084   6.142
  173SLPC   O2219520   6.076   0.148   6.156
  173SLPC   C2219521   6.209   6.838   6.017
  173SLPC   H2R19522   6.277   0.055   5.951
  173SLPC   H2S19523   6.263   6.750   6.058
  173SLPC    C319524   6.376   0.290   6.293
  173SLPC    HX19525   6.485   0.267   6.286
  173SLPC    HY19526   6.370   0.360   6.379
  173SLPC   O3119527   6.334   0.354   6.177
  173SLPC   C3119528   6.240   0.447   6.192
  173SLPC   O3219529   6.189   0.482   6.296
  173SLPC   C3219530   6.198   0.505   6.061
  173SLPC   H2X19531   6.243   0.606   6.057
  173SLPC   H2Y19532   6.087   0.508   6.057
  173SLPC   C2319533   6.080   6.800   5.940
  173SLPC   H3R19534   6.099   6.739   5.849
  173SLPC   H3S19535   6.028   0.051   5.907
  173SLPC   C2419536   5.991   6.710   6.021
  173SLPC   H4R19537   5.916   6.779   6.067
  173SLPC   H4S19538   6.057   6.667   6.099
  173SLPC   C2519539   5.913   6.601   5.940
  173SLPC   H5R19540   5.839   6.542   5.997
  173SLPC   H5S19541   5.981   6.526   5.893
  173SLPC   C2619542   5.823   6.655   5.826
  173SLPC   H6R19543   5.879   6.693   5.737
  173SLPC   H6S19544   5.750   6.727   5.868
  173SLPC   C2719545   5.719   6.552   5.772
  173SLPC   H7R19546   5.646   6.608   5.709
  173SLPC   H7S19547   5.648   6.508   5.845
  173SLPC   C2819548   5.781   6.450   5.675
  173SLPC   H8R19549   5.861   6.404   5.737
  173SLPC   H8S19550   5.830   6.495   5.587
  173SLPC   C2919551   5.683   6.336   5.643
  173SLPC   H9R19552   5.642   6.286   5.733
  173SLPC  C21019553   5.645   6.304   5.517
  173SLPC  H10R19554   5.560   6.235   5.501
  173SLPC  C21119555   5.684   6.380   5.388
  173SLPC  H11R19556   5.766   6.320   5.343
  173SLPC  H11S19557   5.723   6.482   5.405
  173SLPC  C21219558   5.575   6.396   5.282
  173SLPC  H12R19559   5.472   6.377   5.318
  173SLPC  C21319560   5.587   6.401   5.145
  173SLPC  H13R19561   5.491   6.414   5.093
  173SLPC  C21419562   5.715   6.415   5.071
  173SLPC  H14R19563   5.806   6.392   5.131
  173SLPC  H14S19564   5.729   6.516   5.025
  173SLPC  C21519565   5.720   6.310   4.962
  173SLPC  H15R19566   5.693   6.209   4.998
  173SLPC  H15S19567   5.826   6.323   4.930
  173SLPC  C21619568   5.627   6.346   4.842
  173SLPC  H16R19569   5.651   6.451   4.815
  173SLPC  H16S19570   5.525   6.363   4.881
  173SLPC  C21719571   5.650   6.246   4.724
  173SLPC  H17R19572   5.628   6.140   4.749
  173SLPC  H17S19573   5.758   6.240   4.699
  173SLPC  C21819574   5.574   6.289   4.600
  173SLPC  H18R19575   5.618   6.380   4.554
  173SLPC  H18S19576   5.469   6.313   4.627
  173SLPC  H18T19577   5.581   6.203   4.529
  173SLPC   C3319578   6.242   0.435   5.929
  173SLPC   H3X19579   6.183   0.341   5.928
  173SLPC   H3Y19580   6.353   0.425   5.933
  173SLPC   C3419581   6.194   0.522   5.803
  173SLPC   H4X19582   6.222   0.626   5.829
  173SLPC   H4Y19583   6.084   0.526   5.819
  173SLPC   C3519584   6.232   0.467   5.666
  173SLPC   H5X19585   6.193   0.363   5.652
  173SLPC   H5Y19586   6.341   0.476   5.647
  173SLPC   C3619587   6.171   0.546   5.550
  173SLPC   H6X19588   6.186   0.654   5.571
  173SLPC   H6Y19589   6.062   0.525   5.542
  173SLPC   C3719590   6.243   0.522   5.418
  173SLPC   H7X19591   6.238   0.415   5.388
  173SLPC   H7Y19592   6.351   0.548   5.427
  173SLPC   C3819593   6.190   0.605   5.299
  173SLPC   H8X19594   6.231   0.707   5.319
  173SLPC   H8Y19595   6.079   0.612   5.293
  173SLPC   C3919596   6.287   0.571   5.184
  173SLPC   H9X19597   6.256   0.473   5.142
  173SLPC   H9Y19598   6.394   0.559   5.211
  173SLPC  C31019599   6.276   0.679   5.072
  173SLPC  H10X19600   6.312   0.778   5.105
  173SLPC  H10Y19601   6.168   0.698   5.052
  173SLPC  C31119602   6.344   0.628   4.943
  173SLPC  H11X19603   6.304   0.529   4.913
  173SLPC  H11Y19604   6.453   0.609   4.955
  173SLPC  C31219605   6.343   0.730   4.823
  173SLPC  H12X19606   6.387   0.826   4.857
  173SLPC  H12Y19607   6.238   0.753   4.795
  173SLPC  C31319608   6.427   0.684   4.697
  173SLPC  H13X19609   6.383   0.590   4.657
  173SLPC  H13Y19610   6.532   0.674   4.732
  173SLPC  C31419611   6.428   0.794   4.586
  173SLPC  H14X19612   6.484   0.885   4.617
  173SLPC  H14Y19613   6.325   0.824   4.558
  173SLPC  C31519614   6.486   0.747   4.452
  173SLPC  H15X19615   6.414   0.695   4.386
  173SLPC  H15Y19616   6.576   0.683   4.462
  173SLPC  C31619617   6.533   0.874   4.373
  173SLPC  H16X19618   6.625   0.905   4.428
  173SLPC  H16Y19619   6.455   0.952   4.378
  173SLPC  C31719620   6.568   0.845   4.226
  173SLPC  H17X19621   6.498   0.909   4.167
  173SLPC  H17Y19622   6.542   0.738   4.209
  173SLPC  C31819623   6.708   0.891   4.180
  173SLPC  H18X19624   6.709   1.002   4.189
  173SLPC  H18Y19625   6.719   0.855   4.075
  173SLPC  H18Z19626   6.780   0.833   4.242
  174SLPC     N19627   2.632   1.805   6.819
  174SLPC   C1319628   2.737   1.701   6.850
  174SLPC  H13A19629   2.825   1.740   6.900
  174SLPC  H13B19630   2.693   1.618   6.903
  174SLPC  H13C19631   2.770   1.669   6.752
  174SLPC   C1419632   2.586   1.842   6.957
  174SLPC  H14A19633   2.668   1.865   7.023
  174SLPC  H14B19634   2.526   1.932   6.958
  174SLPC  H14C19635   2.517   1.771   7.001
  174SLPC   C1519636   2.510   1.741   6.770
  174SLPC  H15A19637   2.442   1.813   6.728
  174SLPC  H15B19638   2.528   1.676   6.685
  174SLPC  H15C19639   2.460   1.690   6.850
  174SLPC   C1219640   2.673   1.919   6.735
  174SLPC  H12A19641   2.735   1.982   6.797
  174SLPC  H12B19642   2.593   1.988   6.715
  174SLPC   C1119643   2.756   1.887   6.605
  174SLPC  H11A19644   2.762   1.975   6.536
  174SLPC  H11B19645   2.697   1.812   6.549
  174SLPC     P19646   2.970   1.760   6.530
  174SLPC   O1319647   3.099   1.738   6.592
  174SLPC   O1419648   2.899   1.640   6.485
  174SLPC   O1219649   2.885   1.844   6.636
  174SLPC   O1119650   2.987   1.859   6.408
  174SLPC    C119651   3.003   1.996   6.425
  174SLPC    HA19652   2.928   2.059   6.373
  174SLPC    HB19653   2.987   2.034   6.528
  174SLPC    C219654   3.140   2.053   6.375
  174SLPC    HS19655   3.125   2.163   6.366
  174SLPC   O2119656   3.172   1.991   6.249
  174SLPC   C2119657   3.123   2.045   6.142
  174SLPC   O2219658   3.061   2.147   6.131
  174SLPC   C2219659   3.142   1.941   6.036
  174SLPC   H2R19660   3.251   1.927   6.023
  174SLPC   H2S19661   3.103   1.847   6.080
  174SLPC    C319662   3.257   2.033   6.479
  174SLPC    HX19663   3.259   1.931   6.522
  174SLPC    HY19664   3.243   2.094   6.571
  174SLPC   O3119665   3.380   2.054   6.411
  174SLPC   C3119666   3.417   2.184   6.411
  174SLPC   O3219667   3.354   2.277   6.458
  174SLPC   C3219668   3.543   2.198   6.324
  174SLPC   H2X19669   3.615   2.125   6.367
  174SLPC   H2Y19670   3.592   2.298   6.324
  174SLPC   C2319671   3.071   1.969   5.903
  174SLPC   H3R19672   3.050   2.077   5.893
  174SLPC   H3S19673   2.979   1.906   5.899
  174SLPC   C2419674   3.160   1.923   5.787
  174SLPC   H4R19675   3.175   1.813   5.793
  174SLPC   H4S19676   3.254   1.974   5.817
  174SLPC   C2519677   3.113   1.956   5.643
  174SLPC   H5R19678   3.103   2.066   5.625
  174SLPC   H5S19679   3.015   1.905   5.632
  174SLPC   C2619680   3.202   1.909   5.532
  174SLPC   H6R19681   3.203   1.799   5.547
  174SLPC   H6S19682   3.306   1.948   5.538
  174SLPC   C2719683   3.143   1.932   5.395
  174SLPC   H7R19684   3.149   2.042   5.378
  174SLPC   H7S19685   3.037   1.899   5.392
  174SLPC   C2819686   3.222   1.858   5.284
  174SLPC   H8R19687   3.221   1.747   5.288
  174SLPC   H8S19688   3.329   1.886   5.292
  174SLPC   C2919689   3.174   1.909   5.152
  174SLPC   H9R19690   3.068   1.939   5.149
  174SLPC  C21019691   3.230   1.890   5.038
  174SLPC  H10R19692   3.168   1.937   4.961
  174SLPC  C21119693   3.365   1.821   5.017
  174SLPC  H11R19694   3.361   1.715   5.050
  174SLPC  H11S19695   3.438   1.886   5.070
  174SLPC  C21219696   3.406   1.822   4.872
  174SLPC  H12R19697   3.465   1.908   4.838
  174SLPC  C21319698   3.411   1.720   4.792
  174SLPC  H13R19699   3.460   1.737   4.695
  174SLPC  C21419700   3.352   1.586   4.821
  174SLPC  H14R19701   3.241   1.588   4.810
  174SLPC  H14S19702   3.367   1.551   4.925
  174SLPC  C21519703   3.404   1.468   4.725
  174SLPC  H15R19704   3.380   1.369   4.768
  174SLPC  H15S19705   3.514   1.469   4.710
  174SLPC  C21619706   3.335   1.475   4.584
  174SLPC  H16R19707   3.339   1.580   4.546
  174SLPC  H16S19708   3.230   1.441   4.593
  174SLPC  C21719709   3.385   1.377   4.476
  174SLPC  H17R19710   3.388   1.280   4.528
  174SLPC  H17S19711   3.495   1.389   4.460
  174SLPC  C21819712   3.321   1.394   4.340
  174SLPC  H18R19713   3.355   1.491   4.297
  174SLPC  H18S19714   3.210   1.397   4.342
  174SLPC  H18T19715   3.354   1.307   4.280
  174SLPC   C3319716   3.523   2.143   6.178
  174SLPC   H3X19717   3.475   2.044   6.188
  174SLPC   H3Y19718   3.618   2.128   6.123
  174SLPC   C3419719   3.443   2.228   6.078
  174SLPC   H4X19720   3.465   2.337   6.087
  174SLPC   H4Y19721   3.335   2.204   6.078
  174SLPC   C3519722   3.475   2.189   5.931
  174SLPC   H5X19723   3.462   2.079   5.922
  174SLPC   H5Y19724   3.582   2.213   5.914
  174SLPC   C3619725   3.396   2.268   5.816
  174SLPC   H6X19726   3.408   2.378   5.827
  174SLPC   H6Y19727   3.287   2.253   5.830
  174SLPC   C3719728   3.433   2.214   5.676
  174SLPC   H7X19729   3.402   2.109   5.656
  174SLPC   H7Y19730   3.542   2.213   5.654
  174SLPC   C3819731   3.368   2.284   5.558
  174SLPC   H8X19732   3.396   2.390   5.578
  174SLPC   H8Y19733   3.261   2.286   5.586
  174SLPC   C3919734   3.394   2.228   5.419
  174SLPC   H9X19735   3.373   2.119   5.410
  174SLPC   H9Y19736   3.504   2.228   5.402
  174SLPC  C31019737   3.319   2.307   5.313
  174SLPC  H10X19738   3.333   2.417   5.320
  174SLPC  H10Y19739   3.209   2.294   5.318
  174SLPC  C31119740   3.355   2.268   5.171
  174SLPC  H11X19741   3.324   2.162   5.156
  174SLPC  H11Y19742   3.466   2.269   5.164
  174SLPC  C31219743   3.306   2.365   5.064
  174SLPC  H12X19744   3.349   2.467   5.075
  174SLPC  H12Y19745   3.196   2.375   5.063
  174SLPC  C31319746   3.355   2.321   4.922
  174SLPC  H13X19747   3.348   2.210   4.918
  174SLPC  H13Y19748   3.454   2.366   4.899
  174SLPC  C31419749   3.266   2.368   4.808
  174SLPC  H14X19750   3.160   2.339   4.828
  174SLPC  H14Y19751   3.293   2.302   4.723
  174SLPC  C31519752   3.305   2.513   4.767
  174SLPC  H15X19753   3.400   2.494   4.711
  174SLPC  H15Y19754   3.317   2.575   4.858
  174SLPC  C31619755   3.192   2.577   4.692
  174SLPC  H16X19756   3.095   2.541   4.734
  174SLPC  H16Y19757   3.206   2.543   4.587
  174SLPC  C31719758   3.189   2.727   4.682
  174SLPC  H17X19759   3.162   2.758   4.785
  174SLPC  H17Y19760   3.109   2.760   4.612
  174SLPC  C31819761   3.328   2.789   4.639
  174SLPC  H18X19762   3.308   2.895   4.611
  174SLPC  H18Y19763   3.385   2.745   4.555
  174SLPC  H18Z19764   3.399   2.790   4.724
  175SLPC     N19765   6.273   2.754   6.862
  175SLPC   C1319766   6.339   2.868   6.925
  175SLPC  H13A19767   6.283   2.959   6.909
  175SLPC  H13B19768   6.342   2.846   7.030
  175SLPC  H13C19769   6.440   2.883   6.888
  175SLPC   C1419770   6.131   2.749   6.914
  175SLPC  H14A19771   6.072   2.826   6.865
  175SLPC  H14B19772   6.081   2.653   6.905
  175SLPC  H14C19773   6.129   2.774   7.019
  175SLPC   C1519774   6.345   2.630   6.906
  175SLPC  H15A19775   6.288   2.545   6.872
  175SLPC  H15B19776   6.437   2.629   6.850
  175SLPC  H15C19777   6.370   2.623   7.011
  175SLPC   C1219778   6.275   2.759   6.707
  175SLPC  H12A19779   6.223   2.674   6.667
  175SLPC  H12B19780   6.378   2.758   6.675
  175SLPC   C1119781   6.200   2.872   6.636
  175SLPC  H11A19782   6.245   2.888   6.536
  175SLPC  H11B19783   6.219   2.968   6.688
  175SLPC     P19784   5.978   2.739   6.573
  175SLPC   O1319785   6.054   2.614   6.567
  175SLPC   O1419786   5.852   2.730   6.643
  175SLPC   O1219787   6.058   2.863   6.635
  175SLPC   O1119788   5.937   2.786   6.430
  175SLPC    C119789   6.035   2.788   6.331
  175SLPC    HA19790   6.057   2.896   6.314
  175SLPC    HB19791   6.130   2.733   6.346
  175SLPC    C219792   5.963   2.743   6.198
  175SLPC    HS19793   5.930   2.637   6.210
  175SLPC   O2119794   6.060   2.760   6.097
  175SLPC   C2119795   6.140   2.660   6.076
  175SLPC   O2219796   6.130   2.552   6.139
  175SLPC   C2219797   6.244   2.695   5.972
  175SLPC   H2R19798   6.310   2.760   6.033
  175SLPC   H2S19799   6.303   2.603   5.952
  175SLPC    C319800   5.834   2.827   6.174
  175SLPC    HX19801   5.839   2.937   6.193
  175SLPC    HY19802   5.753   2.793   6.242
  175SLPC   O3119803   5.785   2.818   6.033
  175SLPC   C3119804   5.660   2.819   6.017
  175SLPC   O3219805   5.571   2.837   6.103
  175SLPC   C3219806   5.630   2.791   5.874
  175SLPC   H2X19807   5.526   2.828   5.861
  175SLPC   H2Y19808   5.622   2.685   5.843
  175SLPC   C2319809   6.193   2.774   5.850
  175SLPC   H3R19810   6.155   2.872   5.887
  175SLPC   H3S19811   6.109   2.725   5.796
  175SLPC   C2419812   6.294   2.786   5.735
  175SLPC   H4R19813   6.314   2.686   5.692
  175SLPC   H4S19814   6.394   2.819   5.769
  175SLPC   C2519815   6.263   2.879   5.618
  175SLPC   H5R19816   6.283   2.987   5.630
  175SLPC   H5S19817   6.153   2.884   5.603
  175SLPC   C2619818   6.323   2.835   5.486
  175SLPC   H6R19819   6.316   2.725   5.471
  175SLPC   H6S19820   6.427   2.872   5.490
  175SLPC   C2719821   6.252   2.904   5.370
  175SLPC   H7R19822   6.252   3.015   5.371
  175SLPC   H7S19823   6.148   2.865   5.379
  175SLPC   C2819824   6.317   2.861   5.228
  175SLPC   H8R19825   6.315   2.750   5.225
  175SLPC   H8S19826   6.422   2.894   5.217
  175SLPC   C2919827   6.239   2.914   5.105
  175SLPC   H9R19828   6.146   2.972   5.119
  175SLPC  C21019829   6.274   2.885   4.975
  175SLPC  H10R19830   6.220   2.915   4.885
  175SLPC  C21119831   6.379   2.779   4.946
  175SLPC  H11R19832   6.389   2.695   5.019
  175SLPC  H11S19833   6.478   2.830   4.947
  175SLPC  C21219834   6.359   2.729   4.803
  175SLPC  H12R19835   6.279   2.654   4.801
  175SLPC  C21319836   6.433   2.764   4.689
  175SLPC  H13R19837   6.408   2.726   4.589
  175SLPC  C21419838   6.533   2.880   4.683
  175SLPC  H14R19839   6.533   2.941   4.776
  175SLPC  H14S19840   6.499   2.958   4.611
  175SLPC  C21519841   6.684   2.845   4.662
  175SLPC  H15R19842   6.704   2.822   4.555
  175SLPC  H15S19843   6.714   2.755   4.720
  175SLPC  C21619844   6.769   2.964   4.704
  175SLPC  H16R19845   6.766   2.996   4.810
  175SLPC  H16S19846   6.732   3.058   4.656
  175SLPC  C21719847   0.072   2.947   4.649
  175SLPC  H17R19848   0.124   3.043   4.669
  175SLPC  H17S19849   0.065   2.928   4.539
  175SLPC  C21819850   0.157   2.835   4.715
  175SLPC  H18R19851   0.255   2.822   4.664
  175SLPC  H18S19852   0.094   2.745   4.704
  175SLPC  H18T19853   0.176   2.849   4.824
  175SLPC   C3319854   5.722   2.856   5.762
  175SLPC   H3X19855   5.831   2.844   5.778
  175SLPC   H3Y19856   5.712   2.967   5.766
  175SLPC   C3419857   5.672   2.811   5.624
  175SLPC   H4X19858   5.571   2.851   5.602
  175SLPC   H4Y19859   5.656   2.701   5.618
  175SLPC   C3519860   5.772   2.852   5.516
  175SLPC   H5X19861   5.867   2.797   5.537
  175SLPC   H5Y19862   5.809   2.954   5.539
  175SLPC   C3619863   5.708   2.838   5.378
  175SLPC   H6X19864   5.621   2.906   5.366
  175SLPC   H6Y19865   5.671   2.735   5.363
  175SLPC   C3719866   5.812   2.873   5.265
  175SLPC   H7X19867   5.850   2.775   5.228
  175SLPC   H7Y19868   5.892   2.932   5.313
  175SLPC   C3819869   5.760   2.941   5.139
  175SLPC   H8X19870   5.847   2.932   5.070
  175SLPC   H8Y19871   5.745   3.049   5.157
  175SLPC   C3919872   5.641   2.866   5.073
  175SLPC   H9X19873   5.556   2.875   5.144
  175SLPC   H9Y19874   5.674   2.761   5.064
  175SLPC  C31019875   5.605   2.927   4.938
  175SLPC  H10X19876   5.681   2.903   4.860
  175SLPC  H10Y19877   5.597   3.036   4.958
  175SLPC  C31119878   5.475   2.861   4.881
  175SLPC  H11X19879   5.411   2.853   4.972
  175SLPC  H11Y19880   5.497   2.762   4.835
  175SLPC  C31219881   5.404   2.950   4.775
  175SLPC  H12X19882   5.398   3.051   4.819
  175SLPC  H12Y19883   5.299   2.918   4.763
  175SLPC  C31319884   5.487   2.935   4.642
  175SLPC  H13X19885   5.482   2.830   4.606
  175SLPC  H13Y19886   5.591   2.963   4.669
  175SLPC  C31419887   5.430   3.021   4.531
  175SLPC  H14X19888   5.501   3.028   4.446
  175SLPC  H14Y19889   5.408   3.122   4.573
  175SLPC  C31519890   5.297   2.974   4.474
  175SLPC  H15X19891   5.223   2.940   4.549
  175SLPC  H15Y19892   5.318   2.884   4.412
  175SLPC  C31619893   5.231   3.081   4.386
  175SLPC  H16X19894   5.160   3.045   4.308
  175SLPC  H16Y19895   5.312   3.133   4.332
  175SLPC  C31719896   5.156   3.181   4.467
  175SLPC  H17X19897   5.239   3.223   4.527
  175SLPC  H17Y19898   5.077   3.136   4.531
  175SLPC  C31819899   5.075   3.286   4.388
  175SLPC  H18X19900   5.131   3.341   4.309
  175SLPC  H18Y19901   5.044   3.369   4.455
  175SLPC  H18Z19902   4.988   3.234   4.343
  176SLPC     N19903   5.446   1.321   6.847
  176SLPC   C1319904   5.340   1.371   6.938
  176SLPC  H13A19905   5.360   1.473   6.969
  176SLPC  H13B19906   5.242   1.369   6.893
  176SLPC  H13C19907   5.331   1.319   7.033
  176SLPC   C1419908   5.587   1.346   6.891
  176SLPC  H14A19909   5.607   1.452   6.906
  176SLPC  H14B19910   5.607   1.287   6.979
  176SLPC  H14C19911   5.660   1.313   6.819
  176SLPC   C1519912   5.430   1.390   6.720
  176SLPC  H15A19913   5.332   1.380   6.676
  176SLPC  H15B19914   5.434   1.498   6.719
  176SLPC  H15C19915   5.493   1.349   6.642
  176SLPC   C1219916   5.417   1.172   6.818
  176SLPC  H12A19917   5.500   1.129   6.765
  176SLPC  H12B19918   5.341   1.168   6.741
  176SLPC   C1119919   5.377   1.079   6.947
  176SLPC  H11A19920   5.359   0.974   6.917
  176SLPC  H11B19921   5.279   1.101   6.994
  176SLPC     P19922   5.609   0.996   7.043
  176SLPC   O1319923   5.726   1.073   7.090
  176SLPC   O1419924   5.589   0.861   7.113
  176SLPC   O1219925   5.469   1.080   7.053
  176SLPC   O1119926   5.628   0.975   6.887
  176SLPC    C119927   5.759   0.940   6.841
  176SLPC    HA19928   5.831   1.024   6.857
  176SLPC    HB19929   5.797   0.852   6.897
  176SLPC    C219930   5.757   0.906   6.693
  176SLPC    HS19931   5.864   0.899   6.664
  176SLPC   O2119932   5.680   1.008   6.629
  176SLPC   C2119933   5.741   1.054   6.520
  176SLPC   O2219934   5.827   0.992   6.460
  176SLPC   C2219935   5.697   1.188   6.478
  176SLPC   H2R19936   5.611   1.222   6.539
  176SLPC   H2S19937   5.783   1.258   6.492
  176SLPC    C319938   5.688   0.767   6.657
  176SLPC    HX19939   5.583   0.766   6.693
  176SLPC    HY19940   5.745   0.685   6.706
  176SLPC   O3119941   5.690   0.749   6.516
  176SLPC   C3119942   5.785   0.685   6.462
  176SLPC   O3219943   5.885   0.635   6.512
  176SLPC   C3219944   5.770   0.686   6.310
  176SLPC   H2X19945   5.814   0.778   6.265
  176SLPC   H2Y19946   5.660   0.689   6.292
  176SLPC   C2319947   5.661   1.179   6.329
  176SLPC   H3R19948   5.735   1.122   6.268
  176SLPC   H3S19949   5.655   1.280   6.282
  176SLPC   C2419950   5.517   1.117   6.304
  176SLPC   H4R19951   5.441   1.157   6.374
  176SLPC   H4S19952   5.534   1.007   6.312
  176SLPC   C2519953   5.468   1.159   6.164
  176SLPC   H5R19954   5.454   1.269   6.166
  176SLPC   H5S19955   5.377   1.105   6.129
  176SLPC   C2619956   5.578   1.147   6.046
  176SLPC   H6R19957   5.602   1.039   6.034
  176SLPC   H6S19958   5.674   1.189   6.082
  176SLPC   C2719959   5.538   1.223   5.916
  176SLPC   H7R19960   5.533   1.329   5.948
  176SLPC   H7S19961   5.436   1.181   5.898
  176SLPC   C2819962   5.642   1.208   5.805
  176SLPC   H8R19963   5.595   1.236   5.708
  176SLPC   H8S19964   5.662   1.099   5.803
  176SLPC   C2919965   5.768   1.287   5.826
  176SLPC   H9R19966   5.818   1.271   5.923
  176SLPC  C21019967   5.842   1.353   5.740
  176SLPC  H10R19968   5.933   1.404   5.774
  176SLPC  C21119969   5.803   1.387   5.596
  176SLPC  H11R19970   5.769   1.295   5.544
  176SLPC  H11S19971   5.889   1.422   5.535
  176SLPC  C21219972   5.687   1.479   5.579
  176SLPC  H12R19973   5.653   1.539   5.664
  176SLPC  C21319974   5.609   1.485   5.471
  176SLPC  H13R19975   5.525   1.556   5.477
  176SLPC  C21419976   5.612   1.394   5.351
  176SLPC  H14R19977   5.512   1.352   5.323
  176SLPC  H14S19978   5.685   1.311   5.363
  176SLPC  C21519979   5.669   1.466   5.226
  176SLPC  H15R19980   5.756   1.525   5.262
  176SLPC  H15S19981   5.599   1.535   5.175
  176SLPC  C21619982   5.708   1.365   5.115
  176SLPC  H16R19983   5.608   1.322   5.092
  176SLPC  H16S19984   5.784   1.291   5.145
  176SLPC  C21719985   5.747   1.431   4.985
  176SLPC  H17R19986   5.839   1.485   5.014
  176SLPC  H17S19987   5.671   1.504   4.949
  176SLPC  C21819988   5.779   1.335   4.868
  176SLPC  H18R19989   5.867   1.270   4.887
  176SLPC  H18S19990   5.790   1.394   4.774
  176SLPC  H18T19991   5.691   1.268   4.864
  176SLPC   C3319992   5.835   0.570   6.238
  176SLPC   H3X19993   5.787   0.480   6.282
  176SLPC   H3Y19994   5.946   0.558   6.242
  176SLPC   C3419995   5.791   0.544   6.094
  176SLPC   H4X19996   5.682   0.524   6.096
  176SLPC   H4Y19997   5.842   0.453   6.057
  176SLPC   C3519998   5.809   0.666   6.005
  176SLPC   H5X19999   5.915   0.697   6.016
  176SLPC   H5Y20000   5.732   0.741   6.031
  176SLPC   C3620001   5.772   0.639   5.852
  176SLPC   H6X20002   5.668   0.600   5.839
  176SLPC   H6Y20003   5.843   0.567   5.807
  176SLPC   C3720004   5.774   0.773   5.765
  176SLPC   H7X20005   5.882   0.795   5.776
  176SLPC   H7Y20006   5.704   0.849   5.806
  176SLPC   C3820007   5.739   0.755   5.617
  176SLPC   H8X20008   5.631   0.732   5.605
  176SLPC   H8Y20009   5.803   0.673   5.578
  176SLPC   C3920010   5.777   0.884   5.538
  176SLPC   H9X20011   5.869   0.938   5.571
  176SLPC   H9Y20012   5.695   0.959   5.546
  176SLPC  C31020013   5.801   0.855   5.390
  176SLPC  H10X20014   5.709   0.812   5.346
  176SLPC  H10Y20015   5.881   0.781   5.370
  176SLPC  C31120016   5.820   0.973   5.301
  176SLPC  H11X20017   5.914   1.026   5.329
  176SLPC  H11Y20018   5.732   1.033   5.333
  176SLPC  C31220019   5.798   0.942   5.149
  176SLPC  H12X20020   5.797   1.039   5.096
  176SLPC  H12Y20021   5.702   0.889   5.133
  176SLPC  C31320022   5.908   0.850   5.092
  176SLPC  H13X20023   5.922   0.764   5.161
  176SLPC  H13Y20024   6.003   0.908   5.089
  176SLPC  C31420025   5.867   0.804   4.950
  176SLPC  H14X20026   5.771   0.748   4.945
  176SLPC  H14Y20027   5.943   0.730   4.916
  176SLPC  C31520028   5.853   0.909   4.839
  176SLPC  H15X20029   5.942   0.974   4.857
  176SLPC  H15Y20030   5.768   0.978   4.857
  176SLPC  C31620031   5.844   0.845   4.703
  176SLPC  H16X20032   5.908   0.754   4.698
  176SLPC  H16Y20033   5.876   0.926   4.634
  176SLPC  C31720034   5.703   0.792   4.667
  176SLPC  H17X20035   5.624   0.870   4.670
  176SLPC  H17Y20036   5.680   0.715   4.744
  176SLPC  C31820037   5.684   0.727   4.525
  176SLPC  H18X20038   5.723   0.623   4.521
  176SLPC  H18Y20039   5.746   0.777   4.449
  176SLPC  H18Z20040   5.578   0.728   4.491
  177SLPC     N20041   5.512   2.253   7.004
  177SLPC   C1320042   5.652   2.217   7.036
  177SLPC  H13A20043   5.681   2.250   7.134
  177SLPC  H13B20044   5.662   2.109   7.039
  177SLPC  H13C20045   5.715   2.242   6.952
  177SLPC   C1420046   5.492   2.380   7.066
  177SLPC  H14A20047   5.544   2.379   7.160
  177SLPC  H14B20048   5.533   2.463   7.009
  177SLPC  H14C20049   5.390   2.406   7.090
  177SLPC   C1520050   5.415   2.161   7.074
  177SLPC  H15A20051   5.310   2.185   7.068
  177SLPC  H15B20052   5.424   2.055   7.054
  177SLPC  H15C20053   5.427   2.171   7.181
  177SLPC   C1220054   5.489   2.270   6.855
  177SLPC  H12A20055   5.559   2.347   6.826
  177SLPC  H12B20056   5.389   2.308   6.837
  177SLPC   C1120057   5.541   2.163   6.768
  177SLPC  H11A20058   5.652   2.162   6.771
  177SLPC  H11B20059   5.514   2.181   6.662
  177SLPC     P20060   5.357   1.968   6.763
  177SLPC   O1320061   5.307   1.899   6.886
  177SLPC   O1420062   5.272   2.078   6.712
  177SLPC   O1220063   5.498   2.031   6.805
  177SLPC   O1120064   5.396   1.858   6.656
  177SLPC    C120065   5.474   1.894   6.538
  177SLPC    HA20066   5.537   1.984   6.556
  177SLPC    HB20067   5.539   1.807   6.517
  177SLPC    C220068   5.382   1.919   6.420
  177SLPC    HS20069   5.282   1.952   6.455
  177SLPC   O2120070   5.382   1.802   6.340
  177SLPC   C2120071   5.287   1.795   6.255
  177SLPC   O2220072   5.187   1.866   6.254
  177SLPC   C2220073   5.307   1.670   6.159
  177SLPC   H2R20074   5.414   1.642   6.164
  177SLPC   H2S20075   5.235   1.595   6.197
  177SLPC    C320076   5.433   2.040   6.327
  177SLPC    HX20077   5.407   2.128   6.389
  177SLPC    HY20078   5.373   2.046   6.234
  177SLPC   O3120079   5.575   2.036   6.296
  177SLPC   C3120080   5.607   1.995   6.175
  177SLPC   O3220081   5.531   1.932   6.097
  177SLPC   C3220082   5.744   2.045   6.138
  177SLPC   H2X20083   5.735   2.152   6.109
  177SLPC   H2Y20084   5.780   1.984   6.052
  177SLPC   C2320085   5.265   1.708   6.013
  177SLPC   H3R20086   5.334   1.790   5.981
  177SLPC   H3S20087   5.162   1.748   6.010
  177SLPC   C2420088   5.270   1.589   5.925
  177SLPC   H4R20089   5.174   1.532   5.931
  177SLPC   H4S20090   5.355   1.524   5.953
  177SLPC   C2520091   5.269   1.647   5.771
  177SLPC   H5R20092   5.371   1.687   5.758
  177SLPC   H5S20093   5.197   1.730   5.759
  177SLPC   C2620094   5.251   1.528   5.676
  177SLPC   H6R20095   5.227   1.435   5.732
  177SLPC   H6S20096   5.351   1.503   5.634
  177SLPC   C2720097   5.143   1.560   5.567
  177SLPC   H7R20098   5.152   1.669   5.550
  177SLPC   H7S20099   5.044   1.540   5.615
  177SLPC   C2820100   5.166   1.466   5.446
  177SLPC   H8R20101   5.155   1.364   5.490
  177SLPC   H8S20102   5.270   1.488   5.413
  177SLPC   C2920103   5.060   1.515   5.343
  177SLPC   H9R20104   4.965   1.541   5.391
  177SLPC  C21020105   5.074   1.531   5.212
  177SLPC  H10R20106   4.990   1.574   5.155
  177SLPC  C21120107   5.192   1.519   5.127
  177SLPC  H11R20108   5.204   1.410   5.108
  177SLPC  H11S20109   5.273   1.546   5.199
  177SLPC  C21220110   5.210   1.599   5.002
  177SLPC  H12R20111   5.198   1.707   5.014
  177SLPC  C21320112   5.231   1.550   4.873
  177SLPC  H13R20113   5.208   1.619   4.790
  177SLPC  C21420114   5.256   1.408   4.821
  177SLPC  H14R20115   5.161   1.373   4.777
  177SLPC  H14S20116   5.285   1.346   4.908
  177SLPC  C21520117   5.372   1.420   4.719
  177SLPC  H15R20118   5.408   1.318   4.696
  177SLPC  H15S20119   5.462   1.466   4.765
  177SLPC  C21620120   5.347   1.497   4.590
  177SLPC  H16R20121   5.436   1.498   4.523
  177SLPC  H16S20122   5.335   1.603   4.622
  177SLPC  C21720123   5.217   1.454   4.517
  177SLPC  H17R20124   5.131   1.480   4.583
  177SLPC  H17S20125   5.231   1.344   4.510
  177SLPC  C21820126   5.216   1.520   4.380
  177SLPC  H18R20127   5.304   1.502   4.315
  177SLPC  H18S20128   5.210   1.631   4.383
  177SLPC  H18T20129   5.128   1.495   4.317
  177SLPC   C3320130   5.865   2.049   6.239
  177SLPC   H3X20131   5.848   1.964   6.309
  177SLPC   H3Y20132   5.852   2.138   6.304
  177SLPC   C3420133   6.009   2.054   6.184
  177SLPC   H4X20134   6.024   1.956   6.135
  177SLPC   H4Y20135   6.083   2.071   6.265
  177SLPC   C3520136   6.027   2.178   6.096
  177SLPC   H5X20137   6.003   2.264   6.163
  177SLPC   H5Y20138   5.942   2.176   6.025
  177SLPC   C3620139   6.159   2.171   6.013
  177SLPC   H6X20140   6.160   2.081   5.948
  177SLPC   H6Y20141   6.241   2.171   6.089
  177SLPC   C3720142   6.199   2.297   5.932
  177SLPC   H7X20143   6.203   2.382   6.003
  177SLPC   H7Y20144   6.120   2.334   5.863
  177SLPC   C3820145   6.328   2.282   5.852
  177SLPC   H8X20146   6.350   2.175   5.831
  177SLPC   H8Y20147   6.417   2.317   5.908
  177SLPC   C3920148   6.324   2.347   5.714
  177SLPC   H9X20149   6.425   2.340   5.667
  177SLPC   H9Y20150   6.312   2.456   5.730
  177SLPC  C31020151   6.215   2.295   5.620
  177SLPC  H10X20152   6.112   2.324   5.652
  177SLPC  H10Y20153   6.219   2.184   5.628
  177SLPC  C31120154   6.220   2.332   5.469
  177SLPC  H11X20155   6.137   2.272   5.426
  177SLPC  H11Y20156   6.304   2.290   5.409
  177SLPC  C31220157   6.200   2.477   5.438
  177SLPC  H12X20158   6.299   2.526   5.448
  177SLPC  H12Y20159   6.136   2.524   5.515
  177SLPC  C31320160   6.136   2.501   5.299
  177SLPC  H13X20161   6.116   2.610   5.299
  177SLPC  H13Y20162   6.039   2.447   5.299
  177SLPC  C31420163   6.224   2.476   5.180
  177SLPC  H14X20164   6.244   2.369   5.159
  177SLPC  H14Y20165   6.318   2.533   5.191
  177SLPC  C31520166   6.151   2.526   5.051
  177SLPC  H15X20167   6.208   2.498   4.959
  177SLPC  H15Y20168   6.136   2.636   5.051
  177SLPC  C31620169   6.008   2.458   5.030
  177SLPC  H16X20170   5.934   2.534   5.064
  177SLPC  H16Y20171   5.998   2.365   5.091
  177SLPC  C31720172   5.988   2.421   4.883
  177SLPC  H17X20173   5.910   2.342   4.884
  177SLPC  H17Y20174   6.082   2.370   4.855
  177SLPC  C31820175   5.957   2.535   4.788
  177SLPC  H18X20176   6.026   2.622   4.787
  177SLPC  H18Y20177   5.860   2.566   4.832
  177SLPC  H18Z20178   5.932   2.500   4.685
  178SLPC     N20179   2.519   6.043   6.909
  178SLPC   C1320180   2.662   6.011   6.941
  178SLPC  H13A20181   2.694   6.102   6.991
  178SLPC  H13B20182   2.681   5.924   7.002
  178SLPC  H13C20183   2.716   6.002   6.849
  178SLPC   C1420184   2.443   6.075   7.038
  178SLPC  H14A20185   2.339   6.056   7.018
  178SLPC  H14B20186   2.486   6.023   7.123
  178SLPC  H14C20187   2.445   6.182   7.050
  178SLPC   C1520188   2.453   5.921   6.856
  178SLPC  H15A20189   2.418   5.863   6.941
  178SLPC  H15B20190   2.363   5.953   6.807
  178SLPC  H15C20191   2.514   5.867   6.785
  178SLPC   C1220192   2.519   6.156   6.810
  178SLPC  H12A20193   2.579   6.130   6.724
  178SLPC  H12B20194   2.566   6.237   6.863
  178SLPC   C1120195   2.378   6.207   6.757
  178SLPC  H11A20196   2.407   6.296   6.697
  178SLPC  H11B20197   2.330   6.231   6.854
  178SLPC     P20198   2.166   6.143   6.644
  178SLPC   O1320199   2.076   6.154   6.761
  178SLPC   O1420200   2.170   6.258   6.556
  178SLPC   O1220201   2.315   6.103   6.686
  178SLPC   O1120202   2.135   6.010   6.563
  178SLPC    C120203   2.234   5.920   6.513
  178SLPC    HA20204   2.294   5.868   6.591
  178SLPC    HB20205   2.182   5.835   6.465
  178SLPC    C220206   2.316   5.991   6.406
  178SLPC    HS20207   2.372   6.079   6.444
  178SLPC   O2120208   2.222   6.020   6.304
  178SLPC   C2120209   2.253   6.121   6.222
  178SLPC   O2220210   2.346   6.198   6.244
  178SLPC   C2220211   2.155   6.129   6.104
  178SLPC   H2R20212   2.138   6.034   6.049
  178SLPC   H2S20213   2.056   6.163   6.143
  178SLPC    C320214   2.424   5.899   6.352
  178SLPC    HX20215   2.366   5.812   6.314
  178SLPC    HY20216   2.496   5.850   6.421
  178SLPC   O3120217   2.496   5.954   6.240
  178SLPC   C3120218   2.601   6.032   6.282
  178SLPC   O3220219   2.640   6.033   6.401
  178SLPC   C3220220   2.654   6.119   6.180
  178SLPC   H2X20221   2.577   6.161   6.111
  178SLPC   H2Y20222   2.729   6.071   6.113
  178SLPC   C2320223   2.212   6.228   5.993
  178SLPC   H3R20224   2.248   6.323   6.037
  178SLPC   H3S20225   2.133   6.245   5.917
  178SLPC   C2420226   2.326   6.171   5.904
  178SLPC   H4R20227   2.300   6.079   5.847
  178SLPC   H4S20228   2.410   6.142   5.971
  178SLPC   C2520229   2.374   6.275   5.790
  178SLPC   H5R20230   2.284   6.282   5.724
  178SLPC   H5S20231   2.461   6.241   5.730
  178SLPC   C2620232   2.410   6.416   5.840
  178SLPC   H6R20233   2.468   6.395   5.932
  178SLPC   H6S20234   2.320   6.468   5.881
  178SLPC   C2720235   2.468   6.506   5.732
  178SLPC   H7R20236   2.385   6.522   5.661
  178SLPC   H7S20237   2.553   6.472   5.668
  178SLPC   C2820238   2.509   6.645   5.780
  178SLPC   H8R20239   2.430   6.684   5.848
  178SLPC   H8S20240   2.525   6.719   5.699
  178SLPC   C2920241   2.629   6.642   5.864
  178SLPC   H9R20242   2.627   6.587   5.959
  178SLPC  C21020243   2.741   6.718   5.838
  178SLPC  H10R20244   2.834   6.707   5.895
  178SLPC  C21120245   2.759   6.801   5.706
  178SLPC  H11R20246   2.680   0.038   5.693
  178SLPC  H11S20247   2.752   6.735   5.618
  178SLPC  C21220248   2.896   0.030   5.707
  178SLPC  H12R20249   2.985   6.807   5.714
  178SLPC  C21320250   2.916   0.166   5.705
  178SLPC  H13R20251   3.014   0.200   5.740
  178SLPC  C21420252   2.823   0.284   5.696
  178SLPC  H14R20253   2.805   0.335   5.793
  178SLPC  H14S20254   2.722   0.248   5.666
  178SLPC  C21520255   2.876   0.387   5.588
  178SLPC  H15R20256   2.979   0.419   5.613
  178SLPC  H15S20257   2.812   0.477   5.597
  178SLPC  C21620258   2.859   0.343   5.440
  178SLPC  H16R20259   2.751   0.328   5.422
  178SLPC  H16S20260   2.899   0.240   5.423
  178SLPC  C21720261   2.910   0.451   5.341
  178SLPC  H17R20262   3.010   0.490   5.369
  178SLPC  H17S20263   2.831   0.529   5.338
  178SLPC  C21820264   2.933   0.374   5.206
  178SLPC  H18R20265   2.988   0.450   5.146
  178SLPC  H18S20266   2.851   0.348   5.136
  178SLPC  H18T20267   3.006   0.290   5.204
  178SLPC   C3320268   2.713   6.250   6.242
  178SLPC   H3X20269   2.786   6.220   6.320
  178SLPC   H3Y20270   2.619   6.300   6.274
  178SLPC   C3420271   2.774   6.348   6.143
  178SLPC   H4X20272   2.798   6.449   6.182
  178SLPC   H4Y20273   2.695   6.354   6.066
  178SLPC   C3520274   2.911   6.302   6.075
  178SLPC   H5X20275   2.911   6.202   6.025
  178SLPC   H5Y20276   2.995   6.298   6.148
  178SLPC   C3620277   2.950   6.412   5.971
  178SLPC   H6X20278   2.944   6.504   6.034
  178SLPC   H6Y20279   2.877   6.414   5.887
  178SLPC   C3720280   3.090   6.403   5.917
  178SLPC   H7X20281   3.109   6.298   5.885
  178SLPC   H7Y20282   3.166   6.422   5.996
  178SLPC   C3820283   3.138   6.513   5.816
  178SLPC   H8X20284   3.248   6.509   5.801
  178SLPC   H8Y20285   3.114   6.613   5.859
  178SLPC   C3920286   3.076   6.502   5.672
  178SLPC   H9X20287   2.969   6.527   5.689
  178SLPC   H9Y20288   3.082   6.394   5.650
  178SLPC  C31020289   3.145   6.590   5.567
  178SLPC  H10X20290   3.242   6.542   5.542
  178SLPC  H10Y20291   3.165   6.683   5.623
  178SLPC  C31120292   3.065   6.615   5.435
  178SLPC  H11X20293   2.967   6.657   5.469
  178SLPC  H11Y20294   3.048   6.516   5.389
  178SLPC  C31220295   3.125   6.700   5.323
  178SLPC  H12X20296   3.057   6.701   5.235
  178SLPC  H12Y20297   3.217   6.655   5.278
  178SLPC  C31320298   3.144   0.004   5.363
  178SLPC  H13X20299   3.173   0.012   5.470
  178SLPC  H13Y20300   3.039   0.038   5.360
  178SLPC  C31420301   3.240   0.085   5.275
  178SLPC  H14X20302   3.340   0.067   5.320
  178SLPC  H14Y20303   3.220   0.192   5.295
  178SLPC  C31520304   3.223   0.062   5.123
  178SLPC  H15X20305   3.119   0.057   5.085
  178SLPC  H15Y20306   3.266   6.803   5.100
  178SLPC  C31620307   3.317   0.164   5.046
  178SLPC  H16X20308   3.424   0.152   5.071
  178SLPC  H16Y20309   3.285   0.267   5.073
  178SLPC  C31720310   3.306   0.138   4.894
  178SLPC  H17X20311   3.307   0.027   4.887
  178SLPC  H17Y20312   3.401   0.176   4.848
  178SLPC  C31820313   3.183   0.198   4.821
  178SLPC  H18X20314   3.180   0.305   4.851
  178SLPC  H18Y20315   3.086   0.150   4.846
  178SLPC  H18Z20316   3.197   0.195   4.711
  179SLPC     N20317   4.056   1.389   1.940
  179SLPC   C1320318   4.101   1.490   1.837
  179SLPC  H13A20319   4.209   1.496   1.833
  179SLPC  H13B20320   4.066   1.481   1.735
  179SLPC  H13C20321   4.060   1.586   1.863
  179SLPC   C1420322   3.905   1.391   1.951
  179SLPC  H14A20323   3.847   1.335   1.878
  179SLPC  H14B20324   3.875   1.340   2.041
  179SLPC  H14C20325   3.879   1.495   1.957
  179SLPC   C1520326   4.109   1.438   2.071
  179SLPC  H15A20327   4.216   1.442   2.075
  179SLPC  H15B20328   4.072   1.540   2.075
  179SLPC  H15C20329   4.077   1.374   2.152
  179SLPC   C1220330   4.108   1.246   1.912
  179SLPC  H12A20331   4.216   1.245   1.907
  179SLPC  H12B20332   4.072   1.211   1.817
  179SLPC   C1120333   4.069   1.138   2.017
  179SLPC  H11A20334   4.109   1.040   1.984
  179SLPC  H11B20335   3.958   1.138   2.012
  179SLPC     P20336   4.030   1.118   2.276
  179SLPC   O1320337   3.939   1.006   2.238
  179SLPC   O1420338   4.125   1.087   2.386
  179SLPC   O1220339   4.117   1.170   2.153
  179SLPC   O1120340   3.943   1.251   2.303
  179SLPC    C120341   3.999   1.339   2.404
  179SLPC    HA20342   4.108   1.358   2.394
  179SLPC    HB20343   3.942   1.433   2.390
  179SLPC    C220344   3.962   1.302   2.547
  179SLPC    HS20345   4.006   1.202   2.566
  179SLPC   O2120346   3.822   1.300   2.572
  179SLPC   C2120347   3.756   1.190   2.567
  179SLPC   O2220348   3.798   1.080   2.535
  179SLPC   C2220349   3.606   1.238   2.561
  179SLPC   H2R20350   3.592   1.345   2.587
  179SLPC   H2S20351   3.560   1.224   2.460
  179SLPC    C320352   4.034   1.397   2.654
  179SLPC    HX20353   3.995   1.501   2.646
  179SLPC    HY20354   4.143   1.410   2.635
  179SLPC   O3120355   4.026   1.355   2.794
  179SLPC   C3120356   4.107   1.268   2.844
  179SLPC   O3220357   4.207   1.233   2.790
  179SLPC   C3220358   4.073   1.261   2.988
  179SLPC   H2X20359   3.963   1.268   3.005
  179SLPC   H2Y20360   4.119   1.341   3.049
  179SLPC   C2320361   3.528   1.143   2.652
  179SLPC   H3R20362   3.539   1.035   2.629
  179SLPC   H3S20363   3.419   1.165   2.644
  179SLPC   C2420364   3.564   1.165   2.795
  179SLPC   H4R20365   3.536   1.270   2.819
  179SLPC   H4S20366   3.670   1.139   2.813
  179SLPC   C2520367   3.472   1.086   2.890
  179SLPC   H5R20368   3.501   0.979   2.880
  179SLPC   H5S20369   3.364   1.109   2.877
  179SLPC   C2620370   3.501   1.109   3.042
  179SLPC   H6R20371   3.516   1.220   3.039
  179SLPC   H6S20372   3.593   1.060   3.079
  179SLPC   C2720373   3.380   1.052   3.119
  179SLPC   H7R20374   3.407   0.946   3.137
  179SLPC   H7S20375   3.285   1.069   3.064
  179SLPC   C2820376   3.363   1.114   3.263
  179SLPC   H8R20377   3.266   1.076   3.303
  179SLPC   H8S20378   3.349   1.223   3.250
  179SLPC   C2920379   3.482   1.084   3.351
  179SLPC   H9R20380   3.570   1.139   3.315
  179SLPC  C21020381   3.482   1.011   3.460
  179SLPC  H10R20382   3.579   0.965   3.484
  179SLPC  C21120383   3.372   0.943   3.543
  179SLPC  H11R20384   3.415   0.851   3.586
  179SLPC  H11S20385   3.297   0.921   3.464
  179SLPC  C21220386   3.303   1.034   3.649
  179SLPC  H12R20387   3.279   1.138   3.620
  179SLPC  C21320388   3.259   1.000   3.773
  179SLPC  H13R20389   3.211   1.078   3.834
  179SLPC  C21420390   3.266   0.876   3.859
  179SLPC  H14R20391   3.354   0.817   3.825
  179SLPC  H14S20392   3.187   0.807   3.823
  179SLPC  C21520393   3.269   0.893   4.013
  179SLPC  H15R20394   3.345   0.973   4.024
  179SLPC  H15S20395   3.315   0.805   4.064
  179SLPC  C21620396   3.128   0.931   4.065
  179SLPC  H16R20397   3.066   0.843   4.037
  179SLPC  H16S20398   3.091   1.020   4.008
  179SLPC  C21720399   3.115   0.945   4.222
  179SLPC  H17R20400   3.168   1.040   4.246
  179SLPC  H17S20401   3.177   0.864   4.267
  179SLPC  C21820402   2.973   0.954   4.260
  179SLPC  H18R20403   2.930   1.047   4.217
  179SLPC  H18S20404   2.954   0.966   4.369
  179SLPC  H18T20405   2.910   0.876   4.213
  179SLPC   C3320406   4.122   1.130   3.064
  179SLPC   H3X20407   4.228   1.121   3.032
  179SLPC   H3Y20408   4.075   1.039   3.020
  179SLPC   C3420409   4.092   1.131   3.210
  179SLPC   H4X20410   4.137   1.227   3.243
  179SLPC   H4Y20411   4.154   1.064   3.273
  179SLPC   C3520412   3.948   1.115   3.258
  179SLPC   H5X20413   3.894   1.167   3.175
  179SLPC   H5Y20414   3.913   1.010   3.252
  179SLPC   C3620415   3.920   1.181   3.396
  179SLPC   H6X20416   3.820   1.230   3.399
  179SLPC   H6Y20417   3.994   1.264   3.406
  179SLPC   C3720418   3.926   1.078   3.511
  179SLPC   H7X20419   4.031   1.042   3.517
  179SLPC   H7Y20420   3.865   0.989   3.486
  179SLPC   C3820421   3.884   1.122   3.650
  179SLPC   H8X20422   3.799   1.193   3.637
  179SLPC   H8Y20423   3.957   1.197   3.688
  179SLPC   C3920424   3.850   1.005   3.749
  179SLPC   H9X20425   3.787   0.929   3.698
  179SLPC   H9Y20426   3.787   1.053   3.827
  179SLPC  C31020427   3.968   0.936   3.813
  179SLPC  H10X20428   4.021   1.022   3.861
  179SLPC  H10Y20429   4.040   0.906   3.734
  179SLPC  C31120430   3.936   0.839   3.925
  179SLPC  H11X20431   3.893   0.743   3.889
  179SLPC  H11Y20432   3.853   0.882   3.985
  179SLPC  C31220433   4.056   0.810   4.018
  179SLPC  H12X20434   4.104   0.903   4.056
  179SLPC  H12Y20435   4.123   0.760   3.945
  179SLPC  C31320436   4.026   0.718   4.130
  179SLPC  H13X20437   4.116   0.660   4.161
  179SLPC  H13Y20438   3.967   0.635   4.087
  179SLPC  C31420439   3.960   0.776   4.252
  179SLPC  H14X20440   3.850   0.761   4.246
  179SLPC  H14Y20441   3.979   0.885   4.255
  179SLPC  C31520442   4.009   0.719   4.387
  179SLPC  H15X20443   3.957   0.758   4.477
  179SLPC  H15Y20444   4.112   0.760   4.398
  179SLPC  C31620445   4.004   0.567   4.391
  179SLPC  H16X20446   4.067   0.538   4.478
  179SLPC  H16Y20447   4.052   0.520   4.303
  179SLPC  C31720448   3.853   0.526   4.409
  179SLPC  H17X20449   3.845   0.415   4.404
  179SLPC  H17Y20450   3.792   0.567   4.325
  179SLPC  C31820451   3.791   0.552   4.550
  179SLPC  H18X20452   3.711   0.477   4.566
  179SLPC  H18Y20453   3.752   0.656   4.543
  179SLPC  H18Z20454   3.869   0.542   4.628
  180SLPC     N20455   1.863   1.198   2.472
  180SLPC   C1320456   1.722   1.173   2.449
  180SLPC  H13A20457   1.660   1.223   2.522
  180SLPC  H13B20458   1.680   1.215   2.359
  180SLPC  H13C20459   1.693   1.069   2.447
  180SLPC   C1420460   1.898   1.108   2.586
  180SLPC  H14A20461   1.821   1.121   2.660
  180SLPC  H14B20462   1.915   1.004   2.563
  180SLPC  H14C20463   1.984   1.146   2.638
  180SLPC   C1520464   1.887   1.339   2.500
  180SLPC  H15A20465   1.821   1.364   2.582
  180SLPC  H15B20466   1.991   1.357   2.524
  180SLPC  H15C20467   1.866   1.406   2.418
  180SLPC   C1220468   1.956   1.157   2.361
  180SLPC  H12A20469   1.941   1.052   2.340
  180SLPC  H12B20470   2.060   1.159   2.391
  180SLPC   C1120471   1.948   1.241   2.231
  180SLPC  H11A20472   1.847   1.275   2.199
  180SLPC  H11B20473   1.977   1.168   2.152
  180SLPC     P20474   2.036   1.444   2.108
  180SLPC   O1320475   2.037   1.369   1.976
  180SLPC   O1420476   1.924   1.532   2.134
  180SLPC   O1220477   2.047   1.344   2.231
  180SLPC   O1120478   2.166   1.527   2.124
  180SLPC    C120479   2.204   1.588   2.247
  180SLPC    HA20480   2.128   1.664   2.275
  180SLPC    HB20481   2.194   1.513   2.328
  180SLPC    C220482   2.343   1.653   2.248
  180SLPC    HS20483   2.362   1.696   2.147
  180SLPC   O2120484   2.446   1.554   2.285
  180SLPC   C2120485   2.565   1.592   2.260
  180SLPC   O2220486   2.597   1.699   2.210
  180SLPC   C2220487   2.661   1.472   2.284
  180SLPC   H2R20488   2.725   1.455   2.195
  180SLPC   H2S20489   2.728   1.516   2.361
  180SLPC    C320490   2.352   1.766   2.352
  180SLPC    HX20491   2.284   1.850   2.324
  180SLPC    HY20492   2.450   1.817   2.339
  180SLPC   O3120493   2.317   1.723   2.485
  180SLPC   C3120494   2.423   1.682   2.554
  180SLPC   O3220495   2.539   1.690   2.521
  180SLPC   C3220496   2.372   1.608   2.677
  180SLPC   H2X20497   2.311   1.522   2.642
  180SLPC   H2Y20498   2.300   1.670   2.734
  180SLPC   C2320499   2.613   1.334   2.334
  180SLPC   H3R20500   2.682   1.250   2.313
  180SLPC   H3S20501   2.514   1.303   2.294
  180SLPC   C2420502   2.608   1.321   2.488
  180SLPC   H4R20503   2.536   1.395   2.527
  180SLPC   H4S20504   2.705   1.347   2.536
  180SLPC   C2520505   2.575   1.173   2.528
  180SLPC   H5R20506   2.652   1.104   2.486
  180SLPC   H5S20507   2.490   1.143   2.463
  180SLPC   C2620508   2.551   1.167   2.679
  180SLPC   H6R20509   2.469   1.237   2.705
  180SLPC   H6S20510   2.640   1.196   2.738
  180SLPC   C2720511   2.510   1.021   2.730
  180SLPC   H7R20512   2.602   0.962   2.710
  180SLPC   H7S20513   2.423   0.988   2.669
  180SLPC   C2820514   2.470   1.031   2.876
  180SLPC   H8R20515   2.396   1.114   2.882
  180SLPC   H8S20516   2.560   1.052   2.937
  180SLPC   C2920517   2.408   0.902   2.931
  180SLPC   H9R20518   2.460   0.822   2.877
  180SLPC  C21020519   2.308   0.882   3.011
  180SLPC  H10R20520   2.284   0.780   3.047
  180SLPC  C21120521   2.247   0.990   3.095
  180SLPC  H11R20522   2.207   1.066   3.025
  180SLPC  H11S20523   2.325   1.053   3.143
  180SLPC  C21220524   2.137   0.937   3.177
  180SLPC  H12R20525   2.039   0.935   3.127
  180SLPC  C21320526   2.153   0.918   3.311
  180SLPC  H13R20527   2.070   0.886   3.376
  180SLPC  C21420528   2.275   0.950   3.394
  180SLPC  H14R20529   2.269   1.055   3.431
  180SLPC  H14S20530   2.362   0.939   3.326
  180SLPC  C21520531   2.307   0.845   3.503
  180SLPC  H15R20532   2.239   0.856   3.590
  180SLPC  H15S20533   2.405   0.877   3.545
  180SLPC  C21620534   2.318   0.698   3.456
  180SLPC  H16R20535   2.390   0.675   3.375
  180SLPC  H16S20536   2.221   0.673   3.407
  180SLPC  C21720537   2.362   0.599   3.562
  180SLPC  H17R20538   2.302   0.612   3.655
  180SLPC  H17S20539   2.462   0.624   3.604
  180SLPC  C21820540   2.347   0.454   3.506
  180SLPC  H18R20541   2.393   0.389   3.584
  180SLPC  H18S20542   2.403   0.433   3.413
  180SLPC  H18T20543   2.238   0.435   3.492
  180SLPC   C3320544   2.482   1.577   2.787
  180SLPC   H3X20545   2.510   1.672   2.837
  180SLPC   H3Y20546   2.565   1.517   2.743
  180SLPC   C3420547   2.421   1.490   2.898
  180SLPC   H4X20548   2.362   1.404   2.861
  180SLPC   H4Y20549   2.352   1.560   2.949
  180SLPC   C3520550   2.528   1.447   3.007
  180SLPC   H5X20551   2.563   1.542   3.053
  180SLPC   H5Y20552   2.610   1.403   2.946
  180SLPC   C3620553   2.475   1.354   3.108
  180SLPC   H6X20554   2.455   1.254   3.064
  180SLPC   H6Y20555   2.388   1.410   3.149
  180SLPC   C3720556   2.575   1.328   3.224
  180SLPC   H7X20557   2.605   1.430   3.256
  180SLPC   H7Y20558   2.660   1.279   3.170
  180SLPC   C3820559   2.514   1.259   3.347
  180SLPC   H8X20560   2.450   1.180   3.301
  180SLPC   H8Y20561   2.453   1.334   3.400
  180SLPC   C3920562   2.623   1.200   3.440
  180SLPC   H9X20563   2.679   1.288   3.478
  180SLPC   H9Y20564   2.687   1.144   3.369
  180SLPC  C31020565   2.564   1.104   3.552
  180SLPC  H10X20566   2.651   1.087   3.619
  180SLPC  H10Y20567   2.535   1.002   3.519
  180SLPC  C31120568   2.459   1.179   3.634
  180SLPC  H11X20569   2.412   1.104   3.700
  180SLPC  H11Y20570   2.377   1.211   3.565
  180SLPC  C31220571   2.504   1.304   3.720
  180SLPC  H12X20572   2.554   1.372   3.649
  180SLPC  H12Y20573   2.573   1.280   3.803
  180SLPC  C31320574   2.378   1.377   3.766
  180SLPC  H13X20575   2.315   1.393   3.677
  180SLPC  H13Y20576   2.393   1.480   3.804
  180SLPC  C31420577   2.300   1.302   3.876
  180SLPC  H14X20578   2.376   1.281   3.954
  180SLPC  H14Y20579   2.255   1.215   3.824
  180SLPC  C31520580   2.182   1.386   3.940
  180SLPC  H15X20581   2.212   1.475   3.999
  180SLPC  H15Y20582   2.136   1.313   4.010
  180SLPC  C31620583   2.075   1.431   3.846
  180SLPC  H16X20584   2.051   1.358   3.766
  180SLPC  H16Y20585   2.113   1.516   3.785
  180SLPC  C31720586   1.937   1.465   3.921
  180SLPC  H17X20587   1.872   1.478   3.832
  180SLPC  H17Y20588   1.941   1.561   3.976
  180SLPC  C31820589   1.883   1.351   4.004
  180SLPC  H18X20590   1.773   1.363   4.020
  180SLPC  H18Y20591   1.936   1.358   4.101
  180SLPC  H18Z20592   1.891   1.255   3.948
  181SLPC     N20593   1.766   6.679   2.140
  181SLPC   C1320594   1.666   6.787   2.113
  181SLPC  H13A20595   1.649   0.008   2.200
  181SLPC  H13B20596   1.704   0.000   2.027
  181SLPC  H13C20597   1.576   6.749   2.066
  181SLPC   C1420598   1.908   6.730   2.122
  181SLPC  H14A20599   1.915   6.785   2.029
  181SLPC  H14B20600   1.938   6.804   2.195
  181SLPC  H14C20601   1.979   6.649   2.114
  181SLPC   C1520602   1.758   6.574   2.035
  181SLPC  H15A20603   1.663   6.524   2.031
  181SLPC  H15B20604   1.785   6.614   1.939
  181SLPC  H15C20605   1.827   6.493   2.059
  181SLPC   C1220606   1.747   6.610   2.279
  181SLPC  H12A20607   1.817   6.530   2.300
  181SLPC  H12B20608   1.644   6.579   2.273
  181SLPC   C1120609   1.740   6.695   2.407
  181SLPC  H11A20610   1.833   6.757   2.407
  181SLPC  H11B20611   1.729   6.635   2.500
  181SLPC     P20612   1.478   6.748   2.408
  181SLPC   O1320613   1.405   0.030   2.384
  181SLPC   O1420614   1.446   6.640   2.310
  181SLPC   O1220615   1.628   6.789   2.400
  181SLPC   O1120616   1.457   6.701   2.560
  181SLPC    C120617   1.470   6.814   2.653
  181SLPC    HA20618   1.532   0.060   2.622
  181SLPC    HB20619   1.368   0.010   2.675
  181SLPC    C220620   1.525   6.759   2.785
  181SLPC    HS20621   1.613   6.696   2.761
  181SLPC   O2120622   1.410   6.684   2.846
  181SLPC   C2120623   1.441   6.549   2.860
  181SLPC   O2220624   1.548   6.498   2.826
  181SLPC   C2220625   1.325   6.475   2.938
  181SLPC   H2R20626   1.234   6.489   2.876
  181SLPC   H2S20627   1.347   6.367   2.953
  181SLPC    C320628   1.570   0.024   2.892
  181SLPC    HX20629   1.479   0.087   2.902
  181SLPC    HY20630   1.657   0.085   2.860
  181SLPC   O3120631   1.618   6.801   3.020
  181SLPC   C3120632   1.604   0.035   3.119
  181SLPC   O3220633   1.575   0.153   3.119
  181SLPC   C3220634   1.608   6.790   3.245
  181SLPC   H2X20635   1.711   6.752   3.263
  181SLPC   H2Y20636   1.552   6.697   3.221
  181SLPC   C2320637   1.309   6.536   3.082
  181SLPC   H3R20638   1.274   6.641   3.084
  181SLPC   H3S20639   1.405   6.521   3.136
  181SLPC   C2420640   1.210   6.459   3.157
  181SLPC   H4R20641   1.246   6.355   3.139
  181SLPC   H4S20642   1.113   6.466   3.104
  181SLPC   C2520643   1.210   6.499   3.301
  181SLPC   H5R20644   1.197   6.609   3.306
  181SLPC   H5S20645   1.311   6.482   3.344
  181SLPC   C2620646   1.103   6.427   3.393
  181SLPC   H6R20647   1.112   6.317   3.409
  181SLPC   H6S20648   1.016   6.444   3.326
  181SLPC   C2720649   1.076   6.499   3.527
  181SLPC   H7R20650   1.023   6.591   3.495
  181SLPC   H7S20651   1.171   6.527   3.578
  181SLPC   C2820652   0.977   6.433   3.621
  181SLPC   H8R20653   0.991   6.324   3.605
  181SLPC   H8S20654   0.876   6.450   3.580
  181SLPC   C2920655   0.987   6.456   3.770
  181SLPC   H9R20656   1.052   6.542   3.789
  181SLPC  C21020657   0.934   6.377   3.862
  181SLPC  H10R20658   0.964   6.396   3.967
  181SLPC  C21120659   0.833   6.267   3.845
  181SLPC  H11R20660   0.878   6.181   3.900
  181SLPC  H11S20661   0.827   6.240   3.737
  181SLPC  C21220662   0.691   6.302   3.893
  181SLPC  H12R20663   0.659   6.402   3.861
  181SLPC  C21320664   0.600   6.231   3.962
  181SLPC  H13R20665   0.505   6.275   3.997
  181SLPC  C21420666   0.609   6.085   4.011
  181SLPC  H14R20667   0.601   6.090   4.122
  181SLPC  H14S20668   0.710   6.043   3.992
  181SLPC  C21520669   0.502   5.989   3.949
  181SLPC  H15R20670   0.400   6.030   3.959
  181SLPC  H15S20671   0.508   5.890   3.999
  181SLPC  C21620672   0.522   5.969   3.800
  181SLPC  H16R20673   0.622   5.924   3.782
  181SLPC  H16S20674   0.513   6.066   3.747
  181SLPC  C21720675   0.422   5.870   3.734
  181SLPC  H17R20676   0.400   5.787   3.805
  181SLPC  H17S20677   0.476   5.829   3.646
  181SLPC  C21820678   0.287   5.936   3.691
  181SLPC  H18R20679   0.309   6.032   3.641
  181SLPC  H18S20680   0.204   5.944   3.765
  181SLPC  H18T20681   0.250   5.871   3.610
  181SLPC   C3320682   1.561   0.011   3.374
  181SLPC   H3X20683   1.452   0.009   3.395
  181SLPC   H3Y20684   1.598   0.115   3.388
  181SLPC   C3420685   1.617   6.771   3.497
  181SLPC   H4X20686   1.728   6.772   3.500
  181SLPC   H4Y20687   1.586   6.667   3.476
  181SLPC   C3520688   1.558   6.821   3.626
  181SLPC   H5X20689   1.448   6.814   3.622
  181SLPC   H5Y20690   1.578   0.088   3.646
  181SLPC   C3620691   1.619   6.724   3.740
  181SLPC   H6X20692   1.729   6.728   3.737
  181SLPC   H6Y20693   1.592   6.617   3.729
  181SLPC   C3720694   1.575   6.775   3.879
  181SLPC   H7X20695   1.466   6.756   3.895
  181SLPC   H7Y20696   1.595   0.044   3.879
  181SLPC   C3820697   1.663   6.709   3.983
  181SLPC   H8X20698   1.769   6.742   3.975
  181SLPC   H8Y20699   1.668   6.599   3.965
  181SLPC   C3920700   1.605   6.715   4.124
  181SLPC   H9X20701   1.497   6.693   4.134
  181SLPC   H9Y20702   1.599   6.825   4.133
  181SLPC  C31020703   1.689   6.638   4.232
  181SLPC  H10X20704   1.666   6.529   4.229
  181SLPC  H10Y20705   1.645   6.674   4.328
  181SLPC  C31120706   1.834   6.654   4.213
  181SLPC  H11X20707   1.848   6.764   4.210
  181SLPC  H11Y20708   1.879   6.620   4.118
  181SLPC  C31220709   1.908   6.611   4.338
  181SLPC  H12X20710   1.904   6.500   4.348
  181SLPC  H12Y20711   1.865   6.650   4.433
  181SLPC  C31320712   2.053   6.659   4.346
  181SLPC  H13X20713   2.094   6.655   4.449
  181SLPC  H13Y20714   2.052   6.769   4.334
  181SLPC  C31420715   2.148   6.604   4.241
  181SLPC  H14X20716   2.090   6.570   4.152
  181SLPC  H14Y20717   2.199   6.513   4.278
  181SLPC  C31520718   2.247   6.715   4.191
  181SLPC  H15X20719   2.184   6.794   4.144
  181SLPC  H15Y20720   2.315   6.669   4.117
  181SLPC  C31620721   2.318   6.779   4.309
  181SLPC  H16X20722   2.359   6.681   4.343
  181SLPC  H16Y20723   2.263   0.000   4.383
  181SLPC  C31720724   2.428   0.033   4.258
  181SLPC  H17X20725   2.377   0.119   4.209
  181SLPC  H17Y20726   2.486   6.813   4.185
  181SLPC  C31820727   2.525   0.066   4.368
  181SLPC  H18X20728   2.551   6.805   4.404
  181SLPC  H18Y20729   2.490   0.131   4.450
  181SLPC  H18Z20730   2.618   0.112   4.329
  182SLPC     N20731   2.987   6.052   1.865
  182SLPC   C1320732   3.102   6.033   1.765
  182SLPC  H13A20733   3.088   6.093   1.677
  182SLPC  H13B20734   3.195   6.070   1.807
  182SLPC  H13C20735   3.120   5.928   1.744
  182SLPC   C1420736   2.861   6.013   1.801
  182SLPC  H14A20737   2.859   5.908   1.777
  182SLPC  H14B20738   2.777   6.018   1.868
  182SLPC  H14C20739   2.842   6.072   1.713
  182SLPC   C1520740   2.966   6.197   1.887
  182SLPC  H15A20741   2.907   6.233   1.803
  182SLPC  H15B20742   2.896   6.223   1.965
  182SLPC  H15C20743   3.053   6.261   1.889
  182SLPC   C1220744   3.018   5.976   1.998
  182SLPC  H12A20745   3.119   6.003   2.025
  182SLPC  H12B20746   3.026   5.869   1.981
  182SLPC   C1120747   2.937   6.015   2.126
  182SLPC  H11A20748   2.935   6.126   2.133
  182SLPC  H11B20749   2.992   5.980   2.216
  182SLPC     P20750   2.674   6.026   2.111
  182SLPC   O1320751   2.703   6.167   2.093
  182SLPC   O1420752   2.604   5.964   1.996
  182SLPC   O1220753   2.810   5.958   2.128
  182SLPC   O1120754   2.592   6.005   2.240
  182SLPC    C120755   2.558   5.873   2.277
  182SLPC    HA20756   2.454   5.853   2.244
  182SLPC    HB20757   2.616   5.791   2.229
  182SLPC    C220758   2.571   5.851   2.432
  182SLPC    HS20759   2.541   5.750   2.468
  182SLPC   O2120760   2.485   5.950   2.480
  182SLPC   C2120761   2.449   5.944   2.607
  182SLPC   O2220762   2.479   5.863   2.692
  182SLPC   C2220763   2.348   6.054   2.633
  182SLPC   H2R20764   2.388   6.138   2.572
  182SLPC   H2S20765   2.251   6.026   2.587
  182SLPC    C320766   2.717   5.868   2.479
  182SLPC    HX20767   2.748   5.965   2.434
  182SLPC    HY20768   2.784   5.798   2.425
  182SLPC   O3120769   2.735   5.880   2.621
  182SLPC   C3120770   2.750   5.763   2.685
  182SLPC   O3220771   2.746   5.654   2.631
  182SLPC   C3220772   2.794   5.789   2.833
  182SLPC   H2X20773   2.698   5.824   2.878
  182SLPC   H2Y20774   2.876   5.864   2.828
  182SLPC   C2320775   2.345   6.097   2.775
  182SLPC   H3R20776   2.445   6.142   2.789
  182SLPC   H3S20777   2.327   6.016   2.849
  182SLPC   C2420778   2.230   6.196   2.785
  182SLPC   H4R20779   2.137   6.138   2.765
  182SLPC   H4S20780   2.231   6.278   2.711
  182SLPC   C2520781   2.215   6.273   2.912
  182SLPC   H5R20782   2.307   6.335   2.915
  182SLPC   H5S20783   2.217   6.206   3.001
  182SLPC   C2620784   2.092   6.361   2.927
  182SLPC   H6R20785   2.003   6.294   2.927
  182SLPC   H6S20786   2.076   6.417   2.832
  182SLPC   C2720787   2.108   6.457   3.048
  182SLPC   H7R20788   2.197   6.523   3.043
  182SLPC   H7S20789   2.107   6.389   3.136
  182SLPC   C2820790   1.997   6.561   3.064
  182SLPC   H8R20791   2.014   6.627   2.977
  182SLPC   H8S20792   2.018   6.622   3.155
  182SLPC   C2920793   1.856   6.507   3.058
  182SLPC   H9R20794   1.794   6.522   2.968
  182SLPC  C21020795   1.793   6.445   3.160
  182SLPC  H10R20796   1.690   6.411   3.142
  182SLPC  C21120797   1.842   6.415   3.302
  182SLPC  H11R20798   1.811   6.503   3.361
  182SLPC  H11S20799   1.953   6.418   3.292
  182SLPC  C21220800   1.791   6.281   3.362
  182SLPC  H12R20801   1.839   6.188   3.330
  182SLPC  C21320802   1.709   6.261   3.467
  182SLPC  H13R20803   1.675   6.156   3.473
  182SLPC  C21420804   1.636   6.356   3.554
  182SLPC  H14R20805   1.637   6.463   3.523
  182SLPC  H14S20806   1.682   6.353   3.655
  182SLPC  C21520807   1.490   6.305   3.559
  182SLPC  H15R20808   1.485   6.210   3.617
  182SLPC  H15S20809   1.450   6.292   3.456
  182SLPC  C21620810   1.402   6.406   3.635
  182SLPC  H16R20811   1.304   6.354   3.632
  182SLPC  H16S20812   1.408   6.497   3.571
  182SLPC  C21720813   1.436   6.412   3.785
  182SLPC  H17R20814   1.544   6.434   3.804
  182SLPC  H17S20815   1.428   6.309   3.825
  182SLPC  C21820816   1.349   6.509   3.862
  182SLPC  H18R20817   1.354   6.601   3.799
  182SLPC  H18S20818   1.381   6.529   3.967
  182SLPC  H18T20819   1.243   6.476   3.862
  182SLPC   C3320820   2.855   5.657   2.894
  182SLPC   H3X20821   2.924   5.705   2.967
  182SLPC   H3Y20822   2.915   5.606   2.815
  182SLPC   C3420823   2.769   5.565   2.972
  182SLPC   H4X20824   2.817   5.466   2.990
  182SLPC   H4Y20825   2.675   5.536   2.920
  182SLPC   C3520826   2.740   5.613   3.113
  182SLPC   H5X20827   2.646   5.563   3.144
  182SLPC   H5Y20828   2.724   5.723   3.104
  182SLPC   C3620829   2.859   5.592   3.206
  182SLPC   H6X20830   2.953   5.624   3.158
  182SLPC   H6Y20831   2.877   5.483   3.220
  182SLPC   C3720832   2.840   5.655   3.340
  182SLPC   H7X20833   2.752   5.613   3.391
  182SLPC   H7Y20834   2.838   5.766   3.332
  182SLPC   C3820835   2.961   5.629   3.425
  182SLPC   H8X20836   3.053   5.656   3.368
  182SLPC   H8Y20837   2.959   5.522   3.452
  182SLPC   C3920838   2.953   5.709   3.555
  182SLPC   H9X20839   2.966   5.815   3.525
  182SLPC   H9Y20840   3.033   5.679   3.627
  182SLPC  C31020841   2.819   5.694   3.620
  182SLPC  H10X20842   2.772   5.594   3.630
  182SLPC  H10Y20843   2.748   5.746   3.552
  182SLPC  C31120844   2.815   5.784   3.742
  182SLPC  H11X20845   2.854   5.884   3.717
  182SLPC  H11Y20846   2.865   5.736   3.829
  182SLPC  C31220847   2.669   5.822   3.788
  182SLPC  H12X20848   2.622   5.724   3.808
  182SLPC  H12Y20849   2.619   5.876   3.704
  182SLPC  C31320850   2.659   5.903   3.913
  182SLPC  H13X20851   2.553   5.888   3.945
  182SLPC  H13Y20852   2.687   6.010   3.902
  182SLPC  C31420853   2.742   5.849   4.033
  182SLPC  H14X20854   2.726   5.917   4.120
  182SLPC  H14Y20855   2.850   5.840   4.013
  182SLPC  C31520856   2.691   5.708   4.074
  182SLPC  H15X20857   2.696   5.642   3.986
  182SLPC  H15Y20858   2.586   5.718   4.107
  182SLPC  C31620859   2.777   5.654   4.189
  182SLPC  H16X20860   2.845   5.735   4.222
  182SLPC  H16Y20861   2.831   5.564   4.153
  182SLPC  C31720862   2.699   5.635   4.321
  182SLPC  H17X20863   2.636   5.544   4.316
  182SLPC  H17Y20864   2.631   5.721   4.336
  182SLPC  C31820865   2.790   5.623   4.445
  182SLPC  H18X20866   2.853   5.532   4.432
  182SLPC  H18Y20867   2.728   5.602   4.535
  182SLPC  H18Z20868   2.852   5.715   4.454
  183SLPC     N20869   5.662   2.482   1.913
  183SLPC   C1320870   5.743   2.574   1.821
  183SLPC  H13A20871   5.664   2.616   1.761
  183SLPC  H13B20872   5.779   2.660   1.875
  183SLPC  H13C20873   5.809   2.524   1.751
  183SLPC   C1420874   5.615   2.359   1.839
  183SLPC  H14A20875   5.575   2.379   1.740
  183SLPC  H14B20876   5.706   2.302   1.832
  183SLPC  H14C20877   5.539   2.302   1.890
  183SLPC   C1520878   5.544   2.559   1.971
  183SLPC  H15A20879   5.470   2.584   1.897
  183SLPC  H15B20880   5.493   2.498   2.044
  183SLPC  H15C20881   5.575   2.648   2.023
  183SLPC   C1220882   5.755   2.436   2.019
  183SLPC  H12A20883   5.786   2.522   2.076
  183SLPC  H12B20884   5.845   2.392   1.977
  183SLPC   C1120885   5.707   2.341   2.134
  183SLPC  H11A20886   5.788   2.312   2.204
  183SLPC  H11B20887   5.659   2.250   2.091
  183SLPC     P20888   5.533   2.331   2.337
  183SLPC   O1320889   5.437   2.418   2.403
  183SLPC   O1420890   5.480   2.208   2.280
  183SLPC   O1220891   5.605   2.406   2.217
  183SLPC   O1120892   5.651   2.300   2.427
  183SLPC    C120893   5.639   2.248   2.563
  183SLPC    HA20894   5.552   2.303   2.604
  183SLPC    HB20895   5.612   2.141   2.563
  183SLPC    C220896   5.761   2.257   2.657
  183SLPC    HS20897   5.718   2.257   2.759
  183SLPC   O2120898   5.833   2.380   2.628
  183SLPC   C2120899   5.771   2.487   2.646
  183SLPC   O2220900   5.661   2.510   2.697
  183SLPC   C2220901   5.866   2.593   2.598
  183SLPC   H2R20902   5.971   2.568   2.574
  183SLPC   H2S20903   5.824   2.651   2.513
  183SLPC    C320904   5.856   2.134   2.658
  183SLPC    HX20905   5.926   2.160   2.576
  183SLPC    HY20906   5.801   2.041   2.635
  183SLPC   O3120907   5.911   2.114   2.787
  183SLPC   C3120908   6.034   2.156   2.808
  183SLPC   O3220909   6.101   2.229   2.738
  183SLPC   C3220910   6.090   2.090   2.935
  183SLPC   H2X20911   6.198   2.113   2.946
  183SLPC   H2Y20912   6.069   1.981   2.925
  183SLPC   C2320913   5.876   2.701   2.711
  183SLPC   H3R20914   5.776   2.721   2.754
  183SLPC   H3S20915   5.911   2.800   2.675
  183SLPC   C2420916   5.964   2.641   2.817
  183SLPC   H4R20917   6.059   2.601   2.778
  183SLPC   H4S20918   5.897   2.564   2.859
  183SLPC   C2520919   5.993   2.740   2.925
  183SLPC   H5R20920   6.057   2.826   2.895
  183SLPC   H5S20921   6.045   2.678   3.001
  183SLPC   C2620922   5.863   2.791   2.991
  183SLPC   H6R20923   5.799   2.703   3.013
  183SLPC   H6S20924   5.805   2.857   2.924
  183SLPC   C2720925   5.891   2.869   3.113
  183SLPC   H7R20926   5.944   2.964   3.089
  183SLPC   H7S20927   5.966   2.811   3.171
  183SLPC   C2820928   5.763   2.919   3.183
  183SLPC   H8R20929   5.699   2.969   3.107
  183SLPC   H8S20930   5.802   2.994   3.254
  183SLPC   C2920931   5.697   2.822   3.267
  183SLPC   H9R20932   5.679   2.730   3.209
  183SLPC  C21020933   5.677   2.812   3.400
  183SLPC  H10R20934   5.620   2.723   3.428
  183SLPC  C21120935   5.727   2.912   3.502
  183SLPC  H11R20936   5.695   3.012   3.466
  183SLPC  H11S20937   5.836   2.932   3.494
  183SLPC  C21220938   5.698   2.872   3.645
  183SLPC  H12R20939   5.622   2.793   3.652
  183SLPC  C21320940   5.760   2.919   3.758
  183SLPC  H13R20941   5.727   2.885   3.857
  183SLPC  C21420942   5.888   3.000   3.775
  183SLPC  H14R20943   5.962   2.954   3.707
  183SLPC  H14S20944   5.936   2.984   3.874
  183SLPC  C21520945   5.874   3.146   3.727
  183SLPC  H15R20946   5.769   3.178   3.747
  183SLPC  H15S20947   5.891   3.138   3.617
  183SLPC  C21620948   5.978   3.235   3.807
  183SLPC  H16R20949   5.983   3.328   3.747
  183SLPC  H16S20950   6.080   3.194   3.793
  183SLPC  C21720951   5.931   3.265   3.950
  183SLPC  H17R20952   5.905   3.170   4.002
  183SLPC  H17S20953   5.836   3.322   3.951
  183SLPC  C21820954   6.045   3.337   4.030
  183SLPC  H18R20955   6.045   3.443   3.998
  183SLPC  H18S20956   6.147   3.296   4.017
  183SLPC  H18T20957   6.014   3.332   4.137
  183SLPC   C3320958   6.017   2.136   3.068
  183SLPC   H3X20959   6.038   2.056   3.142
  183SLPC   H3Y20960   5.910   2.134   3.037
  183SLPC   C3420961   6.066   2.268   3.135
  183SLPC   H4X20962   6.058   2.353   3.063
  183SLPC   H4Y20963   6.175   2.267   3.157
  183SLPC   C3520964   5.990   2.316   3.257
  183SLPC   H5X20965   6.006   2.244   3.340
  183SLPC   H5Y20966   5.882   2.328   3.235
  183SLPC   C3620967   6.032   2.464   3.307
  183SLPC   H6X20968   6.034   2.533   3.221
  183SLPC   H6Y20969   6.138   2.462   3.341
  183SLPC   C3720970   5.937   2.513   3.416
  183SLPC   H7X20971   5.925   2.439   3.498
  183SLPC   H7Y20972   5.839   2.534   3.368
  183SLPC   C3820973   5.970   2.653   3.479
  183SLPC   H8X20974   5.883   2.701   3.529
  183SLPC   H8Y20975   5.991   2.727   3.399
  183SLPC   C3920976   6.071   2.649   3.601
  183SLPC   H9X20977   6.090   2.749   3.645
  183SLPC   H9Y20978   6.163   2.607   3.556
  183SLPC  C31020979   6.030   2.553   3.709
  183SLPC  H10X20980   6.100   2.586   3.789
  183SLPC  H10Y20981   6.047   2.448   3.678
  183SLPC  C31120982   5.889   2.574   3.755
  183SLPC  H11X20983   5.818   2.538   3.677
  183SLPC  H11Y20984   5.874   2.682   3.775
  183SLPC  C31220985   5.853   2.504   3.894
  183SLPC  H12X20986   5.891   2.401   3.878
  183SLPC  H12Y20987   5.744   2.483   3.904
  183SLPC  C31320988   5.903   2.575   4.011
  183SLPC  H13X20989   6.004   2.617   3.989
  183SLPC  H13Y20990   5.916   2.512   4.102
  183SLPC  C31420991   5.822   2.696   4.055
  183SLPC  H14X20992   5.715   2.666   4.043
  183SLPC  H14Y20993   5.847   2.781   3.987
  183SLPC  C31520994   5.860   2.757   4.192
  183SLPC  H15X20995   5.959   2.807   4.186
  183SLPC  H15Y20996   5.855   2.666   4.256
  183SLPC  C31620997   5.760   2.843   4.249
  183SLPC  H16X20998   5.669   2.783   4.269
  183SLPC  H16Y20999   5.734   2.919   4.172
  183SLPC  C31721000   5.806   2.917   4.378
  183SLPC  H17X21001   5.719   2.982   4.402
  183SLPC  H17Y21002   5.895   2.979   4.353
  183SLPC  C31821003   5.843   2.828   4.497
  183SLPC  H18X21004   5.922   2.755   4.467
  183SLPC  H18Y21005   5.756   2.766   4.526
  183SLPC  H18Z21006   5.882   2.886   4.584
  184SLPC     N21007   6.448   1.944   1.830
  184SLPC   C1321008   6.324   2.022   1.813
  184SLPC  H13A21009   6.330   2.111   1.874
  184SLPC  H13B21010   6.298   2.043   1.710
  184SLPC  H13C21011   6.241   1.972   1.860
  184SLPC   C1421012   6.563   2.008   1.761
  184SLPC  H14A21013   6.579   2.105   1.806
  184SLPC  H14B21014   6.655   1.951   1.763
  184SLPC  H14C21015   6.546   2.026   1.655
  184SLPC   C1521016   6.424   1.815   1.761
  184SLPC  H15A21017   6.374   1.822   1.666
  184SLPC  H15B21018   6.520   1.767   1.749
  184SLPC  H15C21019   6.360   1.749   1.819
  184SLPC   C1221020   6.478   1.913   1.975
  184SLPC  H12A21021   6.394   1.862   2.019
  184SLPC  H12B21022   6.489   2.006   2.028
  184SLPC   C1121023   6.608   1.827   1.998
  184SLPC  H11A21024   6.620   1.750   1.919
  184SLPC  H11B21025   6.588   1.770   2.092
  184SLPC     P21026   6.734   2.031   2.115
  184SLPC   O1321027   0.028   2.091   2.131
  184SLPC   O1421028   6.631   2.131   2.088
  184SLPC   O1221029   6.723   1.916   2.007
  184SLPC   O1121030   6.697   1.965   2.243
  184SLPC    C121031   6.790   1.866   2.287
  184SLPC    HA21032   6.779   1.770   2.231
  184SLPC    HB21033   0.056   1.899   2.286
  184SLPC    C221034   6.753   1.830   2.439
  184SLPC    HS21035   0.006   1.802   2.489
  184SLPC   O2121036   6.662   1.721   2.439
  184SLPC   C2121037   6.714   1.605   2.417
  184SLPC   O2221038   6.833   1.577   2.419
  184SLPC   C2221039   6.602   1.511   2.374
  184SLPC   H2R21040   6.555   1.554   2.284
  184SLPC   H2S21041   6.652   1.413   2.360
  184SLPC    C321042   6.702   1.954   2.523
  184SLPC    HX21043   6.611   1.996   2.474
  184SLPC    HY21044   6.782   2.031   2.524
  184SLPC   O3121045   6.676   1.928   2.659
  184SLPC   C3121046   6.611   2.017   2.719
  184SLPC   O3221047   6.572   2.127   2.681
  184SLPC   C3221048   6.615   1.969   2.863
  184SLPC   H2X21049   6.716   1.981   2.906
  184SLPC   H2Y21050   6.592   1.861   2.873
  184SLPC   C2321051   6.489   1.494   2.482
  184SLPC   H3R21052   6.415   1.421   2.442
  184SLPC   H3S21053   6.438   1.592   2.496
  184SLPC   C2421054   6.542   1.430   2.610
  184SLPC   H4R21055   6.602   1.339   2.589
  184SLPC   H4S21056   6.452   1.401   2.669
  184SLPC   C2521057   6.611   1.524   2.709
  184SLPC   H5R21058   6.550   1.616   2.724
  184SLPC   H5S21059   6.708   1.552   2.664
  184SLPC   C2621060   6.635   1.450   2.841
  184SLPC   H6R21061   6.656   1.343   2.823
  184SLPC   H6S21062   6.541   1.450   2.900
  184SLPC   C2721063   6.747   1.514   2.922
  184SLPC   H7R21064   6.739   1.624   2.922
  184SLPC   H7S21065   0.009   1.480   2.894
  184SLPC   C2821066   6.737   1.479   3.077
  184SLPC   H8R21067   6.829   1.521   3.122
  184SLPC   H8S21068   6.753   1.370   3.090
  184SLPC   C2921069   6.617   1.550   3.150
  184SLPC   H9R21070   6.517   1.519   3.116
  184SLPC  C21021071   6.624   1.624   3.265
  184SLPC  H10R21072   6.528   1.650   3.312
  184SLPC  C21121073   6.743   1.684   3.336
  184SLPC  H11R21074   6.725   1.762   3.413
  184SLPC  H11S21075   6.816   1.722   3.261
  184SLPC  C21221076   6.814   1.567   3.418
  184SLPC  H12R21077   6.758   1.475   3.440
  184SLPC  C21321078   0.100   1.566   3.458
  184SLPC  H13R21079   0.129   1.467   3.497
  184SLPC  C21421080   0.213   1.677   3.445
  184SLPC  H14R21081   0.189   1.776   3.401
  184SLPC  H14S21082   0.303   1.639   3.392
  184SLPC  C21521083   0.237   1.718   3.588
  184SLPC  H15R21084   0.328   1.781   3.591
  184SLPC  H15S21085   0.241   1.630   3.655
  184SLPC  C21621086   0.129   1.820   3.645
  184SLPC  H16R21087   0.025   1.783   3.641
  184SLPC  H16S21088   0.134   1.906   3.575
  184SLPC  C21721089   0.171   1.857   3.784
  184SLPC  H17R21090   0.257   1.926   3.773
  184SLPC  H17S21091   0.210   1.764   3.832
  184SLPC  C21821092   0.065   1.928   3.873
  184SLPC  H18R21093   0.113   1.928   3.973
  184SLPC  H18S21094   6.809   1.876   3.888
  184SLPC  H18T21095   0.046   2.027   3.826
  184SLPC   C3321096   6.518   2.043   2.966
  184SLPC   H3X21097   6.421   2.051   2.913
  184SLPC   H3Y21098   6.567   2.143   2.978
  184SLPC   C3421099   6.500   1.969   3.101
  184SLPC   H4X21100   6.599   1.948   3.146
  184SLPC   H4Y21101   6.456   1.867   3.093
  184SLPC   C3521102   6.424   2.053   3.197
  184SLPC   H5X21103   6.331   2.091   3.151
  184SLPC   H5Y21104   6.484   2.135   3.243
  184SLPC   C3621105   6.372   1.965   3.321
  184SLPC   H6X21106   6.451   1.912   3.378
  184SLPC   H6Y21107   6.316   1.882   3.273
  184SLPC   C3721108   6.273   2.046   3.406
  184SLPC   H7X21109   6.177   2.063   3.353
  184SLPC   H7Y21110   6.316   2.145   3.430
  184SLPC   C3821111   6.237   1.980   3.547
  184SLPC   H8X21112   6.328   1.955   3.607
  184SLPC   H8Y21113   6.180   1.888   3.522
  184SLPC   C3921114   6.155   2.080   3.631
  184SLPC   H9X21115   6.085   2.139   3.567
  184SLPC   H9Y21116   6.230   2.157   3.660
  184SLPC  C31021117   6.092   2.016   3.756
  184SLPC  H10X21118   6.172   1.977   3.822
  184SLPC  H10Y21119   6.035   1.924   3.728
  184SLPC  C31121120   6.000   2.117   3.830
  184SLPC  H11X21121   5.912   2.131   3.764
  184SLPC  H11Y21122   6.057   2.211   3.848
  184SLPC  C31221123   5.949   2.059   3.958
  184SLPC  H12X21124   6.033   2.030   4.025
  184SLPC  H12Y21125   5.901   1.963   3.931
  184SLPC  C31321126   5.848   2.156   4.021
  184SLPC  H13X21127   5.774   2.189   3.945
  184SLPC  H13Y21128   5.895   2.251   4.053
  184SLPC  C31421129   5.772   2.090   4.133
  184SLPC  H14X21130   5.758   1.983   4.104
  184SLPC  H14Y21131   5.669   2.132   4.135
  184SLPC  C31521132   5.832   2.097   4.273
  184SLPC  H15X21133   5.942   2.091   4.260
  184SLPC  H15Y21134   5.787   2.002   4.312
  184SLPC  C31621135   5.780   2.214   4.364
  184SLPC  H16X21136   5.672   2.194   4.377
  184SLPC  H16Y21137   5.801   2.310   4.314
  184SLPC  C31721138   5.848   2.224   4.504
  184SLPC  H17X21139   5.817   2.316   4.558
  184SLPC  H17Y21140   5.959   2.229   4.497
  184SLPC  C31821141   5.820   2.116   4.607
  184SLPC  H18X21142   5.862   2.153   4.703
  184SLPC  H18Y21143   5.876   2.021   4.590
  184SLPC  H18Z21144   5.710   2.116   4.621
  185POPC     N21145   1.691   6.274   6.472
  185POPC   C1221146   1.748   6.205   6.347
  185POPC  H12A21147   1.850   6.179   6.369
  185POPC  H12B21148   1.743   6.273   6.264
  185POPC   C1321149   1.727   6.188   6.585
  185POPC  H13A21150   1.829   6.203   6.617
  185POPC  H13B21151   1.684   6.223   6.678
  185POPC  H13C21152   1.693   6.087   6.572
  185POPC   C1421153   1.741   6.414   6.493
  185POPC  H14A21154   1.849   6.417   6.488
  185POPC  H14B21155   1.692   6.477   6.420
  185POPC  H14C21156   1.721   6.446   6.594
  185POPC   C1521157   1.542   6.277   6.465
  185POPC  H15A21158   1.508   6.176   6.448
  185POPC  H15B21159   1.501   6.336   6.384
  185POPC  H15C21160   1.495   6.304   6.558
  185POPC   C1121161   1.676   6.076   6.310
  185POPC  H11A21162   1.719   6.034   6.217
  185POPC  H11B21163   1.569   6.096   6.289
  185POPC     P21164   1.581   5.883   6.460
  185POPC   O1321165   1.483   5.983   6.501
  185POPC   O1421166   1.622   5.796   6.570
  185POPC   O1221167   1.702   5.969   6.409
  185POPC   O1121168   1.515   5.796   6.344
  185POPC    C121169   1.599   5.731   6.246
  185POPC    HA21170   1.589   5.621   6.250
  185POPC    HB21171   1.708   5.746   6.262
  185POPC    C221172   1.557   5.778   6.104
  185POPC    HS21173   1.526   5.884   6.109
  185POPC   O2121174   1.443   5.699   6.065
  185POPC   C2121175   1.375   5.745   5.962
  185POPC   O2221176   1.377   5.862   5.924
  185POPC   C2221177   1.289   5.641   5.906
  185POPC   H2R21178   1.184   5.674   5.927
  185POPC   H2S21179   1.310   5.543   5.954
  185POPC    C321180   1.676   5.743   6.008
  185POPC    HX21181   1.694   5.634   6.023
  185POPC    HY21182   1.773   5.790   6.036
  185POPC   O3121183   1.643   5.764   5.871
  185POPC   C3121184   1.661   5.882   5.821
  185POPC   O3221185   1.702   5.976   5.886
  185POPC   C3221186   1.611   5.876   5.682
  185POPC   H2X21187   1.530   5.802   5.668
  185POPC   H2Y21188   1.691   5.844   5.612
  185POPC   C2321189   1.307   5.621   5.750
  185POPC   H3R21190   1.409   5.589   5.721
  185POPC   H3S21191   1.302   5.723   5.705
  185POPC   C2421192   1.205   5.533   5.681
  185POPC   H4R21193   1.110   5.587   5.663
  185POPC   H4S21194   1.192   5.444   5.745
  185POPC   C2521195   1.251   5.489   5.539
  185POPC   H5R21196   1.166   5.432   5.496
  185POPC   H5S21197   1.346   5.432   5.547
  185POPC   C2621198   1.283   5.613   5.455
  185POPC   H6R21199   1.372   5.665   5.495
  185POPC   H6S21200   1.196   5.681   5.466
  185POPC   C2721201   1.304   5.585   5.302
  185POPC   H7R21202   1.210   5.542   5.260
  185POPC   H7S21203   1.377   5.503   5.287
  185POPC   C2821204   1.337   5.709   5.214
  185POPC   H8R21205   1.253   5.778   5.236
  185POPC   H8S21206   1.338   5.680   5.106
  185POPC   C2921207   1.465   5.772   5.257
  185POPC   H9121208   1.488   5.781   5.364
  185POPC  C21021209   1.571   5.812   5.181
  185POPC  H10121210   1.652   5.864   5.233
  185POPC  C21121211   1.592   5.806   5.031
  185POPC  H11R21212   1.588   5.906   4.984
  185POPC  H11S21213   1.512   5.739   4.994
  185POPC  C21221214   1.724   5.740   4.987
  185POPC  H12R21215   1.721   5.631   5.003
  185POPC  H12S21216   1.804   5.790   5.045
  185POPC  C21321217   1.740   5.767   4.838
  185POPC  H13R21218   1.738   5.876   4.815
  185POPC  H13S21219   1.661   5.716   4.780
  185POPC  C21421220   1.867   5.715   4.776
  185POPC  H14R21221   1.883   5.611   4.811
  185POPC  H14S21222   1.948   5.776   4.821
  185POPC  C21521223   1.857   5.714   4.625
  185POPC  H15R21224   1.785   5.641   4.583
  185POPC  H15S21225   1.955   5.676   4.589
  185POPC  C21621226   1.818   5.848   4.565
  185POPC  H16R21227   1.878   5.934   4.599
  185POPC  H16S21228   1.715   5.880   4.591
  185POPC  C21721229   1.800   5.842   4.409
  185POPC  H17R21230   1.717   5.771   4.392
  185POPC  H17S21231   1.898   5.814   4.364
  185POPC  C21821232   1.752   5.976   4.359
  185POPC  H18R21233   1.820   6.062   4.378
  185POPC  H18S21234   1.650   5.997   4.396
  185POPC  H18T21235   1.739   5.971   4.249
  185POPC   C3321236   1.562   6.015   5.624
  185POPC   H3X21237   1.511   6.066   5.708
  185POPC   H3Y21238   1.487   6.000   5.543
  185POPC   C3421239   1.676   6.101   5.568
  185POPC   H4X21240   1.753   6.038   5.518
  185POPC   H4Y21241   1.714   6.142   5.664
  185POPC   C3521242   1.628   6.209   5.467
  185POPC   H5X21243   1.716   6.271   5.441
  185POPC   H5Y21244   1.557   6.268   5.529
  185POPC   C3621245   1.572   6.154   5.338
  185POPC   H6X21246   1.477   6.100   5.361
  185POPC   H6Y21247   1.634   6.079   5.284
  185POPC   C3721248   1.535   6.253   5.231
  185POPC   H7X21249   1.623   6.301   5.184
  185POPC   H7Y21250   1.483   6.339   5.279
  185POPC   C3821251   1.447   6.192   5.114
  185POPC   H8X21252   1.497   6.115   5.051
  185POPC   H8Y21253   1.446   6.280   5.046
  185POPC   C3921254   1.303   6.150   5.154
  185POPC   H9X21255   1.261   6.231   5.219
  185POPC   H9Y21256   1.312   6.055   5.210
  185POPC  C31021257   1.211   6.140   5.037
  185POPC  H10X21258   1.202   6.242   4.993
  185POPC  H10Y21259   1.108   6.106   5.063
  185POPC  C31121260   1.257   6.044   4.930
  185POPC  H11X21261   1.285   5.948   4.977
  185POPC  H11Y21262   1.349   6.087   4.885
  185POPC  C31221263   1.150   6.019   4.824
  185POPC  H12X21264   1.100   6.116   4.802
  185POPC  H12Y21265   1.066   5.960   4.867
  185POPC  C31321266   1.189   5.932   4.704
  185POPC  H13X21267   1.277   5.980   4.655
  185POPC  H13Y21268   1.107   5.940   4.630
  185POPC  C31421269   1.228   5.788   4.731
  185POPC  H14X21270   1.139   5.739   4.775
  185POPC  H14Y21271   1.305   5.787   4.812
  185POPC  C31521272   1.288   5.721   4.608
  185POPC  H15X21273   1.214   5.737   4.527
  185POPC  H15Y21274   1.303   5.612   4.628
  185POPC  C31621275   1.414   5.783   4.555
  185POPC  H16X21276   1.482   5.801   4.641
  185POPC  H16Y21277   1.386   5.882   4.512
  185POPC  H16Z21278   1.461   5.721   4.476
  186POPC     N21279   3.188   5.899   7.141
  186POPC   C1221280   3.293   5.926   7.030
  186POPC  H12A21281   3.389   5.927   7.080
  186POPC  H12B21282   3.269   6.026   6.998
  186POPC   C1321283   3.054   5.874   7.078
  186POPC  H13A21284   2.988   5.830   7.151
  186POPC  H13B21285   3.010   5.961   7.033
  186POPC  H13C21286   3.055   5.800   6.999
  186POPC   C1421287   3.226   5.771   7.213
  186POPC  H14A21288   3.332   5.761   7.230
  186POPC  H14B21289   3.155   5.767   7.295
  186POPC  H14C21290   3.195   5.689   7.151
  186POPC   C1521291   3.172   6.007   7.241
  186POPC  H15A21292   3.248   5.995   7.317
  186POPC  H15B21293   3.076   5.990   7.288
  186POPC  H15C21294   3.180   6.107   7.201
  186POPC   C1121295   3.303   5.835   6.909
  186POPC  H11A21296   3.374   5.884   6.838
  186POPC  H11B21297   3.209   5.820   6.852
  186POPC     P21298   3.507   5.681   6.956
  186POPC   O1321299   3.535   5.587   7.068
  186POPC   O1421300   3.578   5.808   6.953
  186POPC   O1221301   3.353   5.707   6.940
  186POPC   O1121302   3.526   5.596   6.820
  186POPC    C121303   3.535   5.664   6.692
  186POPC    HA21304   3.552   5.772   6.711
  186POPC    HB21305   3.438   5.648   6.640
  186POPC    C221306   3.658   5.624   6.610
  186POPC    HS21307   3.638   5.661   6.507
  186POPC   O2121308   3.696   5.484   6.619
  186POPC   C2121309   3.620   5.406   6.538
  186POPC   O2221310   3.514   5.440   6.481
  186POPC   C2221311   3.674   5.262   6.527
  186POPC   H2R21312   3.588   5.200   6.494
  186POPC   H2S21313   3.693   5.235   6.633
  186POPC    C321314   3.778   5.704   6.671
  186POPC    HX21315   3.793   5.673   6.776
  186POPC    HY21316   3.759   5.812   6.683
  186POPC   O3121317   3.903   5.690   6.605
  186POPC   C3121318   3.930   5.767   6.504
  186POPC   O3221319   3.854   5.853   6.464
  186POPC   C3221320   4.068   5.733   6.454
  186POPC   H2X21321   4.137   5.718   6.540
  186POPC   H2Y21322   4.092   5.823   6.394
  186POPC   C2321323   3.805   5.238   6.446
  186POPC   H3R21324   3.828   5.129   6.452
  186POPC   H3S21325   3.894   5.287   6.492
  186POPC   C2421326   3.797   5.282   6.298
  186POPC   H4R21327   3.894   5.287   6.243
  186POPC   H4S21328   3.747   5.381   6.293
  186POPC   C2521329   3.726   5.174   6.216
  186POPC   H5R21330   3.633   5.136   6.264
  186POPC   H5S21331   3.791   5.084   6.209
  186POPC   C2621332   3.689   5.213   6.073
  186POPC   H6R21333   3.666   5.120   6.016
  186POPC   H6S21334   3.775   5.269   6.030
  186POPC   C2721335   3.559   5.305   6.061
  186POPC   H7R21336   3.590   5.403   6.102
  186POPC   H7S21337   3.472   5.261   6.115
  186POPC   C2821338   3.525   5.329   5.919
  186POPC   H8R21339   3.430   5.376   5.886
  186POPC   H8S21340   3.506   5.227   5.880
  186POPC   C2921341   3.628   5.419   5.849
  186POPC   H9121342   3.657   5.507   5.909
  186POPC  C21021343   3.680   5.382   5.730
  186POPC  H10121344   3.765   5.443   5.697
  186POPC  C21121345   3.635   5.282   5.629
  186POPC  H11R21346   3.597   5.189   5.676
  186POPC  H11S21347   3.720   5.242   5.571
  186POPC  C21221348   3.522   5.331   5.538
  186POPC  H12R21349   3.444   5.391   5.590
  186POPC  H12S21350   3.464   5.246   5.497
  186POPC  C21321351   3.566   5.420   5.422
  186POPC  H13R21352   3.638   5.492   5.464
  186POPC  H13S21353   3.482   5.478   5.377
  186POPC  C21421354   3.644   5.351   5.298
  186POPC  H14R21355   3.650   5.245   5.331
  186POPC  H14S21356   3.749   5.386   5.288
  186POPC  C21521357   3.569   5.374   5.172
  186POPC  H15R21358   3.559   5.481   5.146
  186POPC  H15S21359   3.466   5.332   5.176
  186POPC  C21621360   3.641   5.332   5.045
  186POPC  H16R21361   3.713   5.251   5.071
  186POPC  H16S21362   3.696   5.417   4.999
  186POPC  C21721363   3.541   5.298   4.926
  186POPC  H17R21364   3.475   5.385   4.906
  186POPC  H17S21365   3.477   5.218   4.969
  186POPC  C21821366   3.611   5.256   4.796
  186POPC  H18R21367   3.667   5.160   4.806
  186POPC  H18S21368   3.665   5.346   4.759
  186POPC  H18T21369   3.534   5.226   4.723
  186POPC   C3321370   4.064   5.604   6.357
  186POPC   H3X21371   4.050   5.514   6.421
  186POPC   H3Y21372   4.163   5.599   6.306
  186POPC   C3421373   3.954   5.601   6.247
  186POPC   H4X21374   3.855   5.606   6.297
  186POPC   H4Y21375   3.953   5.496   6.209
  186POPC   C3521376   3.967   5.699   6.133
  186POPC   H5X21377   4.060   5.681   6.075
  186POPC   H5Y21378   3.968   5.799   6.180
  186POPC   C3621379   3.844   5.684   6.032
  186POPC   H6X21380   3.745   5.709   6.074
  186POPC   H6Y21381   3.848   5.583   5.984
  186POPC   C3721382   3.862   5.770   5.908
  186POPC   H7X21383   3.972   5.777   5.888
  186POPC   H7Y21384   3.850   5.877   5.936
  186POPC   C3821385   3.784   5.729   5.784
  186POPC   H8X21386   3.677   5.732   5.813
  186POPC   H8Y21387   3.812   5.623   5.766
  186POPC   C3921388   3.812   5.812   5.656
  186POPC   H9X21389   3.922   5.818   5.643
  186POPC   H9Y21390   3.760   5.910   5.649
  186POPC  C31021391   3.753   5.742   5.530
  186POPC  H10X21392   3.649   5.705   5.538
  186POPC  H10Y21393   3.813   5.650   5.516
  186POPC  C31121394   3.740   5.831   5.402
  186POPC  H11X21395   3.837   5.886   5.393
  186POPC  H11Y21396   3.670   5.917   5.416
  186POPC  C31221397   3.711   5.761   5.268
  186POPC  H12X21398   3.603   5.737   5.259
  186POPC  H12Y21399   3.764   5.666   5.243
  186POPC  C31321400   3.743   5.870   5.163
  186POPC  H13X21401   3.851   5.897   5.168
  186POPC  H13Y21402   3.682   5.961   5.182
  186POPC  C31421403   3.711   5.844   5.013
  186POPC  H14X21404   3.728   5.930   4.946
  186POPC  H14Y21405   3.604   5.819   5.004
  186POPC  C31521406   3.784   5.727   4.945
  186POPC  H15X21407   3.810   5.651   5.023
  186POPC  H15Y21408   3.878   5.755   4.893
  186POPC  C31621409   3.693   5.657   4.839
  186POPC  H16X21410   3.741   5.569   4.791
  186POPC  H16Y21411   3.671   5.720   4.750
  186POPC  H16Z21412   3.594   5.632   4.884
  187POPC     N21413   6.580   5.065   2.160
  187POPC   C1221414   6.590   5.211   2.154
  187POPC  H12A21415   6.692   5.245   2.156
  187POPC  H12B21416   6.538   5.249   2.241
  187POPC   C1321417   6.438   5.024   2.197
  187POPC  H13A21418   6.413   5.075   2.288
  187POPC  H13B21419   6.365   5.056   2.124
  187POPC  H13C21420   6.430   4.918   2.214
  187POPC   C1421421   6.608   4.991   2.030
  187POPC  H14A21422   6.528   5.012   1.960
  187POPC  H14B21423   6.698   5.021   1.979
  187POPC  H14C21424   6.606   4.884   2.041
  187POPC   C1521425   6.663   5.000   2.270
  187POPC  H15A21426   6.769   5.014   2.253
  187POPC  H15B21427   6.658   4.892   2.269
  187POPC  H15C21428   6.643   5.037   2.369
  187POPC   C1121429   6.531   5.277   2.026
  187POPC  H11A21430   6.606   5.255   1.948
  187POPC  H11B21431   6.532   5.385   2.051
  187POPC     P21432   6.297   5.318   1.924
  187POPC   O1321433   6.200   5.238   1.848
  187POPC   O1421434   6.366   5.430   1.855
  187POPC   O1221435   6.403   5.228   1.988
  187POPC   O1121436   6.222   5.381   2.052
  187POPC    C121437   6.289   5.402   2.180
  187POPC    HA21438   6.348   5.496   2.180
  187POPC    HB21439   6.350   5.316   2.216
  187POPC    C221440   6.187   5.438   2.291
  187POPC    HS21441   6.235   5.458   2.389
  187POPC   O2121442   6.093   5.328   2.307
  187POPC   C2121443   6.149   5.216   2.354
  187POPC   O2221444   6.262   5.199   2.397
  187POPC   C2221445   6.035   5.114   2.357
  187POPC   H2R21446   5.995   5.108   2.254
  187POPC   H2S21447   5.959   5.157   2.427
  187POPC    C321448   6.118   5.571   2.263
  187POPC    HX21449   6.078   5.586   2.161
  187POPC    HY21450   6.192   5.653   2.275
  187POPC   O3121451   6.006   5.592   2.350
  187POPC   C3121452   6.025   5.644   2.471
  187POPC   O3221453   6.130   5.667   2.529
  187POPC   C3221454   5.879   5.662   2.538
  187POPC   H2X21455   5.846   5.557   2.547
  187POPC   H2Y21456   5.813   5.718   2.469
  187POPC   C2321457   6.061   4.976   2.414
  187POPC   H3R21458   6.150   4.943   2.355
  187POPC   H3S21459   5.973   4.912   2.391
  187POPC   C2421460   6.066   4.987   2.562
  187POPC   H4R21461   5.973   5.017   2.615
  187POPC   H4S21462   6.151   5.044   2.606
  187POPC   C2521463   6.091   4.852   2.626
  187POPC   H5R21464   6.162   4.804   2.555
  187POPC   H5S21465   5.994   4.798   2.627
  187POPC   C2621466   6.147   4.859   2.775
  187POPC   H6R21467   6.215   4.947   2.775
  187POPC   H6S21468   6.206   4.766   2.791
  187POPC   C2721469   6.033   4.854   2.877
  187POPC   H7R21470   5.991   4.752   2.893
  187POPC   H7S21471   5.943   4.902   2.833
  187POPC   C2821472   6.060   4.898   3.029
  187POPC   H8R21473   6.119   4.992   3.025
  187POPC   H8S21474   6.140   4.829   3.064
  187POPC   C2921475   5.947   4.903   3.124
  187POPC   H9121476   5.902   4.999   3.150
  187POPC  C21021477   5.905   4.795   3.190
  187POPC  H10121478   5.811   4.812   3.245
  187POPC  C21121479   5.965   4.658   3.195
  187POPC  H11R21480   6.075   4.675   3.196
  187POPC  H11S21481   5.930   4.588   3.117
  187POPC  C21221482   5.935   4.583   3.329
  187POPC  H12R21483   5.949   4.474   3.314
  187POPC  H12S21484   5.828   4.601   3.354
  187POPC  C21321485   6.038   4.616   3.438
  187POPC  H13R21486   6.058   4.724   3.418
  187POPC  H13S21487   6.135   4.568   3.413
  187POPC  C21421488   5.985   4.587   3.575
  187POPC  H14R21489   5.952   4.481   3.565
  187POPC  H14S21490   5.892   4.646   3.587
  187POPC  C21521491   6.071   4.626   3.700
  187POPC  H15R21492   6.019   4.599   3.794
  187POPC  H15S21493   6.100   4.733   3.704
  187POPC  C21621494   6.206   4.536   3.705
  187POPC  H16R21495   6.260   4.558   3.610
  187POPC  H16S21496   6.180   4.428   3.695
  187POPC  C21721497   6.301   4.566   3.815
  187POPC  H17R21498   6.302   4.676   3.826
  187POPC  H17S21499   6.405   4.530   3.795
  187POPC  C21821500   6.252   4.506   3.948
  187POPC  H18R21501   6.222   4.399   3.947
  187POPC  H18S21502   6.161   4.556   3.988
  187POPC  H18T21503   6.333   4.528   4.021
  187POPC   C3321504   5.879   5.736   2.678
  187POPC   H3X21505   5.923   5.835   2.654
  187POPC   H3Y21506   5.943   5.700   2.761
  187POPC   C3421507   5.741   5.754   2.746
  187POPC   H4X21508   5.722   5.654   2.792
  187POPC   H4Y21509   5.677   5.785   2.660
  187POPC   C3521510   5.726   5.864   2.851
  187POPC   H5X21511   5.623   5.875   2.890
  187POPC   H5Y21512   5.759   5.960   2.805
  187POPC   C3621513   5.816   5.838   2.978
  187POPC   H6X21514   5.811   5.924   3.047
  187POPC   H6Y21515   5.918   5.826   2.936
  187POPC   C3721516   5.787   5.723   3.074
  187POPC   H7X21517   5.774   5.628   3.018
  187POPC   H7Y21518   5.694   5.752   3.128
  187POPC   C3821519   5.900   5.696   3.177
  187POPC   H8X21520   5.993   5.680   3.118
  187POPC   H8Y21521   5.885   5.607   3.241
  187POPC   C3921522   5.926   5.812   3.279
  187POPC   H9X21523   5.931   5.913   3.232
  187POPC   H9Y21524   6.027   5.783   3.314
  187POPC  C31021525   5.824   5.807   3.398
  187POPC  H10X21526   5.785   5.704   3.417
  187POPC  H10Y21527   5.749   5.886   3.378
  187POPC  C31121528   5.893   5.846   3.529
  187POPC  H11X21529   5.946   5.943   3.516
  187POPC  H11Y21530   5.973   5.773   3.550
  187POPC  C31221531   5.788   5.841   3.646
  187POPC  H12X21532   5.742   5.741   3.635
  187POPC  H12Y21533   5.707   5.911   3.614
  187POPC  C31321534   5.851   5.870   3.782
  187POPC  H13X21535   5.764   5.886   3.850
  187POPC  H13Y21536   5.911   5.963   3.792
  187POPC  C31421537   5.945   5.756   3.827
  187POPC  H14X21538   6.027   5.747   3.752
  187POPC  H14Y21539   5.884   5.663   3.818
  187POPC  C31521540   6.013   5.777   3.958
  187POPC  H15X21541   5.947   5.813   4.040
  187POPC  H15Y21542   6.083   5.863   3.954
  187POPC  C31621543   6.095   5.649   4.008
  187POPC  H16X21544   6.177   5.631   3.936
  187POPC  H16Y21545   6.031   5.562   4.037
  187POPC  H16Z21546   6.142   5.687   4.101
  188POPC     N21547   5.444   4.512   1.934
  188POPC   C1221548   5.339   4.609   1.980
  188POPC  H12A21549   5.357   4.619   2.086
  188POPC  H12B21550   5.241   4.563   1.976
  188POPC   C1321551   5.580   4.582   1.943
  188POPC  H13A21552   5.607   4.587   2.048
  188POPC  H13B21553   5.657   4.529   1.889
  188POPC  H13C21554   5.564   4.681   1.904
  188POPC   C1421555   5.443   4.386   2.012
  188POPC  H14A21556   5.350   4.333   1.994
  188POPC  H14B21557   5.517   4.316   1.975
  188POPC  H14C21558   5.449   4.406   2.118
  188POPC   C1521559   5.412   4.483   1.790
  188POPC  H15A21560   5.482   4.410   1.752
  188POPC  H15B21561   5.428   4.570   1.728
  188POPC  H15C21562   5.310   4.450   1.777
  188POPC   C1121563   5.331   4.749   1.916
  188POPC  H11A21564   5.238   4.797   1.952
  188POPC  H11B21565   5.324   4.746   1.805
  188POPC     P21566   5.469   4.885   2.089
  188POPC   O1321567   5.368   4.991   2.108
  188POPC   O1421568   5.611   4.922   2.099
  188POPC   O1221569   5.446   4.826   1.949
  188POPC   O1121570   5.443   4.761   2.188
  188POPC    C121571   5.320   4.763   2.266
  188POPC    HA21572   5.294   4.659   2.296
  188POPC    HB21573   5.227   4.796   2.215
  188POPC    C221574   5.329   4.840   2.398
  188POPC    HS21575   5.360   4.940   2.363
  188POPC   O2121576   5.428   4.790   2.498
  188POPC   C2121577   5.547   4.857   2.481
  188POPC   O2221578   5.564   4.955   2.414
  188POPC   C2221579   5.651   4.780   2.567
  188POPC   H2R21580   5.746   4.792   2.512
  188POPC   H2S21581   5.622   4.673   2.581
  188POPC    C321582   5.194   4.861   2.468
  188POPC    HX21583   5.155   4.760   2.495
  188POPC    HY21584   5.116   4.904   2.402
  188POPC   O3121585   5.213   4.944   2.588
  188POPC   C3121586   5.208   5.075   2.560
  188POPC   O3221587   5.192   5.123   2.448
  188POPC   C3221588   5.230   5.162   2.679
  188POPC   H2X21589   5.229   5.269   2.650
  188POPC   H2Y21590   5.327   5.138   2.728
  188POPC   C2321591   5.673   4.844   2.699
  188POPC   H3R21592   5.703   4.951   2.693
  188POPC   H3S21593   5.758   4.802   2.756
  188POPC   C2421594   5.555   4.835   2.803
  188POPC   H4R21595   5.487   4.757   2.762
  188POPC   H4S21596   5.511   4.937   2.804
  188POPC   C2521597   5.607   4.792   2.946
  188POPC   H5R21598   5.687   4.866   2.968
  188POPC   H5S21599   5.670   4.701   2.943
  188POPC   C2621600   5.497   4.784   3.041
  188POPC   H6R21601   5.503   4.699   3.112
  188POPC   H6S21602   5.400   4.782   2.988
  188POPC   C2721603   5.491   4.909   3.133
  188POPC   H7R21604   5.476   4.998   3.067
  188POPC   H7S21605   5.590   4.918   3.182
  188POPC   C2821606   5.383   4.920   3.247
  188POPC   H8R21607   5.289   4.917   3.189
  188POPC   H8S21608   5.399   5.016   3.300
  188POPC   C2921609   5.370   4.806   3.346
  188POPC   H9121610   5.327   4.710   3.314
  188POPC  C21021611   5.426   4.797   3.470
  188POPC  H10121612   5.393   4.709   3.528
  188POPC  C21121613   5.512   4.894   3.549
  188POPC  H11R21614   5.450   4.914   3.639
  188POPC  H11S21615   5.513   4.995   3.503
  188POPC  C21221616   5.655   4.854   3.587
  188POPC  H12R21617   5.721   4.844   3.499
  188POPC  H12S21618   5.656   4.756   3.639
  188POPC  C21321619   5.708   4.958   3.688
  188POPC  H13R21620   5.629   4.978   3.763
  188POPC  H13S21621   5.730   5.050   3.628
  188POPC  C21421622   5.838   4.910   3.754
  188POPC  H14R21623   5.915   4.879   3.680
  188POPC  H14S21624   5.810   4.819   3.810
  188POPC  C21521625   5.907   5.007   3.849
  188POPC  H15R21626   5.845   5.011   3.941
  188POPC  H15S21627   5.913   5.115   3.825
  188POPC  C21621628   6.041   4.955   3.880
  188POPC  H16R21629   6.108   4.994   3.800
  188POPC  H16S21630   6.037   4.844   3.888
  188POPC  C21721631   6.103   5.012   4.013
  188POPC  H17R21632   6.101   5.122   4.026
  188POPC  H17S21633   6.209   4.981   4.011
  188POPC  C21821634   6.040   4.942   4.135
  188POPC  H18R21635   6.092   4.970   4.229
  188POPC  H18S21636   6.040   4.831   4.126
  188POPC  H18T21637   5.937   4.977   4.157
  188POPC   C3321638   5.121   5.141   2.790
  188POPC   H3X21639   5.115   5.035   2.821
  188POPC   H3Y21640   5.019   5.167   2.752
  188POPC   C3421641   5.157   5.220   2.916
  188POPC   H4X21642   5.167   5.328   2.891
  188POPC   H4Y21643   5.257   5.185   2.951
  188POPC   C3521644   5.059   5.196   3.033
  188POPC   H5X21645   5.075   5.101   3.089
  188POPC   H5Y21646   4.959   5.191   2.984
  188POPC   C3621647   5.080   5.308   3.131
  188POPC   H6X21648   5.052   5.404   3.082
  188POPC   H6Y21649   5.187   5.323   3.157
  188POPC   C3721650   5.015   5.278   3.274
  188POPC   H7X21651   4.914   5.231   3.271
  188POPC   H7Y21652   5.004   5.372   3.333
  188POPC   C3821653   5.110   5.197   3.371
  188POPC   H8X21654   5.210   5.241   3.391
  188POPC   H8Y21655   5.108   5.094   3.330
  188POPC   C3921656   5.034   5.181   3.507
  188POPC   H9X21657   4.925   5.167   3.497
  188POPC   H9Y21658   5.055   5.281   3.552
  188POPC  C31021659   5.104   5.077   3.591
  188POPC  H10X21660   5.212   5.079   3.568
  188POPC  H10Y21661   5.056   4.978   3.576
  188POPC  C31121662   5.091   5.098   3.747
  188POPC  H11X21663   5.168   5.174   3.771
  188POPC  H11Y21664   5.127   5.006   3.798
  188POPC  C31221665   4.956   5.150   3.793
  188POPC  H12X21666   4.868   5.105   3.743
  188POPC  H12Y21667   4.938   5.255   3.762
  188POPC  C31321668   4.934   5.144   3.945
  188POPC  H13X21669   5.015   5.195   4.001
  188POPC  H13Y21670   4.933   5.039   3.983
  188POPC  C31421671   4.795   5.201   3.993
  188POPC  H14X21672   4.713   5.138   3.954
  188POPC  H14Y21673   4.790   5.295   3.933
  188POPC  C31521674   4.784   5.210   4.147
  188POPC  H15X21675   4.775   5.102   4.173
  188POPC  H15Y21676   4.683   5.253   4.166
  188POPC  C31621677   4.894   5.290   4.223
  188POPC  H16X21678   4.904   5.395   4.189
  188POPC  H16Y21679   4.989   5.246   4.185
  188POPC  H16Z21680   4.890   5.295   4.334
  189SAPI   C1221681   1.923   5.276   6.710
  189SAPI    H221682   1.851   5.191   6.713
  189SAPI    O221683   1.838   5.394   6.721
  189SAPI   HO221684   1.762   5.366   6.670
  189SAPI   C1321685   2.015   5.265   6.830
  189SAPI    H321686   2.074   5.172   6.817
  189SAPI    O321687   1.944   5.258   6.952
  189SAPI   HO321688   1.874   5.324   6.951
  189SAPI   C1421689   2.117   5.385   6.829
  189SAPI    H421690   2.062   5.466   6.882
  189SAPI    O421691   2.227   5.353   6.915
  189SAPI   HO421692   2.264   5.272   6.880
  189SAPI   C1521693   2.155   5.444   6.685
  189SAPI    H521694   2.259   5.411   6.660
  189SAPI    O521695   2.168   5.589   6.678
  189SAPI   HO521696   2.261   5.613   6.676
  189SAPI   C1621697   2.085   5.394   6.555
  189SAPI    H621698   2.011   5.471   6.526
  189SAPI    O621699   2.182   5.379   6.445
  189SAPI   HO621700   2.162   5.441   6.375
  189SAPI   C1121701   1.997   5.269   6.577
  189SAPI    H121702   2.064   5.181   6.587
  189SAPI     P21703   1.889   5.120   6.376
  189SAPI   O1321704   1.759   5.114   6.304
  189SAPI   O1421705   1.924   5.007   6.464
  189SAPI   O1221706   1.905   5.257   6.469
  189SAPI   O1121707   1.986   5.152   6.263
  189SAPI    C121708   1.986   5.277   6.189
  189SAPI    HA21709   1.890   5.330   6.209
  189SAPI    HB21710   2.074   5.338   6.219
  189SAPI    C221711   1.973   5.260   6.035
  189SAPI    HS21712   1.969   5.357   5.981
  189SAPI   O2121713   1.850   5.187   6.004
  189SAPI   C2121714   1.730   5.251   6.017
  189SAPI   O2221715   1.715   5.369   6.047
  189SAPI   C2221716   1.620   5.149   5.963
  189SAPI   H2R21717   1.618   5.067   6.038
  189SAPI   H2S21718   1.523   5.203   5.973
  189SAPI    C321719   2.087   5.183   5.971
  189SAPI    HX21720   2.082   5.222   5.867
  189SAPI    HY21721   2.059   5.076   5.984
  189SAPI   O3121722   2.215   5.217   6.035
  189SAPI   C3121723   2.312   5.139   5.982
  189SAPI   O3221724   2.300   5.047   5.904
  189SAPI   C3221725   2.456   5.165   6.033
  189SAPI   H2X21726   2.483   5.084   6.103
  189SAPI   H2Y21727   2.450   5.258   6.095
  189SAPI   C2321728   1.620   5.093   5.812
  189SAPI   H3R21729   1.551   5.007   5.803
  189SAPI   H3S21730   1.723   5.060   5.787
  189SAPI   C2421731   1.570   5.190   5.706
  189SAPI   H4R21732   1.467   5.225   5.727
  189SAPI   H4S21733   1.545   5.127   5.618
  189SAPI   C2521734   1.651   5.305   5.665
  189SAPI   H5R21735   1.709   5.345   5.749
  189SAPI   C2621736   1.654   5.368   5.539
  189SAPI   H6R21737   1.736   5.437   5.514
  189SAPI   C2721738   1.579   5.313   5.416
  189SAPI   H7R21739   1.470   5.327   5.431
  189SAPI   H7S21740   1.609   5.206   5.405
  189SAPI   C2821741   1.627   5.391   5.296
  189SAPI   H8R21742   1.601   5.498   5.306
  189SAPI   C2921743   1.704   5.361   5.199
  189SAPI   H9R21744   1.731   5.449   5.140
  189SAPI  C21021745   1.777   5.225   5.171
  189SAPI  H10R21746   1.711   5.160   5.110
  189SAPI  H10S21747   1.792   5.163   5.262
  189SAPI  C21121748   1.901   5.260   5.087
  189SAPI  H11R21749   1.904   5.225   4.983
  189SAPI  C21221750   2.006   5.331   5.126
  189SAPI  H12R21751   2.091   5.336   5.057
  189SAPI  C21321752   2.013   5.394   5.263
  189SAPI  H13R21753   1.946   5.352   5.341
  189SAPI  H13S21754   1.988   5.501   5.246
  189SAPI  C21421755   2.151   5.391   5.326
  189SAPI  H14R21756   2.161   5.308   5.397
  189SAPI  C21521757   2.255   5.476   5.306
  189SAPI  H15R21758   2.343   5.462   5.370
  189SAPI  C21621759   2.260   5.602   5.226
  189SAPI  H16R21760   2.297   5.682   5.293
  189SAPI  H16S21761   2.158   5.644   5.219
  189SAPI  C21721762   2.331   5.576   5.092
  189SAPI  H17R21763   2.298   5.480   5.047
  189SAPI  H17S21764   2.437   5.556   5.119
  189SAPI  C21821765   2.337   5.696   4.995
  189SAPI  H18R21766   2.423   5.678   4.928
  189SAPI  H18S21767   2.353   5.790   5.051
  189SAPI  C21921768   2.209   5.703   4.907
  189SAPI  H19R21769   2.196   5.803   4.860
  189SAPI  H19S21770   2.116   5.702   4.968
  189SAPI  C22021771   2.204   5.608   4.783
  189SAPI  H20R21772   2.301   5.613   4.730
  189SAPI  H20S21773   2.121   5.643   4.718
  189SAPI  H20T21774   2.186   5.505   4.820
  189SAPI   C3321775   2.562   5.184   5.926
  189SAPI   H3X21776   2.559   5.097   5.856
  189SAPI   H3Y21777   2.657   5.175   5.983
  189SAPI   C3421778   2.548   5.314   5.852
  189SAPI   H4X21779   2.547   5.395   5.929
  189SAPI   H4Y21780   2.450   5.320   5.799
  189SAPI   C3521781   2.665   5.352   5.765
  189SAPI   H5X21782   2.706   5.266   5.707
  189SAPI   H5Y21783   2.748   5.379   5.834
  189SAPI   C3621784   2.635   5.469   5.670
  189SAPI   H6X21785   2.582   5.558   5.711
  189SAPI   H6Y21786   2.566   5.438   5.589
  189SAPI   C3721787   2.756   5.511   5.591
  189SAPI   H7X21788   2.776   5.440   5.508
  189SAPI   H7Y21789   2.845   5.512   5.658
  189SAPI   C3821790   2.728   5.644   5.527
  189SAPI   H8X21791   2.724   5.717   5.611
  189SAPI   H8Y21792   2.630   5.645   5.476
  189SAPI   C3921793   2.834   5.677   5.418
  189SAPI   H9X21794   2.836   5.597   5.341
  189SAPI   H9Y21795   2.928   5.670   5.477
  189SAPI  C31021796   2.831   5.816   5.359
  189SAPI  H10X21797   2.924   5.840   5.304
  189SAPI  H10Y21798   2.836   5.891   5.440
  189SAPI  C31121799   2.713   5.840   5.265
  189SAPI  H11X21800   2.617   5.846   5.321
  189SAPI  H11Y21801   2.695   5.753   5.198
  189SAPI  C31221802   2.726   5.954   5.165
  189SAPI  H12X21803   2.833   5.971   5.143
  189SAPI  H12Y21804   2.686   6.040   5.223
  189SAPI  C31321805   2.645   5.935   5.030
  189SAPI  H13X21806   2.535   5.934   5.049
  189SAPI  H13Y21807   2.679   5.847   4.970
  189SAPI  C31421808   2.680   6.048   4.925
  189SAPI  H14X21809   2.791   6.048   4.920
  189SAPI  H14Y21810   2.651   6.148   4.964
  189SAPI  C31521811   2.613   6.024   4.786
  189SAPI  H15X21812   2.513   6.071   4.792
  189SAPI  H15Y21813   2.609   5.915   4.765
  189SAPI  C31621814   2.683   6.095   4.667
  189SAPI  H16X21815   2.692   6.199   4.703
  189SAPI  H16Y21816   2.608   6.117   4.588
  189SAPI  C31721817   2.820   6.037   4.632
  189SAPI  H17X21818   2.814   5.930   4.602
  189SAPI  H17Y21819   2.870   6.023   4.730
  189SAPI  C31821820   2.897   6.123   4.532
  189SAPI  H18X21821   2.895   6.225   4.574
  189SAPI  H18Y21822   2.845   6.110   4.435
  189SAPI  H18Z21823   3.001   6.087   4.522
  190SAPI   C1221824   0.985   3.188   6.604
  190SAPI    H221825   0.933   3.235   6.517
  190SAPI    O221826   1.089   3.115   6.560
  190SAPI   HO221827   1.051   3.041   6.512
  190SAPI   C1321828   1.022   3.305   6.698
  190SAPI    H321829   0.927   3.344   6.741
  190SAPI    O321830   1.097   3.405   6.628
  190SAPI   HO321831   1.162   3.365   6.569
  190SAPI   C1421832   1.094   3.259   6.820
  190SAPI    H421833   1.199   3.238   6.791
  190SAPI    O421834   1.097   3.365   6.910
  190SAPI   HO421835   1.181   3.376   6.955
  190SAPI   C1521836   1.045   3.122   6.877
  190SAPI    H521837   0.964   3.154   6.946
  190SAPI    O521838   1.144   3.053   6.951
  190SAPI   HO521839   1.111   2.992   7.017
  190SAPI   C1621840   0.962   3.027   6.783
  190SAPI    H621841   1.041   2.959   6.746
  190SAPI    O621842   0.881   2.935   6.855
  190SAPI   HO621843   0.887   2.854   6.804
  190SAPI   C1121844   0.888   3.093   6.674
  190SAPI    H121845   0.811   3.147   6.733
  190SAPI     P21846   0.699   3.016   6.495
  190SAPI   O1321847   0.681   3.158   6.458
  190SAPI   O1421848   0.583   2.947   6.555
  190SAPI   O1221849   0.826   2.997   6.593
  190SAPI   O1121850   0.739   2.949   6.361
  190SAPI    C121851   0.639   2.902   6.270
  190SAPI    HA21852   0.534   2.911   6.305
  190SAPI    HB21853   0.642   2.970   6.182
  190SAPI    C221854   0.681   2.758   6.226
  190SAPI    HS21855   0.665   2.698   6.318
  190SAPI   O2121856   0.815   2.759   6.180
  190SAPI   C2121857   0.875   2.635   6.175
  190SAPI   O2221858   0.836   2.538   6.236
  190SAPI   C2221859   1.006   2.639   6.095
  190SAPI   H2R21860   1.061   2.731   6.121
  190SAPI   H2S21861   1.064   2.547   6.119
  190SAPI    C321862   0.574   2.700   6.124
  190SAPI    HX21863   0.582   2.765   6.035
  190SAPI    HY21864   0.480   2.704   6.182
  190SAPI   O3121865   0.615   2.570   6.082
  190SAPI   C3121866   0.556   2.464   6.149
  190SAPI   O3221867   0.488   2.484   6.248
  190SAPI   C3221868   0.559   2.329   6.074
  190SAPI   H2X21869   0.453   2.310   6.045
  190SAPI   H2Y21870   0.575   2.251   6.151
  190SAPI   C2321871   0.986   2.632   5.944
  190SAPI   H3R21872   0.943   2.532   5.922
  190SAPI   H3S21873   1.082   2.612   5.892
  190SAPI   C2421874   0.909   2.748   5.872
  190SAPI   H4R21875   0.799   2.747   5.886
  190SAPI   H4S21876   0.916   2.734   5.762
  190SAPI   C2521877   0.961   2.882   5.910
  190SAPI   H5R21878   0.936   2.902   6.015
  190SAPI   C2621879   1.047   2.960   5.832
  190SAPI   H6R21880   1.074   3.060   5.869
  190SAPI   C2721881   1.095   2.927   5.693
  190SAPI   H7R21882   1.035   2.984   5.619
  190SAPI   H7S21883   1.092   2.818   5.677
  190SAPI   C2821884   1.231   2.979   5.665
  190SAPI   H8R21885   1.269   3.061   5.728
  190SAPI   C2921886   1.304   2.942   5.558
  190SAPI   H9R21887   1.409   2.975   5.547
  190SAPI  C21021888   1.268   2.820   5.466
  190SAPI  H10R21889   1.168   2.833   5.419
  190SAPI  H10S21890   1.251   2.727   5.525
  190SAPI  C21121891   1.377   2.770   5.372
  190SAPI  H11R21892   1.466   2.731   5.423
  190SAPI  C21221893   1.382   2.775   5.239
  190SAPI  H12R21894   1.468   2.740   5.180
  190SAPI  C21321895   1.269   2.827   5.150
  190SAPI  H13R21896   1.322   2.879   5.068
  190SAPI  H13S21897   1.214   2.912   5.195
  190SAPI  C21421898   1.174   2.724   5.091
  190SAPI  H14R21899   1.111   2.674   5.167
  190SAPI  C21521900   1.147   2.701   4.959
  190SAPI  H15R21901   1.082   2.618   4.930
  190SAPI  C21621902   1.180   2.787   4.840
  190SAPI  H16R21903   1.285   2.812   4.814
  190SAPI  H16S21904   1.130   2.883   4.863
  190SAPI  C21721905   1.133   2.734   4.706
  190SAPI  H17R21906   1.147   2.624   4.696
  190SAPI  H17S21907   1.200   2.768   4.624
  190SAPI  C21821908   0.987   2.766   4.675
  190SAPI  H18R21909   0.967   2.872   4.702
  190SAPI  H18S21910   0.916   2.704   4.733
  190SAPI  C21921911   0.962   2.742   4.524
  190SAPI  H19R21912   1.011   2.648   4.490
  190SAPI  H19S21913   1.009   2.835   4.487
  190SAPI  C22021914   0.810   2.737   4.493
  190SAPI  H20R21915   0.755   2.661   4.553
  190SAPI  H20S21916   0.798   2.720   4.384
  190SAPI  H20T21917   0.756   2.831   4.516
  190SAPI   C3321918   0.642   2.298   5.951
  190SAPI   H3X21919   0.646   2.386   5.882
  190SAPI   H3Y21920   0.599   2.217   5.890
  190SAPI   C3421921   0.774   2.227   5.984
  190SAPI   H4X21922   0.775   2.163   6.075
  190SAPI   H4Y21923   0.846   2.303   6.022
  190SAPI   C3521924   0.837   2.151   5.867
  190SAPI   H5X21925   0.759   2.080   5.831
  190SAPI   H5Y21926   0.924   2.093   5.905
  190SAPI   C3621927   0.887   2.234   5.755
  190SAPI   H6X21928   0.953   2.315   5.794
  190SAPI   H6Y21929   0.791   2.277   5.719
  190SAPI   C3721930   0.958   2.150   5.652
  190SAPI   H7X21931   0.904   2.060   5.613
  190SAPI   H7Y21932   1.053   2.112   5.697
  190SAPI   C3821933   0.992   2.223   5.520
  190SAPI   H8X21934   1.072   2.174   5.461
  190SAPI   H8Y21935   1.029   2.322   5.554
  190SAPI   C3921936   0.877   2.259   5.429
  190SAPI   H9X21937   0.807   2.316   5.494
  190SAPI   H9Y21938   0.827   2.164   5.399
  190SAPI  C31021939   0.907   2.350   5.314
  190SAPI  H10X21940   0.962   2.441   5.347
  190SAPI  H10Y21941   0.813   2.394   5.274
  190SAPI  C31121942   0.963   2.276   5.195
  190SAPI  H11X21943   0.895   2.191   5.172
  190SAPI  H11Y21944   1.066   2.241   5.219
  190SAPI  C31221945   0.978   2.374   5.076
  190SAPI  H12X21946   1.065   2.443   5.079
  190SAPI  H12Y21947   0.885   2.435   5.069
  190SAPI  C31321948   0.998   2.292   4.950
  190SAPI  H13X21949   0.925   2.210   4.937
  190SAPI  H13Y21950   1.092   2.236   4.936
  190SAPI  C31421951   0.981   2.367   4.815
  190SAPI  H14X21952   1.056   2.449   4.824
  190SAPI  H14Y21953   0.882   2.418   4.814
  190SAPI  C31521954   1.011   2.275   4.690
  190SAPI  H15X21955   0.962   2.176   4.706
  190SAPI  H15Y21956   1.121   2.266   4.700
  190SAPI  C31621957   0.965   2.346   4.563
  190SAPI  H16X21958   1.036   2.432   4.562
  190SAPI  H16Y21959   0.867   2.397   4.574
  190SAPI  C31721960   0.976   2.272   4.425
  190SAPI  H17X21961   0.967   2.350   4.346
  190SAPI  H17Y21962   0.893   2.200   4.406
  190SAPI  C31821963   1.108   2.203   4.414
  190SAPI  H18X21964   1.186   2.282   4.424
  190SAPI  H18Y21965   1.124   2.150   4.318
  190SAPI  H18Z21966   1.129   2.132   4.497
  191SAPI   C1221967   4.572   4.497   2.206
  191SAPI    H221968   4.656   4.426   2.192
  191SAPI    O221969   4.589   4.566   2.332
  191SAPI   HO221970   4.640   4.503   2.383
  191SAPI   C1321971   4.567   4.591   2.087
  191SAPI    H321972   4.578   4.523   2.000
  191SAPI    O321973   4.686   4.676   2.084
  191SAPI   HO321974   4.741   4.637   2.016
  191SAPI   C1421975   4.450   4.678   2.098
  191SAPI    H421976   4.459   4.751   2.181
  191SAPI    O421977   4.441   4.749   1.978
  191SAPI   HO421978   4.492   4.829   1.994
  191SAPI   C1521979   4.312   4.606   2.133
  191SAPI    H521980   4.276   4.560   2.039
  191SAPI    O521981   4.201   4.688   2.179
  191SAPI   HO521982   4.243   4.760   2.226
  191SAPI   C1621983   4.320   4.488   2.225
  191SAPI    H621984   4.321   4.525   2.330
  191SAPI    O621985   4.205   4.405   2.218
  191SAPI   HO621986   4.137   4.468   2.240
  191SAPI   C1121987   4.457   4.402   2.208
  191SAPI    H121988   4.451   4.353   2.109
  191SAPI     P21989   4.552   4.163   2.274
  191SAPI   O1321990   4.625   4.182   2.150
  191SAPI   O1421991   4.459   4.048   2.290
  191SAPI   O1221992   4.469   4.299   2.306
  191SAPI   O1121993   4.656   4.162   2.391
  191SAPI    C121994   4.620   4.101   2.516
  191SAPI    HA21995   4.657   4.173   2.592
  191SAPI    HB21996   4.510   4.103   2.534
  191SAPI    C221997   4.675   3.959   2.543
  191SAPI    HS21998   4.634   3.893   2.464
  191SAPI   O2121999   4.639   3.911   2.668
  191SAPI   C2122000   4.624   3.776   2.687
  191SAPI   O2222001   4.644   3.693   2.602
  191SAPI   C2222002   4.588   3.750   2.835
  191SAPI   H2R22003   4.508   3.821   2.865
  191SAPI   H2S22004   4.540   3.650   2.831
  191SAPI    C322005   4.830   3.951   2.519
  191SAPI    HX22006   4.849   3.981   2.414
  191SAPI    HY22007   4.860   3.844   2.529
  191SAPI   O3122008   4.901   4.037   2.614
  191SAPI   C3122009   4.961   3.975   2.725
  191SAPI   O3222010   4.947   3.857   2.749
  191SAPI   C3222011   5.035   4.084   2.806
  191SAPI   H2X22012   4.963   4.150   2.858
  191SAPI   H2Y22013   5.108   4.138   2.741
  191SAPI   C2322014   4.711   3.738   2.937
  191SAPI   H3R22015   4.749   3.842   2.947
  191SAPI   H3S22016   4.789   3.677   2.886
  191SAPI   C2422017   4.672   3.667   3.068
  191SAPI   H4R22018   4.629   3.567   3.049
  191SAPI   H4S22019   4.589   3.732   3.104
  191SAPI   C2522020   4.775   3.667   3.177
  191SAPI   H5R22021   4.858   3.734   3.149
  191SAPI   C2622022   4.756   3.611   3.306
  191SAPI   H6R22023   4.829   3.627   3.386
  191SAPI   C2722024   4.619   3.552   3.351
  191SAPI   H7R22025   4.641   3.473   3.425
  191SAPI   H7S22026   4.566   3.507   3.265
  191SAPI   C2822027   4.526   3.657   3.400
  191SAPI   H8R22028   4.441   3.681   3.335
  191SAPI   C2922029   4.529   3.727   3.522
  191SAPI   H9R22030   4.462   3.814   3.536
  191SAPI  C21022031   4.644   3.722   3.611
  191SAPI  H10R22032   4.674   3.828   3.608
  191SAPI  H10S22033   4.732   3.669   3.568
  191SAPI  C21122034   4.613   3.660   3.740
  191SAPI  H11R22035   4.552   3.569   3.734
  191SAPI  C21222036   4.630   3.711   3.864
  191SAPI  H12R22037   4.585   3.656   3.948
  191SAPI  C21322038   4.698   3.837   3.899
  191SAPI  H13R22039   4.725   3.886   3.803
  191SAPI  H13S22040   4.798   3.810   3.939
  191SAPI  C21422041   4.627   3.930   3.989
  191SAPI  H14R22042   4.517   3.931   3.984
  191SAPI  C21522043   4.693   4.019   4.067
  191SAPI  H15R22044   4.626   4.083   4.127
  191SAPI  C21622045   4.839   4.041   4.089
  191SAPI  H16R22046   4.891   4.112   4.021
  191SAPI  H16S22047   4.904   3.951   4.085
  191SAPI  C21722048   4.873   4.113   4.223
  191SAPI  H17R22049   4.861   4.047   4.311
  191SAPI  H17S22050   4.811   4.204   4.237
  191SAPI  C21822051   5.020   4.158   4.239
  191SAPI  H18R22052   5.085   4.068   4.234
  191SAPI  H18S22053   5.039   4.208   4.336
  191SAPI  C21922054   5.083   4.254   4.132
  191SAPI  H19R22055   5.019   4.345   4.125
  191SAPI  H19S22056   5.075   4.209   4.031
  191SAPI  C22022057   5.225   4.298   4.170
  191SAPI  H20R22058   5.266   4.373   4.100
  191SAPI  H20S22059   5.300   4.218   4.191
  191SAPI  H20T22060   5.216   4.347   4.269
  191SAPI   C3322061   5.134   4.026   2.919
  191SAPI   H3X22062   5.213   4.100   2.945
  191SAPI   H3Y22063   5.192   3.940   2.878
  191SAPI   C3422064   5.063   3.984   3.048
  191SAPI   H4X22065   5.112   3.887   3.073
  191SAPI   H4Y22066   4.956   3.960   3.030
  191SAPI   C3522067   5.076   4.076   3.178
  191SAPI   H5X22068   5.047   4.182   3.162
  191SAPI   H5Y22069   5.186   4.076   3.188
  191SAPI   C3622070   5.005   4.010   3.292
  191SAPI   H6X22071   5.037   3.903   3.288
  191SAPI   H6Y22072   4.899   4.016   3.258
  191SAPI   C3722073   5.031   4.072   3.425
  191SAPI   H7X22074   5.013   4.181   3.420
  191SAPI   H7Y22075   5.140   4.074   3.442
  191SAPI   C3822076   4.967   4.006   3.546
  191SAPI   H8X22077   5.018   3.908   3.560
  191SAPI   H8Y22078   4.863   3.977   3.520
  191SAPI   C3922079   4.951   4.093   3.673
  191SAPI   H9X22080   4.895   4.032   3.747
  191SAPI   H9Y22081   4.895   4.186   3.652
  191SAPI  C31022082   5.093   4.125   3.738
  191SAPI  H10X22083   5.082   4.222   3.792
  191SAPI  H10Y22084   5.166   4.146   3.656
  191SAPI  C31122085   5.141   4.018   3.832
  191SAPI  H11X22086   5.143   3.919   3.782
  191SAPI  H11Y22087   5.065   3.997   3.911
  191SAPI  C31222088   5.279   4.046   3.893
  191SAPI  H12X22089   5.266   4.139   3.953
  191SAPI  H12Y22090   5.367   4.043   3.824
  191SAPI  C31322091   5.313   3.932   3.993
  191SAPI  H13X22092   5.320   3.834   3.942
  191SAPI  H13Y22093   5.221   3.917   4.054
  191SAPI  C31422094   5.432   3.962   4.083
  191SAPI  H14X22095   5.415   4.044   4.156
  191SAPI  H14Y22096   5.517   3.987   4.016
  191SAPI  C31522097   5.478   3.837   4.151
  191SAPI  H15X22098   5.566   3.857   4.215
  191SAPI  H15Y22099   5.505   3.759   4.077
  191SAPI  C31622100   5.378   3.781   4.258
  191SAPI  H16X22101   5.292   3.759   4.191
  191SAPI  H16Y22102   5.340   3.860   4.327
  191SAPI  C31722103   5.422   3.660   4.331
  191SAPI  H17X22104   5.502   3.682   4.405
  191SAPI  H17Y22105   5.458   3.581   4.263
  191SAPI  C31822106   5.296   3.587   4.402
  191SAPI  H18X22107   5.329   3.492   4.448
  191SAPI  H18Y22108   5.222   3.558   4.324
  191SAPI  H18Z22109   5.248   3.647   4.482
  192SAPI   C1222110   0.417   6.285   1.995
  192SAPI    H222111   0.461   6.307   1.896
  192SAPI    O222112   0.283   6.335   1.988
  192SAPI   HO222113   0.240   6.289   1.915
  192SAPI   C1322114   0.422   6.139   2.021
  192SAPI    H322115   0.528   6.105   2.024
  192SAPI    O322116   0.362   6.059   1.925
  192SAPI   HO322117   0.273   6.093   1.916
  192SAPI   C1422118   0.358   6.097   2.156
  192SAPI    H422119   0.248   6.111   2.146
  192SAPI    O422120   0.382   5.957   2.195
  192SAPI   HO422121   0.324   5.890   2.159
  192SAPI   C1522122   0.394   6.199   2.270
  192SAPI    H522123   0.474   6.141   2.321
  192SAPI    O522124   0.291   6.209   2.370
  192SAPI   HO522125   0.299   6.139   2.435
  192SAPI   C1622126   0.466   6.341   2.233
  192SAPI    H622127   0.380   6.407   2.257
  192SAPI    O622128   0.573   6.383   2.320
  192SAPI   HO622129   0.531   6.444   2.381
  192SAPI   C1122130   0.501   6.370   2.089
  192SAPI    H122131   0.603   6.336   2.060
  192SAPI     P22132   0.613   6.625   2.072
  192SAPI   O1322133   0.583   6.744   1.991
  192SAPI   O1422134   0.747   6.571   2.060
  192SAPI   O1222135   0.494   6.510   2.044
  192SAPI   O1122136   0.587   6.661   2.223
  192SAPI    C122137   0.637   6.781   2.285
  192SAPI    HA22138   0.748   6.790   2.279
  192SAPI    HB22139   0.584   0.031   2.249
  192SAPI    C222140   0.595   6.777   2.437
  192SAPI    HS22141   0.632   6.681   2.479
  192SAPI   O2122142   0.449   6.778   2.441
  192SAPI   C2122143   0.385   6.663   2.476
  192SAPI   O2222144   0.446   6.564   2.514
  192SAPI   C2222145   0.231   6.682   2.464
  192SAPI   H2R22146   0.209   6.689   2.356
  192SAPI   H2S22147   0.189   6.585   2.499
  192SAPI    C322148   0.643   0.054   2.522
  192SAPI    HX22149   0.640   0.142   2.455
  192SAPI    HY22150   0.752   0.046   2.543
  192SAPI   O3122151   0.570   0.069   2.648
  192SAPI   C3122152   0.470   0.148   2.660
  192SAPI   O3222153   0.436   0.233   2.577
  192SAPI   C3222154   0.418   0.144   2.802
  192SAPI   H2X22155   0.499   0.166   2.875
  192SAPI   H2Y22156   0.378   0.043   2.827
  192SAPI   C2322157   0.194   6.800   2.551
  192SAPI   H3R22158   0.220   0.051   2.495
  192SAPI   H3S22159   0.257   6.815   2.642
  192SAPI   C2422160   0.051   6.792   2.589
  192SAPI   H4R22161   0.028   6.712   2.663
  192SAPI   H4S22162   0.003   6.755   2.496
  192SAPI   C2522163   6.830   0.086   2.627
  192SAPI   H5R22164   0.024   0.168   2.562
  192SAPI   C2622165   6.753   0.111   2.728
  192SAPI   H6R22166   6.702   0.208   2.738
  192SAPI   C2722167   6.693   0.006   2.818
  192SAPI   H7R22168   6.763   6.765   2.847
  192SAPI   H7S22169   6.610   6.788   2.773
  192SAPI   C2822170   6.626   0.067   2.937
  192SAPI   H8R22171   6.626   0.176   2.950
  192SAPI   C2922172   6.605   0.001   3.049
  192SAPI   H9R22173   6.575   0.061   3.136
  192SAPI  C21022174   6.609   6.695   3.077
  192SAPI  H10R22175   6.654   6.689   3.178
  192SAPI  H10S22176   6.669   6.637   3.003
  192SAPI  C21122177   6.475   6.635   3.088
  192SAPI  H11R22178   6.416   6.647   2.996
  192SAPI  C21222179   6.419   6.567   3.190
  192SAPI  H12R22180   6.315   6.533   3.175
  192SAPI  C21322181   6.479   6.528   3.321
  192SAPI  H13R22182   6.589   6.531   3.305
  192SAPI  H13S22183   6.458   6.419   3.330
  192SAPI  C21422184   6.437   6.604   3.447
  192SAPI  H14R22185   6.358   6.680   3.439
  192SAPI  C21522186   6.493   6.590   3.569
  192SAPI  H15R22187   6.478   6.663   3.650
  192SAPI  C21622188   6.610   6.496   3.603
  192SAPI  H16R22189   6.596   6.473   3.711
  192SAPI  H16S22190   6.708   6.545   3.586
  192SAPI  C21722191   6.628   6.342   3.556
  192SAPI  H17R22192   6.692   6.348   3.465
  192SAPI  H17S22193   6.527   6.308   3.525
  192SAPI  C21822194   6.691   6.263   3.668
  192SAPI  H18R22195   6.668   6.155   3.650
  192SAPI  H18S22196   6.630   6.286   3.758
  192SAPI  C21922197   0.004   6.287   3.693
  192SAPI  H19R22198   0.010   6.396   3.712
  192SAPI  H19S22199   0.067   6.267   3.603
  192SAPI  C22022200   0.062   6.212   3.814
  192SAPI  H20R22201   0.156   6.263   3.842
  192SAPI  H20S22202   0.072   6.103   3.795
  192SAPI  H20T22203   6.839   6.234   3.902
  192SAPI   C3322204   0.303   0.247   2.818
  192SAPI   H3X22205   0.215   0.211   2.761
  192SAPI   H3Y22206   0.344   0.343   2.782
  192SAPI   C3422207   0.264   0.259   2.965
  192SAPI   H4X22208   0.213   0.356   2.984
  192SAPI   H4Y22209   0.360   0.269   3.019
  192SAPI   C3522210   0.186   0.138   3.013
  192SAPI   H5X22211   0.249   0.048   2.997
  192SAPI   H5Y22212   0.090   0.141   2.956
  192SAPI   C3622213   0.153   0.152   3.163
  192SAPI   H6X22214   0.085   0.077   3.209
  192SAPI   H6Y22215   0.105   0.251   3.179
  192SAPI   C3722216   0.273   0.150   3.244
  192SAPI   H7X22217   0.339   0.237   3.225
  192SAPI   H7Y22218   0.326   0.054   3.230
  192SAPI   C3822219   0.242   0.174   3.394
  192SAPI   H8X22220   0.188   0.270   3.402
  192SAPI   H8Y22221   0.338   0.189   3.449
  192SAPI   C3922222   0.171   0.060   3.474
  192SAPI   H9X22223   0.230   6.807   3.465
  192SAPI   H9Y22224   0.081   0.038   3.412
  192SAPI  C31022225   0.150   0.088   3.621
  192SAPI  H10X22226   0.082   0.175   3.633
  192SAPI  H10Y22227   0.246   0.117   3.670
  192SAPI  C31122228   0.094   6.811   3.693
  192SAPI  H11X22229   0.164   6.725   3.684
  192SAPI  H11Y22230   6.833   6.782   3.658
  192SAPI  C31222231   0.076   6.839   3.852
  192SAPI  H12X22232   0.012   0.086   3.876
  192SAPI  H12Y22233   0.178   0.021   3.891
  192SAPI  C31322234   0.021   6.720   3.936
  192SAPI  H13X22235   0.077   6.625   3.925
  192SAPI  H13Y22236   6.758   6.698   3.901
  192SAPI  C31422237   0.027   6.755   4.088
  192SAPI  H14X22238   0.113   6.821   4.111
  192SAPI  H14Y22239   0.035   6.661   4.145
  192SAPI  C31522240   6.743   6.834   4.128
  192SAPI  H15X22241   6.660   6.810   4.059
  192SAPI  H15Y22242   6.776   0.099   4.135
  192SAPI  C31622243   6.700   6.790   4.272
  192SAPI  H16X22244   6.625   0.024   4.307
  192SAPI  H16Y22245   6.788   6.794   4.339
  192SAPI  C31722246   6.609   6.665   4.273
  192SAPI  H17X22247   6.674   6.589   4.224
  192SAPI  H17Y22248   6.519   6.685   4.211
  192SAPI  C31822249   6.578   6.612   4.415
  192SAPI  H18X22250   6.535   6.698   4.471
  192SAPI  H18Y22251   6.660   6.557   4.467
  192SAPI  H18Z22252   6.502   6.533   4.402
  193SOD    SOD22253   3.877   4.933   1.574
  194SOD    SOD22254   3.901   4.257   8.263
  195SOD    SOD22255   0.717   3.946   7.789
  196SOD    SOD22256   4.067   1.985   2.395
  197SOD    SOD22257   2.766   0.655   6.386
  198SOD    SOD22258   0.034   0.226   7.917
  199SOD    SOD22259   1.233   6.220   7.145
  200SOD    SOD22260   3.862   1.059   1.529
  201SOD    SOD22261   1.167   0.110   0.086
  202SOD    SOD22262   3.591   4.870   1.868
  203SOD    SOD22263   4.797   5.316   8.114
  204SOD    SOD22264   2.524   1.046   1.383
  205SOD    SOD22265   4.056   3.301   6.910
  206SOD    SOD22266   2.241   2.768   1.304
  207SOD    SOD22267   5.293   2.622   1.548
  208SOD    SOD22268   3.744   0.346   6.536
  209SOD    SOD22269   5.348   3.983   1.029
  210SOD    SOD22270   0.155   2.361   8.677
  211SOD    SOD22271   0.040   5.546   8.265
  212SOD    SOD22272   6.454   6.153   2.106
  213SOD    SOD22273   3.579   1.618   0.183
  214SOD    SOD22274   2.869   1.422   0.813
  215SOD    SOD22275   4.754   4.852   2.235
  216SOD    SOD22276   4.324   4.434   0.012
  217SOD    SOD22277   2.242   6.412   2.182
  218SOD    SOD22278   0.738   2.727   7.832
  219SOD    SOD22279   4.095   3.777   6.512
  220SOD    SOD22280   1.345   4.669   6.656
  221SOD    SOD22281   5.785   6.154   7.761
  222SOD    SOD22282   0.887   3.696   1.344
  223SOD    SOD22283   4.562   6.529   2.064
  224SOD    SOD22284   6.300   0.118   7.061
  225SOD    SOD22285   5.963   6.596   6.445
  226SOD    SOD22286   0.689   6.099   1.462
  227SOD    SOD22287   4.864   2.371   7.156
  228SOD    SOD22288   1.646   2.368   1.237
  229SOD    SOD22289   6.316   1.666   7.283
  230SOD    SOD22290   4.447   0.377   7.631
  231SOD    SOD22291   0.500   4.677   8.087
  232SOD    SOD22292   1.191   6.508   1.582
  233SOD    SOD22293   2.645   1.931   2.153
  234CLA    CLA22294   2.916   4.208   8.028
  235CLA    CLA22295   2.710   0.489   1.406
  236CLA    CLA22296   3.556   4.511   0.613
  237CLA    CLA22297   0.580   3.082   1.483
  238CLA    CLA22298   0.397   2.884   8.224
  239CLA    CLA22299   2.825   1.904   1.010
  240CLA    CLA22300   1.394   4.686   1.339
  241CLA    CLA22301   1.504   5.748   8.533
  242CLA    CLA22302   5.216   5.306   8.483
  243CLA    CLA22303   5.534   0.114   7.747
  244CLA    CLA22304   4.940   6.292   1.620
  245CLA    CLA22305   2.163   3.821   1.220
  246CLA    CLA22306   4.713   1.299   0.870
  247CLA    CLA22307   6.840   5.233   7.498
  248CLA    CLA22308   0.963   6.364   1.197
  249CLA    CLA22309   1.800   3.482   0.220
  250CLA    CLA22310   4.542   5.343   8.208
  251TIP3   OH222311   5.698   6.129   8.604
  251TIP3    H122312   5.773   6.160   8.655
  251TIP3    H222313   5.722   6.041   8.577
  252TIP3   OH222314   2.271   2.089   8.044
  252TIP3    H122315   2.220   2.126   7.972
  252TIP3    H222316   2.253   2.147   8.118
  253TIP3   OH222317   1.234   2.127   7.821
  253TIP3    H122318   1.322   2.156   7.846
  253TIP3    H222319   1.196   2.202   7.774
  254TIP3   OH222320   5.745   0.971   7.392
  254TIP3    H122321   5.736   0.945   7.301
  254TIP3    H222322   5.724   1.065   7.392
  255TIP3   OH222323   1.062   1.224   7.420
  255TIP3    H122324   1.010   1.148   7.395
  255TIP3    H222325   1.050   1.231   7.515
  256TIP3   OH222326   2.763   5.927   1.481
  256TIP3    H122327   2.796   5.837   1.474
  256TIP3    H222328   2.704   5.926   1.555
  257TIP3   OH222329   1.678   0.663   6.309
  257TIP3    H122330   1.613   0.725   6.343
  257TIP3    H222331   1.724   0.712   6.241
  258TIP3   OH222332   6.649   1.327   0.885
  258TIP3    H122333   6.674   1.318   0.977
  258TIP3    H222334   6.554   1.320   0.886
  259TIP3   OH222335   3.819   4.718   6.897
  259TIP3    H122336   3.730   4.755   6.898
  259TIP3    H222337   3.867   4.774   6.836
  260TIP3   OH222338   4.253   0.191   7.212
  260TIP3    H122339   4.186   0.174   7.145
  260TIP3    H222340   4.319   0.123   7.197
  261TIP3   OH222341   2.409   6.775   7.438
  261TIP3    H122342   2.338   6.732   7.389
  261TIP3    H222343   2.379   6.772   7.529
  262TIP3   OH222344   0.578   4.736   8.495
  262TIP3    H122345   0.632   4.658   8.510
  262TIP3    H222346   0.640   4.803   8.466
  263TIP3   OH222347   4.505   3.343   6.143
  263TIP3    H122348   4.545   3.266   6.101
  263TIP3    H222349   4.529   3.415   6.085
  264TIP3   OH222350   1.846   0.605   1.197
  264TIP3    H122351   1.777   0.665   1.226
  264TIP3    H222352   1.868   0.635   1.109
  265TIP3   OH222353   0.790   2.234   1.294
  265TIP3    H122354   0.803   2.289   1.371
  265TIP3    H222355   0.701   2.252   1.266
  266TIP3   OH222356   6.257   2.607   1.901
  266TIP3    H122357   6.207   2.560   1.968
  266TIP3    H222358   6.318   2.661   1.951
  267TIP3   OH222359   3.787   0.310   7.263
  267TIP3    H122360   3.792   0.242   7.196
  267TIP3    H222361   3.836   0.275   7.337
  268TIP3   OH222362   5.399   0.119   7.444
  268TIP3    H122363   5.436   0.086   7.525
  268TIP3    H222364   5.358   0.202   7.468
  269TIP3   OH222365   0.821   6.234   0.213
  269TIP3    H122366   0.767   6.167   0.255
  269TIP3    H222367   0.897   6.186   0.181
  270TIP3   OH222368   6.351   0.986   7.788
  270TIP3    H122369   6.437   1.028   7.794
  270TIP3    H222370   6.297   1.051   7.744
  271TIP3   OH222371   0.140   2.027   1.047
  271TIP3    H122372   0.127   2.122   1.046
  271TIP3    H222373   0.183   2.007   0.964
  272TIP3   OH222374   4.866   3.272   1.634
  272TIP3    H122375   4.956   3.244   1.655
  272TIP3    H222376   4.844   3.225   1.554
  273TIP3   OH222377   2.398   0.207   7.717
  273TIP3    H122378   2.408   0.176   7.807
  273TIP3    H222379   2.346   0.140   7.673
  274TIP3   OH222380   5.664   0.779   7.571
  274TIP3    H122381   5.584   0.828   7.590
  274TIP3    H222382   5.705   0.827   7.499
  275TIP3   OH222383   1.509   4.697   0.239
  275TIP3    H122384   1.468   4.729   0.319
  275TIP3    H222385   1.494   4.766   0.174
  276TIP3   OH222386   0.798   5.922   6.878
  276TIP3    H122387   0.872   5.864   6.859
  276TIP3    H222388   0.819   6.003   6.830
  277TIP3   OH222389   5.516   1.261   7.249
  277TIP3    H122390   5.498   1.354   7.237
  277TIP3    H222391   5.499   1.222   7.163
  278TIP3   OH222392   1.978   6.115   8.572
  278TIP3    H122393   1.907   6.098   8.510
  278TIP3    H222394   1.947   6.187   8.626
  279TIP3   OH222395   5.982   1.486   0.216
  279TIP3    H122396   5.948   1.563   0.260
  279TIP3    H222397   6.015   1.430   0.287
  280TIP3   OH222398   6.433   5.684   0.681
  280TIP3    H122399   6.416   5.590   0.677
  280TIP3    H222400   6.434   5.712   0.589
  281TIP3   OH222401   6.427   2.171   6.413
  281TIP3    H122402   6.446   2.246   6.357
  281TIP3    H222403   6.408   2.209   6.499
  282TIP3   OH222404   4.452   2.341   1.024
  282TIP3    H122405   4.531   2.305   1.064
  282TIP3    H222406   4.480   2.424   0.986
  283TIP3   OH222407   5.687   3.062   6.461
  283TIP3    H122408   5.609   3.043   6.409
  283TIP3    H222409   5.712   3.151   6.435
  284TIP3   OH222410   0.874   5.494   0.847
  284TIP3    H122411   0.897   5.538   0.929
  284TIP3    H222412   0.823   5.560   0.799
  285TIP3   OH222413   1.294   0.581   0.408
  285TIP3    H122414   1.215   0.534   0.382
  285TIP3    H222415   1.314   0.548   0.496
  286TIP3   OH222416   2.348   4.893   0.631
  286TIP3    H122417   2.305   4.966   0.675
  286TIP3    H222418   2.393   4.933   0.556
  287TIP3   OH222419   0.463   3.148   8.654
  287TIP3    H122420   0.384   3.202   8.662
  287TIP3    H222421   0.509   3.160   0.002
  288TIP3   OH222422   6.832   0.740   7.254
  288TIP3    H122423   6.818   0.829   7.221
  288TIP3    H222424   6.801   0.683   7.183
  289TIP3   OH222425   3.710   0.935   2.326
  289TIP3    H122426   3.734   0.972   2.411
  289TIP3    H222427   3.783   0.957   2.269
  290TIP3   OH222428   0.866   0.916   6.973
  290TIP3    H122429   0.885   0.917   6.879
  290TIP3    H222430   0.772   0.938   6.978
  291TIP3   OH222431   3.117   4.492   6.541
  291TIP3    H122432   3.197   4.520   6.496
  291TIP3    H222433   3.047   4.506   6.477
  292TIP3   OH222434   1.203   1.355   0.955
  292TIP3    H122435   1.135   1.301   0.995
  292TIP3    H222436   1.278   1.296   0.948
  293TIP3   OH222437   0.204   0.656   7.804
  293TIP3    H122438   0.276   0.696   7.755
  293TIP3    H222439   0.125   0.684   7.758
  294TIP3   OH222440   0.512   3.405   0.626
  294TIP3    H122441   0.425   3.436   0.602
  294TIP3    H222442   0.498   3.355   0.707
  295TIP3   OH222443   0.009   1.994   8.491
  295TIP3    H122444   6.810   1.939   8.558
  295TIP3    H222445   6.785   1.996   8.420
  296TIP3   OH222446   0.250   5.889   7.395
  296TIP3    H122447   0.319   5.854   7.338
  296TIP3    H222448   0.288   5.969   7.432
  297TIP3   OH222449   4.705   1.431   8.078
  297TIP3    H122450   4.790   1.415   8.038
  297TIP3    H222451   4.695   1.526   8.078
  298TIP3   OH222452   1.508   4.792   7.236
  298TIP3    H122453   1.535   4.865   7.179
  298TIP3    H222454   1.457   4.833   7.305
  299TIP3   OH222455   5.418   0.090   1.459
  299TIP3    H122456   5.377   0.084   1.545
  299TIP3    H222457   5.375   0.164   1.417
  300TIP3   OH222458   1.533   4.451   8.378
  300TIP3    H122459   1.484   4.370   8.362
  300TIP3    H222460   1.582   4.467   8.297
  301TIP3   OH222461   4.241   4.524   6.984
  301TIP3    H122462   4.228   4.562   6.897
  301TIP3    H222463   4.316   4.465   6.973
  302TIP3   OH222464   2.684   3.953   0.279
  302TIP3    H122465   2.625   3.984   0.348
  302TIP3    H222466   2.652   3.866   0.257
  303TIP3   OH222467   2.835   2.722   2.116
  303TIP3    H122468   2.818   2.751   2.206
  303TIP3    H222469   2.901   2.654   2.126
  304TIP3   OH222470   2.071   2.984   0.977
  304TIP3    H122471   2.028   3.035   0.909
  304TIP3    H222472   2.025   2.900   0.978
  305TIP3   OH222473   5.254   1.452   1.421
  305TIP3    H122474   5.295   1.377   1.378
  305TIP3    H222475   5.185   1.479   1.361
  306TIP3   OH222476   1.078   6.050   2.227
  306TIP3    H122477   1.053   6.127   2.278
  306TIP3    H222478   1.174   6.049   2.230
  307TIP3   OH222479   3.752   5.914   7.137
  307TIP3    H122480   3.691   5.883   7.070
  307TIP3    H222481   3.791   5.993   7.099
  308TIP3   OH222482   5.344   4.946   0.732
  308TIP3    H122483   5.423   4.961   0.782
  308TIP3    H222484   5.281   5.010   0.764
  309TIP3   OH222485   0.768   4.294   1.348
  309TIP3    H122486   0.818   4.275   1.427
  309TIP3    H222487   0.764   4.389   1.344
  310TIP3   OH222488   2.927   1.332   0.611
  310TIP3    H122489   2.840   1.335   0.571
  310TIP3    H222490   2.979   1.275   0.554
  311TIP3   OH222491   0.034   2.011   7.875
  311TIP3    H122492   6.836   1.936   7.830
  311TIP3    H222493   0.119   2.023   7.833
  312TIP3   OH222494   1.981   4.048   0.866
  312TIP3    H122495   1.910   4.057   0.930
  312TIP3    H222496   1.943   3.992   0.798
  313TIP3   OH222497   5.265   5.961   1.629
  313TIP3    H122498   5.251   5.882   1.682
  313TIP3    H222499   5.334   5.938   1.568
  314TIP3   OH222500   2.191   6.388   8.589
  314TIP3    H122501   2.241   6.324   8.538
  314TIP3    H222502   2.225   6.379   8.678
  315TIP3   OH222503   2.698   5.568   1.744
  315TIP3    H122504   2.670   5.659   1.737
  315TIP3    H222505   2.777   5.563   1.691
  316TIP3   OH222506   2.484   0.078   0.939
  316TIP3    H122507   2.396   0.042   0.930
  316TIP3    H222508   2.504   0.116   0.854
  317TIP3   OH222509   1.636   0.060   0.814
  317TIP3    H122510   1.661   6.818   0.855
  317TIP3    H222511   1.561   0.091   0.865
  318TIP3   OH222512   0.954   0.085   2.164
  318TIP3    H122513   1.008   0.007   2.171
  318TIP3    H222514   0.934   0.092   2.071
  319TIP3   OH222515   4.555   3.783   6.605
  319TIP3    H122516   4.562   3.878   6.593
  319TIP3    H222517   4.644   3.750   6.592
  320TIP3   OH222518   5.955   6.746   1.026
  320TIP3    H122519   5.997   6.676   0.975
  320TIP3    H222520   5.872   6.709   1.054
  321TIP3   OH222521   4.381   5.990   7.763
  321TIP3    H122522   4.360   5.920   7.700
  321TIP3    H222523   4.447   5.951   7.820
  322TIP3   OH222524   3.262   3.238   6.272
  322TIP3    H122525   3.209   3.178   6.220
  322TIP3    H222526   3.204   3.268   6.341
  323TIP3   OH222527   1.785   3.575   1.452
  323TIP3    H122528   1.692   3.569   1.475
  323TIP3    H222529   1.794   3.660   1.409
  324TIP3   OH222530   0.568   2.382   8.045
  324TIP3    H122531   0.476   2.381   8.018
  324TIP3    H222532   0.570   2.436   8.124
  325TIP3   OH222533   3.734   6.415   8.437
  325TIP3    H122534   3.813   6.459   8.469
  325TIP3    H222535   3.748   6.323   8.459
  326TIP3   OH222536   1.258   3.229   6.357
  326TIP3    H122537   1.319   3.286   6.403
  326TIP3    H222538   1.197   3.200   6.425
  327TIP3   OH222539   3.302   6.623   7.643
  327TIP3    H122540   3.398   6.620   7.637
  327TIP3    H222541   3.274   6.663   7.561
  328TIP3   OH222542   5.860   4.886   1.202
  328TIP3    H122543   5.788   4.837   1.163
  328TIP3    H222544   5.817   4.959   1.247
  329TIP3   OH222545   0.859   1.944   6.777
  329TIP3    H122546   0.894   1.870   6.826
  329TIP3    H222547   0.934   2.001   6.762
  330TIP3   OH222548   4.496   1.523   0.074
  330TIP3    H122549   4.577   1.571   0.086
  330TIP3    H222550   4.502   1.449   0.135
  331TIP3   OH222551   0.248   0.183   1.753
  331TIP3    H122552   0.160   0.170   1.787
  331TIP3    H222553   0.302   0.121   1.802
  332TIP3   OH222554   3.195   3.998   6.683
  332TIP3    H122555   3.177   4.050   6.605
  332TIP3    H222556   3.134   4.030   6.749
  333TIP3   OH222557   0.260   1.745   2.064
  333TIP3    H122558   0.203   1.710   1.996
  333TIP3    H222559   0.333   1.682   2.069
  334TIP3   OH222560   4.037   6.645   7.682
  334TIP3    H122561   4.025   6.552   7.701
  334TIP3    H222562   3.989   6.690   7.751
  335TIP3   OH222563   4.357   5.657   8.163
  335TIP3    H122564   4.408   5.577   8.178
  335TIP3    H222565   4.268   5.625   8.149
  336TIP3   OH222566   4.846   3.236   1.034
  336TIP3    H122567   4.894   3.158   1.062
  336TIP3    H222568   4.797   3.263   1.111
  337TIP3   OH222569   1.618   0.692   1.328
  337TIP3    H122570   1.584   0.710   1.240
  337TIP3    H222571   1.596   0.771   1.378
  338TIP3   OH222572   3.620   0.551   7.077
  338TIP3    H122573   3.636   0.456   7.074
  338TIP3    H222574   3.621   0.578   6.986
  339TIP3   OH222575   5.879   6.596   7.997
  339TIP3    H122576   5.932   6.644   8.061
  339TIP3    H222577   5.943   6.557   7.937
  340TIP3   OH222578   1.001   2.107   0.363
  340TIP3    H122579   1.053   2.187   0.359
  340TIP3    H222580   1.055   2.045   0.412
  341TIP3   OH222581   0.272   6.206   6.989
  341TIP3    H122582   0.302   6.288   6.951
  341TIP3    H222583   0.198   6.179   6.935
  342TIP3   OH222584   6.137   2.056   6.808
  342TIP3    H122585   6.169   2.039   6.719
  342TIP3    H222586   6.185   1.993   6.862
  343TIP3   OH222587   0.488   2.061   1.290
  343TIP3    H122588   0.442   2.121   1.232
  343TIP3    H222589   0.459   2.087   1.378
  344TIP3   OH222590   1.301   2.802   8.291
  344TIP3    H122591   1.345   2.873   8.337
  344TIP3    H222592   1.241   2.765   8.356
  345TIP3   OH222593   0.129   5.324   0.709
  345TIP3    H122594   0.098   5.235   0.730
  345TIP3    H222595   0.168   5.316   0.622
  346TIP3   OH222596   4.206   3.500   0.003
  346TIP3    H122597   4.233   3.412   0.026
  346TIP3    H222598   4.111   3.500   0.017
  347TIP3   OH222599   0.714   4.027   1.009
  347TIP3    H122600   0.758   4.073   1.081
  347TIP3    H222601   0.710   4.091   0.938
  348TIP3   OH222602   2.278   1.214   7.797
  348TIP3    H122603   2.207   1.254   7.748
  348TIP3    H222604   2.354   1.270   7.779
  349TIP3   OH222605   5.456   2.137   2.006
  349TIP3    H122606   5.503   2.056   2.029
  349TIP3    H222607   5.449   2.185   2.089
  350TIP3   OH222608   6.155   2.371   7.102
  350TIP3    H122609   6.110   2.452   7.127
  350TIP3    H222610   6.084   2.308   7.087
  351TIP3   OH222611   2.449   3.073   0.588
  351TIP3    H122612   2.365   3.033   0.565
  351TIP3    H222613   2.426   3.153   0.634
  352TIP3   OH222614   2.452   0.039   6.578
  352TIP3    H122615   2.495   6.797   6.601
  352TIP3    H222616   2.360   0.025   6.597
  353TIP3   OH222617   5.657   4.615   8.065
  353TIP3    H122618   5.652   4.658   7.980
  353TIP3    H222619   5.746   4.633   8.096
  354TIP3   OH222620   4.506   0.844   7.936
  354TIP3    H122621   4.514   0.939   7.949
  354TIP3    H222622   4.594   0.816   7.908
  355TIP3   OH222623   0.009   4.918   0.293
  355TIP3    H122624   6.816   4.975   0.223
  355TIP3    H222625   6.800   4.837   0.285
  356TIP3   OH222626   1.389   1.059   2.528
  356TIP3    H122627   1.441   1.029   2.453
  356TIP3    H222628   1.391   1.154   2.522
  357TIP3   OH222629   1.970   6.067   7.622
  357TIP3    H122630   2.053   6.083   7.666
  357TIP3    H222631   1.962   5.971   7.621
  358TIP3   OH222632   4.752   6.343   8.002
  358TIP3    H122633   4.771   6.249   7.999
  358TIP3    H222634   4.683   6.356   7.936
  359TIP3   OH222635   0.913   1.873   0.802
  359TIP3    H122636   0.868   1.936   0.858
  359TIP3    H222637   0.970   1.824   0.862
  360TIP3   OH222638   3.708   3.848   6.638
  360TIP3    H122639   3.665   3.870   6.555
  360TIP3    H222640   3.707   3.930   6.687
  361TIP3   OH222641   2.948   4.366   0.988
  361TIP3    H122642   2.964   4.304   0.917
  361TIP3    H222643   2.922   4.312   1.062
  362TIP3   OH222644   3.735   6.805   7.306
  362TIP3    H122645   3.715   0.014   7.385
  362TIP3    H222646   3.770   6.722   7.338
  363TIP3   OH222647   6.718   4.962   7.469
  363TIP3    H122648   6.800   4.919   7.449
  363TIP3    H222649   6.739   5.056   7.467
  364TIP3   OH222650   1.356   3.972   7.160
  364TIP3    H122651   1.374   4.050   7.108
  364TIP3    H222652   1.409   3.903   7.120
  365TIP3   OH222653   4.610   1.176   1.808
  365TIP3    H122654   4.666   1.246   1.776
  365TIP3    H222655   4.654   1.095   1.779
  366TIP3   OH222656   4.439   3.413   0.281
  366TIP3    H122657   4.366   3.471   0.259
  366TIP3    H222658   4.421   3.385   0.371
  367TIP3   OH222659   0.270   6.737   0.569
  367TIP3    H122660   0.328   6.788   0.625
  367TIP3    H222661   0.257   6.655   0.617
  368TIP3   OH222662   2.364   5.529   0.012
  368TIP3    H122663   2.332   5.498   8.662
  368TIP3    H222664   2.298   5.594   0.040
  369TIP3   OH222665   6.766   2.981   0.826
  369TIP3    H122666   6.841   3.037   0.847
  369TIP3    H222667   6.693   3.018   0.876
  370TIP3   OH222668   5.025   6.419   7.287
  370TIP3    H122669   5.055   6.509   7.273
  370TIP3    H222670   5.066   6.393   7.369
  371TIP3   OH222671   3.795   3.221   1.432
  371TIP3    H122672   3.736   3.212   1.507
  371TIP3    H222673   3.878   3.250   1.469
  372TIP3   OH222674   1.226   3.336   8.161
  372TIP3    H122675   1.302   3.333   8.219
  372TIP3    H222676   1.165   3.396   8.204
  373TIP3   OH222677   4.481   4.136   0.585
  373TIP3    H122678   4.410   4.079   0.613
  373TIP3    H222679   4.561   4.087   0.605
  374TIP3   OH222680   5.159   3.355   7.539
  374TIP3    H122681   5.215   3.279   7.524
  374TIP3    H222682   5.174   3.378   7.631
  375TIP3   OH222683   0.188   0.209   8.318
  375TIP3    H122684   0.270   0.253   8.294
  375TIP3    H222685   0.133   0.279   8.354
  376TIP3   OH222686   3.684   3.390   2.006
  376TIP3    H122687   3.758   3.383   2.066
  376TIP3    H222688   3.723   3.423   1.925
  377TIP3   OH222689   1.658   4.372   1.565
  377TIP3    H122690   1.697   4.313   1.630
  377TIP3    H222691   1.637   4.451   1.614
  378TIP3   OH222692   4.107   2.361   8.118
  378TIP3    H122693   4.149   2.307   8.051
  378TIP3    H222694   4.014   2.354   8.099
  379TIP3   OH222695   0.889   4.717   0.258
  379TIP3    H122696   0.979   4.739   0.282
  379TIP3    H222697   0.872   4.633   0.301
  380TIP3   OH222698   6.568   5.096   0.082
  380TIP3    H122699   6.647   5.109   0.135
  380TIP3    H222700   6.519   5.178   0.093
  381TIP3   OH222701   1.357   6.240   0.205
  381TIP3    H122702   1.451   6.252   0.208
  381TIP3    H222703   1.340   6.166   0.264
  382TIP3   OH222704   1.180   2.911   0.891
  382TIP3    H122705   1.151   2.997   0.859
  382TIP3    H222706   1.159   2.851   0.820
  383TIP3   OH222707   6.760   4.339   0.285
  383TIP3    H122708   6.721   4.263   0.328
  383TIP3    H222709   6.754   4.409   0.350
  384TIP3   OH222710   6.781   1.509   8.226
  384TIP3    H122711   6.819   1.594   8.249
  384TIP3    H222712   6.746   1.521   8.138
  385TIP3   OH222713   0.729   0.143   7.903
  385TIP3    H122714   0.761   0.180   7.821
  385TIP3    H222715   0.741   0.214   7.967
  386TIP3   OH222716   3.978   0.792   0.467
  386TIP3    H122717   3.955   0.715   0.518
  386TIP3    H222718   3.979   0.864   0.530
  387TIP3   OH222719   5.976   0.409   0.197
  387TIP3    H122720   5.932   0.429   0.279
  387TIP3    H222721   5.934   0.466   0.133
  388TIP3   OH222722   3.990   5.185   0.956
  388TIP3    H122723   4.003   5.186   1.051
  388TIP3    H222724   4.078   5.178   0.920
  389TIP3   OH222725   5.228   6.829   0.710
  389TIP3    H122726   5.296   0.026   0.766
  389TIP3    H222727   5.161   0.057   0.705
  390TIP3   OH222728   4.166   0.146   8.462
  390TIP3    H122729   4.215   0.206   8.518
  390TIP3    H222730   4.083   0.132   8.509
  391TIP3   OH222731   5.033   0.988   7.847
  391TIP3    H122732   5.082   0.954   7.772
  391TIP3    H222733   5.088   0.967   7.923
  392TIP3   OH222734   1.693   3.489   6.541
  392TIP3    H122735   1.744   3.538   6.477
  392TIP3    H222736   1.754   3.474   6.614
  393TIP3   OH222737   5.549   6.447   0.067
  393TIP3    H122738   5.535   6.515   0.134
  393TIP3    H222739   5.601   6.380   0.111
  394TIP3   OH222740   2.489   0.331   1.060
  394TIP3    H122741   2.496   0.246   1.016
  394TIP3    H222742   2.572   0.341   1.107
  395TIP3   OH222743   2.587   3.854   7.179
  395TIP3    H122744   2.561   3.943   7.203
  395TIP3    H222745   2.520   3.824   7.119
  396TIP3   OH222746   3.934   6.064   1.563
  396TIP3    H122747   3.942   6.089   1.655
  396TIP3    H222748   3.987   5.985   1.556
  397TIP3   OH222749   5.232   1.376   0.877
  397TIP3    H122750   5.182   1.426   0.942
  397TIP3    H222751   5.173   1.306   0.851
  398TIP3   OH222752   2.015   4.273   1.416
  398TIP3    H122753   2.084   4.220   1.379
  398TIP3    H222754   1.980   4.221   1.488
  399TIP3   OH222755   3.847   4.257   1.381
  399TIP3    H122756   3.906   4.272   1.455
  399TIP3    H222757   3.892   4.296   1.306
  400TIP3   OH222758   1.292   1.920   7.224
  400TIP3    H122759   1.383   1.927   7.252
  400TIP3    H222760   1.255   2.006   7.240
  401TIP3   OH222761   6.170   6.379   7.170
  401TIP3    H122762   6.240   6.410   7.228
  401TIP3    H222763   6.098   6.355   7.229
  402TIP3   OH222764   0.071   3.170   1.300
  402TIP3    H122765   0.023   3.182   1.218
  402TIP3    H222766   0.095   3.258   1.327
  403TIP3   OH222767   5.854   6.316   6.748
  403TIP3    H122768   5.827   6.228   6.721
  403TIP3    H222769   5.824   6.323   6.839
  404TIP3   OH222770   2.990   5.704   8.624
  404TIP3    H122771   3.002   5.634   8.689
  404TIP3    H222772   2.924   5.761   8.663
  405TIP3   OH222773   1.722   1.315   1.495
  405TIP3    H122774   1.678   1.356   1.421
  405TIP3    H222775   1.674   1.233   1.509
  406TIP3   OH222776   1.115   6.021   7.043
  406TIP3    H122777   1.159   5.972   6.974
  406TIP3    H222778   1.083   5.954   7.103
  407TIP3   OH222779   0.790   6.141   1.683
  407TIP3    H122780   0.797   6.080   1.756
  407TIP3    H222781   0.752   6.220   1.721
  408TIP3   OH222782   3.875   2.737   1.477
  408TIP3    H122783   3.906   2.819   1.437
  408TIP3    H222784   3.791   2.721   1.435
  409TIP3   OH222785   4.442   0.179   8.133
  409TIP3    H122786   4.419   0.109   8.194
  409TIP3    H222787   4.513   0.226   8.177
  410TIP3   OH222788   3.432   4.163   0.995
  410TIP3    H122789   3.393   4.240   1.036
  410TIP3    H222790   3.523   4.189   0.980
  411TIP3   OH222791   4.749   2.328   7.804
  411TIP3    H122792   4.703   2.288   7.877
  411TIP3    H222793   4.835   2.284   7.803
  412TIP3   OH222794   6.449   1.457   1.368
  412TIP3    H122795   6.501   1.460   1.288
  412TIP3    H222796   6.505   1.413   1.432
  413TIP3   OH222797   1.868   0.783   1.767
  413TIP3    H122798   1.836   0.722   1.701
  413TIP3    H222799   1.789   0.824   1.801
  414TIP3   OH222800   6.406   2.783   1.653
  414TIP3    H122801   6.336   2.741   1.704
  414TIP3    H222802   6.484   2.775   1.708
  415TIP3   OH222803   3.013   6.790   0.318
  415TIP3    H122804   2.962   6.780   0.399
  415TIP3    H222805   3.018   6.702   0.281
  416TIP3   OH222806   3.590   1.708   7.377
  416TIP3    H122807   3.664   1.647   7.386
  416TIP3    H222808   3.538   1.671   7.306
  417TIP3   OH222809   0.443   0.317   7.955
  417TIP3    H122810   0.348   0.304   7.953
  417TIP3    H222811   0.477   0.256   7.889
  418TIP3   OH222812   3.571   2.607   7.850
  418TIP3    H122813   3.488   2.650   7.871
  418TIP3    H222814   3.638   2.666   7.886
  419TIP3   OH222815   0.711   2.327   7.649
  419TIP3    H122816   0.670   2.246   7.617
  419TIP3    H222817   0.670   2.397   7.599
  420TIP3   OH222818   1.187   0.330   0.468
  420TIP3    H122819   1.115   0.273   0.494
  420TIP3    H222820   1.265   0.293   0.510
  421TIP3   OH222821   0.239   0.624   8.224
  421TIP3    H122822   0.183   0.702   8.226
  421TIP3    H222823   0.298   0.635   8.298
  422TIP3   OH222824   0.448   4.908   1.675
  422TIP3    H122825   0.453   4.914   1.771
  422TIP3    H222826   0.538   4.922   1.646
  423TIP3   OH222827   0.225   1.718   6.911
  423TIP3    H122828   0.308   1.671   6.919
  423TIP3    H222829   0.192   1.692   6.825
  424TIP3   OH222830   6.561   6.652   2.236
  424TIP3    H122831   6.518   6.657   2.322
  424TIP3    H222832   6.492   6.626   2.176
  425TIP3   OH222833   2.591   1.255   8.541
  425TIP3    H122834   2.645   1.334   8.549
  425TIP3    H222835   2.654   1.183   8.543
  426TIP3   OH222836   1.919   2.568   6.977
  426TIP3    H122837   1.991   2.583   6.915
  426TIP3    H222838   1.843   2.551   6.922
  427TIP3   OH222839   1.381   2.050   6.553
  427TIP3    H122840   1.289   2.029   6.534
  427TIP3    H222841   1.430   1.972   6.528
  428TIP3   OH222842   1.398   5.062   7.724
  428TIP3    H122843   1.322   5.010   7.749
  428TIP3    H222844   1.394   5.138   7.781
  429TIP3   OH222845   0.808   0.808   7.217
  429TIP3    H122846   0.825   0.834   7.127
  429TIP3    H222847   0.848   0.722   7.225
  430TIP3   OH222848   1.084   4.771   0.669
  430TIP3    H122849   1.077   4.691   0.617
  430TIP3    H222850   1.176   4.796   0.661
  431TIP3   OH222851   0.455   2.866   0.860
  431TIP3    H122852   0.461   2.918   0.939
  431TIP3    H222853   0.456   2.930   0.789
  432TIP3   OH222854   2.318   6.748   8.593
  432TIP3    H122855   2.264   6.816   8.553
  432TIP3    H222856   2.345   6.785   8.677
  433TIP3   OH222857   6.734   1.569   6.351
  433TIP3    H122858   6.749   1.475   6.350
  433TIP3    H222859   6.818   1.608   6.327
  434TIP3   OH222860   0.338   1.782   7.762
  434TIP3    H122861   0.392   1.853   7.796
  434TIP3    H222862   0.285   1.754   7.837
  435TIP3   OH222863   5.592   1.106   0.782
  435TIP3    H122864   5.645   1.037   0.741
  435TIP3    H222865   5.503   1.090   0.751
  436TIP3   OH222866   3.805   3.108   7.687
  436TIP3    H122867   3.745   3.171   7.727
  436TIP3    H222868   3.854   3.072   7.761
  437TIP3   OH222869   2.353   0.965   8.673
  437TIP3    H122870   2.305   1.043   8.702
  437TIP3    H222871   2.419   0.951   0.007
  438TIP3   OH222872   1.644   1.452   8.491
  438TIP3    H122873   1.639   1.466   8.397
  438TIP3    H222874   1.555   1.429   8.518
  439TIP3   OH222875   3.434   3.321   6.627
  439TIP3    H122876   3.452   3.239   6.581
  439TIP3    H222877   3.338   3.328   6.628
  440TIP3   OH222878   6.591   6.259   7.951
  440TIP3    H122879   6.530   6.318   7.908
  440TIP3    H222880   6.647   6.227   7.880
  441TIP3   OH222881   5.674   1.945   8.083
  441TIP3    H122882   5.611   1.939   8.155
  441TIP3    H222883   5.726   2.022   8.103
  442TIP3   OH222884   5.411   4.513   7.370
  442TIP3    H122885   5.327   4.551   7.394
  442TIP3    H222886   5.448   4.573   7.305
  443TIP3   OH222887   5.773   1.240   7.440
  443TIP3    H122888   5.692   1.279   7.408
  443TIP3    H222889   5.838   1.311   7.434
  444TIP3   OH222890   4.136   4.980   6.380
  444TIP3    H122891   4.123   5.057   6.325
  444TIP3    H222892   4.200   4.927   6.333
  445TIP3   OH222893   2.914   3.711   0.137
  445TIP3    H122894   2.971   3.675   0.205
  445TIP3    H222895   2.945   3.672   0.056
  446TIP3   OH222896   2.433   2.542   0.306
  446TIP3    H122897   2.503   2.487   0.271
  446TIP3    H222898   2.401   2.495   0.383
  447TIP3   OH222899   6.130   6.167   1.699
  447TIP3    H122900   6.115   6.092   1.756
  447TIP3    H222901   6.094   6.241   1.747
  448TIP3   OH222902   0.943   3.973   7.767
  448TIP3    H122903   1.029   3.939   7.790
  448TIP3    H222904   0.955   4.018   7.684
  449TIP3   OH222905   0.163   3.319   7.729
  449TIP3    H122906   0.078   3.298   7.769
  449TIP3    H222907   0.220   3.247   7.755
  450TIP3   OH222908   3.380   4.491   2.034
  450TIP3    H122909   3.368   4.586   2.037
  450TIP3    H222910   3.292   4.456   2.019
  451TIP3   OH222911   0.010   1.745   0.495
  451TIP3    H122912   0.075   1.682   0.464
  451TIP3    H222913   0.023   1.747   0.590
  452TIP3   OH222914   6.635   1.945   7.452
  452TIP3    H122915   6.552   1.986   7.477
  452TIP3    H222916   6.638   1.953   7.356
  453TIP3   OH222917   0.845   6.454   2.304
  453TIP3    H122918   0.776   6.400   2.341
  453TIP3    H222919   0.805   6.494   2.226
  454TIP3   OH222920   1.178   2.097   0.894
  454TIP3    H122921   1.126   2.129   0.968
  454TIP3    H222922   1.211   2.176   0.852
  455TIP3   OH222923   5.209   5.928   0.421
  455TIP3    H122924   5.131   5.871   0.421
  455TIP3    H222925   5.262   5.895   0.348
  456TIP3   OH222926   1.179   3.945   6.950
  456TIP3    H122927   1.204   3.983   7.035
  456TIP3    H222928   1.219   4.004   6.885
  457TIP3   OH222929   0.441   1.303   8.109
  457TIP3    H122930   0.493   1.350   8.044
  457TIP3    H222931   0.441   1.213   8.078
  458TIP3   OH222932   0.450   4.499   1.222
  458TIP3    H122933   0.526   4.557   1.217
  458TIP3    H222934   0.474   4.423   1.169
  459TIP3   OH222935   0.759   3.670   1.537
  459TIP3    H122936   0.711   3.749   1.562
  459TIP3    H222937   0.701   3.598   1.561
  460TIP3   OH222938   1.399   4.787   0.788
  460TIP3    H122939   1.439   4.700   0.786
  460TIP3    H222940   1.473   4.847   0.787
  461TIP3   OH222941   0.067   1.909   7.060
  461TIP3    H122942   0.127   1.848   7.018
  461TIP3    H222943   0.113   1.993   7.061
  462TIP3   OH222944   4.084   5.613   8.130
  462TIP3    H122945   4.019   5.560   8.175
  462TIP3    H222946   4.051   5.702   8.135
  463TIP3   OH222947   1.586   4.329   6.594
  463TIP3    H122948   1.509   4.379   6.618
  463TIP3    H222949   1.648   4.394   6.560
  464TIP3   OH222950   3.691   1.176   0.667
  464TIP3    H122951   3.669   1.268   0.678
  464TIP3    H222952   3.608   1.130   0.679
  465TIP3   OH222953   0.521   3.489   7.812
  465TIP3    H122954   0.547   3.459   7.725
  465TIP3    H222955   0.446   3.435   7.835
  466TIP3   OH222956   6.105   0.812   8.553
  466TIP3    H122957   6.146   0.751   8.614
  466TIP3    H222958   6.170   0.881   8.541
  467TIP3   OH222959   0.738   0.867   0.633
  467TIP3    H122960   0.670   0.934   0.628
  467TIP3    H222961   0.695   0.786   0.607
  468TIP3   OH222962   3.837   0.717   6.961
  468TIP3    H122963   3.787   0.663   6.900
  468TIP3    H222964   3.885   0.653   7.015
  469TIP3   OH222965   4.075   0.956   1.119
  469TIP3    H122966   4.160   0.969   1.162
  469TIP3    H222967   4.010   0.983   1.185
  470TIP3   OH222968   1.941   3.600   8.338
  470TIP3    H122969   1.982   3.684   8.358
  470TIP3    H222970   1.909   3.610   8.248
  471TIP3   OH222971   4.090   3.121   8.205
  471TIP3    H122972   4.119   3.154   8.290
  471TIP3    H222973   4.058   3.032   8.224
  472TIP3   OH222974   0.690   6.434   8.271
  472TIP3    H122975   0.686   6.463   8.180
  472TIP3    H222976   0.605   6.461   8.308
  473TIP3   OH222977   0.488   3.304   6.715
  473TIP3    H122978   0.530   3.389   6.700
  473TIP3    H222979   0.454   3.278   6.630
  474TIP3   OH222980   3.286   0.509   6.598
  474TIP3    H122981   3.207   0.476   6.555
  474TIP3    H222982   3.261   0.522   6.689
  475TIP3   OH222983   3.033   4.974   7.547
  475TIP3    H122984   2.957   4.935   7.503
  475TIP3    H222985   3.108   4.926   7.512
  476TIP3   OH222986   4.775   6.781   6.844
  476TIP3    H122987   4.770   0.035   6.849
  476TIP3    H222988   4.685   6.751   6.859
  477TIP3   OH222989   4.784   6.028   8.147
  477TIP3    H122990   4.697   6.013   8.110
  477TIP3    H222991   4.840   5.964   8.104
  478TIP3   OH222992   6.455   2.802   7.179
  478TIP3    H122993   6.516   2.728   7.180
  478TIP3    H222994   6.370   2.763   7.201
  479TIP3   OH222995   4.499   0.177   6.974
  479TIP3    H122996   4.544   0.262   6.979
  479TIP3    H222997   4.448   0.182   6.893
  480TIP3   OH222998   0.834   4.500   0.430
  480TIP3    H122999   0.795   4.528   0.513
  480TIP3    H223000   0.805   4.410   0.420
  481TIP3   OH223001   4.335   5.075   6.633
  481TIP3    H123002   4.423   5.056   6.666
  481TIP3    H223003   4.290   4.990   6.636
  482TIP3   OH223004   5.807   3.252   8.479
  482TIP3    H123005   5.726   3.206   8.502
  482TIP3    H223006   5.784   3.345   8.483
  483TIP3   OH223007   1.662   3.865   1.228
  483TIP3    H123008   1.683   3.877   1.320
  483TIP3    H223009   1.747   3.865   1.184
  484TIP3   OH223010   2.041   1.509   0.266
  484TIP3    H123011   1.971   1.463   0.219
  484TIP3    H223012   2.067   1.579   0.207
  485TIP3   OH223013   6.462   2.337   7.977
  485TIP3    H123014   6.444   2.402   8.045
  485TIP3    H223015   6.475   2.389   7.897
  486TIP3   OH223016   3.970   0.219   1.585
  486TIP3    H123017   3.879   0.241   1.568
  486TIP3    H223018   3.971   0.188   1.675
  487TIP3   OH223019   2.124   3.571   7.000
  487TIP3    H123020   2.102   3.664   6.988
  487TIP3    H223021   2.065   3.525   6.941
  488TIP3   OH223022   6.305   1.993   0.599
  488TIP3    H123023   6.267   1.999   0.687
  488TIP3    H223024   6.300   2.083   0.565
  489TIP3   OH223025   3.721   3.506   6.305
  489TIP3    H123026   3.686   3.417   6.303
  489TIP3    H223027   3.644   3.562   6.294
  490TIP3   OH223028   3.325   2.820   7.913
  490TIP3    H123029   3.272   2.750   7.875
  490TIP3    H223030   3.263   2.890   7.932
  491TIP3   OH223031   3.560   4.501   8.478
  491TIP3    H123032   3.534   4.523   8.389
  491TIP3    H223033   3.505   4.555   8.534
  492TIP3   OH223034   4.316   6.139   0.899
  492TIP3    H123035   4.394   6.183   0.931
  492TIP3    H223036   4.243   6.188   0.939
  493TIP3   OH223037   5.848   0.595   2.114
  493TIP3    H123038   5.790   0.553   2.178
  493TIP3    H223039   5.870   0.679   2.153
  494TIP3   OH223040   6.464   1.986   8.628
  494TIP3    H123041   6.528   1.951   8.691
  494TIP3    H223042   6.506   2.064   8.592
  495TIP3   OH223043   4.619   5.863   7.102
  495TIP3    H123044   4.552   5.850   7.035
  495TIP3    H223045   4.625   5.958   7.113
  496TIP3   OH223046   1.685   1.738   8.019
  496TIP3    H123047   1.760   1.743   7.959
  496TIP3    H223048   1.617   1.791   7.977
  497TIP3   OH223049   1.182   0.007   0.290
  497TIP3    H123050   1.246   0.006   0.361
  497TIP3    H223051   1.134   6.766   0.300
  498TIP3   OH223052   4.901   2.231   1.541
  498TIP3    H123053   4.907   2.316   1.498
  498TIP3    H223054   4.915   2.250   1.634
  499TIP3   OH223055   6.327   6.087   1.517
  499TIP3    H123056   6.333   5.991   1.521
  499TIP3    H223057   6.238   6.106   1.545
  500TIP3   OH223058   0.384   0.857   8.516
  500TIP3    H123059   0.353   0.871   8.427
  500TIP3    H223060   0.408   0.944   8.548
  501TIP3   OH223061   3.368   5.852   2.101
  501TIP3    H123062   3.454   5.842   2.142
  501TIP3    H223063   3.308   5.808   2.160
  502TIP3   OH223064   0.993   2.713   8.516
  502TIP3    H123065   1.011   2.749   8.429
  502TIP3    H223066   0.901   2.688   8.513
  503TIP3   OH223067   5.822   1.450   8.235
  503TIP3    H123068   5.788   1.442   8.146
  503TIP3    H223069   5.776   1.525   8.272
  504TIP3   OH223070   2.251   5.348   7.447
  504TIP3    H123071   2.243   5.376   7.538
  504TIP3    H223072   2.162   5.328   7.419
  505TIP3   OH223073   0.025   6.151   7.648
  505TIP3    H123074   6.804   6.136   7.576
  505TIP3    H223075   0.013   6.244   7.670
  506TIP3   OH223076   2.216   6.785   7.640
  506TIP3    H123077   2.220   6.722   7.711
  506TIP3    H223078   2.122   6.800   7.626
  507TIP3   OH223079   2.273   1.672   0.850
  507TIP3    H123080   2.248   1.580   0.840
  507TIP3    H223081   2.353   1.680   0.798
  508TIP3   OH223082   6.472   3.428   0.916
  508TIP3    H123083   6.519   3.425   0.999
  508TIP3    H223084   6.486   3.516   0.883
  509TIP3   OH223085   5.336   2.847   7.139
  509TIP3    H123086   5.313   2.936   7.113
  509TIP3    H223087   5.283   2.830   7.217
  510TIP3   OH223088   6.390   1.583   1.072
  510TIP3    H123089   6.474   1.542   1.091
  510TIP3    H223090   6.412   1.659   1.019
  511TIP3   OH223091   3.754   5.891   8.703
  511TIP3    H123092   3.659   5.879   8.707
  511TIP3    H223093   3.790   5.805   8.726
  512TIP3   OH223094   2.667   2.848   1.689
  512TIP3    H123095   2.747   2.835   1.740
  512TIP3    H223096   2.678   2.792   1.613
  513TIP3   OH223097   1.571   1.141   8.216
  513TIP3    H123098   1.574   1.079   8.144
  513TIP3    H223099   1.624   1.215   8.187
  514TIP3   OH223100   3.486   4.854   6.537
  514TIP3    H123101   3.449   4.767   6.524
  514TIP3    H223102   3.419   4.915   6.505
  515TIP3   OH223103   3.160   1.215   1.272
  515TIP3    H123104   3.178   1.285   1.209
  515TIP3    H223105   3.076   1.240   1.312
  516TIP3   OH223106   4.319   6.078   0.153
  516TIP3    H123107   4.293   5.986   0.155
  516TIP3    H223108   4.380   6.088   0.226
  517TIP3   OH223109   1.448   0.144   1.002
  517TIP3    H123110   1.372   0.198   0.979
  517TIP3    H223111   1.412   0.056   1.011
  518TIP3   OH223112   4.297   5.918   8.313
  518TIP3    H123113   4.330   5.841   8.266
  518TIP3    H223114   4.290   5.889   8.404
  519TIP3   OH223115   0.178   3.208   0.393
  519TIP3    H123116   0.092   3.193   0.434
  519TIP3    H223117   0.240   3.203   0.466
  520TIP3   OH223118   6.057   0.087   7.839
  520TIP3    H123119   6.097   0.110   7.923
  520TIP3    H223120   5.966   0.114   7.848
  521TIP3   OH223121   1.634   6.686   7.347
  521TIP3    H123122   1.658   6.730   7.428
  521TIP3    H223123   1.639   6.593   7.368
  522TIP3   OH223124   0.641   6.642   6.107
  522TIP3    H123125   0.655   6.609   6.019
  522TIP3    H223126   0.662   6.568   6.164
  523TIP3   OH223127   6.094   3.622   7.513
  523TIP3    H123128   6.129   3.593   7.597
  523TIP3    H223129   6.151   3.695   7.487
  524TIP3   OH223130   6.493   0.247   0.720
  524TIP3    H123131   6.475   0.203   0.803
  524TIP3    H223132   6.427   0.213   0.660
  525TIP3   OH223133   4.090   2.630   8.476
  525TIP3    H123134   4.088   2.659   8.567
  525TIP3    H223135   4.029   2.557   8.473
  526TIP3   OH223136   5.909   1.345   8.696
  526TIP3    H123137   5.922   1.270   8.638
  526TIP3    H223138   5.913   1.307   0.050
  527TIP3   OH223139   3.438   3.120   1.739
  527TIP3    H123140   3.411   3.049   1.799
  527TIP3    H223141   3.372   3.118   1.669
  528TIP3   OH223142   3.386   4.733   1.861
  528TIP3    H123143   3.336   4.712   1.781
  528TIP3    H223144   3.325   4.785   1.914
  529TIP3   OH223145   3.962   4.096   0.444
  529TIP3    H123146   3.889   4.159   0.445
  529TIP3    H223147   3.969   4.066   0.534
  530TIP3   OH223148   2.730   2.003   7.982
  530TIP3    H123149   2.785   1.966   7.913
  530TIP3    H223150   2.753   1.952   8.060
  531TIP3   OH223151   1.725   5.612   7.449
  531TIP3    H123152   1.699   5.520   7.438
  531TIP3    H223153   1.678   5.659   7.380
  532TIP3   OH223154   3.205   5.712   8.435
  532TIP3    H123155   3.116   5.697   8.468
  532TIP3    H223156   3.210   5.658   8.355
  533TIP3   OH223157   5.085   6.759   7.618
  533TIP3    H123158   5.001   6.726   7.650
  533TIP3    H223159   5.107   6.701   7.545
  534TIP3   OH223160   1.139   2.239   6.983
  534TIP3    H123161   1.063   2.230   6.926
  534TIP3    H223162   1.213   2.244   6.924
  535TIP3   OH223163   3.565   2.257   0.540
  535TIP3    H123164   3.519   2.181   0.505
  535TIP3    H223165   3.657   2.244   0.515
  536TIP3   OH223166   1.507   5.192   8.708
  536TIP3    H123167   1.456   5.256   8.659
  536TIP3    H223168   1.485   5.108   8.668
  537TIP3   OH223169   0.269   1.168   7.219
  537TIP3    H123170   0.248   1.158   7.312
  537TIP3    H223171   0.188   1.200   7.180
  538TIP3   OH223172   2.406   6.075   0.643
  538TIP3    H123173   2.333   6.020   0.673
  538TIP3    H223174   2.484   6.024   0.661
  539TIP3   OH223175   3.388   4.682   0.265
  539TIP3    H123176   3.460   4.701   0.324
  539TIP3    H223177   3.355   4.597   0.294
  540TIP3   OH223178   3.416   5.227   1.624
  540TIP3    H123179   3.485   5.282   1.661
  540TIP3    H223180   3.361   5.204   1.699
  541TIP3   OH223181   5.619   3.286   0.940
  541TIP3    H123182   5.643   3.219   0.876
  541TIP3    H223183   5.535   3.256   0.976
  542TIP3   OH223184   5.797   4.514   1.362
  542TIP3    H123185   5.813   4.608   1.373
  542TIP3    H223186   5.844   4.474   1.435
  543TIP3   OH223187   3.101   1.637   0.462
  543TIP3    H123188   3.069   1.583   0.534
  543TIP3    H223189   3.164   1.697   0.503
  544TIP3   OH223190   1.252   4.626   7.252
  544TIP3    H123191   1.345   4.628   7.273
  544TIP3    H223192   1.219   4.548   7.295
  545TIP3   OH223193   1.857   6.679   0.359
  545TIP3    H123194   1.837   6.727   0.279
  545TIP3    H223195   1.776   6.682   0.410
  546TIP3   OH223196   3.533   1.558   6.697
  546TIP3    H123197   3.469   1.553   6.625
  546TIP3    H223198   3.593   1.485   6.679
  547TIP3   OH223199   1.072   0.962   1.775
  547TIP3    H123200   1.098   0.929   1.861
  547TIP3    H223201   0.977   0.973   1.782
  548TIP3   OH223202   1.765   3.489   7.131
  548TIP3    H123203   1.764   3.519   7.040
  548TIP3    H223204   1.723   3.560   7.180
  549TIP3   OH223205   4.937   2.467   1.375
  549TIP3    H123206   4.982   2.432   1.298
  549TIP3    H223207   4.853   2.499   1.341
  550TIP3   OH223208   6.567   4.917   0.374
  550TIP3    H123209   6.492   4.937   0.318
  550TIP3    H223210   6.627   4.991   0.361
  551TIP3   OH223211   6.656   4.162   0.459
  551TIP3    H123212   6.591   4.226   0.487
  551TIP3    H223213   6.691   4.125   0.540
  552TIP3   OH223214   1.471   3.038   7.022
  552TIP3    H123215   1.492   3.124   6.987
  552TIP3    H223216   1.539   2.980   6.988
  553TIP3   OH223217   0.561   0.745   1.648
  553TIP3    H123218   0.573   0.726   1.555
  553TIP3    H223219   0.482   0.697   1.672
  554TIP3   OH223220   5.224   4.708   7.750
  554TIP3    H123221   5.281   4.638   7.782
  554TIP3    H223222   5.256   4.787   7.793
  555TIP3   OH223223   6.083   5.409   0.397
  555TIP3    H123224   6.169   5.405   0.356
  555TIP3    H223225   6.097   5.460   0.477
  556TIP3   OH223226   4.366   0.249   0.488
  556TIP3    H123227   4.382   0.201   0.569
  556TIP3    H223228   4.306   0.320   0.513
  557TIP3   OH223229   4.258   4.450   7.564
  557TIP3    H123230   4.214   4.402   7.494
  557TIP3    H223231   4.348   4.416   7.564
  558TIP3   OH223232   0.564   4.919   0.640
  558TIP3    H123233   0.592   4.833   0.607
  558TIP3    H223234   0.489   4.899   0.696
  559TIP3   OH223235   1.273   3.672   6.509
  559TIP3    H123236   1.217   3.670   6.587
  559TIP3    H223237   1.316   3.757   6.512
  560TIP3   OH223238   2.593   5.305   1.771
  560TIP3    H123239   2.622   5.248   1.699
  560TIP3    H223240   2.624   5.392   1.746
  561TIP3   OH223241   1.785   4.868   0.880
  561TIP3    H123242   1.708   4.882   0.825
  561TIP3    H223243   1.848   4.824   0.823
  562TIP3   OH223244   3.426   6.434   2.661
  562TIP3    H123245   3.495   6.501   2.648
  562TIP3    H223246   3.370   6.443   2.584
  563TIP3   OH223247   5.191   0.066   8.541
  563TIP3    H123248   5.193   6.822   8.585
  563TIP3    H223249   5.153   0.126   8.605
  564TIP3   OH223250   3.754   1.905   7.772
  564TIP3    H123251   3.683   1.849   7.742
  564TIP3    H223252   3.724   1.941   7.855
  565TIP3   OH223253   2.047   4.392   7.228
  565TIP3    H123254   2.087   4.311   7.260
  565TIP3    H223255   1.964   4.364   7.188
  566TIP3   OH223256   1.590   4.978   0.683
  566TIP3    H123257   1.519   5.040   0.667
  566TIP3    H223258   1.668   5.021   0.647
  567TIP3   OH223259   6.811   5.141   8.086
  567TIP3    H123260   6.735   5.086   8.104
  567TIP3    H223261   6.825   5.130   7.992
  568TIP3   OH223262   4.461   0.037   7.419
  568TIP3    H123263   4.434   0.017   7.329
  568TIP3    H223264   4.419   0.121   7.438
  569TIP3   OH223265   6.561   2.742   7.596
  569TIP3    H123266   6.527   2.695   7.672
  569TIP3    H223267   6.638   2.788   7.629
  570TIP3   OH223268   3.847   3.475   8.539
  570TIP3    H123269   3.927   3.492   8.490
  570TIP3    H223270   3.877   3.467   8.630
  571TIP3   OH223271   0.491   0.514   8.484
  571TIP3    H123272   0.481   0.463   8.404
  571TIP3    H223273   0.453   0.459   8.553
  572TIP3   OH223274   1.785   3.949   2.060
  572TIP3    H123275   1.814   3.960   2.150
  572TIP3    H223276   1.829   4.020   2.012
  573TIP3   OH223277   4.093   3.197   1.879
  573TIP3    H123278   4.141   3.130   1.831
  573TIP3    H223279   4.013   3.211   1.827
  574TIP3   OH223280   1.817   3.385   0.783
  574TIP3    H123281   1.802   3.449   0.853
  574TIP3    H223282   1.879   3.429   0.725
  575TIP3   OH223283   4.302   5.782   7.603
  575TIP3    H123284   4.359   5.741   7.538
  575TIP3    H223285   4.257   5.709   7.646
  576TIP3   OH223286   4.933   3.121   0.489
  576TIP3    H123287   4.967   3.093   0.574
  576TIP3    H223288   4.981   3.202   0.470
  577TIP3   OH223289   2.360   6.531   6.796
  577TIP3    H123290   2.272   6.556   6.767
  577TIP3    H223291   2.417   6.561   6.725
  578TIP3   OH223292   1.365   6.721   0.980
  578TIP3    H123293   1.282   6.711   1.025
  578TIP3    H223294   1.420   6.650   1.013
  579TIP3   OH223295   0.122   4.708   0.111
  579TIP3    H123296   0.043   4.758   0.090
  579TIP3    H223297   0.167   4.762   0.176
  580TIP3   OH223298   0.557   4.443   8.698
  580TIP3    H123299   0.500   4.497   0.019
  580TIP3    H223300   0.590   4.375   0.022
  581TIP3   OH223301   3.747   4.413   7.400
  581TIP3    H123302   3.700   4.456   7.471
  581TIP3    H223303   3.828   4.464   7.389
  582TIP3   OH223304   2.475   2.986   0.318
  582TIP3    H123305   2.387   2.958   0.294
  582TIP3    H223306   2.470   3.002   0.412
  583TIP3   OH223307   6.084   3.517   6.533
  583TIP3    H123308   6.073   3.551   6.444
  583TIP3    H223309   6.111   3.593   6.585
  584TIP3   OH223310   2.673   6.835   8.344
  584TIP3    H123311   2.714   0.017   8.428
  584TIP3    H223312   2.604   6.773   8.368
  585TIP3   OH223313   3.137   6.369   0.952
  585TIP3    H123314   3.137   6.353   0.858
  585TIP3    H223315   3.124   6.463   0.961
  586TIP3   OH223316   1.769   2.893   0.869
  586TIP3    H123317   1.798   2.975   0.828
  586TIP3    H223318   1.674   2.891   0.852
  587TIP3   OH223319   4.784   6.300   7.507
  587TIP3    H123320   4.747   6.242   7.574
  587TIP3    H223321   4.728   6.286   7.430
  588TIP3   OH223322   1.959   0.610   0.633
  588TIP3    H123323   1.995   0.579   0.550
  588TIP3    H223324   1.935   0.530   0.681
  589TIP3   OH223325   4.476   3.903   8.651
  589TIP3    H123326   4.536   3.977   8.649
  589TIP3    H223327   4.436   3.907   0.004
  590TIP3   OH223328   5.646   4.212   6.537
  590TIP3    H123329   5.739   4.202   6.515
  590TIP3    H223330   5.603   4.140   6.493
  591TIP3   OH223331   0.555   0.529   2.015
  591TIP3    H123332   0.462   0.509   2.001
  591TIP3    H223333   0.589   0.548   1.928
  592TIP3   OH223334   0.381   3.661   1.701
  592TIP3    H123335   0.376   3.660   1.796
  592TIP3    H223336   0.292   3.679   1.672
  593TIP3   OH223337   2.587   2.209   6.657
  593TIP3    H123338   2.575   2.303   6.645
  593TIP3    H223339   2.531   2.169   6.591
  594TIP3   OH223340   5.540   6.623   0.289
  594TIP3    H123341   5.469   6.681   0.316
  594TIP3    H223342   5.618   6.679   0.289
  595TIP3   OH223343   6.742   5.726   8.217
  595TIP3    H123344   6.654   5.720   8.181
  595TIP3    H223345   6.767   5.818   8.202
  596TIP3   OH223346   3.866   0.984   1.301
  596TIP3    H123347   3.819   0.903   1.322
  596TIP3    H223348   3.799   1.044   1.268
  597TIP3   OH223349   5.335   0.492   7.492
  597TIP3    H123350   5.347   0.468   7.584
  597TIP3    H223351   5.424   0.510   7.460
  598TIP3   OH223352   5.989   4.617   7.894
  598TIP3    H123353   5.950   4.656   7.972
  598TIP3    H223354   5.953   4.528   7.891
  599TIP3   OH223355   3.164   1.926   2.823
  599TIP3    H123356   3.176   2.018   2.846
  599TIP3    H223357   3.253   1.892   2.812
  600TIP3   OH223358   2.351   1.110   2.221
  600TIP3    H123359   2.313   1.098   2.134
  600TIP3    H223360   2.296   1.058   2.279
  601TIP3   OH223361   5.554   5.412   0.498
  601TIP3    H123362   5.592   5.353   0.563
  601TIP3    H223363   5.517   5.484   0.549
  602TIP3   OH223364   0.137   1.700   7.995
  602TIP3    H123365   0.174   1.613   8.009
  602TIP3    H223366   0.043   1.686   7.985
  603TIP3   OH223367   3.765   3.636   0.700
  603TIP3    H123368   3.672   3.644   0.722
  603TIP3    H223369   3.783   3.542   0.704
  604TIP3   OH223370   2.829   1.757   1.760
  604TIP3    H123371   2.863   1.676   1.798
  604TIP3    H223372   2.866   1.827   1.815
  605TIP3   OH223373   4.352   3.708   0.643
  605TIP3    H123374   4.341   3.653   0.721
  605TIP3    H223375   4.435   3.681   0.606
  606TIP3   OH223376   2.918   6.646   2.046
  606TIP3    H123377   2.836   6.598   2.055
  606TIP3    H223378   2.897   6.735   2.077
  607TIP3   OH223379   3.229   0.924   6.992
  607TIP3    H123380   3.281   0.846   6.970
  607TIP3    H223381   3.205   0.961   6.908
  608TIP3   OH223382   0.746   5.168   0.593
  608TIP3    H123383   0.800   5.089   0.593
  608TIP3    H223384   0.663   5.141   0.632
  609TIP3   OH223385   5.599   6.682   7.345
  609TIP3    H123386   5.601   6.750   7.277
  609TIP3    H223387   5.686   6.642   7.341
  610TIP3   OH223388   2.698   2.035   1.532
  610TIP3    H123389   2.685   1.962   1.592
  610TIP3    H223390   2.766   2.088   1.574
  611TIP3   OH223391   2.227   3.676   0.919
  611TIP3    H123392   2.175   3.718   0.987
  611TIP3    H223393   2.241   3.587   0.950
  612TIP3   OH223394   2.316   5.419   8.038
  612TIP3    H123395   2.386   5.473   8.075
  612TIP3    H223396   2.235   5.464   8.061
  613TIP3   OH223397   4.950   3.066   7.292
  613TIP3    H123398   4.899   2.993   7.257
  613TIP3    H223399   4.940   3.135   7.227
  614TIP3   OH223400   2.616   6.383   8.008
  614TIP3    H123401   2.695   6.436   8.008
  614TIP3    H223402   2.596   6.369   8.100
  615TIP3   OH223403   5.576   1.595   7.492
  615TIP3    H123404   5.492   1.556   7.469
  615TIP3    H223405   5.563   1.632   7.579
  616TIP3   OH223406   0.639   6.435   7.802
  616TIP3    H123407   0.594   6.388   7.872
  616TIP3    H223408   0.636   6.527   7.828
  617TIP3   OH223409   4.304   0.090   7.906
  617TIP3    H123410   4.241   0.045   7.962
  617TIP3    H223411   4.359   0.139   7.966
  618TIP3   OH223412   4.722   4.020   0.630
  618TIP3    H123413   4.776   4.099   0.634
  618TIP3    H223414   4.782   3.949   0.652
  619TIP3   OH223415   4.433   2.510   0.781
  619TIP3    H123416   4.528   2.513   0.781
  619TIP3    H223417   4.412   2.419   0.804
  620TIP3   OH223418   4.548   1.737   2.297
  620TIP3    H123419   4.467   1.689   2.311
  620TIP3    H223420   4.594   1.732   2.381
  621TIP3   OH223421   4.749   6.093   1.052
  621TIP3    H123422   4.759   6.005   1.014
  621TIP3    H223423   4.716   6.077   1.140
  622TIP3   OH223424   0.119   2.782   0.777
  622TIP3    H123425   0.078   2.716   0.722
  622TIP3    H223426   0.046   2.834   0.810
  623TIP3   OH223427   0.206   3.148   8.471
  623TIP3    H123428   0.204   3.152   8.566
  623TIP3    H223429   0.299   3.134   8.450
  624TIP3   OH223430   3.415   4.414   8.724
  624TIP3    H123431   3.484   4.374   8.672
  624TIP3    H223432   3.447   4.502   0.008
  625TIP3   OH223433   3.507   0.831   6.783
  625TIP3    H123434   3.465   0.807   6.701
  625TIP3    H223435   3.591   0.869   6.757
  626TIP3   OH223436   1.476   4.098   1.424
  626TIP3    H123437   1.427   4.029   1.379
  626TIP3    H223438   1.466   4.175   1.367
  627TIP3   OH223439   2.627   6.653   1.953
  627TIP3    H123440   2.571   6.584   1.989
  627TIP3    H223441   2.700   6.606   1.913
  628TIP3   OH223442   1.704   0.032   7.512
  628TIP3    H123443   1.688   0.126   7.504
  628TIP3    H223444   1.758   0.024   7.591
  629TIP3   OH223445   6.257   1.221   1.956
  629TIP3    H123446   6.307   1.301   1.938
  629TIP3    H223447   6.261   1.211   2.051
  630TIP3   OH223448   3.754   0.667   7.321
  630TIP3    H123449   3.753   0.615   7.241
  630TIP3    H223450   3.680   0.634   7.372
  631TIP3   OH223451   5.052   5.908   1.872
  631TIP3    H123452   4.980   5.931   1.932
  631TIP3    H223453   5.095   5.834   1.914
  632TIP3   OH223454   3.627   6.581   0.245
  632TIP3    H123455   3.642   6.557   0.154
  632TIP3    H223456   3.541   6.544   0.266
  633TIP3   OH223457   1.680   6.431   7.128
  633TIP3    H123458   1.731   6.512   7.126
  633TIP3    H223459   1.728   6.374   7.188
  634TIP3   OH223460   2.061   4.521   0.600
  634TIP3    H123461   2.067   4.584   0.529
  634TIP3    H223462   1.972   4.487   0.595
  635TIP3   OH223463   0.922   0.622   6.722
  635TIP3    H123464   0.912   0.527   6.722
  635TIP3    H223465   1.015   0.636   6.740
  636TIP3   OH223466   1.811   1.257   1.857
  636TIP3    H123467   1.788   1.326   1.795
  636TIP3    H223468   1.895   1.285   1.893
  637TIP3   OH223469   4.083   6.775   7.230
  637TIP3    H123470   4.123   6.688   7.230
  637TIP3    H223471   4.001   6.764   7.182
  638TIP3   OH223472   4.893   3.533   2.069
  638TIP3    H123473   4.824   3.480   2.110
  638TIP3    H223474   4.908   3.489   1.985
  639TIP3   OH223475   5.412   5.668   7.882
  639TIP3    H123476   5.464   5.741   7.915
  639TIP3    H223477   5.461   5.637   7.806
  640TIP3   OH223478   3.385   5.755   1.439
  640TIP3    H123479   3.411   5.753   1.531
  640TIP3    H223480   3.310   5.695   1.434
  641TIP3   OH223481   2.895   3.340   1.198
  641TIP3    H123482   2.856   3.256   1.174
  641TIP3    H223483   2.900   3.339   1.293
  642TIP3   OH223484   3.538   4.776   6.857
  642TIP3    H123485   3.489   4.849   6.819
  642TIP3    H223486   3.478   4.702   6.851
  643TIP3   OH223487   1.346   5.430   6.351
  643TIP3    H123488   1.428   5.383   6.336
  643TIP3    H223489   1.363   5.482   6.430
  644TIP3   OH223490   2.557   3.760   7.935
  644TIP3    H123491   2.627   3.817   7.967
  644TIP3    H223492   2.534   3.795   7.850
  645TIP3   OH223493   5.202   4.824   1.336
  645TIP3    H123494   5.187   4.763   1.408
  645TIP3    H223495   5.162   4.906   1.365
  646TIP3   OH223496   2.511   4.008   0.477
  646TIP3    H123497   2.467   4.009   0.562
  646TIP3    H223498   2.455   4.061   0.420
  647TIP3   OH223499   6.109   4.455   7.647
  647TIP3    H123500   6.086   4.437   7.556
  647TIP3    H223501   6.175   4.524   7.643
  648TIP3   OH223502   0.115   3.579   8.070
  648TIP3    H123503   0.043   3.593   8.008
  648TIP3    H223504   0.178   3.527   8.022
  649TIP3   OH223505   1.136   2.508   7.808
  649TIP3    H123506   1.162   2.484   7.896
  649TIP3    H223507   1.118   2.425   7.764
  650TIP3   OH223508   0.569   5.638   8.693
  650TIP3    H123509   0.530   5.562   0.003
  650TIP3    H223510   0.662   5.616   8.684
  651TIP3   OH223511   4.917   6.821   1.751
  651TIP3    H123512   4.856   6.754   1.720
  651TIP3    H223513   4.902   0.055   1.693
  652TIP3   OH223514   6.820   5.654   1.742
  652TIP3    H123515   0.007   5.590   1.677
  652TIP3    H223516   6.763   5.715   1.695
  653TIP3   OH223517   0.527   6.037   6.902
  653TIP3    H123518   0.464   6.056   6.832
  653TIP3    H223519   0.582   5.968   6.867
  654TIP3   OH223520   0.017   2.100   1.679
  654TIP3    H123521   6.816   2.183   1.654
  654TIP3    H223522   0.063   2.071   1.601
  655TIP3   OH223523   2.862   0.478   6.285
  655TIP3    H123524   2.844   0.470   6.191
  655TIP3    H223525   2.852   0.389   6.319
  656TIP3   OH223526   4.978   1.030   7.148
  656TIP3    H123527   4.942   1.118   7.163
  656TIP3    H223528   5.035   1.040   7.071
  657TIP3   OH223529   2.139   0.701   7.556
  657TIP3    H123530   2.205   0.730   7.493
  657TIP3    H223531   2.188   0.650   7.621
  658TIP3   OH223532   3.407   1.342   7.270
  658TIP3    H123533   3.357   1.263   7.248
  658TIP3    H223534   3.476   1.345   7.204
  659TIP3   OH223535   0.469   5.396   1.976
  659TIP3    H123536   0.446   5.325   1.916
  659TIP3    H223537   0.388   5.445   1.988
  660TIP3   OH223538   0.570   5.712   6.943
  660TIP3    H123539   0.547   5.653   6.871
  660TIP3    H223540   0.664   5.726   6.933
  661TIP3   OH223541   2.237   6.802   8.005
  661TIP3    H123542   2.263   6.742   8.075
  661TIP3    H223543   2.301   0.032   8.009
  662TIP3   OH223544   6.603   6.135   1.422
  662TIP3    H123545   6.515   6.135   1.461
  662TIP3    H223546   6.589   6.108   1.332
  663TIP3   OH223547   1.242   2.198   1.146
  663TIP3    H123548   1.315   2.255   1.170
  663TIP3    H223549   1.269   2.110   1.175
  664TIP3   OH223550   3.117   1.556   0.042
  664TIP3    H123551   3.098   1.463   0.031
  664TIP3    H223552   3.202   1.558   0.087
  665TIP3   OH223553   3.397   2.226   0.981
  665TIP3    H123554   3.453   2.270   0.916
  665TIP3    H223555   3.369   2.296   1.039
  666TIP3   OH223556   3.988   5.801   0.213
  666TIP3    H123557   3.952   5.743   0.145
  666TIP3    H223558   4.074   5.825   0.180
  667TIP3   OH223559   0.479   3.405   1.280
  667TIP3    H123560   0.506   3.414   1.371
  667TIP3    H223561   0.415   3.333   1.281
  668TIP3   OH223562   0.996   3.108   7.607
  668TIP3    H123563   0.946   3.043   7.657
  668TIP3    H223564   1.047   3.057   7.545
  669TIP3   OH223565   1.545   6.327   1.411
  669TIP3    H123566   1.577   6.319   1.321
  669TIP3    H223567   1.529   6.237   1.440
  670TIP3   OH223568   4.141   5.070   8.720
  670TIP3    H123569   4.136   5.123   0.065
  670TIP3    H223570   4.228   5.030   8.722
  671TIP3   OH223571   2.913   2.207   1.605
  671TIP3    H123572   2.844   2.273   1.615
  671TIP3    H223573   2.983   2.252   1.558
  672TIP3   OH223574   2.211   3.187   0.819
  672TIP3    H123575   2.247   3.103   0.849
  672TIP3    H223576   2.241   3.250   0.885
  673TIP3   OH223577   6.570   1.931   0.522
  673TIP3    H123578   6.562   1.866   0.452
  673TIP3    H223579   6.487   1.927   0.569
  674TIP3   OH223580   2.819   1.039   0.066
  674TIP3    H123581   2.840   0.947   0.053
  674TIP3    H223582   2.796   1.072   8.713
  675TIP3   OH223583   1.739   0.288   2.689
  675TIP3    H123584   1.716   0.258   2.602
  675TIP3    H223585   1.681   0.363   2.705
  676TIP3   OH223586   3.472   5.992   1.343
  676TIP3    H123587   3.433   5.917   1.386
  676TIP3    H223588   3.562   5.965   1.324
  677TIP3   OH223589   2.211   2.246   6.152
  677TIP3    H123590   2.139   2.260   6.090
  677TIP3    H223591   2.172   2.194   6.223
  678TIP3   OH223592   5.381   0.865   0.863
  678TIP3    H123593   5.423   0.902   0.940
  678TIP3    H223594   5.452   0.820   0.816
  679TIP3   OH223595   4.591   1.558   7.554
  679TIP3    H123596   4.541   1.636   7.532
  679TIP3    H223597   4.524   1.492   7.573
  680TIP3   OH223598   5.848   2.913   0.481
  680TIP3    H123599   5.880   2.993   0.440
  680TIP3    H223600   5.922   2.882   0.534
  681TIP3   OH223601   3.642   0.233   0.645
  681TIP3    H123602   3.580   0.211   0.715
  681TIP3    H223603   3.697   0.302   0.682
  682TIP3   OH223604   2.081   5.713   6.894
  682TIP3    H123605   1.986   5.705   6.900
  682TIP3    H223606   2.102   5.678   6.807
  683TIP3   OH223607   2.461   3.809   1.181
  683TIP3    H123608   2.368   3.809   1.205
  683TIP3    H223609   2.489   3.900   1.193
  684TIP3   OH223610   5.561   0.466   8.253
  684TIP3    H123611   5.497   0.413   8.205
  684TIP3    H223612   5.528   0.465   8.344
  685TIP3   OH223613   0.672   2.457   6.992
  685TIP3    H123614   0.746   2.455   6.932
  685TIP3    H223615   0.601   2.497   6.943
  686TIP3   OH223616   1.124   1.448   0.696
  686TIP3    H123617   1.137   1.420   0.787
  686TIP3    H223618   1.064   1.522   0.703
  687TIP3   OH223619   2.408   4.916   1.555
  687TIP3    H123620   2.442   4.919   1.644
  687TIP3    H223621   2.446   4.837   1.517
  688TIP3   OH223622   6.399   4.711   1.665
  688TIP3    H123623   6.441   4.797   1.665
  688TIP3    H223624   6.460   4.655   1.713
  689TIP3   OH223625   5.326   3.296   8.129
  689TIP3    H123626   5.239   3.330   8.153
  689TIP3    H223627   5.311   3.248   8.048
  690TIP3   OH223628   6.007   4.978   8.492
  690TIP3    H123629   5.999   4.960   8.586
  690TIP3    H223630   6.096   4.950   8.471
  691TIP3   OH223631   3.770   3.512   0.312
  691TIP3    H123632   3.735   3.601   0.309
  691TIP3    H223633   3.718   3.468   0.379
  692TIP3   OH223634   0.925   1.529   7.482
  692TIP3    H123635   0.908   1.550   7.574
  692TIP3    H223636   0.897   1.438   7.473
  693TIP3   OH223637   5.588   0.716   1.650
  693TIP3    H123638   5.599   0.676   1.736
  693TIP3    H223639   5.598   0.643   1.588
  694TIP3   OH223640   3.889   3.208   8.612
  694TIP3    H123641   3.836   3.287   8.622
  694TIP3    H223642   3.827   3.136   8.619
  695TIP3   OH223643   2.775   4.618   6.475
  695TIP3    H123644   2.699   4.561   6.489
  695TIP3    H223645   2.739   4.694   6.430
  696TIP3   OH223646   3.619   1.831   0.289
  696TIP3    H123647   3.573   1.821   0.372
  696TIP3    H223648   3.650   1.922   0.291
  697TIP3   OH223649   2.832   1.014   1.015
  697TIP3    H123650   2.837   1.066   0.935
  697TIP3    H223651   2.823   0.923   0.984
  698TIP3   OH223652   6.362   4.276   8.606
  698TIP3    H123653   6.308   4.284   8.527
  698TIP3    H223654   6.318   4.211   8.660
  699TIP3   OH223655   4.919   5.945   6.929
  699TIP3    H123656   4.872   6.027   6.913
  699TIP3    H223657   4.854   5.876   6.913
  700TIP3   OH223658   4.818   3.727   6.565
  700TIP3    H123659   4.829   3.654   6.625
  700TIP3    H223660   4.903   3.737   6.522
  701TIP3   OH223661   6.749   3.623   6.780
  701TIP3    H123662   6.823   3.590   6.830
  701TIP3    H223663   6.684   3.554   6.784
  702TIP3   OH223664   0.677   1.879   0.071
  702TIP3    H123665   0.685   1.916   8.718
  702TIP3    H223666   0.737   1.931   0.125
  703TIP3   OH223667   0.462   5.632   8.423
  703TIP3    H123668   0.371   5.653   8.441
  703TIP3    H223669   0.507   5.641   8.507
  704TIP3   OH223670   4.532   0.978   7.362
  704TIP3    H123671   4.535   0.882   7.363
  704TIP3    H223672   4.600   1.004   7.301
  705TIP3   OH223673   1.775   2.054   7.630
  705TIP3    H123674   1.766   2.076   7.723
  705TIP3    H223675   1.697   2.090   7.589
  706TIP3   OH223676   1.837   0.938   6.438
  706TIP3    H123677   1.754   0.909   6.476
  706TIP3    H223678   1.844   0.888   6.357
  707TIP3   OH223679   2.547   3.627   6.515
  707TIP3    H123680   2.484   3.698   6.528
  707TIP3    H223681   2.594   3.651   6.435
  708TIP3   OH223682   3.221   3.398   6.882
  708TIP3    H123683   3.148   3.459   6.873
  708TIP3    H223684   3.278   3.418   6.807
  709TIP3   OH223685   2.290   1.837   8.726
  709TIP3    H123686   2.265   1.804   0.078
  709TIP3    H223687   2.275   1.763   8.667
  710TIP3   OH223688   0.953   1.525   8.561
  710TIP3    H123689   0.934   1.433   8.546
  710TIP3    H223690   1.043   1.526   8.594
  711TIP3   OH223691   5.227   5.985   2.161
  711TIP3    H123692   5.204   6.043   2.088
  711TIP3    H223693   5.173   5.906   2.147
  712TIP3   OH223694   3.201   3.347   1.241
  712TIP3    H123695   3.136   3.360   1.172
  712TIP3    H223696   3.149   3.330   1.320
  713TIP3   OH223697   4.597   0.109   0.305
  713TIP3    H123698   4.645   0.189   0.287
  713TIP3    H223699   4.548   0.092   0.224
  714TIP3   OH223700   1.713   0.105   0.540
  714TIP3    H123701   1.669   0.069   0.617
  714TIP3    H223702   1.777   0.038   0.515
  715TIP3   OH223703   6.136   3.982   8.025
  715TIP3    H123704   6.205   3.917   8.023
  715TIP3    H223705   6.092   3.974   7.941
  716TIP3   OH223706   3.226   2.662   8.688
  716TIP3    H123707   3.226   2.689   0.046
  716TIP3    H223708   3.148   2.704   8.651
  717TIP3   OH223709   5.489   3.473   0.618
  717TIP3    H123710   5.540   3.508   0.691
  717TIP3    H223711   5.544   3.490   0.541
  718TIP3   OH223712   0.987   3.268   7.875
  718TIP3    H123713   0.994   3.231   7.787
  718TIP3    H223714   1.004   3.362   7.863
  719TIP3   OH223715   6.343   0.215   2.300
  719TIP3    H123716   6.270   0.274   2.282
  719TIP3    H223717   6.335   0.147   2.233
  720TIP3   OH223718   0.905   3.111   2.250
  720TIP3    H123719   0.903   3.031   2.303
  720TIP3    H223720   0.854   3.089   2.172
  721TIP3   OH223721   1.692   3.337   8.682
  721TIP3    H123722   1.695   3.363   0.039
  721TIP3    H223723   1.743   3.405   8.636
  722TIP3   OH223724   0.575   1.715   7.980
  722TIP3    H123725   0.505   1.781   7.982
  722TIP3    H223726   0.654   1.762   8.005
  723TIP3   OH223727   3.507   4.489   7.499
  723TIP3    H123728   3.493   4.493   7.404
  723TIP3    H223729   3.455   4.413   7.527
  724TIP3   OH223730   4.003   0.125   1.848
  724TIP3    H123731   3.995   0.215   1.879
  724TIP3    H223732   3.974   0.072   1.922
  725TIP3   OH223733   4.427   6.079   6.502
  725TIP3    H123734   4.344   6.107   6.464
  725TIP3    H223735   4.403   6.047   6.589
  726TIP3   OH223736   5.634   6.120   7.947
  726TIP3    H123737   5.666   6.184   8.011
  726TIP3    H223738   5.558   6.081   7.991
  727TIP3   OH223739   4.047   6.445   8.530
  727TIP3    H123740   4.078   6.436   8.620
  727TIP3    H223741   4.096   6.519   8.495
  728TIP3   OH223742   3.815   5.221   7.882
  728TIP3    H123743   3.845   5.140   7.922
  728TIP3    H223744   3.777   5.193   7.798
  729TIP3   OH223745   2.671   1.691   0.196
  729TIP3    H123746   2.735   1.711   0.128
  729TIP3    H223747   2.709   1.727   0.276
  730TIP3   OH223748   2.389   1.720   8.461
  730TIP3    H123749   2.448   1.794   8.448
  730TIP3    H223750   2.431   1.647   8.414
  731TIP3   OH223751   3.602   4.213   7.523
  731TIP3    H123752   3.614   4.248   7.611
  731TIP3    H223753   3.674   4.251   7.472
  732TIP3   OH223754   4.636   0.677   0.821
  732TIP3    H123755   4.614   0.751   0.879
  732TIP3    H223756   4.699   0.626   0.871
  733TIP3   OH223757   1.047   5.220   1.131
  733TIP3    H123758   1.115   5.154   1.116
  733TIP3    H223759   1.005   5.232   1.046
  734TIP3   OH223760   2.065   1.856   0.336
  734TIP3    H123761   2.108   1.831   0.254
  734TIP3    H223762   2.121   1.818   0.404
  735TIP3   OH223763   2.507   0.961   6.638
  735TIP3    H123764   2.440   1.017   6.599
  735TIP3    H223765   2.465   0.925   6.717
  736TIP3   OH223766   3.859   0.974   0.625
  736TIP3    H123767   3.873   0.958   0.718
  736TIP3    H223768   3.793   1.043   0.623
  737TIP3   OH223769   6.382   0.271   6.884
  737TIP3    H123770   6.463   0.260   6.834
  737TIP3    H223771   6.322   0.314   6.823
  738TIP3   OH223772   6.024   6.474   0.922
  738TIP3    H123773   5.962   6.428   0.865
  738TIP3    H223774   6.107   6.470   0.875
  739TIP3   OH223775   5.373   5.621   0.347
  739TIP3    H123776   5.387   5.610   0.440
  739TIP3    H223777   5.279   5.639   0.338
  740TIP3   OH223778   1.548   2.090   8.261
  740TIP3    H123779   1.530   1.996   8.263
  740TIP3    H223780   1.639   2.097   8.232
  741TIP3   OH223781   6.322   6.408   0.102
  741TIP3    H123782   6.283   6.381   0.185
  741TIP3    H223783   6.352   6.498   0.118
  742TIP3   OH223784   5.604   3.405   0.069
  742TIP3    H123785   5.697   3.392   0.088
  742TIP3    H223786   5.560   3.382   0.151
  743TIP3   OH223787   2.933   2.007   1.885
  743TIP3    H123788   2.855   2.024   1.938
  743TIP3    H223789   2.938   2.082   1.825
  744TIP3   OH223790   6.154   0.767   7.770
  744TIP3    H123791   6.220   0.825   7.807
  744TIP3    H223792   6.141   0.700   7.836
  745TIP3   OH223793   0.258   2.472   6.638
  745TIP3    H123794   0.192   2.497   6.574
  745TIP3    H223795   0.315   2.549   6.645
  746TIP3   OH223796   2.757   5.586   0.967
  746TIP3    H123797   2.709   5.648   1.023
  746TIP3    H223798   2.766   5.508   1.021
  747TIP3   OH223799   1.951   0.530   6.987
  747TIP3    H123800   1.920   0.580   7.063
  747TIP3    H223801   1.969   0.443   7.022
  748TIP3   OH223802   6.354   0.793   7.360
  748TIP3    H123803   6.287   0.833   7.416
  748TIP3    H223804   6.319   0.706   7.340
  749TIP3   OH223805   2.049   0.312   8.123
  749TIP3    H123806   2.029   0.243   8.060
  749TIP3    H223807   2.083   0.266   8.199
  750TIP3   OH223808   0.005   5.118   0.113
  750TIP3    H123809   0.097   5.126   0.088
  750TIP3    H223810   6.798   5.116   0.029
  751TIP3   OH223811   0.332   1.898   8.056
  751TIP3    H123812   0.308   1.980   8.098
  751TIP3    H223813   0.251   1.847   8.054
  752TIP3   OH223814   6.761   3.969   8.062
  752TIP3    H123815   6.760   4.047   8.007
  752TIP3    H223816   6.669   3.945   8.071
  753TIP3   OH223817   1.298   2.793   1.586
  753TIP3    H123818   1.218   2.814   1.635
  753TIP3    H223819   1.334   2.716   1.631
  754TIP3   OH223820   1.008   3.038   1.139
  754TIP3    H123821   1.029   2.966   1.080
  754TIP3    H223822   0.931   3.007   1.188
  755TIP3   OH223823   6.391   5.655   2.453
  755TIP3    H123824   6.310   5.650   2.503
  755TIP3    H223825   6.388   5.741   2.411
  756TIP3   OH223826   3.588   6.820   7.050
  756TIP3    H123827   3.586   0.012   7.140
  756TIP3    H223828   3.510   6.766   7.042
  757TIP3   OH223829   2.157   1.987   1.158
  757TIP3    H123830   2.212   1.917   1.192
  757TIP3    H223831   2.124   2.031   1.236
  758TIP3   OH223832   4.302   0.969   6.689
  758TIP3    H123833   4.307   1.064   6.677
  758TIP3    H223834   4.368   0.934   6.629
  759TIP3   OH223835   0.959   3.763   6.951
  759TIP3    H123836   0.906   3.831   6.993
  759TIP3    H223837   1.049   3.795   6.957
  760TIP3   OH223838   5.314   5.941   8.492
  760TIP3    H123839   5.400   5.910   8.462
  760TIP3    H223840   5.334   6.015   8.549
  761TIP3   OH223841   6.601   3.067   7.684
  761TIP3    H123842   6.560   3.101   7.764
  761TIP3    H223843   6.652   2.992   7.715
  762TIP3   OH223844   3.348   1.707   1.812
  762TIP3    H123845   3.374   1.777   1.872
  762TIP3    H223846   3.262   1.734   1.778
  763TIP3   OH223847   6.784   2.784   8.160
  763TIP3    H123848   6.827   2.816   8.239
  763TIP3    H223849   6.699   2.827   8.159
  764TIP3   OH223850   3.280   3.489   2.359
  764TIP3    H123851   3.252   3.423   2.422
  764TIP3    H223852   3.343   3.444   2.303
  765TIP3   OH223853   6.161   5.870   8.708
  765TIP3    H123854   6.233   5.925   8.678
  765TIP3    H223855   6.118   5.923   0.041
  766TIP3   OH223856   0.081   4.722   1.025
  766TIP3    H123857   0.087   4.705   1.119
  766TIP3    H223858   0.116   4.810   1.014
  767TIP3   OH223859   1.418   6.015   0.364
  767TIP3    H123860   1.497   5.972   0.331
  767TIP3    H223861   1.436   6.032   0.456
  768TIP3   OH223862   2.044   1.847   2.418
  768TIP3    H123863   2.134   1.822   2.440
  768TIP3    H223864   1.998   1.764   2.409
  769TIP3   OH223865   4.484   1.889   0.150
  769TIP3    H123866   4.486   1.984   0.164
  769TIP3    H223867   4.573   1.867   0.122
  770TIP3   OH223868   3.152   5.596   1.411
  770TIP3    H123869   3.186   5.535   1.476
  770TIP3    H223870   3.095   5.543   1.355
  771TIP3   OH223871   0.082   3.464   1.763
  771TIP3    H123872   0.057   3.414   1.686
  771TIP3    H223873   0.037   3.421   1.836
  772TIP3   OH223874   6.175   1.393   6.956
  772TIP3    H123875   6.150   1.302   6.942
  772TIP3    H223876   6.199   1.426   6.869
  773TIP3   OH223877   5.736   1.733   6.758
  773TIP3    H123878   5.721   1.674   6.684
  773TIP3    H223879   5.811   1.786   6.732
  774TIP3   OH223880   6.471   2.478   8.221
  774TIP3    H123881   6.428   2.429   8.291
  774TIP3    H223882   6.560   2.493   8.253
  775TIP3   OH223883   1.513   2.229   7.238
  775TIP3    H123884   1.524   2.299   7.173
  775TIP3    H223885   1.549   2.266   7.319
  776TIP3   OH223886   5.285   0.453   7.195
  776TIP3    H123887   5.324   0.399   7.126
  776TIP3    H223888   5.264   0.391   7.264
  777TIP3   OH223889   6.616   2.033   8.320
  777TIP3    H123890   6.549   1.966   8.338
  777TIP3    H223891   6.569   2.103   8.276
  778TIP3   OH223892   6.576   0.922   1.164
  778TIP3    H123893   6.601   0.920   1.256
  778TIP3    H223894   6.562   1.015   1.145
  779TIP3   OH223895   0.765   1.970   1.254
  779TIP3    H123896   0.801   2.053   1.284
  779TIP3    H223897   0.671   1.978   1.267
  780TIP3   OH223898   3.608   2.226   8.433
  780TIP3    H123899   3.565   2.160   8.377
  780TIP3    H223900   3.577   2.310   8.398
  781TIP3   OH223901   3.110   1.833   1.340
  781TIP3    H123902   3.158   1.884   1.275
  781TIP3    H223903   3.023   1.873   1.343
  782TIP3   OH223904   6.500   0.541   6.865
  782TIP3    H123905   6.551   0.477   6.915
  782TIP3    H223906   6.472   0.493   6.787
  783TIP3   OH223907   1.711   4.800   6.216
  783TIP3    H123908   1.756   4.803   6.131
  783TIP3    H223909   1.773   4.841   6.277
  784TIP3   OH223910   6.263   5.504   8.375
  784TIP3    H123911   6.319   5.557   8.431
  784TIP3    H223912   6.231   5.434   8.432
  785TIP3   OH223913   3.739   5.915   1.314
  785TIP3    H123914   3.828   5.888   1.289
  785TIP3    H223915   3.723   5.869   1.396
  786TIP3   OH223916   2.522   2.619   1.017
  786TIP3    H123917   2.541   2.609   1.110
  786TIP3    H223918   2.588   2.680   0.985
  787TIP3   OH223919   4.498   4.485   1.709
  787TIP3    H123920   4.432   4.462   1.774
  787TIP3    H223921   4.469   4.442   1.629
  788TIP3   OH223922   1.701   1.923   1.742
  788TIP3    H123923   1.672   1.917   1.833
  788TIP3    H223924   1.651   1.995   1.705
  789TIP3   OH223925   5.298   5.899   7.443
  789TIP3    H123926   5.226   5.954   7.472
  789TIP3    H223927   5.271   5.866   7.357
  790TIP3   OH223928   5.703   1.770   8.640
  790TIP3    H123929   5.737   1.784   8.728
  790TIP3    H223930   5.632   1.707   8.652
  791TIP3   OH223931   4.785   2.308   6.243
  791TIP3    H123932   4.709   2.285   6.190
  791TIP3    H223933   4.748   2.354   6.319
  792TIP3   OH223934   0.548   6.819   0.112
  792TIP3    H123935   0.624   0.032   0.087
  792TIP3    H223936   0.541   6.830   0.207
  793TIP3   OH223937   2.785   1.453   8.727
  793TIP3    H123938   2.750   1.450   0.082
  793TIP3    H223939   2.723   1.507   8.679
  794TIP3   OH223940   4.074   2.684   7.410
  794TIP3    H123941   4.062   2.776   7.437
  794TIP3    H223942   4.127   2.690   7.330
  795TIP3   OH223943   6.354   5.509   6.601
  795TIP3    H123944   6.293   5.481   6.669
  795TIP3    H223945   6.299   5.529   6.525
  796TIP3   OH223946   3.172   5.810   7.533
  796TIP3    H123947   3.234   5.749   7.573
  796TIP3    H223948   3.217   5.894   7.535
  797TIP3   OH223949   3.391   3.479   7.218
  797TIP3    H123950   3.332   3.439   7.281
  797TIP3    H223951   3.446   3.407   7.187
  798TIP3   OH223952   2.360   2.405   8.709
  798TIP3    H123953   2.324   2.357   0.049
  798TIP3    H223954   2.379   2.337   8.644
  799TIP3   OH223955   4.582   0.948   8.199
  799TIP3    H123956   4.491   0.920   8.192
  799TIP3    H223957   4.582   1.039   8.168
  800TIP3   OH223958   4.479   1.091   0.865
  800TIP3    H123959   4.545   1.160   0.859
  800TIP3    H223960   4.460   1.068   0.774
  801TIP3   OH223961   1.213   4.876   1.725
  801TIP3    H123962   1.212   4.856   1.818
  801TIP3    H223963   1.265   4.956   1.718
  802TIP3   OH223964   6.058   0.139   0.135
  802TIP3    H123965   6.020   0.226   0.149
  802TIP3    H223966   6.098   0.116   0.219
  803TIP3   OH223967   4.367   6.627   0.235
  803TIP3    H123968   4.439   6.676   0.196
  803TIP3    H223969   4.313   6.694   0.277
  804TIP3   OH223970   4.161   5.253   1.700
  804TIP3    H123971   4.219   5.209   1.763
  804TIP3    H223972   4.078   5.205   1.706
  805TIP3   OH223973   2.712   2.764   0.887
  805TIP3    H123974   2.644   2.806   0.835
  805TIP3    H223975   2.790   2.767   0.831
  806TIP3   OH223976   4.733   3.129   8.550
  806TIP3    H123977   4.757   3.181   8.626
  806TIP3    H223978   4.693   3.050   8.586
  807TIP3   OH223979   1.888   0.760   8.594
  807TIP3    H123980   1.807   0.721   8.629
  807TIP3    H223981   1.860   0.809   8.517
  808TIP3   OH223982   1.479   2.079   0.888
  808TIP3    H123983   1.441   2.043   0.808
  808TIP3    H223984   1.404   2.104   0.942
  809TIP3   OH223985   4.472   3.330   2.299
  809TIP3    H123986   4.485   3.408   2.353
  809TIP3    H223987   4.377   3.325   2.287
  810TIP3   OH223988   0.081   6.068   1.869
  810TIP3    H123989   0.038   6.022   1.941
  810TIP3    H223990   0.008   6.100   1.815
  811TIP3   OH223991   3.604   2.257   1.593
  811TIP3    H123992   3.602   2.332   1.534
  811TIP3    H223993   3.542   2.195   1.555
  812TIP3   OH223994   5.233   6.027   0.114
  812TIP3    H123995   5.201   5.965   0.048
  812TIP3    H223996   5.163   6.092   0.121
  813TIP3   OH223997   2.234   6.431   1.164
  813TIP3    H123998   2.268   6.499   1.106
  813TIP3    H223999   2.280   6.352   1.136
  814TIP3   OH224000   0.595   1.986   0.741
  814TIP3    H124001   0.637   2.003   0.826
  814TIP3    H224002   0.505   2.018   0.752
  815TIP3   OH224003   6.041   4.223   1.267
  815TIP3    H124004   5.970   4.247   1.207
  815TIP3    H224005   6.005   4.152   1.320
  816TIP3   OH224006   2.137   5.978   6.959
  816TIP3    H124007   2.113   5.891   6.926
  816TIP3    H224008   2.106   6.038   6.891
  817TIP3   OH224009   4.739   5.771   6.761
  817TIP3    H124010   4.741   5.763   6.666
  817TIP3    H224011   4.652   5.806   6.781
  818TIP3   OH224012   6.548   4.689   2.020
  818TIP3    H124013   6.620   4.636   1.986
  818TIP3    H224014   6.484   4.625   2.052
  819TIP3   OH224015   1.983   6.317   2.545
  819TIP3    H124016   1.961   6.226   2.524
  819TIP3    H224017   1.901   6.355   2.578
  820TIP3   OH224018   5.451   2.752   0.619
  820TIP3    H124019   5.358   2.745   0.595
  820TIP3    H224020   5.487   2.816   0.558
  821TIP3   OH224021   5.168   2.248   6.540
  821TIP3    H124022   5.163   2.203   6.455
  821TIP3    H224023   5.218   2.188   6.595
  822TIP3   OH224024   0.629   6.434   0.338
  822TIP3    H124025   0.571   6.498   0.297
  822TIP3    H224026   0.680   6.397   0.266
  823TIP3   OH224027   1.698   5.052   7.239
  823TIP3    H124028   1.669   4.977   7.291
  823TIP3    H224029   1.667   5.128   7.289
  824TIP3   OH224030   0.742   4.114   8.260
  824TIP3    H124031   0.778   4.148   8.342
  824TIP3    H224032   0.818   4.082   8.212
  825TIP3   OH224033   6.313   2.638   7.862
  825TIP3    H124034   6.298   2.561   7.806
  825TIP3    H224035   6.254   2.625   7.937
  826TIP3   OH224036   3.435   3.493   0.985
  826TIP3    H124037   3.396   3.576   0.957
  826TIP3    H224038   3.466   3.510   1.073
  827TIP3   OH224039   1.426   4.955   8.159
  827TIP3    H124040   1.453   4.919   8.243
  827TIP3    H224041   1.506   4.992   8.122
  828TIP3   OH224042   0.405   4.256   1.646
  828TIP3    H124043   0.470   4.251   1.717
  828TIP3    H224044   0.437   4.324   1.588
  829TIP3   OH224045   4.864   0.965   8.258
  829TIP3    H124046   4.778   0.965   8.216
  829TIP3    H224047   4.916   1.027   8.207
  830TIP3   OH224048   5.391   0.131   2.035
  830TIP3    H124049   5.417   0.222   2.048
  830TIP3    H224050   5.407   0.089   2.120
  831TIP3   OH224051   0.817   3.936   7.118
  831TIP3    H124052   0.794   4.028   7.106
  831TIP3    H224053   0.869   3.934   7.199
  832TIP3   OH224054   4.931   5.485   6.500
  832TIP3    H124055   4.919   5.577   6.521
  832TIP3    H224056   4.904   5.438   6.578
  833TIP3   OH224057   1.668   1.836   8.523
  833TIP3    H124058   1.689   1.751   8.563
  833TIP3    H224059   1.701   1.829   8.434
  834TIP3   OH224060   4.360   1.700   2.559
  834TIP3    H124061   4.375   1.773   2.619
  834TIP3    H224062   4.366   1.622   2.615
  835TIP3   OH224063   5.304   0.351   6.575
  835TIP3    H124064   5.227   0.294   6.583
  835TIP3    H224065   5.304   0.402   6.656
  836TIP3   OH224066   0.087   0.773   6.584
  836TIP3    H124067   0.022   0.823   6.534
  836TIP3    H224068   0.138   0.727   6.518
  837TIP3   OH224069   4.854   3.556   7.638
  837TIP3    H124070   4.789   3.618   7.605
  837TIP3    H224071   4.856   3.487   7.572
  838TIP3   OH224072   3.502   2.513   6.914
  838TIP3    H124073   3.434   2.580   6.912
  838TIP3    H224074   3.526   2.501   6.822
  839TIP3   OH224075   5.946   5.243   8.406
  839TIP3    H124076   5.968   5.150   8.412
  839TIP3    H224077   5.877   5.248   8.340
  840TIP3   OH224078   1.134   3.143   0.765
  840TIP3    H124079   1.183   3.197   0.703
  840TIP3    H224080   1.066   3.202   0.799
  841TIP3   OH224081   1.169   4.366   7.313
  841TIP3    H124082   1.215   4.285   7.336
  841TIP3    H224083   1.077   4.341   7.309
  842TIP3   OH224084   6.353   5.187   0.547
  842TIP3    H124085   6.326   5.171   0.456
  842TIP3    H224086   6.385   5.103   0.577
  843TIP3   OH224087   6.775   4.766   7.934
  843TIP3    H124088   6.750   4.766   7.842
  843TIP3    H224089   6.722   4.835   7.973
  844TIP3   OH224090   1.225   1.648   0.397
  844TIP3    H124091   1.130   1.649   0.402
  844TIP3    H224092   1.245   1.615   0.309
  845TIP3   OH224093   6.123   2.521   7.557
  845TIP3    H124094   6.041   2.521   7.606
  845TIP3    H224095   6.136   2.613   7.533
  846TIP3   OH224096   3.179   6.274   0.622
  846TIP3    H124097   3.092   6.307   0.603
  846TIP3    H224098   3.165   6.197   0.678
  847TIP3   OH224099   3.624   0.013   8.426
  847TIP3    H124100   3.550   6.827   8.481
  847TIP3    H224101   3.689   0.045   8.488
  848TIP3   OH224102   0.327   5.258   7.573
  848TIP3    H124103   0.317   5.174   7.528
  848TIP3    H224104   0.240   5.297   7.572
  849TIP3   OH224105   5.336   5.770   0.818
  849TIP3    H124106   5.409   5.788   0.876
  849TIP3    H224107   5.320   5.676   0.827
  850TIP3   OH224108   5.257   0.210   2.273
  850TIP3    H124109   5.236   0.141   2.336
  850TIP3    H224110   5.173   0.233   2.233
  851TIP3   OH224111   4.362   1.311   1.738
  851TIP3    H124112   4.437   1.252   1.739
  851TIP3    H224113   4.328   1.305   1.648
  852TIP3   OH224114   4.980   6.477   7.670
  852TIP3    H124115   4.898   6.431   7.650
  852TIP3    H224116   5.030   6.473   7.589
  853TIP3   OH224117   3.736   2.828   7.884
  853TIP3    H124118   3.823   2.867   7.874
  853TIP3    H224119   3.677   2.904   7.890
  854TIP3   OH224120   2.690   0.091   7.757
  854TIP3    H124121   2.782   0.068   7.743
  854TIP3    H224122   2.641   0.011   7.736
  855TIP3   OH224123   0.177   6.430   0.418
  855TIP3    H124124   0.232   6.445   0.495
  855TIP3    H224125   0.238   6.399   0.351
  856TIP3   OH224126   5.151   4.792   6.904
  856TIP3    H124127   5.189   4.753   6.825
  856TIP3    H224128   5.078   4.734   6.926
  857TIP3   OH224129   3.573   6.667   2.632
  857TIP3    H124130   3.579   6.698   2.541
  857TIP3    H224131   3.617   6.734   2.683
  858TIP3   OH224132   0.011   5.401   7.035
  858TIP3    H124133   6.838   5.324   7.090
  858TIP3    H224134   6.778   5.400   6.974
  859TIP3   OH224135   3.086   3.889   8.465
  859TIP3    H124136   3.060   3.978   8.490
  859TIP3    H224137   3.071   3.885   8.371
  860TIP3   OH224138   1.507   2.839   7.502
  860TIP3    H124139   1.460   2.760   7.475
  860TIP3    H224140   1.440   2.896   7.539
  861TIP3   OH224141   2.259   1.067   1.973
  861TIP3    H124142   2.164   1.054   1.965
  861TIP3    H224143   2.296   1.014   1.903
  862TIP3   OH224144   6.407   1.926   2.328
  862TIP3    H124145   6.502   1.915   2.327
  862TIP3    H224146   6.373   1.840   2.301
  863TIP3   OH224147   2.057   5.225   0.535
  863TIP3    H124148   1.991   5.180   0.481
  863TIP3    H224149   2.072   5.165   0.608
  864TIP3   OH224150   6.059   3.883   1.129
  864TIP3    H124151   6.035   3.790   1.134
  864TIP3    H224152   6.132   3.891   1.191
  865TIP3   OH224153   6.000   2.931   7.148
  865TIP3    H124154   6.004   2.977   7.065
  865TIP3    H224155   5.907   2.917   7.163
  866TIP3   OH224156   2.402   0.717   8.529
  866TIP3    H124157   2.318   0.725   8.483
  866TIP3    H224158   2.391   0.770   8.609
  867TIP3   OH224159   3.956   0.857   6.746
  867TIP3    H124160   3.966   0.828   6.836
  867TIP3    H224161   3.861   0.871   6.736
  868TIP3   OH224162   0.228   6.544   7.489
  868TIP3    H124163   0.241   6.456   7.456
  868TIP3    H224164   0.157   6.580   7.436
  869TIP3   OH224165   1.756   0.340   8.194
  869TIP3    H124166   1.849   0.322   8.184
  869TIP3    H224167   1.748   0.380   8.281
  870TIP3   OH224168   2.290   3.801   0.651
  870TIP3    H124169   2.220   3.760   0.703
  870TIP3    H224170   2.348   3.840   0.716
  871TIP3   OH224171   1.253   4.334   0.386
  871TIP3    H124172   1.289   4.268   0.445
  871TIP3    H224173   1.327   4.360   0.331
  872TIP3   OH224174   4.974   3.258   7.979
  872TIP3    H124175   4.900   3.222   7.931
  872TIP3    H224176   5.014   3.321   7.919
  873TIP3   OH224177   0.240   1.709   1.346
  873TIP3    H124178   0.328   1.734   1.316
  873TIP3    H224179   0.227   1.621   1.311
  874TIP3   OH224180   1.142   4.838   1.453
  874TIP3    H124181   1.210   4.772   1.440
  874TIP3    H224182   1.161   4.876   1.539
  875TIP3   OH224183   3.994   1.227   0.730
  875TIP3    H124184   4.052   1.207   0.803
  875TIP3    H224185   3.958   1.142   0.703
  876TIP3   OH224186   3.213   0.172   7.529
  876TIP3    H124187   3.193   0.247   7.473
  876TIP3    H224188   3.159   0.101   7.494
  877TIP3   OH224189   1.986   4.965   1.791
  877TIP3    H124190   1.901   4.921   1.784
  877TIP3    H224191   2.034   4.938   1.713
  878TIP3   OH224192   0.778   5.261   7.396
  878TIP3    H124193   0.722   5.293   7.325
  878TIP3    H224194   0.866   5.288   7.371
  879TIP3   OH224195   0.588   6.681   1.032
  879TIP3    H124196   0.568   6.774   1.046
  879TIP3    H224197   0.667   6.666   1.084
  880TIP3   OH224198   6.471   2.359   0.053
  880TIP3    H124199   6.382   2.367   0.087
  880TIP3    H224200   6.506   2.280   0.096
  881TIP3   OH224201   3.606   0.601   8.278
  881TIP3    H124202   3.637   0.519   8.241
  881TIP3    H224203   3.593   0.658   8.202
  882TIP3   OH224204   4.235   4.411   1.807
  882TIP3    H124205   4.237   4.326   1.852
  882TIP3    H224206   4.143   4.422   1.782
  883TIP3   OH224207   1.326   0.368   1.950
  883TIP3    H124208   1.415   0.379   1.914
  883TIP3    H224209   1.332   0.405   2.038
  884TIP3   OH224210   1.883   0.935   7.952
  884TIP3    H124211   1.898   0.989   7.874
  884TIP3    H224212   1.808   0.880   7.929
  885TIP3   OH224213   3.428   5.617   8.583
  885TIP3    H124214   3.515   5.653   8.565
  885TIP3    H224215   3.370   5.668   8.526
  886TIP3   OH224216   6.499   1.540   8.568
  886TIP3    H124217   6.404   1.537   8.583
  886TIP3    H224218   6.513   1.622   8.520
  887TIP3   OH224219   2.135   0.114   8.572
  887TIP3    H124220   2.106   0.204   8.586
  887TIP3    H224221   2.091   0.063   8.639
  888TIP3   OH224222   3.217   4.905   7.325
  888TIP3    H124223   3.229   4.812   7.342
  888TIP3    H224224   3.278   4.925   7.255
  889TIP3   OH224225   3.686   0.384   1.726
  889TIP3    H124226   3.593   0.376   1.747
  889TIP3    H224227   3.703   0.314   1.664
  890TIP3   OH224228   3.601   0.686   1.553
  890TIP3    H124229   3.516   0.723   1.579
  890TIP3    H224230   3.618   0.619   1.619
  891TIP3   OH224231   2.259   5.882   7.576
  891TIP3    H124232   2.188   5.820   7.591
  891TIP3    H224233   2.336   5.827   7.562
  892TIP3   OH224234   5.815   0.144   0.862
  892TIP3    H124235   5.732   0.189   0.850
  892TIP3    H224236   5.848   0.177   0.946
  893TIP3   OH224237   3.808   5.272   1.785
  893TIP3    H124238   3.761   5.276   1.869
  893TIP3    H224239   3.850   5.186   1.785
  894TIP3   OH224240   6.330   6.195   2.513
  894TIP3    H124241   6.305   6.268   2.456
  894TIP3    H224242   6.386   6.140   2.458
  895TIP3   OH224243   0.404   1.121   1.550
  895TIP3    H124244   0.399   1.207   1.508
  895TIP3    H224245   0.496   1.095   1.540
  896TIP3   OH224246   1.165   5.616   8.487
  896TIP3    H124247   1.140   5.704   8.516
  896TIP3    H224248   1.256   5.606   8.515
  897TIP3   OH224249   1.974   3.862   7.426
  897TIP3    H124250   1.940   3.776   7.450
  897TIP3    H224251   1.919   3.890   7.352
  898TIP3   OH224252   3.281   1.795   8.062
  898TIP3    H124253   3.373   1.767   8.061
  898TIP3    H224254   3.255   1.794   7.970
  899TIP3   OH224255   6.062   6.774   7.613
  899TIP3    H124256   6.013   6.819   7.543
  899TIP3    H224257   6.053   6.832   7.689
  900TIP3   OH224258   6.480   1.438   2.018
  900TIP3    H124259   6.513   1.348   2.010
  900TIP3    H224260   6.555   1.488   2.050
  901TIP3   OH224261   3.588   0.860   7.039
  901TIP3    H124262   3.662   0.800   7.037
  901TIP3    H224263   3.534   0.835   6.964
  902TIP3   OH224264   5.764   6.028   2.497
  902TIP3    H124265   5.810   6.096   2.447
  902TIP3    H224266   5.740   6.071   2.579
  903TIP3   OH224267   6.077   0.571   8.362
  903TIP3    H124268   6.048   0.653   8.403
  903TIP3    H224269   6.168   0.587   8.340
  904TIP3   OH224270   2.256   2.703   1.094
  904TIP3    H124271   2.206   2.696   1.013
  904TIP3    H224272   2.339   2.658   1.075
  905TIP3   OH224273   2.919   1.547   1.919
  905TIP3    H124274   2.920   1.535   2.014
  905TIP3    H224275   2.914   1.458   1.884
  906TIP3   OH224276   4.179   2.735   7.796
  906TIP3    H124277   4.086   2.747   7.777
  906TIP3    H224278   4.201   2.650   7.758
  907TIP3   OH224279   4.333   1.253   6.989
  907TIP3    H124280   4.315   1.315   6.918
  907TIP3    H224281   4.409   1.290   7.033
  908TIP3   OH224282   2.203   5.812   8.682
  908TIP3    H124283   2.114   5.776   8.685
  908TIP3    H224284   2.213   5.842   8.592
  909TIP3   OH224285   5.830   3.305   7.685
  909TIP3    H124286   5.825   3.386   7.635
  909TIP3    H224287   5.920   3.303   7.717
  910TIP3   OH224288   6.081   1.569   1.729
  910TIP3    H124289   6.143   1.563   1.801
  910TIP3    H224290   6.133   1.601   1.655
  911TIP3   OH224291   0.198   4.511   1.551
  911TIP3    H124292   0.283   4.471   1.530
  911TIP3    H224293   0.212   4.605   1.543
  912TIP3   OH224294   0.262   1.699   8.486
  912TIP3    H124295   0.340   1.664   8.529
  912TIP3    H224296   0.287   1.787   8.458
  913TIP3   OH224297   2.413   5.131   7.106
  913TIP3    H124298   2.400   5.043   7.143
  913TIP3    H224299   2.489   5.122   7.048
  914TIP3   OH224300   0.625   1.775   1.959
  914TIP3    H124301   0.552   1.714   1.966
  914TIP3    H224302   0.700   1.720   1.935
  915TIP3   OH224303   5.817   0.994   0.992
  915TIP3    H124304   5.798   0.971   0.901
  915TIP3    H224305   5.848   0.913   1.031
  916TIP3   OH224306   5.370   0.426   1.604
  916TIP3    H124307   5.435   0.403   1.671
  916TIP3    H224308   5.301   0.361   1.616
  917TIP3   OH224309   5.177   0.889   8.313
  917TIP3    H124310   5.232   0.917   8.387
  917TIP3    H224311   5.110   0.957   8.305
  918TIP3   OH224312   1.700   6.182   6.910
  918TIP3    H124313   1.760   6.250   6.879
  918TIP3    H224314   1.755   6.105   6.921
  919TIP3   OH224315   4.106   5.410   0.518
  919TIP3    H124316   4.083   5.498   0.547
  919TIP3    H224317   4.174   5.424   0.452
  920TIP3   OH224318   1.004   1.240   6.475
  920TIP3    H124319   0.984   1.268   6.564
  920TIP3    H224320   1.009   1.145   6.480
  921TIP3   OH224321   0.176   4.683   8.045
  921TIP3    H124322   0.108   4.722   7.989
  921TIP3    H224323   0.156   4.590   8.046
  922TIP3   OH224324   0.873   5.702   8.426
  922TIP3    H124325   0.909   5.640   8.490
  922TIP3    H224326   0.938   5.706   8.356
  923TIP3   OH224327   3.699   2.416   0.298
  923TIP3    H124328   3.692   2.320   0.297
  923TIP3    H224329   3.608   2.446   0.304
  924TIP3   OH224330   3.206   2.622   7.657
  924TIP3    H124331   3.224   2.705   7.613
  924TIP3    H224332   3.136   2.583   7.606
  925TIP3   OH224333   6.416   0.231   7.806
  925TIP3    H124334   6.437   0.252   7.897
  925TIP3    H224335   6.334   0.278   7.789
  926TIP3   OH224336   4.585   1.747   8.483
  926TIP3    H124337   4.504   1.750   8.534
  926TIP3    H224338   4.637   1.677   8.523
  927TIP3   OH224339   0.234   6.691   7.024
  927TIP3    H124340   0.181   6.769   7.036
  927TIP3    H224341   0.187   6.640   6.957
  928TIP3   OH224342   6.350   0.529   0.453
  928TIP3    H124343   6.425   0.564   0.405
  928TIP3    H224344   6.358   0.434   0.443
  929TIP3   OH224345   4.678   2.488   7.204
  929TIP3    H124346   4.711   2.576   7.225
  929TIP3    H224347   4.587   2.503   7.176
  930TIP3   OH224348   3.189   5.069   0.689
  930TIP3    H124349   3.238   5.150   0.702
  930TIP3    H224350   3.254   5.006   0.659
  931TIP3   OH224351   1.479   1.541   8.264
  931TIP3    H124352   1.433   1.458   8.275
  931TIP3    H224353   1.414   1.607   8.287
  932TIP3   OH224354   0.808   4.317   2.050
  932TIP3    H124355   0.719   4.309   2.083
  932TIP3    H224356   0.838   4.403   2.080
  933TIP3   OH224357   6.386   3.525   0.552
  933TIP3    H124358   6.333   3.447   0.567
  933TIP3    H224359   6.434   3.538   0.634
  934TIP3   OH224360   0.192   6.664   0.879
  934TIP3    H124361   0.260   6.599   0.897
  934TIP3    H224362   0.151   6.681   0.964
  935TIP3   OH224363   5.630   6.000   7.042
  935TIP3    H124364   5.657   5.910   7.060
  935TIP3    H224365   5.540   6.005   7.075
  936TIP3   OH224366   2.866   5.126   7.211
  936TIP3    H124367   2.907   5.040   7.205
  936TIP3    H224368   2.938   5.188   7.201
  937TIP3   OH224369   0.086   6.070   7.926
  937TIP3    H124370   0.176   6.102   7.938
  937TIP3    H224371   0.075   6.067   7.831
  938TIP3   OH224372   6.262   4.746   2.154
  938TIP3    H124373   6.308   4.743   2.070
  938TIP3    H224374   6.191   4.809   2.141
  939TIP3   OH224375   1.547   5.812   0.939
  939TIP3    H124376   1.572   5.884   0.996
  939TIP3    H224377   1.628   5.762   0.927
  940TIP3   OH224378   0.745   5.492   8.203
  940TIP3    H124379   0.777   5.566   8.255
  940TIP3    H224380   0.804   5.420   8.225
  941TIP3   OH224381   4.048   1.751   1.664
  941TIP3    H124382   3.999   1.710   1.592
  941TIP3    H224383   4.140   1.738   1.640
  942TIP3   OH224384   5.848   3.389   6.895
  942TIP3    H124385   5.871   3.476   6.862
  942TIP3    H224386   5.917   3.332   6.861
  943TIP3   OH224387   4.844   3.355   6.917
  943TIP3    H124388   4.897   3.372   6.839
  943TIP3    H224389   4.770   3.415   6.910
  944TIP3   OH224390   1.382   2.335   8.229
  944TIP3    H124391   1.371   2.369   8.318
  944TIP3    H224392   1.427   2.251   8.241
  945TIP3   OH224393   5.102   0.778   1.225
  945TIP3    H124394   5.006   0.778   1.232
  945TIP3    H224395   5.119   0.758   1.133
  946TIP3   OH224396   6.398   4.762   6.377
  946TIP3    H124397   6.462   4.832   6.381
  946TIP3    H224398   6.330   4.787   6.439
  947TIP3   OH224399   4.192   6.220   6.453
  947TIP3    H124400   4.108   6.174   6.442
  947TIP3    H224401   4.171   6.312   6.436
  948TIP3   OH224402   5.689   5.066   1.297
  948TIP3    H124403   5.697   5.132   1.228
  948TIP3    H224404   5.619   5.099   1.354
  949TIP3   OH224405   1.089   3.578   1.669
  949TIP3    H124406   1.182   3.600   1.677
  949TIP3    H224407   1.088   3.487   1.642
  950TIP3   OH224408   0.832   3.274   1.467
  950TIP3    H124409   0.750   3.230   1.490
  950TIP3    H224410   0.824   3.292   1.373
  951TIP3   OH224411   5.511   0.995   1.696
  951TIP3    H124412   5.530   0.984   1.789
  951TIP3    H224413   5.562   0.927   1.652
  952TIP3   OH224414   3.073   5.036   1.191
  952TIP3    H124415   3.102   5.001   1.107
  952TIP3    H224416   3.003   4.977   1.218
  953TIP3   OH224417   6.404   5.943   2.456
  953TIP3    H124418   6.499   5.940   2.463
  953TIP3    H224419   6.374   5.962   2.545
  954TIP3   OH224420   6.744   5.422   8.131
  954TIP3    H124421   6.765   5.329   8.122
  954TIP3    H224422   6.649   5.425   8.142
  955TIP3   OH224423   2.844   1.908   1.339
  955TIP3    H124424   2.822   1.930   1.249
  955TIP3    H224425   2.776   1.950   1.392
  956TIP3   OH224426   4.777   4.414   8.002
  956TIP3    H124427   4.712   4.480   8.027
  956TIP3    H224428   4.797   4.433   7.911
  957TIP3   OH224429   5.658   0.887   0.400
  957TIP3    H124430   5.693   0.968   0.438
  957TIP3    H224431   5.564   0.894   0.411
  958TIP3   OH224432   1.161   0.250   1.152
  958TIP3    H124433   1.148   0.227   1.060
  958TIP3    H224434   1.132   0.341   1.159
  959TIP3   OH224435   4.766   3.337   0.558
  959TIP3    H124436   4.798   3.378   0.639
  959TIP3    H224437   4.813   3.253   0.554
  960TIP3   OH224438   5.485   1.815   7.218
  960TIP3    H124439   5.502   1.891   7.274
  960TIP3    H224440   5.519   1.840   7.133
  961TIP3   OH224441   2.859   5.189   6.942
  961TIP3    H124442   2.765   5.179   6.931
  961TIP3    H224443   2.878   5.152   7.029
  962TIP3   OH224444   4.757   2.259   0.247
  962TIP3    H124445   4.824   2.298   0.191
  962TIP3    H224446   4.791   2.173   0.270
  963TIP3   OH224447   3.581   5.060   1.172
  963TIP3    H124448   3.574   4.993   1.104
  963TIP3    H224449   3.620   5.135   1.128
  964TIP3   OH224450   4.590   1.955   2.135
  964TIP3    H124451   4.574   1.882   2.196
  964TIP3    H224452   4.561   2.032   2.183
  965TIP3   OH224453   3.872   4.950   0.858
  965TIP3    H124454   3.924   4.873   0.881
  965TIP3    H224455   3.929   5.024   0.879
  966TIP3   OH224456   6.554   5.918   2.105
  966TIP3    H124457   6.510   5.838   2.133
  966TIP3    H224458   6.643   5.890   2.082
  967TIP3   OH224459   6.164   4.994   2.017
  967TIP3    H124460   6.135   5.082   1.993
  967TIP3    H224461   6.176   4.949   1.933
  968TIP3   OH224462   6.223   0.420   6.720
  968TIP3    H124463   6.252   0.497   6.672
  968TIP3    H224464   6.180   0.365   6.655
  969TIP3   OH224465   1.058   6.739   7.255
  969TIP3    H124466   1.020   6.818   7.215
  969TIP3    H224467   0.987   6.675   7.253
  970TIP3   OH224468   5.051   4.490   7.485
  970TIP3    H124469   5.058   4.471   7.579
  970TIP3    H224470   5.111   4.564   7.472
  971TIP3   OH224471   0.824   1.311   2.245
  971TIP3    H124472   0.883   1.295   2.320
  971TIP3    H224473   0.829   1.231   2.193
  972TIP3   OH224474   5.357   5.459   1.411
  972TIP3    H124475   5.314   5.437   1.494
  972TIP3    H224476   5.440   5.410   1.413
  973TIP3   OH224477   6.053   2.535   2.059
  973TIP3    H124478   6.021   2.621   2.087
  973TIP3    H224479   6.057   2.484   2.140
  974TIP3   OH224480   3.148   1.413   7.689
  974TIP3    H124481   3.237   1.406   7.656
  974TIP3    H224482   3.156   1.454   7.775
  975TIP3   OH224483   0.952   1.754   6.997
  975TIP3    H124484   0.991   1.824   7.048
  975TIP3    H224485   1.027   1.706   6.961
  976TIP3   OH224486   2.104   4.429   8.158
  976TIP3    H124487   2.099   4.350   8.211
  976TIP3    H224488   2.013   4.456   8.147
  977TIP3   OH224489   1.035   5.469   7.499
  977TIP3    H124490   1.110   5.476   7.558
  977TIP3    H224491   0.975   5.410   7.545
  978TIP3   OH224492   3.821   6.082   6.928
  978TIP3    H124493   3.732   6.057   6.902
  978TIP3    H224494   3.852   6.137   6.856
  979TIP3   OH224495   4.880   5.351   6.744
  979TIP3    H124496   4.823   5.281   6.775
  979TIP3    H224497   4.847   5.430   6.787
  980TIP3   OH224498   4.650   1.554   6.886
  980TIP3    H124499   4.618   1.645   6.887
  980TIP3    H224500   4.617   1.517   6.804
  981TIP3   OH224501   6.063   5.958   2.313
  981TIP3    H124502   6.097   5.947   2.401
  981TIP3    H224503   6.021   6.044   2.314
  982TIP3   OH224504   0.306   1.225   8.382
  982TIP3    H124505   0.283   1.303   8.331
  982TIP3    H224506   0.313   1.155   8.316
  983TIP3   OH224507   1.810   1.253   7.390
  983TIP3    H124508   1.885   1.300   7.427
  983TIP3    H224509   1.848   1.189   7.330
  984TIP3   OH224510   5.501   1.239   1.575
  984TIP3    H124511   5.498   1.315   1.634
  984TIP3    H224512   5.519   1.165   1.633
  985TIP3   OH224513   6.274   6.768   7.198
  985TIP3    H124514   6.306   6.763   7.289
  985TIP3    H224515   6.313   6.693   7.155
  986TIP3   OH224516   1.353   6.212   8.655
  986TIP3    H124517   1.371   6.119   8.641
  986TIP3    H224518   1.336   6.219   0.015
  987TIP3   OH224519   2.856   3.787   6.714
  987TIP3    H124520   2.863   3.882   6.710
  987TIP3    H224521   2.781   3.771   6.771
  988TIP3   OH224522   6.660   4.092   1.412
  988TIP3    H124523   6.592   4.102   1.479
  988TIP3    H224524   6.710   4.174   1.416
  989TIP3   OH224525   2.382   0.795   2.492
  989TIP3    H124526   2.363   0.739   2.567
  989TIP3    H224527   2.299   0.836   2.471
  990TIP3   OH224528   3.258   0.779   8.683
  990TIP3    H124529   3.334   0.748   8.733
  990TIP3    H224530   3.285   0.865   8.650
  991TIP3   OH224531   0.160   5.951   8.344
  991TIP3    H124532   0.111   5.870   8.354
  991TIP3    H224533   0.235   5.927   8.289
  992TIP3   OH224534   1.598   1.009   6.305
  992TIP3    H124535   1.537   1.071   6.344
  992TIP3    H224536   1.615   0.944   6.374
  993TIP3   OH224537   0.122   6.118   7.222
  993TIP3    H124538   0.145   6.153   7.136
  993TIP3    H224539   0.182   6.045   7.236
  994TIP3   OH224540   6.507   4.380   0.565
  994TIP3    H124541   6.451   4.403   0.491
  994TIP3    H224542   6.450   4.390   0.642
  995TIP3   OH224543   6.447   0.307   0.348
  995TIP3    H124544   6.523   0.342   0.302
  995TIP3    H224545   6.415   0.236   0.291
  996TIP3   OH224546   4.007   5.523   7.267
  996TIP3    H124547   3.971   5.559   7.348
  996TIP3    H224548   3.942   5.459   7.238
  997TIP3   OH224549   6.759   1.913   1.460
  997TIP3    H124550   0.012   1.929   1.467
  997TIP3    H224551   6.718   1.998   1.477
  998TIP3   OH224552   6.734   0.175   8.334
  998TIP3    H124553   6.750   0.249   8.392
  998TIP3    H224554   6.798   0.109   8.360
  999TIP3   OH224555   4.010   1.772   2.450
  999TIP3    H124556   4.042   1.715   2.520
  999TIP3    H224557   3.939   1.722   2.410
 1000TIP3   OH224558   6.384   5.428   7.607
 1000TIP3    H124559   6.385   5.523   7.604
 1000TIP3    H224560   6.294   5.404   7.586
 1001TIP3   OH224561   4.288   5.041   8.263
 1001TIP3    H124562   4.382   5.062   8.263
 1001TIP3    H224563   4.285   4.946   8.268
 1002TIP3   OH224564   0.878   1.567   8.136
 1002TIP3    H124565   0.852   1.610   8.218
 1002TIP3    H224566   0.806   1.587   8.075
 1003TIP3   OH224567   3.577   3.656   8.687
 1003TIP3    H124568   3.623   3.575   8.709
 1003TIP3    H224569   3.497   3.627   8.643
 1004TIP3   OH224570   0.893   0.567   7.343
 1004TIP3    H124571   0.945   0.594   7.418
 1004TIP3    H224572   0.841   0.493   7.375
 1005TIP3   OH224573   6.784   0.363   1.203
 1005TIP3    H124574   6.814   0.398   1.287
 1005TIP3    H224575   6.766   0.271   1.221
 1006TIP3   OH224576   1.359   1.406   0.535
 1006TIP3    H124577   1.275   1.440   0.566
 1006TIP3    H224578   1.390   1.472   0.473
 1007TIP3   OH224579   1.614   4.207   2.228
 1007TIP3    H124580   1.672   4.160   2.288
 1007TIP3    H224581   1.674   4.257   2.172
 1008TIP3   OH224582   5.261   2.938   0.567
 1008TIP3    H124583   5.297   3.000   0.504
 1008TIP3    H224584   5.177   2.975   0.592
 1009TIP3   OH224585   3.275   1.697   0.715
 1009TIP3    H124586   3.274   1.789   0.742
 1009TIP3    H224587   3.263   1.649   0.796
 1010TIP3   OH224588   2.047   6.371   7.523
 1010TIP3    H124589   2.079   6.302   7.465
 1010TIP3    H224590   2.067   6.340   7.611
 1011TIP3   OH224591   3.263   4.436   7.181
 1011TIP3    H124592   3.279   4.519   7.137
 1011TIP3    H224593   3.177   4.448   7.224
 1012TIP3   OH224594   6.726   2.037   6.443
 1012TIP3    H124595   6.820   2.030   6.432
 1012TIP3    H224596   6.695   2.078   6.362
 1013TIP3   OH224597   6.762   4.919   8.567
 1013TIP3    H124598   6.744   5.007   8.534
 1013TIP3    H224599   0.007   4.897   8.531
 1014TIP3   OH224600   3.484   5.058   7.985
 1014TIP3    H124601   3.421   5.128   7.967
 1014TIP3    H224602   3.477   5.000   7.909
 1015TIP3   OH224603   0.640   0.490   7.239
 1015TIP3    H124604   0.621   0.409   7.285
 1015TIP3    H224605   0.736   0.498   7.242
 1016TIP3   OH224606   2.948   4.975   8.054
 1016TIP3    H124607   2.889   4.928   8.113
 1016TIP3    H224608   2.928   5.067   8.069
 1017TIP3   OH224609   3.190   0.117   1.513
 1017TIP3    H124610   3.109   0.166   1.496
 1017TIP3    H224611   3.196   0.055   1.441
 1018TIP3   OH224612   1.209   1.975   0.490
 1018TIP3    H124613   1.258   2.038   0.543
 1018TIP3    H224614   1.247   1.982   0.403
 1019TIP3   OH224615   1.819   4.199   1.752
 1019TIP3    H124616   1.896   4.157   1.714
 1019TIP3    H224617   1.845   4.223   1.841
 1020TIP3   OH224618   5.828   0.648   0.040
 1020TIP3    H124619   5.823   0.730   0.090
 1020TIP3    H224620   5.921   0.625   0.041
 1021TIP3   OH224621   0.347   2.453   1.348
 1021TIP3    H124622   0.399   2.395   1.293
 1021TIP3    H224623   0.404   2.528   1.365
 1022TIP3   OH224624   3.414   3.873   0.998
 1022TIP3    H124625   3.426   3.834   1.085
 1022TIP3    H224626   3.432   3.966   1.011
 1023TIP3   OH224627   3.410   2.593   0.856
 1023TIP3    H124628   3.335   2.551   0.896
 1023TIP3    H224629   3.432   2.537   0.781
 1024TIP3   OH224630   0.374   1.822   0.080
 1024TIP3    H124631   0.403   1.820   8.723
 1024TIP3    H224632   0.455   1.816   0.131
 1025TIP3   OH224633   0.416   6.546   1.259
 1025TIP3    H124634   0.460   6.627   1.232
 1025TIP3    H224635   0.411   6.551   1.354
 1026TIP3   OH224636   0.141   5.577   1.361
 1026TIP3    H124637   0.071   5.574   1.426
 1026TIP3    H224638   0.219   5.546   1.407
 1027TIP3   OH224639   6.235   2.173   1.221
 1027TIP3    H124640   6.289   2.227   1.164
 1027TIP3    H224641   6.251   2.207   1.309
 1028TIP3   OH224642   1.182   5.249   0.294
 1028TIP3    H124643   1.170   5.275   0.386
 1028TIP3    H224644   1.273   5.268   0.275
 1029TIP3   OH224645   1.914   6.503   8.457
 1029TIP3    H124646   1.999   6.509   8.498
 1029TIP3    H224647   1.852   6.532   8.523
 1030TIP3   OH224648   1.019   1.785   0.548
 1030TIP3    H124649   1.090   1.847   0.532
 1030TIP3    H224650   0.979   1.815   0.630
 1031TIP3   OH224651   5.966   6.746   7.295
 1031TIP3    H124652   5.911   6.794   7.358
 1031TIP3    H224653   5.989   6.812   7.229
 1032TIP3   OH224654   1.132   4.032   0.602
 1032TIP3    H124655   1.196   4.052   0.533
 1032TIP3    H224656   1.141   3.938   0.618
 1033TIP3   OH224657   5.300   3.480   1.742
 1033TIP3    H124658   5.232   3.503   1.805
 1033TIP3    H224659   5.381   3.510   1.782
 1034TIP3   OH224660   0.952   3.016   1.594
 1034TIP3    H124661   0.907   3.092   1.630
 1034TIP3    H224662   1.045   3.039   1.596
 1035TIP3   OH224663   0.338   4.321   8.562
 1035TIP3    H124664   0.390   4.247   8.530
 1035TIP3    H224665   0.403   4.388   8.584
 1036TIP3   OH224666   0.724   5.878   1.529
 1036TIP3    H124667   0.637   5.859   1.565
 1036TIP3    H224668   0.770   5.794   1.533
 1037TIP3   OH224669   1.633   4.324   1.080
 1037TIP3    H124670   1.686   4.330   1.159
 1037TIP3    H224671   1.594   4.411   1.070
 1038TIP3   OH224672   3.334   3.573   8.599
 1038TIP3    H124673   3.309   3.598   8.510
 1038TIP3    H224674   3.253   3.580   8.650
 1039TIP3   OH224675   6.039   3.310   0.799
 1039TIP3    H124676   6.111   3.287   0.858
 1039TIP3    H224677   6.004   3.391   0.836
 1040TIP3   OH224678   1.331   1.514   7.724
 1040TIP3    H124679   1.342   1.541   7.815
 1040TIP3    H224680   1.258   1.566   7.692
 1041TIP3   OH224681   2.721   4.086   8.240
 1041TIP3    H124682   2.645   4.131   8.202
 1041TIP3    H224683   2.794   4.109   8.182
 1042TIP3   OH224684   2.247   5.187   8.313
 1042TIP3    H124685   2.290   5.117   8.363
 1042TIP3    H224686   2.264   5.163   8.221
 1043TIP3   OH224687   6.051   5.688   8.506
 1043TIP3    H124688   6.085   5.732   8.584
 1043TIP3    H224689   6.049   5.756   8.439
 1044TIP3   OH224690   6.057   3.534   8.497
 1044TIP3    H124691   6.130   3.571   8.546
 1044TIP3    H224692   5.989   3.517   8.563
 1045TIP3   OH224693   3.732   6.185   7.309
 1045TIP3    H124694   3.710   6.244   7.381
 1045TIP3    H224695   3.803   6.131   7.344
 1046TIP3   OH224696   3.793   6.070   0.213
 1046TIP3    H124697   3.843   6.008   0.266
 1046TIP3    H224698   3.812   6.044   0.122
 1047TIP3   OH224699   4.520   2.328   8.219
 1047TIP3    H124700   4.438   2.334   8.267
 1047TIP3    H224701   4.513   2.397   8.152
 1048TIP3   OH224702   2.871   0.120   7.391
 1048TIP3    H124703   2.881   0.034   7.429
 1048TIP3    H224704   2.777   0.128   7.373
 1049TIP3   OH224705   5.733   5.849   0.488
 1049TIP3    H124706   5.812   5.797   0.507
 1049TIP3    H224707   5.690   5.860   0.573
 1050TIP3   OH224708   2.613   2.008   2.379
 1050TIP3    H124709   2.539   1.990   2.436
 1050TIP3    H224710   2.672   2.062   2.431
 1051TIP3   OH224711   0.388   1.708   0.712
 1051TIP3    H124712   0.428   1.627   0.744
 1051TIP3    H224713   0.383   1.697   0.618
 1052TIP3   OH224714   3.669   3.052   6.335
 1052TIP3    H124715   3.641   3.107   6.261
 1052TIP3    H224716   3.721   3.111   6.390
 1053TIP3   OH224717   5.345   4.143   7.149
 1053TIP3    H124718   5.431   4.179   7.167
 1053TIP3    H224719   5.326   4.168   7.059
 1054TIP3   OH224720   3.399   5.704   7.719
 1054TIP3    H124721   3.451   5.758   7.778
 1054TIP3    H224722   3.462   5.642   7.682
 1055TIP3   OH224723   1.362   3.865   8.620
 1055TIP3    H124724   1.384   3.867   8.527
 1055TIP3    H224725   1.438   3.823   8.661
 1056TIP3   OH224726   6.280   2.328   6.610
 1056TIP3    H124727   6.205   2.329   6.550
 1056TIP3    H224728   6.328   2.408   6.589
 1057TIP3   OH224729   6.540   2.437   7.734
 1057TIP3    H124730   6.627   2.452   7.696
 1057TIP3    H224731   6.488   2.402   7.661
 1058TIP3   OH224732   1.321   0.509   1.359
 1058TIP3    H124733   1.357   0.590   1.394
 1058TIP3    H224734   1.233   0.503   1.397
 1059TIP3   OH224735   3.011   0.323   8.379
 1059TIP3    H124736   3.014   0.387   8.308
 1059TIP3    H224737   3.077   0.353   8.441
 1060TIP3   OH224738   0.090   0.100   1.977
 1060TIP3    H124739   0.155   0.072   2.041
 1060TIP3    H224740   0.006   0.091   2.021
 1061TIP3   OH224741   0.965   4.002   8.129
 1061TIP3    H124742   1.028   3.950   8.179
 1061TIP3    H224743   1.019   4.058   8.073
 1062TIP3   OH224744   0.971   5.760   6.194
 1062TIP3    H124745   1.037   5.735   6.258
 1062TIP3    H224746   0.888   5.752   6.241
 1063TIP3   OH224747   4.813   0.035   8.590
 1063TIP3    H124748   4.757   0.078   8.525
 1063TIP3    H224749   4.811   6.783   8.566
 1064TIP3   OH224750   4.255   2.755   8.243
 1064TIP3    H124751   4.279   2.663   8.244
 1064TIP3    H224752   4.159   2.755   8.248
 1065TIP3   OH224753   2.672   0.454   1.712
 1065TIP3    H124754   2.682   0.472   1.619
 1065TIP3    H224755   2.762   0.442   1.744
 1066TIP3   OH224756   2.898   1.489   7.418
 1066TIP3    H124757   2.982   1.501   7.373
 1066TIP3    H224758   2.833   1.522   7.356
 1067TIP3   OH224759   2.115   5.555   8.120
 1067TIP3    H124760   2.033   5.509   8.137
 1067TIP3    H224761   2.118   5.624   8.186
 1068TIP3   OH224762   1.542   2.682   8.448
 1068TIP3    H124763   1.578   2.610   8.397
 1068TIP3    H224764   1.451   2.657   8.465
 1069TIP3   OH224765   6.827   0.943   8.402
 1069TIP3    H124766   0.008   0.885   8.330
 1069TIP3    H224767   0.017   1.029   8.373
 1070TIP3   OH224768   1.364   3.049   7.635
 1070TIP3    H124769   1.343   2.958   7.657
 1070TIP3    H224770   1.341   3.098   7.714
 1071TIP3   OH224771   3.115   2.457   0.717
 1071TIP3    H124772   3.186   2.459   0.782
 1071TIP3    H224773   3.125   2.372   0.674
 1072TIP3   OH224774   4.887   1.554   0.759
 1072TIP3    H124775   4.836   1.486   0.804
 1072TIP3    H224776   4.866   1.634   0.806
 1073TIP3   OH224777   4.670   5.426   0.401
 1073TIP3    H124778   4.645   5.351   0.456
 1073TIP3    H224779   4.764   5.412   0.385
 1074TIP3   OH224780   4.851   5.575   6.935
 1074TIP3    H124781   4.806   5.626   6.868
 1074TIP3    H224782   4.943   5.575   6.909
 1075TIP3   OH224783   4.251   6.227   8.115
 1075TIP3    H124784   4.254   6.198   8.206
 1075TIP3    H224785   4.218   6.317   8.119
 1076TIP3   OH224786   4.398   4.087   1.198
 1076TIP3    H124787   4.344   4.165   1.210
 1076TIP3    H224788   4.362   4.045   1.119
 1077TIP3   OH224789   3.597   4.188   1.363
 1077TIP3    H124790   3.692   4.187   1.355
 1077TIP3    H224791   3.569   4.268   1.319
 1078TIP3   OH224792   2.482   0.833   1.452
 1078TIP3    H124793   2.387   0.827   1.438
 1078TIP3    H224794   2.497   0.782   1.531
 1079TIP3   OH224795   6.213   0.882   0.747
 1079TIP3    H124796   6.205   0.910   0.838
 1079TIP3    H224797   6.301   0.843   0.742
 1080TIP3   OH224798   5.324   1.851   0.504
 1080TIP3    H124799   5.234   1.823   0.523
 1080TIP3    H224800   5.378   1.775   0.526
 1081TIP3   OH224801   0.392   3.412   8.543
 1081TIP3    H124802   0.366   3.494   8.502
 1081TIP3    H224803   0.391   3.348   8.472
 1082TIP3   OH224804   0.993   6.287   0.733
 1082TIP3    H124805   1.059   6.254   0.794
 1082TIP3    H224806   0.990   6.222   0.663
 1083TIP3   OH224807   0.598   2.859   7.961
 1083TIP3    H124808   0.571   2.942   7.921
 1083TIP3    H224809   0.547   2.854   8.042
 1084TIP3   OH224810   2.956   2.796   0.762
 1084TIP3    H124811   2.985   2.843   0.685
 1084TIP3    H224812   3.026   2.734   0.781
 1085TIP3   OH224813   4.600   0.628   2.707
 1085TIP3    H124814   4.648   0.708   2.686
 1085TIP3    H224815   4.626   0.566   2.640
 1086TIP3   OH224816   1.493   4.599   7.536
 1086TIP3    H124817   1.545   4.628   7.611
 1086TIP3    H224818   1.473   4.507   7.554
 1087TIP3   OH224819   3.002   0.470   7.144
 1087TIP3    H124820   3.075   0.484   7.083
 1087TIP3    H224821   2.939   0.539   7.123
 1088TIP3   OH224822   3.003   3.076   6.852
 1088TIP3    H124823   3.097   3.085   6.839
 1088TIP3    H224824   2.989   3.095   6.945
 1089TIP3   OH224825   3.937   5.366   8.143
 1089TIP3    H124826   3.900   5.279   8.128
 1089TIP3    H224827   4.009   5.372   8.081
 1090TIP3   OH224828   2.282   2.963   7.272
 1090TIP3    H124829   2.343   2.952   7.198
 1090TIP3    H224830   2.317   3.039   7.319
 1091TIP3   OH224831   3.822   6.533   7.319
 1091TIP3    H124832   3.739   6.487   7.333
 1091TIP3    H224833   3.822   6.554   7.226
 1092TIP3   OH224834   0.359   4.699   0.534
 1092TIP3    H124835   0.272   4.717   0.499
 1092TIP3    H224836   0.399   4.639   0.471
 1093TIP3   OH224837   2.552   6.297   1.516
 1093TIP3    H124838   2.511   6.382   1.500
 1093TIP3    H224839   2.645   6.313   1.505
 1094TIP3   OH224840   5.537   3.216   0.468
 1094TIP3    H124841   5.478   3.255   0.533
 1094TIP3    H224842   5.570   3.291   0.418
 1095TIP3   OH224843   6.303   3.460   1.215
 1095TIP3    H124844   6.242   3.510   1.162
 1095TIP3    H224845   6.284   3.486   1.305
 1096TIP3   OH224846   5.741   0.884   0.707
 1096TIP3    H124847   5.826   0.854   0.675
 1096TIP3    H224848   5.678   0.821   0.672
 1097TIP3   OH224849   3.871   4.418   7.865
 1097TIP3    H124850   3.893   4.437   7.773
 1097TIP3    H224851   3.928   4.476   7.915
 1098TIP3   OH224852   5.740   5.055   8.005
 1098TIP3    H124853   5.759   4.968   8.042
 1098TIP3    H224854   5.667   5.087   8.057
 1099TIP3   OH224855   1.981   2.755   8.026
 1099TIP3    H124856   2.065   2.797   8.042
 1099TIP3    H224857   1.918   2.809   8.073
 1100TIP3   OH224858   2.144   1.971   2.172
 1100TIP3    H124859   2.073   1.925   2.218
 1100TIP3    H224860   2.105   1.997   2.088
 1101TIP3   OH224861   1.692   1.004   1.805
 1101TIP3    H124862   1.727   1.076   1.753
 1101TIP3    H224863   1.751   0.997   1.880
 1102TIP3   OH224864   1.571   2.511   7.166
 1102TIP3    H124865   1.499   2.563   7.201
 1102TIP3    H224866   1.648   2.568   7.175
 1103TIP3   OH224867   2.524   1.346   7.753
 1103TIP3    H124868   2.601   1.315   7.707
 1103TIP3    H224869   2.539   1.322   7.844
 1104TIP3   OH224870   6.733   2.787   8.714
 1104TIP3    H124871   6.692   2.714   0.027
 1104TIP3    H224872   6.827   2.772   8.723
 1105TIP3   OH224873   3.239   5.638   0.827
 1105TIP3    H124874   3.183   5.645   0.905
 1105TIP3    H224875   3.232   5.547   0.800
 1106TIP3   OH224876   4.586   0.595   2.370
 1106TIP3    H124877   4.521   0.525   2.377
 1106TIP3    H224878   4.653   0.572   2.433
 1107TIP3   OH224879   6.018   0.465   6.926
 1107TIP3    H124880   6.028   0.450   7.020
 1107TIP3    H224881   6.107   0.458   6.891
 1108TIP3   OH224882   6.725   1.110   0.314
 1108TIP3    H124883   6.681   1.024   0.317
 1108TIP3    H224884   6.669   1.167   0.367
 1109TIP3   OH224885   1.076   3.309   1.609
 1109TIP3    H124886   1.136   3.235   1.601
 1109TIP3    H224887   1.011   3.296   1.539
 1110TIP3   OH224888   4.569   2.507   7.996
 1110TIP3    H124889   4.615   2.574   7.946
 1110TIP3    H224890   4.495   2.554   8.037
 1111TIP3   OH224891   6.708   2.281   6.213
 1111TIP3    H124892   6.615   2.300   6.226
 1111TIP3    H224893   6.721   2.289   6.119
 1112TIP3   OH224894   6.060   4.167   0.420
 1112TIP3    H124895   5.986   4.196   0.473
 1112TIP3    H224896   6.042   4.200   0.332
 1113TIP3   OH224897   1.725   2.325   7.013
 1113TIP3    H124898   1.673   2.365   7.082
 1113TIP3    H224899   1.815   2.323   7.047
 1114TIP3   OH224900   0.826   0.417   1.772
 1114TIP3    H124901   0.843   0.511   1.777
 1114TIP3    H224902   0.908   0.380   1.737
 1115TIP3   OH224903   4.567   5.137   1.686
 1115TIP3    H124904   4.485   5.110   1.729
 1115TIP3    H224905   4.570   5.232   1.700
 1116TIP3   OH224906   4.378   3.184   7.822
 1116TIP3    H124907   4.387   3.223   7.735
 1116TIP3    H224908   4.384   3.258   7.882
 1117TIP3   OH224909   6.811   5.484   1.166
 1117TIP3    H124910   6.745   5.550   1.188
 1117TIP3    H224911   0.034   5.488   1.237
 1118TIP3   OH224912   2.955   6.077   0.782
 1118TIP3    H124913   2.935   6.067   0.875
 1118TIP3    H224914   2.945   5.989   0.746
 1119TIP3   OH224915   1.756   0.056   6.725
 1119TIP3    H124916   1.709   0.118   6.670
 1119TIP3    H224917   1.700   6.819   6.726
 1120TIP3   OH224918   0.771   2.973   2.036
 1120TIP3    H124919   0.772   2.950   1.943
 1120TIP3    H224920   0.679   2.993   2.054
 1121TIP3   OH224921   3.625   2.869   8.175
 1121TIP3    H124922   3.589   2.797   8.228
 1121TIP3    H224923   3.567   2.875   8.099
 1122TIP3   OH224924   6.479   5.531   1.402
 1122TIP3    H124925   6.429   5.572   1.332
 1122TIP3    H224926   6.413   5.493   1.459
 1123TIP3   OH224927   4.527   4.299   7.873
 1123TIP3    H124928   4.516   4.350   7.792
 1123TIP3    H224929   4.621   4.302   7.891
 1124TIP3   OH224930   3.463   2.818   1.657
 1124TIP3    H124931   3.552   2.829   1.690
 1124TIP3    H224932   3.408   2.857   1.725
 1125TIP3   OH224933   5.290   6.126   0.983
 1125TIP3    H124934   5.250   6.173   1.055
 1125TIP3    H224935   5.236   6.148   0.907
 1126TIP3   OH224936   6.391   1.035   1.661
 1126TIP3    H124937   6.443   1.043   1.580
 1126TIP3    H224938   6.382   0.941   1.673
 1127TIP3   OH224939   2.982   3.631   1.382
 1127TIP3    H124940   2.953   3.615   1.472
 1127TIP3    H224941   2.906   3.670   1.339
 1128TIP3   OH224942   4.999   1.419   1.083
 1128TIP3    H124943   4.922   1.386   1.036
 1128TIP3    H224944   5.005   1.511   1.055
 1129TIP3   OH224945   2.705   4.989   0.418
 1129TIP3    H124946   2.777   5.048   0.394
 1129TIP3    H224947   2.737   4.902   0.395
 1130TIP3   OH224948   2.000   0.979   1.914
 1130TIP3    H124949   1.950   0.976   1.995
 1130TIP3    H224950   1.973   0.901   1.866
 1131TIP3   OH224951   0.787   4.116   8.552
 1131TIP3    H124952   0.819   4.141   8.638
 1131TIP3    H224953   0.834   4.036   8.530
 1132TIP3   OH224954   2.809   5.176   8.244
 1132TIP3    H124955   2.884   5.138   8.290
 1132TIP3    H224956   2.774   5.240   8.305
 1133TIP3   OH224957   1.458   0.302   1.486
 1133TIP3    H124958   1.437   0.373   1.424
 1133TIP3    H224959   1.373   0.262   1.505
 1134TIP3   OH224960   0.454   1.156   0.259
 1134TIP3    H124961   0.428   1.218   0.327
 1134TIP3    H224962   0.549   1.167   0.251
 1135TIP3   OH224963   5.940   4.073   1.492
 1135TIP3    H124964   5.957   3.979   1.495
 1135TIP3    H224965   5.902   4.093   1.578
 1136TIP3   OH224966   1.758   0.725   8.168
 1136TIP3    H124967   1.826   0.657   8.166
 1136TIP3    H224968   1.714   0.717   8.083
 1137TIP3   OH224969   5.005   2.085   8.605
 1137TIP3    H124970   4.922   2.066   8.561
 1137TIP3    H224971   5.071   2.077   8.537
 1138TIP3   OH224972   4.765   0.449   7.913
 1138TIP3    H124973   4.815   0.483   7.987
 1138TIP3    H224974   4.758   0.355   7.931
 1139TIP3   OH224975   5.869   1.969   6.598
 1139TIP3    H124976   5.957   2.002   6.580
 1139TIP3    H224977   5.813   2.047   6.592
 1140TIP3   OH224978   3.540   3.203   8.671
 1140TIP3    H124979   3.553   3.280   8.726
 1140TIP3    H224980   3.463   3.160   8.708
 1141TIP3   OH224981   2.947   0.110   2.066
 1141TIP3    H124982   2.906   0.189   2.099
 1141TIP3    H224983   2.998   0.139   1.990
 1142TIP3   OH224984   2.375   4.155   8.318
 1142TIP3    H124985   2.422   4.077   8.346
 1142TIP3    H224986   2.411   4.226   8.372
 1143TIP3   OH224987   3.199   0.416   6.295
 1143TIP3    H124988   3.249   0.378   6.367
 1143TIP3    H224989   3.108   0.410   6.324
 1144TIP3   OH224990   2.645   2.845   1.211
 1144TIP3    H124991   2.613   2.911   1.150
 1144TIP3    H224992   2.677   2.774   1.154
 1145TIP3   OH224993   2.544   1.957   8.718
 1145TIP3    H124994   2.615   1.922   8.666
 1145TIP3    H224995   2.470   1.899   8.699
 1146TIP3   OH224996   4.458   3.686   0.920
 1146TIP3    H124997   4.425   3.597   0.933
 1146TIP3    H224998   4.547   3.685   0.954
 1147TIP3   OH224999   3.955   5.820   7.876
 1147TIP3    H125000   3.994   5.846   7.960
 1147TIP3    H225001   4.016   5.756   7.840
 1148TIP3   OH225002   2.946   2.794   1.072
 1148TIP3    H125003   2.924   2.708   1.108
 1148TIP3    H225004   2.894   2.800   0.992
 1149TIP3   OH225005   6.042   0.278   8.356
 1149TIP3    H125006   5.948   0.277   8.340
 1149TIP3    H225007   6.063   0.370   8.371
 1150TIP3   OH225008   1.711   2.203   8.700
 1150TIP3    H125009   1.732   2.175   0.055
 1150TIP3    H225010   1.647   2.139   8.669
 1151TIP3   OH225011   5.390   0.823   0.393
 1151TIP3    H125012   5.311   0.819   0.339
 1151TIP3    H225013   5.364   0.871   0.471
 1152TIP3   OH225014   1.074   0.547   1.472
 1152TIP3    H125015   1.070   0.590   1.558
 1152TIP3    H225016   0.984   0.523   1.452
 1153TIP3   OH225017   3.400   0.560   0.140
 1153TIP3    H125018   3.457   0.621   0.093
 1153TIP3    H225019   3.451   0.479   0.143
 1154TIP3   OH225020   0.712   5.154   1.746
 1154TIP3    H125021   0.670   5.173   1.829
 1154TIP3    H225022   0.791   5.105   1.769
 1155TIP3   OH225023   5.013   1.497   8.268
 1155TIP3    H125024   5.006   1.496   8.172
 1155TIP3    H225025   5.095   1.544   8.285
 1156TIP3   OH225026   4.174   3.420   7.502
 1156TIP3    H125027   4.205   3.431   7.592
 1156TIP3    H225028   4.079   3.409   7.511
 1157TIP3   OH225029   3.478   3.647   1.408
 1157TIP3    H125030   3.391   3.650   1.446
 1157TIP3    H225031   3.497   3.737   1.380
 1158TIP3   OH225032   1.638   1.634   0.715
 1158TIP3    H125033   1.586   1.680   0.782
 1158TIP3    H225034   1.607   1.544   0.718
 1159TIP3   OH225035   5.945   0.933   7.168
 1159TIP3    H125036   5.886   0.994   7.123
 1159TIP3    H225037   6.011   0.990   7.209
 1160TIP3   OH225038   1.881   2.565   1.639
 1160TIP3    H125039   1.879   2.629   1.711
 1160TIP3    H225040   1.895   2.481   1.683
 1161TIP3   OH225041   5.070   6.630   1.885
 1161TIP3    H125042   5.066   6.601   1.794
 1161TIP3    H225043   5.025   6.715   1.885
 1162TIP3   OH225044   1.550   4.682   6.581
 1162TIP3    H125045   1.627   4.630   6.556
 1162TIP3    H225046   1.583   4.771   6.589
 1163TIP3   OH225047   5.296   0.808   1.504
 1163TIP3    H125048   5.366   0.816   1.439
 1163TIP3    H225049   5.315   0.875   1.569
 1164TIP3   OH225050   6.685   6.133   8.445
 1164TIP3    H125051   6.671   6.219   8.407
 1164TIP3    H225052   6.633   6.074   8.391
 1165TIP3   OH225053   4.326   6.676   6.536
 1165TIP3    H125054   4.238   6.673   6.573
 1165TIP3    H225055   4.378   6.618   6.592
 1166TIP3   OH225056   0.301   2.168   8.127
 1166TIP3    H125057   0.212   2.202   8.137
 1166TIP3    H225058   0.356   2.232   8.172
 1167TIP3   OH225059   2.069   3.642   6.658
 1167TIP3    H125060   1.980   3.609   6.644
 1167TIP3    H225061   2.094   3.679   6.573
 1168TIP3   OH225062   5.456   1.342   1.027
 1168TIP3    H125063   5.408   1.317   1.106
 1168TIP3    H225064   5.388   1.366   0.964
 1169TIP3   OH225065   5.458   6.781   2.234
 1169TIP3    H125066   5.475   6.727   2.311
 1169TIP3    H225067   5.377   6.745   2.197
 1170TIP3   OH225068   2.580   6.734   6.876
 1170TIP3    H125069   2.496   6.778   6.886
 1170TIP3    H225070   2.561   6.641   6.885
 1171TIP3   OH225071   3.582   3.927   8.731
 1171TIP3    H125072   3.515   3.957   8.670
 1171TIP3    H225073   3.576   3.832   8.729
 1172TIP3   OH225074   2.544   4.465   1.413
 1172TIP3    H125075   2.482   4.483   1.342
 1172TIP3    H225076   2.603   4.399   1.376
 1173TIP3   OH225077   5.110   6.747   0.984
 1173TIP3    H125078   5.054   6.822   1.002
 1173TIP3    H225079   5.109   6.738   0.889
 1174TIP3   OH225080   4.097   6.190   8.360
 1174TIP3    H125081   4.089   6.247   8.436
 1174TIP3    H225082   4.124   6.105   8.396
 1175TIP3   OH225083   0.328   6.105   7.563
 1175TIP3    H125084   0.411   6.095   7.611
 1175TIP3    H225085   0.264   6.057   7.616
 1176TIP3   OH225086   1.088   5.150   0.580
 1176TIP3    H125087   1.041   5.223   0.539
 1176TIP3    H225088   1.022   5.083   0.593
 1177TIP3   OH225089   6.666   6.072   1.781
 1177TIP3    H125090   6.603   6.003   1.761
 1177TIP3    H225091   6.639   6.105   1.867
 1178TIP3   OH225092   2.764   4.520   8.576
 1178TIP3    H125093   2.674   4.549   8.557
 1178TIP3    H225094   2.810   4.528   8.493
 1179TIP3   OH225095   1.697   5.414   0.865
 1179TIP3    H125096   1.663   5.346   0.924
 1179TIP3    H225097   1.773   5.374   0.823
 1180TIP3   OH225098   1.564   4.596   2.130
 1180TIP3    H125099   1.594   4.680   2.166
 1180TIP3    H225100   1.636   4.535   2.149
 1181TIP3   OH225101   3.796   1.430   7.846
 1181TIP3    H125102   3.761   1.413   7.759
 1181TIP3    H225103   3.869   1.370   7.855
 1182TIP3   OH225104   4.675   2.946   0.030
 1182TIP3    H125105   4.727   2.968   0.107
 1182TIP3    H225106   4.672   2.851   0.029
 1183TIP3   OH225107   3.244   4.361   0.310
 1183TIP3    H125108   3.161   4.407   0.322
 1183TIP3    H225109   3.220   4.278   0.270
 1184TIP3   OH225110   3.100   4.432   1.998
 1184TIP3    H125111   3.021   4.472   1.960
 1184TIP3    H225112   3.076   4.416   2.090
 1185TIP3   OH225113   0.903   0.086   1.860
 1185TIP3    H125114   0.819   0.130   1.866
 1185TIP3    H225115   0.937   0.111   1.774
 1186TIP3   OH225116   1.905   2.996   7.276
 1186TIP3    H125117   1.854   3.059   7.226
 1186TIP3    H225118   1.956   2.948   7.211
 1187TIP3   OH225119   1.285   2.330   0.820
 1187TIP3    H125120   1.314   2.401   0.764
 1187TIP3    H225121   1.234   2.372   0.890
 1188TIP3   OH225122   1.888   4.601   1.537
 1188TIP3    H125123   1.811   4.594   1.593
 1188TIP3    H225124   1.874   4.682   1.487
 1189TIP3   OH225125   5.269   1.863   8.177
 1189TIP3    H125126   5.266   1.797   8.108
 1189TIP3    H225127   5.178   1.888   8.191
 1190TIP3   OH225128   4.617   2.633   6.816
 1190TIP3    H125129   4.569   2.551   6.825
 1190TIP3    H225130   4.631   2.642   6.721
 1191TIP3   OH225131   2.715   4.692   7.685
 1191TIP3    H125132   2.785   4.647   7.638
 1191TIP3    H225133   2.759   4.763   7.732
 1192TIP3   OH225134   5.602   1.657   1.274
 1192TIP3    H125135   5.695   1.667   1.295
 1192TIP3    H225136   5.579   1.572   1.310
 1193TIP3   OH225137   4.054   1.554   1.097
 1193TIP3    H125138   4.130   1.604   1.067
 1193TIP3    H225139   4.007   1.532   1.017
 1194TIP3   OH225140   5.370   5.064   8.621
 1194TIP3    H125141   5.435   5.101   8.681
 1194TIP3    H225142   5.339   5.139   8.570
 1195TIP3   OH225143   0.265   1.726   7.474
 1195TIP3    H125144   0.244   1.741   7.566
 1195TIP3    H225145   0.186   1.753   7.427
 1196TIP3   OH225146   5.543   6.394   7.925
 1196TIP3    H125147   5.565   6.480   7.960
 1196TIP3    H225148   5.459   6.372   7.965
 1197TIP3   OH225149   1.462   1.244   0.900
 1197TIP3    H125150   1.522   1.310   0.864
 1197TIP3    H225151   1.436   1.191   0.825
 1198TIP3   OH225152   0.453   3.100   0.661
 1198TIP3    H125153   0.476   3.151   0.739
 1198TIP3    H225154   0.525   3.117   0.599
 1199TIP3   OH225155   5.511   5.933   6.255
 1199TIP3    H125156   5.494   5.842   6.233
 1199TIP3    H225157   5.581   5.929   6.321
 1200TIP3   OH225158   6.150   2.883   2.034
 1200TIP3    H125159   6.081   2.842   2.087
 1200TIP3    H225160   6.102   2.924   1.961
 1201TIP3   OH225161   6.667   0.864   1.417
 1201TIP3    H125162   6.624   0.780   1.437
 1201TIP3    H225163   6.725   0.879   1.491
 1202TIP3   OH225164   0.840   3.190   6.223
 1202TIP3    H125165   0.783   3.173   6.298
 1202TIP3    H225166   0.807   3.273   6.187
 1203TIP3   OH225167   3.506   4.414   1.255
 1203TIP3    H125168   3.574   4.477   1.279
 1203TIP3    H225169   3.447   4.463   1.197
 1204TIP3   OH225170   1.534   2.058   8.541
 1204TIP3    H125171   1.473   2.054   8.467
 1204TIP3    H225172   1.594   1.985   8.527
 1205TIP3   OH225173   0.709   5.874   8.301
 1205TIP3    H125174   0.745   5.808   8.360
 1205TIP3    H225175   0.734   5.958   8.340
 1206TIP3   OH225176   2.029   6.250   0.627
 1206TIP3    H125177   2.082   6.270   0.550
 1206TIP3    H225178   1.993   6.163   0.610
 1207TIP3   OH225179   2.691   4.235   1.332
 1207TIP3    H125180   2.731   4.222   1.419
 1207TIP3    H225181   2.765   4.245   1.273
 1208TIP3   OH225182   0.431   2.858   0.040
 1208TIP3    H125183   0.467   2.877   8.688
 1208TIP3    H225184   0.480   2.916   0.099
 1209TIP3   OH225185   2.799   1.380   7.664
 1209TIP3    H125186   2.883   1.342   7.688
 1209TIP3    H225187   2.806   1.399   7.571
 1210TIP3   OH225188   0.090   1.768   1.036
 1210TIP3    H125189   0.016   1.744   1.091
 1210TIP3    H225190   0.128   1.844   1.079
 1211TIP3   OH225191   4.357   4.693   0.734
 1211TIP3    H125192   4.399   4.627   0.790
 1211TIP3    H225193   4.311   4.642   0.668
 1212TIP3   OH225194   6.437   3.110   8.195
 1212TIP3    H125195   6.429   3.025   8.238
 1212TIP3    H225196   6.532   3.126   8.191
 1213TIP3   OH225197   6.293   1.640   1.542
 1213TIP3    H125198   6.338   1.560   1.514
 1213TIP3    H225199   6.321   1.707   1.479
 1214TIP3   OH225200   5.069   1.694   1.060
 1214TIP3    H125201   5.046   1.786   1.066
 1214TIP3    H225202   5.146   1.692   1.003
 1215TIP3   OH225203   6.076   3.659   1.265
 1215TIP3    H125204   6.103   3.589   1.325
 1215TIP3    H225205   6.053   3.732   1.323
 1216TIP3   OH225206   0.174   4.977   8.216
 1216TIP3    H125207   0.203   4.915   8.149
 1216TIP3    H225208   0.131   5.047   8.168
 1217TIP3   OH225209   2.114   0.647   1.921
 1217TIP3    H125210   2.168   0.590   1.866
 1217TIP3    H225211   2.050   0.685   1.861
 1218TIP3   OH225212   2.197   0.991   7.244
 1218TIP3    H125213   2.215   0.922   7.179
 1218TIP3    H225214   2.209   1.072   7.195
 1219TIP3   OH225215   3.008   4.638   0.993
 1219TIP3    H125216   2.957   4.557   0.994
 1219TIP3    H225217   3.064   4.630   0.915
 1220TIP3   OH225218   6.234   6.064   7.890
 1220TIP3    H125219   6.212   6.147   7.933
 1220TIP3    H225220   6.194   5.997   7.946
 1221TIP3   OH225221   1.882   1.716   1.783
 1221TIP3    H125222   1.936   1.739   1.859
 1221TIP3    H225223   1.838   1.798   1.759
 1222TIP3   OH225224   4.809   4.275   0.749
 1222TIP3    H125225   4.886   4.324   0.720
 1222TIP3    H225226   4.799   4.301   0.841
 1223TIP3   OH225227   2.020   2.454   0.897
 1223TIP3    H125228   1.993   2.411   0.816
 1223TIP3    H225229   2.040   2.381   0.957
 1224TIP3   OH225230   0.269   0.541   0.444
 1224TIP3    H125231   0.199   0.586   0.492
 1224TIP3    H225232   0.320   0.612   0.405
 1225TIP3   OH225233   2.084   4.033   1.938
 1225TIP3    H125234   2.176   4.058   1.928
 1225TIP3    H225235   2.043   4.111   1.975
 1226TIP3   OH225236   4.361   2.691   1.978
 1226TIP3    H125237   4.272   2.671   1.949
 1226TIP3    H225238   4.414   2.619   1.943
 1227TIP3   OH225239   6.265   3.172   0.637
 1227TIP3    H125240   6.212   3.223   0.699
 1227TIP3    H225241   6.230   3.196   0.551
 1228TIP3   OH225242   3.491   0.959   0.499
 1228TIP3    H125243   3.567   0.910   0.467
 1228TIP3    H225244   3.510   0.976   0.591
 1229TIP3   OH225245   1.853   0.675   7.184
 1229TIP3    H125246   1.836   0.768   7.170
 1229TIP3    H225247   1.830   0.660   7.276
 1230TIP3   OH225248   1.708   1.847   8.258
 1230TIP3    H125249   1.803   1.860   8.264
 1230TIP3    H225250   1.695   1.802   8.174
 1231TIP3   OH225251   1.630   6.784   8.460
 1231TIP3    H125252   1.627   0.022   8.515
 1231TIP3    H225253   1.607   6.814   8.373
 1232TIP3   OH225254   3.945   6.670   7.928
 1232TIP3    H125255   4.002   6.727   7.980
 1232TIP3    H225256   3.857   6.700   7.948
 1233TIP3   OH225257   6.296   3.765   7.970
 1233TIP3    H125258   6.307   3.671   7.988
 1233TIP3    H225259   6.322   3.775   7.878
 1234TIP3   OH225260   4.216   4.912   1.191
 1234TIP3    H125261   4.224   5.003   1.163
 1234TIP3    H225262   4.294   4.897   1.245
 1235TIP3   OH225263   1.313   1.338   1.560
 1235TIP3    H125264   1.258   1.362   1.486
 1235TIP3    H225265   1.252   1.298   1.622
 1236TIP3   OH225266   5.550   4.163   0.046
 1236TIP3    H125267   5.614   4.221   0.003
 1236TIP3    H225268   5.601   4.115   0.111
 1237TIP3   OH225269   0.752   0.814   1.249
 1237TIP3    H125270   0.711   0.728   1.259
 1237TIP3    H225271   0.813   0.803   1.176
 1238TIP3   OH225272   6.415   2.564   2.131
 1238TIP3    H125273   6.410   2.601   2.219
 1238TIP3    H225274   6.410   2.470   2.143
 1239TIP3   OH225275   6.216   6.714   0.795
 1239TIP3    H125276   6.137   6.765   0.778
 1239TIP3    H225277   6.206   6.636   0.741
 1240TIP3   OH225278   6.048   6.546   7.785
 1240TIP3    H125279   6.027   6.637   7.763
 1240TIP3    H225280   6.089   6.512   7.705
 1241TIP3   OH225281   5.732   0.198   1.949
 1241TIP3    H125282   5.697   0.109   1.949
 1241TIP3    H225283   5.666   0.250   1.902
 1242TIP3   OH225284   5.272   5.708   1.769
 1242TIP3    H125285   5.188   5.694   1.813
 1242TIP3    H225286   5.336   5.714   1.840
 1243TIP3   OH225287   2.969   0.713   6.951
 1243TIP3    H125288   2.986   0.806   6.935
 1243TIP3    H225289   2.893   0.693   6.897
 1244TIP3   OH225290   4.785   4.226   7.134
 1244TIP3    H125291   4.770   4.289   7.063
 1244TIP3    H225292   4.800   4.281   7.211
 1245TIP3   OH225293   1.615   4.622   7.787
 1245TIP3    H125294   1.609   4.715   7.809
 1245TIP3    H225295   1.689   4.590   7.839
 1246TIP3   OH225296   0.402   3.978   0.344
 1246TIP3    H125297   0.441   4.018   0.422
 1246TIP3    H225298   0.324   4.030   0.327
 1247TIP3   OH225299   6.372   4.385   7.451
 1247TIP3    H125300   6.296   4.371   7.394
 1247TIP3    H225301   6.356   4.330   7.527
 1248TIP3   OH225302   0.502   4.409   7.285
 1248TIP3    H125303   0.431   4.347   7.266
 1248TIP3    H225304   0.498   4.472   7.213
 1249TIP3   OH225305   3.038   1.132   0.203
 1249TIP3    H125306   3.091   1.060   0.169
 1249TIP3    H225307   2.947   1.105   0.188
 1250TIP3   OH225308   5.629   4.122   2.116
 1250TIP3    H125309   5.603   4.207   2.149
 1250TIP3    H225310   5.704   4.141   2.059
 1251TIP3   OH225311   0.401   5.146   8.315
 1251TIP3    H125312   0.332   5.080   8.323
 1251TIP3    H225313   0.424   5.145   8.222
 1252TIP3   OH225314   5.708   5.257   8.263
 1252TIP3    H125315   5.646   5.188   8.240
 1252TIP3    H225316   5.653   5.328   8.297
 1253TIP3   OH225317   3.505   4.683   0.007
 1253TIP3    H125318   3.459   4.683   0.091
 1253TIP3    H225319   3.546   4.770   0.001
 1254TIP3   OH225320   1.738   2.531   1.405
 1254TIP3    H125321   1.815   2.474   1.412
 1254TIP3    H225322   1.752   2.598   1.473
 1255TIP3   OH225323   6.391   1.459   8.288
 1255TIP3    H125324   6.435   1.375   8.302
 1255TIP3    H225325   6.455   1.524   8.315
 1256TIP3   OH225326   4.388   5.560   8.627
 1256TIP3    H125327   4.416   5.521   8.709
 1256TIP3    H225328   4.365   5.486   8.571
 1257TIP3   OH225329   5.037   6.234   0.162
 1257TIP3    H125330   4.968   6.221   0.227
 1257TIP3    H225331   4.999   6.204   0.080
 1258TIP3   OH225332   0.207   2.466   0.537
 1258TIP3    H125333   0.125   2.514   0.542
 1258TIP3    H225334   0.241   2.485   0.450
 1259TIP3   OH225335   6.051   5.905   6.984
 1259TIP3    H125336   6.038   5.999   6.996
 1259TIP3    H225337   6.007   5.885   6.902
 1260TIP3   OH225338   2.342   0.022   0.114
 1260TIP3    H125339   2.431   0.052   0.134
 1260TIP3    H225340   2.285   0.091   0.147
 1261TIP3   OH225341   0.912   3.593   0.185
 1261TIP3    H125342   0.985   3.655   0.181
 1261TIP3    H225343   0.859   3.613   0.109
 1262TIP3   OH225344   1.838   0.811   6.804
 1262TIP3    H125345   1.885   0.751   6.745
 1262TIP3    H225346   1.779   0.754   6.853
 1263TIP3   OH225347   3.308   3.307   7.420
 1263TIP3    H125348   3.343   3.334   7.505
 1263TIP3    H225349   3.244   3.239   7.440
 1264TIP3   OH225350   3.101   0.381   7.400
 1264TIP3    H125351   3.020   0.398   7.449
 1264TIP3    H225352   3.075   0.387   7.308
 1265TIP3   OH225353   1.085   0.125   6.923
 1265TIP3    H125354   1.058   0.126   7.015
 1265TIP3    H225355   1.178   0.106   6.926
 1266TIP3   OH225356   1.580   1.547   7.215
 1266TIP3    H125357   1.496   1.527   7.174
 1266TIP3    H225358   1.637   1.569   7.141
 1267TIP3   OH225359   1.859   2.350   2.280
 1267TIP3    H125360   1.905   2.420   2.326
 1267TIP3    H225361   1.911   2.272   2.296
 1268TIP3   OH225362   3.400   3.874   8.351
 1268TIP3    H125363   3.375   3.935   8.420
 1268TIP3    H225364   3.488   3.844   8.376
 1269TIP3   OH225365   5.450   0.656   7.015
 1269TIP3    H125366   5.495   0.733   7.048
 1269TIP3    H225367   5.366   0.689   6.982
 1270TIP3   OH225368   3.137   0.249   0.249
 1270TIP3    H125369   3.184   0.312   0.303
 1270TIP3    H225370   3.162   0.164   0.285
 1271TIP3   OH225371   4.224   0.457   1.298
 1271TIP3    H125372   4.248   0.549   1.288
 1271TIP3    H225373   4.239   0.438   1.391
 1272TIP3   OH225374   0.900   6.106   1.360
 1272TIP3    H125375   0.914   6.032   1.302
 1272TIP3    H225376   0.915   6.183   1.305
 1273TIP3   OH225377   2.305   3.772   1.510
 1273TIP3    H125378   2.382   3.828   1.515
 1273TIP3    H225379   2.278   3.777   1.418
 1274TIP3   OH225380   2.475   3.821   0.863
 1274TIP3    H125381   2.544   3.764   0.897
 1274TIP3    H225382   2.394   3.782   0.894
 1275TIP3   OH225383   3.816   6.263   2.418
 1275TIP3    H125384   3.858   6.179   2.400
 1275TIP3    H225385   3.743   6.242   2.477
 1276TIP3   OH225386   0.250   3.955   8.178
 1276TIP3    H125387   0.214   3.964   8.267
 1276TIP3    H225388   0.251   3.861   8.162
 1277TIP3   OH225389   5.882   5.430   0.913
 1277TIP3    H125390   5.946   5.400   0.849
 1277TIP3    H225391   5.919   5.404   0.998
 1278TIP3   OH225392   0.359   0.241   0.695
 1278TIP3    H125393   0.290   0.186   0.733
 1278TIP3    H225394   0.319   0.279   0.617
 1279TIP3   OH225395   5.012   1.213   0.853
 1279TIP3    H125396   4.920   1.230   0.832
 1279TIP3    H225397   5.018   1.118   0.858
 1280TIP3   OH225398   1.716   5.313   1.452
 1280TIP3    H125399   1.797   5.304   1.503
 1280TIP3    H225400   1.707   5.408   1.439
 1281TIP3   OH225401   1.434   4.033   7.611
 1281TIP3    H125402   1.366   3.971   7.586
 1281TIP3    H225403   1.462   4.004   7.698
 1282TIP3   OH225404   1.126   0.302   0.200
 1282TIP3    H125405   1.119   0.305   0.296
 1282TIP3    H225406   1.058   0.363   0.170
 1283TIP3   OH225407   0.294   1.995   2.200
 1283TIP3    H125408   0.219   2.054   2.189
 1283TIP3    H225409   0.272   1.917   2.149
 1284TIP3   OH225410   5.107   0.191   1.136
 1284TIP3    H125411   5.182   0.236   1.174
 1284TIP3    H225412   5.085   0.123   1.199
 1285TIP3   OH225413   5.684   0.975   2.228
 1285TIP3    H125414   5.691   1.071   2.226
 1285TIP3    H225415   5.773   0.945   2.209
 1286TIP3   OH225416   5.056   2.440   6.741
 1286TIP3    H125417   5.097   2.356   6.723
 1286TIP3    H225418   5.128   2.494   6.775
 1287TIP3   OH225419   1.502   6.702   1.421
 1287TIP3    H125420   1.519   6.746   1.337
 1287TIP3    H225421   1.584   6.659   1.442
 1288TIP3   OH225422   2.706   4.194   0.608
 1288TIP3    H125423   2.744   4.277   0.637
 1288TIP3    H225424   2.682   4.209   0.517
 1289TIP3   OH225425   4.529   3.452   1.737
 1289TIP3    H125426   4.513   3.361   1.711
 1289TIP3    H225427   4.493   3.458   1.826
 1290TIP3   OH225428   5.067   2.572   0.680
 1290TIP3    H125429   5.063   2.583   0.586
 1290TIP3    H225430   5.159   2.551   0.698
 1291TIP3   OH225431   3.957   1.282   7.456
 1291TIP3    H125432   4.025   1.215   7.444
 1291TIP3    H225433   3.886   1.236   7.502
 1292TIP3   OH225434   3.712   3.139   0.221
 1292TIP3    H125435   3.648   3.205   0.195
 1292TIP3    H225436   3.790   3.159   0.170
 1293TIP3   OH225437   0.442   3.640   6.858
 1293TIP3    H125438   0.510   3.696   6.894
 1293TIP3    H225439   0.489   3.569   6.815
 1294TIP3   OH225440   0.985   6.593   6.868
 1294TIP3    H125441   0.931   6.583   6.947
 1294TIP3    H225442   0.961   6.518   6.814
 1295TIP3   OH225443   0.303   0.009   0.324
 1295TIP3    H125444   0.270   6.806   0.402
 1295TIP3    H225445   0.296   0.102   0.345
 1296TIP3   OH225446   4.746   5.214   8.596
 1296TIP3    H125447   4.816   5.225   8.533
 1296TIP3    H225448   4.672   5.262   8.558
 1297TIP3   OH225449   6.206   6.385   1.140
 1297TIP3    H125450   6.156   6.363   1.218
 1297TIP3    H225451   6.145   6.432   1.084
 1298TIP3   OH225452   4.711   3.633   0.170
 1298TIP3    H125453   4.781   3.588   0.217
 1298TIP3    H225454   4.726   3.726   0.188
 1299TIP3   OH225455   5.918   1.121   8.561
 1299TIP3    H125456   5.952   1.083   8.480
 1299TIP3    H225457   5.829   1.086   8.569
 1300TIP3   OH225458   2.528   6.328   8.269
 1300TIP3    H125459   2.435   6.314   8.253
 1300TIP3    H225460   2.531   6.395   8.337
 1301TIP3   OH225461   1.037   2.143   8.091
 1301TIP3    H125462   0.954   2.139   8.043
 1301TIP3    H225463   1.011   2.141   8.183
 1302TIP3   OH225464   4.116   6.249   1.082
 1302TIP3    H125465   4.056   6.204   1.023
 1302TIP3    H225466   4.063   6.272   1.158
 1303TIP3   OH225467   5.149   2.140   0.179
 1303TIP3    H125468   5.116   2.189   0.104
 1303TIP3    H225469   5.120   2.190   0.255
 1304TIP3   OH225470   5.795   3.880   1.203
 1304TIP3    H125471   5.880   3.903   1.239
 1304TIP3    H225472   5.748   3.964   1.199
 1305TIP3   OH225473   4.494   1.163   1.375
 1305TIP3    H125474   4.557   1.145   1.304
 1305TIP3    H225475   4.521   1.248   1.410
 1306TIP3   OH225476   2.158   5.179   2.011
 1306TIP3    H125477   2.105   5.254   1.984
 1306TIP3    H225478   2.150   5.117   1.939
 1307TIP3   OH225479   2.798   4.539   8.018
 1307TIP3    H125480   2.709   4.546   7.983
 1307TIP3    H225481   2.815   4.445   8.022
 1308TIP3   OH225482   5.881   1.862   7.620
 1308TIP3    H125483   5.922   1.906   7.695
 1308TIP3    H225484   5.788   1.884   7.627
 1309TIP3   OH225485   3.643   5.344   8.708
 1309TIP3    H125486   3.711   5.287   0.010
 1309TIP3    H225487   3.689   5.424   8.682
 1310TIP3   OH225488   1.183   6.586   8.568
 1310TIP3    H125489   1.266   6.538   8.560
 1310TIP3    H225490   1.116   6.521   8.549
 1311TIP3   OH225491   3.196   2.963   1.017
 1311TIP3    H125492   3.193   3.023   1.091
 1311TIP3    H225493   3.134   2.894   1.039
 1312TIP3   OH225494   6.448   1.903   8.077
 1312TIP3    H125495   6.501   1.924   8.000
 1312TIP3    H225496   6.432   1.987   8.120
 1313TIP3   OH225497   5.300   5.225   7.132
 1313TIP3    H125498   5.385   5.182   7.130
 1313TIP3    H225499   5.236   5.154   7.135
 1314TIP3   OH225500   1.029   1.108   1.529
 1314TIP3    H125501   1.061   1.047   1.462
 1314TIP3    H225502   1.028   1.056   1.610
 1315TIP3   OH225503   2.441   3.999   7.436
 1315TIP3    H125504   2.426   4.023   7.345
 1315TIP3    H225505   2.536   3.986   7.443
 1316TIP3   OH225506   2.951   4.952   0.603
 1316TIP3    H125507   3.023   4.985   0.656
 1316TIP3    H225508   2.966   4.989   0.516
 1317TIP3   OH225509   2.453   2.123   1.438
 1317TIP3    H125510   2.514   2.092   1.504
 1317TIP3    H225511   2.474   2.073   1.359
 1318TIP3   OH225512   0.818   6.677   1.811
 1318TIP3    H125513   0.837   6.771   1.814
 1318TIP3    H225514   0.790   6.656   1.900
 1319TIP3   OH225515   4.137   2.775   1.136
 1319TIP3    H125516   4.074   2.837   1.100
 1319TIP3    H225517   4.163   2.721   1.062
 1320TIP3   OH225518   4.148   0.962   7.559
 1320TIP3    H125519   4.055   0.981   7.573
 1320TIP3    H225520   4.150   0.911   7.479
 1321TIP3   OH225521   1.871   3.861   6.427
 1321TIP3    H125522   1.958   3.898   6.416
 1321TIP3    H225523   1.812   3.930   6.398
 1322TIP3   OH225524   0.619   2.505   7.459
 1322TIP3    H125525   0.526   2.490   7.473
 1322TIP3    H225526   0.627   2.601   7.457
 1323TIP3   OH225527   1.136   0.829   8.145
 1323TIP3    H125528   1.212   0.869   8.103
 1323TIP3    H225529   1.162   0.738   8.160
 1324TIP3   OH225530   6.168   5.873   1.878
 1324TIP3    H125531   6.109   5.912   1.942
 1324TIP3    H225532   6.214   5.804   1.926
 1325TIP3   OH225533   3.611   1.095   6.367
 1325TIP3    H125534   3.647   1.023   6.419
 1325TIP3    H225535   3.687   1.144   6.338
 1326TIP3   OH225536   6.233   4.446   1.773
 1326TIP3    H125537   6.138   4.459   1.765
 1326TIP3    H225538   6.247   4.359   1.736
 1327TIP3   OH225539   5.895   2.310   8.539
 1327TIP3    H125540   5.889   2.297   8.633
 1327TIP3    H225541   5.805   2.304   8.507
 1328TIP3   OH225542   0.039   3.825   2.188
 1328TIP3    H125543   6.821   3.883   2.139
 1328TIP3    H225544   0.059   3.755   2.127
 1329TIP3   OH225545   6.712   1.859   8.697
 1329TIP3    H125546   6.690   1.771   8.728
 1329TIP3    H225547   6.757   1.900   0.036
 1330TIP3   OH225548   0.165   2.762   1.466
 1330TIP3    H125549   0.121   2.795   1.387
 1330TIP3    H225550   0.256   2.788   1.454
 1331TIP3   OH225551   4.150   1.991   8.211
 1331TIP3    H125552   4.186   2.045   8.141
 1331TIP3    H225553   4.224   1.973   8.268
 1332TIP3   OH225554   6.607   3.085   1.297
 1332TIP3    H125555   6.604   3.015   1.362
 1332TIP3    H225556   6.560   3.158   1.337
 1333TIP3   OH225557   5.307   3.822   8.661
 1333TIP3    H125558   5.308   3.866   0.012
 1333TIP3    H225559   5.250   3.876   8.607
 1334TIP3   OH225560   6.059   1.308   0.456
 1334TIP3    H125561   6.126   1.241   0.469
 1334TIP3    H225562   6.105   1.391   0.465
 1335TIP3   OH225563   0.878   5.483   7.944
 1335TIP3    H125564   0.823   5.522   8.012
 1335TIP3    H225565   0.954   5.541   7.938
 1336TIP3   OH225566   5.199   2.328   8.152
 1336TIP3    H125567   5.133   2.269   8.187
 1336TIP3    H225568   5.255   2.273   8.097
 1337TIP3   OH225569   2.466   2.623   7.266
 1337TIP3    H125570   2.373   2.641   7.255
 1337TIP3    H225571   2.471   2.563   7.340
 1338TIP3   OH225572   5.930   5.636   8.044
 1338TIP3    H125573   5.884   5.704   7.995
 1338TIP3    H225574   5.873   5.559   8.037
 1339TIP3   OH225575   3.063   0.951   1.224
 1339TIP3    H125576   3.110   1.034   1.235
 1339TIP3    H225577   2.987   0.973   1.170
 1340TIP3   OH225578   3.433   2.384   0.151
 1340TIP3    H125579   3.471   2.448   0.090
 1340TIP3    H225580   3.382   2.325   0.095
 1341TIP3   OH225581   4.864   4.064   1.181
 1341TIP3    H125582   4.894   4.100   1.098
 1341TIP3    H225583   4.831   3.977   1.159
 1342TIP3   OH225584   2.857   6.804   8.136
 1342TIP3    H125585   2.775   6.828   8.179
 1342TIP3    H225586   2.886   0.043   8.092
 1343TIP3   OH225587   5.185   1.312   7.304
 1343TIP3    H125588   5.119   1.284   7.240
 1343TIP3    H225589   5.206   1.232   7.352
 1344TIP3   OH225590   6.696   2.967   8.474
 1344TIP3    H125591   6.716   2.915   8.552
 1344TIP3    H225592   6.772   2.953   8.417
 1345TIP3   OH225593   6.450   5.345   0.051
 1345TIP3    H125594   6.467   5.313   8.697
 1345TIP3    H225595   6.513   5.415   0.065
 1346TIP3   OH225596   3.120   2.835   2.188
 1346TIP3    H125597   3.104   2.751   2.143
 1346TIP3    H225598   3.091   2.820   2.278
 1347TIP3   OH225599   5.064   1.177   1.581
 1347TIP3    H125600   4.986   1.140   1.540
 1347TIP3    H225601   5.076   1.261   1.538
 1348TIP3   OH225602   3.764   2.923   1.160
 1348TIP3    H125603   3.824   2.968   1.220
 1348TIP3    H225604   3.694   2.985   1.143
 1349TIP3   OH225605   3.910   4.903   0.118
 1349TIP3    H125606   3.982   4.940   0.067
 1349TIP3    H225607   3.853   4.978   0.136
 1350TIP3   OH225608   6.772   3.480   0.220
 1350TIP3    H125609   6.790   3.507   0.130
 1350TIP3    H225610   6.808   3.550   0.274
 1351TIP3   OH225611   4.802   1.363   2.159
 1351TIP3    H125612   4.892   1.343   2.134
 1351TIP3    H225613   4.764   1.278   2.181
 1352TIP3   OH225614   3.631   0.075   7.518
 1352TIP3    H125615   3.561   0.141   7.515
 1352TIP3    H225616   3.697   0.114   7.575
 1353TIP3   OH225617   0.510   6.652   1.739
 1353TIP3    H125618   0.428   6.669   1.785
 1353TIP3    H225619   0.578   6.676   1.802
 1354TIP3   OH225620   5.687   4.147   1.700
 1354TIP3    H125621   5.702   4.200   1.777
 1354TIP3    H225622   5.653   4.064   1.734
 1355TIP3   OH225623   5.514   1.236   8.044
 1355TIP3    H125624   5.603   1.269   8.031
 1355TIP3    H225625   5.518   1.144   8.020
 1356TIP3   OH225626   5.318   2.933   1.870
 1356TIP3    H125627   5.375   2.938   1.946
 1356TIP3    H225628   5.248   2.873   1.896
 1357TIP3   OH225629   4.698   4.721   0.871
 1357TIP3    H125630   4.787   4.734   0.839
 1357TIP3    H225631   4.701   4.639   0.920
 1358TIP3   OH225632   3.424   5.339   6.819
 1358TIP3    H125633   3.455   5.428   6.798
 1358TIP3    H225634   3.361   5.352   6.890
 1359TIP3   OH225635   0.148   2.355   7.801
 1359TIP3    H125636   0.191   2.270   7.799
 1359TIP3    H225637   0.215   2.416   7.831
 1360TIP3   OH225638   6.125   3.397   0.079
 1360TIP3    H125639   6.220   3.410   0.075
 1360TIP3    H225640   6.090   3.452   0.010
 1361TIP3   OH225641   1.496   5.617   7.839
 1361TIP3    H125642   1.481   5.702   7.879
 1361TIP3    H225643   1.590   5.615   7.821
 1362TIP3   OH225644   5.259   2.076   1.583
 1362TIP3    H125645   5.216   2.068   1.668
 1362TIP3    H225646   5.348   2.105   1.604
 1363TIP3   OH225647   6.358   0.597   8.356
 1363TIP3    H125648   6.381   0.633   8.441
 1363TIP3    H225649   6.431   0.539   8.335
 1364TIP3   OH225650   5.079   4.114   0.060
 1364TIP3    H125651   5.099   4.202   0.029
 1364TIP3    H225652   4.989   4.119   0.091
 1365TIP3   OH225653   4.595   5.944   1.518
 1365TIP3    H125654   4.644   5.973   1.595
 1365TIP3    H225655   4.581   5.851   1.531
 1366TIP3   OH225656   4.321   1.016   7.165
 1366TIP3    H125657   4.354   1.066   7.090
 1366TIP3    H225658   4.399   0.991   7.214
 1367TIP3   OH225659   1.802   4.545   7.567
 1367TIP3    H125660   1.833   4.545   7.657
 1367TIP3    H225661   1.843   4.469   7.527
 1368TIP3   OH225662   1.428   4.705   6.881
 1368TIP3    H125663   1.520   4.729   6.875
 1368TIP3    H225664   1.420   4.656   6.963
 1369TIP3   OH225665   4.653   6.753   2.132
 1369TIP3    H125666   4.737   6.723   2.165
 1369TIP3    H225667   4.675   6.810   2.058
 1370TIP3   OH225668   3.761   3.236   0.528
 1370TIP3    H125669   3.752   3.202   0.439
 1370TIP3    H225670   3.679   3.214   0.571
 1371TIP3   OH225671   4.445   1.560   1.144
 1371TIP3    H125672   4.411   1.471   1.149
 1371TIP3    H225673   4.377   1.614   1.182
 1372TIP3   OH225674   0.838   0.307   0.380
 1372TIP3    H125675   0.804   0.217   0.379
 1372TIP3    H225676   0.900   0.309   0.453
 1373TIP3   OH225677   2.282   5.848   0.777
 1373TIP3    H125678   2.284   5.774   0.716
 1373TIP3    H225679   2.190   5.857   0.800
 1374TIP3   OH225680   2.244   0.718   0.885
 1374TIP3    H125681   2.284   0.742   0.801
 1374TIP3    H225682   2.255   0.623   0.891
 1375TIP3   OH225683   5.696   6.360   7.698
 1375TIP3    H125684   5.647   6.384   7.777
 1375TIP3    H225685   5.698   6.440   7.646
 1376TIP3   OH225686   4.088   0.668   0.096
 1376TIP3    H125687   4.060   0.755   0.123
 1376TIP3    H225688   4.068   0.664   0.002
 1377TIP3   OH225689   5.997   2.256   1.838
 1377TIP3    H125690   6.034   2.317   1.902
 1377TIP3    H225691   6.014   2.169   1.875
 1378TIP3   OH225692   4.724   5.192   7.929
 1378TIP3    H125693   4.648   5.172   7.874
 1378TIP3    H225694   4.759   5.107   7.953
 1379TIP3   OH225695   1.875   3.847   1.062
 1379TIP3    H125696   1.941   3.845   1.130
 1379TIP3    H225697   1.860   3.941   1.046
 1380TIP3   OH225698   0.984   4.986   8.224
 1380TIP3    H125699   1.080   4.982   8.234
 1380TIP3    H225700   0.960   4.897   8.197
 1381TIP3   OH225701   3.200   6.783   8.097
 1381TIP3    H125702   3.123   6.828   8.132
 1381TIP3    H225703   3.194   6.796   8.003
 1382TIP3   OH225704   1.586   1.375   0.688
 1382TIP3    H125705   1.662   1.346   0.637
 1382TIP3    H225706   1.513   1.367   0.627
 1383TIP3   OH225707   2.572   0.634   0.565
 1383TIP3    H125708   2.533   0.575   0.629
 1383TIP3    H225709   2.518   0.624   0.487
 1384TIP3   OH225710   6.072   6.206   6.247
 1384TIP3    H125711   6.037   6.193   6.335
 1384TIP3    H225712   5.995   6.224   6.193
 1385TIP3   OH225713   4.924   1.337   0.603
 1385TIP3    H125714   4.912   1.407   0.666
 1385TIP3    H225715   4.835   1.305   0.585
 1386TIP3   OH225716   3.949   0.873   0.202
 1386TIP3    H125717   3.950   0.850   0.295
 1386TIP3    H225718   3.989   0.960   0.197
 1387TIP3   OH225719   6.659   5.840   0.467
 1387TIP3    H125720   6.606   5.918   0.455
 1387TIP3    H225721   6.685   5.842   0.560
 1388TIP3   OH225722   0.873   1.742   7.312
 1388TIP3    H125723   0.954   1.751   7.262
 1388TIP3    H225724   0.891   1.672   7.375
 1389TIP3   OH225725   4.796   6.467   0.753
 1389TIP3    H125726   4.713   6.479   0.708
 1389TIP3    H225727   4.783   6.506   0.839
 1390TIP3   OH225728   0.858   0.133   1.594
 1390TIP3    H125729   0.763   0.149   1.593
 1390TIP3    H225730   0.875   0.084   1.513
 1391TIP3   OH225731   4.765   0.836   1.041
 1391TIP3    H125732   4.794   0.886   1.117
 1391TIP3    H225733   4.786   0.891   0.966
 1392TIP3   OH225734   5.335   6.362   7.695
 1392TIP3    H125735   5.320   6.452   7.725
 1392TIP3    H225736   5.418   6.337   7.737
 1393TIP3   OH225737   0.126   5.787   0.722
 1393TIP3    H125738   0.077   5.735   0.786
 1393TIP3    H225739   0.089   5.875   0.730
 1394TIP3   OH225740   5.759   0.307   1.548
 1394TIP3    H125741   5.730   0.225   1.506
 1394TIP3    H225742   5.685   0.333   1.603
 1395TIP3   OH225743   5.567   1.019   2.552
 1395TIP3    H125744   5.583   1.112   2.571
 1395TIP3    H225745   5.551   1.016   2.458
 1396TIP3   OH225746   3.593   3.559   1.184
 1396TIP3    H125747   3.542   3.570   1.264
 1396TIP3    H225748   3.673   3.610   1.198
 1397TIP3   OH225749   0.388   2.692   6.713
 1397TIP3    H125750   0.445   2.717   6.786
 1397TIP3    H225751   0.429   2.731   6.636
 1398TIP3   OH225752   3.970   4.427   7.613
 1398TIP3    H125753   3.991   4.470   7.530
 1398TIP3    H225754   4.002   4.337   7.602
 1399TIP3   OH225755   3.325   5.219   7.744
 1399TIP3    H125756   3.348   5.181   7.659
 1399TIP3    H225757   3.271   5.153   7.787
 1400TIP3   OH225758   5.089   2.122   7.492
 1400TIP3    H125759   4.996   2.137   7.477
 1400TIP3    H225760   5.097   2.115   7.587
 1401TIP3   OH225761   6.408   5.180   7.206
 1401TIP3    H125762   6.420   5.098   7.254
 1401TIP3    H225763   6.333   5.162   7.148
 1402TIP3   OH225764   4.205   3.414   6.781
 1402TIP3    H125765   4.246   3.494   6.749
 1402TIP3    H225766   4.251   3.344   6.735
 1403TIP3   OH225767   6.497   5.861   1.758
 1403TIP3    H125768   6.456   5.813   1.830
 1403TIP3    H225769   6.442   5.843   1.682
 1404TIP3   OH225770   6.214   4.029   8.279
 1404TIP3    H125771   6.180   4.034   8.190
 1404TIP3    H225772   6.167   3.956   8.319
 1405TIP3   OH225773   4.706   1.160   7.813
 1405TIP3    H125774   4.617   1.128   7.798
 1405TIP3    H225775   4.701   1.255   7.798
 1406TIP3   OH225776   4.524   5.546   7.277
 1406TIP3    H125777   4.589   5.583   7.217
 1406TIP3    H225778   4.576   5.506   7.347
 1407TIP3   OH225779   3.984   6.613   1.803
 1407TIP3    H125780   3.894   6.619   1.835
 1407TIP3    H225781   4.029   6.561   1.869
 1408TIP3   OH225782   1.011   3.566   7.864
 1408TIP3    H125783   0.958   3.564   7.785
 1408TIP3    H225784   0.949   3.591   7.933
 1409TIP3   OH225785   2.333   0.298   0.200
 1409TIP3    H125786   2.415   0.257   0.171
 1409TIP3    H225787   2.354   0.332   0.287
 1410TIP3   OH225788   3.653   3.861   0.544
 1410TIP3    H125789   3.665   3.782   0.492
 1410TIP3    H225790   3.632   3.929   0.480
 1411TIP3   OH225791   5.458   2.857   8.191
 1411TIP3    H125792   5.408   2.778   8.172
 1411TIP3    H225793   5.392   2.922   8.215
 1412TIP3   OH225794   3.710   1.024   6.753
 1412TIP3    H125795   3.718   0.968   6.676
 1412TIP3    H225796   3.773   1.095   6.738
 1413TIP3   OH225797   4.898   0.236   0.985
 1413TIP3    H125798   4.833   0.184   1.032
 1413TIP3    H225799   4.976   0.233   1.040
 1414TIP3   OH225800   2.427   0.152   8.235
 1414TIP3    H125801   2.475   0.175   8.156
 1414TIP3    H225802   2.485   0.179   8.307
 1415TIP3   OH225803   4.945   4.403   8.715
 1415TIP3    H125804   4.858   4.434   8.690
 1415TIP3    H225805   4.989   4.480   0.016
 1416TIP3   OH225806   4.792   5.754   1.280
 1416TIP3    H125807   4.868   5.799   1.316
 1416TIP3    H225808   4.782   5.790   1.192
 1417TIP3   OH225809   1.124   5.149   7.988
 1417TIP3    H125810   1.067   5.201   8.045
 1417TIP3    H225811   1.082   5.152   7.902
 1418TIP3   OH225812   0.887   6.539   7.534
 1418TIP3    H125813   0.920   6.551   7.445
 1418TIP3    H225814   0.821   6.471   7.527
 1419TIP3   OH225815   6.721   0.129   8.675
 1419TIP3    H125816   6.692   0.047   8.634
 1419TIP3    H225817   6.657   0.194   8.648
 1420TIP3   OH225818   0.806   5.633   7.481
 1420TIP3    H125819   0.853   5.569   7.535
 1420TIP3    H225820   0.739   5.669   7.539
 1421TIP3   OH225821   1.135   3.052   8.422
 1421TIP3    H125822   1.112   3.145   8.410
 1421TIP3    H225823   1.058   3.005   8.389
 1422TIP3   OH225824   3.324   2.513   1.495
 1422TIP3    H125825   3.268   2.517   1.573
 1422TIP3    H225826   3.350   2.604   1.480
 1423TIP3   OH225827   2.144   5.931   8.417
 1423TIP3    H125828   2.205   5.993   8.378
 1423TIP3    H225829   2.079   5.985   8.462
 1424TIP3   OH225830   2.886   6.287   2.451
 1424TIP3    H125831   2.951   6.296   2.381
 1424TIP3    H225832   2.906   6.359   2.512
 1425TIP3   OH225833   3.413   4.859   1.253
 1425TIP3    H125834   3.428   4.871   1.159
 1425TIP3    H225835   3.489   4.810   1.284
 1426TIP3   OH225836   6.078   4.834   0.752
 1426TIP3    H125837   6.049   4.811   0.840
 1426TIP3    H225838   6.173   4.845   0.761
 1427TIP3   OH225839   1.773   4.952   2.549
 1427TIP3    H125840   1.709   4.898   2.596
 1427TIP3    H225841   1.837   4.889   2.517
 1428TIP3   OH225842   3.002   2.543   1.319
 1428TIP3    H125843   3.025   2.457   1.353
 1428TIP3    H225844   3.080   2.597   1.336
 1429TIP3   OH225845   4.819   2.751   6.978
 1429TIP3    H125846   4.762   2.828   6.978
 1429TIP3    H225847   4.773   2.688   6.923
 1430TIP3   OH225848   1.492   6.108   1.577
 1430TIP3    H125849   1.564   6.057   1.540
 1430TIP3    H225850   1.417   6.049   1.574
 1431TIP3   OH225851   4.438   1.673   0.899
 1431TIP3    H125852   4.438   1.660   0.993
 1431TIP3    H225853   4.474   1.761   0.886
 1432TIP3   OH225854   5.940   0.563   7.724
 1432TIP3    H125855   6.017   0.506   7.727
 1432TIP3    H225856   5.876   0.518   7.779
 1433TIP3   OH225857   3.522   4.112   2.248
 1433TIP3    H125858   3.580   4.186   2.264
 1433TIP3    H225859   3.566   4.061   2.179
 1434TIP3   OH225860   5.369   4.923   7.884
 1434TIP3    H125861   5.451   4.924   7.835
 1434TIP3    H225862   5.341   5.015   7.884
 1435TIP3   OH225863   3.555   5.882   7.895
 1435TIP3    H125864   3.523   5.932   7.969
 1435TIP3    H225865   3.628   5.831   7.931
 1436TIP3   OH225866   2.588   0.268   8.434
 1436TIP3    H125867   2.651   0.233   8.496
 1436TIP3    H225868   2.599   0.363   8.440
 1437TIP3   OH225869   3.851   1.990   8.514
 1437TIP3    H125870   3.815   1.930   8.448
 1437TIP3    H225871   3.839   2.077   8.476
 1438TIP3   OH225872   0.097   3.963   7.213
 1438TIP3    H125873   0.145   3.973   7.295
 1438TIP3    H225874   0.008   3.994   7.234
 1439TIP3   OH225875   4.271   1.064   0.021
 1439TIP3    H125876   4.329   1.130   8.717
 1439TIP3    H225877   4.315   1.037   0.101
 1440TIP3   OH225878   4.091   2.922   7.100
 1440TIP3    H125879   4.144   2.997   7.071
 1440TIP3    H225880   4.041   2.897   7.022
 1441TIP3   OH225881   1.590   6.602   8.250
 1441TIP3    H125882   1.677   6.640   8.239
 1441TIP3    H225883   1.562   6.629   8.337
 1442TIP3   OH225884   2.535   1.387   7.381
 1442TIP3    H125885   2.516   1.331   7.306
 1442TIP3    H225886   2.530   1.329   7.456
 1443TIP3   OH225887   0.966   3.909   8.528
 1443TIP3    H125888   1.035   3.921   8.462
 1443TIP3    H225889   1.014   3.891   8.609
 1444TIP3   OH225890   0.504   4.946   7.340
 1444TIP3    H125891   0.435   4.930   7.404
 1444TIP3    H225892   0.549   4.862   7.331
 1445TIP3   OH225893   4.068   0.395   8.312
 1445TIP3    H125894   4.090   0.302   8.311
 1445TIP3    H225895   4.138   0.437   8.262
 1446TIP3   OH225896   1.447   2.282   7.857
 1446TIP3    H125897   1.521   2.303   7.800
 1446TIP3    H225898   1.433   2.362   7.908
 1447TIP3   OH225899   2.596   3.213   0.256
 1447TIP3    H125900   2.544   3.240   0.181
 1447TIP3    H225901   2.556   3.130   0.284
 1448TIP3   OH225902   6.328   0.854   1.196
 1448TIP3    H125903   6.422   0.870   1.200
 1448TIP3    H225904   6.319   0.772   1.148
 1449TIP3   OH225905   6.570   3.572   7.068
 1449TIP3    H125906   6.545   3.552   6.978
 1449TIP3    H225907   6.557   3.490   7.116
 1450TIP3   OH225908   6.587   4.113   0.738
 1450TIP3    H125909   6.509   4.087   0.786
 1450TIP3    H225910   6.606   4.201   0.769
 1451TIP3   OH225911   4.429   2.946   6.754
 1451TIP3    H125912   4.487   2.924   6.681
 1451TIP3    H225913   4.391   3.030   6.730
 1452TIP3   OH225914   5.444   4.804   6.724
 1452TIP3    H125915   5.471   4.841   6.640
 1452TIP3    H225916   5.375   4.742   6.703
 1453TIP3   OH225917   2.460   0.511   8.243
 1453TIP3    H125918   2.551   0.504   8.274
 1453TIP3    H225919   2.462   0.472   8.155
 1454TIP3   OH225920   0.999   3.541   0.674
 1454TIP3    H125921   0.963   3.454   0.691
 1454TIP3    H225922   0.978   3.558   0.582
 1455TIP3   OH225923   5.106   0.457   2.647
 1455TIP3    H125924   5.083   0.502   2.566
 1455TIP3    H225925   5.150   0.376   2.619
 1456TIP3   OH225926   3.452   6.001   8.124
 1456TIP3    H125927   3.414   6.073   8.074
 1456TIP3    H225928   3.389   5.929   8.115
 1457TIP3   OH225929   4.032   4.997   8.397
 1457TIP3    H125930   4.052   5.031   8.484
 1457TIP3    H225931   4.112   5.012   8.347
 1458TIP3   OH225932   3.251   2.340   8.134
 1458TIP3    H125933   3.201   2.321   8.055
 1458TIP3    H225934   3.272   2.433   8.128
 1459TIP3   OH225935   5.001   3.567   7.284
 1459TIP3    H125936   5.054   3.593   7.209
 1459TIP3    H225937   4.954   3.648   7.309
 1460TIP3   OH225938   3.494   5.754   0.880
 1460TIP3    H125939   3.511   5.790   0.793
 1460TIP3    H225940   3.410   5.708   0.871
 1461TIP3   OH225941   0.603   2.738   6.903
 1461TIP3    H125942   0.671   2.717   6.839
 1461TIP3    H225943   0.614   2.831   6.921
 1462TIP3   OH225944   1.086   0.974   0.490
 1462TIP3    H125945   1.031   1.052   0.499
 1462TIP3    H225946   1.174   1.004   0.511
 1463TIP3   OH225947   1.602   5.968   7.672
 1463TIP3    H125948   1.589   5.877   7.645
 1463TIP3    H225949   1.621   5.962   7.766
 1464TIP3   OH225950   0.264   6.290   7.375
 1464TIP3    H125951   0.296   6.238   7.449
 1464TIP3    H225952   0.222   6.226   7.318
 1465TIP3   OH225953   6.331   4.132   0.368
 1465TIP3    H125954   6.247   4.139   0.415
 1465TIP3    H225955   6.379   4.065   0.416
 1466TIP3   OH225956   0.054   3.088   1.584
 1466TIP3    H125957   0.145   3.108   1.605
 1466TIP3    H225958   0.039   3.130   1.499
 1467TIP3   OH225959   3.453   3.351   1.406
 1467TIP3    H125960   3.480   3.442   1.402
 1467TIP3    H225961   3.358   3.353   1.392
 1468TIP3   OH225962   3.838   3.564   1.465
 1468TIP3    H125963   3.772   3.527   1.523
 1468TIP3    H225964   3.795   3.640   1.424
 1469TIP3   OH225965   2.356   3.379   8.254
 1469TIP3    H125966   2.308   3.322   8.315
 1469TIP3    H225967   2.294   3.396   8.183
 1470TIP3   OH225968   6.390   4.186   7.647
 1470TIP3    H125969   6.474   4.229   7.665
 1470TIP3    H225970   6.415   4.102   7.608
 1471TIP3   OH225971   6.298   6.023   2.214
 1471TIP3    H125972   6.333   6.010   2.302
 1471TIP3    H225973   6.203   6.011   2.224
 1472TIP3   OH225974   4.930   5.190   7.661
 1472TIP3    H125975   4.961   5.237   7.738
 1472TIP3    H225976   4.945   5.097   7.681
 1473TIP3   OH225977   2.383   6.385   6.456
 1473TIP3    H125978   2.315   6.345   6.510
 1473TIP3    H225979   2.387   6.329   6.378
 1474TIP3   OH225980   3.553   1.392   0.604
 1474TIP3    H125981   3.461   1.367   0.609
 1474TIP3    H225982   3.558   1.477   0.647
 1475TIP3   OH225983   5.596   5.541   0.218
 1475TIP3    H125984   5.529   5.606   0.240
 1475TIP3    H225985   5.613   5.495   0.300
 1476TIP3   OH225986   3.348   0.680   1.817
 1476TIP3    H125987   3.341   0.712   1.727
 1476TIP3    H225988   3.273   0.718   1.863
 1477TIP3   OH225989   4.989   6.157   1.315
 1477TIP3    H125990   4.970   6.208   1.394
 1477TIP3    H225991   4.903   6.145   1.274
 1478TIP3   OH225992   3.961   3.010   1.325
 1478TIP3    H125993   3.914   3.075   1.378
 1478TIP3    H225994   4.035   3.059   1.289
 1479TIP3   OH225995   6.729   6.058   0.171
 1479TIP3    H125996   6.730   5.997   0.098
 1479TIP3    H225997   6.755   6.142   0.132
 1480TIP3   OH225998   3.560   2.542   1.075
 1480TIP3    H125999   3.503   2.558   1.000
 1480TIP3    H226000   3.620   2.473   1.045
 1481TIP3   OH226001   0.506   1.317   0.518
 1481TIP3    H126002   0.443   1.363   0.572
 1481TIP3    H226003   0.561   1.387   0.481
 1482TIP3   OH226004   4.568   5.274   7.131
 1482TIP3    H126005   4.554   5.350   7.187
 1482TIP3    H226006   4.511   5.289   7.055
 1483TIP3   OH226007   2.431   2.472   7.725
 1483TIP3    H126008   2.352   2.419   7.729
 1483TIP3    H226009   2.401   2.559   7.699
 1484TIP3   OH226010   2.590   4.751   8.214
 1484TIP3    H126011   2.545   4.822   8.167
 1484TIP3    H226012   2.564   4.672   8.168
 1485TIP3   OH226013   5.455   1.773   1.948
 1485TIP3    H126014   5.379   1.830   1.962
 1485TIP3    H226015   5.434   1.726   1.867
 1486TIP3   OH226016   2.735   6.639   0.679
 1486TIP3    H126017   2.656   6.594   0.651
 1486TIP3    H226018   2.723   6.653   0.773
 1487TIP3   OH226019   0.073   3.006   7.588
 1487TIP3    H126020   0.129   2.928   7.591
 1487TIP3    H226021   0.013   2.989   7.515
 1488TIP3   OH226022   6.797   5.597   7.448
 1488TIP3    H126023   0.013   5.555   7.383
 1488TIP3    H226024   6.763   5.524   7.500
 1489TIP3   OH226025   2.728   6.675   0.096
 1489TIP3    H126026   2.779   6.598   0.069
 1489TIP3    H226027   2.763   6.746   0.043
 1490TIP3   OH226028   6.143   0.750   0.292
 1490TIP3    H126029   6.138   0.693   0.215
 1490TIP3    H226030   6.235   0.752   0.315
 1491TIP3   OH226031   3.299   6.075   7.757
 1491TIP3    H126032   3.265   6.006   7.814
 1491TIP3    H226033   3.332   6.141   7.818
 1492TIP3   OH226034   3.695   1.181   7.680
 1492TIP3    H126035   3.667   1.104   7.629
 1492TIP3    H226036   3.679   1.156   7.771
 1493TIP3   OH226037   0.733   6.220   0.760
 1493TIP3    H126038   0.698   6.231   0.672
 1493TIP3    H226039   0.819   6.262   0.757
 1494TIP3   OH226040   4.889   6.741   0.136
 1494TIP3    H126041   4.955   6.719   0.070
 1494TIP3    H226042   4.806   6.710   0.100
 1495TIP3   OH226043   6.182   6.560   7.408
 1495TIP3    H126044   6.110   6.601   7.360
 1495TIP3    H226045   6.223   6.632   7.456
 1496TIP3   OH226046   5.653   4.475   0.906
 1496TIP3    H126047   5.664   4.424   0.827
 1496TIP3    H226048   5.708   4.431   0.971
 1497TIP3   OH226049   1.225   6.053   7.353
 1497TIP3    H126050   1.191   6.096   7.431
 1497TIP3    H226051   1.268   5.974   7.386
 1498TIP3   OH226052   0.337   2.324   0.350
 1498TIP3    H126053   0.399   2.251   0.356
 1498TIP3    H226054   0.279   2.312   0.425
 1499TIP3   OH226055   5.171   6.275   6.771
 1499TIP3    H126056   5.246   6.292   6.714
 1499TIP3    H226057   5.105   6.237   6.713
 1500TIP3   OH226058   5.356   0.604   1.825
 1500TIP3    H126059   5.365   0.691   1.784
 1500TIP3    H226060   5.365   0.543   1.752
 1501TIP3   OH226061   0.504   4.757   0.168
 1501TIP3    H126062   0.427   4.793   0.212
 1501TIP3    H226063   0.480   4.753   0.076
 1502TIP3   OH226064   1.822   2.848   7.482
 1502TIP3    H126065   1.727   2.844   7.491
 1502TIP3    H226066   1.838   2.927   7.430
 1503TIP3   OH226067   2.284   6.291   8.157
 1503TIP3    H126068   2.218   6.357   8.176
 1503TIP3    H226069   2.294   6.295   8.061
 1504TIP3   OH226070   0.669   0.272   8.426
 1504TIP3    H126071   0.683   0.296   8.518
 1504TIP3    H226072   0.717   0.190   8.415
 1505TIP3   OH226073   6.162   1.654   0.914
 1505TIP3    H126074   6.205   1.612   0.988
 1505TIP3    H226075   6.233   1.671   0.852
 1506TIP3   OH226076   0.699   6.237   5.908
 1506TIP3    H126077   0.680   6.256   6.000
 1506TIP3    H226078   0.653   6.155   5.890
 1507TIP3   OH226079   0.285   5.292   0.460
 1507TIP3    H126080   0.315   5.277   0.370
 1507TIP3    H226081   0.321   5.377   0.483
 1508TIP3   OH226082   3.346   5.008   6.805
 1508TIP3    H126083   3.286   5.075   6.838
 1508TIP3    H226084   3.290   4.938   6.773
 1509TIP3   OH226085   1.980   0.283   7.171
 1509TIP3    H126086   2.012   0.199   7.137
 1509TIP3    H226087   1.886   0.281   7.154
 1510TIP3   OH226088   1.706   4.235   0.310
 1510TIP3    H126089   1.734   4.169   0.373
 1510TIP3    H226090   1.610   4.236   0.317
 1511TIP3   OH226091   5.211   0.317   0.052
 1511TIP3    H126092   5.132   0.265   0.064
 1511TIP3    H226093   5.180   0.407   0.043
 1512TIP3   OH226094   3.044   0.766   1.609
 1512TIP3    H126095   3.114   0.830   1.595
 1512TIP3    H226096   3.053   0.741   1.701
 1513TIP3   OH226097   4.301   1.648   2.295
 1513TIP3    H126098   4.227   1.709   2.299
 1513TIP3    H226099   4.326   1.636   2.387
 1514TIP3   OH226100   4.948   0.612   1.014
 1514TIP3    H126101   4.921   0.699   1.041
 1514TIP3    H226102   4.882   0.553   1.052
 1515TIP3   OH226103   3.641   0.278   6.987
 1515TIP3    H126104   3.720   0.231   7.013
 1515TIP3    H226105   3.571   0.236   7.037
 1516TIP3   OH226106   0.375   6.321   0.188
 1516TIP3    H126107   0.406   6.410   0.205
 1516TIP3    H226108   0.369   6.316   0.092
 1517TIP3   OH226109   3.678   3.999   1.150
 1517TIP3    H126110   3.768   3.974   1.129
 1517TIP3    H226111   3.672   4.091   1.123
 1518TIP3   OH226112   0.153   6.448   6.897
 1518TIP3    H126113   0.162   6.460   6.802
 1518TIP3    H226114   0.081   6.386   6.907
 1519TIP3   OH226115   0.229   2.513   7.129
 1519TIP3    H126116   0.313   2.553   7.109
 1519TIP3    H226117   0.246   2.456   7.204
 1520TIP3   OH226118   5.754   6.054   7.529
 1520TIP3    H126119   5.683   6.087   7.474
 1520TIP3    H226120   5.806   6.000   7.470
 1521TIP3   OH226121   0.748   0.511   0.939
 1521TIP3    H126122   0.792   0.550   0.864
 1521TIP3    H226123   0.667   0.475   0.903
 1522TIP3   OH226124   1.490   3.347   8.384
 1522TIP3    H126125   1.504   3.340   8.290
 1522TIP3    H226126   1.472   3.440   8.399
 1523TIP3   OH226127   5.077   0.945   0.940
 1523TIP3    H126128   5.150   0.896   0.901
 1523TIP3    H226129   4.999   0.908   0.898
 1524TIP3   OH226130   2.405   2.709   6.641
 1524TIP3    H126131   2.484   2.726   6.589
 1524TIP3    H226132   2.412   2.768   6.716
 1525TIP3   OH226133   0.884   2.729   8.264
 1525TIP3    H126134   0.913   2.644   8.232
 1525TIP3    H226135   0.789   2.723   8.267
 1526TIP3   OH226136   4.482   5.985   0.413
 1526TIP3    H126137   4.421   5.962   0.483
 1526TIP3    H226138   4.555   6.028   0.459
 1527TIP3   OH226139   4.344   6.198   1.681
 1527TIP3    H126140   4.435   6.208   1.711
 1527TIP3    H226141   4.318   6.112   1.714
 1528TIP3   OH226142   6.833   5.960   8.639
 1528TIP3    H126143   0.055   5.926   8.575
 1528TIP3    H226144   6.768   6.008   8.588
 1529TIP3   OH226145   6.748   4.379   7.450
 1529TIP3    H126146   6.823   4.407   7.396
 1529TIP3    H226147   6.688   4.338   7.388
 1530TIP3   OH226148   0.920   1.902   8.675
 1530TIP3    H126149   0.936   1.934   8.586
 1530TIP3    H226150   0.911   1.982   8.727
 1531TIP3   OH226151   6.672   3.260   8.476
 1531TIP3    H126152   6.664   3.175   8.434
 1531TIP3    H226153   6.741   3.305   8.428
 1532TIP3   OH226154   3.883   3.308   8.086
 1532TIP3    H126155   3.970   3.274   8.066
 1532TIP3    H226156   3.838   3.235   8.130
 1533TIP3   OH226157   3.185   1.164   7.132
 1533TIP3    H126158   3.210   1.074   7.110
 1533TIP3    H226159   3.098   1.175   7.092
 1534TIP3   OH226160   4.196   1.206   7.357
 1534TIP3    H126161   4.267   1.270   7.357
 1534TIP3    H226162   4.227   1.137   7.298
 1535TIP3   OH226163   1.782   2.695   7.234
 1535TIP3    H126164   1.773   2.763   7.301
 1535TIP3    H226165   1.790   2.745   7.152
 1536TIP3   OH226166   3.035   4.497   7.338
 1536TIP3    H126167   2.970   4.535   7.396
 1536TIP3    H226168   2.987   4.476   7.258
 1537TIP3   OH226169   0.740   1.670   8.364
 1537TIP3    H126170   0.776   1.615   8.434
 1537TIP3    H226171   0.645   1.654   8.368
 1538TIP3   OH226172   2.360   4.078   6.315
 1538TIP3    H126173   2.414   4.057   6.391
 1538TIP3    H226174   2.302   4.147   6.344
 1539TIP3   OH226175   4.503   3.264   8.069
 1539TIP3    H126176   4.515   3.170   8.085
 1539TIP3    H226177   4.466   3.298   8.151
 1540TIP3   OH226178   3.262   3.192   0.641
 1540TIP3    H126179   3.236   3.101   0.655
 1540TIP3    H226180   3.240   3.237   0.723
 1541TIP3   OH226181   4.160   0.489   1.035
 1541TIP3    H126182   4.152   0.486   1.130
 1541TIP3    H226183   4.108   0.566   1.009
 1542TIP3   OH226184   1.443   0.441   0.216
 1542TIP3    H126185   1.389   0.491   0.276
 1542TIP3    H226186   1.505   0.395   0.272
 1543TIP3   OH226187   4.819   6.031   8.410
 1543TIP3    H126188   4.780   6.026   8.323
 1543TIP3    H226189   4.895   6.088   8.399
 1544TIP3   OH226190   0.214   2.110   0.080
 1544TIP3    H126191   0.174   2.026   0.057
 1544TIP3    H226192   0.261   2.093   0.162
 1545TIP3   OH226193   2.698   2.754   6.276
 1545TIP3    H126194   2.607   2.747   6.246
 1545TIP3    H226195   2.694   2.733   6.369
 1546TIP3   OH226196   6.340   0.070   0.930
 1546TIP3    H126197   6.382   0.009   0.990
 1546TIP3    H226198   6.305   0.015   0.860
 1547TIP3   OH226199   0.188   1.987   1.467
 1547TIP3    H126200   0.278   2.018   1.475
 1547TIP3    H226201   0.193   1.916   1.402
 1548TIP3   OH226202   3.769   1.811   8.292
 1548TIP3    H126203   3.751   1.843   8.204
 1548TIP3    H226204   3.693   1.757   8.313
 1549TIP3   OH226205   2.061   4.091   1.631
 1549TIP3    H126206   2.147   4.103   1.591
 1549TIP3    H226207   2.069   4.010   1.681
 1550TIP3   OH226208   2.430   2.709   0.686
 1550TIP3    H126209   2.468   2.630   0.725
 1550TIP3    H226210   2.474   2.717   0.602
 1551TIP3   OH226211   0.285   5.986   1.367
 1551TIP3    H126212   0.247   6.051   1.426
 1551TIP3    H226213   0.366   6.026   1.335
 1552TIP3   OH226214   5.936   2.115   7.289
 1552TIP3    H126215   5.861   2.067   7.324
 1552TIP3    H226216   5.922   2.118   7.195
 1553TIP3   OH226217   4.635   1.071   2.892
 1553TIP3    H126218   4.564   1.066   2.828
 1553TIP3    H226219   4.623   0.995   2.948
 1554TIP3   OH226220   2.358   4.485   7.110
 1554TIP3    H126221   2.303   4.564   7.111
 1554TIP3    H226222   2.375   4.468   7.203
 1555TIP3   OH226223   1.071   5.173   7.715
 1555TIP3    H126224   1.089   5.118   7.638
 1555TIP3    H226225   1.132   5.247   7.706
 1556TIP3   OH226226   0.811   3.824   0.844
 1556TIP3    H126227   0.729   3.872   0.855
 1556TIP3    H226228   0.786   3.744   0.798
 1557TIP3   OH226229   5.285   5.675   8.269
 1557TIP3    H126230   5.270   5.692   8.362
 1557TIP3    H226231   5.229   5.738   8.223
 1558TIP3   OH226232   5.689   0.113   1.138
 1558TIP3    H126233   5.684   0.019   1.120
 1558TIP3    H226234   5.717   0.118   1.230
 1559TIP3   OH226235   3.600   2.292   0.803
 1559TIP3    H126236   3.582   2.276   0.710
 1559TIP3    H226237   3.687   2.256   0.818
 1560TIP3   OH226238   2.479   5.941   0.949
 1560TIP3    H126239   2.431   5.996   1.011
 1560TIP3    H226240   2.413   5.915   0.884
 1561TIP3   OH226241   6.144   5.860   7.424
 1561TIP3    H126242   6.153   5.766   7.439
 1561TIP3    H226243   6.187   5.876   7.340
 1562TIP3   OH226244   0.137   1.422   1.319
 1562TIP3    H126245   0.199   1.358   1.284
 1562TIP3    H226246   0.053   1.377   1.316
 1563TIP3   OH226247   6.623   3.146   1.666
 1563TIP3    H126248   6.697   3.107   1.620
 1563TIP3    H226249   6.598   3.222   1.613
 1564TIP3   OH226250   5.855   2.064   1.547
 1564TIP3    H126251   5.830   1.974   1.564
 1564TIP3    H226252   5.847   2.074   1.452
 1565TIP3   OH226253   1.280   6.549   8.239
 1565TIP3    H126254   1.355   6.542   8.180
 1565TIP3    H226255   1.310   6.509   8.321
 1566TIP3   OH226256   1.526   1.333   7.402
 1566TIP3    H126257   1.611   1.290   7.402
 1566TIP3    H226258   1.539   1.413   7.351
 1567TIP3   OH226259   4.949   6.017   0.725
 1567TIP3    H126260   5.022   6.069   0.690
 1567TIP3    H226261   4.983   5.981   0.807
 1568TIP3   OH226262   5.485   3.816   8.056
 1568TIP3    H126263   5.458   3.906   8.077
 1568TIP3    H226264   5.561   3.800   8.113
 1569TIP3   OH226265   4.789   2.455   8.562
 1569TIP3    H126266   4.755   2.485   8.478
 1569TIP3    H226267   4.720   2.399   8.598
 1570TIP3   OH226268   0.988   1.176   0.162
 1570TIP3    H126269   0.950   1.088   0.160
 1570TIP3    H226270   1.062   1.168   0.223
 1571TIP3   OH226271   4.924   4.034   6.006
 1571TIP3    H126272   4.987   4.025   6.078
 1571TIP3    H226273   4.867   4.105   6.033
 1572TIP3   OH226274   0.029   1.164   6.952
 1572TIP3    H126275   0.106   1.134   6.903
 1572TIP3    H226276   6.826   1.226   6.892
 1573TIP3   OH226277   0.179   5.419   8.407
 1573TIP3    H126278   0.255   5.415   8.466
 1573TIP3    H226279   0.194   5.348   8.345
 1574TIP3   OH226280   3.141   3.505   0.496
 1574TIP3    H126281   3.081   3.496   0.571
 1574TIP3    H226282   3.171   3.595   0.500
 1575TIP3   OH226283   0.459   2.893   0.394
 1575TIP3    H126284   0.535   2.938   0.433
 1575TIP3    H226285   0.400   2.877   0.468
 1576TIP3   OH226286   6.044   6.003   0.169
 1576TIP3    H126287   6.114   6.009   0.233
 1576TIP3    H226288   5.966   5.982   0.220
 1577TIP3   OH226289   4.886   2.885   8.211
 1577TIP3    H126290   4.924   2.953   8.266
 1577TIP3    H226291   4.791   2.898   8.217
 1578TIP3   OH226292   2.651   2.239   0.628
 1578TIP3    H126293   2.679   2.204   0.713
 1578TIP3    H226294   2.613   2.324   0.649
 1579TIP3   OH226295   0.239   3.735   0.942
 1579TIP3    H126296   0.181   3.748   1.017
 1579TIP3    H226297   0.181   3.709   0.871
 1580TIP3   OH226298   5.916   0.541   1.612
 1580TIP3    H126299   5.915   0.506   1.701
 1580TIP3    H226300   5.869   0.476   1.560
 1581TIP3   OH226301   4.376   0.728   1.693
 1581TIP3    H126302   4.393   0.819   1.667
 1581TIP3    H226303   4.312   0.735   1.764
 1582TIP3   OH226304   1.760   6.583   8.654
 1582TIP3    H126305   1.725   6.556   0.004
 1582TIP3    H226306   1.689   6.636   8.616
 1583TIP3   OH226307   2.659   2.674   1.493
 1583TIP3    H126308   2.586   2.619   1.521
 1583TIP3    H226309   2.724   2.612   1.460
 1584TIP3   OH226310   2.589   5.200   8.079
 1584TIP3    H126311   2.546   5.241   8.155
 1584TIP3    H226312   2.669   5.163   8.115
 1585TIP3   OH226313   4.589   2.778   7.862
 1585TIP3    H126314   4.536   2.788   7.783
 1585TIP3    H226315   4.560   2.849   7.920
 1586TIP3   OH226316   4.539   4.567   0.346
 1586TIP3    H126317   4.617   4.534   0.303
 1586TIP3    H226318   4.552   4.662   0.349
 1587TIP3   OH226319   2.377   0.269   2.127
 1587TIP3    H126320   2.405   0.287   2.217
 1587TIP3    H226321   2.387   0.174   2.117
 1588TIP3   OH226322   4.750   6.612   1.644
 1588TIP3    H126323   4.736   6.538   1.584
 1588TIP3    H226324   4.694   6.681   1.610
 1589TIP3   OH226325   5.410   4.432   0.592
 1589TIP3    H126326   5.333   4.489   0.590
 1589TIP3    H226327   5.463   4.461   0.517
 1590TIP3   OH226328   1.837   2.083   0.758
 1590TIP3    H126329   1.743   2.100   0.767
 1590TIP3    H226330   1.845   2.038   0.674
 1591TIP3   OH226331   5.660   2.260   1.137
 1591TIP3    H126332   5.682   2.182   1.086
 1591TIP3    H226333   5.734   2.319   1.124
 1592TIP3   OH226334   4.997   1.614   1.316
 1592TIP3    H126335   5.027   1.661   1.238
 1592TIP3    H226336   4.946   1.679   1.365
 1593TIP3   OH226337   3.382   6.002   1.870
 1593TIP3    H126338   3.369   5.954   1.788
 1593TIP3    H226339   3.374   5.935   1.938
 1594TIP3   OH226340   5.942   1.046   7.576
 1594TIP3    H126341   5.895   1.031   7.657
 1594TIP3    H226342   5.874   1.051   7.509
 1595TIP3   OH226343   6.423   3.947   0.565
 1595TIP3    H126344   6.374   3.894   0.628
 1595TIP3    H226345   6.494   3.986   0.615
 1596TIP3   OH226346   1.679   5.033   8.063
 1596TIP3    H126347   1.680   5.116   8.111
 1596TIP3    H226348   1.770   5.019   8.038
 1597TIP3   OH226349   1.342   5.609   6.960
 1597TIP3    H126350   1.289   5.570   6.891
 1597TIP3    H226351   1.329   5.703   6.951
 1598TIP3   OH226352   4.723   0.446   1.035
 1598TIP3    H126353   4.775   0.367   1.051
 1598TIP3    H226354   4.632   0.415   1.032
 1599TIP3   OH226355   3.347   6.541   1.504
 1599TIP3    H126356   3.286   6.492   1.449
 1599TIP3    H226357   3.429   6.541   1.455
 1600TIP3   OH226358   3.923   0.059   8.610
 1600TIP3    H126359   3.901   6.825   8.665
 1600TIP3    H226360   3.862   0.128   8.637
 1601TIP3   OH226361   0.782   4.910   8.642
 1601TIP3    H126362   0.762   4.932   8.733
 1601TIP3    H226363   0.800   4.816   8.643
 1602TIP3   OH226364   4.968   5.608   7.809
 1602TIP3    H126365   5.047   5.659   7.824
 1602TIP3    H226366   4.985   5.562   7.726
 1603TIP3   OH226367   0.055   3.959   1.443
 1603TIP3    H126368   0.130   4.018   1.448
 1603TIP3    H226369   6.824   4.014   1.413
 1604TIP3   OH226370   4.582   1.554   2.070
 1604TIP3    H126371   4.670   1.521   2.088
 1604TIP3    H226372   4.552   1.592   2.153
 1605TIP3   OH226373   4.259   5.429   7.644
 1605TIP3    H126374   4.305   5.349   7.668
 1605TIP3    H226375   4.271   5.437   7.550
 1606TIP3   OH226376   0.405   5.489   7.349
 1606TIP3    H126377   0.311   5.468   7.352
 1606TIP3    H226378   0.431   5.491   7.441
 1607TIP3   OH226379   4.768   0.844   7.845
 1607TIP3    H126380   4.807   0.930   7.832
 1607TIP3    H226381   4.834   0.795   7.893
 1608TIP3   OH226382   5.957   0.646   2.388
 1608TIP3    H126383   5.874   0.607   2.416
 1608TIP3    H226384   6.016   0.633   2.462
 1609TIP3   OH226385   5.027   0.530   7.454
 1609TIP3    H126386   4.947   0.484   7.431
 1609TIP3    H226387   4.998   0.602   7.510
 1610TIP3   OH226388   0.309   6.247   1.517
 1610TIP3    H126389   0.261   6.276   1.594
 1610TIP3    H226390   0.362   6.323   1.492
 1611TIP3   OH226391   6.805   4.204   6.462
 1611TIP3    H126392   6.830   4.232   6.550
 1611TIP3    H226393   0.042   4.219   6.409
 1612TIP3   OH226394   3.039   0.447   8.123
 1612TIP3    H126395   2.996   0.510   8.066
 1612TIP3    H226396   3.114   0.494   8.159
 1613TIP3   OH226397   2.178   5.585   2.364
 1613TIP3    H126398   2.227   5.506   2.384
 1613TIP3    H226399   2.208   5.611   2.277
 1614TIP3   OH226400   4.275   0.787   7.814
 1614TIP3    H126401   4.251   0.868   7.771
 1614TIP3    H226402   4.365   0.801   7.845
 1615TIP3   OH226403   4.288   3.842   6.644
 1615TIP3    H126404   4.253   3.815   6.729
 1615TIP3    H226405   4.376   3.804   6.641
 1616TIP3   OH226406   6.528   4.788   8.507
 1616TIP3    H126407   6.612   4.833   8.499
 1616TIP3    H226408   6.547   4.711   8.562
 1617TIP3   OH226409   0.371   2.184   7.555
 1617TIP3    H126410   0.421   2.109   7.522
 1617TIP3    H226411   0.374   2.175   7.651
 1618TIP3   OH226412   1.292   5.870   6.857
 1618TIP3    H126413   1.272   5.869   6.763
 1618TIP3    H226414   1.385   5.891   6.862
 1619TIP3   OH226415   5.139   0.284   7.617
 1619TIP3    H126416   5.217   0.318   7.661
 1619TIP3    H226417   5.120   0.347   7.548
 1620TIP3   OH226418   3.279   2.184   0.546
 1620TIP3    H126419   3.238   2.130   0.479
 1620TIP3    H226420   3.217   2.182   0.619
 1621TIP3   OH226421   1.296   1.127   1.137
 1621TIP3    H126422   1.386   1.136   1.105
 1621TIP3    H226423   1.275   1.213   1.174
 1622TIP3   OH226424   3.071   6.593   7.047
 1622TIP3    H126425   2.978   6.602   7.065
 1622TIP3    H226426   3.090   6.501   7.066
 1623TIP3   OH226427   0.649   0.555   1.204
 1623TIP3    H126428   0.656   0.523   1.115
 1623TIP3    H226429   0.555   0.569   1.217
 1624TIP3   OH226430   0.208   4.950   0.947
 1624TIP3    H126431   0.292   4.951   0.900
 1624TIP3    H226432   0.223   5.005   1.024
 1625TIP3   OH226433   6.829   5.167   7.204
 1625TIP3    H126434   0.081   5.145   7.208
 1625TIP3    H226435   6.806   5.193   7.293
 1626TIP3   OH226436   5.148   1.325   8.676
 1626TIP3    H126437   5.219   1.261   8.685
 1626TIP3    H226438   5.180   1.387   8.610
 1627TIP3   OH226439   2.542   2.463   0.783
 1627TIP3    H126440   2.530   2.510   0.866
 1627TIP3    H226441   2.493   2.381   0.795
 1628TIP3   OH226442   6.216   1.534   0.474
 1628TIP3    H126443   6.284   1.504   0.534
 1628TIP3    H226444   6.201   1.625   0.499
 1629TIP3   OH226445   1.244   1.033   7.608
 1629TIP3    H126446   1.151   1.052   7.602
 1629TIP3    H226447   1.287   1.117   7.590
 1630TIP3   OH226448   3.708   6.343   7.062
 1630TIP3    H126449   3.717   6.306   7.150
 1630TIP3    H226450   3.724   6.269   7.004
 1631TIP3   OH226451   0.180   5.893   7.655
 1631TIP3    H126452   0.097   5.940   7.658
 1631TIP3    H226453   0.183   5.855   7.567
 1632TIP3   OH226454   6.485   2.012   0.237
 1632TIP3    H126455   6.503   1.940   0.298
 1632TIP3    H226456   6.398   1.993   0.202
 1633TIP3   OH226457   6.128   1.259   1.146
 1633TIP3    H126458   6.102   1.258   1.238
 1633TIP3    H226459   6.048   1.281   1.099
 1634TIP3   OH226460   0.447   3.523   6.437
 1634TIP3    H126461   0.535   3.511   6.402
 1634TIP3    H226462   0.412   3.435   6.446
 1635TIP3   OH226463   3.442   3.513   0.669
 1635TIP3    H126464   3.351   3.500   0.697
 1635TIP3    H226465   3.464   3.602   0.699
 1636TIP3   OH226466   4.410   3.069   0.183
 1636TIP3    H126467   4.430   3.086   0.275
 1636TIP3    H226468   4.487   3.022   0.150
 1637TIP3   OH226469   1.071   6.682   2.187
 1637TIP3    H126470   1.097   6.610   2.244
 1637TIP3    H226471   1.025   6.639   2.115
 1638TIP3   OH226472   1.547   5.480   1.243
 1638TIP3    H126473   1.620   5.471   1.182
 1638TIP3    H226474   1.484   5.535   1.197
 1639TIP3   OH226475   2.640   0.538   8.459
 1639TIP3    H126476   2.714   0.596   8.475
 1639TIP3    H226477   2.563   0.591   8.475
 1640TIP3   OH226478   1.535   0.823   7.641
 1640TIP3    H126479   1.445   0.831   7.674
 1640TIP3    H226480   1.566   0.913   7.633
 1641TIP3   OH226481   0.290   5.059   7.193
 1641TIP3    H126482   0.251   4.999   7.130
 1641TIP3    H226483   0.318   5.003   7.266
 1642TIP3   OH226484   6.043   0.211   7.516
 1642TIP3    H126485   5.961   0.245   7.552
 1642TIP3    H226486   6.038   0.229   7.422
 1643TIP3   OH226487   1.829   4.103   0.523
 1643TIP3    H126488   1.918   4.084   0.554
 1643TIP3    H226489   1.778   4.026   0.547
 1644TIP3   OH226490   4.206   4.975   1.544
 1644TIP3    H126491   4.252   4.895   1.566
 1644TIP3    H226492   4.253   5.044   1.590
 1645TIP3   OH226493   5.228   4.912   7.526
 1645TIP3    H126494   5.249   5.004   7.535
 1645TIP3    H226495   5.186   4.888   7.608
 1646TIP3   OH226496   2.755   5.120   1.294
 1646TIP3    H126497   2.828   5.157   1.245
 1646TIP3    H226498   2.780   5.132   1.386
 1647TIP3   OH226499   0.949   2.698   7.931
 1647TIP3    H126500   0.999   2.640   7.874
 1647TIP3    H226501   1.015   2.754   7.972
 1648TIP3   OH226502   5.174   0.981   1.877
 1648TIP3    H126503   5.256   0.937   1.898
 1648TIP3    H226504   5.200   1.071   1.854
 1649TIP3   OH226505   3.580   6.612   7.656
 1649TIP3    H126506   3.606   6.677   7.721
 1649TIP3    H226507   3.612   6.647   7.572
 1650TIP3   OH226508   3.493   1.221   0.383
 1650TIP3    H126509   3.506   1.269   0.465
 1650TIP3    H226510   3.500   1.129   0.408
 1651TIP3   OH226511   5.440   4.498   6.978
 1651TIP3    H126512   5.464   4.568   7.038
 1651TIP3    H226513   5.513   4.437   6.981
 1652TIP3   OH226514   3.612   6.222   8.728
 1652TIP3    H126515   3.618   6.131   8.697
 1652TIP3    H226516   3.701   6.256   8.719
 1653TIP3   OH226517   2.416   0.462   1.550
 1653TIP3    H126518   2.414   0.375   1.591
 1653TIP3    H226519   2.506   0.473   1.521
 1654TIP3   OH226520   1.255   5.376   6.815
 1654TIP3    H126521   1.332   5.322   6.833
 1654TIP3    H226522   1.183   5.313   6.806
 1655TIP3   OH226523   0.328   3.697   8.207
 1655TIP3    H126524   0.249   3.649   8.180
 1655TIP3    H226525   0.399   3.655   8.158
 1656TIP3   OH226526   3.575   3.953   2.014
 1656TIP3    H126527   3.573   3.979   1.921
 1656TIP3    H226528   3.633   3.877   2.016
 1657TIP3   OH226529   3.739   2.578   2.616
 1657TIP3    H126530   3.784   2.622   2.543
 1657TIP3    H226531   3.734   2.645   2.684
 1658TIP3   OH226532   3.983   4.583   7.087
 1658TIP3    H126533   4.078   4.590   7.081
 1658TIP3    H226534   3.950   4.646   7.023
 1659TIP3   OH226535   1.525   0.950   1.366
 1659TIP3    H126536   1.541   1.011   1.438
 1659TIP3    H226537   1.540   1.001   1.287
 1660TIP3   OH226538   1.356   3.982   0.380
 1660TIP3    H126539   1.303   3.903   0.367
 1660TIP3    H226540   1.360   4.023   0.294
 1661TIP3   OH226541   0.836   3.975   0.220
 1661TIP3    H126542   0.812   3.909   0.155
 1661TIP3    H226543   0.912   3.937   0.266
 1662TIP3   OH226544   0.588   3.110   7.871
 1662TIP3    H126545   0.501   3.123   7.908
 1662TIP3    H226546   0.647   3.149   7.935
 1663TIP3   OH226547   0.959   3.810   1.734
 1663TIP3    H126548   0.976   3.729   1.685
 1663TIP3    H226549   1.022   3.872   1.697
 1664TIP3   OH226550   3.268   4.402   1.061
 1664TIP3    H126551   3.187   4.448   1.083
 1664TIP3    H226552   3.329   4.471   1.034
 1665TIP3   OH226553   1.483   4.590   1.055
 1665TIP3    H126554   1.466   4.636   1.137
 1665TIP3    H226555   1.405   4.535   1.042
 1666TIP3   OH226556   3.889   1.686   1.442
 1666TIP3    H126557   3.943   1.735   1.380
 1666TIP3    H226558   3.825   1.749   1.474
 1667TIP3   OH226559   4.462   3.857   8.341
 1667TIP3    H126560   4.546   3.813   8.322
 1667TIP3    H226561   4.464   3.872   8.435
 1668TIP3   OH226562   6.180   1.760   0.226
 1668TIP3    H126563   6.119   1.720   0.288
 1668TIP3    H226564   6.195   1.691   0.160
 1669TIP3   OH226565   5.155   5.395   1.669
 1669TIP3    H126566   5.145   5.414   1.762
 1669TIP3    H226567   5.126   5.475   1.625
 1670TIP3   OH226568   3.137   0.438   1.833
 1670TIP3    H126569   3.223   0.479   1.831
 1670TIP3    H226570   3.106   0.451   1.923
 1671TIP3   OH226571   3.475   6.366   7.694
 1671TIP3    H126572   3.550   6.320   7.657
 1671TIP3    H226573   3.502   6.457   7.698
 1672TIP3   OH226574   4.419   2.604   1.637
 1672TIP3    H126575   4.456   2.545   1.703
 1672TIP3    H226576   4.378   2.546   1.573
 1673TIP3   OH226577   1.323   6.513   1.386
 1673TIP3    H126578   1.369   6.438   1.347
 1673TIP3    H226579   1.392   6.578   1.401
 1674TIP3   OH226580   4.086   5.867   1.633
 1674TIP3    H126581   4.179   5.864   1.609
 1674TIP3    H226582   4.050   5.785   1.599
 1675TIP3   OH226583   1.908   6.785   1.375
 1675TIP3    H126584   1.983   6.821   1.326
 1675TIP3    H226585   1.944   6.761   1.460
 1676TIP3   OH226586   5.866   4.518   0.090
 1676TIP3    H126587   5.883   4.549   0.001
 1676TIP3    H226588   5.821   4.590   0.133
 1677TIP3   OH226589   0.941   2.635   0.129
 1677TIP3    H126590   0.911   2.556   0.083
 1677TIP3    H226591   0.977   2.690   0.059
 1678TIP3   OH226592   1.116   3.184   6.126
 1678TIP3    H126593   1.156   3.200   6.212
 1678TIP3    H226594   1.022   3.193   6.141
 1679TIP3   OH226595   0.151   1.660   6.326
 1679TIP3    H126596   0.204   1.592   6.369
 1679TIP3    H226597   0.194   1.742   6.351
 1680TIP3   OH226598   3.009   0.181   8.055
 1680TIP3    H126599   3.005   0.166   7.961
 1680TIP3    H226600   3.023   0.275   8.064
 1681TIP3   OH226601   2.772   0.999   0.727
 1681TIP3    H126602   2.790   0.912   0.762
 1681TIP3    H226603   2.677   1.010   0.737
 1682TIP3   OH226604   3.749   4.379   8.106
 1682TIP3    H126605   3.776   4.388   8.015
 1682TIP3    H226606   3.653   4.379   8.103
 1683TIP3   OH226607   5.408   6.035   6.541
 1683TIP3    H126608   5.501   6.014   6.543
 1683TIP3    H226609   5.404   6.130   6.554
 1684TIP3   OH226610   4.392   6.014   2.181
 1684TIP3    H126611   4.428   5.935   2.222
 1684TIP3    H226612   4.448   6.028   2.105
 1685TIP3   OH226613   5.167   1.728   1.789
 1685TIP3    H126614   5.094   1.673   1.818
 1685TIP3    H226615   5.133   1.817   1.795
 1686TIP3   OH226616   4.861   5.341   0.611
 1686TIP3    H126617   4.850   5.266   0.670
 1686TIP3    H226618   4.813   5.412   0.653
 1687TIP3   OH226619   5.997   4.165   7.642
 1687TIP3    H126620   6.034   4.252   7.654
 1687TIP3    H226621   5.941   4.173   7.565
 1688TIP3   OH226622   2.316   1.761   8.149
 1688TIP3    H126623   2.239   1.817   8.143
 1688TIP3    H226624   2.381   1.816   8.194
 1689TIP3   OH226625   3.014   2.507   7.468
 1689TIP3    H126626   2.963   2.585   7.449
 1689TIP3    H226627   2.950   2.443   7.499
 1690TIP3   OH226628   5.064   4.926   6.359
 1690TIP3    H126629   5.093   4.835   6.367
 1690TIP3    H226630   5.115   4.961   6.285
 1691TIP3   OH226631   1.359   6.122   8.053
 1691TIP3    H126632   1.384   6.127   8.145
 1691TIP3    H226633   1.422   6.178   8.008
 1692TIP3   OH226634   2.077   2.840   2.315
 1692TIP3    H126635   2.073   2.909   2.248
 1692TIP3    H226636   2.048   2.883   2.395
 1693TIP3   OH226637   0.200   6.697   6.229
 1693TIP3    H126638   0.252   6.778   6.234
 1693TIP3    H226639   0.241   6.646   6.160
 1694TIP3   OH226640   0.368   2.482   7.621
 1694TIP3    H126641   0.277   2.514   7.620
 1694TIP3    H226642   0.365   2.401   7.570
 1695TIP3   OH226643   1.335   5.353   0.628
 1695TIP3    H126644   1.345   5.258   0.631
 1695TIP3    H226645   1.243   5.366   0.604
 1696TIP3   OH226646   4.014   0.000   7.503
 1696TIP3    H126647   4.027   6.763   7.557
 1696TIP3    H226648   4.023   6.810   7.413
 1697TIP3   OH226649   0.487   3.404   0.051
 1697TIP3    H126650   0.417   3.399   0.116
 1697TIP3    H226651   0.442   3.405   8.701
 1698TIP3   OH226652   2.909   3.114   8.120
 1698TIP3    H126653   2.855   3.077   8.191
 1698TIP3    H226654   2.887   3.207   8.120
 1699TIP3   OH226655   1.835   4.272   7.038
 1699TIP3    H126656   1.855   4.362   7.012
 1699TIP3    H226657   1.782   4.238   6.966
 1700TIP3   OH226658   5.767   2.080   1.818
 1700TIP3    H126659   5.754   2.009   1.754
 1700TIP3    H226660   5.856   2.067   1.851
 1701TIP3   OH226661   5.092   4.573   8.233
 1701TIP3    H126662   5.115   4.481   8.246
 1701TIP3    H226663   5.172   4.613   8.198
 1702TIP3   OH226664   2.759   3.427   0.600
 1702TIP3    H126665   2.817   3.468   0.535
 1702TIP3    H226666   2.674   3.469   0.586
 1703TIP3   OH226667   2.683   3.702   1.637
 1703TIP3    H126668   2.655   3.666   1.553
 1703TIP3    H226669   2.767   3.660   1.655
 1704TIP3   OH226670   1.701   0.182   2.444
 1704TIP3    H126671   1.630   0.219   2.393
 1704TIP3    H226672   1.695   0.088   2.428
 1705TIP3   OH226673   1.303   3.698   0.324
 1705TIP3    H126674   1.330   3.704   0.232
 1705TIP3    H226675   1.253   3.616   0.329
 1706TIP3   OH226676   6.055   3.528   0.438
 1706TIP3    H126677   6.117   3.584   0.390
 1706TIP3    H226678   5.982   3.587   0.459
 1707TIP3   OH226679   0.911   1.173   1.945
 1707TIP3    H126680   0.997   1.211   1.965
 1707TIP3    H226681   0.889   1.122   2.023
 1708TIP3   OH226682   6.130   2.564   1.423
 1708TIP3    H126683   6.105   2.585   1.513
 1708TIP3    H226684   6.051   2.580   1.372
 1709TIP3   OH226685   1.168   1.210   6.868
 1709TIP3    H126686   1.196   1.123   6.897
 1709TIP3    H226687   1.247   1.264   6.872
 1710TIP3   OH226688   5.563   6.328   6.344
 1710TIP3    H126689   5.540   6.399   6.404
 1710TIP3    H226690   5.615   6.267   6.398
 1711TIP3   OH226691   1.688   5.584   1.448
 1711TIP3    H126692   1.685   5.678   1.461
 1711TIP3    H226693   1.611   5.565   1.393
 1712TIP3   OH226694   6.420   6.779   8.069
 1712TIP3    H126695   6.430   6.808   7.978
 1712TIP3    H226696   6.508   6.783   8.106
 1713TIP3   OH226697   0.532   0.316   0.142
 1713TIP3    H126698   0.575   0.358   0.217
 1713TIP3    H226699   0.472   0.382   0.109
 1714TIP3   OH226700   4.187   3.771   8.151
 1714TIP3    H126701   4.237   3.852   8.161
 1714TIP3    H226702   4.254   3.703   8.140
 1715TIP3   OH226703   2.198   3.373   7.779
 1715TIP3    H126704   2.124   3.416   7.822
 1715TIP3    H226705   2.183   3.280   7.792
 1716TIP3   OH226706   0.656   1.793   1.636
 1716TIP3    H126707   0.611   1.719   1.676
 1716TIP3    H226708   0.623   1.869   1.683
 1717TIP3   OH226709   0.352   3.158   1.270
 1717TIP3    H126710   0.434   3.140   1.316
 1717TIP3    H226711   0.292   3.089   1.300
 1718TIP3   OH226712   4.797   5.337   1.076
 1718TIP3    H126713   4.867   5.274   1.060
 1718TIP3    H226714   4.842   5.419   1.095
 1719TIP3   OH226715   3.547   1.149   6.928
 1719TIP3    H126716   3.576   1.130   6.839
 1719TIP3    H226717   3.550   1.064   6.972
 1720TIP3   OH226718   5.038   4.923   1.625
 1720TIP3    H126719   4.943   4.934   1.622
 1720TIP3    H226720   5.067   4.974   1.701
 1721TIP3   OH226721   1.393   5.078   7.243
 1721TIP3    H126722   1.364   5.053   7.154
 1721TIP3    H226723   1.330   5.034   7.301
 1722TIP3   OH226724   4.401   1.734   0.366
 1722TIP3    H126725   4.427   1.804   0.306
 1722TIP3    H226726   4.483   1.689   0.388
 1723TIP3   OH226727   1.376   6.556   2.061
 1723TIP3    H126728   1.353   6.473   2.102
 1723TIP3    H226729   1.393   6.615   2.134
 1724TIP3   OH226730   5.309   2.618   7.823
 1724TIP3    H126731   5.249   2.596   7.894
 1724TIP3    H226732   5.389   2.646   7.867
 1725TIP3   OH226733   2.448   0.911   6.183
 1725TIP3    H126734   2.440   0.846   6.253
 1725TIP3    H226735   2.539   0.939   6.187
 1726TIP3   OH226736   4.577   3.902   7.978
 1726TIP3    H126737   4.564   3.811   8.004
 1726TIP3    H226738   4.626   3.897   7.896
 1727TIP3   OH226739   3.180   6.494   8.516
 1727TIP3    H126740   3.274   6.476   8.516
 1727TIP3    H226741   3.174   6.589   8.505
 1728TIP3   OH226742   1.959   3.336   1.427
 1728TIP3    H126743   2.039   3.365   1.384
 1728TIP3    H226744   1.919   3.416   1.460
 1729TIP3   OH226745   5.784   3.715   0.232
 1729TIP3    H126746   5.822   3.732   0.318
 1729TIP3    H226747   5.731   3.793   0.214
 1730TIP3   OH226748   3.459   4.732   8.031
 1730TIP3    H126749   3.546   4.765   8.007
 1730TIP3    H226750   3.403   4.755   7.957
 1731TIP3   OH226751   3.424   2.006   1.452
 1731TIP3    H126752   3.379   1.928   1.486
 1731TIP3    H226753   3.413   2.000   1.357
 1732TIP3   OH226754   5.954   1.691   2.120
 1732TIP3    H126755   5.903   1.770   2.138
 1732TIP3    H226756   5.900   1.619   2.153
 1733TIP3   OH226757   0.220   2.547   6.233
 1733TIP3    H126758   0.308   2.514   6.253
 1733TIP3    H226759   0.194   2.596   6.311
 1734TIP3   OH226760   4.857   5.697   1.703
 1734TIP3    H126761   4.900   5.763   1.648
 1734TIP3    H226762   4.792   5.747   1.752
 1735TIP3   OH226763   2.843   6.400   0.877
 1735TIP3    H126764   2.815   6.491   0.889
 1735TIP3    H226765   2.932   6.398   0.911
 1736TIP3   OH226766   4.448   3.583   1.485
 1736TIP3    H126767   4.460   3.649   1.554
 1736TIP3    H226768   4.427   3.502   1.533
 1737TIP3   OH226769   4.750   3.642   1.635
 1737TIP3    H126770   4.693   3.568   1.613
 1737TIP3    H226771   4.694   3.701   1.686
 1738TIP3   OH226772   4.671   6.583   0.036
 1738TIP3    H126773   4.617   6.507   0.059
 1738TIP3    H226774   4.715   6.557   8.689
 1739TIP3   OH226775   6.657   1.997   7.187
 1739TIP3    H126776   6.747   1.990   7.155
 1739TIP3    H226777   6.643   2.091   7.197
 1740TIP3   OH226778   0.667   1.551   0.463
 1740TIP3    H126779   0.702   1.605   0.534
 1740TIP3    H226780   0.737   1.548   0.398
 1741TIP3   OH226781   6.219   1.790   8.207
 1741TIP3    H126782   6.250   1.767   8.295
 1741TIP3    H226783   6.298   1.818   8.160
 1742TIP3   OH226784   5.479   6.797   3.122
 1742TIP3    H126785   5.458   0.048   3.109
 1742TIP3    H226786   5.473   6.758   3.035
 1743TIP3   OH226787   2.530   2.653   8.350
 1743TIP3    H126788   2.606   2.673   8.295
 1743TIP3    H226789   2.567   2.613   8.429
 1744TIP3   OH226790   3.006   3.260   2.109
 1744TIP3    H126791   3.015   3.339   2.055
 1744TIP3    H226792   3.085   3.259   2.162
 1745TIP3   OH226793   0.508   1.657   1.320
 1745TIP3    H126794   0.539   1.658   1.229
 1745TIP3    H226795   0.559   1.725   1.364
 1746TIP3   OH226796   4.338   0.698   1.224
 1746TIP3    H126797   4.422   0.657   1.201
 1746TIP3    H226798   4.337   0.781   1.177
 1747TIP3   OH226799   3.195   4.672   1.301
 1747TIP3    H126800   3.112   4.721   1.298
 1747TIP3    H226801   3.257   4.729   1.257
 1748TIP3   OH226802   4.010   4.772   0.634
 1748TIP3    H126803   4.012   4.861   0.601
 1748TIP3    H226804   4.093   4.734   0.605
 1749TIP3   OH226805   5.778   2.626   0.432
 1749TIP3    H126806   5.823   2.707   0.454
 1749TIP3    H226807   5.771   2.627   0.337
 1750TIP3   OH226808   0.325   6.070   0.724
 1750TIP3    H126809   0.266   6.114   0.663
 1750TIP3    H226810   0.269   6.008   0.770
 1751TIP3   OH226811   1.390   4.877   7.477
 1751TIP3    H126812   1.424   4.793   7.507
 1751TIP3    H226813   1.341   4.911   7.552
 1752TIP3   OH226814   2.226   0.675   7.111
 1752TIP3    H126815   2.166   0.732   7.061
 1752TIP3    H226816   2.168   0.615   7.157
 1753TIP3   OH226817   2.492   3.178   7.764
 1753TIP3    H126818   2.525   3.261   7.728
 1753TIP3    H226819   2.567   3.119   7.760
 1754TIP3   OH226820   0.566   1.109   7.453
 1754TIP3    H126821   0.544   1.073   7.367
 1754TIP3    H226822   0.594   1.033   7.504
 1755TIP3   OH226823   1.910   2.036   1.019
 1755TIP3    H126824   1.996   2.038   1.062
 1755TIP3    H226825   1.931   2.042   0.925
 1756TIP3   OH226826   1.609   3.018   7.829
 1756TIP3    H126827   1.701   3.032   7.852
 1756TIP3    H226828   1.600   2.923   7.825
 1757TIP3   OH226829   4.046   2.035   7.217
 1757TIP3    H126830   4.049   2.067   7.308
 1757TIP3    H226831   3.976   1.970   7.217
 1758TIP3   OH226832   1.785   3.324   7.822
 1758TIP3    H126833   1.691   3.334   7.803
 1758TIP3    H226834   1.806   3.237   7.790
 1759TIP3   OH226835   1.982   2.589   2.361
 1759TIP3    H126836   2.057   2.646   2.345
 1759TIP3    H226837   1.906   2.643   2.344
 1760TIP3   OH226838   6.152   0.247   8.072
 1760TIP3    H126839   6.119   0.227   8.160
 1760TIP3    H226840   6.116   0.333   8.051
 1761TIP3   OH226841   6.158   3.077   7.673
 1761TIP3    H126842   6.202   3.054   7.591
 1761TIP3    H226843   6.182   3.007   7.733
 1762TIP3   OH226844   6.793   4.359   0.751
 1762TIP3    H126845   6.817   4.389   0.839
 1762TIP3    H226846   6.735   4.427   0.717
 1763TIP3   OH226847   2.867   6.192   7.950
 1763TIP3    H126848   2.935   6.182   8.016
 1763TIP3    H226849   2.813   6.114   7.960
 1764TIP3   OH226850   4.495   2.658   1.082
 1764TIP3    H126851   4.409   2.630   1.051
 1764TIP3    H226852   4.484   2.752   1.099
 1765TIP3   OH226853   3.400   5.747   1.735
 1765TIP3    H126854   3.481   5.764   1.784
 1765TIP3    H226855   3.383   5.654   1.748
 1766TIP3   OH226856   6.741   1.289   1.802
 1766TIP3    H126857   6.663   1.259   1.849
 1766TIP3    H226858   6.815   1.264   1.857
 1767TIP3   OH226859   0.393   6.456   0.615
 1767TIP3    H126860   0.373   6.466   0.709
 1767TIP3    H226861   0.454   6.382   0.612
 1768TIP3   OH226862   2.474   4.287   7.558
 1768TIP3    H126863   2.553   4.289   7.612
 1768TIP3    H226864   2.481   4.207   7.507
 1769TIP3   OH226865   1.270   6.144   1.181
 1769TIP3    H126866   1.196   6.205   1.183
 1769TIP3    H226867   1.230   6.058   1.171
 1770TIP3   OH226868   5.402   4.200   1.669
 1770TIP3    H126869   5.375   4.170   1.756
 1770TIP3    H226870   5.491   4.168   1.659
 1771TIP3   OH226871   6.602   4.933   1.508
 1771TIP3    H126872   6.555   5.000   1.559
 1771TIP3    H226873   6.606   4.970   1.419
 1772TIP3   OH226874   2.166   0.736   1.158
 1772TIP3    H126875   2.166   0.765   1.067
 1772TIP3    H226876   2.187   0.643   1.153
 1773TIP3   OH226877   0.998   6.162   7.517
 1773TIP3    H126878   0.965   6.075   7.496
 1773TIP3    H226879   0.946   6.190   7.593
 1774TIP3   OH226880   2.597   0.114   7.383
 1774TIP3    H126881   2.577   0.125   7.290
 1774TIP3    H226882   2.524   0.062   7.417
 1775TIP3   OH226883   1.019   6.613   0.276
 1775TIP3    H126884   0.950   6.565   0.230
 1775TIP3    H226885   1.034   6.562   0.356
 1776TIP3   OH226886   2.994   4.442   2.279
 1776TIP3    H126887   2.926   4.382   2.310
 1776TIP3    H226888   2.947   4.522   2.256
 1777TIP3   OH226889   0.204   0.395   7.332
 1777TIP3    H126890   0.140   0.372   7.265
 1777TIP3    H226891   0.287   0.362   7.299
 1778TIP3   OH226892   2.106   1.190   0.576
 1778TIP3    H126893   2.185   1.242   0.590
 1778TIP3    H226894   2.136   1.114   0.527
 1779TIP3   OH226895   3.107   4.689   7.749
 1779TIP3    H126896   3.033   4.705   7.807
 1779TIP3    H226897   3.164   4.631   7.799
 1780TIP3   OH226898   2.997   1.165   7.878
 1780TIP3    H126899   2.965   1.155   7.789
 1780TIP3    H226900   3.051   1.087   7.893
 1781TIP3   OH226901   1.933   2.975   6.525
 1781TIP3    H126902   1.962   3.063   6.549
 1781TIP3    H226903   1.947   2.970   6.430
 1782TIP3   OH226904   6.605   4.280   7.251
 1782TIP3    H126905   6.523   4.270   7.203
 1782TIP3    H226906   6.658   4.338   7.196
 1783TIP3   OH226907   4.764   4.012   8.168
 1783TIP3    H126908   4.696   4.002   8.101
 1783TIP3    H226909   4.828   3.944   8.148
 1784TIP3   OH226910   6.437   1.747   0.836
 1784TIP3    H126911   6.450   1.836   0.869
 1784TIP3    H226912   6.521   1.725   0.795
 1785TIP3   OH226913   0.923   5.580   8.664
 1785TIP3    H126914   0.856   5.512   8.655
 1785TIP3    H226915   0.996   5.537   8.709
 1786TIP3   OH226916   1.519   3.205   1.249
 1786TIP3    H126917   1.431   3.200   1.286
 1786TIP3    H226918   1.532   3.298   1.231
 1787TIP3   OH226919   3.206   5.852   0.032
 1787TIP3    H126920   3.133   5.830   8.708
 1787TIP3    H226921   3.235   5.768   0.066
 1788TIP3   OH226922   3.510   0.336   6.577
 1788TIP3    H126923   3.449   0.409   6.580
 1788TIP3    H226924   3.482   0.284   6.502
 1789TIP3   OH226925   1.888   0.302   0.598
 1789TIP3    H126926   1.827   0.231   0.581
 1789TIP3    H226927   1.869   0.331   0.687
 1790TIP3   OH226928   4.409   1.551   1.838
 1790TIP3    H126929   4.388   1.464   1.803
 1790TIP3    H226930   4.491   1.539   1.885
 1791TIP3   OH226931   1.066   5.112   7.456
 1791TIP3    H126932   1.080   5.186   7.396
 1791TIP3    H226933   1.018   5.048   7.404
 1792TIP3   OH226934   1.916   5.481   0.177
 1792TIP3    H126935   1.972   5.526   0.240
 1792TIP3    H226936   1.978   5.444   0.114
 1793TIP3   OH226937   4.438   2.982   8.365
 1793TIP3    H126938   4.370   2.943   8.420
 1793TIP3    H226939   4.407   3.072   8.350
 1794TIP3   OH226940   5.862   5.527   7.503
 1794TIP3    H126941   5.873   5.470   7.579
 1794TIP3    H226942   5.915   5.604   7.523
 1795TIP3   OH226943   6.503   1.665   7.807
 1795TIP3    H126944   6.443   1.626   7.743
 1795TIP3    H226945   6.449   1.728   7.855
 1796TIP3   OH226946   6.220   0.134   1.409
 1796TIP3    H126947   6.134   0.174   1.421
 1796TIP3    H226948   6.203   0.060   1.350
 1797TIP3   OH226949   0.634   3.689   8.537
 1797TIP3    H126950   0.654   3.596   8.550
 1797TIP3    H226951   0.545   3.689   8.501
 1798TIP3   OH226952   2.218   5.105   1.220
 1798TIP3    H126953   2.312   5.111   1.240
 1798TIP3    H226954   2.214   5.104   1.124
 1799TIP3   OH226955   2.701   1.491   8.448
 1799TIP3    H126956   2.616   1.493   8.405
 1799TIP3    H226957   2.747   1.418   8.407
 1800TIP3   OH226958   4.647   0.071   0.787
 1800TIP3    H126959   4.679   0.028   0.867
 1800TIP3    H226960   4.715   0.053   0.722
 1801TIP3   OH226961   2.680   4.834   6.358
 1801TIP3    H126962   2.597   4.874   6.334
 1801TIP3    H226963   2.746   4.901   6.337
 1802TIP3   OH226964   0.422   4.612   8.290
 1802TIP3    H126965   0.461   4.644   8.371
 1802TIP3    H226966   0.346   4.561   8.319
 1803TIP3   OH226967   6.275   2.245   0.506
 1803TIP3    H126968   6.186   2.268   0.480
 1803TIP3    H226969   6.327   2.259   0.427
 1804TIP3   OH226970   3.947   0.269   1.043
 1804TIP3    H126971   3.951   0.268   1.139
 1804TIP3    H226972   4.029   0.310   1.016
 1805TIP3   OH226973   1.113   4.434   0.147
 1805TIP3    H126974   1.052   4.361   0.136
 1805TIP3    H226975   1.142   4.427   0.237
 1806TIP3   OH226976   1.294   3.227   5.923
 1806TIP3    H126977   1.367   3.168   5.943
 1806TIP3    H226978   1.220   3.193   5.973
 1807TIP3   OH226979   5.556   6.234   7.397
 1807TIP3    H126980   5.467   6.199   7.398
 1807TIP3    H226981   5.545   6.327   7.380
 1808TIP3   OH226982   0.173   4.692   7.501
 1808TIP3    H126983   0.170   4.619   7.440
 1808TIP3    H226984   0.158   4.651   7.587
 1809TIP3   OH226985   5.813   5.166   0.238
 1809TIP3    H126986   5.724   5.201   0.240
 1809TIP3    H226987   5.838   5.168   0.146
 1810TIP3   OH226988   2.554   0.143   1.374
 1810TIP3    H126989   2.481   0.146   1.436
 1810TIP3    H226990   2.575   0.234   1.357
 1811TIP3   OH226991   5.966   4.205   8.583
 1811TIP3    H126992   5.980   4.112   8.601
 1811TIP3    H226993   5.957   4.211   8.488
 1812TIP3   OH226994   0.457   5.510   8.150
 1812TIP3    H126995   0.425   5.571   8.217
 1812TIP3    H226996   0.551   5.506   8.165
 1813TIP3   OH226997   1.516   5.111   1.477
 1813TIP3    H126998   1.598   5.160   1.481
 1813TIP3    H226999   1.468   5.151   1.405
 1814TIP3   OH227000   2.132   6.032   8.035
 1814TIP3    H127001   2.168   6.079   8.111
 1814TIP3    H227002   2.186   6.062   7.961
 1815TIP3   OH227003   5.408   5.212   2.324
 1815TIP3    H127004   5.408   5.134   2.269
 1815TIP3    H227005   5.324   5.211   2.369
 1816TIP3   OH227006   0.846   0.570   7.855
 1816TIP3    H127007   0.803   0.515   7.921
 1816TIP3    H227008   0.775   0.598   7.798
 1817TIP3   OH227009   1.220   6.568   7.608
 1817TIP3    H127010   1.281   6.605   7.544
 1817TIP3    H227011   1.135   6.602   7.582
 1818TIP3   OH227012   2.503   4.043   1.341
 1818TIP3    H127013   2.541   4.035   1.428
 1818TIP3    H227014   2.560   4.104   1.295
 1819TIP3   OH227015   6.531   1.550   0.506
 1819TIP3    H127016   6.521   1.464   0.464
 1819TIP3    H227017   6.528   1.613   0.434
 1820TIP3   OH227018   2.093   6.487   6.999
 1820TIP3    H127019   2.182   6.465   7.028
 1820TIP3    H227020   2.088   6.582   7.007
 1821TIP3   OH227021   2.668   6.088   8.413
 1821TIP3    H127022   2.754   6.090   8.455
 1821TIP3    H227023   2.657   6.175   8.376
 1822TIP3   OH227024   6.670   6.241   2.011
 1822TIP3    H127025   6.719   6.311   1.968
 1822TIP3    H227026   6.704   6.239   2.101
 1823TIP3   OH227027   5.493   0.458   6.805
 1823TIP3    H127028   5.401   0.460   6.830
 1823TIP3    H227029   5.531   0.536   6.846
 1824TIP3   OH227030   1.347   5.821   7.364
 1824TIP3    H127031   1.415   5.870   7.318
 1824TIP3    H227032   1.351   5.733   7.326
 1825TIP3   OH227033   2.140   3.216   0.275
 1825TIP3    H127034   2.119   3.178   0.361
 1825TIP3    H227035   2.082   3.169   0.214
 1826TIP3   OH227036   3.979   6.640   2.258
 1826TIP3    H127037   4.070   6.656   2.282
 1826TIP3    H227038   3.935   6.723   2.277
 1827TIP3   OH227039   6.328   4.564   1.416
 1827TIP3    H127040   6.266   4.492   1.425
 1827TIP3    H227041   6.336   4.599   1.505
 1828TIP3   OH227042   4.900   4.943   2.059
 1828TIP3    H127043   4.987   4.958   2.096
 1828TIP3    H227044   4.864   5.031   2.047
 1829TIP3   OH227045   5.251   5.398   8.194
 1829TIP3    H127046   5.290   5.479   8.227
 1829TIP3    H227047   5.209   5.359   8.270
 1830TIP3   OH227048   5.538   5.878   0.292
 1830TIP3    H127049   5.478   5.936   0.339
 1830TIP3    H227050   5.597   5.845   0.360
 1831TIP3   OH227051   6.389   5.409   0.332
 1831TIP3    H127052   6.434   5.346   0.388
 1831TIP3    H227053   6.392   5.370   0.245
 1832TIP3   OH227054   6.551   6.745   1.259
 1832TIP3    H127055   6.483   6.713   1.199
 1832TIP3    H227056   6.594   6.666   1.291
 1833TIP3   OH227057   0.028   6.056   6.917
 1833TIP3    H127058   6.800   6.102   6.966
 1833TIP3    H227059   6.837   6.055   6.827
 1834TIP3   OH227060   1.416   3.631   0.067
 1834TIP3    H127061   1.492   3.680   0.096
 1834TIP3    H227062   1.426   3.545   0.108
 1835TIP3   OH227063   0.161   1.173   8.144
 1835TIP3    H127064   0.209   1.233   8.087
 1835TIP3    H227065   0.107   1.230   8.200
 1836TIP3   OH227066   5.309   2.192   7.364
 1836TIP3    H127067   5.302   2.278   7.405
 1836TIP3    H227068   5.225   2.149   7.385
 1837TIP3   OH227069   2.424   4.847   7.749
 1837TIP3    H127070   2.513   4.836   7.713
 1837TIP3    H227071   2.366   4.828   7.675
 1838TIP3   OH227072   4.158   2.296   1.037
 1838TIP3    H127073   4.182   2.323   0.949
 1838TIP3    H227074   4.240   2.268   1.078
 1839TIP3   OH227075   3.589   3.316   1.656
 1839TIP3    H127076   3.527   3.336   1.586
 1839TIP3    H227077   3.541   3.257   1.714
 1840TIP3   OH227078   5.447   2.746   1.695
 1840TIP3    H127079   5.404   2.817   1.743
 1840TIP3    H227080   5.517   2.789   1.645
 1841TIP3   OH227081   4.804   6.319   7.169
 1841TIP3    H127082   4.758   6.393   7.130
 1841TIP3    H227083   4.879   6.358   7.214
 1842TIP3   OH227084   4.478   4.940   7.047
 1842TIP3    H127085   4.469   4.904   7.135
 1842TIP3    H227086   4.388   4.960   7.019
 1843TIP3   OH227087   2.844   6.333   8.338
 1843TIP3    H127088   2.793   6.360   8.261
 1843TIP3    H227089   2.932   6.367   8.321
 1844TIP3   OH227090   1.479   2.060   7.573
 1844TIP3    H127091   1.402   2.116   7.577
 1844TIP3    H227092   1.485   2.034   7.481
 1845TIP3   OH227093   5.841   2.342   7.851
 1845TIP3    H127094   5.771   2.383   7.901
 1845TIP3    H227095   5.826   2.371   7.761
 1846TIP3   OH227096   3.726   4.236   0.994
 1846TIP3    H127097   3.744   4.167   0.930
 1846TIP3    H227098   3.756   4.316   0.951
 1847TIP3   OH227099   1.985   5.241   2.302
 1847TIP3    H127100   2.075   5.256   2.272
 1847TIP3    H227101   1.991   5.246   2.397
 1848TIP3   OH227102   2.049   2.711   7.403
 1848TIP3    H127103   2.082   2.702   7.313
 1848TIP3    H227104   1.966   2.758   7.393
 1849TIP3   OH227105   1.115   0.757   0.035
 1849TIP3    H127106   1.149   0.782   8.684
 1849TIP3    H227107   1.182   0.786   0.097
 1850TIP3   OH227108   6.728   5.560   1.988
 1850TIP3    H127109   6.772   5.480   2.016
 1850TIP3    H227110   6.778   5.589   1.911
 1851TIP3   OH227111   2.683   2.054   7.166
 1851TIP3    H127112   2.593   2.077   7.188
 1851TIP3    H227113   2.708   1.988   7.230
 1852TIP3   OH227114   0.046   0.474   7.544
 1852TIP3    H127115   0.100   0.436   7.475
 1852TIP3    H227116   0.067   0.424   7.622
 1853TIP3   OH227117   5.704   3.500   8.437
 1853TIP3    H127118   5.668   3.589   8.438
 1853TIP3    H227119   5.712   3.479   8.344
 1854TIP3   OH227120   3.645   6.212   7.921
 1854TIP3    H127121   3.691   6.161   7.854
 1854TIP3    H227122   3.715   6.245   7.977
 1855TIP3   OH227123   2.720   2.684   7.813
 1855TIP3    H127124   2.710   2.728   7.728
 1855TIP3    H227125   2.636   2.699   7.857
 1856TIP3   OH227126   5.890   0.468   0.501
 1856TIP3    H127127   5.930   0.555   0.509
 1856TIP3    H227128   5.796   0.485   0.502
 1857TIP3   OH227129   2.317   2.249   1.660
 1857TIP3    H127130   2.375   2.252   1.584
 1857TIP3    H227131   2.299   2.340   1.680
 1858TIP3   OH227132   2.676   4.910   0.692
 1858TIP3    H127133   2.659   4.939   0.603
 1858TIP3    H227134   2.770   4.927   0.705
 1859TIP3   OH227135   6.694   5.688   1.297
 1859TIP3    H127136   6.601   5.667   1.311
 1859TIP3    H227137   6.714   5.750   1.368
 1860TIP3   OH227138   0.389   1.827   7.174
 1860TIP3    H127139   0.340   1.883   7.235
 1860TIP3    H227140   0.461   1.793   7.226
 1861TIP3   OH227141   3.874   6.675   0.026
 1861TIP3    H127142   3.912   6.704   0.109
 1861TIP3    H227143   3.920   6.593   0.006
 1862TIP3   OH227144   1.479   1.060   0.243
 1862TIP3    H127145   1.473   0.966   0.263
 1862TIP3    H227146   1.573   1.077   0.240
 1863TIP3   OH227147   5.303   6.138   8.285
 1863TIP3    H127148   5.351   6.204   8.335
 1863TIP3    H227149   5.297   6.063   8.344
 1864TIP3   OH227150   2.692   4.660   0.574
 1864TIP3    H127151   2.737   4.687   0.494
 1864TIP3    H227152   2.670   4.742   0.618
 1865TIP3   OH227153   3.089   4.679   8.057
 1865TIP3    H127154   3.103   4.772   8.073
 1865TIP3    H227155   3.009   4.658   8.105
 1866TIP3   OH227156   6.576   5.674   6.992
 1866TIP3    H127157   6.545   5.604   6.935
 1866TIP3    H227158   6.570   5.638   7.081
 1867TIP3   OH227159   6.512   3.937   8.152
 1867TIP3    H127160   6.468   3.978   8.227
 1867TIP3    H227161   6.467   3.853   8.141
 1868TIP3   OH227162   2.161   2.033   2.736
 1868TIP3    H127163   2.068   2.010   2.734
 1868TIP3    H227164   2.162   2.127   2.718
 1869TIP3   OH227165   0.893   3.468   0.972
 1869TIP3    H127166   0.821   3.516   0.930
 1869TIP3    H227167   0.889   3.381   0.933
 1870TIP3   OH227168   1.624   0.330   0.374
 1870TIP3    H127169   1.645   0.399   0.437
 1870TIP3    H227170   1.658   0.250   0.413
 1871TIP3   OH227171   0.868   0.741   1.810
 1871TIP3    H127172   0.802   0.790   1.761
 1871TIP3    H227173   0.849   0.760   1.902
 1872TIP3   OH227174   3.482   6.779   6.611
 1872TIP3    H127175   3.544   6.835   6.657
 1872TIP3    H227176   3.537   6.721   6.558
 1873TIP3   OH227177   1.570   6.390   7.483
 1873TIP3    H127178   1.566   6.300   7.449
 1873TIP3    H227179   1.553   6.380   7.577
 1874TIP3   OH227180   5.368   5.402   7.929
 1874TIP3    H127181   5.330   5.413   8.016
 1874TIP3    H227182   5.421   5.481   7.915
 1875TIP3   OH227183   6.784   4.599   1.903
 1875TIP3    H127184   6.745   4.574   1.819
 1875TIP3    H227185   0.036   4.609   1.884
 1876TIP3   OH227186   1.187   4.584   7.752
 1876TIP3    H127187   1.209   4.516   7.689
 1876TIP3    H227188   1.095   4.567   7.775
 1877TIP3   OH227189   2.508   1.052   6.966
 1877TIP3    H127190   2.596   1.013   6.972
 1877TIP3    H227191   2.456   0.987   6.919
 1878TIP3   OH227192   2.165   2.680   0.842
 1878TIP3    H127193   2.229   2.654   0.776
 1878TIP3    H227194   2.102   2.609   0.844
 1879TIP3   OH227195   5.922   5.390   1.941
 1879TIP3    H127196   6.015   5.393   1.919
 1879TIP3    H227197   5.910   5.305   1.983
 1880TIP3   OH227198   0.771   6.567   1.539
 1880TIP3    H127199   0.794   6.621   1.614
 1880TIP3    H227200   0.855   6.551   1.494
 1881TIP3   OH227201   6.101   3.502   7.782
 1881TIP3    H127202   6.012   3.507   7.819
 1881TIP3    H227203   6.134   3.417   7.811
 1882TIP3   OH227204   0.553   5.517   7.619
 1882TIP3    H127205   0.631   5.475   7.582
 1882TIP3    H227206   0.557   5.497   7.712
 1883TIP3   OH227207   4.222   6.610   0.981
 1883TIP3    H127208   4.317   6.602   0.978
 1883TIP3    H227209   4.196   6.563   1.060
 1884TIP3   OH227210   1.906   5.079   1.002
 1884TIP3    H127211   1.894   5.084   1.097
 1884TIP3    H227212   1.857   5.001   0.976
 1885TIP3   OH227213   1.972   0.941   7.630
 1885TIP3    H127214   2.040   0.878   7.654
 1885TIP3    H227215   2.020   1.015   7.594
 1886TIP3   OH227216   6.433   2.653   8.587
 1886TIP3    H127217   6.507   2.654   8.527
 1886TIP3    H227218   6.398   2.742   8.584
 1887TIP3   OH227219   5.921   2.777   2.141
 1887TIP3    H127220   5.852   2.807   2.082
 1887TIP3    H227221   5.874   2.734   2.213
 1888TIP3   OH227222   4.019   4.287   1.576
 1888TIP3    H127223   4.115   4.293   1.567
 1888TIP3    H227224   3.995   4.362   1.630
 1889TIP3   OH227225   2.948   2.154   1.179
 1889TIP3    H127226   2.917   2.080   1.127
 1889TIP3    H227227   2.976   2.219   1.115
 1890TIP3   OH227228   1.170   3.215   0.192
 1890TIP3    H127229   1.075   3.223   0.185
 1890TIP3    H227230   1.195   3.165   0.114
 1891TIP3   OH227231   5.189   0.502   2.033
 1891TIP3    H127232   5.202   0.409   2.014
 1891TIP3    H227233   5.103   0.505   2.076
 1892TIP3   OH227234   4.761   1.709   6.635
 1892TIP3    H127235   4.689   1.730   6.696
 1892TIP3    H227236   4.788   1.794   6.600
 1893TIP3   OH227237   0.939   6.447   6.635
 1893TIP3    H127238   1.007   6.495   6.587
 1893TIP3    H227239   0.905   6.384   6.571
 1894TIP3   OH227240   6.548   3.816   7.200
 1894TIP3    H127241   6.466   3.781   7.165
 1894TIP3    H227242   6.605   3.740   7.208
 1895TIP3   OH227243   3.192   6.591   0.512
 1895TIP3    H127244   3.222   6.553   0.594
 1895TIP3    H227245   3.196   6.686   0.526
 1896TIP3   OH227246   1.637   1.298   0.358
 1896TIP3    H127247   1.714   1.266   0.405
 1896TIP3    H227248   1.566   1.238   0.384
 1897TIP3   OH227249   0.768   3.189   8.065
 1897TIP3    H127250   0.826   3.242   8.011
 1897TIP3    H227251   0.780   3.223   8.154
 1898TIP3   OH227252   2.884   5.686   7.522
 1898TIP3    H127253   2.952   5.647   7.578
 1898TIP3    H227254   2.807   5.632   7.536
 1899TIP3   OH227255   5.775   1.549   7.320
 1899TIP3    H127256   5.711   1.593   7.375
 1899TIP3    H227257   5.724   1.512   7.248
 1900TIP3   OH227258   1.514   1.731   0.968
 1900TIP3    H127259   1.440   1.790   0.960
 1900TIP3    H227260   1.494   1.676   1.043
 1901TIP3   OH227261   4.284   2.091   0.544
 1901TIP3    H127262   4.261   2.022   0.482
 1901TIP3    H227263   4.293   2.046   0.628
 1902TIP3   OH227264   4.718   5.996   0.537
 1902TIP3    H127265   4.657   5.977   0.608
 1902TIP3    H227266   4.793   6.039   0.579
 1903TIP3   OH227267   1.161   6.036   0.237
 1903TIP3    H127268   1.240   6.038   0.292
 1903TIP3    H227269   1.179   5.969   0.171
 1904TIP3   OH227270   1.073   0.401   6.822
 1904TIP3    H127271   1.105   0.324   6.868
 1904TIP3    H227272   1.151   0.453   6.803
 1905TIP3   OH227273   4.682   1.140   1.140
 1905TIP3    H127274   4.775   1.137   1.160
 1905TIP3    H227275   4.675   1.201   1.066
 1906TIP3   OH227276   1.976   2.841   7.037
 1906TIP3    H127277   1.982   2.849   6.942
 1906TIP3    H227278   1.975   2.747   7.054
 1907TIP3   OH227279   2.726   5.958   7.961
 1907TIP3    H127280   2.708   5.956   8.055
 1907TIP3    H227281   2.762   5.872   7.942
 1908TIP3   OH227282   0.663   5.093   7.136
 1908TIP3    H127283   0.670   5.173   7.187
 1908TIP3    H227284   0.615   5.033   7.192
 1909TIP3   OH227285   0.284   2.755   7.760
 1909TIP3    H127286   0.190   2.768   7.774
 1909TIP3    H227287   0.297   2.777   7.668
 1910TIP3   OH227288   3.528   5.167   7.290
 1910TIP3    H127289   3.526   5.242   7.231
 1910TIP3    H227290   3.620   5.143   7.297
 1911TIP3   OH227291   4.385   2.133   6.893
 1911TIP3    H127292   4.314   2.175   6.942
 1911TIP3    H227293   4.346   2.113   6.808
 1912TIP3   OH227294   4.948   1.063   1.160
 1912TIP3    H127295   4.997   1.049   1.079
 1912TIP3    H227296   5.006   1.029   1.229
 1913TIP3   OH227297   4.189   4.601   1.561
 1913TIP3    H127298   4.133   4.626   1.487
 1913TIP3    H227299   4.132   4.549   1.618
 1914TIP3   OH227300   2.062   0.507   8.449
 1914TIP3    H127301   2.050   0.589   8.400
 1914TIP3    H227302   2.156   0.490   8.443
 1915TIP3   OH227303   4.761   4.391   2.480
 1915TIP3    H127304   4.712   4.312   2.456
 1915TIP3    H227305   4.833   4.394   2.417
 1916TIP3   OH227306   5.330   2.500   0.764
 1916TIP3    H127307   5.380   2.513   0.845
 1916TIP3    H227308   5.394   2.516   0.694
 1917TIP3   OH227309   5.064   3.889   0.539
 1917TIP3    H127310   5.062   3.981   0.513
 1917TIP3    H227311   4.987   3.850   0.498
 1918TIP3   OH227312   3.367   2.131   0.254
 1918TIP3    H127313   3.300   2.198   0.236
 1918TIP3    H227314   3.446   2.182   0.275
 1919TIP3   OH227315   5.796   3.037   7.789
 1919TIP3    H127316   5.825   3.127   7.803
 1919TIP3    H227317   5.747   3.014   7.868
 1920TIP3   OH227318   2.537   6.674   7.997
 1920TIP3    H127319   2.619   6.656   8.042
 1920TIP3    H227320   2.469   6.653   8.061
 1921TIP3   OH227321   3.350   2.360   7.073
 1921TIP3    H127322   3.402   2.393   7.000
 1921TIP3    H227323   3.357   2.427   7.141
 1922TIP3   OH227324   3.401   4.030   0.209
 1922TIP3    H127325   3.460   4.039   0.134
 1922TIP3    H227326   3.314   4.024   0.170
 1923TIP3   OH227327   2.356   5.715   7.221
 1923TIP3    H127328   2.373   5.714   7.315
 1923TIP3    H227329   2.296   5.641   7.207
 1924TIP3   OH227330   4.060   4.423   0.378
 1924TIP3    H127331   4.006   4.498   0.356
 1924TIP3    H227332   4.036   4.356   0.314
 1925TIP3   OH227333   3.155   5.454   7.697
 1925TIP3    H127334   3.249   5.449   7.678
 1925TIP3    H227335   3.124   5.364   7.685
 1926TIP3   OH227336   3.537   3.172   0.657
 1926TIP3    H127337   3.444   3.187   0.640
 1926TIP3    H227338   3.546   3.185   0.752
 1927TIP3   OH227339   0.759   5.740   6.366
 1927TIP3    H127340   0.723   5.651   6.367
 1927TIP3    H227341   0.708   5.788   6.431
 1928TIP3   OH227342   5.012   5.375   7.980
 1928TIP3    H127343   5.078   5.385   8.048
 1928TIP3    H227344   5.028   5.287   7.944
 1929TIP3   OH227345   3.944   2.998   7.922
 1929TIP3    H127346   4.008   3.059   7.886
 1929TIP3    H227347   3.963   2.996   8.016
 1930TIP3   OH227348   6.085   5.087   1.685
 1930TIP3    H127349   6.143   5.011   1.684
 1930TIP3    H227350   6.129   5.148   1.745
 1931TIP3   OH227351   0.581   6.008   7.644
 1931TIP3    H127352   0.608   5.983   7.556
 1931TIP3    H227353   0.533   5.933   7.677
 1932TIP3   OH227354   5.360   0.485   1.019
 1932TIP3    H127355   5.284   0.476   0.962
 1932TIP3    H227356   5.428   0.431   0.977
 1933TIP3   OH227357   6.143   3.152   8.138
 1933TIP3    H127358   6.119   3.189   8.223
 1933TIP3    H227359   6.239   3.150   8.139
 1934TIP3   OH227360   5.683   0.662   8.522
 1934TIP3    H127361   5.740   0.714   8.466
 1934TIP3    H227362   5.714   0.679   8.611
 1935TIP3   OH227363   0.228   3.915   0.744
 1935TIP3    H127364   0.255   3.856   0.814
 1935TIP3    H227365   0.228   3.862   0.665
 1936TIP3   OH227366   5.192   2.842   7.356
 1936TIP3    H127367   5.177   2.928   7.395
 1936TIP3    H227368   5.222   2.787   7.428
 1937TIP3   OH227369   5.540   5.264   1.464
 1937TIP3    H127370   5.485   5.191   1.492
 1937TIP3    H227371   5.623   5.251   1.509
 1938TIP3   OH227372   5.319   1.029   0.612
 1938TIP3    H127373   5.236   1.060   0.576
 1938TIP3    H227374   5.295   0.987   0.695
 1939TIP3   OH227375   1.724   2.996   6.904
 1939TIP3    H127376   1.733   3.082   6.863
 1939TIP3    H227377   1.813   2.960   6.904
 1940TIP3   OH227378   3.189   5.494   8.056
 1940TIP3    H127379   3.126   5.443   8.108
 1940TIP3    H227380   3.140   5.518   7.977
 1941TIP3   OH227381   3.179   4.186   0.884
 1941TIP3    H127382   3.226   4.262   0.918
 1941TIP3    H227383   3.242   4.141   0.828
 1942TIP3   OH227384   4.594   6.480   8.423
 1942TIP3    H127385   4.648   6.482   8.343
 1942TIP3    H227386   4.611   6.394   8.461
 1943TIP3   OH227387   0.680   3.037   1.777
 1943TIP3    H127388   0.683   2.977   1.703
 1943TIP3    H227389   0.673   3.123   1.737
 1944TIP3   OH227390   1.964   4.860   8.351
 1944TIP3    H127391   1.908   4.785   8.332
 1944TIP3    H227392   1.959   4.914   8.272
 1945TIP3   OH227393   2.818   3.082   1.093
 1945TIP3    H127394   2.784   3.060   1.006
 1945TIP3    H227395   2.846   2.998   1.130
 1946TIP3   OH227396   3.924   4.286   0.197
 1946TIP3    H127397   3.830   4.304   0.190
 1946TIP3    H227398   3.940   4.218   0.131
 1947TIP3   OH227399   4.598   6.538   7.756
 1947TIP3    H127400   4.546   6.618   7.742
 1947TIP3    H227401   4.534   6.474   7.788
 1948TIP3   OH227402   2.359   5.810   7.911
 1948TIP3    H127403   2.410   5.890   7.902
 1948TIP3    H227404   2.392   5.769   7.991
 1949TIP3   OH227405   6.776   6.145   6.593
 1949TIP3    H127406   6.838   6.071   6.591
 1949TIP3    H227407   6.717   6.128   6.520
 1950TIP3   OH227408   0.032   4.095   0.637
 1950TIP3    H127409   0.025   4.177   0.686
 1950TIP3    H227410   0.083   4.037   0.695
 1951TIP3   OH227411   6.740   1.155   7.399
 1951TIP3    H127412   6.756   1.249   7.396
 1951TIP3    H227413   6.644   1.148   7.400
 1952TIP3   OH227414   1.851   0.302   1.752
 1952TIP3    H127415   1.925   0.243   1.743
 1952TIP3    H227416   1.885   0.387   1.722
 1953TIP3   OH227417   5.862   0.854   7.804
 1953TIP3    H127418   5.936   0.795   7.792
 1953TIP3    H227419   5.792   0.815   7.752
 1954TIP3   OH227420   0.733   2.370   6.729
 1954TIP3    H127421   0.710   2.337   6.642
 1954TIP3    H227422   0.661   2.340   6.785
 1955TIP3   OH227423   4.842   1.436   7.376
 1955TIP3    H127424   4.919   1.490   7.395
 1955TIP3    H227425   4.784   1.494   7.327
 1956TIP3   OH227426   5.456   2.988   6.321
 1956TIP3    H127427   5.410   2.911   6.354
 1956TIP3    H227428   5.470   2.971   6.228
 1957TIP3   OH227429   3.405   5.390   7.508
 1957TIP3    H127430   3.449   5.440   7.439
 1957TIP3    H227431   3.473   5.379   7.576
 1958TIP3   OH227432   5.590   4.478   6.491
 1958TIP3    H127433   5.508   4.489   6.442
 1958TIP3    H227434   5.591   4.386   6.517
 1959TIP3   OH227435   1.064   3.320   8.443
 1959TIP3    H127436   1.017   3.395   8.408
 1959TIP3    H227437   1.052   3.326   8.538
 1960TIP3   OH227438   1.448   5.849   7.961
 1960TIP3    H127439   1.382   5.874   7.897
 1960TIP3    H227440   1.403   5.857   8.046
 1961TIP3   OH227441   1.095   0.077   1.374
 1961TIP3    H127442   1.131   0.137   1.309
 1961TIP3    H227443   1.138   0.102   1.456
 1962TIP3   OH227444   3.301   0.160   8.292
 1962TIP3    H127445   3.229   0.097   8.298
 1962TIP3    H227446   3.271   0.225   8.229
 1963TIP3   OH227447   3.227   0.506   0.349
 1963TIP3    H127448   3.292   0.536   0.285
 1963TIP3    H227449   3.274   0.503   0.432
 1964TIP3   OH227450   2.038   4.773   1.020
 1964TIP3    H127451   1.951   4.800   0.991
 1964TIP3    H227452   2.093   4.778   0.942
 1965TIP3   OH227453   6.723   0.676   7.510
 1965TIP3    H127454   6.769   0.598   7.540
 1965TIP3    H227455   6.753   0.688   7.420
 1966TIP3   OH227456   1.566   5.130   7.475
 1966TIP3    H127457   1.514   5.141   7.555
 1966TIP3    H227458   1.502   5.115   7.406
 1967TIP3   OH227459   2.793   4.520   7.476
 1967TIP3    H127460   2.777   4.447   7.417
 1967TIP3    H227461   2.712   4.571   7.475
 1968TIP3   OH227462   4.330   0.716   7.335
 1968TIP3    H127463   4.235   0.714   7.328
 1968TIP3    H227464   4.361   0.701   7.246
 1969TIP3   OH227465   3.729   4.487   0.868
 1969TIP3    H127466   3.808   4.459   0.821
 1969TIP3    H227467   3.670   4.517   0.799
 1970TIP3   OH227468   6.705   2.826   7.399
 1970TIP3    H127469   6.630   2.792   7.447
 1970TIP3    H227470   6.733   2.753   7.344
 1971TIP3   OH227471   4.426   3.404   0.529
 1971TIP3    H127472   4.483   3.328   0.545
 1971TIP3    H227473   4.356   3.395   0.593
 1972TIP3   OH227474   2.514   0.951   0.310
 1972TIP3    H127475   2.426   0.946   0.271
 1972TIP3    H227476   2.565   0.886   0.261
 1973TIP3   OH227477   5.665   5.859   7.803
 1973TIP3    H127478   5.737   5.846   7.740
 1973TIP3    H227479   5.709   5.884   7.884
 1974TIP3   OH227480   3.394   1.268   1.041
 1974TIP3    H127481   3.402   1.333   1.111
 1974TIP3    H227482   3.471   1.283   0.986
 1975TIP3   OH227483   3.579   6.563   1.356
 1975TIP3    H127484   3.612   6.494   1.299
 1975TIP3    H227485   3.625   6.642   1.329
 1976TIP3   OH227486   5.759   4.811   7.876
 1976TIP3    H127487   5.687   4.843   7.821
 1976TIP3    H227488   5.828   4.786   7.814
 1977TIP3   OH227489   2.627   0.512   6.500
 1977TIP3    H127490   2.546   0.549   6.463
 1977TIP3    H227491   2.603   0.487   6.589
 1978TIP3   OH227492   1.593   3.840   0.084
 1978TIP3    H127493   1.572   3.921   0.131
 1978TIP3    H227494   1.657   3.796   0.141
 1979TIP3   OH227495   4.757   6.503   1.929
 1979TIP3    H127496   4.820   6.430   1.937
 1979TIP3    H227497   4.778   6.544   1.845
 1980TIP3   OH227498   2.332   4.059   0.006
 1980TIP3    H127499   2.421   4.031   8.716
 1980TIP3    H227500   2.275   4.003   8.688
 1981TIP3   OH227501   6.321   0.971   0.194
 1981TIP3    H127502   6.372   1.034   0.142
 1981TIP3    H227503   6.233   0.975   0.155
 1982TIP3   OH227504   0.481   3.305   0.890
 1982TIP3    H127505   0.543   3.364   0.933
 1982TIP3    H227506   0.398   3.320   0.936
 1983TIP3   OH227507   2.059   0.248   7.685
 1983TIP3    H127508   1.998   0.321   7.675
 1983TIP3    H227509   2.105   0.244   7.601
 1984TIP3   OH227510   2.947   0.618   6.542
 1984TIP3    H127511   3.025   0.666   6.572
 1984TIP3    H227512   2.978   0.529   6.526
 1985TIP3   OH227513   6.061   1.829   1.324
 1985TIP3    H127514   6.075   1.735   1.312
 1985TIP3    H227515   6.140   1.859   1.369
 1986TIP3   OH227516   0.426   6.531   0.873
 1986TIP3    H127517   0.483   6.581   0.933
 1986TIP3    H227518   0.464   6.443   0.873
 1987TIP3   OH227519   1.715   0.090   7.219
 1987TIP3    H127520   1.769   0.017   7.188
 1987TIP3    H227521   1.684   0.062   7.306
 1988TIP3   OH227522   4.491   5.355   1.091
 1988TIP3    H127523   4.579   5.322   1.112
 1988TIP3    H227524   4.493   5.447   1.115
 1989TIP3   OH227525   4.634   4.141   8.660
 1989TIP3    H127526   4.681   4.141   8.577
 1989TIP3    H227527   4.700   4.121   8.726
 1990TIP3   OH227528   4.547   5.025   8.219
 1990TIP3    H127529   4.576   5.115   8.234
 1990TIP3    H227530   4.538   5.019   8.124
 1991TIP3   OH227531   6.581   1.478   1.680
 1991TIP3    H127532   6.491   1.452   1.695
 1991TIP3    H227533   6.633   1.404   1.713
 1992TIP3   OH227534   3.689   1.357   1.731
 1992TIP3    H127535   3.613   1.328   1.680
 1992TIP3    H227536   3.658   1.434   1.779
 1993TIP3   OH227537   5.590   3.204   8.252
 1993TIP3    H127538   5.502   3.228   8.223
 1993TIP3    H227539   5.644   3.281   8.233
 1994TIP3   OH227540   4.730   1.253   8.683
 1994TIP3    H127541   4.754   1.220   8.596
 1994TIP3    H227542   4.793   1.323   8.700
 1995TIP3   OH227543   1.969   2.113   2.355
 1995TIP3    H127544   1.917   2.097   2.276
 1995TIP3    H227545   1.984   2.025   2.391
 1996TIP3   OH227546   2.128   5.208   7.199
 1996TIP3    H127547   2.059   5.211   7.133
 1996TIP3    H227548   2.209   5.211   7.148
 1997TIP3   OH227549   3.413   1.311   1.958
 1997TIP3    H127550   3.367   1.242   1.911
 1997TIP3    H227551   3.455   1.363   1.889
 1998TIP3   OH227552   1.842   2.604   0.660
 1998TIP3    H127553   1.861   2.639   0.573
 1998TIP3    H227554   1.862   2.510   0.653
 1999TIP3   OH227555   6.158   1.157   7.425
 1999TIP3    H127556   6.083   1.104   7.449
 1999TIP3    H227557   6.121   1.229   7.374
 2000TIP3   OH227558   5.795   1.098   7.874
 2000TIP3    H127559   5.709   1.061   7.893
 2000TIP3    H227560   5.845   1.024   7.840
 2001TIP3   OH227561   2.939   1.702   8.070
 2001TIP3    H127562   2.966   1.748   7.991
 2001TIP3    H227563   2.988   1.620   8.068
 2002TIP3   OH227564   2.475   6.579   0.170
 2002TIP3    H127565   2.424   6.658   0.154
 2002TIP3    H227566   2.566   6.605   0.155
 2003TIP3   OH227567   0.754   0.966   7.650
 2003TIP3    H127568   0.682   0.917   7.690
 2003TIP3    H227569   0.814   0.983   7.722
 2004TIP3   OH227570   1.280   0.751   6.953
 2004TIP3    H127571   1.266   0.779   7.043
 2004TIP3    H227572   1.367   0.785   6.930
 2005TIP3   OH227573   1.306   0.840   0.803
 2005TIP3    H127574   1.315   0.921   0.754
 2005TIP3    H227575   1.287   0.867   0.893
 2006TIP3   OH227576   6.626   4.767   7.667
 2006TIP3    H127577   6.661   4.842   7.617
 2006TIP3    H227578   6.624   4.695   7.604
 2007TIP3   OH227579   0.512   5.442   0.175
 2007TIP3    H127580   0.453   5.510   0.208
 2007TIP3    H227581   0.462   5.361   0.182
 2008TIP3   OH227582   1.012   5.962   1.067
 2008TIP3    H127583   1.068   5.905   1.119
 2008TIP3    H227584   0.962   5.903   1.011
 2009TIP3   OH227585   1.584   2.411   1.650
 2009TIP3    H127586   1.528   2.488   1.658
 2009TIP3    H227587   1.639   2.429   1.574
 2010TIP3   OH227588   4.140   0.565   6.907
 2010TIP3    H127589   4.098   0.633   6.959
 2010TIP3    H227590   4.196   0.612   6.845
 2011TIP3   OH227591   5.642   2.627   1.377
 2011TIP3    H127592   5.558   2.583   1.390
 2011TIP3    H227593   5.622   2.702   1.322
 2012TIP3   OH227594   4.646   0.489   0.087
 2012TIP3    H127595   4.586   0.494   0.161
 2012TIP3    H227596   4.616   0.414   0.036
 2013TIP3   OH227597   6.652   1.494   1.169
 2013TIP3    H127598   6.695   1.573   1.201
 2013TIP3    H227599   6.723   1.430   1.162
 2014TIP3   OH227600   5.722   5.563   7.256
 2014TIP3    H127601   5.745   5.550   7.348
 2014TIP3    H227602   5.709   5.474   7.222
 2015TIP3   OH227603   3.101   1.246   7.389
 2015TIP3    H127604   3.110   1.337   7.359
 2015TIP3    H227605   3.107   1.194   7.308
 2016TIP3   OH227606   5.248   2.548   1.328
 2016TIP3    H127607   5.167   2.542   1.278
 2016TIP3    H227608   5.314   2.507   1.272
 2017TIP3   OH227609   4.717   5.347   7.367
 2017TIP3    H127610   4.767   5.272   7.335
 2017TIP3    H227611   4.761   5.423   7.329
 2018TIP3   OH227612   4.275   5.582   1.300
 2018TIP3    H127613   4.267   5.614   1.211
 2018TIP3    H227614   4.195   5.612   1.344
 2019TIP3   OH227615   3.219   4.926   2.015
 2019TIP3    H127616   3.277   4.871   2.067
 2019TIP3    H227617   3.166   4.973   2.080
 2020TIP3   OH227618   1.614   0.084   8.219
 2020TIP3    H127619   1.690   0.123   8.175
 2020TIP3    H227620   1.548   0.152   8.217
 2021TIP3   OH227621   2.474   6.569   8.437
 2021TIP3    H127622   2.542   6.518   8.481
 2021TIP3    H227623   2.433   6.619   8.507
 2022TIP3   OH227624   1.356   5.220   1.256
 2022TIP3    H127625   1.335   5.135   1.216
 2022TIP3    H227626   1.299   5.282   1.212
 2023TIP3   OH227627   3.430   6.261   1.401
 2023TIP3    H127628   3.394   6.320   1.335
 2023TIP3    H227629   3.438   6.177   1.355
 2024TIP3   OH227630   1.957   5.928   6.356
 2024TIP3    H127631   1.870   5.955   6.386
 2024TIP3    H227632   2.016   5.958   6.425
 2025TIP3   OH227633   6.474   2.432   1.022
 2025TIP3    H127634   6.424   2.488   1.081
 2025TIP3    H227635   6.410   2.369   0.989
 2026TIP3   OH227636   1.633   5.489   8.343
 2026TIP3    H127637   1.617   5.579   8.371
 2026TIP3    H227638   1.549   5.446   8.353
 2027TIP3   OH227639   6.431   5.093   8.489
 2027TIP3    H127640   6.438   5.133   8.403
 2027TIP3    H227641   6.521   5.084   8.520
 2028TIP3   OH227642   5.576   0.617   1.098
 2028TIP3    H127643   5.485   0.594   1.077
 2028TIP3    H227644   5.608   0.662   1.019
 2029TIP3   OH227645   6.687   4.358   7.969
 2029TIP3    H127646   6.604   4.312   7.965
 2029TIP3    H227647   6.669   4.436   8.022
 2030TIP3   OH227648   4.289   1.910   1.083
 2030TIP3    H127649   4.285   1.840   1.149
 2030TIP3    H227650   4.314   1.988   1.132
 2031TIP3   OH227651   2.875   3.289   2.453
 2031TIP3    H127652   2.911   3.333   2.530
 2031TIP3    H227653   2.952   3.263   2.403
 2032TIP3   OH227654   0.631   4.181   7.759
 2032TIP3    H127655   0.606   4.235   7.834
 2032TIP3    H227656   0.587   4.221   7.684
 2033TIP3   OH227657   5.850   5.627   1.618
 2033TIP3    H127658   5.847   5.647   1.711
 2033TIP3    H227659   5.766   5.583   1.600
 2034TIP3   OH227660   2.361   4.369   0.086
 2034TIP3    H127661   2.384   4.294   0.141
 2034TIP3    H227662   2.298   4.334   0.023
 2035TIP3   OH227663   2.507   1.534   7.028
 2035TIP3    H127664   2.562   1.480   6.971
 2035TIP3    H227665   2.418   1.514   7.001
 2036TIP3   OH227666   0.520   1.651   8.584
 2036TIP3    H127667   0.543   1.638   8.676
 2036TIP3    H227668   0.532   1.564   8.544
 2037TIP3   OH227669   2.847   1.804   2.106
 2037TIP3    H127670   2.907   1.748   2.057
 2037TIP3    H227671   2.904   1.859   2.159
 2038TIP3   OH227672   6.106   3.204   2.223
 2038TIP3    H127673   6.200   3.190   2.227
 2038TIP3    H227674   6.073   3.168   2.305
 2039TIP3   OH227675   0.178   6.580   2.112
 2039TIP3    H127676   0.206   6.666   2.146
 2039TIP3    H227677   0.260   6.533   2.098
 2040TIP3   OH227678   2.322   6.735   0.785
 2040TIP3    H127679   2.238   6.688   0.781
 2040TIP3    H227680   2.383   6.677   0.740
 2041TIP3   OH227681   1.663   2.422   0.427
 2041TIP3    H127682   1.627   2.504   0.462
 2041TIP3    H227683   1.586   2.370   0.406
 2042TIP3   OH227684   3.515   0.611   1.087
 2042TIP3    H127685   3.450   0.653   1.030
 2042TIP3    H227686   3.503   0.517   1.073
 2043TIP3   OH227687   2.999   4.899   6.600
 2043TIP3    H127688   2.972   4.980   6.644
 2043TIP3    H227689   3.068   4.863   6.656
 2044TIP3   OH227690   4.543   4.941   6.772
 2044TIP3    H127691   4.521   4.860   6.726
 2044TIP3    H227692   4.526   4.921   6.864
 2045TIP3   OH227693   0.008   1.323   6.347
 2045TIP3    H127694   0.094   1.283   6.342
 2045TIP3    H227695   6.788   1.252   6.328
 2046TIP3   OH227696   0.573   1.920   2.194
 2046TIP3    H127697   0.479   1.931   2.208
 2046TIP3    H227698   0.580   1.875   2.109
 2047TIP3   OH227699   0.156   3.683   1.505
 2047TIP3    H127700   0.123   3.773   1.498
 2047TIP3    H227701   0.202   3.668   1.423
 2048TIP3   OH227702   5.968   3.673   2.307
 2048TIP3    H127703   5.885   3.719   2.320
 2048TIP3    H227704   6.026   3.707   2.375
 2049TIP3   OH227705   0.657   0.664   6.746
 2049TIP3    H127706   0.644   0.578   6.707
 2049TIP3    H227707   0.752   0.675   6.750
 2050TIP3   OH227708   2.433   4.737   8.730
 2050TIP3    H127709   2.436   4.713   8.638
 2050TIP3    H227710   2.403   4.828   8.730
 2051TIP3   OH227711   6.122   6.528   8.339
 2051TIP3    H127712   6.027   6.524   8.347
 2051TIP3    H227713   6.150   6.581   8.414
 2052TIP3   OH227714   0.188   5.617   0.451
 2052TIP3    H127715   0.252   5.649   0.388
 2052TIP3    H227716   0.220   5.651   0.535
 2053TIP3   OH227717   3.142   3.843   1.432
 2053TIP3    H127718   3.155   3.830   1.338
 2053TIP3    H227719   3.078   3.777   1.458
 2054TIP3   OH227720   5.163   6.207   0.423
 2054TIP3    H127721   5.138   6.206   0.331
 2054TIP3    H227722   5.178   6.114   0.445
 2055TIP3   OH227723   6.701   2.155   0.182
 2055TIP3    H127724   6.775   2.108   0.220
 2055TIP3    H227725   6.624   2.104   0.207
 2056TIP3   OH227726   4.460   0.935   2.566
 2056TIP3    H127727   4.404   0.948   2.642
 2056TIP3    H227728   4.545   0.972   2.592
 2057TIP3   OH227729   3.713   2.122   0.320
 2057TIP3    H127730   3.755   2.115   0.235
 2057TIP3    H227731   3.781   2.097   0.383
 2058TIP3   OH227732   1.220   5.739   0.225
 2058TIP3    H127733   1.137   5.767   0.262
 2058TIP3    H227734   1.198   5.706   0.138
 2059TIP3   OH227735   1.437   0.070   1.929
 2059TIP3    H127736   1.438   0.165   1.934
 2059TIP3    H227737   1.363   0.044   1.985
 2060TIP3   OH227738   0.763   6.679   6.684
 2060TIP3    H127739   0.803   6.676   6.597
 2060TIP3    H227740   0.759   6.587   6.712
 2061TIP3   OH227741   1.953   1.157   1.412
 2061TIP3    H127742   2.014   1.157   1.485
 2061TIP3    H227743   1.880   1.211   1.442
 2062TIP3   OH227744   6.429   4.851   0.087
 2062TIP3    H127745   6.371   4.847   0.011
 2062TIP3    H227746   6.460   4.941   0.088
 2063TIP3   OH227747   0.460   5.301   8.569
 2063TIP3    H127748   0.485   5.246   8.495
 2063TIP3    H227749   0.543   5.339   8.599
 2064TIP3   OH227750   4.988   2.653   0.145
 2064TIP3    H127751   4.896   2.672   0.130
 2064TIP3    H227752   5.034   2.702   0.076
 2065TIP3   OH227753   4.758   5.410   2.321
 2065TIP3    H127754   4.692   5.353   2.360
 2065TIP3    H227755   4.827   5.416   2.386
 2066TIP3   OH227756   1.401   3.919   6.648
 2066TIP3    H127757   1.442   3.845   6.693
 2066TIP3    H227758   1.473   3.963   6.604
 2067TIP3   OH227759   3.718   6.241   1.549
 2067TIP3    H127760   3.646   6.178   1.545
 2067TIP3    H227761   3.797   6.187   1.557
 2068TIP3   OH227762   1.132   1.017   7.081
 2068TIP3    H127763   1.190   0.944   7.102
 2068TIP3    H227764   1.056   0.975   7.040
 2069TIP3   OH227765   1.740   3.162   8.445
 2069TIP3    H127766   1.691   3.080   8.453
 2069TIP3    H227767   1.705   3.217   8.515
 2070TIP3   OH227768   4.475   6.319   1.442
 2070TIP3    H127769   4.454   6.283   1.356
 2070TIP3    H227770   4.407   6.285   1.499
 2071TIP3   OH227771   2.891   1.298   8.342
 2071TIP3    H127772   2.894   1.330   8.252
 2071TIP3    H227773   2.981   1.307   8.373
 2072TIP3   OH227774   1.641   6.623   0.808
 2072TIP3    H127775   1.617   6.619   0.901
 2072TIP3    H227776   1.669   6.534   0.787
 2073TIP3   OH227777   1.652   6.665   0.539
 2073TIP3    H127778   1.567   6.710   0.543
 2073TIP3    H227779   1.672   6.643   0.631
 2074TIP3   OH227780   1.962   1.907   8.290
 2074TIP3    H127781   1.987   1.952   8.209
 2074TIP3    H227782   2.043   1.897   8.339
 2075TIP3   OH227783   4.174   4.102   7.982
 2075TIP3    H127784   4.190   4.181   7.930
 2075TIP3    H227785   4.249   4.096   8.041
 2076TIP3   OH227786   4.375   1.387   7.619
 2076TIP3    H127787   4.335   1.305   7.647
 2076TIP3    H227788   4.376   1.381   7.523
 2077TIP3   OH227789   6.591   5.387   7.364
 2077TIP3    H127790   6.641   5.317   7.404
 2077TIP3    H227791   6.514   5.344   7.327
 2078TIP3   OH227792   5.936   6.040   0.618
 2078TIP3    H127793   5.856   6.034   0.565
 2078TIP3    H227794   5.976   6.122   0.591
 2079TIP3   OH227795   5.704   3.660   7.270
 2079TIP3    H127796   5.739   3.617   7.347
 2079TIP3    H227797   5.655   3.592   7.224
 2080TIP3   OH227798   1.497   3.412   0.248
 2080TIP3    H127799   1.588   3.440   0.257
 2080TIP3    H227800   1.458   3.429   0.334
 2081TIP3   OH227801   4.508   4.336   7.569
 2081TIP3    H127802   4.601   4.332   7.588
 2081TIP3    H227803   4.491   4.258   7.515
 2082TIP3   OH227804   5.797   5.339   7.745
 2082TIP3    H127805   5.807   5.363   7.837
 2082TIP3    H227806   5.818   5.245   7.743
 2083TIP3   OH227807   5.667   5.811   0.015
 2083TIP3    H127808   5.592   5.816   0.075
 2083TIP3    H227809   5.730   5.875   0.049
 2084TIP3   OH227810   6.598   5.259   7.735
 2084TIP3    H127811   6.648   5.271   7.654
 2084TIP3    H227812   6.521   5.315   7.724
 2085TIP3   OH227813   1.383   0.475   1.098
 2085TIP3    H127814   1.322   0.414   1.057
 2085TIP3    H227815   1.368   0.464   1.192
 2086TIP3   OH227816   5.541   2.686   7.112
 2086TIP3    H127817   5.521   2.658   7.022
 2086TIP3    H227818   5.469   2.744   7.135
 2087TIP3   OH227819   3.302   2.823   8.262
 2087TIP3    H127820   3.385   2.840   8.217
 2087TIP3    H227821   3.260   2.756   8.209
 2088TIP3   OH227822   4.286   1.514   8.649
 2088TIP3    H127823   4.371   1.530   8.689
 2088TIP3    H227824   4.300   1.530   8.556
 2089TIP3   OH227825   2.891   2.781   1.852
 2089TIP3    H127826   2.878   2.742   1.939
 2089TIP3    H227827   2.945   2.858   1.869
 2090TIP3   OH227828   0.717   0.584   7.615
 2090TIP3    H127829   0.747   0.552   7.530
 2090TIP3    H227830   0.643   0.642   7.593
 2091TIP3   OH227831   2.565   6.623   7.727
 2091TIP3    H127832   2.558   6.642   7.821
 2091TIP3    H227833   2.505   6.550   7.713
 2092TIP3   OH227834   4.290   5.966   1.365
 2092TIP3    H127835   4.300   6.042   1.422
 2092TIP3    H227836   4.320   5.892   1.418
 2093TIP3   OH227837   3.400   6.580   7.006
 2093TIP3    H127838   3.355   6.573   6.922
 2093TIP3    H227839   3.490   6.551   6.988
 2094TIP3   OH227840   2.146   3.507   1.341
 2094TIP3    H127841   2.123   3.583   1.287
 2094TIP3    H227842   2.130   3.537   1.431
 2095TIP3   OH227843   4.460   3.187   0.898
 2095TIP3    H127844   4.554   3.171   0.882
 2095TIP3    H227845   4.416   3.146   0.823
 2096TIP3   OH227846   1.272   1.801   2.220
 2096TIP3    H127847   1.252   1.891   2.195
 2096TIP3    H227848   1.190   1.768   2.257
 2097TIP3   OH227849   1.610   4.357   8.706
 2097TIP3    H127850   1.586   4.269   8.679
 2097TIP3    H227851   1.703   4.350   8.729
 2098TIP3   OH227852   3.277   6.073   0.307
 2098TIP3    H127853   3.299   5.980   0.294
 2098TIP3    H227854   3.315   6.117   0.231
 2099TIP3   OH227855   1.970   5.209   7.898
 2099TIP3    H127856   2.055   5.213   7.855
 2099TIP3    H227857   1.972   5.129   7.950
 2100TIP3   OH227858   5.290   6.351   8.055
 2100TIP3    H127859   5.231   6.372   7.983
 2100TIP3    H227860   5.266   6.262   8.081
 2101TIP3   OH227861   5.734   4.753   0.157
 2101TIP3    H127862   5.644   4.785   0.156
 2101TIP3    H227863   5.761   4.762   0.249
 2102TIP3   OH227864   4.856   3.752   0.420
 2102TIP3    H127865   4.917   3.686   0.387
 2102TIP3    H227866   4.772   3.707   0.426
 2103TIP3   OH227867   2.240   1.292   2.400
 2103TIP3    H127868   2.304   1.258   2.338
 2103TIP3    H227869   2.172   1.332   2.346
 2104TIP3   OH227870   2.811   1.589   0.660
 2104TIP3    H127871   2.823   1.684   0.670
 2104TIP3    H227872   2.769   1.579   0.575
 2105TIP3   OH227873   5.667   1.910   6.991
 2105TIP3    H127874   5.656   1.944   6.902
 2105TIP3    H227875   5.734   1.843   6.984
 2106TIP3   OH227876   1.025   3.960   0.856
 2106TIP3    H127877   1.046   4.005   0.774
 2106TIP3    H227878   0.940   3.919   0.840
 2107TIP3   OH227879   5.767   0.565   6.916
 2107TIP3    H127880   5.775   0.639   6.977
 2107TIP3    H227881   5.855   0.529   6.910
 2108TIP3   OH227882   0.702   3.377   0.223
 2108TIP3    H127883   0.766   3.448   0.221
 2108TIP3    H227884   0.632   3.405   0.164
 2109TIP3   OH227885   5.925   2.887   7.577
 2109TIP3    H127886   5.881   2.948   7.637
 2109TIP3    H227887   5.881   2.902   7.493
 2110TIP3   OH227888   4.097   1.333   0.091
 2110TIP3    H127889   4.162   1.371   0.032
 2110TIP3    H227890   4.066   1.407   0.143
 2111TIP3   OH227891   2.572   4.694   7.391
 2111TIP3    H127892   2.516   4.729   7.321
 2111TIP3    H227893   2.519   4.703   7.470
 2112TIP3   OH227894   4.253   3.068   1.054
 2112TIP3    H127895   4.335   3.102   1.020
 2112TIP3    H227896   4.275   3.031   1.139
 2113TIP3   OH227897   1.580   1.450   0.099
 2113TIP3    H127898   1.490   1.475   0.119
 2113TIP3    H227899   1.600   1.380   0.161
 2114TIP3   OH227900   5.467   0.386   2.063
 2114TIP3    H127901   5.392   0.444   2.049
 2114TIP3    H227902   5.521   0.432   2.127
 2115TIP3   OH227903   2.589   1.277   1.357
 2115TIP3    H127904   2.536   1.340   1.308
 2115TIP3    H227905   2.663   1.328   1.389
 2116TIP3   OH227906   6.049   3.915   7.760
 2116TIP3    H127907   6.047   4.002   7.719
 2116TIP3    H227908   6.119   3.868   7.714
 2117TIP3   OH227909   2.398   3.457   2.035
 2117TIP3    H127910   2.443   3.477   2.117
 2117TIP3    H227911   2.364   3.368   2.047
 2118TIP3   OH227912   1.568   0.285   6.816
 2118TIP3    H127913   1.560   0.212   6.878
 2118TIP3    H227914   1.514   0.260   6.741
 2119TIP3   OH227915   1.826   2.740   7.790
 2119TIP3    H127916   1.838   2.833   7.775
 2119TIP3    H227917   1.873   2.723   7.872
 2120TIP3   OH227918   2.113   0.641   8.734
 2120TIP3    H127919   2.058   0.683   8.668
 2120TIP3    H227920   2.092   0.548   8.726
 2121TIP3   OH227921   2.946   2.595   8.431
 2121TIP3    H127922   2.856   2.592   8.464
 2121TIP3    H227923   2.969   2.503   8.415
 2122TIP3   OH227924   5.751   1.822   1.695
 2122TIP3    H127925   5.677   1.761   1.687
 2122TIP3    H227926   5.823   1.767   1.727
 2123TIP3   OH227927   4.735   0.228   1.347
 2123TIP3    H127928   4.692   0.313   1.361
 2123TIP3    H227929   4.685   0.188   1.276
 2124TIP3   OH227930   1.395   3.450   7.385
 2124TIP3    H127931   1.444   3.382   7.339
 2124TIP3    H227932   1.305   3.418   7.388
 2125TIP3   OH227933   3.501   6.502   7.967
 2125TIP3    H127934   3.406   6.515   7.966
 2125TIP3    H227935   3.513   6.410   7.945
 2126TIP3   OH227936   3.449   6.720   8.604
 2126TIP3    H127937   3.449   6.629   8.574
 2126TIP3    H227938   3.361   6.751   8.583
 2127TIP3   OH227939   6.590   6.347   6.699
 2127TIP3    H127940   6.633   6.428   6.727
 2127TIP3    H227941   6.662   6.291   6.670
 2128TIP3   OH227942   1.516   2.944   0.814
 2128TIP3    H127943   1.485   3.025   0.854
 2128TIP3    H227944   1.458   2.930   0.740
 2129TIP3   OH227945   4.632   2.825   8.501
 2129TIP3    H127946   4.614   2.857   8.589
 2129TIP3    H227947   4.597   2.892   8.442
 2130TIP3   OH227948   5.285   0.291   6.293
 2130TIP3    H127949   5.287   0.384   6.271
 2130TIP3    H227950   5.277   0.289   6.388
 2131TIP3   OH227951   2.071   0.011   0.505
 2131TIP3    H127952   2.059   0.082   0.442
 2131TIP3    H227953   2.131   6.791   0.462
 2132TIP3   OH227954   1.259   4.891   8.651
 2132TIP3    H127955   1.253   4.947   8.728
 2132TIP3    H227956   1.246   4.803   8.684
 2133TIP3   OH227957   3.052   2.546   2.079
 2133TIP3    H127958   3.035   2.454   2.058
 2133TIP3    H227959   3.134   2.566   2.035
 2134TIP3   OH227960   4.661   0.894   8.623
 2134TIP3    H127961   4.699   0.806   8.631
 2134TIP3    H227962   4.567   0.879   8.633
 2135TIP3   OH227963   4.753   0.343   0.338
 2135TIP3    H127964   4.738   0.433   0.368
 2135TIP3    H227965   4.837   0.318   0.379
 2136TIP3   OH227966   3.786   3.714   1.239
 2136TIP3    H127967   3.861   3.683   1.189
 2136TIP3    H227968   3.820   3.786   1.292
 2137TIP3   OH227969   3.897   3.734   6.329
 2137TIP3    H127970   3.846   3.813   6.314
 2137TIP3    H227971   3.836   3.662   6.309
 2138TIP3   OH227972   1.429   0.737   1.074
 2138TIP3    H127973   1.417   0.646   1.098
 2138TIP3    H227974   1.348   0.780   1.100
 2139TIP3   OH227975   2.948   1.935   2.311
 2139TIP3    H127976   2.904   2.019   2.303
 2139TIP3    H227977   2.971   1.929   2.404
 2140TIP3   OH227978   0.714   5.617   0.257
 2140TIP3    H127979   0.789   5.564   0.228
 2140TIP3    H227980   0.641   5.588   0.202
 2141TIP3   OH227981   6.355   6.638   1.112
 2141TIP3    H127982   6.333   6.547   1.132
 2141TIP3    H227983   6.396   6.634   1.026
 2142TIP3   OH227984   3.320   5.608   0.109
 2142TIP3    H127985   3.378   5.562   0.169
 2142TIP3    H227986   3.359   5.595   0.022
 2143TIP3   OH227987   4.589   0.467   1.427
 2143TIP3    H127988   4.504   0.486   1.467
 2143TIP3    H227989   4.608   0.544   1.374
 2144TIP3   OH227990   0.308   2.987   7.252
 2144TIP3    H127991   0.236   2.936   7.213
 2144TIP3    H227992   0.376   2.987   7.184
 2145TIP3   OH227993   3.022   6.547   1.563
 2145TIP3    H127994   3.060   6.523   1.647
 2145TIP3    H227995   2.965   6.621   1.582
 2146TIP3   OH227996   5.009   2.389   0.163
 2146TIP3    H127997   4.988   2.475   0.200
 2146TIP3    H227998   5.011   2.404   0.068
 2147TIP3   OH227999   4.537   4.273   1.527
 2147TIP3    H128000   4.568   4.213   1.594
 2147TIP3    H228001   4.580   4.244   1.447
 2148TIP3   OH228002   4.126   5.297   7.943
 2148TIP3    H128003   4.092   5.285   7.855
 2148TIP3    H228004   4.219   5.316   7.930
 2149TIP3   OH228005   6.583   0.812   1.800
 2149TIP3    H128006   6.639   0.865   1.744
 2149TIP3    H228007   6.538   0.752   1.740
 2150TIP3   OH228008   4.471   3.548   2.460
 2150TIP3    H128009   4.457   3.612   2.390
 2150TIP3    H228010   4.541   3.585   2.513
 2151TIP3   OH228011   3.240   0.722   8.247
 2151TIP3    H128012   3.261   0.648   8.190
 2151TIP3    H228013   3.275   0.696   8.333
 2152TIP3   OH228014   3.770   5.023   7.373
 2152TIP3    H128015   3.855   5.037   7.331
 2152TIP3    H228016   3.790   5.008   7.465
 2153TIP3   OH228017   5.027   3.641   0.149
 2153TIP3    H128018   5.052   3.581   0.079
 2153TIP3    H228019   5.032   3.589   0.229
 2154TIP3   OH228020   6.272   1.409   0.742
 2154TIP3    H128021   6.322   1.371   0.813
 2154TIP3    H228022   6.191   1.359   0.740
 2155TIP3   OH228023   1.639   5.117   8.459
 2155TIP3    H128024   1.585   5.154   8.389
 2155TIP3    H228025   1.668   5.193   8.509
 2156TIP3   OH228026   1.305   5.119   1.845
 2156TIP3    H128027   1.250   5.153   1.915
 2156TIP3    H228028   1.377   5.076   1.890
 2157TIP3   OH228029   6.435   4.585   6.700
 2157TIP3    H128030   6.505   4.636   6.659
 2157TIP3    H228031   6.366   4.650   6.717
 2158TIP3   OH228032   1.148   4.319   7.678
 2158TIP3    H128033   1.143   4.338   7.772
 2158TIP3    H228034   1.072   4.263   7.661
 2159TIP3   OH228035   0.452   0.238   7.379
 2159TIP3    H128036   0.546   0.222   7.389
 2159TIP3    H228037   0.418   0.157   7.342
 2160TIP3   OH228038   0.021   6.168   1.431
 2160TIP3    H128039   0.027   6.261   1.455
 2160TIP3    H228040   6.768   6.151   1.424
 2161TIP3   OH228041   3.372   3.759   0.270
 2161TIP3    H128042   3.332   3.759   0.357
 2161TIP3    H228043   3.371   3.851   0.243
 2162TIP3   OH228044   6.170   6.356   7.626
 2162TIP3    H128045   6.135   6.273   7.657
 2162TIP3    H228046   6.128   6.370   7.541
 2163TIP3   OH228047   5.515   5.413   8.412
 2163TIP3    H128048   5.432   5.372   8.437
 2163TIP3    H228049   5.513   5.499   8.454
 2164TIP3   OH228050   4.181   6.523   7.293
 2164TIP3    H128051   4.275   6.538   7.302
 2164TIP3    H228052   4.167   6.436   7.329
 2165TIP3   OH228053   5.895   2.584   7.686
 2165TIP3    H128054   5.910   2.635   7.766
 2165TIP3    H228055   5.835   2.637   7.634
 2166TIP3   OH228056   5.266   1.231   7.634
 2166TIP3    H128057   5.171   1.240   7.627
 2166TIP3    H228058   5.298   1.318   7.656
 2167TIP3   OH228059   4.769   4.225   7.534
 2167TIP3    H128060   4.759   4.274   7.452
 2167TIP3    H228061   4.850   4.176   7.522
 2168TIP3   OH228062   0.579   3.430   7.052
 2168TIP3    H128063   0.649   3.468   6.999
 2168TIP3    H228064   0.503   3.485   7.035
 2169TIP3   OH228065   6.284   4.425   0.724
 2169TIP3    H128066   6.223   4.352   0.735
 2169TIP3    H228067   6.268   4.482   0.799
 2170TIP3   OH228068   4.811   1.033   0.103
 2170TIP3    H128069   4.773   0.966   0.046
 2170TIP3    H228070   4.806   1.113   0.051
 2171TIP3   OH228071   4.724   1.937   0.553
 2171TIP3    H128072   4.722   1.855   0.503
 2171TIP3    H228073   4.785   1.993   0.505
 2172TIP3   OH228074   0.291   6.585   1.555
 2172TIP3    H128075   0.251   6.510   1.599
 2172TIP3    H228076   0.382   6.583   1.584
 2173TIP3   OH228077   4.729   2.680   0.301
 2173TIP3    H128078   4.713   2.599   0.348
 2173TIP3    H228079   4.786   2.731   0.359
 2174TIP3   OH228080   3.664   6.552   6.860
 2174TIP3    H128081   3.749   6.573   6.820
 2174TIP3    H228082   3.683   6.481   6.920
 2175TIP3   OH228083   2.162   0.059   1.357
 2175TIP3    H128084   2.176   0.150   1.332
 2175TIP3    H228085   2.197   0.053   1.446
 2176TIP3   OH228086   3.810   6.394   0.909
 2176TIP3    H128087   3.800   6.430   0.997
 2176TIP3    H228088   3.905   6.393   0.894
 2177TIP3   OH228089   3.624   1.343   7.101
 2177TIP3    H128090   3.670   1.397   7.037
 2177TIP3    H228091   3.601   1.264   7.053
 2178TIP3   OH228092   2.871   0.147   0.527
 2178TIP3    H128093   2.833   0.233   0.544
 2178TIP3    H228094   2.877   0.143   0.431
 2179TIP3   OH228095   2.352   4.123   0.750
 2179TIP3    H128096   2.321   4.211   0.731
 2179TIP3    H228097   2.310   4.099   0.833
 2180TIP3   OH228098   4.669   2.363   0.770
 2180TIP3    H128099   4.609   2.344   0.698
 2180TIP3    H228100   4.733   2.291   0.768
 2181TIP3   OH228101   4.410   2.670   8.500
 2181TIP3    H128102   4.493   2.714   8.482
 2181TIP3    H228103   4.348   2.708   8.438
 2182TIP3   OH228104   0.995   1.227   1.072
 2182TIP3    H128105   0.950   1.152   1.033
 2182TIP3    H228106   0.954   1.237   1.158
 2183TIP3   OH228107   2.716   6.554   1.699
 2183TIP3    H128108   2.730   6.460   1.705
 2183TIP3    H228109   2.644   6.564   1.637
 2184TIP3   OH228110   1.989   2.574   8.271
 2184TIP3    H128111   1.931   2.648   8.253
 2184TIP3    H228112   2.078   2.609   8.262
 2185TIP3   OH228113   3.152   0.939   7.825
 2185TIP3    H128114   3.186   0.902   7.744
 2185TIP3    H228115   3.219   0.919   7.891
 2186TIP3   OH228116   2.784   0.283   1.181
 2186TIP3    H128117   2.877   0.274   1.203
 2186TIP3    H228118   2.749   0.342   1.248
 2187TIP3   OH228119   4.832   2.723   7.669
 2187TIP3    H128120   4.841   2.714   7.764
 2187TIP3    H228121   4.860   2.812   7.651
 2188TIP3   OH228122   1.317   2.581   0.699
 2188TIP3    H128123   1.247   2.644   0.717
 2188TIP3    H228124   1.397   2.626   0.727
 2189TIP3   OH228125   2.601   5.720   1.133
 2189TIP3    H128126   2.560   5.785   1.190
 2189TIP3    H228127   2.530   5.688   1.078
 2190TIP3   OH228128   2.723   3.806   8.257
 2190TIP3    H128129   2.815   3.817   8.231
 2190TIP3    H228130   2.690   3.895   8.267
 2191TIP3   OH228131   1.641   0.107   6.424
 2191TIP3    H128132   1.695   0.045   6.376
 2191TIP3    H228133   1.687   0.190   6.417
 2192TIP3   OH228134   0.753   3.380   0.499
 2192TIP3    H128135   0.668   3.413   0.527
 2192TIP3    H228136   0.752   3.388   0.404
 2193TIP3   OH228137   4.277   3.972   0.685
 2193TIP3    H128138   4.188   3.995   0.659
 2193TIP3    H228139   4.285   3.878   0.668
 2194TIP3   OH228140   4.492   6.794   1.888
 2194TIP3    H128141   4.505   6.711   1.843
 2194TIP3    H228142   4.562   0.010   1.855
 2195TIP3   OH228143   4.884   3.836   0.029
 2195TIP3    H128144   4.808   3.784   0.004
 2195TIP3    H228145   4.947   3.772   0.061
 2196TIP3   OH228146   1.250   5.834   1.194
 2196TIP3    H128147   1.201   5.776   1.252
 2196TIP3    H228148   1.311   5.776   1.148
 2197TIP3   OH228149   3.384   6.226   7.985
 2197TIP3    H128150   3.480   6.234   7.986
 2197TIP3    H228151   3.353   6.313   8.012
 2198TIP3   OH228152   4.067   4.594   7.961
 2198TIP3    H128153   4.042   4.673   7.913
 2198TIP3    H228154   4.128   4.548   7.903
 2199TIP3   OH228155   4.582   5.711   7.585
 2199TIP3    H128156   4.677   5.708   7.582
 2199TIP3    H228157   4.556   5.750   7.502
 2200TIP3   OH228158   3.282   3.015   1.530
 2200TIP3    H128159   3.291   3.012   1.435
 2200TIP3    H228160   3.345   2.950   1.562
 2201TIP3   OH228161   4.382   0.933   1.492
 2201TIP3    H128162   4.437   0.897   1.423
 2201TIP3    H228163   4.430   1.010   1.523
 2202TIP3   OH228164   4.983   5.993   7.195
 2202TIP3    H128165   4.989   5.985   7.099
 2202TIP3    H228166   4.890   6.010   7.211
 2203TIP3   OH228167   1.592   3.917   0.976
 2203TIP3    H128168   1.664   3.870   0.934
 2203TIP3    H228169   1.600   3.896   1.069
 2204TIP3   OH228170   0.679   4.471   7.746
 2204TIP3    H128171   0.676   4.543   7.683
 2204TIP3    H228172   0.606   4.488   7.805
 2205TIP3   OH228173   0.717   5.447   0.585
 2205TIP3    H128174   0.735   5.362   0.546
 2205TIP3    H228175   0.668   5.427   0.665
 2206TIP3   OH228176   4.350   6.832   8.293
 2206TIP3    H128177   4.275   0.025   8.341
 2206TIP3    H228178   4.408   6.797   8.360
 2207TIP3   OH228179   5.838   3.550   7.550
 2207TIP3    H128180   5.923   3.572   7.512
 2207TIP3    H228181   5.800   3.634   7.575
 2208TIP3   OH228182   4.342   4.836   8.686
 2208TIP3    H128183   4.423   4.851   0.001
 2208TIP3    H228184   4.371   4.830   8.595
 2209TIP3   OH228185   0.710   3.388   8.279
 2209TIP3    H128186   0.706   3.336   8.359
 2209TIP3    H228187   0.772   3.458   8.300
 2210TIP3   OH228188   1.728   0.858   8.404
 2210TIP3    H128189   1.644   0.904   8.407
 2210TIP3    H228190   1.730   0.818   8.317
 2211TIP3   OH228191   0.277   2.063   0.490
 2211TIP3    H128192   0.250   2.096   0.575
 2211TIP3    H228193   0.195   2.040   0.445
 2212TIP3   OH228194   2.377   1.328   0.575
 2212TIP3    H128195   2.421   1.243   0.566
 2212TIP3    H228196   2.397   1.375   0.494
 2213TIP3   OH228197   2.240   1.304   7.168
 2213TIP3    H128198   2.329   1.271   7.185
 2213TIP3    H228199   2.252   1.399   7.159
 2214TIP3   OH228200   6.678   0.398   1.902
 2214TIP3    H128201   6.594   0.404   1.857
 2214TIP3    H228202   6.713   0.312   1.878
 2215TIP3   OH228203   3.707   3.131   8.204
 2215TIP3    H128204   3.634   3.165   8.256
 2215TIP3    H228205   3.697   3.036   8.208
 2216TIP3   OH228206   2.683   2.553   0.107
 2216TIP3    H128207   2.664   2.642   0.079
 2216TIP3    H228208   2.759   2.562   0.165
 2217TIP3   OH228209   6.336   5.898   0.836
 2217TIP3    H128210   6.323   5.882   0.929
 2217TIP3    H228211   6.351   5.811   0.798
 2218TIP3   OH228212   2.158   3.583   2.163
 2218TIP3    H128213   2.245   3.620   2.152
 2218TIP3    H228214   2.160   3.541   2.250
 2219TIP3   OH228215   4.695   4.666   8.365
 2219TIP3    H128216   4.698   4.572   8.351
 2219TIP3    H228217   4.744   4.703   8.291
 2220TIP3   OH228218   4.762   4.961   8.410
 2220TIP3    H128219   4.705   4.989   8.338
 2220TIP3    H228220   4.850   4.974   8.377
 2221TIP3   OH228221   2.417   6.432   0.389
 2221TIP3    H128222   2.441   6.469   0.305
 2221TIP3    H228223   2.496   6.384   0.417
 2222TIP3   OH228224   0.087   0.322   7.090
 2222TIP3    H128225   0.125   0.335   7.003
 2222TIP3    H228226   6.833   0.330   7.076
 2223TIP3   OH228227   6.469   4.196   8.034
 2223TIP3    H128228   6.382   4.220   8.004
 2223TIP3    H228229   6.479   4.104   8.010
 2224TIP3   OH228230   5.722   5.184   7.112
 2224TIP3    H128231   5.753   5.219   7.195
 2224TIP3    H228232   5.802   5.160   7.065
 2225TIP3   OH228233   0.517   0.866   0.213
 2225TIP3    H128234   0.609   0.879   0.192
 2225TIP3    H228235   0.478   0.953   0.208
 2226TIP3   OH228236   2.231   1.896   7.306
 2226TIP3    H128237   2.271   1.826   7.358
 2226TIP3    H228238   2.226   1.859   7.217
 2227TIP3   OH228239   3.251   2.394   2.588
 2227TIP3    H128240   3.334   2.442   2.586
 2227TIP3    H228241   3.213   2.408   2.501
 2228TIP3   OH228242   2.265   4.729   7.923
 2228TIP3    H128243   2.229   4.800   7.977
 2228TIP3    H228244   2.334   4.771   7.872
 2229TIP3   OH228245   3.610   6.698   2.336
 2229TIP3    H128246   3.678   6.761   2.309
 2229TIP3    H228247   3.645   6.613   2.310
 2230TIP3   OH228248   4.588   4.978   1.391
 2230TIP3    H128249   4.618   4.964   1.482
 2230TIP3    H228250   4.557   4.892   1.364
 2231TIP3   OH228251   2.866   3.280   7.442
 2231TIP3    H128252   2.801   3.293   7.512
 2231TIP3    H228253   2.848   3.349   7.379
 2232TIP3   OH228254   1.794   1.192   6.470
 2232TIP3    H128255   1.828   1.105   6.490
 2232TIP3    H228256   1.798   1.198   6.374
 2233TIP3   OH228257   2.468   6.496   0.657
 2233TIP3    H128258   2.496   6.417   0.704
 2233TIP3    H228259   2.453   6.467   0.567
 2234TIP3   OH228260   2.483   4.173   1.026
 2234TIP3    H128261   2.521   4.150   0.942
 2234TIP3    H228262   2.399   4.126   1.029
 2235TIP3   OH228263   3.441   2.853   0.931
 2235TIP3    H128264   3.358   2.888   0.964
 2235TIP3    H228265   3.425   2.759   0.919
 2236TIP3   OH228266   2.490   0.006   0.446
 2236TIP3    H128267   2.564   6.787   0.433
 2236TIP3    H228268   2.413   6.789   0.445
 2237TIP3   OH228269   0.187   3.154   0.019
 2237TIP3    H128270   0.093   3.161   0.034
 2237TIP3    H228271   0.216   3.085   0.079
 2238TIP3   OH228272   1.882   6.370   0.323
 2238TIP3    H128273   1.970   6.337   0.308
 2238TIP3    H228274   1.885   6.409   0.410
 2239TIP3   OH228275   3.384   4.027   0.589
 2239TIP3    H128276   3.457   4.050   0.533
 2239TIP3    H228277   3.345   4.111   0.614
 2240TIP3   OH228278   6.631   4.783   6.609
 2240TIP3    H128279   6.698   4.837   6.651
 2240TIP3    H228280   6.622   4.820   6.521
 2241TIP3   OH228281   1.195   2.404   1.827
 2241TIP3    H128282   1.250   2.357   1.891
 2241TIP3    H228283   1.251   2.475   1.796
 2242TIP3   OH228284   5.259   4.847   7.149
 2242TIP3    H128285   5.204   4.917   7.183
 2242TIP3    H228286   5.234   4.840   7.057
 2243TIP3   OH228287   0.562   0.872   6.927
 2243TIP3    H128288   0.505   0.948   6.934
 2243TIP3    H228289   0.562   0.851   6.833
 2244TIP3   OH228290   4.211   5.879   0.831
 2244TIP3    H128291   4.225   5.972   0.845
 2244TIP3    H228292   4.130   5.874   0.780
 2245TIP3   OH228293   1.193   2.666   7.584
 2245TIP3    H128294   1.165   2.602   7.650
 2245TIP3    H228295   1.255   2.722   7.630
 2246TIP3   OH228296   6.741   4.726   2.551
 2246TIP3    H128297   6.647   4.708   2.548
 2246TIP3    H228298   6.773   4.678   2.627
 2247TIP3   OH228299   1.291   6.535   6.725
 2247TIP3    H128300   1.241   6.576   6.796
 2247TIP3    H228301   1.261   6.581   6.646
 2248TIP3   OH228302   0.497   1.445   0.796
 2248TIP3    H128303   0.465   1.356   0.809
 2248TIP3    H228304   0.525   1.474   0.883
 2249TIP3   OH228305   6.554   4.186   6.377
 2249TIP3    H128306   6.649   4.175   6.382
 2249TIP3    H228307   6.532   4.242   6.452
 2250TIP3   OH228308   2.213   2.406   1.184
 2250TIP3    H128309   2.305   2.416   1.210
 2250TIP3    H228310   2.167   2.472   1.237
 2251TIP3   OH228311   1.051   4.227   2.363
 2251TIP3    H128312   0.965   4.204   2.329
 2251TIP3    H228313   1.099   4.144   2.366
 2252TIP3   OH228314   3.418   0.171   6.805
 2252TIP3    H128315   3.440   0.237   6.870
 2252TIP3    H228316   3.440   0.211   6.721
 2253TIP3   OH228317   0.886   3.508   7.031
 2253TIP3    H128318   0.952   3.443   7.004
 2253TIP3    H228319   0.927   3.592   7.012
 2254TIP3   OH228320   3.433   5.084   0.401
 2254TIP3    H128321   3.425   5.149   0.471
 2254TIP3    H228322   3.362   5.105   0.340
 2255TIP3   OH228323   2.307   4.469   8.339
 2255TIP3    H128324   2.243   4.480   8.268
 2255TIP3    H228325   2.392   4.483   8.297
 2256TIP3   OH228326   0.169   3.262   2.150
 2256TIP3    H128327   0.252   3.308   2.163
 2256TIP3    H228328   0.110   3.329   2.116
 2257TIP3   OH228329   6.066   6.078   7.581
 2257TIP3    H128330   6.024   6.135   7.517
 2257TIP3    H228331   6.114   6.014   7.529
 2258TIP3   OH228332   0.979   3.748   1.106
 2258TIP3    H128333   0.941   3.806   1.041
 2258TIP3    H228334   1.064   3.723   1.069
 2259TIP3   OH228335   5.751   6.298   8.144
 2259TIP3    H128336   5.787   6.338   8.223
 2259TIP3    H228337   5.784   6.352   8.072
 2260TIP3   OH228338   6.310   5.942   7.661
 2260TIP3    H128339   6.343   5.993   7.587
 2260TIP3    H228340   6.284   6.008   7.726
 2261TIP3   OH228341   1.288   0.847   0.228
 2261TIP3    H128342   1.243   0.905   0.290
 2261TIP3    H228343   1.343   0.791   0.283
 2262TIP3   OH228344   6.710   5.585   7.883
 2262TIP3    H128345   6.749   5.549   7.962
 2262TIP3    H228346   6.768   5.657   7.858
 2263TIP3   OH228347   6.527   0.621   1.452
 2263TIP3    H128348   6.542   0.533   1.487
 2263TIP3    H228349   6.481   0.607   1.370
 2264TIP3   OH228350   5.659   2.088   0.038
 2264TIP3    H128351   5.673   2.028   0.112
 2264TIP3    H228352   5.733   2.149   0.043
 2265TIP3   OH228353   3.246   1.900   1.064
 2265TIP3    H128354   3.263   1.806   1.067
 2265TIP3    H228355   3.196   1.914   0.984
 2266TIP3   OH228356   3.915   6.610   1.105
 2266TIP3    H128357   4.011   6.619   1.104
 2266TIP3    H228358   3.884   6.685   1.054
 2267TIP3   OH228359   4.098   1.031   1.560
 2267TIP3    H128360   4.186   1.001   1.537
 2267TIP3    H228361   4.082   0.993   1.646
 2268TIP3   OH228362   1.979   4.339   0.895
 2268TIP3    H128363   2.072   4.351   0.877
 2268TIP3    H228364   1.964   4.245   0.881
 2269TIP3   OH228365   6.317   0.112   0.582
 2269TIP3    H128366   6.229   0.131   0.614
 2269TIP3    H228367   6.304   0.086   0.490
 2270TIP3   OH228368   2.771   6.839   8.598
 2270TIP3    H128369   2.859   6.821   8.632
 2270TIP3    H228370   2.757   0.091   8.618
 2271TIP3   OH228371   1.407   0.208   8.554
 2271TIP3    H128372   1.400   0.251   8.469
 2271TIP3    H228373   1.317   0.194   8.582
 2272TIP3   OH228374   3.922   4.044   1.610
 2272TIP3    H128375   3.937   4.122   1.557
 2272TIP3    H228376   3.932   4.074   1.700
 2273TIP3   OH228377   2.918   5.359   0.688
 2273TIP3    H128378   2.928   5.354   0.593
 2273TIP3    H228379   2.824   5.346   0.703
 2274TIP3   OH228380   4.868   1.764   0.342
 2274TIP3    H128381   4.819   1.775   0.260
 2274TIP3    H228382   4.949   1.812   0.327
 2275TIP3   OH228383   1.113   4.459   1.351
 2275TIP3    H128384   1.069   4.481   1.269
 2275TIP3    H228385   1.200   4.497   1.343
 2276TIP3   OH228386   2.692   3.809   0.608
 2276TIP3    H128387   2.644   3.860   0.543
 2276TIP3    H228388   2.705   3.869   0.682
 2277TIP3   OH228389   2.811   5.316   1.102
 2277TIP3    H128390   2.865   5.280   1.032
 2277TIP3    H228391   2.724   5.281   1.085
 2278TIP3   OH228392   2.459   5.664   6.667
 2278TIP3    H128393   2.452   5.625   6.580
 2278TIP3    H228394   2.550   5.650   6.693
 2279TIP3   OH228395   3.955   0.439   6.562
 2279TIP3    H128396   4.017   0.366   6.572
 2279TIP3    H228397   4.011   0.516   6.554
 2280TIP3   OH228398   3.945   0.417   1.837
 2280TIP3    H128399   3.999   0.464   1.773
 2280TIP3    H228400   3.855   0.439   1.813
 2281TIP3   OH228401   1.121   2.605   2.319
 2281TIP3    H128402   1.150   2.517   2.343
 2281TIP3    H228403   1.040   2.591   2.270
 2282TIP3   OH228404   6.461   3.385   7.227
 2282TIP3    H128405   6.367   3.400   7.237
 2282TIP3    H228406   6.481   3.314   7.289
 2283TIP3   OH228407   6.290   5.682   7.675
 2283TIP3    H128408   6.348   5.656   7.746
 2283TIP3    H228409   6.295   5.778   7.673
 2284TIP3   OH228410   5.326   1.949   0.875
 2284TIP3    H128411   5.309   1.857   0.854
 2284TIP3    H228412   5.410   1.968   0.834
 2285TIP3   OH228413   1.088   0.529   8.173
 2285TIP3    H128414   1.093   0.444   8.131
 2285TIP3    H228415   1.100   0.511   8.266
 2286TIP3   OH228416   3.918   3.350   7.530
 2286TIP3    H128417   3.863   3.280   7.565
 2286TIP3    H228418   3.898   3.426   7.584
 2287TIP3   OH228419   4.334   3.932   0.977
 2287TIP3    H128420   4.389   3.868   0.931
 2287TIP3    H228421   4.282   3.973   0.908
 2288TIP3   OH228422   1.508   0.243   2.252
 2288TIP3    H128423   1.444   0.174   2.270
 2288TIP3    H228424   1.455   0.320   2.231
 2289TIP3   OH228425   3.340   4.354   6.671
 2289TIP3    H128426   3.309   4.286   6.731
 2289TIP3    H228427   3.262   4.378   6.621
 2290TIP3   OH228428   5.067   4.442   0.849
 2290TIP3    H128429   5.139   4.498   0.878
 2290TIP3    H228430   5.044   4.475   0.763
 2291TIP3   OH228431   5.159   3.572   8.342
 2291TIP3    H128432   5.194   3.616   8.265
 2291TIP3    H228433   5.113   3.496   8.308
 2292TIP3   OH228434   3.935   1.453   0.881
 2292TIP3    H128435   3.949   1.384   0.816
 2292TIP3    H228436   3.950   1.535   0.834
 2293TIP3   OH228437   3.143   6.775   2.181
 2293TIP3    H128438   3.100   0.003   2.131
 2293TIP3    H228439   3.095   6.695   2.159
 2294TIP3   OH228440   3.943   6.102   6.508
 2294TIP3    H128441   3.885   6.025   6.503
 2294TIP3    H228442   3.902   6.159   6.573
 2295TIP3   OH228443   6.363   2.757   0.177
 2295TIP3    H128444   6.440   2.793   0.133
 2295TIP3    H228445   6.315   2.833   0.210
 2296TIP3   OH228446   1.637   1.462   1.721
 2296TIP3    H128447   1.652   1.548   1.680
 2296TIP3    H228448   1.665   1.399   1.655
 2297TIP3   OH228449   3.828   5.312   7.247
 2297TIP3    H128450   3.874   5.241   7.202
 2297TIP3    H228451   3.751   5.328   7.192
 2298TIP3   OH228452   4.555   2.876   0.567
 2298TIP3    H128453   4.526   2.811   0.502
 2298TIP3    H228454   4.622   2.830   0.618
 2299TIP3   OH228455   1.130   6.650   7.885
 2299TIP3    H128456   1.169   6.621   7.803
 2299TIP3    H228457   1.039   6.620   7.879
 2300TIP3   OH228458   1.182   1.300   1.770
 2300TIP3    H128459   1.105   1.247   1.789
 2300TIP3    H228460   1.220   1.319   1.856
 2301TIP3   OH228461   3.394   0.642   8.470
 2301TIP3    H128462   3.479   0.628   8.429
 2301TIP3    H228463   3.406   0.721   8.523
 2302TIP3   OH228464   4.019   0.730   0.962
 2302TIP3    H128465   4.037   0.816   1.000
 2302TIP3    H228466   3.928   0.712   0.985
 2303TIP3   OH228467   3.011   3.680   1.667
 2303TIP3    H128468   2.995   3.714   1.755
 2303TIP3    H228469   2.988   3.587   1.672
 2304TIP3   OH228470   3.845   2.354   8.082
 2304TIP3    H128471   3.756   2.329   8.055
 2304TIP3    H228472   3.831   2.415   8.155
 2305TIP3   OH228473   0.167   4.658   1.281
 2305TIP3    H128474   0.195   4.688   1.368
 2305TIP3    H228475   0.236   4.599   1.252
 2306TIP3   OH228476   6.422   5.212   8.254
 2306TIP3    H128477   6.436   5.305   8.240
 2306TIP3    H228478   6.436   5.173   8.167
 2307TIP3   OH228479   4.025   3.679   1.090
 2307TIP3    H128480   4.028   3.593   1.049
 2307TIP3    H228481   4.109   3.686   1.137
 2308TIP3   OH228482   3.267   4.860   2.503
 2308TIP3    H128483   3.192   4.919   2.498
 2308TIP3    H228484   3.335   4.903   2.451
 2309TIP3   OH228485   4.798   6.739   7.692
 2309TIP3    H128486   4.778   6.722   7.600
 2309TIP3    H228487   4.746   6.675   7.740
 2310TIP3   OH228488   5.538   4.343   7.588
 2310TIP3    H128489   5.511   4.423   7.543
 2310TIP3    H228490   5.488   4.343   7.670
 2311TIP3   OH228491   0.505   4.274   1.055
 2311TIP3    H128492   0.581   4.251   1.002
 2311TIP3    H228493   0.430   4.257   0.998
 2312TIP3   OH228494   6.531   3.956   7.601
 2312TIP3    H128495   6.618   3.930   7.633
 2312TIP3    H228496   6.538   3.950   7.506
 2313TIP3   OH228497   5.970   6.190   7.021
 2313TIP3    H128498   6.010   6.276   7.029
 2313TIP3    H228499   5.892   6.194   7.077
 2314TIP3   OH228500   6.451   4.939   0.615
 2314TIP3    H128501   6.428   4.852   0.646
 2314TIP3    H228502   6.489   4.926   0.528
 2315TIP3   OH228503   1.147   3.446   0.321
 2315TIP3    H128504   1.117   3.400   0.400
 2315TIP3    H228505   1.176   3.375   0.263
 2316TIP3   OH228506   4.510   4.949   7.956
 2316TIP3    H128507   4.436   4.889   7.962
 2316TIP3    H228508   4.514   4.974   7.864
 2317TIP3   OH228509   3.680   0.222   0.973
 2317TIP3    H128510   3.669   0.149   0.912
 2317TIP3    H228511   3.775   0.238   0.974
 2318TIP3   OH228512   1.429   1.537   7.986
 2318TIP3    H128513   1.457   1.609   7.931
 2318TIP3    H228514   1.476   1.550   8.069
 2319TIP3   OH228515   6.266   3.325   7.558
 2319TIP3    H128516   6.323   3.259   7.519
 2319TIP3    H228517   6.211   3.276   7.619
 2320TIP3   OH228518   1.530   6.014   1.167
 2320TIP3    H128519   1.569   6.096   1.196
 2320TIP3    H228520   1.436   6.034   1.159
 2321TIP3   OH228521   3.020   2.695   7.071
 2321TIP3    H128522   2.933   2.731   7.093
 2321TIP3    H228523   3.078   2.771   7.073
 2322TIP3   OH228524   6.759   1.443   7.469
 2322TIP3    H128525   6.825   1.508   7.494
 2322TIP3    H228526   6.695   1.444   7.540
 2323TIP3   OH228527   6.798   2.561   0.653
 2323TIP3    H128528   6.763   2.531   0.737
 2323TIP3    H228529   6.724   2.553   0.592
 2324TIP3   OH228530   4.605   4.982   2.124
 2324TIP3    H128531   4.657   5.046   2.074
 2324TIP3    H228532   4.517   5.018   2.125
 2325TIP3   OH228533   1.748   1.612   7.012
 2325TIP3    H128534   1.771   1.621   6.919
 2325TIP3    H228535   1.829   1.583   7.053
 2326TIP3   OH228536   0.486   2.961   7.046
 2326TIP3    H128537   0.571   2.995   7.075
 2326TIP3    H228538   0.472   3.002   6.960
 2327TIP3   OH228539   4.164   0.866   2.824
 2327TIP3    H128540   4.095   0.878   2.758
 2327TIP3    H228541   4.158   0.774   2.848
 2328TIP3   OH228542   0.427   1.680   0.429
 2328TIP3    H128543   0.463   1.769   0.437
 2328TIP3    H228544   0.502   1.626   0.403
 2329TIP3   OH228545   1.377   5.403   8.363
 2329TIP3    H128546   1.336   5.319   8.340
 2329TIP3    H228547   1.329   5.468   8.312
 2330TIP3   OH228548   2.953   6.570   7.731
 2330TIP3    H128549   2.933   6.605   7.644
 2330TIP3    H228550   2.916   6.482   7.730
 2331TIP3   OH228551   3.827   3.507   7.170
 2331TIP3    H128552   3.767   3.526   7.098
 2331TIP3    H228553   3.783   3.544   7.247
 2332TIP3   OH228554   2.402   6.573   0.977
 2332TIP3    H128555   2.487   6.565   0.934
 2332TIP3    H228556   2.356   6.640   0.926
 2333TIP3   OH228557   3.597   4.011   7.106
 2333TIP3    H128558   3.534   4.060   7.159
 2333TIP3    H228559   3.601   4.059   7.023
 2334TIP3   OH228560   4.696   3.880   5.928
 2334TIP3    H128561   4.651   3.906   6.008
 2334TIP3    H228562   4.783   3.919   5.934
 2335TIP3   OH228563   1.889   1.358   0.125
 2335TIP3    H128564   1.892   1.347   0.030
 2335TIP3    H228565   1.813   1.308   0.153
 2336TIP3   OH228566   6.164   6.761   1.259
 2336TIP3    H128567   6.086   6.761   1.203
 2336TIP3    H228568   6.232   6.723   1.204
 2337TIP3   OH228569   0.393   0.394   1.079
 2337TIP3    H128570   0.312   0.445   1.082
 2337TIP3    H228571   0.401   0.356   1.167
 2338TIP3   OH228572   4.778   6.030   0.199
 2338TIP3    H128573   4.846   5.964   0.188
 2338TIP3    H228574   4.739   6.009   0.284
 2339TIP3   OH228575   4.799   6.749   1.347
 2339TIP3    H128576   4.852   6.706   1.413
 2339TIP3    H228577   4.717   6.769   1.391
 2340TIP3   OH228578   4.406   1.938   7.129
 2340TIP3    H128579   4.406   1.970   7.219
 2340TIP3    H228580   4.450   2.007   7.079
 2341TIP3   OH228581   4.969   5.013   1.319
 2341TIP3    H128582   4.890   5.067   1.323
 2341TIP3    H228583   5.034   5.061   1.369
 2342TIP3   OH228584   1.440   4.073   8.368
 2342TIP3    H128585   1.511   4.127   8.333
 2342TIP3    H228586   1.365   4.094   8.313
 2343TIP3   OH228587   1.418   3.596   0.619
 2343TIP3    H128588   1.402   3.664   0.553
 2343TIP3    H228589   1.492   3.547   0.584
 2344TIP3   OH228590   6.216   4.541   6.371
 2344TIP3    H128591   6.285   4.608   6.365
 2344TIP3    H228592   6.136   4.587   6.346
 2345TIP3   OH228593   3.274   1.238   2.445
 2345TIP3    H128594   3.304   1.148   2.449
 2345TIP3    H228595   3.333   1.281   2.383
 2346TIP3   OH228596   1.961   4.144   8.678
 2346TIP3    H128597   1.951   4.091   0.023
 2346TIP3    H228598   1.957   4.235   8.708
 2347TIP3   OH228599   2.296   2.773   6.927
 2347TIP3    H128600   2.325   2.839   6.864
 2347TIP3    H228601   2.236   2.717   6.877
 2348TIP3   OH228602   0.388   0.667   0.048
 2348TIP3    H128603   0.429   0.718   0.117
 2348TIP3    H228604   0.342   0.731   8.729
 2349TIP3   OH228605   3.721   2.355   8.681
 2349TIP3    H128606   3.654   2.334   0.012
 2349TIP3    H228607   3.682   2.329   8.598
 2350TIP3   OH228608   5.069   3.654   6.998
 2350TIP3    H128609   5.023   3.736   6.980
 2350TIP3    H228610   5.090   3.618   6.911
 2351TIP3   OH228611   5.393   2.026   0.116
 2351TIP3    H128612   5.455   2.095   0.095
 2351TIP3    H228613   5.313   2.072   0.142
 2352TIP3   OH228614   1.074   4.253   6.999
 2352TIP3    H128615   1.002   4.271   7.060
 2352TIP3    H228616   1.140   4.319   7.019
 2353TIP3   OH228617   0.278   6.731   1.817
 2353TIP3    H128618   0.257   6.716   1.724
 2353TIP3    H228619   0.192   6.742   1.859
 2354TIP3   OH228620   0.317   4.411   6.822
 2354TIP3    H128621   0.358   4.497   6.834
 2354TIP3    H228622   0.382   4.360   6.774
 2355TIP3   OH228623   5.362   3.012   8.530
 2355TIP3    H128624   5.344   2.977   8.442
 2355TIP3    H228625   5.422   3.085   8.515
 2356TIP3   OH228626   2.010   0.124   7.927
 2356TIP3    H128627   2.019   0.174   7.846
 2356TIP3    H228628   2.099   0.099   7.951
 2357TIP3   OH228629   1.482   4.421   0.213
 2357TIP3    H128630   1.501   4.508   0.247
 2357TIP3    H228631   1.523   4.419   0.127
 2358TIP3   OH228632   0.369   6.826   7.289
 2358TIP3    H128633   0.433   6.767   7.329
 2358TIP3    H228634   0.403   0.001   7.201
 2359TIP3   OH228635   6.581   4.108   1.128
 2359TIP3    H128636   6.593   4.093   1.222
 2359TIP3    H228637   6.669   4.098   1.091
 2360TIP3   OH228638   0.750   3.021   7.089
 2360TIP3    H128639   0.756   2.975   7.006
 2360TIP3    H228640   0.840   3.028   7.120
 2361TIP3   OH228641   6.049   2.219   8.337
 2361TIP3    H128642   5.996   2.237   8.415
 2361TIP3    H228643   6.014   2.136   8.303
 2362TIP3   OH228644   0.272   5.499   1.799
 2362TIP3    H128645   0.263   5.579   1.747
 2362TIP3    H228646   0.227   5.518   1.881
 2363TIP3   OH228647   2.593   0.631   6.217
 2363TIP3    H128648   2.599   0.570   6.143
 2363TIP3    H228649   2.500   0.629   6.242
 2364TIP3   OH228650   2.591   1.750   1.601
 2364TIP3    H128651   2.521   1.773   1.662
 2364TIP3    H228652   2.665   1.727   1.657
 2365TIP3   OH228653   4.248   4.363   1.244
 2365TIP3    H128654   4.224   4.453   1.222
 2365TIP3    H228655   4.172   4.310   1.219
 2366TIP3   OH228656   6.422   6.144   0.770
 2366TIP3    H128657   6.367   6.065   0.771
 2366TIP3    H228658   6.441   6.160   0.863
 2367TIP3   OH228659   3.385   0.772   6.554
 2367TIP3    H128660   3.362   0.685   6.523
 2367TIP3    H228661   3.305   0.823   6.541
 2368TIP3   OH228662   2.018   3.483   0.599
 2368TIP3    H128663   1.996   3.562   0.549
 2368TIP3    H228664   2.099   3.451   0.560
 2369TIP3   OH228665   1.033   5.728   1.331
 2369TIP3    H128666   0.990   5.650   1.365
 2369TIP3    H228667   0.968   5.770   1.275
 2370TIP3   OH228668   1.804   5.072   2.181
 2370TIP3    H128669   1.728   5.117   2.218
 2370TIP3    H228670   1.880   5.116   2.220
 2371TIP3   OH228671   5.077   4.650   1.161
 2371TIP3    H128672   5.143   4.698   1.211
 2371TIP3    H228673   5.082   4.688   1.073
 2372TIP3   OH228674   3.230   3.730   7.430
 2372TIP3    H128675   3.239   3.763   7.519
 2372TIP3    H228676   3.320   3.728   7.396
 2373TIP3   OH228677   6.610   2.591   0.165
 2373TIP3    H128678   6.581   2.543   0.087
 2373TIP3    H228679   6.529   2.609   0.214
 2374TIP3   OH228680   5.577   3.246   1.488
 2374TIP3    H128681   5.534   3.195   1.557
 2374TIP3    H228682   5.663   3.205   1.478
 2375TIP3   OH228683   3.457   2.052   8.733
 2375TIP3    H128684   3.418   2.065   0.085
 2375TIP3    H228685   3.426   2.126   8.681
 2376TIP3   OH228686   4.570   1.429   2.375
 2376TIP3    H128687   4.504   1.375   2.419
 2376TIP3    H228688   4.654   1.393   2.403
 2377TIP3   OH228689   2.733   1.846   7.343
 2377TIP3    H128690   2.730   1.880   7.433
 2377TIP3    H228691   2.689   1.761   7.349
 2378TIP3   OH228692   1.221   3.076   1.575
 2378TIP3    H128693   1.300   3.051   1.623
 2378TIP3    H228694   1.240   3.056   1.483
 2379TIP3   OH228695   6.267   2.403   7.331
 2379TIP3    H128696   6.205   2.411   7.405
 2379TIP3    H228697   6.214   2.369   7.259
 2380TIP3   OH228698   2.228   5.940   0.186
 2380TIP3    H128699   2.192   5.878   0.251
 2380TIP3    H228700   2.225   5.892   0.103
 2381TIP3   OH228701   1.466   4.662   1.864
 2381TIP3    H128702   1.380   4.701   1.879
 2381TIP3    H228703   1.497   4.639   1.952
 2382TIP3   OH228704   5.120   3.324   0.540
 2382TIP3    H128705   5.145   3.399   0.485
 2382TIP3    H228706   5.174   3.333   0.619
 2383TIP3   OH228707   6.456   1.134   0.600
 2383TIP3    H128708   6.514   1.066   0.631
 2383TIP3    H228709   6.442   1.191   0.675
 2384TIP3   OH228710   4.064   4.506   2.432
 2384TIP3    H128711   4.076   4.552   2.515
 2384TIP3    H228712   4.137   4.443   2.429
 2385TIP3   OH228713   4.227   0.176   1.261
 2385TIP3    H128714   4.149   0.127   1.286
 2385TIP3    H228715   4.208   0.266   1.286
 2386TIP3   OH228716   5.876   0.838   0.203
 2386TIP3    H128717   5.827   0.844   0.285
 2386TIP3    H228718   5.957   0.886   0.221
 2387TIP3   OH228719   4.462   3.037   2.268
 2387TIP3    H128720   4.384   2.988   2.244
 2387TIP3    H228721   4.429   3.124   2.293
 2388TIP3   OH228722   2.702   6.437   8.527
 2388TIP3    H128723   2.733   6.393   8.449
 2388TIP3    H228724   2.781   6.464   8.573
 2389TIP3   OH228725   2.071   0.971   6.562
 2389TIP3    H128726   2.116   0.888   6.546
 2389TIP3    H228727   1.985   0.960   6.521
 2390TIP3   OH228728   1.293   5.240   0.916
 2390TIP3    H128729   1.264   5.163   0.868
 2390TIP3    H228730   1.377   5.215   0.953
 2391TIP3   OH228731   1.032   0.571   0.235
 2391TIP3    H128732   0.938   0.557   0.219
 2391TIP3    H228733   1.060   0.630   0.165
 2392TIP3   OH228734   3.284   3.253   1.942
 2392TIP3    H128735   3.269   3.202   2.021
 2392TIP3    H228736   3.367   3.221   1.908
 2393TIP3   OH228737   0.903   4.940   1.821
 2393TIP3    H128738   0.965   4.982   1.881
 2393TIP3    H228739   0.863   4.871   1.873
 2394TIP3   OH228740   4.797   2.352   8.285
 2394TIP3    H128741   4.852   2.301   8.226
 2394TIP3    H228742   4.709   2.344   8.247
 2395TIP3   OH228743   4.221   5.358   8.497
 2395TIP3    H128744   4.131   5.357   8.528
 2395TIP3    H228745   4.215   5.340   8.403
 2396TIP3   OH228746   4.720   6.134   6.964
 2396TIP3    H128747   4.737   6.199   7.033
 2396TIP3    H228748   4.640   6.165   6.921
 2397TIP3   OH228749   4.786   2.148   7.142
 2397TIP3    H128750   4.857   2.085   7.157
 2397TIP3    H228751   4.739   2.113   7.067
 2398TIP3   OH228752   5.735   6.646   1.186
 2398TIP3    H128753   5.730   6.550   1.180
 2398TIP3    H228754   5.680   6.668   1.261
 2399TIP3   OH228755   3.207   2.920   7.151
 2399TIP3    H128756   3.200   2.965   7.235
 2399TIP3    H228757   3.203   2.990   7.086
 2400TIP3   OH228758   1.674   6.365   0.158
 2400TIP3    H128759   1.698   6.284   0.113
 2400TIP3    H228760   1.753   6.389   0.207
 2401TIP3   OH228761   1.335   0.248   7.048
 2401TIP3    H128762   1.319   0.339   7.076
 2401TIP3    H228763   1.353   0.201   7.129
 2402TIP3   OH228764   3.378   0.379   0.662
 2402TIP3    H128765   3.296   0.332   0.646
 2402TIP3    H228766   3.439   0.345   0.596
 2403TIP3   OH228767   2.604   3.522   7.832
 2403TIP3    H128768   2.584   3.492   7.921
 2403TIP3    H228769   2.591   3.616   7.835
 2404TIP3   OH228770   1.330   1.289   7.591
 2404TIP3    H128771   1.375   1.301   7.507
 2404TIP3    H228772   1.329   1.376   7.630
 2405TIP3   OH228773   6.258   6.267   0.346
 2405TIP3    H128774   6.353   6.277   0.340
 2405TIP3    H228775   6.243   6.172   0.347
 2406TIP3   OH228776   5.103   5.714   6.839
 2406TIP3    H128777   5.060   5.743   6.919
 2406TIP3    H228778   5.158   5.788   6.813
 2407TIP3   OH228779   4.490   4.278   0.822
 2407TIP3    H128780   4.526   4.213   0.883
 2407TIP3    H228781   4.529   4.256   0.738
 2408TIP3   OH228782   2.645   3.623   0.971
 2408TIP3    H128783   2.598   3.646   1.051
 2408TIP3    H228784   2.633   3.529   0.961
 2409TIP3   OH228785   6.528   2.546   7.350
 2409TIP3    H128786   6.440   2.518   7.325
 2409TIP3    H228787   6.516   2.591   7.434
 2410TIP3   OH228788   0.710   5.036   7.528
 2410TIP3    H128789   0.735   5.120   7.490
 2410TIP3    H228790   0.654   4.995   7.461
 2411TIP3   OH228791   6.175   4.838   1.772
 2411TIP3    H128792   6.225   4.769   1.728
 2411TIP3    H228793   6.109   4.791   1.824
 2412TIP3   OH228794   1.989   3.389   7.572
 2412TIP3    H128795   2.083   3.376   7.562
 2412TIP3    H228796   1.981   3.468   7.625
 2413TIP3   OH228797   3.817   1.175   0.309
 2413TIP3    H128798   3.788   1.085   0.324
 2413TIP3    H228799   3.826   1.213   0.396
 2414TIP3   OH228800   3.505   4.916   8.323
 2414TIP3    H128801   3.464   4.885   8.242
 2414TIP3    H228802   3.582   4.965   8.294
 2415TIP3   OH228803   3.395   5.267   0.592
 2415TIP3    H128804   3.400   5.266   0.688
 2415TIP3    H228805   3.342   5.344   0.572
 2416TIP3   OH228806   0.600   6.050   8.088
 2416TIP3    H128807   0.645   6.042   8.172
 2416TIP3    H228808   0.669   6.040   8.023
 2417TIP3   OH228809   0.595   4.316   8.162
 2417TIP3    H128810   0.679   4.273   8.176
 2417TIP3    H228811   0.591   4.384   8.230
 2418TIP3   OH228812   4.474   1.293   7.345
 2418TIP3    H128813   4.534   1.311   7.272
 2418TIP3    H228814   4.479   1.198   7.357
 2419TIP3   OH228815   3.438   2.810   1.270
 2419TIP3    H128816   3.524   2.770   1.257
 2419TIP3    H228817   3.446   2.897   1.230
 2420TIP3   OH228818   2.419   1.477   8.321
 2420TIP3    H128819   2.459   1.470   8.234
 2420TIP3    H228820   2.335   1.431   8.312
 2421TIP3   OH228821   4.530   6.547   0.651
 2421TIP3    H128822   4.530   6.483   0.580
 2421TIP3    H228823   4.518   6.632   0.608
 2422TIP3   OH228824   2.281   2.577   7.977
 2422TIP3    H128825   2.224   2.514   8.021
 2422TIP3    H228826   2.243   2.587   7.890
 2423TIP3   OH228827   3.391   3.984   8.055
 2423TIP3    H128828   3.405   3.960   8.146
 2423TIP3    H228829   3.436   3.916   8.004
 2424TIP3   OH228830   0.540   5.518   1.710
 2424TIP3    H128831   0.564   5.430   1.680
 2424TIP3    H228832   0.456   5.506   1.753
 2425TIP3   OH228833   1.019   5.391   1.587
 2425TIP3    H128834   1.111   5.372   1.604
 2425TIP3    H228835   1.002   5.350   1.502
 2426TIP3   OH228836   6.473   2.311   2.196
 2426TIP3    H128837   6.493   2.234   2.142
 2426TIP3    H228838   6.518   2.294   2.279
 2427TIP3   OH228839   2.832   6.520   8.076
 2427TIP3    H128840   2.854   6.610   8.100
 2427TIP3    H228841   2.913   6.485   8.037
 2428TIP3   OH228842   4.747   3.402   6.621
 2428TIP3    H128843   4.735   3.316   6.582
 2428TIP3    H228844   4.743   3.463   6.547
 2429TIP3   OH228845   1.400   5.464   8.648
 2429TIP3    H128846   1.387   5.430   8.559
 2429TIP3    H228847   1.452   5.543   8.636
 2430TIP3   OH228848   3.817   2.611   8.282
 2430TIP3    H128849   3.831   2.551   8.355
 2430TIP3    H228850   3.723   2.631   8.285
 2431TIP3   OH228851   3.040   4.644   6.980
 2431TIP3    H128852   3.011   4.657   6.890
 2431TIP3    H228853   3.014   4.554   7.001
 2432TIP3   OH228854   5.278   6.376   8.580
 2432TIP3    H128855   5.362   6.343   8.546
 2432TIP3    H228856   5.254   6.313   8.649
 2433TIP3   OH228857   1.947   6.302   0.027
 2433TIP3    H128858   2.031   6.293   0.072
 2433TIP3    H228859   1.957   6.381   8.708
 2434TIP3   OH228860   4.509   5.950   0.712
 2434TIP3    H128861   4.451   6.015   0.753
 2434TIP3    H228862   4.482   5.867   0.750
 2435TIP3   OH228863   5.121   2.846   7.811
 2435TIP3    H128864   5.157   2.879   7.729
 2435TIP3    H228865   5.176   2.772   7.834
 2436TIP3   OH228866   3.243   3.072   6.696
 2436TIP3    H128867   3.307   3.039   6.633
 2436TIP3    H228868   3.222   3.160   6.665
 2437TIP3   OH228869   2.340   0.873   6.834
 2437TIP3    H128870   2.268   0.929   6.863
 2437TIP3    H228871   2.306   0.784   6.843
 2438TIP3   OH228872   5.005   3.822   8.349
 2438TIP3    H128873   5.074   3.756   8.340
 2438TIP3    H228874   5.031   3.874   8.426
 2439TIP3   OH228875   1.242   2.583   2.075
 2439TIP3    H128876   1.253   2.671   2.039
 2439TIP3    H228877   1.220   2.597   2.167
 2440TIP3   OH228878   4.727   3.083   0.307
 2440TIP3    H128879   4.679   3.135   0.371
 2440TIP3    H228880   4.812   3.067   0.347
 2441TIP3   OH228881   1.577   5.152   2.297
 2441TIP3    H128882   1.544   5.065   2.316
 2441TIP3    H228883   1.504   5.211   2.318
 2442TIP3   OH228884   1.351   2.456   0.063
 2442TIP3    H128885   1.269   2.471   0.111
 2442TIP3    H228886   1.413   2.517   0.103
 2443TIP3   OH228887   1.960   0.663   0.945
 2443TIP3    H128888   1.991   0.733   0.887
 2443TIP3    H228889   2.000   0.584   0.910
 2444TIP3   OH228890   4.882   0.397   7.043
 2444TIP3    H128891   4.922   0.344   7.112
 2444TIP3    H228892   4.948   0.462   7.021
 2445TIP3   OH228893   6.401   5.596   7.925
 2445TIP3    H128894   6.493   5.576   7.940
 2445TIP3    H228895   6.383   5.671   7.982
 2446TIP3   OH228896   5.902   1.273   0.951
 2446TIP3    H128897   5.882   1.187   0.987
 2446TIP3    H228898   5.820   1.303   0.912
 2447TIP3   OH228899   4.353   1.844   8.637
 2447TIP3    H128900   4.385   1.799   8.715
 2447TIP3    H228901   4.267   1.876   8.662
 2448TIP3   OH228902   0.036   4.034   2.354
 2448TIP3    H128903   0.030   3.957   2.298
 2448TIP3    H228904   6.787   4.065   2.361
 2449TIP3   OH228905   3.617   4.664   1.361
 2449TIP3    H128906   3.678   4.644   1.290
 2449TIP3    H228907   3.673   4.695   1.432
 2450TIP3   OH228908   3.927   3.833   7.091
 2450TIP3    H128909   3.906   3.908   7.036
 2450TIP3    H228910   3.845   3.784   7.097
 2451TIP3   OH228911   2.067   1.017   2.799
 2451TIP3    H128912   2.135   0.955   2.825
 2451TIP3    H228913   2.113   1.082   2.746
 2452TIP3   OH228914   3.320   2.757   7.352
 2452TIP3    H128915   3.337   2.841   7.396
 2452TIP3    H228916   3.275   2.781   7.271
 2453TIP3   OH228917   4.728   5.807   8.519
 2453TIP3    H128918   4.776   5.877   8.475
 2453TIP3    H228919   4.672   5.853   8.582
 2454TIP3   OH228920   3.407   0.276   1.626
 2454TIP3    H128921   3.338   0.227   1.581
 2454TIP3    H228922   3.396   0.366   1.595
 2455TIP3   OH228923   6.347   3.615   2.549
 2455TIP3    H128924   6.308   3.567   2.475
 2455TIP3    H228925   6.440   3.622   2.526
 2456TIP3   OH228926   2.044   5.673   8.410
 2456TIP3    H128927   1.949   5.682   8.408
 2456TIP3    H228928   2.076   5.763   8.415
 2457TIP3   OH228929   4.050   4.681   1.346
 2457TIP3    H128930   4.122   4.664   1.284
 2457TIP3    H228931   4.021   4.769   1.324
 2458TIP3   OH228932   0.132   0.481   1.009
 2458TIP3    H128933   0.077   0.458   1.084
 2458TIP3    H228934   0.078   0.459   0.933
 2459TIP3   OH228935   4.605   3.621   7.941
 2459TIP3    H128936   4.686   3.610   7.991
 2459TIP3    H228937   4.595   3.539   7.893
 2460TIP3   OH228938   1.149   0.885   2.019
 2460TIP3    H128939   1.202   0.955   2.057
 2460TIP3    H228940   1.211   0.832   1.969
 2461TIP3   OH228941   2.844   0.741   8.466
 2461TIP3    H128942   2.808   0.826   8.441
 2461TIP3    H228943   2.872   0.702   8.383
 2462TIP3   OH228944   1.709   4.483   2.374
 2462TIP3    H128945   1.729   4.472   2.281
 2462TIP3    H228946   1.617   4.458   2.382
 2463TIP3   OH228947   0.181   4.502   8.414
 2463TIP3    H128948   0.175   4.457   8.330
 2463TIP3    H228949   0.214   4.436   8.475
 2464TIP3   OH228950   1.428   3.080   8.356
 2464TIP3    H128951   1.337   3.089   8.382
 2464TIP3    H228952   1.468   3.165   8.377
 2465TIP3   OH228953   4.319   0.422   1.912
 2465TIP3    H128954   4.303   0.329   1.898
 2465TIP3    H228955   4.248   0.450   1.970
 2466TIP3   OH228956   3.186   5.921   0.547
 2466TIP3    H128957   3.232   5.942   0.628
 2466TIP3    H228958   3.099   5.893   0.576
 2467TIP3   OH228959   1.552   2.595   7.732
 2467TIP3    H128960   1.566   2.550   7.815
 2467TIP3    H228961   1.630   2.648   7.720
 2468TIP3   OH228962   4.246   2.540   0.519
 2468TIP3    H128963   4.319   2.540   0.457
 2468TIP3    H228964   4.287   2.543   0.605
 2469TIP3   OH228965   5.080   5.107   1.806
 2469TIP3    H128966   5.079   5.170   1.735
 2469TIP3    H228967   4.993   5.112   1.845
 2470TIP3   OH228968   5.207   5.395   0.657
 2470TIP3    H128969   5.231   5.303   0.652
 2470TIP3    H228970   5.243   5.425   0.740
 2471TIP3   OH228971   4.412   5.178   1.349
 2471TIP3    H128972   4.477   5.111   1.368
 2471TIP3    H228973   4.444   5.256   1.393
 2472TIP3   OH228974   3.462   6.425   8.521
 2472TIP3    H128975   3.485   6.341   8.561
 2472TIP3    H228976   3.531   6.441   8.457
 2473TIP3   OH228977   1.287   1.517   0.136
 2473TIP3    H128978   1.260   1.550   0.050
 2473TIP3    H228979   1.242   1.433   0.145
 2474TIP3   OH228980   5.519   3.713   8.465
 2474TIP3    H128981   5.540   3.735   8.375
 2474TIP3    H228982   5.446   3.770   8.488
 2475TIP3   OH228983   6.606   2.913   0.608
 2475TIP3    H128984   6.662   2.931   0.684
 2475TIP3    H228985   6.632   2.826   0.579
 2476TIP3   OH228986   5.784   0.114   7.965
 2476TIP3    H128987   5.715   0.113   7.898
 2476TIP3    H228988   5.736   0.112   8.048
 2477TIP3   OH228989   0.264   3.917   6.770
 2477TIP3    H128990   0.348   3.964   6.778
 2477TIP3    H228991   0.250   3.908   6.676
 2478TIP3   OH228992   1.295   5.944   0.898
 2478TIP3    H128993   1.374   5.898   0.926
 2478TIP3    H228994   1.228   5.875   0.895
 2479TIP3   OH228995   1.574   2.692   0.440
 2479TIP3    H128996   1.521   2.771   0.431
 2479TIP3    H228997   1.575   2.675   0.534
 2480TIP3   OH228998   3.080   0.013   0.896
 2480TIP3    H128999   2.990   0.003   0.865
 2480TIP3    H229000   3.127   6.779   0.859
 2481TIP3   OH229001   4.982   5.995   7.502
 2481TIP3    H129002   4.916   6.059   7.475
 2481TIP3    H229003   5.024   6.034   7.579
 2482TIP3   OH229004   2.476   2.085   7.876
 2482TIP3    H129005   2.539   2.111   7.943
 2482TIP3    H229006   2.391   2.107   7.913
 2483TIP3   OH229007   6.008   6.762   8.191
 2483TIP3    H129008   5.966   6.729   8.271
 2483TIP3    H229009   6.073   6.824   8.223
 2484TIP3   OH229010   6.246   4.714   7.879
 2484TIP3    H129011   6.296   4.633   7.866
 2484TIP3    H229012   6.155   4.687   7.876
 2485TIP3   OH229013   1.319   6.358   7.305
 2485TIP3    H129014   1.291   6.323   7.390
 2485TIP3    H229015   1.328   6.452   7.320
 2486TIP3   OH229016   4.470   1.808   7.632
 2486TIP3    H129017   4.401   1.821   7.566
 2486TIP3    H229018   4.454   1.877   7.697
 2487TIP3   OH229019   2.072   1.324   8.581
 2487TIP3    H129020   2.165   1.323   8.602
 2487TIP3    H229021   2.065   1.282   8.495
 2488TIP3   OH229022   5.815   0.032   7.483
 2488TIP3    H129023   5.790   0.124   7.493
 2488TIP3    H229024   5.744   6.824   7.525
 2489TIP3   OH229025   0.550   2.154   8.681
 2489TIP3    H129026   0.551   2.061   8.657
 2489TIP3    H229027   0.467   2.166   8.727
 2490TIP3   OH229028   0.948   0.966   6.375
 2490TIP3    H129029   0.950   1.023   6.298
 2490TIP3    H229030   0.898   0.889   6.347
 2491TIP3   OH229031   2.066   1.435   7.809
 2491TIP3    H129032   2.100   1.464   7.894
 2491TIP3    H229033   2.128   1.471   7.745
 2492TIP3   OH229034   1.515   1.124   1.569
 2492TIP3    H129035   1.480   1.211   1.554
 2492TIP3    H229036   1.472   1.094   1.648
 2493TIP3   OH229037   4.676   3.197   7.132
 2493TIP3    H129038   4.754   3.245   7.105
 2493TIP3    H229039   4.610   3.220   7.067
 2494TIP3   OH229040   2.860   3.657   0.415
 2494TIP3    H129041   2.820   3.700   0.339
 2494TIP3    H229042   2.806   3.685   0.490
 2495TIP3   OH229043   2.926   3.814   1.049
 2495TIP3    H129044   2.928   3.899   1.005
 2495TIP3    H229045   2.896   3.753   0.981
 2496TIP3   OH229046   3.541   0.388   0.419
 2496TIP3    H129047   3.605   0.335   0.467
 2496TIP3    H229048   3.543   0.352   0.330
 2497TIP3   OH229049   1.999   2.735   1.284
 2497TIP3    H129050   1.925   2.771   1.331
 2497TIP3    H229051   1.982   2.756   1.192
 2498TIP3   OH229052   0.640   3.320   1.810
 2498TIP3    H129053   0.638   3.304   1.904
 2498TIP3    H229054   0.695   3.398   1.799
 2499TIP3   OH229055   3.576   5.330   7.101
 2499TIP3    H129056   3.577   5.424   7.084
 2499TIP3    H229057   3.561   5.290   7.015
 2500TIP3   OH229058   4.089   3.264   1.205
 2500TIP3    H129059   4.028   3.312   1.150
 2500TIP3    H229060   4.145   3.216   1.144
 2501TIP3   OH229061   0.141   6.286   1.184
 2501TIP3    H129062   0.233   6.305   1.200
 2501TIP3    H229063   0.114   6.230   1.256
 2502TIP3   OH229064   0.907   2.036   6.345
 2502TIP3    H129065   0.848   1.974   6.387
 2502TIP3    H229066   0.877   2.122   6.373
 2503TIP3   OH229067   0.650   5.366   6.750
 2503TIP3    H129068   0.582   5.431   6.738
 2503TIP3    H229069   0.678   5.343   6.661
 2504TIP3   OH229070   0.757   3.172   8.455
 2504TIP3    H129071   0.802   3.168   8.539
 2504TIP3    H229072   0.782   3.090   8.410
 2505TIP3   OH229073   3.003   6.620   1.072
 2505TIP3    H129074   2.934   6.678   1.103
 2505TIP3    H229075   3.084   6.659   1.104
 2506TIP3   OH229076   6.373   3.585   6.390
 2506TIP3    H129077   6.368   3.489   6.395
 2506TIP3    H229078   6.285   3.615   6.413
 2507TIP3   OH229079   5.868   4.625   8.555
 2507TIP3    H129080   5.854   4.583   8.470
 2507TIP3    H229081   5.787   4.674   8.571
 2508TIP3   OH229082   6.066   3.312   6.705
 2508TIP3    H129083   6.004   3.248   6.670
 2508TIP3    H229084   6.071   3.380   6.639
 2509TIP3   OH229085   4.983   0.150   0.031
 2509TIP3    H129086   4.920   0.115   8.703
 2509TIP3    H229087   4.978   0.091   0.107
 2510TIP3   OH229088   0.708   5.930   1.933
 2510TIP3    H129089   0.649   5.890   1.869
 2510TIP3    H229090   0.677   5.899   2.018
 2511TIP3   OH229091   5.795   5.356   2.270
 2511TIP3    H129092   5.886   5.349   2.241
 2511TIP3    H229093   5.754   5.275   2.242
 2512TIP3   OH229094   1.431   1.038   1.855
 2512TIP3    H129095   1.526   1.031   1.864
 2512TIP3    H229096   1.406   1.107   1.917
 2513TIP3   OH229097   5.622   6.428   6.911
 2513TIP3    H129098   5.560   6.359   6.936
 2513TIP3    H229099   5.579   6.509   6.937
 2514TIP3   OH229100   2.490   0.007   1.751
 2514TIP3    H129101   2.561   0.068   1.729
 2514TIP3    H229102   2.528   6.786   1.812
 2515TIP3   OH229103   6.069   2.136   2.214
 2515TIP3    H129104   5.987   2.122   2.263
 2515TIP3    H229105   6.136   2.092   2.267
 2516TIP3   OH229106   3.800   4.137   8.454
 2516TIP3    H129107   3.708   4.154   8.435
 2516TIP3    H229108   3.805   4.137   8.549
 2517TIP3   OH229109   0.759   2.431   0.046
 2517TIP3    H129110   0.698   2.504   0.055
 2517TIP3    H229111   0.730   2.367   0.110
 2518TIP3   OH229112   0.066   3.316   8.313
 2518TIP3    H129113   0.113   3.400   8.312
 2518TIP3    H229114   0.121   3.259   8.366
 2519TIP3   OH229115   1.360   3.276   8.608
 2519TIP3    H129116   1.293   3.344   8.614
 2519TIP3    H229117   1.418   3.305   8.538
 2520TIP3   OH229118   1.546   1.924   7.351
 2520TIP3    H129119   1.621   1.911   7.292
 2520TIP3    H229120   1.524   1.837   7.383
 2521TIP3   OH229121   3.672   3.299   1.163
 2521TIP3    H129122   3.615   3.374   1.181
 2521TIP3    H229123   3.734   3.297   1.236
 2522TIP3   OH229124   2.180   5.001   7.408
 2522TIP3    H129125   2.146   5.047   7.332
 2522TIP3    H229126   2.103   4.963   7.451
 2523TIP3   OH229127   3.437   4.217   7.266
 2523TIP3    H129128   3.457   4.244   7.356
 2523TIP3    H229129   3.382   4.287   7.231
 2524TIP3   OH229130   6.401   5.209   6.833
 2524TIP3    H129131   6.312   5.242   6.819
 2524TIP3    H229132   6.397   5.118   6.804
 2525TIP3   OH229133   3.125   3.986   7.937
 2525TIP3    H129134   3.073   4.064   7.956
 2525TIP3    H229135   3.207   3.999   7.984
 2526TIP3   OH229136   5.141   1.548   6.603
 2526TIP3    H129137   5.072   1.498   6.560
 2526TIP3    H229138   5.215   1.543   6.544
 2527TIP3   OH229139   3.067   5.350   1.897
 2527TIP3    H129140   3.118   5.312   1.968
 2527TIP3    H229141   2.996   5.287   1.882
 2528TIP3   OH229142   6.272   0.212   8.581
 2528TIP3    H129143   6.257   0.271   8.656
 2528TIP3    H229144   6.197   0.227   8.523
 2529TIP3   OH229145   3.390   3.855   6.506
 2529TIP3    H129146   3.380   3.771   6.461
 2529TIP3    H229147   3.319   3.858   6.569
 2530TIP3   OH229148   5.386   4.082   7.742
 2530TIP3    H129149   5.459   4.050   7.688
 2530TIP3    H229150   5.311   4.082   7.683
 2531TIP3   OH229151   0.743   2.944   7.707
 2531TIP3    H129152   0.732   3.031   7.746
 2531TIP3    H229153   0.747   2.960   7.613
 2532TIP3   OH229154   6.547   1.228   8.326
 2532TIP3    H129155   6.546   1.144   8.281
 2532TIP3    H229156   6.639   1.243   8.347
 2533TIP3   OH229157   4.336   4.178   7.139
 2533TIP3    H129158   4.394   4.190   7.214
 2533TIP3    H229159   4.284   4.101   7.160
 2534TIP3   OH229160   5.744   3.481   7.920
 2534TIP3    H129161   5.763   3.417   7.851
 2534TIP3    H229162   5.688   3.546   7.877
 2535TIP3   OH229163   2.558   4.488   7.870
 2535TIP3    H129164   2.463   4.491   7.877
 2535TIP3    H229165   2.579   4.556   7.806
 2536TIP3   OH229166   3.182   2.010   7.046
 2536TIP3    H129167   3.256   2.038   6.992
 2536TIP3    H229168   3.133   1.950   6.990
 2537TIP3   OH229169   3.777   4.806   7.741
 2537TIP3    H129170   3.827   4.777   7.665
 2537TIP3    H229171   3.843   4.822   7.808
 2538TIP3   OH229172   0.212   5.366   8.151
 2538TIP3    H129173   0.282   5.431   8.150
 2538TIP3    H229174   0.243   5.297   8.091
 2539TIP3   OH229175   5.834   1.077   8.223
 2539TIP3    H129176   5.849   1.072   8.129
 2539TIP3    H229177   5.878   1.158   8.250
 2540TIP3   OH229178   1.087   3.671   6.736
 2540TIP3    H129179   1.023   3.692   6.805
 2540TIP3    H229180   1.084   3.576   6.728
 2541TIP3   OH229181   6.773   4.511   0.053
 2541TIP3    H129182   6.769   4.467   0.137
 2541TIP3    H229183   0.008   4.569   0.060
 2542TIP3   OH229184   3.902   5.133   7.007
 2542TIP3    H129185   3.968   5.095   6.950
 2542TIP3    H229186   3.826   5.149   6.951
 2543TIP3   OH229187   3.464   4.598   1.035
 2543TIP3    H129188   3.473   4.683   0.991
 2543TIP3    H229189   3.528   4.542   0.992
 2544TIP3   OH229190   2.136   6.509   0.777
 2544TIP3    H129191   2.197   6.436   0.776
 2544TIP3    H229192   2.085   6.500   0.696
 2545TIP3   OH229193   4.491   4.151   7.346
 2545TIP3    H129194   4.469   4.066   7.386
 2545TIP3    H229195   4.575   4.136   7.303
 2546TIP3   OH229196   2.984   3.030   1.929
 2546TIP3    H129197   3.013   3.048   1.840
 2546TIP3    H229198   3.014   3.105   1.980
 2547TIP3   OH229199   6.778   3.975   0.943
 2547TIP3    H129200   6.697   3.988   0.894
 2547TIP3    H229201   6.800   4.062   0.976
 2548TIP3   OH229202   6.586   3.342   0.391
 2548TIP3    H129203   6.531   3.407   0.434
 2548TIP3    H229204   6.636   3.391   0.326
 2549TIP3   OH229205   5.596   4.040   0.432
 2549TIP3    H129206   5.640   4.124   0.418
 2549TIP3    H229207   5.599   3.997   0.347
 2550TIP3   OH229208   1.150   1.675   7.580
 2550TIP3    H129209   1.095   1.638   7.511
 2550TIP3    H229210   1.148   1.770   7.565
 2551TIP3   OH229211   5.688   1.691   7.999
 2551TIP3    H129212   5.703   1.775   8.042
 2551TIP3    H229213   5.616   1.651   8.047
 2552TIP3   OH229214   0.757   1.947   7.436
 2552TIP3    H129215   0.803   1.870   7.403
 2552TIP3    H229216   0.750   2.005   7.361
 2553TIP3   OH229217   0.105   2.569   7.439
 2553TIP3    H129218   0.173   2.531   7.384
 2553TIP3    H229219   0.031   2.585   7.379
 2554TIP3   OH229220   2.568   6.329   0.880
 2554TIP3    H129221   2.567   6.311   0.974
 2554TIP3    H229222   2.662   6.331   0.858
 2555TIP3   OH229223   4.991   2.716   1.108
 2555TIP3    H129224   5.050   2.645   1.081
 2555TIP3    H229225   4.915   2.671   1.146
 2556TIP3   OH229226   0.683   1.723   7.068
 2556TIP3    H129227   0.775   1.737   7.088
 2556TIP3    H229228   0.670   1.762   6.981
 2557TIP3   OH229229   4.337   1.287   2.438
 2557TIP3    H129230   4.254   1.241   2.441
 2557TIP3    H229231   4.385   1.246   2.366
 2558TIP3   OH229232   3.193   3.646   1.160
 2558TIP3    H129233   3.108   3.666   1.200
 2558TIP3    H229234   3.224   3.569   1.207
 2559TIP3   OH229235   1.776   4.105   1.014
 2559TIP3    H129236   1.752   4.178   1.072
 2559TIP3    H229237   1.693   4.068   0.985
 2560TIP3   OH229238   0.223   4.624   1.892
 2560TIP3    H129239   0.286   4.670   1.837
 2560TIP3    H229240   0.276   4.566   1.946
 2561TIP3   OH229241   0.714   1.750   0.641
 2561TIP3    H129242   0.768   1.804   0.698
 2561TIP3    H229243   0.624   1.771   0.666
 2562TIP3   OH229244   3.785   0.271   6.760
 2562TIP3    H129245   3.875   0.292   6.783
 2562TIP3    H229246   3.740   0.260   6.844
 2563TIP3   OH229247   4.528   0.554   6.288
 2563TIP3    H129248   4.548   0.566   6.381
 2563TIP3    H229249   4.492   0.638   6.260
 2564TIP3   OH229250   6.438   5.035   1.742
 2564TIP3    H129251   6.384   5.078   1.675
 2564TIP3    H229252   6.398   5.060   1.825
 2565TIP3   OH229253   1.025   6.775   0.909
 2565TIP3    H129254   1.061   6.728   0.985
 2565TIP3    H229255   1.007   6.706   0.845
 2566TIP3   OH229256   4.746   3.680   2.244
 2566TIP3    H129257   4.807   3.656   2.174
 2566TIP3    H229258   4.678   3.731   2.199
 2567TIP3   OH229259   0.236   3.754   0.439
 2567TIP3    H129260   0.292   3.831   0.426
 2567TIP3    H229261   0.182   3.750   0.359
 2568TIP3   OH229262   2.043   2.994   7.610
 2568TIP3    H129263   2.122   3.009   7.559
 2568TIP3    H229264   2.004   2.916   7.570
 2569TIP3   OH229265   6.506   3.150   6.637
 2569TIP3    H129266   6.551   3.066   6.649
 2569TIP3    H229267   6.459   3.165   6.719
 2570TIP3   OH229268   6.248   5.301   8.573
 2570TIP3    H129269   6.240   5.314   8.668
 2570TIP3    H229270   6.302   5.222   8.565
 2571TIP3   OH229271   6.762   2.610   7.217
 2571TIP3    H129272   6.759   2.587   7.124
 2571TIP3    H229273   6.682   2.574   7.254
 2572TIP3   OH229274   6.055   1.749   6.973
 2572TIP3    H129275   6.118   1.821   6.982
 2572TIP3    H229276   6.053   1.731   6.879
 2573TIP3   OH229277   5.135   3.494   8.661
 2573TIP3    H129278   5.165   3.411   8.626
 2573TIP3    H229279   5.149   3.557   8.590
 2574TIP3   OH229280   3.303   6.279   6.949
 2574TIP3    H129281   3.237   6.295   6.882
 2574TIP3    H229282   3.379   6.331   6.920
 2575TIP3   OH229283   2.117   3.269   8.616
 2575TIP3    H129284   2.198   3.318   8.602
 2575TIP3    H229285   2.048   3.327   8.582
 2576TIP3   OH229286   5.341   4.514   0.276
 2576TIP3    H129287   5.429   4.505   0.311
 2576TIP3    H229288   5.350   4.495   0.182
 2577TIP3   OH229289   1.889   5.574   7.708
 2577TIP3    H129290   1.814   5.517   7.690
 2577TIP3    H229291   1.863   5.623   7.787
 2578TIP3   OH229292   3.148   2.606   8.237
 2578TIP3    H129293   3.086   2.619   8.308
 2578TIP3    H229294   3.100   2.553   8.173
 2579TIP3   OH229295   6.500   6.656   7.805
 2579TIP3    H129296   6.493   6.674   7.712
 2579TIP3    H229297   6.454   6.573   7.817
 2580TIP3   OH229298   2.506   4.237   8.574
 2580TIP3    H129299   2.532   4.328   8.562
 2580TIP3    H229300   2.528   4.217   8.665
 2581TIP3   OH229301   5.868   1.687   0.383
 2581TIP3    H129302   5.866   1.608   0.436
 2581TIP3    H229303   5.906   1.753   0.440
 2582TIP3   OH229304   1.286   5.591   2.207
 2582TIP3    H129305   1.264   5.680   2.182
 2582TIP3    H229306   1.374   5.598   2.245
 2583TIP3   OH229307   3.912   1.693   7.926
 2583TIP3    H129308   3.850   1.621   7.940
 2583TIP3    H229309   3.863   1.757   7.875
 2584TIP3   OH229310   3.971   3.142   7.319
 2584TIP3    H129311   3.960   3.199   7.395
 2584TIP3    H229312   4.002   3.059   7.355
 2585TIP3   OH229313   3.168   0.704   7.609
 2585TIP3    H129314   3.163   0.695   7.514
 2585TIP3    H229315   3.083   0.741   7.635
 2586TIP3   OH229316   2.269   5.154   8.045
 2586TIP3    H129317   2.296   5.123   7.958
 2586TIP3    H229318   2.292   5.247   8.046
 2587TIP3   OH229319   4.904   4.250   1.704
 2587TIP3    H129320   4.949   4.256   1.788
 2587TIP3    H229321   4.887   4.156   1.693
 2588TIP3   OH229322   5.833   6.485   8.356
 2588TIP3    H129323   5.794   6.569   8.332
 2588TIP3    H229324   5.827   6.482   8.451
 2589TIP3   OH229325   0.478   3.948   7.841
 2589TIP3    H129326   0.452   3.860   7.870
 2589TIP3    H229327   0.475   4.002   7.920
 2590TIP3   OH229328   0.023   0.053   7.760
 2590TIP3    H129329   6.779   0.042   7.718
 2590TIP3    H229330   0.087   0.027   7.694
 2591TIP3   OH229331   2.034   0.508   1.612
 2591TIP3    H129332   1.951   0.543   1.579
 2591TIP3    H229333   2.088   0.585   1.627
 2592TIP3   OH229334   6.040   3.785   0.107
 2592TIP3    H129335   5.959   3.755   0.149
 2592TIP3    H229336   6.109   3.734   0.148
 2593TIP3   OH229337   2.215   6.707   7.281
 2593TIP3    H129338   2.122   6.698   7.303
 2593TIP3    H229339   2.215   6.729   7.187
 2594TIP3   OH229340   1.033   5.954   8.333
 2594TIP3    H129341   1.025   6.050   8.338
 2594TIP3    H229342   1.053   5.928   8.423
 2595TIP3   OH229343   3.233   2.293   7.694
 2595TIP3    H129344   3.153   2.275   7.743
 2595TIP3    H229345   3.251   2.212   7.647
 2596TIP3   OH229346   6.368   4.549   8.355
 2596TIP3    H129347   6.427   4.562   8.429
 2596TIP3    H229348   6.338   4.458   8.364
 2597TIP3   OH229349   0.576   0.110   1.614
 2597TIP3    H129350   0.515   0.036   1.610
 2597TIP3    H229351   0.578   0.134   1.707
 2598TIP3   OH229352   3.182   2.195   2.748
 2598TIP3    H129353   3.214   2.273   2.704
 2598TIP3    H229354   3.089   2.213   2.764
 2599TIP3   OH229355   5.407   4.327   1.433
 2599TIP3    H129356   5.425   4.293   1.520
 2599TIP3    H229357   5.327   4.282   1.405
 2600TIP3   OH229358   0.734   3.759   0.050
 2600TIP3    H129359   0.662   3.730   0.105
 2600TIP3    H229360   0.703   3.747   8.694
 2601TIP3   OH229361   6.436   0.299   8.350
 2601TIP3    H129362   6.377   0.265   8.418
 2601TIP3    H229363   6.511   0.239   8.352
 2602TIP3   OH229364   4.762   1.093   8.468
 2602TIP3    H129365   4.789   1.047   8.389
 2602TIP3    H229366   4.702   1.032   8.511
 2603TIP3   OH229367   3.465   2.061   6.869
 2603TIP3    H129368   3.508   2.025   6.947
 2603TIP3    H229369   3.469   1.989   6.805
 2604TIP3   OH229370   2.559   3.613   1.406
 2604TIP3    H129371   2.529   3.522   1.417
 2604TIP3    H229372   2.544   3.632   1.314
 2605TIP3   OH229373   3.839   6.373   8.056
 2605TIP3    H129374   3.837   6.457   8.103
 2605TIP3    H229375   3.868   6.396   7.968
 2606TIP3   OH229376   2.444   0.297   1.812
 2606TIP3    H129377   2.476   0.249   1.888
 2606TIP3    H229378   2.518   0.353   1.787
 2607TIP3   OH229379   1.166   1.693   6.830
 2607TIP3    H129380   1.240   1.653   6.786
 2607TIP3    H229381   1.090   1.671   6.776
 2608TIP3   OH229382   0.804   0.008   8.399
 2608TIP3    H129383   0.889   0.030   8.361
 2608TIP3    H229384   0.813   6.758   8.429
 2609TIP3   OH229385   0.732   4.195   7.140
 2609TIP3    H129386   0.777   4.232   7.216
 2609TIP3    H229387   0.684   4.269   7.102
 2610TIP3   OH229388   3.431   1.847   6.695
 2610TIP3    H129389   3.389   1.773   6.651
 2610TIP3    H229390   3.522   1.819   6.708
 2611TIP3   OH229391   6.579   0.963   8.158
 2611TIP3    H129392   6.646   0.915   8.207
 2611TIP3    H229393   6.601   0.949   8.066
 2612TIP3   OH229394   1.625   3.273   0.972
 2612TIP3    H129395   1.675   3.239   1.046
 2612TIP3    H229396   1.691   3.292   0.905
 2613TIP3   OH229397   4.431   2.589   0.319
 2613TIP3    H129398   4.395   2.632   0.242
 2613TIP3    H229399   4.523   2.617   0.321
 2614TIP3   OH229400   6.429   1.940   1.144
 2614TIP3    H129401   6.516   1.980   1.137
 2614TIP3    H229402   6.369   2.014   1.136
 2615TIP3   OH229403   1.600   5.320   6.361
 2615TIP3    H129404   1.565   5.293   6.446
 2615TIP3    H229405   1.638   5.240   6.325
 2616TIP3   OH229406   2.601   1.655   1.333
 2616TIP3    H129407   2.513   1.619   1.326
 2616TIP3    H229408   2.609   1.682   1.425
 2617TIP3   OH229409   0.071   5.770   7.891
 2617TIP3    H129410   0.035   5.856   7.909
 2617TIP3    H229411   0.124   5.782   7.812
 2618TIP3   OH229412   2.250   3.833   7.566
 2618TIP3    H129413   2.322   3.893   7.544
 2618TIP3    H229414   2.198   3.827   7.486
 2619TIP3   OH229415   4.449   3.783   2.293
 2619TIP3    H129416   4.443   3.876   2.313
 2619TIP3    H229417   4.455   3.779   2.197
 2620TIP3   OH229418   3.015   6.149   7.692
 2620TIP3    H129419   2.982   6.177   7.777
 2620TIP3    H229420   3.089   6.207   7.674
 2621TIP3   OH229421   2.101   4.046   0.549
 2621TIP3    H129422   2.187   4.082   0.570
 2621TIP3    H229423   2.098   3.963   0.596
 2622TIP3   OH229424   5.348   5.092   1.245
 2622TIP3    H129425   5.363   5.185   1.228
 2622TIP3    H229426   5.372   5.081   1.337
 2623TIP3   OH229427   1.471   4.315   7.603
 2623TIP3    H129428   1.384   4.333   7.569
 2623TIP3    H229429   1.462   4.233   7.652
 2624TIP3   OH229430   0.694   4.776   2.157
 2624TIP3    H129431   0.642   4.760   2.236
 2624TIP3    H229432   0.722   4.867   2.164
 2625TIP3   OH229433   5.995   1.382   7.356
 2625TIP3    H129434   5.930   1.432   7.306
 2625TIP3    H229435   6.052   1.448   7.395
 2626TIP3   OH229436   0.535   1.379   1.295
 2626TIP3    H129437   0.525   1.364   1.389
 2626TIP3    H229438   0.542   1.474   1.286
 2627TIP3   OH229439   3.118   4.155   0.184
 2627TIP3    H129440   3.133   4.083   0.123
 2627TIP3    H229441   3.039   4.130   0.232
 2628TIP3   OH229442   3.215   4.651   0.806
 2628TIP3    H129443   3.175   4.622   0.724
 2628TIP3    H229444   3.306   4.668   0.784
 2629TIP3   OH229445   0.526   6.372   6.577
 2629TIP3    H129446   0.611   6.362   6.533
 2629TIP3    H229447   0.534   6.321   6.657
 2630TIP3   OH229448   3.640   1.950   8.009
 2630TIP3    H129449   3.605   1.863   8.029
 2630TIP3    H229450   3.570   1.993   7.960
 2631TIP3   OH229451   5.538   3.099   7.241
 2631TIP3    H129452   5.492   3.172   7.202
 2631TIP3    H229453   5.489   3.080   7.321
 2632TIP3   OH229454   1.101   0.675   1.701
 2632TIP3    H129455   1.147   0.758   1.711
 2632TIP3    H229456   1.010   0.694   1.726
 2633TIP3   OH229457   5.765   2.877   1.951
 2633TIP3    H129458   5.677   2.911   1.969
 2633TIP3    H229459   5.797   2.933   1.879
 2634TIP3   OH229460   6.574   2.978   0.118
 2634TIP3    H129461   6.646   2.918   0.100
 2634TIP3    H229462   6.592   3.011   0.206
 2635TIP3   OH229463   1.270   2.672   8.537
 2635TIP3    H129464   1.175   2.660   8.540
 2635TIP3    H229465   1.292   2.708   8.623
 2636TIP3   OH229466   5.241   3.093   0.338
 2636TIP3    H129467   5.165   3.039   0.316
 2636TIP3    H229468   5.204   3.179   0.357
 2637TIP3   OH229469   2.710   2.604   8.586
 2637TIP3    H129470   2.666   2.681   8.621
 2637TIP3    H229471   2.702   2.538   8.655
 2638TIP3   OH229472   5.863   2.474   1.369
 2638TIP3    H129473   5.788   2.532   1.379
 2638TIP3    H229474   5.867   2.425   1.451
 2639TIP3   OH229475   3.382   1.385   1.286
 2639TIP3    H129476   3.348   1.370   1.374
 2639TIP3    H229477   3.446   1.455   1.296
 2640TIP3   OH229478   6.665   6.518   1.402
 2640TIP3    H129479   6.629   6.590   1.454
 2640TIP3    H229480   6.641   6.439   1.451
 2641TIP3   OH229481   1.207   5.408   7.698
 2641TIP3    H129482   1.215   5.496   7.735
 2641TIP3    H229483   1.295   5.387   7.666
 2642TIP3   OH229484   5.943   3.789   0.450
 2642TIP3    H129485   5.923   3.796   0.543
 2642TIP3    H229486   5.994   3.867   0.430
 2643TIP3   OH229487   4.072   0.688   7.344
 2643TIP3    H129488   4.073   0.616   7.407
 2643TIP3    H229489   3.992   0.674   7.294
 2644TIP3   OH229490   4.777   6.631   8.082
 2644TIP3    H129491   4.777   6.544   8.042
 2644TIP3    H229492   4.691   6.667   8.061
 2645TIP3   OH229493   6.530   6.262   0.316
 2645TIP3    H129494   6.563   6.184   0.271
 2645TIP3    H229495   6.582   6.334   0.279
 2646TIP3   OH229496   4.925   4.205   8.075
 2646TIP3    H129497   4.874   4.286   8.064
 2646TIP3    H229498   4.863   4.144   8.114
 2647TIP3   OH229499   2.196   5.970   7.230
 2647TIP3    H129500   2.169   5.987   7.139
 2647TIP3    H229501   2.250   5.891   7.225
 2648TIP3   OH229502   1.588   3.625   8.384
 2648TIP3    H129503   1.640   3.608   8.306
 2648TIP3    H229504   1.652   3.644   8.452
 2649TIP3   OH229505   5.430   1.576   8.108
 2649TIP3    H129506   5.413   1.484   8.089
 2649TIP3    H229507   5.377   1.595   8.186
 2650TIP3   OH229508   5.316   1.508   1.674
 2650TIP3    H129509   5.265   1.587   1.693
 2650TIP3    H229510   5.300   1.490   1.582
 2651TIP3   OH229511   3.219   2.014   7.585
 2651TIP3    H129512   3.124   2.020   7.596
 2651TIP3    H229513   3.232   2.014   7.490
 2652TIP3   OH229514   2.950   3.184   1.420
 2652TIP3    H129515   3.031   3.150   1.381
 2652TIP3    H229516   2.886   3.114   1.405
 2653TIP3   OH229517   0.683   3.122   0.536
 2653TIP3    H129518   0.751   3.079   0.588
 2653TIP3    H229519   0.713   3.212   0.527
 2654TIP3   OH229520   5.189   6.072   7.680
 2654TIP3    H129521   5.254   6.014   7.719
 2654TIP3    H229522   5.237   6.152   7.661
 2655TIP3   OH229523   2.367   2.949   8.649
 2655TIP3    H129524   2.405   2.982   8.730
 2655TIP3    H229525   2.280   2.917   8.675
 2656TIP3   OH229526   4.809   5.824   1.005
 2656TIP3    H129527   4.755   5.753   0.972
 2656TIP3    H229528   4.885   5.826   0.947
 2657TIP3   OH229529   0.873   4.243   1.113
 2657TIP3    H129530   0.853   4.266   1.204
 2657TIP3    H229531   0.958   4.201   1.117
 2658TIP3   OH229532   5.845   1.538   6.991
 2658TIP3    H129533   5.935   1.567   7.006
 2658TIP3    H229534   5.794   1.619   6.996
 2659TIP3   OH229535   2.327   1.660   7.382
 2659TIP3    H129536   2.276   1.619   7.452
 2659TIP3    H229537   2.418   1.644   7.407
 2660TIP3   OH229538   4.423   0.387   0.967
 2660TIP3    H129539   4.458   0.420   0.884
 2660TIP3    H229540   4.344   0.438   0.983
 2661TIP3   OH229541   6.839   4.882   1.609
 2661TIP3    H129542   6.752   4.869   1.572
 2661TIP3    H229543   6.825   4.889   1.703
 2662TIP3   OH229544   4.012   4.166   6.372
 2662TIP3    H129545   4.078   4.217   6.325
 2662TIP3    H229546   4.024   4.077   6.340
 2663TIP3   OH229547   1.203   4.452   8.506
 2663TIP3    H129548   1.258   4.458   8.585
 2663TIP3    H229549   1.118   4.424   8.539
 2664TIP3   OH229550   2.924   0.348   1.705
 2664TIP3    H129551   2.930   0.333   1.611
 2664TIP3    H229552   3.014   0.364   1.733
 2665TIP3   OH229553   4.724   2.269   6.722
 2665TIP3    H129554   4.644   2.320   6.735
 2665TIP3    H229555   4.773   2.319   6.657
 2666TIP3   OH229556   0.512   3.692   0.155
 2666TIP3    H129557   0.453   3.751   0.108
 2666TIP3    H229558   0.504   3.609   0.110
 2667TIP3   OH229559   3.089   3.100   7.417
 2667TIP3    H129560   3.024   3.163   7.385
 2667TIP3    H229561   3.065   3.085   7.508
 2668TIP3   OH229562   3.005   6.226   6.477
 2668TIP3    H129563   2.987   6.178   6.557
 2668TIP3    H229564   2.984   6.164   6.407
 2669TIP3   OH229565   1.261   5.543   0.856
 2669TIP3    H129566   1.287   5.452   0.843
 2669TIP3    H229567   1.306   5.591   0.786
 2670TIP3   OH229568   2.516   1.182   7.205
 2670TIP3    H129569   2.525   1.156   7.114
 2670TIP3    H229570   2.515   1.100   7.254
 2671TIP3   OH229571   4.314   1.743   1.602
 2671TIP3    H129572   4.336   1.676   1.666
 2671TIP3    H229573   4.397   1.786   1.583
 2672TIP3   OH229574   0.685   0.076   6.234
 2672TIP3    H129575   0.663   6.829   6.204
 2672TIP3    H229576   0.680   0.071   6.329
 2673TIP3   OH229577   5.592   2.911   7.551
 2673TIP3    H129578   5.661   2.959   7.506
 2673TIP3    H229579   5.617   2.819   7.543
 2674TIP3   OH229580   4.404   1.242   8.613
 2674TIP3    H129581   4.360   1.301   8.551
 2674TIP3    H229582   4.487   1.285   8.633
 2675TIP3   OH229583   0.933   5.537   6.464
 2675TIP3    H129584   0.979   5.516   6.545
 2675TIP3    H229585   0.895   5.624   6.479
 2676TIP3   OH229586   0.132   2.821   7.107
 2676TIP3    H129587   0.101   2.794   7.021
 2676TIP3    H229588   0.140   2.739   7.156
 2677TIP3   OH229589   0.685   0.519   0.348
 2677TIP3    H129590   0.717   0.431   0.367
 2677TIP3    H229591   0.645   0.548   0.430
 2678TIP3   OH229592   3.936   3.216   7.070
 2678TIP3    H129593   3.893   3.299   7.090
 2678TIP3    H229594   3.932   3.167   7.153
 2679TIP3   OH229595   0.814   6.708   6.396
 2679TIP3    H129596   0.805   6.618   6.365
 2679TIP3    H229597   0.897   6.738   6.358
 2680TIP3   OH229598   5.094   3.005   8.036
 2680TIP3    H129599   5.084   2.946   7.962
 2680TIP3    H229600   5.046   3.084   8.011
 2681TIP3   OH229601   6.093   6.557   0.608
 2681TIP3    H129602   6.069   6.558   0.516
 2681TIP3    H229603   6.066   6.642   0.641
 2682TIP3   OH229604   4.827   0.842   1.357
 2682TIP3    H129605   4.807   0.935   1.353
 2682TIP3    H229606   4.858   0.827   1.446
 2683TIP3   OH229607   3.008   4.029   6.922
 2683TIP3    H129608   2.961   4.027   7.005
 2683TIP3    H229609   2.940   4.022   6.856
 2684TIP3   OH229610   1.866   6.079   2.457
 2684TIP3    H129611   1.870   6.001   2.512
 2684TIP3    H229612   1.892   6.049   2.370
 2685TIP3   OH229613   6.625   6.297   8.248
 2685TIP3    H129614   6.606   6.258   8.162
 2685TIP3    H229615   6.553   6.357   8.265
 2686TIP3   OH229616   4.379   1.605   7.346
 2686TIP3    H129617   4.304   1.620   7.405
 2686TIP3    H229618   4.373   1.513   7.323
 2687TIP3   OH229619   2.482   5.691   1.973
 2687TIP3    H129620   2.538   5.764   1.998
 2687TIP3    H229621   2.543   5.618   1.961
 2688TIP3   OH229622   6.033   2.466   2.318
 2688TIP3    H129623   6.064   2.427   2.399
 2688TIP3    H229624   5.951   2.510   2.341
 2689TIP3   OH229625   3.019   5.189   1.563
 2689TIP3    H129626   3.032   5.244   1.485
 2689TIP3    H229627   3.106   5.157   1.584
 2690TIP3   OH229628   2.500   2.997   1.033
 2690TIP3    H129629   2.421   2.961   0.993
 2690TIP3    H229630   2.561   3.007   0.960
 2691TIP3   OH229631   0.125   0.873   0.284
 2691TIP3    H129632   0.111   0.876   0.189
 2691TIP3    H229633   0.187   0.944   0.301
 2692TIP3   OH229634   5.232   1.515   0.157
 2692TIP3    H129635   5.206   1.507   0.249
 2692TIP3    H229636   5.186   1.444   0.112
 2693TIP3   OH229637   2.578   6.326   1.245
 2693TIP3    H129638   2.642   6.266   1.206
 2693TIP3    H229639   2.554   6.284   1.328
 2694TIP3   OH229640   5.726   6.403   1.511
 2694TIP3    H129641   5.638   6.436   1.493
 2694TIP3    H229642   5.717   6.350   1.589
 2695TIP3   OH229643   1.759   1.623   8.684
 2695TIP3    H129644   1.713   1.551   8.640
 2695TIP3    H229645   1.727   1.621   0.039
 2696TIP3   OH229646   6.271   4.880   8.434
 2696TIP3    H129647   6.339   4.820   8.403
 2696TIP3    H229648   6.319   4.955   8.469
 2697TIP3   OH229649   2.476   2.382   1.276
 2697TIP3    H129650   2.553   2.345   1.234
 2697TIP3    H229651   2.480   2.351   1.367
 2698TIP3   OH229652   5.716   4.135   7.937
 2698TIP3    H129653   5.723   4.040   7.928
 2698TIP3    H229654   5.787   4.159   7.997
 2699TIP3   OH229655   6.408   0.023   8.726
 2699TIP3    H129656   6.394   6.776   8.690
 2699TIP3    H229657   6.373   0.082   8.660
 2700TIP3   OH229658   3.769   5.965   1.998
 2700TIP3    H129659   3.848   5.989   2.046
 2700TIP3    H229660   3.716   5.916   2.062
 2701TIP3   OH229661   4.185   5.733   1.084
 2701TIP3    H129662   4.160   5.654   1.035
 2701TIP3    H229663   4.220   5.792   1.018
 2702TIP3   OH229664   5.414   6.306   6.639
 2702TIP3    H129665   5.454   6.285   6.724
 2702TIP3    H229666   5.453   6.390   6.614
 2703TIP3   OH229667   2.043   0.900   0.077
 2703TIP3    H129668   2.012   0.906   8.721
 2703TIP3    H229669   2.070   0.809   0.088
 2704TIP3   OH229670   1.047   5.457   0.578
 2704TIP3    H129671   0.987   5.488   0.645
 2704TIP3    H229672   1.071   5.536   0.529
 2705TIP3   OH229673   3.203   0.651   6.822
 2705TIP3    H129674   3.191   0.689   6.735
 2705TIP3    H229675   3.121   0.671   6.867
 2706TIP3   OH229676   3.188   6.501   8.024
 2706TIP3    H129677   3.152   6.459   8.102
 2706TIP3    H229678   3.181   6.595   8.043
 2707TIP3   OH229679   4.364   1.404   0.740
 2707TIP3    H129680   4.359   1.494   0.708
 2707TIP3    H229681   4.417   1.409   0.819
 2708TIP3   OH229682   4.233   5.826   0.117
 2708TIP3    H129683   4.321   5.789   0.116
 2708TIP3    H229684   4.206   5.827   0.025
 2709TIP3   OH229685   5.726   5.114   2.238
 2709TIP3    H129686   5.677   5.046   2.192
 2709TIP3    H229687   5.709   5.097   2.330
 2710TIP3   OH229688   0.709   2.991   7.451
 2710TIP3    H129689   0.739   2.910   7.410
 2710TIP3    H229690   0.679   3.045   7.378
 2711TIP3   OH229691   2.285   6.361   1.623
 2711TIP3    H129692   2.309   6.450   1.597
 2711TIP3    H229693   2.324   6.350   1.709
 2712TIP3   OH229694   4.699   0.992   7.148
 2712TIP3    H129695   4.790   1.019   7.136
 2712TIP3    H229696   4.672   0.961   7.061
 2713TIP3   OH229697   0.381   6.123   6.701
 2713TIP3    H129698   0.371   6.056   6.633
 2713TIP3    H229699   0.342   6.202   6.663
 2714TIP3   OH229700   5.681   2.352   0.840
 2714TIP3    H129701   5.641   2.412   0.777
 2714TIP3    H229702   5.755   2.401   0.875
 2715TIP3   OH229703   4.077   3.515   1.321
 2715TIP3    H129704   4.002   3.536   1.377
 2715TIP3    H229705   4.066   3.422   1.301
 2716TIP3   OH229706   3.646   1.146   2.028
 2716TIP3    H129707   3.555   1.145   2.059
 2716TIP3    H229708   3.697   1.170   2.105
 2717TIP3   OH229709   0.632   0.155   1.868
 2717TIP3    H129710   0.598   0.074   1.907
 2717TIP3    H229711   0.634   0.217   1.941
 2718TIP3   OH229712   5.511   1.639   6.909
 2718TIP3    H129713   5.587   1.653   6.853
 2718TIP3    H229714   5.450   1.709   6.886
 2719TIP3   OH229715   3.361   0.160   6.428
 2719TIP3    H129716   3.386   0.081   6.475
 2719TIP3    H229717   3.271   0.146   6.401
 2720TIP3   OH229718   2.009   3.336   8.279
 2720TIP3    H129719   1.920   3.305   8.266
 2720TIP3    H229720   1.999   3.424   8.314
 2721TIP3   OH229721   3.212   2.699   1.202
 2721TIP3    H129722   3.221   2.649   1.121
 2721TIP3    H229723   3.300   2.732   1.221
 2722TIP3   OH229724   1.890   2.854   8.294
 2722TIP3    H129725   1.953   2.924   8.306
 2722TIP3    H229726   1.830   2.863   8.369
 2723TIP3   OH229727   2.648   6.400   7.072
 2723TIP3    H129728   2.722   6.347   7.044
 2723TIP3    H229729   2.684   6.487   7.087
 2724TIP3   OH229730   5.807   5.668   2.161
 2724TIP3    H129731   5.760   5.730   2.217
 2724TIP3    H229732   5.825   5.593   2.217
 2725TIP3   OH229733   1.126   4.610   8.284
 2725TIP3    H129734   1.155   4.555   8.356
 2725TIP3    H229735   1.170   4.693   8.296
 2726TIP3   OH229736   3.979   5.169   0.305
 2726TIP3    H129737   4.072   5.163   0.286
 2726TIP3    H229738   3.967   5.256   0.342
 2727TIP3   OH229739   3.706   5.464   7.910
 2727TIP3    H129740   3.622   5.444   7.953
 2727TIP3    H229741   3.753   5.381   7.909
 2728TIP3   OH229742   0.842   4.260   7.948
 2728TIP3    H129743   0.830   4.225   7.860
 2728TIP3    H229744   0.937   4.273   7.955
 2729TIP3   OH229745   4.380   3.558   8.105
 2729TIP3    H129746   4.411   3.525   8.190
 2729TIP3    H229747   4.460   3.577   8.056
 2730TIP3   OH229748   0.738   2.436   2.516
 2730TIP3    H129749   0.649   2.468   2.527
 2730TIP3    H229750   0.758   2.450   2.423
 2731TIP3   OH229751   0.902   3.921   1.407
 2731TIP3    H129752   0.976   3.980   1.399
 2731TIP3    H229753   0.825   3.978   1.401
 2732TIP3   OH229754   6.070   6.259   0.554
 2732TIP3    H129755   6.112   6.325   0.611
 2732TIP3    H229756   6.120   6.263   0.473
 2733TIP3   OH229757   4.011   0.493   7.532
 2733TIP3    H129758   4.005   0.404   7.498
 2733TIP3    H229759   4.019   0.482   7.627
 2734TIP3   OH229760   3.592   6.233   1.855
 2734TIP3    H129761   3.530   6.163   1.834
 2734TIP3    H229762   3.589   6.291   1.779
 2735TIP3   OH229763   4.650   5.277   7.617
 2735TIP3    H129764   4.649   5.282   7.522
 2735TIP3    H229765   4.733   5.233   7.638
 2736TIP3   OH229766   5.665   0.579   2.769
 2736TIP3    H129767   5.632   0.648   2.826
 2736TIP3    H229768   5.595   0.513   2.769
 2737TIP3   OH229769   5.821   4.757   5.946
 2737TIP3    H129770   5.772   4.839   5.951
 2737TIP3    H229771   5.905   4.782   5.908
 2738TIP3   OH229772   0.128   2.676   6.809
 2738TIP3    H129773   0.220   2.690   6.784
 2738TIP3    H229774   0.078   2.713   6.736
 2739TIP3   OH229775   0.529   3.762   0.627
 2739TIP3    H129776   0.541   3.851   0.593
 2739TIP3    H229777   0.531   3.706   0.549
 2740TIP3   OH229778   3.854   1.862   0.982
 2740TIP3    H129779   3.893   1.789   0.935
 2740TIP3    H229780   3.783   1.892   0.925
 2741TIP3   OH229781   3.548   4.647   7.716
 2741TIP3    H129782   3.537   4.612   7.628
 2741TIP3    H229783   3.618   4.713   7.707
 2742TIP3   OH229784   1.985   2.291   0.347
 2742TIP3    H129785   1.955   2.366   0.296
 2742TIP3    H229786   1.930   2.218   0.316
 2743TIP3   OH229787   5.107   5.408   1.272
 2743TIP3    H129788   5.198   5.428   1.295
 2743TIP3    H229789   5.056   5.438   1.348
 2744TIP3   OH229790   2.509   5.886   8.517
 2744TIP3    H129791   2.574   5.951   8.490
 2744TIP3    H229792   2.453   5.933   8.579
 2745TIP3   OH229793   0.708   1.138   0.320
 2745TIP3    H129794   0.719   1.088   0.400
 2745TIP3    H229795   0.796   1.146   0.284
 2746TIP3   OH229796   1.923   4.890   1.374
 2746TIP3    H129797   1.918   4.982   1.348
 2746TIP3    H229798   1.838   4.853   1.350
 2747TIP3   OH229799   2.174   2.926   8.094
 2747TIP3    H129800   2.115   2.987   8.137
 2747TIP3    H229801   2.228   2.980   8.037
 2748TIP3   OH229802   5.973   6.293   7.348
 2748TIP3    H129803   5.956   6.387   7.347
 2748TIP3    H229804   5.889   6.253   7.326
 2749TIP3   OH229805   4.760   6.324   8.685
 2749TIP3    H129806   4.682   6.284   8.647
 2749TIP3    H229807   4.826   6.255   8.683
 2750TIP3   OH229808   6.381   3.755   7.698
 2750TIP3    H129809   6.399   3.679   7.643
 2750TIP3    H229810   6.452   3.817   7.678
 2751TIP3   OH229811   6.357   6.195   6.230
 2751TIP3    H129812   6.369   6.104   6.201
 2751TIP3    H229813   6.263   6.209   6.226
 2752TIP3   OH229814   2.587   0.895   7.647
 2752TIP3    H129815   2.516   0.947   7.609
 2752TIP3    H229816   2.559   0.804   7.637
 2753TIP3   OH229817   0.462   4.502   0.368
 2753TIP3    H129818   0.383   4.505   0.313
 2753TIP3    H229819   0.523   4.448   0.319
 2754TIP3   OH229820   1.680   1.244   7.797
 2754TIP3    H129821   1.653   1.172   7.740
 2754TIP3    H229822   1.637   1.321   7.760
 2755TIP3   OH229823   3.572   0.794   7.704
 2755TIP3    H129824   3.551   0.849   7.628
 2755TIP3    H229825   3.658   0.757   7.685
 2756TIP3   OH229826   1.128   3.074   8.070
 2756TIP3    H129827   1.159   3.141   8.131
 2756TIP3    H229828   1.063   3.120   8.016
 2757TIP3   OH229829   6.139   5.585   7.443
 2757TIP3    H129830   6.193   5.509   7.423
 2757TIP3    H229831   6.170   5.615   7.528
 2758TIP3   OH229832   0.795   2.331   6.421
 2758TIP3    H129833   0.701   2.314   6.420
 2758TIP3    H229834   0.809   2.396   6.352
 2759TIP3   OH229835   1.373   4.956   0.324
 2759TIP3    H129836   1.413   5.034   0.284
 2759TIP3    H229837   1.405   4.957   0.415
 2760TIP3   OH229838   0.029   0.193   0.291
 2760TIP3    H129839   6.800   0.128   0.298
 2760TIP3    H229840   6.826   0.271   0.256
 2761TIP3   OH229841   1.851   2.417   7.252
 2761TIP3    H129842   1.834   2.500   7.296
 2761TIP3    H229843   1.929   2.433   7.199
 2762TIP3   OH229844   6.705   3.068   7.140
 2762TIP3    H129845   6.730   2.984   7.179
 2762TIP3    H229846   6.787   3.106   7.110
 2763TIP3   OH229847   2.719   1.636   7.734
 2763TIP3    H129848   2.754   1.548   7.747
 2763TIP3    H229849   2.662   1.651   7.810
 2764TIP3   OH229850   0.230   2.238   0.699
 2764TIP3    H129851   0.218   2.318   0.647
 2764TIP3    H229852   0.176   2.252   0.777
 2765TIP3   OH229853   2.276   4.335   0.569
 2765TIP3    H129854   2.198   4.377   0.535
 2765TIP3    H229855   2.335   4.408   0.590
 2766TIP3   OH229856   5.802   6.001   0.264
 2766TIP3    H129857   5.728   6.061   0.264
 2766TIP3    H229858   5.806   5.966   0.353
 2767TIP3   OH229859   1.312   5.291   1.624
 2767TIP3    H129860   1.291   5.230   1.694
 2767TIP3    H229861   1.367   5.242   1.563
 2768TIP3   OH229862   2.221   3.174   8.328
 2768TIP3    H129863   2.198   3.085   8.355
 2768TIP3    H229864   2.137   3.219   8.320
 2769TIP3   OH229865   6.211   1.513   0.047
 2769TIP3    H129866   6.210   1.522   8.686
 2769TIP3    H229867   6.126   1.475   0.068
 2770TIP3   OH229868   1.776   4.402   1.295
 2770TIP3    H129869   1.869   4.381   1.300
 2770TIP3    H229870   1.747   4.404   1.386
 2771TIP3   OH229871   6.753   1.539   2.083
 2771TIP3    H129872   6.822   1.531   2.149
 2771TIP3    H229873   6.781   1.612   2.027
 2772TIP3   OH229874   0.517   4.776   1.426
 2772TIP3    H129875   0.451   4.770   1.496
 2772TIP3    H229876   0.591   4.821   1.467
 2773TIP3   OH229877   1.739   1.791   7.573
 2773TIP3    H129878   1.660   1.775   7.522
 2773TIP3    H229879   1.749   1.886   7.573
 2774TIP3   OH229880   4.885   3.460   0.318
 2774TIP3    H129881   4.928   3.391   0.268
 2774TIP3    H229882   4.858   3.418   0.399
 2775TIP3   OH229883   1.529   6.416   6.163
 2775TIP3    H129884   1.510   6.463   6.082
 2775TIP3    H229885   1.537   6.324   6.136
 2776TIP3   OH229886   4.061   4.390   0.712
 2776TIP3    H129887   3.978   4.354   0.681
 2776TIP3    H229888   4.116   4.395   0.634
 2777TIP3   OH229889   6.122   5.573   0.605
 2777TIP3    H129890   6.078   5.652   0.636
 2777TIP3    H229891   6.203   5.570   0.656
 2778TIP3   OH229892   4.594   1.373   7.099
 2778TIP3    H129893   4.617   1.442   7.037
 2778TIP3    H229894   4.643   1.297   7.070
 2779TIP3   OH229895   3.263   2.542   0.334
 2779TIP3    H129896   3.297   2.628   0.309
 2779TIP3    H229897   3.317   2.479   0.285
 2780TIP3   OH229898   5.075   4.356   0.275
 2780TIP3    H129899   5.157   4.387   0.314
 2780TIP3    H229900   5.060   4.414   0.200
 2781TIP3   OH229901   5.408   2.495   8.441
 2781TIP3    H129902   5.346   2.531   8.379
 2781TIP3    H229903   5.354   2.462   8.513
 2782TIP3   OH229904   0.362   3.697   8.516
 2782TIP3    H129905   0.277   3.701   8.473
 2782TIP3    H229906   0.354   3.756   8.591
 2783TIP3   OH229907   1.792   3.230   7.121
 2783TIP3    H129908   1.824   3.313   7.159
 2783TIP3    H229909   1.796   3.244   7.027
 2784TIP3   OH229910   6.328   2.468   1.246
 2784TIP3    H129911   6.246   2.504   1.279
 2784TIP3    H229912   6.390   2.480   1.318
 2785TIP3   OH229913   1.667   2.813   1.152
 2785TIP3    H129914   1.667   2.873   1.077
 2785TIP3    H229915   1.735   2.847   1.210
 2786TIP3   OH229916   0.998   1.444   7.806
 2786TIP3    H129917   0.962   1.531   7.792
 2786TIP3    H229918   1.059   1.455   7.879
 2787TIP3   OH229919   5.654   5.829   6.469
 2787TIP3    H129920   5.595   5.759   6.442
 2787TIP3    H229921   5.684   5.802   6.556
 2788TIP3   OH229922   3.055   2.169   0.708
 2788TIP3    H129923   3.058   2.079   0.675
 2788TIP3    H229924   2.962   2.187   0.720
 2789TIP3   OH229925   2.433   0.491   7.953
 2789TIP3    H129926   2.522   0.493   7.917
 2789TIP3    H229927   2.376   0.499   7.876
 2790TIP3   OH229928   0.776   2.758   2.207
 2790TIP3    H129929   0.750   2.800   2.288
 2790TIP3    H229930   0.781   2.829   2.143
 2791TIP3   OH229931   2.334   1.070   8.415
 2791TIP3    H129932   2.240   1.090   8.417
 2791TIP3    H229933   2.348   1.017   8.494
 2792TIP3   OH229934   0.895   3.144   8.715
 2792TIP3    H129935   0.899   3.239   8.701
 2792TIP3    H229936   0.986   3.116   8.714
 2793TIP3   OH229937   2.318   4.083   1.660
 2793TIP3    H129938   2.402   4.050   1.627
 2793TIP3    H229939   2.333   4.097   1.754
 2794TIP3   OH229940   6.337   2.921   0.793
 2794TIP3    H129941   6.382   2.870   0.726
 2794TIP3    H229942   6.334   3.010   0.758
 2795TIP3   OH229943   6.835   0.804   7.714
 2795TIP3    H129944   0.018   0.895   7.698
 2795TIP3    H229945   6.804   0.771   7.630
 2796TIP3   OH229946   4.796   0.381   7.362
 2796TIP3    H129947   4.840   0.317   7.306
 2796TIP3    H229948   4.704   0.377   7.335
 2797TIP3   OH229949   5.343   6.454   2.176
 2797TIP3    H129950   5.268   6.400   2.152
 2797TIP3    H229951   5.308   6.542   2.185
 2798TIP3   OH229952   4.752   4.413   0.269
 2798TIP3    H129953   4.812   4.359   0.217
 2798TIP3    H229954   4.693   4.350   0.311
 2799TIP3   OH229955   3.644   6.322   1.201
 2799TIP3    H129956   3.707   6.250   1.200
 2799TIP3    H229957   3.621   6.333   1.293
 2800TIP3   OH229958   1.620   6.654   1.091
 2800TIP3    H129959   1.656   6.620   1.173
 2800TIP3    H229960   1.584   6.739   1.114
 2801TIP3   OH229961   5.862   4.894   6.227
 2801TIP3    H129962   5.804   4.885   6.151
 2801TIP3    H229963   5.808   4.936   6.294
 2802TIP3   OH229964   1.037   0.114   0.542
 2802TIP3    H129965   1.021   0.125   0.635
 2802TIP3    H229966   0.979   0.043   0.515
 2803TIP3   OH229967   3.894   3.164   6.494
 2803TIP3    H129968   3.990   3.161   6.493
 2803TIP3    H229969   3.870   3.117   6.574
 2804TIP3   OH229970   1.113   3.400   7.438
 2804TIP3    H129971   1.153   3.343   7.372
 2804TIP3    H229972   1.110   3.347   7.517
 2805TIP3   OH229973   2.643   1.343   0.798
 2805TIP3    H129974   2.566   1.328   0.853
 2805TIP3    H229975   2.615   1.317   0.710
 2806TIP3   OH229976   6.116   0.225   0.846
 2806TIP3    H129977   6.193   0.201   0.897
 2806TIP3    H229978   6.042   0.202   0.902
 2807TIP3   OH229979   6.166   4.747   0.166
 2807TIP3    H129980   6.258   4.773   0.161
 2807TIP3    H229981   6.152   4.695   0.087
 2808TIP3   OH229982   3.509   5.854   7.307
 2808TIP3    H129983   3.492   5.935   7.258
 2808TIP3    H229984   3.535   5.884   7.394
 2809TIP3   OH229985   3.866   2.927   0.709
 2809TIP3    H129986   3.842   2.868   0.780
 2809TIP3    H229987   3.794   2.922   0.647
 2810TIP3   OH229988   6.349   6.043   8.366
 2810TIP3    H129989   6.382   6.055   8.277
 2810TIP3    H229990   6.320   6.131   8.393
 2811TIP3   OH229991   4.743   1.105   2.230
 2811TIP3    H129992   4.654   1.131   2.206
 2811TIP3    H229993   4.739   1.010   2.238
 2812TIP3   OH229994   6.403   2.568   6.511
 2812TIP3    H129995   6.463   2.632   6.550
 2812TIP3    H229996   6.424   2.570   6.418
 2813TIP3   OH229997   1.108   1.252   8.669
 2813TIP3    H129998   1.127   1.172   8.621
 2813TIP3    H229999   1.058   1.223   0.011
 2814TIP3   OH230000   6.788   3.584   7.837
 2814TIP3    H130001   6.718   3.634   7.881
 2814TIP3    H230002   6.762   3.493   7.847
 2815TIP3   OH230003   5.067   2.549   1.589
 2815TIP3    H130004   4.990   2.576   1.638
 2815TIP3    H230005   5.036   2.533   1.501
 2816TIP3   OH230006   3.187   5.358   0.814
 2816TIP3    H130007   3.099   5.371   0.776
 2816TIP3    H230008   3.176   5.285   0.875
 2817TIP3   OH230009   6.596   6.336   7.617
 2817TIP3    H130010   6.501   6.337   7.630
 2817TIP3    H230011   6.607   6.332   7.522
 2818TIP3   OH230012   1.769   1.937   5.837
 2818TIP3    H130013   1.750   1.843   5.845
 2818TIP3    H230014   1.704   1.979   5.893
 2819TIP3   OH230015   5.298   3.977   0.173
 2819TIP3    H130016   5.255   3.974   0.259
 2819TIP3    H230017   5.247   4.042   0.124
 2820TIP3   OH230018   1.115   4.209   7.954
 2820TIP3    H130019   1.194   4.156   7.939
 2820TIP3    H230020   1.149   4.296   7.974
 2821TIP3   OH230021   4.037   6.023   7.444
 2821TIP3    H130022   3.960   5.974   7.419
 2821TIP3    H230023   4.073   5.976   7.520
 2822TIP3   OH230024   5.828   4.400   1.121
 2822TIP3    H130025   5.776   4.322   1.136
 2822TIP3    H230026   5.825   4.447   1.205
 2823TIP3   OH230027   4.072   5.569   7.794
 2823TIP3    H130028   4.134   5.521   7.740
 2823TIP3    H230029   4.103   5.556   7.884
 2824TIP3   OH230030   0.969   2.139   0.078
 2824TIP3    H130031   1.047   2.182   0.042
 2824TIP3    H230032   0.971   2.161   0.171
 2825TIP3   OH230033   4.997   3.988   7.151
 2825TIP3    H130034   4.986   3.943   7.067
 2825TIP3    H230035   5.047   4.066   7.130
 2826TIP3   OH230036   4.792   4.928   7.962
 2826TIP3    H130037   4.703   4.899   7.944
 2826TIP3    H230038   4.828   4.862   8.021
 2827TIP3   OH230039   2.669   3.692   6.933
 2827TIP3    H130040   2.586   3.674   6.977
 2827TIP3    H230041   2.730   3.715   7.003
 2828TIP3   OH230042   1.706   5.039   6.961
 2828TIP3    H130043   1.691   5.046   7.055
 2828TIP3    H230044   1.778   5.099   6.943
 2829TIP3   OH230045   2.111   5.604   0.964
 2829TIP3    H130046   2.129   5.695   0.988
 2829TIP3    H230047   2.197   5.564   0.954
 2830TIP3   OH230048   4.310   5.510   0.292
 2830TIP3    H130049   4.381   5.511   0.228
 2830TIP3    H230050   4.275   5.599   0.292
 2831TIP3   OH230051   6.182   5.117   1.026
 2831TIP3    H130052   6.225   5.061   0.962
 2831TIP3    H230053   6.093   5.128   0.991
 2832TIP3   OH230054   4.657   3.700   7.524
 2832TIP3    H130055   4.636   3.783   7.482
 2832TIP3    H230056   4.572   3.658   7.539
 2833TIP3   OH230057   0.018   2.620   0.305
 2833TIP3    H130058   0.025   2.711   0.334
 2833TIP3    H230059   6.767   2.609   0.281
 2834TIP3   OH230060   1.455   0.492   8.307
 2834TIP3    H130061   1.550   0.483   8.315
 2834TIP3    H230062   1.424   0.403   8.288
 2835TIP3   OH230063   0.282   1.398   6.599
 2835TIP3    H130064   0.347   1.365   6.662
 2835TIP3    H230065   0.296   1.343   6.521
 2836TIP3   OH230066   3.476   5.414   0.213
 2836TIP3    H130067   3.501   5.368   0.293
 2836TIP3    H230068   3.515   5.362   0.142
 2837TIP3   OH230069   4.976   2.095   0.844
 2837TIP3    H130070   4.975   2.174   0.898
 2837TIP3    H230071   5.067   2.067   0.843
 2838TIP3   OH230072   4.186   6.833   0.822
 2838TIP3    H130073   4.264   0.046   0.806
 2838TIP3    H230074   4.214   6.770   0.888
 2839TIP3   OH230075   2.542   3.620   7.309
 2839TIP3    H130076   2.567   3.696   7.258
 2839TIP3    H230077   2.446   3.619   7.307
 2840TIP3   OH230078   4.250   2.290   0.769
 2840TIP3    H130079   4.211   2.203   0.763
 2840TIP3    H230080   4.185   2.349   0.729
 2841TIP3   OH230081   5.127   3.870   0.990
 2841TIP3    H130082   5.044   3.880   0.945
 2841TIP3    H230083   5.130   3.778   1.016
 2842TIP3   OH230084   5.686   1.674   8.368
 2842TIP3    H130085   5.701   1.712   8.455
 2842TIP3    H230086   5.605   1.713   8.337
 2843TIP3   OH230087   2.755   4.476   0.316
 2843TIP3    H130088   2.720   4.505   0.232
 2843TIP3    H230089   2.678   4.465   0.371
 2844TIP3   OH230090   6.294   3.907   1.264
 2844TIP3    H130091   6.295   3.896   1.359
 2844TIP3    H230092   6.297   4.001   1.251
 2845TIP3   OH230093   2.204   0.828   2.117
 2845TIP3    H130094   2.208   0.878   2.035
 2845TIP3    H230095   2.215   0.737   2.090
 2846TIP3   OH230096   1.325   2.960   7.262
 2846TIP3    H130097   1.381   2.885   7.281
 2846TIP3    H230098   1.364   2.999   7.183
 2847TIP3   OH230099   4.237   2.669   0.891
 2847TIP3    H130100   4.161   2.652   0.836
 2847TIP3    H230101   4.307   2.616   0.852
 2848TIP3   OH230102   0.567   0.596   0.574
 2848TIP3    H130103   0.509   0.659   0.530
 2848TIP3    H230104   0.529   0.585   0.661
 2849TIP3   OH230105   3.497   6.276   2.149
 2849TIP3    H130106   3.546   6.276   2.067
 2849TIP3    H230107   3.518   6.360   2.190
 2850TIP3   OH230108   4.199   2.403   1.642
 2850TIP3    H130109   4.133   2.341   1.613
 2850TIP3    H230110   4.272   2.349   1.672
 2851TIP3   OH230111   6.571   6.685   1.654
 2851TIP3    H130112   6.492   6.691   1.600
 2851TIP3    H230113   6.541   6.643   1.734
 2852TIP3   OH230114   3.097   6.321   2.244
 2852TIP3    H130115   3.145   6.249   2.203
 2852TIP3    H230116   3.142   6.400   2.213
 2853TIP3   OH230117   1.952   6.323   1.306
 2853TIP3    H130118   2.000   6.268   1.369
 2853TIP3    H230119   2.015   6.337   1.235
 2854TIP3   OH230120   4.749   4.880   6.997
 2854TIP3    H130121   4.667   4.926   7.013
 2854TIP3    H230122   4.818   4.939   7.028
 2855TIP3   OH230123   1.155   2.150   7.385
 2855TIP3    H130124   1.229   2.210   7.396
 2855TIP3    H230125   1.084   2.206   7.355
 2856TIP3   OH230126   1.586   4.495   7.047
 2856TIP3    H130127   1.663   4.495   6.990
 2856TIP3    H230128   1.621   4.492   7.136
 2857TIP3   OH230129   2.155   0.357   1.871
 2857TIP3    H130130   2.243   0.333   1.901
 2857TIP3    H230131   2.167   0.385   1.780
 2858TIP3   OH230132   0.354   4.219   7.062
 2858TIP3    H130133   0.430   4.269   7.032
 2858TIP3    H230134   0.389   4.133   7.084
 2859TIP3   OH230135   6.051   2.372   0.868
 2859TIP3    H130136   5.987   2.343   0.933
 2859TIP3    H230137   6.020   2.459   0.841
 2860TIP3   OH230138   3.549   1.686   8.007
 2860TIP3    H130139   3.537   1.663   7.915
 2860TIP3    H230140   3.568   1.603   8.051
 2861TIP3   OH230141   4.118   3.709   1.514
 2861TIP3    H130142   4.202   3.702   1.559
 2861TIP3    H230143   4.130   3.659   1.433
 2862TIP3   OH230144   6.746   3.502   0.538
 2862TIP3    H130145   6.804   3.548   0.599
 2862TIP3    H230146   6.773   3.411   0.542
 2863TIP3   OH230147   0.778   2.914   0.970
 2863TIP3    H130148   0.692   2.953   0.986
 2863TIP3    H230149   0.759   2.828   0.931
 2864TIP3   OH230150   5.749   5.248   1.660
 2864TIP3    H130151   5.828   5.302   1.660
 2864TIP3    H230152   5.775   5.168   1.612
 2865TIP3   OH230153   6.380   0.611   1.057
 2865TIP3    H130154   6.469   0.577   1.049
 2865TIP3    H230155   6.326   0.534   1.073
 2866TIP3   OH230156   5.741   1.592   0.715
 2866TIP3    H130157   5.733   1.535   0.792
 2866TIP3    H230158   5.793   1.666   0.744
 2867TIP3   OH230159   0.421   4.885   1.196
 2867TIP3    H130160   0.481   4.960   1.190
 2867TIP3    H230161   0.434   4.851   1.284
 2868TIP3   OH230162   5.748   6.169   7.217
 2868TIP3    H130163   5.676   6.193   7.276
 2868TIP3    H230164   5.711   6.103   7.160
 2869TIP3   OH230165   3.858   4.653   8.204
 2869TIP3    H130166   3.934   4.626   8.152
 2869TIP3    H230167   3.811   4.572   8.222
 2870TIP3   OH230168   5.030   6.354   0.648
 2870TIP3    H130169   4.954   6.407   0.670
 2870TIP3    H230170   5.012   6.321   0.559
 2871TIP3   OH230171   2.396   2.024   2.561
 2871TIP3    H130172   2.401   2.117   2.581
 2871TIP3    H230173   2.320   1.992   2.610
 2872TIP3   OH230174   2.516   4.493   8.165
 2872TIP3    H130175   2.569   4.414   8.175
 2872TIP3    H230176   2.468   4.479   8.083
 2873TIP3   OH230177   4.102   5.491   0.945
 2873TIP3    H130178   4.055   5.438   1.010
 2873TIP3    H230179   4.068   5.462   0.861
 2874TIP3   OH230180   5.092   2.318   7.109
 2874TIP3    H130181   5.074   2.289   7.020
 2874TIP3    H230182   5.152   2.392   7.099
 2875TIP3   OH230183   0.562   0.198   0.526
 2875TIP3    H130184   0.528   0.268   0.470
 2875TIP3    H230185   0.492   0.184   0.590
 2876TIP3   OH230186   3.193   3.751   2.311
 2876TIP3    H130187   3.122   3.757   2.374
 2876TIP3    H230188   3.228   3.663   2.322
 2877TIP3   OH230189   5.153   0.537   7.884
 2877TIP3    H130190   5.170   0.464   7.824
 2877TIP3    H230191   5.117   0.497   7.962
 2878TIP3   OH230192   3.252   2.475   7.322
 2878TIP3    H130193   3.281   2.563   7.347
 2878TIP3    H230194   3.165   2.466   7.361
 2879TIP3   OH230195   5.870   1.467   1.557
 2879TIP3    H130196   5.929   1.535   1.590
 2879TIP3    H230197   5.782   1.500   1.575
 2880TIP3   OH230198   4.370   4.145   8.467
 2880TIP3    H130199   4.360   4.161   8.561
 2880TIP3    H230200   4.443   4.084   8.461
 2881TIP3   OH230201   6.215   6.769   8.444
 2881TIP3    H130202   6.309   6.774   8.460
 2881TIP3    H230203   6.175   6.800   8.525
 2882TIP3   OH230204   0.060   3.229   0.873
 2882TIP3    H130205   6.835   3.243   0.942
 2882TIP3    H230206   0.144   3.236   0.918
 2883TIP3   OH230207   4.219   4.629   1.129
 2883TIP3    H130208   4.270   4.596   1.055
 2883TIP3    H230209   4.237   4.723   1.130
 2884TIP3   OH230210   3.732   5.792   0.406
 2884TIP3    H130211   3.764   5.801   0.316
 2884TIP3    H230212   3.701   5.879   0.429
 2885TIP3   OH230213   4.289   5.345   1.990
 2885TIP3    H130214   4.280   5.342   2.085
 2885TIP3    H230215   4.383   5.354   1.974
 2886TIP3   OH230216   4.653   1.042   0.329
 2886TIP3    H130217   4.677   0.983   0.401
 2886TIP3    H230218   4.710   1.015   0.256
 2887TIP3   OH230219   4.422   3.281   7.563
 2887TIP3    H130220   4.466   3.224   7.499
 2887TIP3    H230221   4.344   3.312   7.517
 2888TIP3   OH230222   5.087   2.522   7.583
 2888TIP3    H130223   5.135   2.536   7.665
 2888TIP3    H230224   4.995   2.529   7.608
 2889TIP3   OH230225   2.241   3.106   1.640
 2889TIP3    H130226   2.325   3.085   1.681
 2889TIP3    H230227   2.244   3.061   1.556
 2890TIP3   OH230228   2.587   2.266   0.345
 2890TIP3    H130229   2.665   2.230   0.302
 2890TIP3    H230230   2.604   2.256   0.439
 2891TIP3   OH230231   0.160   0.445   8.030
 2891TIP3    H130232   0.192   0.494   8.105
 2891TIP3    H230233   0.195   0.493   7.954
 2892TIP3   OH230234   1.303   1.134   0.658
 2892TIP3    H130235   1.331   1.223   0.639
 2892TIP3    H230236   1.214   1.144   0.692
 2893TIP3   OH230237   1.968   5.511   2.049
 2893TIP3    H130238   1.878   5.539   2.032
 2893TIP3    H230239   1.977   5.516   2.144
 2894TIP3   OH230240   5.411   3.803   1.505
 2894TIP3    H130241   5.349   3.731   1.512
 2894TIP3    H230242   5.475   3.775   1.440
 2895TIP3   OH230243   0.938   4.232   0.578
 2895TIP3    H130244   0.933   4.276   0.663
 2895TIP3    H230245   1.006   4.166   0.590
 2896TIP3   OH230246   2.542   3.713   0.252
 2896TIP3    H130247   2.596   3.635   0.269
 2896TIP3    H230248   2.456   3.690   0.288
 2897TIP3   OH230249   1.671   2.347   7.442
 2897TIP3    H130250   1.712   2.352   7.355
 2897TIP3    H230251   1.733   2.391   7.500
 2898TIP3   OH230252   5.354   3.275   7.813
 2898TIP3    H130253   5.430   3.247   7.763
 2898TIP3    H230254   5.342   3.367   7.791
 2899TIP3   OH230255   3.197   4.229   6.916
 2899TIP3    H130256   3.167   4.139   6.927
 2899TIP3    H230257   3.119   4.282   6.930
 2900TIP3   OH230258   5.819   0.157   7.168
 2900TIP3    H130259   5.767   0.224   7.125
 2900TIP3    H230260   5.771   0.136   7.248
 2901TIP3   OH230261   0.828   5.504   6.908
 2901TIP3    H130262   0.789   5.450   6.839
 2901TIP3    H230263   0.893   5.447   6.949
 2902TIP3   OH230264   4.965   5.740   6.572
 2902TIP3    H130265   4.978   5.830   6.542
 2902TIP3    H230266   5.021   5.733   6.649
 2903TIP3   OH230267   4.163   2.544   7.624
 2903TIP3    H130268   4.146   2.601   7.549
 2903TIP3    H230269   4.106   2.469   7.610
 2904TIP3   OH230270   3.568   0.371   7.382
 2904TIP3    H130271   3.587   0.351   7.474
 2904TIP3    H230272   3.653   0.362   7.338
 2905TIP3   OH230273   2.106   5.529   0.403
 2905TIP3    H130274   2.027   5.528   0.457
 2905TIP3    H230275   2.157   5.454   0.433
 2906TIP3   OH230276   6.606   1.358   0.119
 2906TIP3    H130277   6.577   1.356   0.211
 2906TIP3    H230278   6.542   1.304   0.073
 2907TIP3   OH230279   5.160   4.729   0.891
 2907TIP3    H130280   5.246   4.704   0.858
 2907TIP3    H230281   5.177   4.804   0.948
 2908TIP3   OH230282   0.982   0.753   0.996
 2908TIP3    H130283   1.056   0.781   1.049
 2908TIP3    H230284   0.990   0.804   0.915
 2909TIP3   OH230285   4.225   3.225   0.012
 2909TIP3    H130286   4.229   3.190   8.658
 2909TIP3    H230287   4.284   3.170   0.063
 2910TIP3   OH230288   1.312   4.158   7.392
 2910TIP3    H130289   1.370   4.130   7.463
 2910TIP3    H230290   1.329   4.096   7.321
 2911TIP3   OH230291   2.699   3.486   0.230
 2911TIP3    H130292   2.785   3.520   0.207
 2911TIP3    H230293   2.711   3.392   0.241
 2912TIP3   OH230294   5.238   6.149   1.942
 2912TIP3    H130295   5.183   6.109   1.875
 2912TIP3    H230296   5.264   6.233   1.905
 2913TIP3   OH230297   5.069   0.044   1.347
 2913TIP3    H130298   5.018   6.807   1.371
 2913TIP3    H230299   5.027   0.115   1.396
 2914TIP3   OH230300   4.817   1.347   0.335
 2914TIP3    H130301   4.817   1.394   0.418
 2914TIP3    H230302   4.750   1.280   0.345
 2915TIP3   OH230303   6.111   2.210   7.897
 2915TIP3    H130304   6.043   2.278   7.897
 2915TIP3    H230305   6.065   2.130   7.923
 2916TIP3   OH230306   6.076   0.754   6.675
 2916TIP3    H130307   6.091   0.828   6.616
 2916TIP3    H230308   6.029   0.690   6.621
 2917TIP3   OH230309   1.501   2.450   6.618
 2917TIP3    H130310   1.444   2.438   6.542
 2917TIP3    H230311   1.538   2.363   6.634
 2918TIP3   OH230312   4.616   3.470   6.852
 2918TIP3    H130313   4.641   3.563   6.850
 2918TIP3    H230314   4.635   3.438   6.764
 2919TIP3   OH230315   4.007   0.248   7.410
 2919TIP3    H130316   3.991   0.168   7.460
 2919TIP3    H230317   4.069   0.221   7.341
 2920TIP3   OH230318   1.720   5.275   7.769
 2920TIP3    H130319   1.659   5.272   7.843
 2920TIP3    H230320   1.805   5.252   7.807
 2921TIP3   OH230321   1.555   4.443   8.059
 2921TIP3    H130322   1.510   4.524   8.033
 2921TIP3    H230323   1.552   4.388   7.981
 2922TIP3   OH230324   1.187   4.877   8.050
 2922TIP3    H130325   1.164   4.952   7.995
 2922TIP3    H230326   1.268   4.903   8.093
 2923TIP3   OH230327   5.565   3.342   6.902
 2923TIP3    H130328   5.559   3.398   6.824
 2923TIP3    H230329   5.658   3.327   6.914
 2924TIP3   OH230330   1.587   5.932   0.166
 2924TIP3    H130331   1.662   5.990   0.178
 2924TIP3    H230332   1.625   5.847   0.144
 2925TIP3   OH230333   4.705   2.415   2.693
 2925TIP3    H130334   4.785   2.376   2.657
 2925TIP3    H230335   4.634   2.364   2.653
 2926TIP3   OH230336   0.701   4.093   1.543
 2926TIP3    H130337   0.664   4.093   1.455
 2926TIP3    H230338   0.658   4.020   1.587
 2927TIP3   OH230339   1.289   0.834   7.764
 2927TIP3    H130340   1.282   0.916   7.717
 2927TIP3    H230341   1.211   0.832   7.821
 2928TIP3   OH230342   2.985   5.251   7.688
 2928TIP3    H130343   3.019   5.195   7.759
 2928TIP3    H230344   2.955   5.189   7.622
 2929TIP3   OH230345   1.323   5.240   2.651
 2929TIP3    H130346   1.340   5.233   2.558
 2929TIP3    H230347   1.239   5.286   2.657
 2930TIP3   OH230348   2.344   5.419   1.874
 2930TIP3    H130349   2.346   5.389   1.964
 2930TIP3    H230350   2.422   5.382   1.833
 2931TIP3   OH230351   4.137   2.191   2.200
 2931TIP3    H130352   4.093   2.234   2.127
 2931TIP3    H230353   4.169   2.263   2.254
 2932TIP3   OH230354   2.247   6.181   7.384
 2932TIP3    H130355   2.244   6.113   7.452
 2932TIP3    H230356   2.209   6.138   7.306
 2933TIP3   OH230357   3.967   5.308   7.646
 2933TIP3    H130358   3.934   5.376   7.705
 2933TIP3    H230359   3.999   5.357   7.570
 2934TIP3   OH230360   1.436   0.902   8.552
 2934TIP3    H130361   1.439   0.912   8.457
 2934TIP3    H230362   1.419   0.809   8.566
 2935TIP3   OH230363   6.215   2.529   0.036
 2935TIP3    H130364   6.297   2.529   8.721
 2935TIP3    H230365   6.222   2.606   0.093
 2936TIP3   OH230366   4.438   5.569   0.530
 2936TIP3    H130367   4.528   5.565   0.498
 2936TIP3    H230368   4.387   5.524   0.462
 2937TIP3   OH230369   2.190   1.929   7.026
 2937TIP3    H130370   2.159   1.857   6.970
 2937TIP3    H230371   2.155   2.008   6.985
 2938TIP3   OH230372   1.428   0.151   7.295
 2938TIP3    H130373   1.510   0.122   7.254
 2938TIP3    H230374   1.456   0.219   7.357
 2939TIP3   OH230375   6.032   2.355   0.554
 2939TIP3    H130376   5.957   2.310   0.515
 2939TIP3    H230377   6.032   2.326   0.646
 2940TIP3   OH230378   6.195   5.398   1.412
 2940TIP3    H130379   6.122   5.343   1.385
 2940TIP3    H230380   6.158   5.458   1.477
 2941TIP3   OH230381   5.729   5.686   0.771
 2941TIP3    H130382   5.748   5.627   0.844
 2941TIP3    H230383   5.814   5.716   0.740
 2942TIP3   OH230384   5.920   1.539   1.129
 2942TIP3    H130385   5.939   1.473   1.063
 2942TIP3    H230386   6.002   1.549   1.177
 2943TIP3   OH230387   2.412   2.099   7.132
 2943TIP3    H130388   2.427   2.107   7.037
 2943TIP3    H230389   2.340   2.035   7.139
 2944TIP3   OH230390   0.231   0.819   6.296
 2944TIP3    H130391   0.176   0.873   6.238
 2944TIP3    H230392   0.191   0.732   6.292
 2945TIP3   OH230393   6.356   5.808   8.121
 2945TIP3    H130394   6.362   5.781   8.212
 2945TIP3    H230395   6.266   5.838   8.110
 2946TIP3   OH230396   5.063   6.468   6.942
 2946TIP3    H130397   5.075   6.445   7.034
 2946TIP3    H230398   5.079   6.386   6.894
 2947TIP3   OH230399   3.316   1.882   8.443
 2947TIP3    H130400   3.356   1.953   8.394
 2947TIP3    H230401   3.389   1.840   8.489
 2948TIP3   OH230402   4.324   2.283   1.842
 2948TIP3    H130403   4.369   2.363   1.870
 2948TIP3    H230404   4.315   2.232   1.922
 2949TIP3   OH230405   0.304   3.388   8.044
 2949TIP3    H130406   0.345   3.416   8.126
 2949TIP3    H230407   0.329   3.296   8.035
 2950TIP3   OH230408   2.145   0.025   1.964
 2950TIP3    H130409   2.209   0.095   1.955
 2950TIP3    H230410   2.144   0.006   2.058
 2951TIP3   OH230411   5.094   0.395   8.409
 2951TIP3    H130412   5.163   0.406   8.475
 2951TIP3    H230413   5.119   0.454   8.338
 2952TIP3   OH230414   1.715   4.048   1.543
 2952TIP3    H130415   1.632   4.092   1.526
 2952TIP3    H230416   1.747   4.087   1.624
 2953TIP3   OH230417   2.467   0.336   2.386
 2953TIP3    H130418   2.390   0.356   2.440
 2953TIP3    H230419   2.537   0.390   2.423
 2954TIP3   OH230420   3.378   5.149   8.708
 2954TIP3    H130421   3.409   5.224   8.657
 2954TIP3    H230422   3.441   5.079   8.687
 2955TIP3   OH230423   1.337   3.277   0.974
 2955TIP3    H130424   1.431   3.263   0.974
 2955TIP3    H230425   1.318   3.316   0.889
 2956TIP3   OH230426   5.320   3.492   6.785
 2956TIP3    H130427   5.388   3.503   6.719
 2956TIP3    H230428   5.247   3.547   6.754
 2957TIP3   OH230429   2.772   6.094   6.608
 2957TIP3    H130430   2.803   6.009   6.640
 2957TIP3    H230431   2.706   6.072   6.543
 2958TIP3   OH230432   3.568   2.346   8.099
 2958TIP3    H130433   3.586   2.340   8.005
 2958TIP3    H230434   3.486   2.298   8.111
 2959TIP3   OH230435   6.729   0.767   0.987
 2959TIP3    H130436   6.667   0.706   0.948
 2959TIP3    H230437   6.680   0.810   1.057
 2960TIP3   OH230438   0.657   2.650   1.336
 2960TIP3    H130439   0.621   2.636   1.249
 2960TIP3    H230440   0.751   2.653   1.323
 2961TIP3   OH230441   5.687   0.054   1.424
 2961TIP3    H130442   5.719   6.818   1.472
 2961TIP3    H230443   5.594   0.060   1.446
 2962TIP3   OH230444   1.879   6.758   7.064
 2962TIP3    H130445   1.840   6.701   6.997
 2962TIP3    H230446   1.967   6.776   7.031
 2963TIP3   OH230447   0.483   3.900   1.105
 2963TIP3    H130448   0.443   3.866   1.025
 2963TIP3    H230449   0.512   3.988   1.082
 2964TIP3   OH230450   2.387   4.756   6.586
 2964TIP3    H130451   2.342   4.837   6.612
 2964TIP3    H230452   2.389   4.760   6.490
 2965TIP3   OH230453   3.033   0.970   8.427
 2965TIP3    H130454   3.043   0.878   8.400
 2965TIP3    H230455   3.094   1.018   8.371
 2966TIP3   OH230456   2.963   4.390   7.059
 2966TIP3    H130457   2.978   4.322   7.125
 2966TIP3    H230458   2.874   4.376   7.029
 2967TIP3   OH230459   1.239   3.920   8.053
 2967TIP3    H130460   1.188   3.884   7.980
 2967TIP3    H230461   1.288   3.993   8.014
 2968TIP3   OH230462   6.248   1.976   6.543
 2968TIP3    H130463   6.220   1.928   6.465
 2968TIP3    H230464   6.312   2.040   6.511
 2969TIP3   OH230465   2.061   0.128   1.715
 2969TIP3    H130466   2.073   0.061   1.647
 2969TIP3    H230467   2.077   0.081   1.797
 2970TIP3   OH230468   3.719   2.253   1.215
 2970TIP3    H130469   3.787   2.311   1.179
 2970TIP3    H230470   3.712   2.279   1.307
 2971TIP3   OH230471   4.436   1.298   1.062
 2971TIP3    H130472   4.425   1.222   1.004
 2971TIP3    H230473   4.519   1.337   1.036
 2972TIP3   OH230474   5.888   1.266   1.379
 2972TIP3    H130475   5.879   1.355   1.413
 2972TIP3    H230476   5.826   1.261   1.306
 2973TIP3   OH230477   5.177   6.464   7.507
 2973TIP3    H130478   5.215   6.422   7.585
 2973TIP3    H230479   5.248   6.466   7.443
 2974TIP3   OH230480   1.016   5.344   8.485
 2974TIP3    H130481   0.991   5.375   8.398
 2974TIP3    H230482   1.059   5.419   8.526
 2975TIP3   OH230483   3.136   2.341   8.400
 2975TIP3    H130484   3.167   2.341   8.309
 2975TIP3    H230485   3.148   2.251   8.430
 2976TIP3   OH230486   3.076   3.396   7.979
 2976TIP3    H130487   3.035   3.479   8.001
 2976TIP3    H230488   3.071   3.392   7.884
 2977TIP3   OH230489   4.817   0.975   0.792
 2977TIP3    H130490   4.799   0.930   0.710
 2977TIP3    H230491   4.776   1.061   0.782
 2978TIP3   OH230492   1.046   6.019   1.614
 2978TIP3    H130493   0.962   6.063   1.602
 2978TIP3    H230494   1.054   5.962   1.538
 2979TIP3   OH230495   2.046   2.173   1.652
 2979TIP3    H130496   2.132   2.202   1.683
 2979TIP3    H230497   1.986   2.241   1.682
 2980TIP3   OH230498   4.996   4.270   1.046
 2980TIP3    H130499   5.012   4.334   0.977
 2980TIP3    H230500   5.034   4.308   1.124
 2981TIP3   OH230501   6.430   1.182   7.433
 2981TIP3    H130502   6.335   1.181   7.444
 2981TIP3    H230503   6.457   1.090   7.442
 2982TIP3   OH230504   0.420   2.626   0.666
 2982TIP3    H130505   0.352   2.573   0.626
 2982TIP3    H230506   0.387   2.646   0.754
 2983TIP3   OH230507   6.044   2.019   1.087
 2983TIP3    H130508   6.072   1.961   1.158
 2983TIP3    H230509   6.093   2.100   1.102
 2984TIP3   OH230510   6.207   2.707   7.255
 2984TIP3    H130511   6.183   2.709   7.347
 2984TIP3    H230512   6.125   2.686   7.209
 2985TIP3   OH230513   4.451   3.076   5.842
 2985TIP3    H130514   4.397   3.104   5.916
 2985TIP3    H230515   4.537   3.112   5.860
 2986TIP3   OH230516   6.512   6.757   0.594
 2986TIP3    H130517   6.440   6.820   0.594
 2986TIP3    H230518   6.500   6.707   0.676
 2987TIP3   OH230519   3.571   0.318   0.158
 2987TIP3    H130520   3.537   0.252   0.097
 2987TIP3    H230521   3.659   0.287   0.180
 2988TIP3   OH230522   1.438   0.701   8.102
 2988TIP3    H130523   1.375   0.672   8.035
 2988TIP3    H230524   1.432   0.634   8.171
 2989TIP3   OH230525   0.842   1.629   1.903
 2989TIP3    H130526   0.911   1.617   1.839
 2989TIP3    H230527   0.885   1.615   1.988
 2990TIP3   OH230528   1.858   1.761   7.811
 2990TIP3    H130529   1.909   1.680   7.820
 2990TIP3    H230530   1.830   1.761   7.719
 2991TIP3   OH230531   2.369   6.448   7.064
 2991TIP3    H130532   2.461   6.428   7.079
 2991TIP3    H230533   2.368   6.489   6.977
 2992TIP3   OH230534   5.430   4.289   0.836
 2992TIP3    H130535   5.411   4.336   0.754
 2992TIP3    H230536   5.458   4.357   0.897
 2993TIP3   OH230537   3.010   3.812   8.177
 2993TIP3    H130538   3.046   3.856   8.100
 2993TIP3    H230539   2.967   3.735   8.142
 2994TIP3   OH230540   6.279   5.356   7.911
 2994TIP3    H130541   6.323   5.435   7.881
 2994TIP3    H230542   6.220   5.386   7.981
 2995TIP3   OH230543   1.722   1.275   7.039
 2995TIP3    H130544   1.749   1.284   6.947
 2995TIP3    H230545   1.779   1.334   7.087
 2996TIP3   OH230546   6.403   6.348   1.628
 2996TIP3    H130547   6.377   6.274   1.572
 2996TIP3    H230548   6.382   6.425   1.575
 2997TIP3   OH230549   1.088   4.088   1.089
 2997TIP3    H130550   1.180   4.099   1.065
 2997TIP3    H230551   1.055   4.022   1.028
 2998TIP3   OH230552   6.097   3.750   2.522
 2998TIP3    H130553   6.173   3.700   2.552
 2998TIP3    H230554   6.061   3.790   2.602
 2999TIP3   OH230555   6.117   4.880   8.199
 2999TIP3    H130556   6.110   4.974   8.184
 2999TIP3    H230557   6.157   4.873   8.286
 3000TIP3   OH230558   4.402   3.630   7.579
 3000TIP3    H130559   4.358   3.711   7.606
 3000TIP3    H230560   4.401   3.575   7.657
 3001TIP3   OH230561   0.618   3.729   7.064
 3001TIP3    H130562   0.685   3.790   7.094
 3001TIP3    H230563   0.609   3.667   7.136
 3002TIP3   OH230564   6.551   5.656   2.148
 3002TIP3    H130565   6.623   5.630   2.091
 3002TIP3    H230566   6.551   5.590   2.218
 3003TIP3   OH230567   1.252   6.153   1.858
 3003TIP3    H130568   1.218   6.203   1.932
 3003TIP3    H230569   1.173   6.119   1.815
 3004TIP3   OH230570   6.288   4.582   0.952
 3004TIP3    H130571   6.262   4.634   1.028
 3004TIP3    H230572   6.368   4.538   0.980
 3005TIP3   OH230573   4.595   3.031   7.611
 3005TIP3    H130574   4.569   3.082   7.533
 3005TIP3    H230575   4.514   2.991   7.641
 3006TIP3   OH230576   0.708   2.135   8.043
 3006TIP3    H130577   0.673   2.141   8.132
 3006TIP3    H230578   0.687   2.219   8.003
 3007TIP3   OH230579   0.425   0.438   7.596
 3007TIP3    H130580   0.418   0.405   7.506
 3007TIP3    H230581   0.502   0.394   7.632
 3008TIP3   OH230582   5.453   2.233   8.320
 3008TIP3    H130583   5.540   2.208   8.351
 3008TIP3    H230584   5.428   2.307   8.376
 3009TIP3   OH230585   4.416   6.640   6.875
 3009TIP3    H130586   4.437   6.590   6.796
 3009TIP3    H230587   4.324   6.664   6.865
 3010TIP3   OH230588   3.267   2.931   0.720
 3010TIP3    H130589   3.246   2.960   0.809
 3010TIP3    H230590   3.346   2.878   0.730
 3011TIP3   OH230591   5.804   5.410   6.009
 3011TIP3    H130592   5.839   5.321   6.012
 3011TIP3    H230593   5.766   5.424   6.095
 3012TIP3   OH230594   3.370   6.518   6.706
 3012TIP3    H130595   3.393   6.611   6.710
 3012TIP3    H230596   3.296   6.514   6.646
 3013TIP3   OH230597   4.991   1.721   6.777
 3013TIP3    H130598   5.065   1.688   6.726
 3013TIP3    H230599   4.914   1.699   6.724
 3014TIP3   OH230600   3.369   3.005   7.436
 3014TIP3    H130601   3.436   3.057   7.481
 3014TIP3    H230602   3.286   3.043   7.466
 3015TIP3   OH230603   2.726   5.682   0.679
 3015TIP3    H130604   2.648   5.651   0.632
 3015TIP3    H230605   2.742   5.614   0.746
 3016TIP3   OH230606   5.302   3.553   7.706
 3016TIP3    H130607   5.369   3.582   7.768
 3016TIP3    H230608   5.280   3.631   7.655
 3017TIP3   OH230609   5.299   5.077   8.262
 3017TIP3    H130610   5.302   4.996   8.312
 3017TIP3    H230611   5.314   5.146   8.326
 3018TIP3   OH230612   0.398   0.637   1.281
 3018TIP3    H130613   0.363   0.676   1.200
 3018TIP3    H230614   0.321   0.620   1.335
 3019TIP3   OH230615   2.525   4.637   0.988
 3019TIP3    H130616   2.514   4.647   1.082
 3019TIP3    H230617   2.585   4.707   0.963
 3020TIP3   OH230618   6.430   0.471   1.804
 3020TIP3    H130619   6.456   0.455   1.713
 3020TIP3    H230620   6.384   0.555   1.801
 3021TIP3   OH230621   2.272   4.988   6.600
 3021TIP3    H130622   2.243   5.022   6.515
 3021TIP3    H230623   2.306   5.065   6.646
 3022TIP3   OH230624   0.816   3.684   2.212
 3022TIP3    H130625   0.756   3.651   2.279
 3022TIP3    H230626   0.772   3.666   2.129
 3023TIP3   OH230627   5.480   3.125   1.726
 3023TIP3    H130628   5.447   3.062   1.790
 3023TIP3    H230629   5.538   3.182   1.776
 3024TIP3   OH230630   1.502   3.822   6.936
 3024TIP3    H130631   1.443   3.882   6.890
 3024TIP3    H230632   1.513   3.749   6.875
 3025TIP3   OH230633   5.058   2.020   1.414
 3025TIP3    H130634   4.993   2.079   1.452
 3025TIP3    H230635   5.137   2.035   1.466
 3026TIP3   OH230636   6.366   1.065   1.370
 3026TIP3    H130637   6.278   1.088   1.400
 3026TIP3    H230638   6.358   0.975   1.338
 3027TIP3   OH230639   5.835   5.912   6.079
 3027TIP3    H130640   5.742   5.920   6.055
 3027TIP3    H230641   5.856   5.820   6.063
 3028TIP3   OH230642   0.261   3.771   6.150
 3028TIP3    H130643   0.282   3.679   6.136
 3028TIP3    H230644   0.338   3.819   6.120
 3029TIP3   OH230645   2.732   6.773   1.388
 3029TIP3    H130646   2.700   6.694   1.345
 3029TIP3    H230647   2.655   6.830   1.393
 3030TIP3   OH230648   0.721   6.581   7.039
 3030TIP3    H130649   0.702   6.641   6.967
 3030TIP3    H230650   0.647   6.520   7.041
 3031TIP3   OH230651   6.614   5.370   1.733
 3031TIP3    H130652   6.547   5.301   1.734
 3031TIP3    H230653   6.582   5.435   1.795
 3032TIP3   OH230654   1.156   6.603   1.129
 3032TIP3    H130655   1.241   6.566   1.153
 3032TIP3    H230656   1.096   6.528   1.132
 3033TIP3   OH230657   5.967   0.464   7.190
 3033TIP3    H130658   5.966   0.547   7.238
 3033TIP3    H230659   5.874   0.446   7.173
 3034TIP3   OH230660   6.566   4.541   8.613
 3034TIP3    H130661   6.614   4.523   8.532
 3034TIP3    H230662   6.632   4.529   8.682
 3035TIP3   OH230663   3.903   0.972   8.077
 3035TIP3    H130664   3.889   0.900   8.139
 3035TIP3    H230665   3.998   0.974   8.065
 3036TIP3   OH230666   3.234   3.140   6.966
 3036TIP3    H130667   3.329   3.130   6.960
 3036TIP3    H230668   3.218   3.233   6.953
 3037TIP3   OH230669   2.981   5.982   0.320
 3037TIP3    H130670   2.941   6.019   0.399
 3037TIP3    H230671   3.075   5.986   0.337
 3038TIP3   OH230672   2.909   6.625   6.633
 3038TIP3    H130673   2.931   6.674   6.553
 3038TIP3    H230674   2.934   6.683   6.704
 3039TIP3   OH230675   2.131   3.936   7.794
 3039TIP3    H130676   2.178   3.890   7.863
 3039TIP3    H230677   2.160   3.895   7.713
 3040TIP3   OH230678   3.685   6.205   7.582
 3040TIP3    H130679   3.766   6.191   7.631
 3040TIP3    H230680   3.628   6.133   7.610
 3041TIP3   OH230681   5.962   1.763   1.873
 3041TIP3    H130682   5.955   1.733   1.964
 3041TIP3    H230683   6.014   1.696   1.829
 3042TIP3   OH230684   2.027   6.388   2.243
 3042TIP3    H130685   1.935   6.378   2.218
 3042TIP3    H230686   2.035   6.340   2.326
 3043TIP3   OH230687   6.418   0.319   8.076
 3043TIP3    H130688   6.329   0.286   8.063
 3043TIP3    H230689   6.427   0.327   8.171
 3044TIP3   OH230690   0.890   6.803   7.687
 3044TIP3    H130691   0.848   6.719   7.672
 3044TIP3    H230692   0.956   6.810   7.617
 3045TIP3   OH230693   6.616   5.406   6.868
 3045TIP3    H130694   6.571   5.326   6.843
 3045TIP3    H230695   6.648   5.443   6.785
 3046TIP3   OH230696   6.360   2.962   2.206
 3046TIP3    H130697   6.441   2.913   2.193
 3046TIP3    H230698   6.301   2.927   2.139
 3047TIP3   OH230699   0.764   0.066   1.272
 3047TIP3    H130700   0.790   0.137   1.214
 3047TIP3    H230701   0.813   6.831   1.240
 3048TIP3   OH230702   2.513   6.582   6.577
 3048TIP3    H130703   2.593   6.531   6.587
 3048TIP3    H230704   2.447   6.520   6.546
 3049TIP3   OH230705   0.952   4.194   6.473
 3049TIP3    H130706   0.923   4.222   6.560
 3049TIP3    H230707   0.937   4.270   6.417
 3050TIP3   OH230708   0.826   0.285   1.124
 3050TIP3    H130709   0.827   0.368   1.076
 3050TIP3    H230710   0.918   0.257   1.126
 3051TIP3   OH230711   4.511   5.887   8.101
 3051TIP3    H130712   4.588   5.832   8.120
 3051TIP3    H230713   4.437   5.827   8.105
 3052TIP3   OH230714   0.728   2.502   7.851
 3052TIP3    H130715   0.779   2.437   7.803
 3052TIP3    H230716   0.651   2.454   7.882
 3053TIP3   OH230717   3.383   2.465   0.602
 3053TIP3    H130718   3.443   2.395   0.577
 3053TIP3    H230719   3.328   2.477   0.524
 3054TIP3   OH230720   6.164   5.167   8.159
 3054TIP3    H130721   6.177   5.254   8.120
 3054TIP3    H230722   6.206   5.173   8.245
 3055TIP3   OH230723   5.702   1.097   1.259
 3055TIP3    H130724   5.697   1.027   1.324
 3055TIP3    H230725   5.716   1.051   1.176
 3056TIP3   OH230726   2.794   6.637   7.099
 3056TIP3    H130727   2.768   6.675   7.183
 3056TIP3    H230728   2.740   6.682   7.034
 3057TIP3   OH230729   4.982   0.154   0.742
 3057TIP3    H130730   4.957   0.061   0.736
 3057TIP3    H230731   4.953   0.181   0.829
 3058TIP3   OH230732   2.699   2.859   6.886
 3058TIP3    H130733   2.736   2.801   6.820
 3058TIP3    H230734   2.622   2.897   6.844
 3059TIP3   OH230735   1.451   0.120   6.633
 3059TIP3    H130736   1.506   0.042   6.621
 3059TIP3    H230737   1.455   0.165   6.549
 3060TIP3   OH230738   3.273   2.673   6.956
 3060TIP3    H130739   3.211   2.653   7.027
 3060TIP3    H230740   3.219   2.674   6.877
 3061TIP3   OH230741   0.788   4.998   7.804
 3061TIP3    H130742   0.759   5.009   7.713
 3061TIP3    H230743   0.727   5.050   7.856
 3062TIP3   OH230744   5.481   5.008   6.898
 3062TIP3    H130745   5.400   5.059   6.895
 3062TIP3    H230746   5.470   4.940   6.831
 3063TIP3   OH230747   5.587   0.543   0.170
 3063TIP3    H130748   5.501   0.546   0.128
 3063TIP3    H230749   5.649   0.566   0.100
 3064TIP3   OH230750   2.147   6.549   2.014
 3064TIP3    H130751   2.198   6.630   2.009
 3064TIP3    H230752   2.079   6.560   1.947
 3065TIP3   OH230753   2.971   4.011   0.853
 3065TIP3    H130754   3.043   4.073   0.866
 3065TIP3    H230755   2.894   4.066   0.840
 3066TIP3   OH230756   6.293   4.488   0.065
 3066TIP3    H130757   6.256   4.561   0.015
 3066TIP3    H230758   6.322   4.426   8.733
 3067TIP3   OH230759   5.329   1.421   8.484
 3067TIP3    H130760   5.378   1.410   8.565
 3067TIP3    H230761   5.389   1.393   8.415
 3068TIP3   OH230762   6.283   5.612   7.194
 3068TIP3    H130763   6.212   5.574   7.142
 3068TIP3    H230764   6.360   5.560   7.170
 3069TIP3   OH230765   4.556   5.461   0.144
 3069TIP3    H130766   4.583   5.386   0.090
 3069TIP3    H230767   4.581   5.436   0.233
 3070TIP3   OH230768   1.215   4.118   6.614
 3070TIP3    H130769   1.152   4.063   6.568
 3070TIP3    H230770   1.287   4.058   6.636
 3071TIP3   OH230771   3.680   4.755   2.068
 3071TIP3    H130772   3.702   4.793   2.154
 3071TIP3    H230773   3.733   4.676   2.063
 3072TIP3   OH230774   4.771   4.981   1.615
 3072TIP3    H130775   4.782   5.024   1.530
 3072TIP3    H230776   4.707   5.035   1.661
 3073TIP3   OH230777   2.700   1.048   7.846
 3073TIP3    H130778   2.739   0.972   7.890
 3073TIP3    H230779   2.654   1.010   7.771
 3074TIP3   OH230780   1.436   1.760   0.596
 3074TIP3    H130781   1.353   1.747   0.550
 3074TIP3    H230782   1.486   1.680   0.580
 3075TIP3   OH230783   2.086   6.209   1.505
 3075TIP3    H130784   2.160   6.257   1.543
 3075TIP3    H230785   2.109   6.117   1.517
 3076TIP3   OH230786   4.722   2.581   2.403
 3076TIP3    H130787   4.669   2.522   2.456
 3076TIP3    H230788   4.683   2.667   2.417
 3077TIP3   OH230789   4.939   6.124   7.849
 3077TIP3    H130790   4.982   6.135   7.934
 3077TIP3    H230791   5.010   6.104   7.789
 3078TIP3   OH230792   1.697   2.221   1.419
 3078TIP3    H130793   1.663   2.200   1.507
 3078TIP3    H230794   1.783   2.181   1.417
 3079TIP3   OH230795   5.557   1.358   8.377
 3079TIP3    H130796   5.597   1.445   8.379
 3079TIP3    H230797   5.617   1.305   8.325
 3080TIP3   OH230798   3.161   5.124   6.965
 3080TIP3    H130799   3.080   5.128   6.914
 3080TIP3    H230800   3.139   5.169   7.047
 3081TIP3   OH230801   1.487   6.614   7.031
 3081TIP3    H130802   1.392   6.625   7.028
 3081TIP3    H230803   1.502   6.554   7.104
 3082TIP3   OH230804   0.831   1.074   0.924
 3082TIP3    H130805   0.777   1.119   0.860
 3082TIP3    H230806   0.787   0.990   0.937
 3083TIP3   OH230807   6.139   5.461   8.112
 3083TIP3    H130808   6.155   5.477   8.205
 3083TIP3    H230809   6.084   5.533   8.083
 3084TIP3   OH230810   2.226   4.365   7.665
 3084TIP3    H130811   2.312   4.334   7.639
 3084TIP3    H230812   2.200   4.307   7.737
 3085TIP3   OH230813   5.297   6.605   7.772
 3085TIP3    H130814   5.290   6.683   7.717
 3085TIP3    H230815   5.217   6.605   7.825
 3086TIP3   OH230816   1.336   2.895   6.823
 3086TIP3    H130817   1.295   2.950   6.890
 3086TIP3    H230818   1.265   2.874   6.763
 3087TIP3   OH230819   5.730   3.828   0.935
 3087TIP3    H130820   5.755   3.804   1.024
 3087TIP3    H230821   5.634   3.828   0.936
 3088TIP3   OH230822   0.991   1.190   7.686
 3088TIP3    H130823   0.992   1.281   7.716
 3088TIP3    H230824   0.975   1.138   7.765
 3089TIP3   OH230825   6.009   4.608   0.614
 3089TIP3    H130826   6.030   4.686   0.666
 3089TIP3    H230827   6.092   4.561   0.607
 3090TIP3   OH230828   1.771   2.149   0.233
 3090TIP3    H130829   1.732   2.064   0.217
 3090TIP3    H230830   1.698   2.204   0.262
 3091TIP3   OH230831   6.451   1.451   7.344
 3091TIP3    H130832   6.424   1.375   7.396
 3091TIP3    H230833   6.507   1.414   7.276
 3092TIP3   OH230834   2.861   4.777   0.383
 3092TIP3    H130835   2.850   4.712   0.313
 3092TIP3    H230836   2.945   4.756   0.422
 3093TIP3   OH230837   3.893   2.433   8.484
 3093TIP3    H130838   3.835   2.410   8.556
 3093TIP3    H230839   3.899   2.354   8.431
 3094TIP3   OH230840   3.302   1.161   1.760
 3094TIP3    H130841   3.352   1.080   1.758
 3094TIP3    H230842   3.219   1.138   1.716
 3095TIP3   OH230843   1.382   5.608   1.080
 3095TIP3    H130844   1.326   5.553   1.025
 3095TIP3    H230845   1.434   5.659   1.018
 3096TIP3   OH230846   2.362   4.481   1.206
 3096TIP3    H130847   2.350   4.393   1.170
 3096TIP3    H230848   2.275   4.507   1.235
 3097TIP3   OH230849   6.152   0.423   1.085
 3097TIP3    H130850   6.095   0.469   1.146
 3097TIP3    H230851   6.133   0.330   1.100
 3098TIP3   OH230852   0.904   2.642   7.540
 3098TIP3    H130853   0.873   2.551   7.549
 3098TIP3    H230854   0.998   2.636   7.556
 3099TIP3   OH230855   6.588   0.245   6.685
 3099TIP3    H130856   6.659   0.307   6.703
 3099TIP3    H230857   6.631   0.174   6.637
 3100TIP3   OH230858   2.759   5.252   8.693
 3100TIP3    H130859   2.778   5.200   8.614
 3100TIP3    H230860   2.813   5.211   0.027
 3101TIP3   OH230861   1.989   6.385   7.844
 3101TIP3    H130862   2.020   6.296   7.833
 3101TIP3    H230863   1.897   6.382   7.818
 3102TIP3   OH230864   5.889   4.301   8.125
 3102TIP3    H130865   5.970   4.350   8.111
 3102TIP3    H230866   5.850   4.341   8.203
 3103TIP3   OH230867   1.995   2.197   7.472
 3103TIP3    H130868   1.910   2.215   7.511
 3103TIP3    H230869   1.989   2.231   7.383
 3104TIP3   OH230870   4.489   0.376   8.497
 3104TIP3    H130871   4.549   0.320   8.546
 3104TIP3    H230872   4.513   0.364   8.406
 3105TIP3   OH230873   2.492   1.711   7.920
 3105TIP3    H130874   2.408   1.753   7.900
 3105TIP3    H230875   2.508   1.733   8.012
 3106TIP3   OH230876   3.124   3.409   1.796
 3106TIP3    H130877   3.181   3.359   1.855
 3106TIP3    H230878   3.059   3.449   1.853
 3107TIP3   OH230879   6.255   1.978   7.801
 3107TIP3    H130880   6.324   1.977   7.868
 3107TIP3    H230881   6.204   2.057   7.821
 3108TIP3   OH230882   3.965   3.970   6.577
 3108TIP3    H130883   3.930   4.029   6.510
 3108TIP3    H230884   3.888   3.927   6.614
 3109TIP3   OH230885   4.919   2.087   0.390
 3109TIP3    H130886   5.008   2.059   0.372
 3109TIP3    H230887   4.928   2.169   0.438
 3110TIP3   OH230888   2.401   1.301   6.662
 3110TIP3    H130889   2.397   1.383   6.613
 3110TIP3    H230890   2.380   1.234   6.597
 3111TIP3   OH230891   2.829   2.887   7.139
 3111TIP3    H130892   2.894   2.956   7.126
 3111TIP3    H230893   2.774   2.890   7.060
 3112TIP3   OH230894   1.271   1.812   0.847
 3112TIP3    H130895   1.308   1.804   0.759
 3112TIP3    H230896   1.233   1.899   0.849
 3113TIP3   OH230897   1.807   2.929   0.259
 3113TIP3    H130898   1.811   3.023   0.241
 3113TIP3    H230899   1.714   2.912   0.276
 3114TIP3   OH230900   2.701   0.671   0.301
 3114TIP3    H130901   2.708   0.662   0.396
 3114TIP3    H230902   2.760   0.743   0.280
 3115TIP3   OH230903   3.225   3.705   0.877
 3115TIP3    H130904   3.289   3.768   0.908
 3115TIP3    H230905   3.190   3.665   0.956
 3116TIP3   OH230906   3.469   1.056   0.752
 3116TIP3    H130907   3.403   1.125   0.765
 3116TIP3    H230908   3.501   1.037   0.840
 3117TIP3   OH230909   2.371   2.675   0.046
 3117TIP3    H130910   2.437   2.662   0.115
 3117TIP3    H230911   2.376   2.596   8.727
 3118TIP3   OH230912   6.568   6.224   2.297
 3118TIP3    H130913   6.568   6.281   2.374
 3118TIP3    H230914   6.659   6.196   2.288
 3119TIP3   OH230915   1.009   2.948   6.317
 3119TIP3    H130916   1.042   2.997   6.242
 3119TIP3    H230917   0.915   2.938   6.301
 3120TIP3   OH230918   6.786   0.414   6.781
 3120TIP3    H130919   0.033   0.391   6.749
 3120TIP3    H230920   6.795   0.506   6.808
 3121TIP3   OH230921   4.173   0.587   6.485
 3121TIP3    H130922   4.230   0.594   6.408
 3121TIP3    H230923   4.230   0.551   6.553
 3122TIP3   OH230924   0.492   0.219   1.331
 3122TIP3    H130925   0.546   0.269   1.392
 3122TIP3    H230926   0.531   0.131   1.331
 3123TIP3   OH230927   5.853   3.325   0.145
 3123TIP3    H130928   5.943   3.355   0.131
 3123TIP3    H230929   5.850   3.238   0.104
 3124TIP3   OH230930   1.636   0.684   6.971
 3124TIP3    H130931   1.599   0.622   7.033
 3124TIP3    H230932   1.620   0.770   7.010
 3125TIP3   OH230933   6.361   2.185   7.043
 3125TIP3    H130934   6.311   2.266   7.048
 3125TIP3    H230935   6.404   2.178   7.128
 3126TIP3   OH230936   0.546   5.821   6.534
 3126TIP3    H130937   0.451   5.832   6.537
 3126TIP3    H230938   0.582   5.904   6.565
 3127TIP3   OH230939   6.031   0.825   1.672
 3127TIP3    H130940   5.958   0.854   1.618
 3127TIP3    H230941   6.011   0.733   1.692
 3128TIP3   OH230942   2.730   3.736   7.522
 3128TIP3    H130943   2.664   3.738   7.591
 3128TIP3    H230944   2.694   3.677   7.456
 3129TIP3   OH230945   5.675   1.936   2.037
 3129TIP3    H130946   5.645   1.860   1.987
 3129TIP3    H230947   5.691   2.003   1.970
 3130TIP3   OH230948   3.434   5.262   1.339
 3130TIP3    H130949   3.526   5.267   1.315
 3130TIP3    H230950   3.433   5.286   1.432
 3131TIP3   OH230951   1.177   2.373   8.047
 3131TIP3    H130952   1.135   2.290   8.070
 3131TIP3    H230953   1.259   2.374   8.098
 3132TIP3   OH230954   3.238   0.436   6.977
 3132TIP3    H130955   3.263   0.514   6.927
 3132TIP3    H230956   3.291   0.441   7.057
 3133TIP3   OH230957   4.027   3.127   6.783
 3133TIP3    H130958   4.075   3.101   6.705
 3133TIP3    H230959   3.988   3.046   6.815
 3134TIP3   OH230960   6.436   2.359   0.735
 3134TIP3    H130961   6.462   2.422   0.668
 3134TIP3    H230962   6.351   2.325   0.705
 3135TIP3   OH230963   1.359   5.933   8.725
 3135TIP3    H130964   1.415   5.954   0.065
 3135TIP3    H230965   1.403   5.860   8.682
 3136TIP3   OH230966   1.968   1.775   2.027
 3136TIP3    H130967   1.970   1.697   2.084
 3136TIP3    H230968   1.899   1.829   2.064
 3137TIP3   OH230969   2.288   4.738   7.551
 3137TIP3    H130970   2.214   4.796   7.567
 3137TIP3    H230971   2.254   4.673   7.489
 3138TIP3   OH230972   2.818   0.804   7.394
 3138TIP3    H130973   2.900   0.824   7.349
 3138TIP3    H230974   2.846   0.776   7.482
 3139TIP3   OH230975   5.972   0.798   1.149
 3139TIP3    H130976   5.986   0.720   1.096
 3139TIP3    H230977   6.008   0.775   1.235
 3140TIP3   OH230978   0.056   5.059   2.499
 3140TIP3    H130979   0.115   5.085   2.428
 3140TIP3    H230980   0.086   4.972   2.524
 3141TIP3   OH230981   2.952   4.765   1.229
 3141TIP3    H130982   2.856   4.772   1.225
 3141TIP3    H230983   2.973   4.694   1.169
 3142TIP3   OH230984   5.062   2.298   1.184
 3142TIP3    H130985   5.145   2.332   1.152
 3142TIP3    H230986   5.074   2.203   1.186
 3143TIP3   OH230987   4.965   0.774   7.578
 3143TIP3    H130988   4.877   0.798   7.610
 3143TIP3    H230989   4.990   0.846   7.521
 3144TIP3   OH230990   5.409   4.774   6.278
 3144TIP3    H130991   5.455   4.829   6.341
 3144TIP3    H230992   5.405   4.688   6.321
 3145TIP3   OH230993   4.565   4.991   8.657
 3145TIP3    H130994   4.555   4.955   8.569
 3145TIP3    H230995   4.636   5.055   8.648
 3146TIP3   OH230996   0.736   1.249   0.703
 3146TIP3    H130997   0.684   1.309   0.756
 3146TIP3    H230998   0.677   1.220   0.634
 3147TIP3   OH230999   1.016   6.783   0.020
 3147TIP3    H131000   1.080   6.714   0.038
 3147TIP3    H231001   0.966   6.751   8.679
 3148TIP3   OH231002   2.088   0.517   7.291
 3148TIP3    H131003   2.064   0.427   7.267
 3148TIP3    H231004   2.080   0.519   7.386
 3149TIP3   OH231005   4.484   6.561   0.932
 3149TIP3    H131006   4.506   6.539   0.841
 3149TIP3    H231007   4.495   6.479   0.980
 3150TIP3   OH231008   3.399   6.497   0.355
 3150TIP3    H131009   3.315   6.514   0.398
 3150TIP3    H231010   3.431   6.416   0.394
 3151TIP3   OH231011   3.053   0.729   1.905
 3151TIP3    H131012   3.109   0.759   1.975
 3151TIP3    H231013   3.016   0.646   1.937
 3152TIP3   OH231014   2.390   3.379   1.425
 3152TIP3    H131015   2.317   3.427   1.386
 3152TIP3    H231016   2.406   3.306   1.365
 3153TIP3   OH231017   1.550   3.169   7.456
 3153TIP3    H131018   1.507   3.147   7.538
 3153TIP3    H231019   1.643   3.154   7.473
 3154TIP3   OH231020   4.557   6.564   1.403
 3154TIP3    H131021   4.503   6.636   1.435
 3154TIP3    H231022   4.515   6.485   1.438
 3155TIP3   OH231023   6.095   2.039   8.627
 3155TIP3    H131024   6.140   2.068   8.548
 3155TIP3    H231025   6.024   1.982   8.595
 3156TIP3   OH231026   2.053   2.204   6.983
 3156TIP3    H131027   2.100   2.276   6.941
 3156TIP3    H231028   2.062   2.221   7.077
 3157TIP3   OH231029   5.668   6.751   2.039
 3157TIP3    H131030   5.741   6.716   2.091
 3157TIP3    H231031   5.595   6.756   2.100
 3158TIP3   OH231032   4.522   6.291   1.986
 3158TIP3    H131033   4.557   6.302   1.898
 3158TIP3    H231034   4.536   6.198   2.007
 3159TIP3   OH231035   0.189   1.560   0.376
 3159TIP3    H131036   0.277   1.600   0.373
 3159TIP3    H231037   0.206   1.467   0.389
 3160TIP3   OH231038   1.156   2.483   7.177
 3160TIP3    H131039   1.120   2.547   7.115
 3160TIP3    H231040   1.154   2.400   7.129
 3161TIP3   OH231041   6.343   4.386   6.876
 3161TIP3    H131042   6.371   4.464   6.830
 3161TIP3    H231043   6.262   4.412   6.920
 3162TIP3   OH231044   5.300   1.231   0.252
 3162TIP3    H131045   5.210   1.197   0.260
 3162TIP3    H231046   5.292   1.325   0.266
 3163TIP3   OH231047   4.786   1.424   7.669
 3163TIP3    H131048   4.865   1.457   7.627
 3163TIP3    H231049   4.716   1.480   7.636
 3164TIP3   OH231050   5.740   6.825   0.242
 3164TIP3    H131051   5.747   0.078   0.227
 3164TIP3    H231052   5.735   6.787   0.154
 3165TIP3   OH231053   2.429   4.914   1.834
 3165TIP3    H131054   2.497   4.847   1.844
 3165TIP3    H231055   2.401   4.934   1.923
 3166TIP3   OH231056   4.727   1.645   7.216
 3166TIP3    H131057   4.779   1.720   7.188
 3166TIP3    H231058   4.651   1.645   7.158
 3167TIP3   OH231059   2.843   5.483   7.710
 3167TIP3    H131060   2.913   5.419   7.708
 3167TIP3    H231061   2.768   5.436   7.747
 3168TIP3   OH231062   0.513   0.710   6.370
 3168TIP3    H131063   0.448   0.771   6.335
 3168TIP3    H231064   0.547   0.754   6.449
 3169TIP3   OH231065   0.587   4.753   7.886
 3169TIP3    H131066   0.635   4.717   7.811
 3169TIP3    H231067   0.538   4.828   7.849
 3170TIP3   OH231068   3.707   5.418   8.286
 3170TIP3    H131069   3.791   5.405   8.243
 3170TIP3    H231070   3.657   5.340   8.265
 3171TIP3   OH231071   4.222   2.004   0.847
 3171TIP3    H131072   4.306   2.050   0.842
 3171TIP3    H231073   4.231   1.946   0.922
 3172TIP3   OH231074   6.823   1.268   8.360
 3172TIP3    H131075   0.023   1.300   8.440
 3172TIP3    H231076   6.797   1.347   8.312
 3173TIP3   OH231077   1.028   4.606   1.125
 3173TIP3    H131078   0.971   4.658   1.181
 3173TIP3    H231079   1.006   4.633   1.036
 3174TIP3   OH231080   6.739   3.992   8.362
 3174TIP3    H131081   6.760   3.980   8.270
 3174TIP3    H231082   6.683   4.069   8.364
 3175TIP3   OH231083   4.030   0.302   6.893
 3175TIP3    H131084   4.053   0.393   6.876
 3175TIP3    H231085   4.104   0.251   6.859
 3176TIP3   OH231086   2.026   5.817   7.911
 3176TIP3    H131087   2.094   5.753   7.890
 3176TIP3    H231088   2.072   5.887   7.956
 3177TIP3   OH231089   4.760   1.756   1.957
 3177TIP3    H131090   4.812   1.780   2.033
 3177TIP3    H231091   4.673   1.737   1.993
 3178TIP3   OH231092   0.060   4.287   6.701
 3178TIP3    H131093   0.147   4.319   6.679
 3178TIP3    H231094   0.075   4.224   6.771
 3179TIP3   OH231095   3.021   6.465   7.377
 3179TIP3    H131096   3.049   6.420   7.297
 3179TIP3    H231097   2.926   6.466   7.372
 3180TIP3   OH231098   3.999   6.737   0.238
 3180TIP3    H131099   4.063   6.805   0.260
 3180TIP3    H231100   4.052   6.658   0.224
 3181TIP3   OH231101   4.267   2.874   2.178
 3181TIP3    H131102   4.318   2.803   2.142
 3181TIP3    H231103   4.176   2.849   2.162
 3182TIP3   OH231104   2.217   1.208   2.656
 3182TIP3    H131105   2.297   1.158   2.672
 3182TIP3    H231106   2.230   1.247   2.570
 3183TIP3   OH231107   5.141   0.063   7.379
 3183TIP3    H131108   5.235   0.078   7.383
 3183TIP3    H231109   5.118   0.030   7.466
 3184TIP3   OH231110   5.305   2.478   7.412
 3184TIP3    H131111   5.222   2.509   7.449
 3184TIP3    H231112   5.301   2.504   7.320
 3185TIP3   OH231113   5.998   6.811   0.687
 3185TIP3    H131114   5.920   6.783   0.640
 3185TIP3    H231115   5.966   0.030   0.754
 3186TIP3   OH231116   4.183   4.647   0.021
 3186TIP3    H131117   4.237   4.720   8.726
 3186TIP3    H231118   4.210   4.633   0.112
 3187TIP3   OH231119   2.279   2.721   7.576
 3187TIP3    H131120   2.236   2.732   7.491
 3187TIP3    H231121   2.290   2.810   7.609
 3188TIP3   OH231122   0.616   5.201   1.194
 3188TIP3    H131123   0.615   5.287   1.150
 3188TIP3    H231124   0.659   5.143   1.132
 3189TIP3   OH231125   0.820   1.899   8.012
 3189TIP3    H131126   0.899   1.915   7.961
 3189TIP3    H231127   0.788   1.986   8.035
 3190TIP3   OH231128   3.738   3.113   6.730
 3190TIP3    H131129   3.661   3.169   6.727
 3190TIP3    H231130   3.749   3.092   6.823
 3191TIP3   OH231131   0.336   0.390   1.943
 3191TIP3    H131132   0.291   0.362   2.022
 3191TIP3    H231133   0.345   0.310   1.891
 3192TIP3   OH231134   2.730   0.516   7.958
 3192TIP3    H131135   2.811   0.543   7.915
 3192TIP3    H231136   2.758   0.482   8.043
 3193TIP3   OH231137   2.030   5.740   7.522
 3193TIP3    H131138   1.977   5.676   7.569
 3193TIP3    H231139   2.033   5.707   7.432
 3194TIP3   OH231140   5.346   6.643   1.681
 3194TIP3    H131141   5.368   6.735   1.697
 3194TIP3    H231142   5.251   6.644   1.668
 3195TIP3   OH231143   4.294   4.195   1.981
 3195TIP3    H131144   4.269   4.102   1.987
 3195TIP3    H231145   4.278   4.230   2.068
 3196TIP3   OH231146   1.369   2.652   7.294
 3196TIP3    H131147   1.378   2.602   7.375
 3196TIP3    H231148   1.295   2.611   7.249
 3197TIP3   OH231149   2.155   6.738   1.612
 3197TIP3    H131150   2.158   6.658   1.559
 3197TIP3    H231151   2.233   6.733   1.666
 3198TIP3   OH231152   0.548   1.974   6.678
 3198TIP3    H131153   0.638   1.963   6.646
 3198TIP3    H231154   0.497   1.994   6.599
 3199TIP3   OH231155   1.992   3.485   7.874
 3199TIP3    H131156   1.930   3.416   7.850
 3199TIP3    H231157   1.938   3.563   7.886
 3200TIP3   OH231158   3.611   3.401   0.124
 3200TIP3    H131159   3.531   3.409   0.176
 3200TIP3    H231160   3.680   3.438   0.180
 3201TIP3   OH231161   6.511   0.103   1.927
 3201TIP3    H131162   6.579   0.068   1.985
 3201TIP3    H231163   6.435   0.116   1.985
 3202TIP3   OH231164   1.279   0.479   8.708
 3202TIP3    H131165   1.324   0.479   0.058
 3202TIP3    H231166   1.248   0.389   8.698
 3203TIP3   OH231167   1.676   5.895   0.578
 3203TIP3    H131168   1.640   5.810   0.551
 3203TIP3    H231169   1.599   5.949   0.597
 3204TIP3   OH231170   0.687   3.406   8.582
 3204TIP3    H131171   0.608   3.385   8.632
 3204TIP3    H231172   0.717   3.322   8.547
 3205TIP3   OH231173   0.668   4.615   1.657
 3205TIP3    H131174   0.748   4.667   1.664
 3205TIP3    H231175   0.633   4.612   1.746
 3206TIP3   OH231176   3.714   0.886   0.389
 3206TIP3    H131177   3.687   0.798   0.413
 3206TIP3    H231178   3.790   0.905   0.444
 3207TIP3   OH231179   1.708   3.844   1.716
 3207TIP3    H131180   1.702   3.881   1.628
 3207TIP3    H231181   1.627   3.795   1.727
 3208TIP3   OH231182   1.867   5.968   6.828
 3208TIP3    H131183   1.859   5.900   6.761
 3208TIP3    H231184   1.926   6.033   6.789
 3209TIP3   OH231185   5.356   4.004   0.794
 3209TIP3    H131186   5.443   3.987   0.757
 3209TIP3    H231187   5.330   4.088   0.756
 3210TIP3   OH231188   6.108   4.336   6.552
 3210TIP3    H131189   6.154   4.393   6.490
 3210TIP3    H231190   6.057   4.277   6.496
 3211TIP3   OH231191   5.914   6.687   6.869
 3211TIP3    H131192   5.950   6.719   6.787
 3211TIP3    H231193   5.839   6.633   6.843
 3212TIP3   OH231194   2.503   2.963   8.163
 3212TIP3    H131195   2.494   3.008   8.247
 3212TIP3    H231196   2.455   3.018   8.100
 3213TIP3   OH231197   5.360   5.552   0.054
 3213TIP3    H131198   5.370   5.606   0.133
 3213TIP3    H231199   5.445   5.508   0.045
 3214TIP3   OH231200   6.728   5.466   0.734
 3214TIP3    H131201   6.799   5.402   0.721
 3214TIP3    H231202   6.768   5.536   0.786
 3215TIP3   OH231203   6.430   4.529   7.798
 3215TIP3    H131204   6.502   4.582   7.763
 3215TIP3    H231205   6.445   4.442   7.763
 3216TIP3   OH231206   1.703   4.790   6.860
 3216TIP3    H131207   1.706   4.818   6.769
 3216TIP3    H231208   1.700   4.871   6.910
 3217TIP3   OH231209   5.546   3.329   6.486
 3217TIP3    H131210   5.560   3.404   6.543
 3217TIP3    H231211   5.611   3.340   6.416
 3218TIP3   OH231212   5.136   5.401   0.989
 3218TIP3    H131213   5.137   5.373   1.081
 3218TIP3    H231214   5.061   5.460   0.983
 3219TIP3   OH231215   2.956   2.842   8.536
 3219TIP3    H131216   2.973   2.842   8.630
 3219TIP3    H231217   2.964   2.751   8.509
 3220TIP3   OH231218   0.596   0.133   1.033
 3220TIP3    H131219   0.522   0.160   1.087
 3220TIP3    H231220   0.669   0.189   1.061
 3221TIP3   OH231221   4.530   6.736   8.484
 3221TIP3    H131222   4.584   6.661   8.461
 3221TIP3    H231223   4.577   6.812   8.450
 3222TIP3   OH231224   3.834   6.595   0.709
 3222TIP3    H131225   3.879   6.523   0.753
 3222TIP3    H231226   3.853   6.583   0.616
 3223TIP3   OH231227   5.221   1.273   1.784
 3223TIP3    H131228   5.171   1.249   1.706
 3223TIP3    H231229   5.283   1.339   1.754
 3224TIP3   OH231230   6.533   4.216   8.350
 3224TIP3    H131231   6.504   4.199   8.260
 3224TIP3    H231232   6.556   4.308   8.351
 3225TIP3   OH231233   6.755   1.200   1.508
 3225TIP3    H131234   6.811   1.133   1.546
 3225TIP3    H231235   6.715   1.243   1.584
 3226TIP3   OH231236   5.202   6.675   2.111
 3226TIP3    H131237   5.191   6.641   2.022
 3226TIP3    H231238   5.113   6.679   2.147
 3227TIP3   OH231239   4.317   1.731   2.031
 3227TIP3    H131240   4.375   1.686   1.969
 3227TIP3    H231241   4.346   1.701   2.117
 3228TIP3   OH231242   4.885   5.132   7.052
 3228TIP3    H131243   4.852   5.186   6.980
 3228TIP3    H231244   4.813   5.129   7.115
 3229TIP3   OH231245   0.394   1.107   8.615
 3229TIP3    H131246   0.365   1.164   8.686
 3229TIP3    H231247   0.362   1.150   8.535
 3230TIP3   OH231248   2.409   5.515   1.162
 3230TIP3    H131249   2.468   5.464   1.218
 3230TIP3    H231250   2.390   5.457   1.088
 3231TIP3   OH231251   0.098   0.030   7.187
 3231TIP3    H131252   0.105   0.120   7.157
 3231TIP3    H231253   0.187   0.007   7.215
 3232TIP3   OH231254   1.898   3.135   0.830
 3232TIP3    H131255   1.989   3.161   0.817
 3232TIP3    H231256   1.849   3.217   0.821
 3233TIP3   OH231257   6.256   1.265   8.062
 3233TIP3    H131258   6.288   1.274   7.972
 3233TIP3    H231259   6.308   1.194   8.099
 3234TIP3   OH231260   1.044   5.831   7.260
 3234TIP3    H131261   1.135   5.829   7.289
 3234TIP3    H231262   1.019   5.738   7.253
 3235TIP3   OH231263   1.255   6.462   0.088
 3235TIP3    H131264   1.167   6.469   0.051
 3235TIP3    H231265   1.250   6.388   0.148
 3236TIP3   OH231266   2.939   4.035   0.358
 3236TIP3    H131267   2.973   3.982   0.430
 3236TIP3    H231268   2.865   3.985   0.324
 3237TIP3   OH231269   6.399   4.226   7.093
 3237TIP3    H131270   6.344   4.150   7.073
 3237TIP3    H231271   6.394   4.281   7.015
 3238TIP3   OH231272   1.433   1.803   7.792
 3238TIP3    H131273   1.470   1.769   7.711
 3238TIP3    H231274   1.399   1.889   7.770
 3239TIP3   OH231275   1.786   3.871   8.245
 3239TIP3    H131276   1.849   3.849   8.314
 3239TIP3    H231277   1.832   3.935   8.191
 3240TIP3   OH231278   0.862   6.508   7.253
 3240TIP3    H131279   0.888   6.417   7.244
 3240TIP3    H231280   0.799   6.522   7.182
 3241TIP3   OH231281   5.413   3.917   1.241
 3241TIP3    H131282   5.505   3.895   1.255
 3241TIP3    H231283   5.371   3.900   1.325
 3242TIP3   OH231284   4.122   3.213   8.482
 3242TIP3    H131285   4.038   3.199   8.527
 3242TIP3    H231286   4.110   3.296   8.436
 3243TIP3   OH231287   6.640   5.514   6.624
 3243TIP3    H131288   6.552   5.513   6.586
 3243TIP3    H231289   6.680   5.594   6.590
 3244TIP3   OH231290   2.440   3.230   0.058
 3244TIP3    H131291   2.351   3.199   0.069
 3244TIP3    H231292   2.434   3.295   8.722
 3245TIP3   OH231293   3.260   1.888   0.348
 3245TIP3    H131294   3.193   1.862   0.285
 3245TIP3    H231295   3.324   1.937   0.295
 3246TIP3   OH231296   6.643   3.456   7.436
 3246TIP3    H131297   6.624   3.458   7.342
 3246TIP3    H231298   6.723   3.406   7.443
 3247TIP3   OH231299   2.629   4.627   1.634
 3247TIP3    H131300   2.612   4.570   1.558
 3247TIP3    H231301   2.597   4.576   1.709
 3248TIP3   OH231302   4.464   0.983   2.302
 3248TIP3    H131303   4.444   0.984   2.396
 3248TIP3    H231304   4.546   0.934   2.296
 3249TIP3   OH231305   1.204   3.373   1.237
 3249TIP3    H131306   1.165   3.295   1.277
 3249TIP3    H231307   1.205   3.354   1.143
 3250TIP3   OH231308   4.647   2.775   1.572
 3250TIP3    H131309   4.701   2.714   1.623
 3250TIP3    H231310   4.571   2.724   1.545
 3251TIP3   OH231311   1.837   0.676   1.513
 3251TIP3    H131312   1.759   0.672   1.458
 3251TIP3    H231313   1.896   0.735   1.467
 3252TIP3   OH231314   5.265   4.908   1.075
 3252TIP3    H131315   5.266   4.865   1.160
 3252TIP3    H231316   5.274   5.001   1.095
 3253TIP3   OH231317   5.896   1.057   0.480
 3253TIP3    H131318   5.971   0.999   0.492
 3253TIP3    H231319   5.931   1.145   0.491
 3254TIP3   OH231320   2.542   5.759   0.470
 3254TIP3    H131321   2.614   5.741   0.409
 3254TIP3    H231322   2.536   5.854   0.472
 3255TIP3   OH231323   1.196   1.436   8.089
 3255TIP3    H131324   1.219   1.383   8.166
 3255TIP3    H231325   1.280   1.453   8.047
 3256TIP3   OH231326   0.384   6.565   7.944
 3256TIP3    H131327   0.369   6.501   7.874
 3256TIP3    H231328   0.437   6.519   8.009
 3257TIP3   OH231329   6.552   5.346   0.895
 3257TIP3    H131330   6.563   5.252   0.886
 3257TIP3    H231331   6.611   5.385   0.831
 3258TIP3   OH231332   6.174   3.394   8.286
 3258TIP3    H131333   6.129   3.394   8.370
 3258TIP3    H231334   6.123   3.454   8.231
 3259TIP3   OH231335   0.139   2.598   8.559
 3259TIP3    H131336   0.171   2.657   8.627
 3259TIP3    H231337   0.179   2.629   8.478
 3260TIP3   OH231338   0.168   4.443   7.062
 3260TIP3    H131339   0.189   4.525   7.019
 3260TIP3    H231340   0.225   4.378   7.021
 3261TIP3   OH231341   0.769   1.300   7.513
 3261TIP3    H131342   0.825   1.246   7.570
 3261TIP3    H231343   0.692   1.245   7.497
 3262TIP3   OH231344   0.079   4.903   2.091
 3262TIP3    H131345   0.124   4.959   2.154
 3262TIP3    H231346   0.088   4.949   2.007
 3263TIP3   OH231347   3.895   0.480   1.445
 3263TIP3    H131348   3.938   0.530   1.515
 3263TIP3    H231349   3.958   0.410   1.424
 3264TIP3   OH231350   4.327   4.780   1.696
 3264TIP3    H131351   4.295   4.695   1.667
 3264TIP3    H231352   4.377   4.762   1.776
 3265TIP3   OH231353   1.079   1.672   1.037
 3265TIP3    H131354   1.153   1.697   0.981
 3265TIP3    H231355   1.050   1.588   1.001
 3266TIP3   OH231356   6.506   0.633   7.887
 3266TIP3    H131357   6.477   0.682   7.810
 3266TIP3    H231358   6.426   0.619   7.938
 3267TIP3   OH231359   4.926   1.554   7.001
 3267TIP3    H131360   4.833   1.567   6.981
 3267TIP3    H231361   4.956   1.639   7.033
 3268TIP3   OH231362   3.325   5.725   8.097
 3268TIP3    H131363   3.272   5.646   8.103
 3268TIP3    H231364   3.406   5.703   8.143
 3269TIP3   OH231365   4.497   2.062   8.094
 3269TIP3    H131366   4.546   2.142   8.113
 3269TIP3    H231367   4.555   1.991   8.121
 3270TIP3   OH231368   4.658   1.736   1.305
 3270TIP3    H131369   4.721   1.787   1.254
 3270TIP3    H231370   4.586   1.719   1.244
 3271TIP3   OH231371   2.121   1.674   6.918
 3271TIP3    H131372   2.192   1.652   6.857
 3271TIP3    H231373   2.041   1.645   6.873
 3272TIP3   OH231374   1.970   4.008   0.199
 3272TIP3    H131375   1.893   3.971   0.243
 3272TIP3    H231376   2.041   3.948   0.220
 3273TIP3   OH231377   0.602   5.916   1.032
 3273TIP3    H131378   0.615   5.946   0.942
 3273TIP3    H231379   0.522   5.863   1.028
 3274TIP3   OH231380   5.899   5.023   7.755
 3274TIP3    H131381   5.976   5.009   7.810
 3274TIP3    H231382   5.824   5.003   7.811
 3275TIP3   OH231383   6.030   0.615   0.936
 3275TIP3    H131384   6.081   0.538   0.964
 3275TIP3    H231385   6.066   0.637   0.850
 3276TIP3   OH231386   2.491   2.796   7.924
 3276TIP3    H131387   2.432   2.724   7.946
 3276TIP3    H231388   2.488   2.854   8.001
 3277TIP3   OH231389   4.292   3.226   2.083
 3277TIP3    H131390   4.249   3.193   2.161
 3277TIP3    H231391   4.220   3.238   2.020
 3278TIP3   OH231392   3.595   4.885   0.919
 3278TIP3    H131393   3.688   4.907   0.922
 3278TIP3    H231394   3.581   4.850   0.831
 3279TIP3   OH231395   6.134   1.774   0.544
 3279TIP3    H131396   6.222   1.811   0.537
 3279TIP3    H231397   6.094   1.821   0.617
 3280TIP3   OH231398   0.957   4.272   6.730
 3280TIP3    H131399   0.868   4.246   6.754
 3280TIP3    H231400   1.008   4.259   6.810
 3281TIP3   OH231401   1.695   4.194   6.810
 3281TIP3    H131402   1.688   4.268   6.751
 3281TIP3    H231403   1.607   4.184   6.847
 3282TIP3   OH231404   0.106   5.399   7.749
 3282TIP3    H131405   0.089   5.332   7.683
 3282TIP3    H231406   0.020   5.435   7.770
 3283TIP3   OH231407   3.719   5.333   1.376
 3283TIP3    H131408   3.665   5.409   1.352
 3283TIP3    H231409   3.783   5.325   1.305
 3284TIP3   OH231410   0.434   5.485   7.872
 3284TIP3    H131411   0.415   5.391   7.867
 3284TIP3    H231412   0.456   5.500   7.964
 3285TIP3   OH231413   1.673   1.079   7.577
 3285TIP3    H131414   1.741   1.014   7.559
 3285TIP3    H231415   1.712   1.162   7.552
 3286TIP3   OH231416   3.661   6.502   1.607
 3286TIP3    H131417   3.700   6.415   1.604
 3286TIP3    H231418   3.655   6.529   1.515
 3287TIP3   OH231419   0.508   6.402   1.556
 3287TIP3    H131420   0.587   6.415   1.504
 3287TIP3    H231421   0.530   6.434   1.643
 3288TIP3   OH231422   3.926   4.093   8.097
 3288TIP3    H131423   3.882   4.009   8.111
 3288TIP3    H231424   4.017   4.070   8.082
 3289TIP3   OH231425   1.532   6.423   6.785
 3289TIP3    H131426   1.442   6.450   6.803
 3289TIP3    H231427   1.559   6.375   6.864
 3290TIP3   OH231428   0.066   1.719   6.674
 3290TIP3    H131429   0.126   1.760   6.613
 3290TIP3    H231430   0.003   1.673   6.618
 3291TIP3   OH231431   1.199   6.821   8.185
 3291TIP3    H131432   1.143   6.805   8.109
 3291TIP3    H231433   1.248   6.739   8.196
 3292TIP3   OH231434   4.311   0.148   1.913
 3292TIP3    H131435   4.279   0.117   1.998
 3292TIP3    H231436   4.368   0.078   1.882
 3293TIP3   OH231437   5.825   3.096   8.713
 3293TIP3    H131438   5.813   3.147   8.633
 3293TIP3    H231439   5.768   3.020   8.703
 3294TIP3   OH231440   2.404   6.393   7.619
 3294TIP3    H131441   2.341   6.454   7.657
 3294TIP3    H231442   2.395   6.404   7.525
 3295TIP3   OH231443   6.234   5.320   7.391
 3295TIP3    H131444   6.152   5.298   7.348
 3295TIP3    H231445   6.294   5.250   7.365
 3296TIP3   OH231446   5.882   6.168   1.848
 3296TIP3    H131447   5.825   6.094   1.867
 3296TIP3    H231448   5.856   6.197   1.761
 3297TIP3   OH231449   3.053   3.215   2.682
 3297TIP3    H131450   3.076   3.180   2.768
 3297TIP3    H231451   3.137   3.238   2.642
 3298TIP3   OH231452   3.188   4.191   6.474
 3298TIP3    H131453   3.270   4.207   6.426
 3298TIP3    H231454   3.125   4.250   6.434
 3299TIP3   OH231455   2.375   4.980   2.116
 3299TIP3    H131456   2.372   5.068   2.077
 3299TIP3    H231457   2.433   4.990   2.192
 3300TIP3   OH231458   0.570   6.469   8.590
 3300TIP3    H131459   0.499   6.412   8.619
 3300TIP3    H231460   0.550   6.488   8.498
 3301TIP3   OH231461   6.721   0.597   8.060
 3301TIP3    H131462   6.764   0.525   8.012
 3301TIP3    H231463   6.637   0.609   8.015
 3302TIP3   OH231464   3.656   3.471   6.654
 3302TIP3    H131465   3.571   3.434   6.632
 3302TIP3    H231466   3.654   3.559   6.616
 3303TIP3   OH231467   3.831   1.608   7.141
 3303TIP3    H131468   3.795   1.560   7.215
 3303TIP3    H231469   3.838   1.543   7.071
 3304TIP3   OH231470   3.076   4.554   0.589
 3304TIP3    H131471   3.086   4.599   0.505
 3304TIP3    H231472   3.029   4.473   0.567
 3305TIP3   OH231473   1.275   3.828   7.571
 3305TIP3    H131474   1.287   3.733   7.567
 3305TIP3    H231475   1.235   3.850   7.487
 3306TIP3   OH231476   6.809   5.110   7.799
 3306TIP3    H131477   0.015   5.109   7.715
 3306TIP3    H231478   6.736   5.170   7.785
 3307TIP3   OH231479   3.069   6.326   7.144
 3307TIP3    H131480   2.995   6.266   7.149
 3307TIP3    H231481   3.137   6.277   7.097
 3308TIP3   OH231482   3.435   6.254   0.464
 3308TIP3    H131483   3.390   6.281   0.544
 3308TIP3    H231484   3.373   6.196   0.419
 3309TIP3   OH231485   4.161   6.266   7.442
 3309TIP3    H131486   4.237   6.245   7.496
 3309TIP3    H231487   4.120   6.181   7.425
 3310TIP3   OH231488   2.452   4.964   6.310
 3310TIP3    H131489   2.389   5.032   6.334
 3310TIP3    H231490   2.400   4.884   6.307
 3311TIP3   OH231491   5.030   1.565   7.616
 3311TIP3    H131492   5.029   1.561   7.712
 3311TIP3    H231493   5.069   1.649   7.595
 3312TIP3   OH231494   5.510   6.583   2.430
 3312TIP3    H131495   5.544   6.616   2.514
 3312TIP3    H231496   5.430   6.537   2.453
 3313TIP3   OH231497   4.264   2.416   8.326
 3313TIP3    H131498   4.187   2.410   8.270
 3313TIP3    H231499   4.245   2.490   8.384
 3314TIP3   OH231500   6.427   4.656   7.225
 3314TIP3    H131501   6.408   4.630   7.135
 3314TIP3    H231502   6.372   4.733   7.240
 3315TIP3   OH231503   3.564   1.636   0.720
 3315TIP3    H131504   3.642   1.692   0.725
 3315TIP3    H231505   3.499   1.690   0.674
 3316TIP3   OH231506   0.780   1.826   2.324
 3316TIP3    H131507   0.816   1.872   2.400
 3316TIP3    H231508   0.695   1.868   2.309
 3317TIP3   OH231509   5.198   4.207   1.915
 3317TIP3    H131510   5.119   4.251   1.946
 3317TIP3    H231511   5.213   4.136   1.977
 3318TIP3   OH231512   0.563   0.022   0.764
 3318TIP3    H131513   0.564   0.038   0.858
 3318TIP3    H231514   0.573   6.768   0.755
 3319TIP3   OH231515   1.100   1.750   1.319
 3319TIP3    H131516   1.089   1.726   1.227
 3319TIP3    H231517   1.026   1.708   1.364
 3320TIP3   OH231518   5.599   0.271   6.385
 3320TIP3    H131519   5.655   0.205   6.343
 3320TIP3    H231520   5.512   0.254   6.350
 3321TIP3   OH231521   5.444   3.123   0.170
 3321TIP3    H131522   5.437   3.030   0.147
 3321TIP3    H231523   5.400   3.131   0.254
 3322TIP3   OH231524   4.448   2.976   7.979
 3322TIP3    H131525   4.425   3.037   7.909
 3322TIP3    H231526   4.364   2.950   8.016
 3323TIP3   OH231527   3.157   2.102   8.515
 3323TIP3    H131528   3.090   2.080   8.580
 3323TIP3    H231529   3.206   2.020   8.503
 3324TIP3   OH231530   2.762   2.269   8.016
 3324TIP3    H131531   2.736   2.178   8.029
 3324TIP3    H231532   2.695   2.305   7.957
 3325TIP3   OH231533   4.866   4.691   8.117
 3325TIP3    H131534   4.954   4.660   8.135
 3325TIP3    H231535   4.830   4.629   8.054
 3326TIP3   OH231536   3.384   6.048   7.495
 3326TIP3    H131537   3.347   6.079   7.578
 3326TIP3    H231538   3.366   6.119   7.433
 3327TIP3   OH231539   3.591   2.479   7.391
 3327TIP3    H131540   3.517   2.462   7.450
 3327TIP3    H231541   3.631   2.393   7.377
 3328TIP3   OH231542   2.440   2.107   6.856
 3328TIP3    H131543   2.371   2.052   6.819
 3328TIP3    H231544   2.476   2.155   6.781
 3329TIP3   OH231545   0.733   6.151   8.665
 3329TIP3    H131546   0.740   6.223   8.727
 3329TIP3    H231547   0.806   6.092   8.687
 3330TIP3   OH231548   5.460   6.200   0.380
 3330TIP3    H131549   5.365   6.208   0.368
 3330TIP3    H231550   5.481   6.264   0.447
 3331TIP3   OH231551   3.133   2.061   7.973
 3331TIP3    H131552   3.092   2.038   8.056
 3331TIP3    H231553   3.060   2.076   7.913
 3332TIP3   OH231554   6.216   3.396   6.926
 3332TIP3    H131555   6.158   3.375   6.854
 3332TIP3    H231556   6.172   3.361   7.004
 3333TIP3   OH231557   3.658   1.967   0.817
 3333TIP3    H131558   3.693   1.965   0.728
 3333TIP3    H231559   3.563   1.975   0.806
 3334TIP3   OH231560   6.133   5.093   1.310
 3334TIP3    H131561   6.052   5.111   1.263
 3334TIP3    H231562   6.192   5.058   1.243
 3335TIP3   OH231563   5.126   1.595   2.168
 3335TIP3    H131564   5.148   1.564   2.256
 3335TIP3    H231565   5.119   1.515   2.116
 3336TIP3   OH231566   0.295   1.341   1.071
 3336TIP3    H131567   0.232   1.374   1.007
 3336TIP3    H231568   0.356   1.413   1.086
 3337TIP3   OH231569   6.790   1.414   6.742
 3337TIP3    H131570   0.043   1.411   6.762
 3337TIP3    H231571   6.769   1.507   6.742
 3338TIP3   OH231572   5.207   0.185   6.847
 3338TIP3    H131573   5.171   0.147   6.767
 3338TIP3    H231574   5.183   0.277   6.844
 3339TIP3   OH231575   2.151   5.706   1.659
 3339TIP3    H131576   2.131   5.636   1.722
 3339TIP3    H231577   2.116   5.673   1.576
 3340TIP3   OH231578   6.321   5.156   1.507
 3340TIP3    H131579   6.294   5.247   1.513
 3340TIP3    H231580   6.269   5.120   1.434
 3341TIP3   OH231581   6.223   3.683   1.665
 3341TIP3    H131582   6.218   3.636   1.748
 3341TIP3    H231583   6.229   3.775   1.690
 3342TIP3   OH231584   4.813   6.678   7.201
 3342TIP3    H131585   4.811   6.770   7.177
 3342TIP3    H231586   4.906   6.656   7.205
 3343TIP3   OH231587   1.247   5.700   1.842
 3343TIP3    H131588   1.282   5.718   1.930
 3343TIP3    H231589   1.249   5.605   1.835
 3344TIP3   OH231590   3.152   4.830   6.148
 3344TIP3    H131591   3.127   4.825   6.240
 3344TIP3    H231592   3.070   4.842   6.101
 3345TIP3   OH231593   3.807   3.195   1.807
 3345TIP3    H131594   3.740   3.216   1.872
 3345TIP3    H231595   3.796   3.261   1.739
 3346TIP3   OH231596   4.956   5.063   1.006
 3346TIP3    H131597   4.982   5.048   1.097
 3346TIP3    H231598   4.871   5.021   0.998
 3347TIP3   OH231599   1.112   4.338   1.591
 3347TIP3    H131600   1.126   4.402   1.521
 3347TIP3    H231601   1.188   4.279   1.585
 3348TIP3   OH231602   6.232   5.989   0.347
 3348TIP3    H131603   6.202   5.898   0.352
 3348TIP3    H231604   6.288   6.000   0.424
 3349TIP3   OH231605   0.942   1.473   0.920
 3349TIP3    H131606   0.977   1.388   0.947
 3349TIP3    H231607   0.847   1.460   0.918
 3350TIP3   OH231608   5.586   6.709   8.351
 3350TIP3    H131609   5.543   6.701   8.436
 3350TIP3    H231610   5.522   6.678   8.288
 3351TIP3   OH231611   6.612   1.624   6.801
 3351TIP3    H131612   6.551   1.686   6.761
 3351TIP3    H231613   6.664   1.677   6.862
 3352TIP3   OH231614   2.839   2.321   0.027
 3352TIP3    H131615   2.793   2.317   8.677
 3352TIP3    H231616   2.781   2.373   0.083
 3353TIP3   OH231617   6.433   3.077   7.152
 3353TIP3    H131618   6.527   3.096   7.154
 3353TIP3    H231619   6.428   2.982   7.162
 3354TIP3   OH231620   2.687   6.706   0.942
 3354TIP3    H131621   2.744   6.706   1.019
 3354TIP3    H231622   2.619   6.769   0.962
 3355TIP3   OH231623   1.433   2.335   1.368
 3355TIP3    H131624   1.353   2.387   1.367
 3355TIP3    H231625   1.420   2.271   1.437
 3356TIP3   OH231626   1.898   4.673   2.449
 3356TIP3    H131627   1.956   4.629   2.511
 3356TIP3    H231628   1.828   4.610   2.434
 3357TIP3   OH231629   6.181   3.288   0.385
 3357TIP3    H131630   6.229   3.291   0.302
 3357TIP3    H231631   6.125   3.366   0.382
 3358TIP3   OH231632   1.807   1.184   8.654
 3358TIP3    H131633   1.782   1.252   8.591
 3358TIP3    H231634   1.898   1.163   8.631
 3359TIP3   OH231635   4.180   6.614   8.368
 3359TIP3    H131636   4.229   6.662   8.301
 3359TIP3    H231637   4.245   6.557   8.410
 3360TIP3   OH231638   3.176   6.819   6.706
 3360TIP3    H131639   3.134   0.035   6.641
 3360TIP3    H231640   3.269   6.821   6.682
 3361TIP3   OH231641   4.294   3.069   1.320
 3361TIP3    H131642   4.296   3.018   1.401
 3361TIP3    H231643   4.242   3.147   1.341
 3362TIP3   OH231644   2.142   2.083   7.816
 3362TIP3    H131645   2.148   2.024   7.741
 3362TIP3    H231646   2.174   2.167   7.783
 3363TIP3   OH231647   2.619   6.010   1.232
 3363TIP3    H131648   2.679   6.001   1.306
 3363TIP3    H231649   2.533   6.018   1.271
 3364TIP3   OH231650   5.307   3.027   1.101
 3364TIP3    H131651   5.277   2.977   1.026
 3364TIP3    H231652   5.237   3.091   1.116
 3365TIP3   OH231653   6.304   4.903   7.239
 3365TIP3    H131654   6.338   4.942   7.319
 3365TIP3    H231655   6.209   4.911   7.247
 3366TIP3   OH231656   2.347   3.802   6.553
 3366TIP3    H131657   2.276   3.783   6.492
 3366TIP3    H231658   2.357   3.897   6.549
 3367TIP3   OH231659   1.027   1.939   7.840
 3367TIP3    H131660   1.065   1.868   7.892
 3367TIP3    H231661   1.091   2.009   7.844
 3368TIP3   OH231662   2.412   6.021   0.334
 3368TIP3    H131663   2.344   5.998   0.270
 3368TIP3    H231664   2.371   6.006   0.419
 3369TIP3   OH231665   6.158   2.769   7.514
 3369TIP3    H131666   6.080   2.809   7.552
 3369TIP3    H231667   6.227   2.834   7.528
 3370TIP3   OH231668   3.542   6.167   6.425
 3370TIP3    H131669   3.597   6.096   6.393
 3370TIP3    H231670   3.455   6.127   6.432
 3371TIP3   OH231671   5.502   6.302   8.421
 3371TIP3    H131672   5.541   6.358   8.354
 3371TIP3    H231673   5.578   6.258   8.461
 3372TIP3   OH231674   2.768   0.257   8.636
 3372TIP3    H131675   2.774   0.272   8.730
 3372TIP3    H231676   2.859   0.265   8.605
 3373TIP3   OH231677   1.017   5.566   7.235
 3373TIP3    H131678   1.081   5.514   7.188
 3373TIP3    H231679   1.005   5.521   7.319
 3374TIP3   OH231680   5.559   2.742   7.927
 3374TIP3    H131681   5.652   2.724   7.939
 3374TIP3    H231682   5.551   2.836   7.942
 3375TIP3   OH231683   1.203   2.812   6.609
 3375TIP3    H131684   1.214   2.724   6.575
 3375TIP3    H231685   1.137   2.852   6.552
 3376TIP3   OH231686   0.241   2.668   5.988
 3376TIP3    H131687   0.263   2.759   6.010
 3376TIP3    H231688   0.233   2.624   6.073
 3377TIP3   OH231689   5.608   1.378   1.340
 3377TIP3    H131690   5.567   1.349   1.422
 3377TIP3    H231691   5.613   1.299   1.287
 3378TIP3   OH231692   0.792   5.789   8.024
 3378TIP3    H131693   0.785   5.809   8.117
 3378TIP3    H231694   0.786   5.874   7.981
 3379TIP3   OH231695   0.654   5.694   0.861
 3379TIP3    H131696   0.690   5.763   0.804
 3379TIP3    H231697   0.592   5.740   0.918
 3380TIP3   OH231698   3.637   5.165   8.190
 3380TIP3    H131699   3.717   5.113   8.179
 3380TIP3    H231700   3.588   5.152   8.109
 3381TIP3   OH231701   6.742   3.921   8.634
 3381TIP3    H131702   6.777   3.941   8.548
 3381TIP3    H231703   6.723   4.007   8.673
 3382TIP3   OH231704   4.434   0.934   0.191
 3382TIP3    H131705   4.379   0.896   0.259
 3382TIP3    H231706   4.511   0.967   0.238
 3383TIP3   OH231707   6.496   2.409   1.880
 3383TIP3    H131708   6.484   2.494   1.923
 3383TIP3    H231709   6.415   2.395   1.831
 3384TIP3   OH231710   3.927   2.116   0.823
 3384TIP3    H131711   4.011   2.071   0.829
 3384TIP3    H231712   3.870   2.070   0.885
 3385TIP3   OH231713   5.914   2.404   1.106
 3385TIP3    H131714   5.896   2.493   1.073
 3385TIP3    H231715   5.907   2.412   1.201
 3386TIP3   OH231716   0.888   0.920   0.123
 3386TIP3    H131717   0.852   0.837   0.154
 3386TIP3    H231718   0.975   0.898   0.089
 3387TIP3   OH231719   2.262   3.370   7.415
 3387TIP3    H131720   2.283   3.421   7.493
 3387TIP3    H231721   2.240   3.436   7.349
 3388TIP3   OH231722   3.354   4.211   1.997
 3388TIP3    H131723   3.407   4.287   2.019
 3388TIP3    H231724   3.372   4.148   2.068
 3389TIP3   OH231725   1.086   4.516   0.564
 3389TIP3    H131726   1.144   4.443   0.543
 3389TIP3    H231727   1.002   4.492   0.525
 3390TIP3   OH231728   6.413   2.935   8.556
 3390TIP3    H131729   6.382   2.962   8.643
 3390TIP3    H231730   6.500   2.975   8.549
 3391TIP3   OH231731   3.571   3.282   0.892
 3391TIP3    H131732   3.518   3.360   0.873
 3391TIP3    H231733   3.617   3.303   0.973
 3392TIP3   OH231734   0.709   3.933   7.553
 3392TIP3    H131735   0.787   3.932   7.497
 3392TIP3    H231736   0.638   3.961   7.495
 3393TIP3   OH231737   1.459   5.478   8.075
 3393TIP3    H131738   1.482   5.548   8.014
 3393TIP3    H231739   1.373   5.503   8.110
 3394TIP3   OH231740   0.011   6.059   0.781
 3394TIP3    H131741   6.763   6.023   0.788
 3394TIP3    H231742   0.005   6.126   0.712
 3395TIP3   OH231743   3.942   0.515   7.131
 3395TIP3    H131744   3.904   0.441   7.178
 3395TIP3    H231745   4.035   0.494   7.124
 3396TIP3   OH231746   0.790   2.028   7.695
 3396TIP3    H131747   0.773   2.022   7.601
 3396TIP3    H231748   0.880   1.995   7.704
 3397TIP3   OH231749   1.582   5.434   0.578
 3397TIP3    H131750   1.599   5.443   0.671
 3397TIP3    H231751   1.487   5.417   0.573
 3398TIP3   OH231752   1.962   0.914   8.231
 3398TIP3    H131753   1.881   0.863   8.226
 3398TIP3    H231754   1.955   0.977   8.159
 3399TIP3   OH231755   6.357   1.300   1.680
 3399TIP3    H131756   6.369   1.207   1.696
 3399TIP3    H231757   6.311   1.304   1.596
 3400TIP3   OH231758   2.395   2.731   1.699
 3400TIP3    H131759   2.377   2.663   1.763
 3400TIP3    H231760   2.489   2.747   1.707
 3401TIP3   OH231761   3.653   0.549   6.788
 3401TIP3    H131762   3.668   0.565   6.695
 3401TIP3    H231763   3.687   0.461   6.803
 3402TIP3   OH231764   6.410   2.149   0.929
 3402TIP3    H131765   6.428   2.223   0.871
 3402TIP3    H231766   6.494   2.104   0.937
 3403TIP3   OH231767   4.049   0.613   1.674
 3403TIP3    H131768   4.097   0.642   1.596
 3403TIP3    H231769   4.071   0.676   1.741
 3404TIP3   OH231770   2.895   6.069   8.559
 3404TIP3    H131771   2.889   6.014   8.637
 3404TIP3    H231772   2.974   6.121   8.572
 3405TIP3   OH231773   0.061   5.205   1.495
 3405TIP3    H131774   0.131   5.178   1.554
 3405TIP3    H231775   0.026   5.123   1.459
 3406TIP3   OH231776   2.558   2.449   8.093
 3406TIP3    H131777   2.601   2.533   8.111
 3406TIP3    H231778   2.469   2.472   8.068
 3407TIP3   OH231779   2.986   1.774   7.482
 3407TIP3    H131780   3.070   1.732   7.466
 3407TIP3    H231781   2.924   1.701   7.492
 3408TIP3   OH231782   0.897   5.399   0.249
 3408TIP3    H131783   0.837   5.330   0.277
 3408TIP3    H231784   0.983   5.359   0.253
 3409TIP3   OH231785   1.962   4.016   7.109
 3409TIP3    H131786   1.880   3.969   7.122
 3409TIP3    H231787   1.937   4.104   7.084
 3410TIP3   OH231788   0.741   2.739   7.341
 3410TIP3    H131789   0.795   2.697   7.408
 3410TIP3    H231790   0.781   2.712   7.258
 3411TIP3   OH231791   0.850   4.242   0.070
 3411TIP3    H131792   0.842   4.167   0.129
 3411TIP3    H231793   0.761   4.277   0.065
 3412TIP3   OH231794   4.115   3.488   7.055
 3412TIP3    H131795   4.050   3.545   7.094
 3412TIP3    H231796   4.154   3.541   6.985
 3413TIP3   OH231797   2.225   6.558   1.421
 3413TIP3    H131798   2.241   6.495   1.351
 3413TIP3    H231799   2.239   6.643   1.380
 3414TIP3   OH231800   0.669   2.346   1.535
 3414TIP3    H131801   0.587   2.377   1.573
 3414TIP3    H231802   0.737   2.376   1.596
 3415TIP3   OH231803   4.177   1.137   8.264
 3415TIP3    H131804   4.179   1.077   8.189
 3415TIP3    H231805   4.205   1.083   8.338
 3416TIP3   OH231806   1.250   1.203   7.892
 3416TIP3    H131807   1.168   1.232   7.931
 3416TIP3    H231808   1.238   1.217   7.798
 3417TIP3   OH231809   4.221   0.001   0.379
 3417TIP3    H131810   4.298   0.020   0.433
 3417TIP3    H231811   4.157   0.067   0.404
 3418TIP3   OH231812   4.395   3.325   8.328
 3418TIP3    H131813   4.314   3.353   8.370
 3418TIP3    H231814   4.464   3.368   8.378
 3419TIP3   OH231815   3.304   4.495   6.261
 3419TIP3    H131816   3.211   4.476   6.247
 3419TIP3    H231817   3.329   4.550   6.186
 3420TIP3   OH231818   1.221   6.634   7.063
 3420TIP3    H131819   1.189   6.678   6.985
 3420TIP3    H231820   1.183   6.683   7.136
 3421TIP3   OH231821   6.794   1.687   1.274
 3421TIP3    H131822   0.033   1.660   1.319
 3421TIP3    H231823   6.760   1.759   1.326
 3422TIP3   OH231824   2.394   5.000   0.042
 3422TIP3    H131825   2.429   5.073   0.094
 3422TIP3    H231826   2.301   5.018   0.035
 3423TIP3   OH231827   5.861   4.929   0.399
 3423TIP3    H131828   5.891   4.997   0.459
 3423TIP3    H231829   5.858   4.972   0.313
 3424TIP3   OH231830   3.428   5.774   0.526
 3424TIP3    H131831   3.343   5.815   0.509
 3424TIP3    H231832   3.491   5.826   0.476
 3425TIP3   OH231833   1.213   0.612   6.717
 3425TIP3    H131834   1.250   0.661   6.790
 3425TIP3    H231835   1.265   0.640   6.641
 3426TIP3   OH231836   0.167   2.154   7.034
 3426TIP3    H131837   0.127   2.239   7.013
 3426TIP3    H231838   0.260   2.167   7.016
 3427TIP3   OH231839   6.794   4.569   1.619
 3427TIP3    H131840   0.044   4.550   1.593
 3427TIP3    H231841   6.756   4.614   1.543
 3428TIP3   OH231842   6.355   5.278   1.161
 3428TIP3    H131843   6.291   5.227   1.111
 3428TIP3    H231844   6.308   5.306   1.239
 3429TIP3   OH231845   4.396   2.135   1.240
 3429TIP3    H131846   4.465   2.121   1.305
 3429TIP3    H231847   4.332   2.190   1.285
 3430TIP3   OH231848   4.521   2.265   0.527
 3430TIP3    H131849   4.556   2.182   0.494
 3430TIP3    H231850   4.431   2.245   0.552
 3431TIP3   OH231851   1.984   0.701   0.277
 3431TIP3    H131852   1.914   0.724   0.215
 3431TIP3    H231853   1.999   0.608   0.263
 3432TIP3   OH231854   3.451   1.417   8.343
 3432TIP3    H131855   3.531   1.459   8.375
 3432TIP3    H231856   3.462   1.325   8.364
 3433TIP3   OH231857   4.732   2.059   1.923
 3433TIP3    H131858   4.704   1.996   1.989
 3433TIP3    H231859   4.787   2.121   1.971
 3434TIP3   OH231860   2.835   2.305   8.287
 3434TIP3    H131861   2.921   2.318   8.249
 3434TIP3    H231862   2.775   2.307   8.213
 3435TIP3   OH231863   4.075   6.210   0.084
 3435TIP3    H131864   4.144   6.161   0.128
 3435TIP3    H231865   4.013   6.232   0.153
 3436TIP3   OH231866   5.836   5.694   6.682
 3436TIP3    H131867   5.834   5.644   6.764
 3436TIP3    H231868   5.901   5.762   6.698
 3437TIP3   OH231869   5.828   0.328   8.636
 3437TIP3    H131870   5.813   0.240   8.601
 3437TIP3    H231871   5.809   0.386   8.563
 3438TIP3   OH231872   5.222   2.069   8.432
 3438TIP3    H131873   5.279   2.128   8.383
 3438TIP3    H231874   5.282   2.017   8.486
 3439TIP3   OH231875   0.078   3.636   8.469
 3439TIP3    H131876   0.083   3.589   8.552
 3439TIP3    H231877   0.095   3.728   8.492
 3440TIP3   OH231878   3.603   1.601   1.361
 3440TIP3    H131879   3.584   1.658   1.286
 3440TIP3    H231880   3.695   1.618   1.381
 3441TIP3   OH231881   5.139   6.735   0.481
 3441TIP3    H131882   5.174   6.647   0.476
 3441TIP3    H231883   5.159   6.765   0.570
 3442TIP3   OH231884   3.044   5.381   0.291
 3442TIP3    H131885   3.027   5.443   0.220
 3442TIP3    H231886   3.137   5.358   0.280
 3443TIP3   OH231887   3.203   0.170   0.640
 3443TIP3    H131888   3.210   0.139   0.550
 3443TIP3    H231889   3.132   0.118   0.678
 3444TIP3   OH231890   3.338   4.454   7.832
 3444TIP3    H131891   3.353   4.469   7.925
 3444TIP3    H231892   3.406   4.505   7.788
 3445TIP3   OH231893   4.298   3.929   2.022
 3445TIP3    H131894   4.292   3.956   2.114
 3445TIP3    H231895   4.379   3.879   2.017
 3446TIP3   OH231896   4.071   1.694   7.649
 3446TIP3    H131897   3.996   1.728   7.600
 3446TIP3    H231898   4.147   1.734   7.608
 3447TIP3   OH231899   0.160   3.860   7.890
 3447TIP3    H131900   0.104   3.846   7.967
 3447TIP3    H231901   0.240   3.897   7.926
 3448TIP3   OH231902   2.833   3.480   1.626
 3448TIP3    H131903   2.868   3.398   1.590
 3448TIP3    H231904   2.779   3.452   1.700
 3449TIP3   OH231905   3.922   4.800   7.510
 3449TIP3    H131906   3.953   4.751   7.434
 3449TIP3    H231907   3.974   4.880   7.510
 3450TIP3   OH231908   5.525   2.055   0.522
 3450TIP3    H131909   5.539   2.055   0.617
 3450TIP3    H231910   5.478   1.974   0.505
 3451TIP3   OH231911   3.550   1.535   0.986
 3451TIP3    H131912   3.558   1.559   0.894
 3451TIP3    H231913   3.617   1.587   1.030
 3452TIP3   OH231914   3.583   1.550   1.882
 3452TIP3    H131915   3.592   1.566   1.976
 3452TIP3    H231916   3.509   1.605   1.855
 3453TIP3   OH231917   2.224   4.063   0.991
 3453TIP3    H131918   2.198   4.002   1.061
 3453TIP3    H231919   2.142   4.086   0.948
 3454TIP3   OH231920   2.168   2.235   0.980
 3454TIP3    H131921   2.196   2.286   1.056
 3454TIP3    H231922   2.165   2.145   1.011
 3455TIP3   OH231923   2.470   1.601   8.729
 3455TIP3    H131924   2.436   1.668   8.670
 3455TIP3    H231925   2.500   1.650   0.071
 3456TIP3   OH231926   5.818   4.377   6.948
 3456TIP3    H131927   5.891   4.347   6.895
 3456TIP3    H231928   5.740   4.347   6.901
 3457TIP3   OH231929   0.872   0.692   8.227
 3457TIP3    H131930   0.902   0.739   8.305
 3457TIP3    H231931   0.952   0.671   8.180
 3458TIP3   OH231932   1.159   3.036   8.699
 3458TIP3    H131933   1.165   2.942   8.715
 3458TIP3    H231934   1.190   3.048   8.609
 3459TIP3   OH231935   3.092   5.732   7.773
 3459TIP3    H131936   3.115   5.768   7.687
 3459TIP3    H231937   3.109   5.638   7.765
 3460TIP3   OH231938   0.917   1.655   0.073
 3460TIP3    H131939   0.916   1.748   0.051
 3460TIP3    H231940   0.904   1.610   8.723
 3461TIP3   OH231941   1.507   6.625   1.805
 3461TIP3    H131942   1.442   6.559   1.781
 3461TIP3    H231943   1.500   6.633   1.900
 3462TIP3   OH231944   0.309   3.269   1.853
 3462TIP3    H131945   0.385   3.316   1.887
 3462TIP3    H231946   0.250   3.339   1.823
 3463TIP3   OH231947   3.676   1.222   1.240
 3463TIP3    H131948   3.680   1.240   1.146
 3463TIP3    H231949   3.587   1.248   1.265
 3464TIP3   OH231950   0.980   6.436   8.696
 3464TIP3    H131951   0.986   6.348   8.733
 3464TIP3    H231952   0.895   6.469   8.724
 3465TIP3   OH231953   0.543   6.049   1.277
 3465TIP3    H131954   0.504   6.134   1.255
 3465TIP3    H231955   0.564   6.010   1.193
 3466TIP3   OH231956   5.453   6.766   1.018
 3466TIP3    H131957   5.386   6.699   1.033
 3466TIP3    H231958   5.510   6.729   0.951
 3467TIP3   OH231959   3.345   4.289   0.633
 3467TIP3    H131960   3.409   4.358   0.644
 3467TIP3    H231961   3.262   4.329   0.659
 3468TIP3   OH231962   1.869   2.038   0.482
 3468TIP3    H131963   1.797   1.997   0.433
 3468TIP3    H231964   1.946   2.024   0.429
 3469TIP3   OH231965   6.289   0.367   2.049
 3469TIP3    H131966   6.324   0.410   1.971
 3469TIP3    H231967   6.240   0.436   2.094
 3470TIP3   OH231968   1.459   2.499   7.510
 3470TIP3    H131969   1.519   2.432   7.477
 3470TIP3    H231970   1.505   2.539   7.583
 3471TIP3   OH231971   0.754   0.325   7.442
 3471TIP3    H131972   0.721   0.235   7.440
 3471TIP3    H231973   0.798   0.332   7.526
 3472TIP3   OH231974   5.066   0.257   7.999
 3472TIP3    H131975   5.160   0.236   7.998
 3472TIP3    H231976   5.028   0.198   7.934
 3473TIP3   OH231977   2.994   6.808   0.044
 3473TIP3    H131978   3.022   0.058   0.030
 3473TIP3    H231979   2.967   6.805   0.136
 3474TIP3   OH231980   0.053   5.258   6.589
 3474TIP3    H131981   0.061   5.217   6.675
 3474TIP3    H231982   6.813   5.309   6.594
 3475TIP3   OH231983   6.678   5.480   8.401
 3475TIP3    H131984   6.612   5.503   8.335
 3475TIP3    H231985   6.668   5.548   8.468
 3476TIP3   OH231986   3.588   3.803   7.889
 3476TIP3    H131987   3.647   3.849   7.829
 3476TIP3    H231988   3.647   3.750   7.944
 3477TIP3   OH231989   1.509   4.777   8.389
 3477TIP3    H131990   1.572   4.762   8.458
 3477TIP3    H231991   1.482   4.689   8.361
 3478TIP3   OH231992   4.894   1.467   6.508
 3478TIP3    H131993   4.862   1.485   6.420
 3478TIP3    H231994   4.833   1.513   6.566
 3479TIP3   OH231995   1.236   4.979   1.182
 3479TIP3    H131996   1.185   4.942   1.254
 3479TIP3    H231997   1.295   4.908   1.155
 3480TIP3   OH231998   4.963   4.808   0.730
 3480TIP3    H131999   4.973   4.760   0.648
 3480TIP3    H232000   5.039   4.783   0.782
 3481TIP3   OH232001   2.387   4.812   6.948
 3481TIP3    H132002   2.368   4.791   7.039
 3481TIP3    H232003   2.447   4.886   6.952
 3482TIP3   OH232004   2.372   0.876   1.805
 3482TIP3    H132005   2.457   0.861   1.763
 3482TIP3    H232006   2.312   0.818   1.758
 3483TIP3   OH232007   4.499   6.152   8.226
 3483TIP3    H132008   4.444   6.197   8.162
 3483TIP3    H232009   4.475   6.060   8.216
 3484TIP3   OH232010   4.861   0.047   8.195
 3484TIP3    H132011   4.956   0.041   8.187
 3484TIP3    H232012   4.828   6.822   8.134
 3485TIP3   OH232013   3.720   5.042   0.593
 3485TIP3    H132014   3.758   5.102   0.658
 3485TIP3    H232015   3.736   4.955   0.628
 3486TIP3   OH232016   3.054   2.404   7.117
 3486TIP3    H132017   3.147   2.382   7.116
 3486TIP3    H232018   3.048   2.481   7.059
 3487TIP3   OH232019   3.424   1.016   2.322
 3487TIP3    H132020   3.512   0.984   2.341
 3487TIP3    H232021   3.436   1.078   2.250
 3488TIP3   OH232022   2.138   5.040   0.743
 3488TIP3    H132023   2.126   5.084   0.827
 3488TIP3    H232024   2.089   4.958   0.751
 3489TIP3   OH232025   6.326   4.719   0.698
 3489TIP3    H132026   6.315   4.679   0.612
 3489TIP3    H232027   6.290   4.656   0.760
 3490TIP3   OH232028   2.407   4.084   6.586
 3490TIP3    H132029   2.386   4.173   6.613
 3490TIP3    H232030   2.490   4.064   6.630
 3491TIP3   OH232031   0.412   2.360   8.340
 3491TIP3    H132032   0.496   2.403   8.355
 3491TIP3    H232033   0.353   2.430   8.314
 3492TIP3   OH232034   3.732   4.273   6.383
 3492TIP3    H132035   3.825   4.250   6.382
 3492TIP3    H232036   3.712   4.290   6.475
 3493TIP3   OH232037   0.020   6.272   0.090
 3493TIP3    H132038   0.016   6.356   0.136
 3493TIP3    H232039   0.110   6.242   0.104
 3494TIP3   OH232040   4.328   2.916   6.166
 3494TIP3    H132041   4.316   3.008   6.142
 3494TIP3    H232042   4.369   2.877   6.089
 3495TIP3   OH232043   3.993   6.390   7.792
 3495TIP3    H132044   3.959   6.402   7.704
 3495TIP3    H232045   4.052   6.315   7.785
 3496TIP3   OH232046   5.612   2.820   1.173
 3496TIP3    H132047   5.554   2.881   1.218
 3496TIP3    H232048   5.582   2.821   1.082
 3497TIP3   OH232049   3.917   3.467   6.521
 3497TIP3    H132050   3.883   3.384   6.554
 3497TIP3    H232051   3.875   3.478   6.436
 3498TIP3   OH232052   1.299   6.169   6.685
 3498TIP3    H132053   1.243   6.170   6.763
 3498TIP3    H232054   1.367   6.106   6.706
 3499TIP3   OH232055   5.729   6.136   1.609
 3499TIP3    H132056   5.661   6.111   1.672
 3499TIP3    H232057   5.715   6.076   1.535
 3500TIP3   OH232058   0.569   0.880   6.584
 3500TIP3    H132059   0.562   0.963   6.630
 3500TIP3    H232060   0.577   0.814   6.653
 3501TIP3   OH232061   4.432   2.298   7.877
 3501TIP3    H132062   4.496   2.357   7.917
 3501TIP3    H232063   4.373   2.275   7.949
 3502TIP3   OH232064   0.108   4.420   7.697
 3502TIP3    H132065   0.037   4.368   7.658
 3502TIP3    H232066   0.170   4.355   7.729
 3503TIP3   OH232067   6.081   1.106   0.093
 3503TIP3    H132068   6.080   1.078   0.001
 3503TIP3    H232069   5.989   1.102   0.120
 3504TIP3   OH232070   4.406   3.549   1.203
 3504TIP3    H132071   4.417   3.533   1.297
 3504TIP3    H232072   4.338   3.616   1.197
 3505TIP3   OH232073   2.178   0.369   8.706
 3505TIP3    H132074   2.238   0.382   8.633
 3505TIP3    H232075   2.234   0.344   0.045
 3506TIP3   OH232076   5.375   3.135   7.439
 3506TIP3    H132077   5.297   3.092   7.475
 3506TIP3    H232078   5.443   3.121   7.505
 3507TIP3   OH232079   1.193   2.893   1.833
 3507TIP3    H132080   1.154   2.908   1.920
 3507TIP3    H232081   1.127   2.841   1.786
 3508TIP3   OH232082   4.348   2.117   2.049
 3508TIP3    H132083   4.376   2.026   2.057
 3508TIP3    H232084   4.290   2.131   2.123
 3509TIP3   OH232085   1.268   0.023   2.145
 3509TIP3    H132086   1.201   6.794   2.147
 3509TIP3    H232087   1.305   0.023   2.233
 3510TIP3   OH232088   6.812   5.104   1.827
 3510TIP3    H132089   0.036   5.158   1.873
 3510TIP3    H232090   6.773   5.162   1.762
 3511TIP3   OH232091   3.032   1.935   0.554
 3511TIP3    H132092   2.960   1.976   0.507
 3511TIP3    H232093   3.082   1.888   0.487
 3512TIP3   OH232094   6.796   2.482   7.656
 3512TIP3    H132095   0.007   2.441   7.726
 3512TIP3    H232096   0.021   2.521   7.598
 3513TIP3   OH232097   6.813   0.986   7.180
 3513TIP3    H132098   6.790   1.039   7.257
 3513TIP3    H232099   0.009   1.049   7.118
 3514TIP3   OH232100   3.349   2.802   6.587
 3514TIP3    H132101   3.384   2.713   6.587
 3514TIP3    H232102   3.288   2.804   6.661
 3515TIP3   OH232103   1.989   4.737   0.727
 3515TIP3    H132104   2.038   4.656   0.743
 3515TIP3    H232105   2.014   4.762   0.638
 3516TIP3   OH232106   5.833   5.882   0.947
 3516TIP3    H132107   5.749   5.836   0.947
 3516TIP3    H232108   5.810   5.974   0.932
 3517TIP3   OH232109   1.437   3.225   0.596
 3517TIP3    H132110   1.417   3.131   0.597
 3517TIP3    H232111   1.532   3.229   0.584
 3518TIP3   OH232112   5.480   4.503   0.002
 3518TIP3    H132113   5.559   4.463   8.699
 3518TIP3    H232114   5.484   4.594   8.709
 3519TIP3   OH232115   6.470   4.915   1.192
 3519TIP3    H132116   6.428   4.970   1.125
 3519TIP3    H232117   6.557   4.954   1.204
 3520TIP3   OH232118   3.593   3.642   1.661
 3520TIP3    H132119   3.556   3.583   1.726
 3520TIP3    H232120   3.549   3.618   1.579
 3521TIP3   OH232121   5.591   0.521   1.496
 3521TIP3    H132122   5.633   0.472   1.424
 3521TIP3    H232123   5.505   0.480   1.505
 3522TIP3   OH232124   1.503   3.267   6.859
 3522TIP3    H132125   1.598   3.276   6.869
 3522TIP3    H232126   1.493   3.209   6.783
 3523TIP3   OH232127   2.243   4.314   6.403
 3523TIP3    H132128   2.170   4.373   6.382
 3523TIP3    H232129   2.275   4.345   6.487
 3524TIP3   OH232130   6.721   6.462   0.924
 3524TIP3    H132131   6.737   6.421   1.010
 3524TIP3    H232132   6.809   6.469   0.886
 3525TIP3   OH232133   0.255   5.178   1.097
 3525TIP3    H132134   0.167   5.205   1.072
 3525TIP3    H232135   0.242   5.115   1.168
 3526TIP3   OH232136   5.535   5.950   8.331
 3526TIP3    H132137   5.628   5.963   8.352
 3526TIP3    H232138   5.527   5.856   8.314
 3527TIP3   OH232139   4.929   1.304   7.164
 3527TIP3    H132140   4.949   1.362   7.090
 3527TIP3    H232141   4.903   1.364   7.234
 3528TIP3   OH232142   1.461   5.565   6.582
 3528TIP3    H132143   1.489   5.524   6.664
 3528TIP3    H232144   1.530   5.628   6.561
 3529TIP3   OH232145   0.734   5.520   1.185
 3529TIP3    H132146   0.716   5.595   1.129
 3529TIP3    H232147   0.661   5.519   1.248
 3530TIP3   OH232148   4.118   5.559   2.494
 3530TIP3    H132149   4.051   5.544   2.561
 3530TIP3    H232150   4.111   5.652   2.473
 3531TIP3   OH232151   5.016   3.111   0.075
 3531TIP3    H132152   5.085   3.122   0.010
 3531TIP3    H232153   4.954   3.181   0.056
 3532TIP3   OH232154   3.315   5.137   8.393
 3532TIP3    H132155   3.377   5.067   8.377
 3532TIP3    H232156   3.369   5.212   8.419
 3533TIP3   OH232157   0.430   2.407   6.858
 3533TIP3    H132158   0.396   2.450   6.779
 3533TIP3    H232159   0.356   2.405   6.918
 3534TIP3   OH232160   5.762   2.596   2.297
 3534TIP3    H132161   5.690   2.657   2.311
 3534TIP3    H232162   5.721   2.518   2.261
 3535TIP3   OH232163   6.065   5.827   1.638
 3535TIP3    H132164   6.062   5.854   1.730
 3535TIP3    H232165   5.989   5.770   1.627
 3536TIP3   OH232166   5.025   5.841   1.476
 3536TIP3    H132167   5.104   5.884   1.444
 3536TIP3    H232168   4.993   5.897   1.546
 3537TIP3   OH232169   1.689   4.926   6.615
 3537TIP3    H132170   1.629   5.000   6.606
 3537TIP3    H232171   1.774   4.960   6.588
 3538TIP3   OH232172   4.070   3.510   1.683
 3538TIP3    H132173   4.131   3.536   1.751
 3538TIP3    H232174   4.059   3.589   1.629
 3539TIP3   OH232175   4.714   0.188   7.977
 3539TIP3    H132176   4.793   0.149   7.939
 3539TIP3    H232177   4.719   0.166   8.070
 3540TIP3   OH232178   4.493   5.452   1.445
 3540TIP3    H132179   4.482   5.463   1.540
 3540TIP3    H232180   4.422   5.504   1.407
 3541TIP3   OH232181   3.422   0.799   7.277
 3541TIP3    H132182   3.421   0.712   7.238
 3541TIP3    H232183   3.460   0.855   7.209
 3542TIP3   OH232184   2.290   0.485   7.704
 3542TIP3    H132185   2.265   0.393   7.714
 3542TIP3    H232186   2.357   0.484   7.636
 3543TIP3   OH232187   0.731   5.665   7.220
 3543TIP3    H132188   0.770   5.656   7.307
 3543TIP3    H232189   0.794   5.624   7.161
 3544TIP3   OH232190   3.309   4.709   7.121
 3544TIP3    H132191   3.257   4.714   7.041
 3544TIP3    H232192   3.396   4.737   7.096
 3545TIP3   OH232193   1.760   3.215   8.180
 3545TIP3    H132194   1.671   3.195   8.148
 3545TIP3    H232195   1.751   3.219   8.275
 3546TIP3   OH232196   3.589   0.182   1.236
 3546TIP3    H132197   3.613   0.268   1.271
 3546TIP3    H232198   3.595   0.191   1.141
 3547TIP3   OH232199   4.417   3.198   1.683
 3547TIP3    H132200   4.348   3.132   1.692
 3547TIP3    H232201   4.462   3.174   1.602
 3548TIP3   OH232202   1.071   2.050   1.347
 3548TIP3    H132203   1.022   2.108   1.289
 3548TIP3    H232204   1.080   1.969   1.297
 3549TIP3   OH232205   3.831   4.424   8.397
 3549TIP3    H132206   3.899   4.489   8.416
 3549TIP3    H232207   3.750   4.463   8.428
 3550TIP3   OH232208   4.468   0.466   0.304
 3550TIP3    H132209   4.381   0.498   0.329
 3550TIP3    H232210   4.467   0.374   0.330
 3551TIP3   OH232211   0.298   0.135   1.013
 3551TIP3    H132212   0.310   0.228   0.992
 3551TIP3    H232213   0.244   0.102   0.941
 3552TIP3   OH232214   5.994   4.671   7.141
 3552TIP3    H132215   6.038   4.697   7.222
 3552TIP3    H232216   5.915   4.725   7.139
 3553TIP3   OH232217   6.702   3.694   0.048
 3553TIP3    H132218   6.643   3.634   0.004
 3553TIP3    H232219   6.704   3.772   8.726
 3554TIP3   OH232220   0.215   0.304   7.786
 3554TIP3    H132221   0.276   0.236   7.759
 3554TIP3    H232222   0.253   0.385   7.750
 3555TIP3   OH232223   1.067   3.957   6.362
 3555TIP3    H132224   1.158   3.971   6.334
 3555TIP3    H232225   1.037   4.043   6.390
 3556TIP3   OH232226   6.478   2.223   6.769
 3556TIP3    H132227   6.395   2.243   6.726
 3556TIP3    H232228   6.453   2.194   6.857
 3557TIP3   OH232229   2.192   4.844   1.241
 3557TIP3    H132230   2.178   4.937   1.224
 3557TIP3    H232231   2.160   4.800   1.163
 3558TIP3   OH232232   0.956   1.301   8.158
 3558TIP3    H132233   0.887   1.365   8.178
 3558TIP3    H232234   1.030   1.354   8.128
 3559TIP3   OH232235   2.253   4.410   0.860
 3559TIP3    H132236   2.232   4.481   0.800
 3559TIP3    H232237   2.347   4.397   0.850
 3560TIP3   OH232238   4.184   0.546   7.901
 3560TIP3    H132239   4.262   0.519   7.949
 3560TIP3    H232240   4.203   0.635   7.871
 3561TIP3   OH232241   2.577   0.736   1.698
 3561TIP3    H132242   2.659   0.777   1.727
 3561TIP3    H232243   2.585   0.645   1.725
 3562TIP3   OH232244   0.730   4.585   0.678
 3562TIP3    H132245   0.741   4.587   0.773
 3562TIP3    H232246   0.640   4.615   0.663
 3563TIP3   OH232247   2.340   0.157   1.573
 3563TIP3    H132248   2.249   0.182   1.588
 3563TIP3    H232249   2.374   0.135   1.660
 3564TIP3   OH232250   4.651   1.373   0.579
 3564TIP3    H132251   4.637   1.372   0.674
 3564TIP3    H232252   4.576   1.325   0.543
 3565TIP3   OH232253   3.756   1.170   8.425
 3565TIP3    H132254   3.826   1.117   8.463
 3565TIP3    H232255   3.783   1.261   8.442
 3566TIP3   OH232256   1.583   1.461   7.646
 3566TIP3    H132257   1.495   1.498   7.659
 3566TIP3    H232258   1.573   1.402   7.572
 3567TIP3   OH232259   6.806   0.162   0.615
 3567TIP3    H132260   6.804   0.151   0.520
 3567TIP3    H232261   6.715   0.173   0.640
 3568TIP3   OH232262   4.383   1.082   7.577
 3568TIP3    H132263   4.436   1.030   7.518
 3568TIP3    H232264   4.295   1.044   7.571
 3569TIP3   OH232265   4.225   5.208   0.670
 3569TIP3    H132266   4.198   5.122   0.636
 3569TIP3    H232267   4.158   5.268   0.637
 3570TIP3   OH232268   4.625   3.373   1.167
 3570TIP3    H132269   4.598   3.285   1.193
 3570TIP3    H232270   4.546   3.426   1.177
 3571TIP3   OH232271   2.663   3.152   7.044
 3571TIP3    H132272   2.657   3.161   6.949
 3571TIP3    H232273   2.625   3.067   7.064
 3572TIP3   OH232274   6.699   4.426   6.829
 3572TIP3    H132275   6.682   4.502   6.772
 3572TIP3    H232276   6.760   4.372   6.778
 3573TIP3   OH232277   3.923   2.389   1.558
 3573TIP3    H132278   3.959   2.449   1.492
 3573TIP3    H232279   3.832   2.419   1.570
 3574TIP3   OH232280   1.758   5.707   7.898
 3574TIP3    H132281   1.834   5.762   7.880
 3574TIP3    H232282   1.745   5.712   7.992
 3575TIP3   OH232283   5.804   0.707   7.175
 3575TIP3    H132284   5.881   0.759   7.200
 3575TIP3    H232285   5.735   0.772   7.161
 3576TIP3   OH232286   2.385   2.118   6.486
 3576TIP3    H132287   2.380   2.040   6.431
 3576TIP3    H232288   2.307   2.168   6.463
 3577TIP3   OH232289   4.628   0.260   8.684
 3577TIP3    H132290   4.723   0.261   8.672
 3577TIP3    H232291   4.608   0.171   8.714
 3578TIP3   OH232292   2.693   5.801   7.259
 3578TIP3    H132293   2.669   5.718   7.301
 3578TIP3    H232294   2.654   5.868   7.314
 3579TIP3   OH232295   5.951   2.773   7.883
 3579TIP3    H132296   5.953   2.833   7.958
 3579TIP3    H232297   5.939   2.830   7.807
 3580TIP3   OH232298   2.468   5.166   7.580
 3580TIP3    H132299   2.559   5.160   7.551
 3580TIP3    H232300   2.425   5.219   7.514
 3581TIP3   OH232301   1.521   3.551   1.526
 3581TIP3    H132302   1.484   3.608   1.593
 3581TIP3    H232303   1.501   3.462   1.557
 3582TIP3   OH232304   6.223   4.632   6.984
 3582TIP3    H132305   6.136   4.640   7.024
 3582TIP3    H232306   6.217   4.683   6.904
 3583TIP3   OH232307   1.684   2.038   6.630
 3583TIP3    H132308   1.763   2.062   6.583
 3583TIP3    H232309   1.636   1.981   6.570
 3584TIP3   OH232310   0.100   5.273   2.025
 3584TIP3    H132311   0.105   5.277   2.120
 3584TIP3    H232312   0.123   5.362   1.996
 3585TIP3   OH232313   0.929   4.798   1.280
 3585TIP3    H132314   0.871   4.875   1.287
 3585TIP3    H232315   0.984   4.802   1.358
 3586TIP3   OH232316   1.426   2.897   1.303
 3586TIP3    H132317   1.490   2.902   1.374
 3586TIP3    H232318   1.477   2.871   1.227
 3587TIP3   OH232319   2.342   1.318   8.667
 3587TIP3    H132320   2.382   1.399   8.697
 3587TIP3    H232321   2.413   1.270   8.625
 3588TIP3   OH232322   3.130   3.579   0.231
 3588TIP3    H132323   3.221   3.598   0.208
 3588TIP3    H232324   3.132   3.558   0.324
 3589TIP3   OH232325   1.215   4.633   1.630
 3589TIP3    H132326   1.284   4.635   1.564
 3589TIP3    H232327   1.207   4.724   1.659
 3590TIP3   OH232328   0.834   5.686   7.765
 3590TIP3    H132329   0.835   5.601   7.809
 3590TIP3    H232330   0.827   5.750   7.836
 3591TIP3   OH232331   2.798   0.812   1.821
 3591TIP3    H132332   2.878   0.774   1.856
 3591TIP3    H232333   2.826   0.894   1.780
 3592TIP3   OH232334   0.674   4.631   2.440
 3592TIP3    H132335   0.610   4.587   2.496
 3592TIP3    H232336   0.750   4.573   2.440
 3593TIP3   OH232337   1.316   4.364   6.701
 3593TIP3    H132338   1.258   4.386   6.773
 3593TIP3    H232339   1.273   4.292   6.656
 3594TIP3   OH232340   0.325   5.039   1.435
 3594TIP3    H132341   0.350   5.017   1.525
 3594TIP3    H232342   0.377   5.115   1.413
 3595TIP3   OH232343   5.706   6.073   6.775
 3595TIP3    H132344   5.772   6.007   6.756
 3595TIP3    H232345   5.681   6.057   6.866
 3596TIP3   OH232346   0.429   0.759   0.853
 3596TIP3    H132347   0.414   0.667   0.832
 3596TIP3    H232348   0.354   0.784   0.908
 3597TIP3   OH232349   5.297   3.720   6.381
 3597TIP3    H132350   5.336   3.725   6.468
 3597TIP3    H232351   5.319   3.632   6.349
 3598TIP3   OH232352   6.434   3.264   1.424
 3598TIP3    H132353   6.361   3.314   1.389
 3598TIP3    H232354   6.483   3.327   1.477
 3599TIP3   OH232355   1.419   3.702   1.719
 3599TIP3    H132356   1.396   3.784   1.762
 3599TIP3    H232357   1.409   3.636   1.787
 3600TIP3   OH232358   5.434   4.996   1.505
 3600TIP3    H132359   5.461   4.907   1.483
 3600TIP3    H232360   5.424   4.995   1.600
 3601TIP3   OH232361   2.913   5.956   7.467
 3601TIP3    H132362   2.909   5.861   7.472
 3601TIP3    H232363   2.939   5.983   7.555
 3602TIP3   OH232364   1.073   1.760   2.567
 3602TIP3    H132365   0.999   1.816   2.588
 3602TIP3    H232366   1.088   1.772   2.474
 3603TIP3   OH232367   5.019   6.443   2.342
 3603TIP3    H132368   5.006   6.356   2.378
 3603TIP3    H232369   5.050   6.428   2.253
 3604TIP3   OH232370   0.865   6.223   6.917
 3604TIP3    H132371   0.772   6.215   6.937
 3604TIP3    H232372   0.907   6.155   6.970
 3605TIP3   OH232373   3.473   3.052   6.522
 3605TIP3    H132374   3.447   2.961   6.537
 3605TIP3    H232375   3.536   3.048   6.450
 3606TIP3   OH232376   3.101   1.882   0.825
 3606TIP3    H132377   3.080   1.912   0.737
 3606TIP3    H232378   3.016   1.876   0.869
 3607TIP3   OH232379   0.552   3.473   1.583
 3607TIP3    H132380   0.564   3.390   1.628
 3607TIP3    H232381   0.482   3.517   1.632
 3608TIP3   OH232382   2.128   3.783   0.160
 3608TIP3    H132383   2.166   3.742   0.082
 3608TIP3    H232384   2.189   3.761   0.230
 3609TIP3   OH232385   6.403   2.149   8.172
 3609TIP3    H132386   6.399   2.212   8.100
 3609TIP3    H232387   6.357   2.191   8.244
 3610TIP3   OH232388   3.000   0.614   7.887
 3610TIP3    H132389   3.086   0.587   7.856
 3610TIP3    H232390   2.976   0.688   7.831
 3611TIP3   OH232391   3.215   4.672   7.507
 3611TIP3    H132392   3.189   4.592   7.461
 3611TIP3    H232393   3.159   4.675   7.584
 3612TIP3   OH232394   4.462   5.291   0.768
 3612TIP3    H132395   4.439   5.302   0.861
 3612TIP3    H232396   4.379   5.274   0.725
 3613TIP3   OH232397   5.546   0.086   7.208
 3613TIP3    H132398   5.485   0.124   7.145
 3613TIP3    H232399   5.504   0.099   7.293
 3614TIP3   OH232400   0.754   2.389   7.247
 3614TIP3    H132401   0.719   2.425   7.166
 3614TIP3    H232402   0.696   2.422   7.315
 3615TIP3   OH232403   1.767   5.247   2.504
 3615TIP3    H132404   1.746   5.261   2.411
 3615TIP3    H232405   1.735   5.159   2.523
 3616TIP3   OH232406   4.797   0.558   0.490
 3616TIP3    H132407   4.773   0.508   0.568
 3616TIP3    H232408   4.858   0.624   0.522
 3617TIP3   OH232409   4.752   0.228   6.852
 3617TIP3    H132410   4.808   0.287   6.903
 3617TIP3    H232411   4.793   0.224   6.765
 3618TIP3   OH232412   3.997   2.928   7.549
 3618TIP3    H132413   4.005   3.005   7.605
 3618TIP3    H232414   3.966   2.859   7.607
 3619TIP3   OH232415   1.991   1.725   0.038
 3619TIP3    H132416   2.048   1.751   8.700
 3619TIP3    H232417   1.924   1.671   8.732
 3620TIP3   OH232418   1.677   4.835   2.209
 3620TIP3    H132419   1.604   4.873   2.256
 3620TIP3    H232420   1.740   4.906   2.199
 3621TIP3   OH232421   5.181   0.546   1.447
 3621TIP3    H132422   5.260   0.546   1.500
 3621TIP3    H232423   5.176   0.635   1.411
 3622TIP3   OH232424   2.128   5.863   1.074
 3622TIP3    H132425   2.082   5.897   1.151
 3622TIP3    H232426   2.210   5.830   1.109
 3623TIP3   OH232427   6.697   4.791   0.085
 3623TIP3    H132428   6.606   4.805   0.109
 3623TIP3    H232429   6.705   4.828   8.732
 3624TIP3   OH232430   1.556   5.842   6.844
 3624TIP3    H132431   1.646   5.834   6.875
 3624TIP3    H232432   1.556   5.802   6.758
 3625TIP3   OH232433   3.729   2.743   8.668
 3625TIP3    H132434   3.730   2.807   8.597
 3625TIP3    H232435   3.817   2.746   8.704
 3626TIP3   OH232436   3.618   3.731   8.410
 3626TIP3    H132437   3.617   3.644   8.371
 3626TIP3    H232438   3.631   3.715   8.504
 3627TIP3   OH232439   5.960   4.684   1.796
 3627TIP3    H132440   5.951   4.609   1.854
 3627TIP3    H232441   5.905   4.752   1.836
 3628TIP3   OH232442   3.364   0.654   7.793
 3628TIP3    H132443   3.436   0.715   7.780
 3628TIP3    H232444   3.306   0.669   7.718
 3629TIP3   OH232445   2.146   4.400   8.610
 3629TIP3    H132446   2.187   4.383   8.525
 3629TIP3    H232447   2.107   4.487   8.601
 3630TIP3   OH232448   4.307   5.501   1.665
 3630TIP3    H132449   4.386   5.486   1.718
 3630TIP3    H232450   4.251   5.426   1.684
 3631TIP3   OH232451   1.835   4.544   6.918
 3631TIP3    H132452   1.811   4.637   6.918
 3631TIP3    H232453   1.873   4.530   6.832
 3632TIP3   OH232454   3.545   6.209   0.963
 3632TIP3    H132455   3.578   6.266   1.033
 3632TIP3    H232456   3.477   6.157   1.005
 3633TIP3   OH232457   0.951   5.282   8.192
 3633TIP3    H132458   0.960   5.206   8.249
 3633TIP3    H232459   0.891   5.253   8.123
 3634TIP3   OH232460   1.323   4.163   1.646
 3634TIP3    H132461   1.385   4.139   1.715
 3634TIP3    H232462   1.366   4.136   1.565
 3635TIP3   OH232463   2.720   0.815   6.571
 3635TIP3    H132464   2.804   0.839   6.610
 3635TIP3    H232465   2.662   0.887   6.592
 3636TIP3   OH232466   2.190   0.232   7.415
 3636TIP3    H132467   2.246   0.308   7.431
 3636TIP3    H232468   2.239   0.178   7.354
 3637TIP3   OH232469   1.517   3.833   1.972
 3637TIP3    H132470   1.524   3.746   2.011
 3637TIP3    H232471   1.595   3.880   2.002
 3638TIP3   OH232472   1.073   6.386   8.111
 3638TIP3    H132473   1.156   6.428   8.135
 3638TIP3    H232474   1.053   6.420   8.024
 3639TIP3   OH232475   1.370   4.041   1.087
 3639TIP3    H132476   1.331   3.987   1.156
 3639TIP3    H232477   1.438   3.985   1.048
 3640TIP3   OH232478   6.328   1.506   7.664
 3640TIP3    H132479   6.254   1.541   7.713
 3640TIP3    H232480   6.289   1.452   7.596
 3641TIP3   OH232481   4.339   6.702   7.622
 3641TIP3    H132482   4.246   6.723   7.635
 3641TIP3    H232483   4.367   6.761   7.551
 3642TIP3   OH232484   2.776   0.451   0.140
 3642TIP3    H132485   2.840   0.500   0.088
 3642TIP3    H232486   2.736   0.516   0.197
 3643TIP3   OH232487   3.476   0.399   0.930
 3643TIP3    H132488   3.555   0.347   0.942
 3643TIP3    H232489   3.439   0.367   0.847
 3644TIP3   OH232490   1.944   6.091   7.308
 3644TIP3    H132491   2.012   6.036   7.346
 3644TIP3    H232492   1.868   6.078   7.365
 3645TIP3   OH232493   1.088   1.685   8.012
 3645TIP3    H132494   1.017   1.637   8.057
 3645TIP3    H232495   1.168   1.639   8.038
 3646TIP3   OH232496   1.957   6.651   7.319
 3646TIP3    H132497   1.961   6.558   7.297
 3646TIP3    H232498   1.914   6.692   7.245
 3647TIP3   OH232499   4.249   5.236   7.196
 3647TIP3    H132500   4.292   5.287   7.264
 3647TIP3    H232501   4.280   5.274   7.114
 3648TIP3   OH232502   1.469   5.380   7.671
 3648TIP3    H132503   1.554   5.337   7.660
 3648TIP3    H232504   1.485   5.451   7.732
 3649TIP3   OH232505   6.675   5.235   8.580
 3649TIP3    H132506   6.741   5.279   8.634
 3649TIP3    H232507   6.659   5.295   8.508
 3650TIP3   OH232508   6.016   3.580   0.984
 3650TIP3    H132509   5.926   3.557   1.007
 3650TIP3    H232510   6.052   3.617   1.065
 3651TIP3   OH232511   6.024   5.947   1.393
 3651TIP3    H132512   5.974   5.888   1.337
 3651TIP3    H232513   6.024   5.904   1.479
 3652TIP3   OH232514   6.539   3.945   0.097
 3652TIP3    H132515   6.493   4.023   0.066
 3652TIP3    H232516   6.589   3.915   0.021
 3653TIP3   OH232517   5.590   0.552   7.813
 3653TIP3    H132518   5.654   0.494   7.855
 3653TIP3    H232519   5.612   0.549   7.720
 3654TIP3   OH232520   1.035   2.958   2.468
 3654TIP3    H132521   1.083   2.880   2.493
 3654TIP3    H232522   1.096   3.008   2.414
 3655TIP3   OH232523   3.498   3.654   6.279
 3655TIP3    H132524   3.444   3.617   6.349
 3655TIP3    H232525   3.437   3.668   6.207
 3656TIP3   OH232526   3.855   3.372   6.814
 3656TIP3    H132527   3.844   3.280   6.790
 3656TIP3    H232528   3.795   3.420   6.758
 3657TIP3   OH232529   6.791   1.233   1.178
 3657TIP3    H132530   6.767   1.197   1.263
 3657TIP3    H232531   0.025   1.181   1.149
 3658TIP3   OH232532   2.453   2.658   1.296
 3658TIP3    H132533   2.502   2.707   1.362
 3658TIP3    H232534   2.490   2.570   1.299
 3659TIP3   OH232535   3.087   3.376   7.135
 3659TIP3    H132536   3.078   3.423   7.218
 3659TIP3    H232537   3.127   3.439   7.075
 3660TIP3   OH232538   3.013   2.148   6.778
 3660TIP3    H132539   2.952   2.192   6.838
 3660TIP3    H232540   3.094   2.198   6.786
 3661TIP3   OH232541   5.377   2.853   0.220
 3661TIP3    H132542   5.331   2.933   0.246
 3661TIP3    H232543   5.439   2.837   0.292
 3662TIP3   OH232544   4.951   0.497   6.279
 3662TIP3    H132545   5.039   0.532   6.263
 3662TIP3    H232546   4.955   0.407   6.248
 3663TIP3   OH232547   2.661   4.924   7.120
 3663TIP3    H132548   2.705   4.839   7.120
 3663TIP3    H232549   2.720   4.981   7.168
 3664TIP3   OH232550   5.474   1.222   0.440
 3664TIP3    H132551   5.416   1.216   0.363
 3664TIP3    H232552   5.458   1.141   0.488
 3665TIP3   OH232553   4.726   1.804   0.812
 3665TIP3    H132554   4.729   1.860   0.735
 3665TIP3    H232555   4.716   1.865   0.886
 3666TIP3   OH232556   1.899   3.869   1.368
 3666TIP3    H132557   1.905   3.930   1.442
 3666TIP3    H232558   1.990   3.854   1.342
 3667TIP3   OH232559   3.968   6.051   6.234
 3667TIP3    H132560   3.990   6.037   6.326
 3667TIP3    H232561   4.053   6.068   6.192
 3668TIP3   OH232562   1.539   0.911   7.060
 3668TIP3    H132563   1.597   0.971   7.107
 3668TIP3    H232564   1.457   0.960   7.050
 3669TIP3   OH232565   1.069   4.123   1.344
 3669TIP3    H132566   1.044   4.214   1.361
 3669TIP3    H232567   1.094   4.122   1.251
 3670TIP3   OH232568   4.138   3.473   7.769
 3670TIP3    H132569   4.176   3.451   7.854
 3670TIP3    H232570   4.107   3.564   7.780
 3671TIP3   OH232571   3.575   6.412   0.744
 3671TIP3    H132572   3.652   6.419   0.801
 3671TIP3    H232573   3.511   6.364   0.795
 3672TIP3   OH232574   4.047   2.355   1.989
 3672TIP3    H132575   4.089   2.311   1.915
 3672TIP3    H232576   4.041   2.447   1.962
 3673TIP3   OH232577   4.686   3.700   8.380
 3673TIP3    H132578   4.779   3.717   8.363
 3673TIP3    H232579   4.682   3.606   8.396
 3674TIP3   OH232580   6.137   1.746   7.707
 3674TIP3    H132581   6.072   1.719   7.772
 3674TIP3    H232582   6.183   1.820   7.748
 3675TIP3   OH232583   2.531   3.605   0.613
 3675TIP3    H132584   2.449   3.653   0.630
 3675TIP3    H232585   2.600   3.671   0.624
 3676TIP3   OH232586   0.502   4.633   7.103
 3676TIP3    H132587   0.419   4.629   7.057
 3676TIP3    H232588   0.567   4.650   7.035
 3677TIP3   OH232589   6.094   4.345   7.369
 3677TIP3    H132590   6.024   4.281   7.378
 3677TIP3    H232591   6.054   4.417   7.319
 3678TIP3   OH232592   5.221   1.215   2.461
 3678TIP3    H132593   5.310   1.245   2.442
 3678TIP3    H232594   5.212   1.133   2.413
 3679TIP3   OH232595   3.444   4.808   7.493
 3679TIP3    H132596   3.473   4.790   7.404
 3679TIP3    H232597   3.378   4.741   7.511
 3680TIP3   OH232598   5.558   5.847   0.990
 3680TIP3    H132599   5.481   5.902   1.005
 3680TIP3    H232600   5.555   5.781   1.059
 3681TIP3   OH232601   1.338   1.734   1.679
 3681TIP3    H132602   1.430   1.712   1.661
 3681TIP3    H232603   1.343   1.803   1.746
 3682TIP3   OH232604   0.375   0.993   1.007
 3682TIP3    H132605   0.406   1.003   1.097
 3682TIP3    H232606   0.436   0.930   0.968
 3683TIP3   OH232607   5.512   4.328   7.907
 3683TIP3    H132608   5.430   4.280   7.919
 3683TIP3    H232609   5.581   4.267   7.933
 3684TIP3   OH232610   4.731   3.325   8.273
 3684TIP3    H132611   4.704   3.237   8.246
 3684TIP3    H232612   4.744   3.318   8.367
 3685TIP3   OH232613   6.472   3.395   8.330
 3685TIP3    H132614   6.397   3.338   8.310
 3685TIP3    H232615   6.518   3.349   8.400
 3686TIP3   OH232616   1.089   6.225   8.336
 3686TIP3    H132617   1.087   6.282   8.259
 3686TIP3    H232618   1.177   6.187   8.335
 3687TIP3   OH232619   2.499   0.429   8.708
 3687TIP3    H132620   2.512   0.368   8.635
 3687TIP3    H232621   2.586   0.439   0.012
 3688TIP3   OH232622   3.776   3.544   8.002
 3688TIP3    H132623   3.732   3.563   8.084
 3688TIP3    H232624   3.826   3.464   8.019
 3689TIP3   OH232625   3.042   2.963   7.945
 3689TIP3    H132626   3.011   2.872   7.946
 3689TIP3    H232627   2.993   3.005   8.015
 3690TIP3   OH232628   1.890   1.279   8.292
 3690TIP3    H132629   1.849   1.287   8.206
 3690TIP3    H232630   1.865   1.359   8.338
 3691TIP3   OH232631   2.180   6.295   0.386
 3691TIP3    H132632   2.195   6.268   0.295
 3691TIP3    H232633   2.260   6.340   0.411
 3692TIP3   OH232634   3.368   1.538   0.291
 3692TIP3    H132635   3.337   1.521   0.380
 3692TIP3    H232636   3.361   1.454   0.247
 3693TIP3   OH232637   2.103   4.194   7.861
 3693TIP3    H132638   2.090   4.107   7.823
 3693TIP3    H232639   2.189   4.188   7.904
 3694TIP3   OH232640   2.845   4.772   8.289
 3694TIP3    H132641   2.843   4.690   8.338
 3694TIP3    H232642   2.758   4.779   8.250
 3695TIP3   OH232643   1.786   5.737   8.371
 3695TIP3    H132644   1.697   5.727   8.405
 3695TIP3    H232645   1.780   5.809   8.308
 3696TIP3   OH232646   5.967   4.653   6.324
 3696TIP3    H132647   5.953   4.747   6.309
 3696TIP3    H232648   5.914   4.610   6.258
 3697TIP3   OH232649   4.297   0.996   8.463
 3697TIP3    H132650   4.351   1.065   8.500
 3697TIP3    H232651   4.249   0.961   8.538
 3698TIP3   OH232652   0.420   5.815   7.769
 3698TIP3    H132653   0.417   5.728   7.809
 3698TIP3    H232654   0.341   5.820   7.716
 3699TIP3   OH232655   3.106   1.110   1.566
 3699TIP3    H132656   3.023   1.079   1.604
 3699TIP3    H232657   3.095   1.205   1.559
 3700TIP3   OH232658   4.912   1.812   1.475
 3700TIP3    H132659   4.953   1.893   1.446
 3700TIP3    H232660   4.868   1.834   1.556
 3701TIP3   OH232661   2.331   1.575   1.416
 3701TIP3    H132662   2.277   1.567   1.338
 3701TIP3    H232663   2.290   1.645   1.467
 3702TIP3   OH232664   4.337   6.603   2.078
 3702TIP3    H132665   4.319   6.641   1.992
 3702TIP3    H232666   4.304   6.667   2.140
 3703TIP3   OH232667   2.896   4.469   8.356
 3703TIP3    H132668   2.884   4.399   8.292
 3703TIP3    H232669   2.990   4.466   8.376
 3704TIP3   OH232670   3.686   5.335   7.536
 3704TIP3    H132671   3.747   5.337   7.462
 3704TIP3    H232672   3.699   5.248   7.575
 3705TIP3   OH232673   4.214   6.658   2.388
 3705TIP3    H132674   4.196   6.676   2.480
 3705TIP3    H232675   4.299   6.697   2.372
 3706TIP3   OH232676   0.506   5.485   0.765
 3706TIP3    H132677   0.532   5.576   0.782
 3706TIP3    H232678   0.432   5.470   0.823
 3707TIP3   OH232679   4.537   5.638   1.029
 3707TIP3    H132680   4.482   5.675   0.960
 3707TIP3    H232681   4.543   5.707   1.095
 3708TIP3   OH232682   2.147   2.367   8.074
 3708TIP3    H132683   2.058   2.364   8.038
 3708TIP3    H232684   2.136   2.406   8.161
 3709TIP3   OH232685   2.934   5.661   8.239
 3709TIP3    H132686   2.930   5.664   8.144
 3709TIP3    H232687   2.970   5.747   8.264
 3710TIP3   OH232688   1.674   2.367   8.472
 3710TIP3    H132689   1.699   2.312   8.546
 3710TIP3    H232690   1.684   2.311   8.395
 3711TIP3   OH232691   6.073   6.786   8.667
 3711TIP3    H132692   6.076   6.705   8.718
 3711TIP3    H232693   6.077   0.015   8.731
 3712TIP3   OH232694   2.996   3.928   7.434
 3712TIP3    H132695   3.062   3.996   7.445
 3712TIP3    H232696   3.033   3.851   7.476
 3713TIP3   OH232697   2.015   1.671   7.508
 3713TIP3    H132698   1.936   1.721   7.528
 3713TIP3    H232699   2.087   1.731   7.528
 3714TIP3   OH232700   0.720   6.029   6.556
 3714TIP3    H132701   0.723   6.116   6.518
 3714TIP3    H232702   0.811   6.005   6.570
 3715TIP3   OH232703   6.453   2.801   8.183
 3715TIP3    H132704   6.428   2.709   8.179
 3715TIP3    H232705   6.379   2.845   8.225
 3716TIP3   OH232706   0.309   1.439   7.717
 3716TIP3    H132707   0.398   1.438   7.752
 3716TIP3    H232708   0.312   1.383   7.640
 3717TIP3   OH232709   1.581   4.589   0.643
 3717TIP3    H132710   1.636   4.527   0.594
 3717TIP3    H232711   1.627   4.600   0.727
 3718TIP3   OH232712   2.809   0.790   1.485
 3718TIP3    H132713   2.764   0.706   1.495
 3718TIP3    H232714   2.885   0.783   1.543
 3719TIP3   OH232715   3.651   5.623   1.051
 3719TIP3    H132716   3.648   5.561   0.978
 3719TIP3    H232717   3.592   5.694   1.025
 3720TIP3   OH232718   1.706   4.914   1.756
 3720TIP3    H132719   1.652   4.883   1.684
 3720TIP3    H232720   1.643   4.940   1.824
 3721TIP3   OH232721   6.749   3.168   8.720
 3721TIP3    H132722   6.674   3.120   0.018
 3721TIP3    H232723   6.724   3.195   8.631
 3722TIP3   OH232724   0.247   6.363   7.803
 3722TIP3    H132725   0.168   6.413   7.781
 3722TIP3    H232726   0.281   6.335   7.718
 3723TIP3   OH232727   3.670   4.373   0.119
 3723TIP3    H132728   3.685   4.467   0.129
 3723TIP3    H232729   3.614   4.350   0.192
 3724TIP3   OH232730   4.473   0.695   7.048
 3724TIP3    H132731   4.471   0.668   6.956
 3724TIP3    H232732   4.477   0.791   7.045
 3725TIP3   OH232733   1.870   2.509   7.554
 3725TIP3    H132734   1.875   2.591   7.602
 3725TIP3    H232735   1.945   2.510   7.495
 3726TIP3   OH232736   5.836   5.359   8.015
 3726TIP3    H132737   5.782   5.288   8.051
 3726TIP3    H232738   5.922   5.347   8.055
 3727TIP3   OH232739   4.809   3.521   8.104
 3727TIP3    H132740   4.760   3.447   8.141
 3727TIP3    H232741   4.897   3.486   8.090
 3728TIP3   OH232742   1.569   5.219   1.046
 3728TIP3    H132743   1.570   5.123   1.056
 3728TIP3    H232744   1.544   5.252   1.132
 3729TIP3   OH232745   1.044   2.389   6.654
 3729TIP3    H132746   0.993   2.406   6.574
 3729TIP3    H232747   1.021   2.299   6.678
 3730TIP3   OH232748   0.544   2.139   0.411
 3730TIP3    H132749   0.478   2.099   0.467
 3730TIP3    H232750   0.608   2.070   0.395
 3731TIP3   OH232751   2.834   6.302   1.569
 3731TIP3    H132752   2.899   6.371   1.576
 3731TIP3    H232753   2.879   6.230   1.524
 3732TIP3   OH232754   6.578   0.393   2.170
 3732TIP3    H132755   6.609   0.357   2.086
 3732TIP3    H232756   6.484   0.377   2.169
 3733TIP3   OH232757   1.253   3.703   7.096
 3733TIP3    H132758   1.275   3.760   7.023
 3733TIP3    H232759   1.282   3.616   7.069
 3734TIP3   OH232760   5.628   0.093   8.194
 3734TIP3    H132761   5.549   0.124   8.238
 3734TIP3    H232762   5.645   0.007   8.233
 3735TIP3   OH232763   4.131   4.362   8.632
 3735TIP3    H132764   4.141   4.413   8.552
 3735TIP3    H232765   4.044   4.322   8.625
 3736TIP3   OH232766   2.319   6.579   8.174
 3736TIP3    H132767   2.346   6.590   8.265
 3736TIP3    H232768   2.227   6.551   8.180
 3737TIP3   OH232769   4.912   0.225   1.580
 3737TIP3    H132770   4.854   0.183   1.517
 3737TIP3    H232771   4.900   0.319   1.564
 3738TIP3   OH232772   2.983   4.288   7.726
 3738TIP3    H132773   2.966   4.262   7.817
 3738TIP3    H232774   3.078   4.291   7.720
 3739TIP3   OH232775   4.728   2.682   1.250
 3739TIP3    H132776   4.710   2.635   1.331
 3739TIP3    H232777   4.665   2.647   1.187
 3740TIP3   OH232778   6.056   1.037   1.404
 3740TIP3    H132779   6.005   0.975   1.352
 3740TIP3    H232780   5.999   1.114   1.412
 3741TIP3   OH232781   0.144   4.456   0.958
 3741TIP3    H132782   0.239   4.453   0.943
 3741TIP3    H232783   0.121   4.548   0.947
 3742TIP3   OH232784   1.515   4.866   1.571
 3742TIP3    H132785   1.470   4.814   1.505
 3742TIP3    H232786   1.496   4.956   1.548
 3743TIP3   OH232787   6.364   3.552   6.756
 3743TIP3    H132788   6.305   3.521   6.825
 3743TIP3    H232789   6.309   3.608   6.702
 3744TIP3   OH232790   3.334   6.661   1.748
 3744TIP3    H132791   3.349   6.657   1.654
 3744TIP3    H232792   3.244   6.632   1.760
 3745TIP3   OH232793   1.780   3.171   1.208
 3745TIP3    H132794   1.809   3.231   1.277
 3745TIP3    H232795   1.689   3.150   1.231
 3746TIP3   OH232796   4.743   0.042   1.079
 3746TIP3    H132797   4.656   0.071   1.104
 3746TIP3    H232798   4.780   0.003   1.158
 3747TIP3   OH232799   4.899   0.765   2.544
 3747TIP3    H132800   4.929   0.685   2.501
 3747TIP3    H232801   4.978   0.817   2.556
 3748TIP3   OH232802   1.382   3.645   7.975
 3748TIP3    H132803   1.330   3.705   7.922
 3748TIP3    H232804   1.441   3.701   8.025
 3749TIP3   OH232805   6.595   3.808   6.247
 3749TIP3    H132806   6.549   3.809   6.331
 3749TIP3    H232807   6.563   3.885   6.200
 3750TIP3   OH232808   5.406   0.164   8.395
 3750TIP3    H132809   5.330   0.116   8.428
 3750TIP3    H232810   5.445   0.204   8.473
 3751TIP3   OH232811   5.963   2.168   7.019
 3751TIP3    H132812   5.923   2.231   6.960
 3751TIP3    H232813   6.019   2.114   6.963
 3752TIP3   OH232814   4.146   0.694   0.731
 3752TIP3    H132815   4.157   0.783   0.698
 3752TIP3    H232816   4.097   0.704   0.812
 3753TIP3   OH232817   3.341   2.775   0.190
 3753TIP3    H132818   3.286   2.848   0.161
 3753TIP3    H232819   3.423   2.816   0.218
 3754TIP3   OH232820   2.900   1.228   1.330
 3754TIP3    H132821   2.856   1.144   1.318
 3754TIP3    H232822   2.869   1.259   1.415
 3755TIP3   OH232823   2.494   6.052   7.848
 3755TIP3    H132824   2.567   6.025   7.902
 3755TIP3    H232825   2.533   6.069   7.762
 3756TIP3   OH232826   0.853   3.632   8.067
 3756TIP3    H132827   0.835   3.672   8.151
 3756TIP3    H232828   0.768   3.622   8.025
 3757TIP3   OH232829   2.161   4.084   6.845
 3757TIP3    H132830   2.153   3.994   6.875
 3757TIP3    H232831   2.090   4.096   6.783
 3758TIP3   OH232832   0.754   1.961   0.367
 3758TIP3    H132833   0.754   1.872   0.402
 3758TIP3    H232834   0.841   1.996   0.389
 3759TIP3   OH232835   6.052   0.260   0.583
 3759TIP3    H132836   5.989   0.332   0.576
 3759TIP3    H232837   6.078   0.260   0.675
 3760TIP3   OH232838   1.745   6.336   2.342
 3760TIP3    H132839   1.653   6.323   2.361
 3760TIP3    H232840   1.788   6.255   2.371
 3761TIP3   OH232841   1.324   4.406   7.022
 3761TIP3    H132842   1.281   4.468   7.081
 3761TIP3    H232843   1.417   4.427   7.028
 3762TIP3   OH232844   3.299   4.876   0.509
 3762TIP3    H132845   3.303   4.960   0.463
 3762TIP3    H232846   3.363   4.821   0.465
 3763TIP3   OH232847   2.742   3.027   7.396
 3763TIP3    H132848   2.757   2.963   7.326
 3763TIP3    H232849   2.794   3.103   7.371
 3764TIP3   OH232850   1.656   0.599   8.629
 3764TIP3    H132851   1.618   0.602   8.717
 3764TIP3    H232852   1.584   0.621   8.571
 3765TIP3   OH232853   5.112   0.446   0.896
 3765TIP3    H132854   5.055   0.373   0.873
 3765TIP3    H232855   5.052   0.515   0.925
 3766TIP3   OH232856   6.604   6.152   6.387
 3766TIP3    H132857   6.530   6.152   6.327
 3766TIP3    H232858   6.652   6.232   6.366
 3767TIP3   OH232859   1.629   5.532   0.196
 3767TIP3    H132860   1.704   5.474   0.212
 3767TIP3    H232861   1.659   5.592   0.127
 3768TIP3   OH232862   2.228   6.551   7.840
 3768TIP3    H132863   2.145   6.506   7.826
 3768TIP3    H232864   2.216   6.599   7.923
 3769TIP3   OH232865   2.328   1.102   6.463
 3769TIP3    H132866   2.319   1.094   6.368
 3769TIP3    H232867   2.244   1.071   6.497
 3770TIP3   OH232868   5.035   5.058   8.727
 3770TIP3    H132869   5.020   5.152   8.713
 3770TIP3    H232870   5.029   5.048   0.088
 3771TIP3   OH232871   6.681   5.535   0.091
 3771TIP3    H132872   6.690   5.569   0.180
 3771TIP3    H232873   6.764   5.490   0.074
 3772TIP3   OH232874   6.284   6.443   0.816
 3772TIP3    H132875   6.341   6.372   0.785
 3772TIP3    H232876   6.343   6.517   0.828
 3773TIP3   OH232877   6.512   6.586   1.903
 3773TIP3    H132878   6.585   6.538   1.943
 3773TIP3    H232879   6.447   6.593   1.973
 3774TIP3   OH232880   5.972   3.775   1.874
 3774TIP3    H132881   6.059   3.763   1.835
 3774TIP3    H232882   5.911   3.743   1.806
 3775TIP3   OH232883   1.106   2.905   7.423
 3775TIP3    H132884   1.182   2.925   7.369
 3775TIP3    H232885   1.124   2.819   7.460
 3776TIP3   OH232886   5.766   0.273   7.583
 3776TIP3    H132887   5.693   0.244   7.638
 3776TIP3    H232888   5.748   0.365   7.565
 3777TIP3   OH232889   3.705   1.248   0.968
 3777TIP3    H132890   3.771   1.312   0.945
 3777TIP3    H232891   3.744   1.164   0.943
 3778TIP3   OH232892   2.819   2.445   7.257
 3778TIP3    H132893   2.828   2.446   7.352
 3778TIP3    H232894   2.908   2.453   7.224
 3779TIP3   OH232895   5.890   5.129   6.909
 3779TIP3    H132896   5.829   5.169   6.847
 3779TIP3    H232897   5.946   5.073   6.854
 3780TIP3   OH232898   5.167   5.076   6.930
 3780TIP3    H132899   5.171   4.981   6.917
 3780TIP3    H232900   5.084   5.090   6.975
 3781TIP3   OH232901   3.855   2.139   0.568
 3781TIP3    H132902   3.936   2.183   0.545
 3781TIP3    H232903   3.856   2.135   0.664
 3782TIP3   OH232904   1.342   1.855   1.440
 3782TIP3    H132905   1.353   1.808   1.522
 3782TIP3    H232906   1.259   1.824   1.405
 3783TIP3   OH232907   2.312   1.483   7.704
 3783TIP3    H132908   2.292   1.529   7.785
 3783TIP3    H232909   2.407   1.474   7.704
 3784TIP3   OH232910   2.994   6.778   0.639
 3784TIP3    H132911   2.945   0.016   0.614
 3784TIP3    H232912   2.930   6.707   0.634
 3785TIP3   OH232913   5.773   3.237   2.055
 3785TIP3    H132914   5.709   3.225   2.125
 3785TIP3    H232915   5.722   3.229   1.974
 3786TIP3   OH232916   3.179   1.393   1.579
 3786TIP3    H132917   3.169   1.417   1.672
 3786TIP3    H232918   3.149   1.471   1.532
 3787TIP3   OH232919   5.302   5.136   0.259
 3787TIP3    H132920   5.264   5.210   0.211
 3787TIP3    H232921   5.240   5.064   0.246
 3788TIP3   OH232922   1.954   6.513   1.549
 3788TIP3    H132923   1.861   6.500   1.534
 3788TIP3    H232924   1.995   6.435   1.511
 3789TIP3   OH232925   2.099   3.620   1.582
 3789TIP3    H132926   2.030   3.674   1.622
 3789TIP3    H232927   2.172   3.681   1.568
 3790TIP3   OH232928   3.878   0.163   8.005
 3790TIP3    H132929   3.814   0.142   8.073
 3790TIP3    H232930   3.827   0.166   7.925
 3791TIP3   OH232931   1.978   6.631   1.823
 3791TIP3    H132932   1.983   6.591   1.737
 3791TIP3    H232933   1.924   6.709   1.811
 3792TIP3   OH232934   4.633   2.893   1.100
 3792TIP3    H132935   4.676   2.868   1.018
 3792TIP3    H232936   4.678   2.842   1.168
 3793TIP3   OH232937   5.414   5.665   1.152
 3793TIP3    H132938   5.324   5.646   1.180
 3793TIP3    H232939   5.456   5.579   1.152
 3794TIP3   OH232940   3.279   1.298   8.585
 3794TIP3    H132941   3.197   1.298   8.634
 3794TIP3    H232942   3.256   1.336   8.501
 3795TIP3   OH232943   0.062   1.894   7.357
 3795TIP3    H132944   6.838   1.824   7.370
 3795TIP3    H232945   0.067   1.905   7.262
 3796TIP3   OH232946   3.020   1.310   8.678
 3796TIP3    H132947   2.954   1.379   8.670
 3796TIP3    H232948   2.974   1.231   8.649
 3797TIP3   OH232949   5.340   6.458   7.050
 3797TIP3    H132950   5.366   6.366   7.055
 3797TIP3    H232951   5.311   6.470   6.960
 3798TIP3   OH232952   0.211   0.350   2.180
 3798TIP3    H132953   0.130   0.308   2.210
 3798TIP3    H232954   0.191   0.444   2.179
 3799TIP3   OH232955   0.313   2.540   7.970
 3799TIP3    H132956   0.233   2.552   8.020
 3799TIP3    H232957   0.316   2.614   7.910
 3800TIP3   OH232958   5.149   6.688   8.700
 3800TIP3    H132959   5.174   6.636   0.042
 3800TIP3    H232960   5.071   6.644   8.667
 3801TIP3   OH232961   0.223   3.574   7.666
 3801TIP3    H132962   0.214   3.487   7.704
 3801TIP3    H232963   0.163   3.629   7.716
 3802TIP3   OH232964   6.634   2.886   1.485
 3802TIP3    H132965   6.557   2.898   1.540
 3802TIP3    H232966   6.686   2.820   1.532
 3803TIP3   OH232967   5.055   5.001   0.267
 3803TIP3    H132968   5.054   5.041   0.354
 3803TIP3    H232969   5.023   4.912   0.281
 3804TIP3   OH232970   2.806   1.382   1.530
 3804TIP3    H132971   2.849   1.465   1.512
 3804TIP3    H232972   2.838   1.357   1.617
 3805TIP3   OH232973   3.060   3.329   7.689
 3805TIP3    H132974   2.989   3.308   7.628
 3805TIP3    H232975   3.113   3.249   7.692
 3806TIP3   OH232976   1.747   4.946   7.622
 3806TIP3    H132977   1.715   4.933   7.711
 3806TIP3    H232978   1.689   5.013   7.585
 3807TIP3   OH232979   3.370   5.371   1.969
 3807TIP3    H132980   3.448   5.420   1.998
 3807TIP3    H232981   3.321   5.355   2.049
 3808TIP3   OH232982   0.518   4.884   8.186
 3808TIP3    H132983   0.500   4.968   8.143
 3808TIP3    H232984   0.586   4.905   8.250
 3809TIP3   OH232985   6.604   1.763   6.501
 3809TIP3    H132986   6.659   1.831   6.461
 3809TIP3    H232987   6.633   1.682   6.460
 3810TIP3   OH232988   6.553   1.141   2.001
 3810TIP3    H132989   6.611   1.067   2.018
 3810TIP3    H232990   6.467   1.112   2.032
 3811TIP3   OH232991   1.407   2.383   2.094
 3811TIP3    H132992   1.342   2.314   2.093
 3811TIP3    H232993   1.357   2.464   2.078
 3812TIP3   OH232994   2.079   4.472   2.530
 3812TIP3    H132995   2.052   4.394   2.483
 3812TIP3    H232996   2.144   4.514   2.473
 3813TIP3   OH232997   5.799   0.406   7.905
 3813TIP3    H132998   5.805   0.311   7.915
 3813TIP3    H232999   5.861   0.441   7.968
 3814TIP3   OH233000   0.277   4.115   8.696
 3814TIP3    H133001   0.191   4.134   8.732
 3814TIP3    H233002   0.307   4.197   8.658
 3815TIP3   OH233003   1.516   3.797   8.148
 3815TIP3    H133004   1.455   3.869   8.137
 3815TIP3    H233005   1.592   3.836   8.191
 3816TIP3   OH233006   6.455   5.489   8.192
 3816TIP3    H133007   6.391   5.519   8.256
 3816TIP3    H233008   6.406   5.483   8.110
 3817TIP3   OH233009   1.831   3.542   1.010
 3817TIP3    H133010   1.926   3.538   1.013
 3817TIP3    H233011   1.811   3.636   1.011
 3818TIP3   OH233012   5.531   5.011   7.176
 3818TIP3    H133013   5.583   5.082   7.141
 3818TIP3    H233014   5.474   4.984   7.104
 3819TIP3   OH233015   6.828   5.845   2.019
 3819TIP3    H133016   0.082   5.839   2.010
 3819TIP3    H233017   6.796   5.760   1.990
 3820TIP3   OH233018   1.938   1.521   1.333
 3820TIP3    H133019   2.006   1.550   1.272
 3820TIP3    H233020   1.877   1.471   1.279
 3821TIP3   OH233021   3.908   3.757   8.652
 3821TIP3    H133022   3.843   3.688   8.640
 3821TIP3    H233023   3.881   3.801   8.732
 3822TIP3   OH233024   6.613   4.619   1.397
 3822TIP3    H133025   6.537   4.562   1.392
 3822TIP3    H233026   6.577   4.708   1.397
 3823TIP3   OH233027   0.163   0.088   0.789
 3823TIP3    H133028   0.099   0.108   0.721
 3823TIP3    H233029   0.156   6.834   0.802
 3824TIP3   OH233030   1.693   6.798   0.151
 3824TIP3    H133031   1.618   6.738   0.156
 3824TIP3    H233032   1.673   0.014   0.077
 3825TIP3   OH233033   4.139   6.413   0.327
 3825TIP3    H133034   4.048   6.418   0.299
 3825TIP3    H233035   4.139   6.450   0.416
 3826TIP3   OH233036   2.433   3.350   0.693
 3826TIP3    H133037   2.478   3.430   0.664
 3826TIP3    H233038   2.474   3.328   0.776
 3827TIP3   OH233039   3.945   3.184   0.149
 3827TIP3    H133040   4.003   3.162   0.076
 3827TIP3    H233041   4.005   3.204   0.222
 3828TIP3   OH233042   5.116   2.000   7.099
 3828TIP3    H133043   5.107   2.092   7.071
 3828TIP3    H233044   5.194   1.969   7.052
 3829TIP3   OH233045   6.093   0.999   8.031
 3829TIP3    H133046   6.082   1.042   7.946
 3829TIP3    H233047   6.163   1.049   8.073
 3830TIP3   OH233048   6.191   5.208   7.703
 3830TIP3    H133049   6.227   5.283   7.750
 3830TIP3    H233050   6.152   5.153   7.771
 3831TIP3   OH233051   1.358   2.158   0.622
 3831TIP3    H133052   1.453   2.166   0.629
 3831TIP3    H233053   1.324   2.218   0.689
 3832TIP3   OH233054   1.252   5.147   8.353
 3832TIP3    H133055   1.204   5.122   8.432
 3832TIP3    H233056   1.278   5.064   8.313
 3833TIP3   OH233057   4.298   1.354   8.138
 3833TIP3    H133058   4.258   1.288   8.195
 3833TIP3    H233059   4.224   1.395   8.093
 3834TIP3   OH233060   5.079   6.574   1.617
 3834TIP3    H133061   5.036   6.490   1.632
 3834TIP3    H233062   5.090   6.578   1.522
 3835TIP3   OH233063   0.866   4.571   2.103
 3835TIP3    H133064   0.816   4.642   2.145
 3835TIP3    H233065   0.956   4.602   2.104
 3836TIP3   OH233066   2.673   4.475   6.916
 3836TIP3    H133067   2.720   4.408   6.866
 3836TIP3    H233068   2.589   4.483   6.872
 3837TIP3   OH233069   3.876   1.826   7.497
 3837TIP3    H133070   3.798   1.848   7.548
 3837TIP3    H233071   3.852   1.846   7.406
 3838TIP3   OH233072   6.160   4.976   0.451
 3838TIP3    H133073   6.104   4.900   0.461
 3838TIP3    H233074   6.117   5.045   0.501
 3839TIP3   OH233075   2.338   3.631   6.780
 3839TIP3    H133076   2.355   3.658   6.690
 3839TIP3    H233077   2.243   3.637   6.790
 3840TIP3   OH233078   3.581   2.452   1.395
 3840TIP3    H133079   3.494   2.485   1.417
 3840TIP3    H233080   3.626   2.527   1.356
 3841TIP3   OH233081   4.403   2.842   7.670
 3841TIP3    H133082   4.378   2.808   7.584
 3841TIP3    H233083   4.338   2.806   7.730
 3842TIP3   OH233084   5.357   0.852   7.251
 3842TIP3    H133085   5.358   0.920   7.318
 3842TIP3    H233086   5.438   0.864   7.203
 3843TIP3   OH233087   5.124   5.869   8.141
 3843TIP3    H133088   5.066   5.846   8.068
 3843TIP3    H233089   5.073   5.847   8.220
 3844TIP3   OH233090   5.165   6.164   7.300
 3844TIP3    H133091   5.087   6.112   7.284
 3844TIP3    H233092   5.135   6.255   7.289
 3845TIP3   OH233093   3.766   1.619   0.076
 3845TIP3    H133094   3.803   1.672   0.005
 3845TIP3    H233095   3.838   1.563   0.105
 3846TIP3   OH233096   4.284   5.255   2.532
 3846TIP3    H133097   4.370   5.239   2.572
 3846TIP3    H233098   4.293   5.223   2.442
 3847TIP3   OH233099   4.071   0.437   2.066
 3847TIP3    H133100   4.063   0.349   2.105
 3847TIP3    H233101   4.014   0.435   1.990
 3848TIP3   OH233102   3.020   4.733   6.363
 3848TIP3    H133103   2.999   4.804   6.423
 3848TIP3    H233104   2.935   4.697   6.338
 3849TIP3   OH233105   0.535   3.563   7.370
 3849TIP3    H133106   0.523   3.499   7.440
 3849TIP3    H233107   0.485   3.639   7.399
 3850TIP3   OH233108   0.773   2.508   1.731
 3850TIP3    H133109   0.750   2.594   1.698
 3850TIP3    H233110   0.722   2.499   1.812
 3851TIP3   OH233111   1.173   4.783   0.323
 3851TIP3    H133112   1.240   4.725   0.360
 3851TIP3    H233113   1.214   4.869   0.323
 3852TIP3   OH233114   2.734   2.164   0.874
 3852TIP3    H133115   2.789   2.097   0.914
 3852TIP3    H233116   2.658   2.169   0.932
 3853TIP3   OH233117   0.037   0.588   2.012
 3853TIP3    H133118   0.087   0.583   1.931
 3853TIP3    H233119   6.815   0.516   2.006
 3854TIP3   OH233120   4.753   5.514   1.422
 3854TIP3    H133121   4.665   5.475   1.427
 3854TIP3    H233122   4.742   5.589   1.364
 3855TIP3   OH233123   6.273   2.846   1.420
 3855TIP3    H133124   6.310   2.828   1.507
 3855TIP3    H233125   6.222   2.767   1.400
 3856TIP3   OH233126   0.686   4.767   7.271
 3856TIP3    H133127   0.630   4.697   7.238
 3856TIP3    H233128   0.763   4.764   7.214
 3857TIP3   OH233129   3.484   2.418   2.275
 3857TIP3    H133130   3.471   2.485   2.343
 3857TIP3    H233131   3.422   2.348   2.299
 3858TIP3   OH233132   5.121   6.320   1.134
 3858TIP3    H133133   5.076   6.282   1.059
 3858TIP3    H233134   5.084   6.276   1.210
 3859TIP3   OH233135   0.845   2.983   8.265
 3859TIP3    H133136   0.879   2.895   8.248
 3859TIP3    H233137   0.840   3.024   8.179
 3860TIP3   OH233138   1.640   1.801   2.364
 3860TIP3    H133139   1.609   1.885   2.328
 3860TIP3    H233140   1.641   1.815   2.459
 3861TIP3   OH233141   4.379   3.560   8.486
 3861TIP3    H133142   4.315   3.538   8.554
 3861TIP3    H233143   4.391   3.654   8.494
 3862TIP3   OH233144   0.549   5.581   1.389
 3862TIP3    H133145   0.500   5.661   1.409
 3862TIP3    H233146   0.495   5.511   1.425
 3863TIP3   OH233147   5.231   6.222   1.535
 3863TIP3    H133148   5.222   6.128   1.550
 3863TIP3    H233149   5.144   6.258   1.552
 3864TIP3   OH233150   3.058   2.029   8.250
 3864TIP3    H133151   3.074   2.071   8.334
 3864TIP3    H233152   2.978   1.978   8.263
 3865TIP3   OH233153   2.839   0.736   0.018
 3865TIP3    H133154   2.929   0.713   0.039
 3865TIP3    H233155   2.835   0.735   8.657
 3866TIP3   OH233156   1.422   0.088   6.246
 3866TIP3    H133157   1.497   0.135   6.282
 3866TIP3    H233158   1.423   0.003   6.291
 3867TIP3   OH233159   6.465   1.276   8.644
 3867TIP3    H133160   6.437   1.260   8.554
 3867TIP3    H233161   6.512   1.360   8.641
 3868TIP3   OH233162   0.481   2.241   0.870
 3868TIP3    H133163   0.419   2.225   0.798
 3868TIP3    H233164   0.559   2.275   0.827
 3869TIP3   OH233165   4.198   3.402   0.673
 3869TIP3    H133166   4.128   3.457   0.638
 3869TIP3    H233167   4.182   3.399   0.767
 3870TIP3   OH233168   5.200   4.676   7.376
 3870TIP3    H133169   5.216   4.719   7.292
 3870TIP3    H233170   5.198   4.748   7.439
 3871TIP3   OH233171   6.209   1.869   7.252
 3871TIP3    H133172   6.118   1.880   7.278
 3871TIP3    H233173   6.239   1.956   7.228
 3872TIP3   OH233174   6.498   0.165   1.386
 3872TIP3    H133175   6.411   0.175   1.347
 3872TIP3    H233176   6.509   0.070   1.396
 3873TIP3   OH233177   4.255   0.890   0.395
 3873TIP3    H133178   4.202   0.877   0.474
 3873TIP3    H233179   4.219   0.968   0.354
 3874TIP3   OH233180   4.759   4.110   0.167
 3874TIP3    H133181   4.697   4.160   0.221
 3874TIP3    H233182   4.770   4.027   0.214
 3875TIP3   OH233183   2.671   1.732   8.181
 3875TIP3    H133184   2.763   1.710   8.166
 3875TIP3    H233185   2.624   1.652   8.159
 3876TIP3   OH233186   1.220   6.518   2.347
 3876TIP3    H133187   1.264   6.434   2.330
 3876TIP3    H233188   1.288   6.584   2.330
 3877TIP3   OH233189   0.165   2.767   0.066
 3877TIP3    H133190   0.156   2.766   0.161
 3877TIP3    H233191   0.243   2.822   0.050
 3878TIP3   OH233192   6.104   1.688   6.720
 3878TIP3    H133193   6.123   1.596   6.701
 3878TIP3    H233194   6.118   1.732   6.636
 3879TIP3   OH233195   1.511   4.956   6.333
 3879TIP3    H133196   1.585   5.013   6.315
 3879TIP3    H233197   1.539   4.869   6.303
 3880TIP3   OH233198   4.005   5.853   1.258
 3880TIP3    H133199   4.072   5.829   1.194
 3880TIP3    H233200   4.053   5.897   1.329
 3881TIP3   OH233201   2.990   4.423   1.599
 3881TIP3    H133202   3.030   4.412   1.513
 3881TIP3    H233203   2.907   4.375   1.593
 3882TIP3   OH233204   0.440   0.693   7.556
 3882TIP3    H133205   0.443   0.605   7.595
 3882TIP3    H233206   0.380   0.685   7.482
 3883TIP3   OH233207   3.476   6.692   0.689
 3883TIP3    H133208   3.520   6.760   0.638
 3883TIP3    H233209   3.508   6.610   0.652
 3884TIP3   OH233210   1.712   5.729   0.020
 3884TIP3    H133211   1.794   5.727   8.705
 3884TIP3    H233212   1.646   5.754   8.690
 3885TIP3   OH233213   4.729   6.692   6.267
 3885TIP3    H133214   4.748   6.677   6.175
 3885TIP3    H233215   4.697   6.608   6.299
 3886TIP3   OH233216   4.806   5.214   1.379
 3886TIP3    H133217   4.791   5.251   1.466
 3886TIP3    H233218   4.831   5.288   1.325
 3887TIP3   OH233219   1.773   1.837   1.149
 3887TIP3    H133220   1.714   1.806   1.080
 3887TIP3    H233221   1.814   1.915   1.112
 3888TIP3   OH233222   1.340   3.994   6.246
 3888TIP3    H133223   1.400   4.008   6.320
 3888TIP3    H233224   1.389   3.936   6.187
 3889TIP3   OH233225   2.224   0.439   1.105
 3889TIP3    H133226   2.185   0.408   1.187
 3889TIP3    H233227   2.316   0.413   1.111
 3890TIP3   OH233228   6.412   3.101   7.898
 3890TIP3    H133229   6.340   3.038   7.891
 3890TIP3    H233230   6.425   3.112   7.992
 3891TIP3   OH233231   2.701   4.254   7.701
 3891TIP3    H133232   2.751   4.325   7.741
 3891TIP3    H233233   2.766   4.198   7.659
 3892TIP3   OH233234   3.477   5.950   8.642
 3892TIP3    H133235   3.457   5.977   8.553
 3892TIP3    H233236   3.393   5.921   8.678
 3893TIP3   OH233237   3.067   3.082   1.700
 3893TIP3    H133238   3.074   3.175   1.675
 3893TIP3    H233239   3.122   3.036   1.636
 3894TIP3   OH233240   3.054   1.878   6.852
 3894TIP3    H133241   3.022   1.967   6.835
 3894TIP3    H233242   3.045   1.833   6.768
 3895TIP3   OH233243   0.633   4.250   1.819
 3895TIP3    H133244   0.693   4.294   1.759
 3895TIP3    H233245   0.601   4.319   1.877
 3896TIP3   OH233246   5.373   0.375   7.751
 3896TIP3    H133247   5.431   0.299   7.755
 3896TIP3    H233248   5.425   0.446   7.788
 3897TIP3   OH233249   3.815   2.519   2.268
 3897TIP3    H133250   3.825   2.552   2.179
 3897TIP3    H233251   3.819   2.598   2.323
 3898TIP3   OH233252   0.317   5.641   0.201
 3898TIP3    H133253   0.248   5.686   0.153
 3898TIP3    H233254   0.367   5.712   0.242
 3899TIP3   OH233255   2.749   0.992   1.287
 3899TIP3    H133256   2.785   1.005   1.199
 3899TIP3    H233257   2.772   0.901   1.308
 3900TIP3   OH233258   2.631   1.334   6.874
 3900TIP3    H133259   2.571   1.260   6.883
 3900TIP3    H233260   2.648   1.341   6.780
 3901TIP3   OH233261   6.090   2.841   0.558
 3901TIP3    H133262   6.116   2.749   0.561
 3901TIP3    H233263   6.173   2.889   0.553
 3902TIP3   OH233264   6.212   4.290   8.351
 3902TIP3    H133265   6.203   4.196   8.338
 3902TIP3    H233266   6.180   4.329   8.269
 3903TIP3   OH233267   1.919   6.384   7.240
 3903TIP3    H133268   1.934   6.305   7.292
 3903TIP3    H233269   1.971   6.371   7.161
 3904TIP3   OH233270   5.154   6.703   8.003
 3904TIP3    H133271   5.107   6.620   8.004
 3904TIP3    H233272   5.168   6.724   8.095
 3905TIP3   OH233273   2.489   5.331   7.280
 3905TIP3    H133274   2.404   5.338   7.323
 3905TIP3    H233275   2.478   5.261   7.216
 3906TIP3   OH233276   5.929   3.091   6.609
 3906TIP3    H133277   5.863   3.079   6.541
 3906TIP3    H233278   5.995   3.023   6.591
 3907TIP3   OH233279   1.311   2.803   7.769
 3907TIP3    H133280   1.256   2.825   7.844
 3907TIP3    H233281   1.358   2.724   7.795
 3908TIP3   OH233282   1.592   0.046   1.663
 3908TIP3    H133283   1.554   6.826   1.726
 3908TIP3    H233284   1.589   6.840   1.580
 3909TIP3   OH233285   6.440   4.043   6.184
 3909TIP3    H133286   6.378   4.093   6.131
 3909TIP3    H233287   6.468   4.104   6.252
 3910TIP3   OH233288   0.998   2.364   7.370
 3910TIP3    H133289   1.058   2.422   7.321
 3910TIP3    H233290   0.912   2.384   7.335
 3911TIP3   OH233291   5.110   5.651   0.285
 3911TIP3    H133292   5.059   5.705   0.225
 3911TIP3    H233293   5.050   5.580   0.310
 3912TIP3   OH233294   0.247   6.272   8.145
 3912TIP3    H133295   0.252   6.203   8.079
 3912TIP3    H233296   0.166   6.319   8.124
 3913TIP3   OH233297   3.589   2.897   0.538
 3913TIP3    H133298   3.590   2.872   0.445
 3913TIP3    H233299   3.561   2.988   0.538
 3914TIP3   OH233300   6.732   3.843   0.616
 3914TIP3    H133301   6.743   3.936   0.637
 3914TIP3    H233302   6.720   3.841   0.522
 3915TIP3   OH233303   3.998   6.466   2.042
 3915TIP3    H133304   3.972   6.526   2.112
 3915TIP3    H233305   3.931   6.398   2.042
 3916TIP3   OH233306   0.696   0.402   8.030
 3916TIP3    H133307   0.701   0.464   8.103
 3916TIP3    H233308   0.602   0.392   8.014
 3917TIP3   OH233309   5.880   3.078   0.990
 3917TIP3    H133310   5.955   3.058   0.935
 3917TIP3    H233311   5.811   3.104   0.929
 3918TIP3   OH233312   6.226   2.265   1.470
 3918TIP3    H133313   6.209   2.358   1.481
 3918TIP3    H233314   6.162   2.222   1.527
 3919TIP3   OH233315   0.951   4.409   8.614
 3919TIP3    H133316   0.967   4.492   8.659
 3919TIP3    H233317   0.917   4.350   8.681
 3920TIP3   OH233318   0.044   1.733   1.890
 3920TIP3    H133319   6.823   1.802   1.914
 3920TIP3    H233320   0.015   1.706   1.803
 3921TIP3   OH233321   1.250   3.091   1.299
 3921TIP3    H133322   1.314   3.020   1.290
 3921TIP3    H233323   1.201   3.089   1.217
 3922TIP3   OH233324   1.924   5.399   1.058
 3922TIP3    H133325   1.911   5.342   0.982
 3922TIP3    H233326   1.952   5.482   1.020
 3923TIP3   OH233327   2.719   4.662   7.124
 3923TIP3    H133328   2.674   4.608   7.189
 3923TIP3    H233329   2.764   4.599   7.068
 3924TIP3   OH233330   1.050   6.072   0.513
 3924TIP3    H133331   0.958   6.070   0.490
 3924TIP3    H233332   1.093   6.118   0.441
 3925TIP3   OH233333   2.040   1.165   0.861
 3925TIP3    H133334   2.001   1.140   0.777
 3925TIP3    H233335   2.130   1.132   0.856
 3926TIP3   OH233336   2.967   4.674   1.513
 3926TIP3    H133337   2.978   4.588   1.553
 3926TIP3    H233338   2.907   4.658   1.440
 3927TIP3   OH233339   5.150   5.138   0.846
 3927TIP3    H133340   5.088   5.099   0.908
 3927TIP3    H233341   5.156   5.229   0.872
 3928TIP3   OH233342   3.979   1.211   7.847
 3928TIP3    H133343   4.026   1.167   7.918
 3928TIP3    H233344   3.965   1.143   7.781
 3929TIP3   OH233345   2.938   4.565   6.748
 3929TIP3    H133346   2.989   4.585   6.670
 3929TIP3    H233347   2.914   4.473   6.740
 3930TIP3   OH233348   3.229   1.895   2.261
 3930TIP3    H133349   3.197   1.875   2.173
 3930TIP3    H233350   3.149   1.904   2.314
 3931TIP3   OH233351   0.416   2.018   6.931
 3931TIP3    H133352   0.408   1.949   6.996
 3931TIP3    H233353   0.423   1.972   6.847
 3932TIP3   OH233354   0.520   1.856   8.283
 3932TIP3    H133355   0.597   1.907   8.259
 3932TIP3    H233356   0.451   1.886   8.223
 3933TIP3   OH233357   2.958   6.393   8.670
 3933TIP3    H133358   3.009   6.322   8.709
 3933TIP3    H233359   3.016   6.431   8.605
 3934TIP3   OH233360   4.569   4.582   8.104
 3934TIP3    H133361   4.534   4.493   8.116
 3934TIP3    H233362   4.501   4.640   8.137
 3935TIP3   OH233363   6.373   0.199   7.465
 3935TIP3    H133364   6.287   0.212   7.425
 3935TIP3    H233365   6.401   0.286   7.492
 3936TIP3   OH233366   0.625   0.583   8.251
 3936TIP3    H133367   0.714   0.619   8.253
 3936TIP3    H233368   0.597   0.583   8.342
 3937TIP3   OH233369   1.809   3.174   7.525
 3937TIP3    H133370   1.870   3.107   7.554
 3937TIP3    H233371   1.864   3.251   7.510
 3938TIP3   OH233372   4.770   1.993   1.030
 3938TIP3    H133373   4.791   2.041   1.111
 3938TIP3    H233374   4.845   2.010   0.972
 3939TIP3   OH233375   1.990   1.398   1.028
 3939TIP3    H133376   1.946   1.479   0.999
 3939TIP3    H233377   1.999   1.346   0.948
 3940TIP3   OH233378   2.092   2.688   8.674
 3940TIP3    H133379   2.072   2.601   8.640
 3940TIP3    H233380   2.180   2.681   8.710
 3941TIP3   OH233381   4.888   4.627   0.402
 3941TIP3    H133382   4.877   4.703   0.345
 3941TIP3    H233383   4.836   4.558   0.359
 3942TIP3   OH233384   0.244   1.507   7.311
 3942TIP3    H133385   0.247   1.581   7.371
 3942TIP3    H233386   0.327   1.511   7.263
 3943TIP3   OH233387   4.436   0.925   0.614
 3943TIP3    H133388   4.457   0.857   0.549
 3943TIP3    H233389   4.447   1.007   0.566
 3944TIP3   OH233390   1.778   5.644   0.974
 3944TIP3    H133391   1.865   5.646   0.933
 3944TIP3    H233392   1.743   5.558   0.950
 3945TIP3   OH233393   0.838   5.073   1.394
 3945TIP3    H133394   0.902   5.143   1.385
 3945TIP3    H233395   0.755   5.112   1.364
 3946TIP3   OH233396   1.433   3.046   1.777
 3946TIP3    H133397   1.367   2.998   1.827
 3946TIP3    H233398   1.513   2.996   1.790
 3947TIP3   OH233399   6.394   3.649   8.329
 3947TIP3    H133400   6.397   3.558   8.301
 3947TIP3    H233401   6.481   3.666   8.366
 3948TIP3   OH233402   5.526   0.546   7.271
 3948TIP3    H133403   5.434   0.523   7.261
 3948TIP3    H233404   5.541   0.613   7.204
 3949TIP3   OH233405   2.860   1.629   1.215
 3949TIP3    H133406   2.847   1.718   1.182
 3949TIP3    H233407   2.773   1.600   1.241
 3950TIP3   OH233408   3.702   1.874   1.513
 3950TIP3    H133409   3.611   1.902   1.529
 3950TIP3    H233410   3.752   1.955   1.513
 3951TIP3   OH233411   4.533   1.259   0.140
 3951TIP3    H133412   4.512   1.166   0.141
 3951TIP3    H233413   4.616   1.265   0.093
 3952TIP3   OH233414   4.939   4.955   6.586
 3952TIP3    H133415   4.938   4.863   6.611
 3952TIP3    H233416   4.984   4.956   6.502
 3953TIP3   OH233417   1.672   6.529   1.589
 3953TIP3    H133418   1.618   6.520   1.667
 3953TIP3    H233419   1.637   6.464   1.528
 3954TIP3   OH233420   1.067   1.619   1.721
 3954TIP3    H133421   1.128   1.642   1.791
 3954TIP3    H233422   1.122   1.588   1.650
 3955TIP3   OH233423   2.123   4.004   6.479
 3955TIP3    H133424   2.056   4.040   6.538
 3955TIP3    H233425   2.201   4.058   6.496
 3956TIP3   OH233426   4.924   1.329   1.331
 3956TIP3    H133427   4.935   1.424   1.339
 3956TIP3    H233428   4.951   1.309   1.242
 3957TIP3   OH233429   3.290   5.491   0.503
 3957TIP3    H133430   3.209   5.529   0.467
 3957TIP3    H233431   3.344   5.566   0.527
 3958TIP3   OH233432   6.705   2.502   0.891
 3958TIP3    H133433   6.731   2.572   0.951
 3958TIP3    H233434   6.610   2.495   0.903
 3959TIP3   OH233435   3.108   1.955   2.539
 3959TIP3    H133436   3.117   1.915   2.626
 3959TIP3    H233437   3.147   2.042   2.549
 3960TIP3   OH233438   6.079   3.205   1.311
 3960TIP3    H133439   6.165   3.172   1.286
 3960TIP3    H233440   6.020   3.169   1.245
 3961TIP3   OH233441   2.572   2.743   0.431
 3961TIP3    H133442   2.556   2.833   0.404
 3961TIP3    H233443   2.505   2.692   0.385
 3962TIP3   OH233444   1.380   4.726   0.506
 3962TIP3    H133445   1.369   4.793   0.573
 3962TIP3    H233446   1.438   4.661   0.546
 3963TIP3   OH233447   6.491   0.157   7.199
 3963TIP3    H133448   6.551   0.087   7.172
 3963TIP3    H233449   6.489   0.151   7.295
 3964TIP3   OH233450   5.604   2.892   1.523
 3964TIP3    H133451   5.556   2.934   1.452
 3964TIP3    H233452   5.668   2.837   1.479
 3965TIP3   OH233453   4.966   1.422   7.990
 3965TIP3    H133454   5.054   1.448   7.964
 3965TIP3    H233455   4.971   1.328   8.003
 3966TIP3   OH233456   4.719   3.930   7.727
 3966TIP3    H133457   4.740   4.006   7.672
 3966TIP3    H233458   4.713   3.857   7.666
 3967TIP3   OH233459   4.102   2.186   2.503
 3967TIP3    H133460   4.173   2.246   2.484
 3967TIP3    H233461   4.025   2.242   2.516
 3968TIP3   OH233462   0.933   0.507   6.252
 3968TIP3    H133463   0.902   0.425   6.214
 3968TIP3    H233464   1.028   0.495   6.259
 3969TIP3   OH233465   1.021   6.655   1.437
 3969TIP3    H133466   1.034   6.590   1.368
 3969TIP3    H233467   1.060   6.735   1.402
 3970TIP3   OH233468   1.632   2.179   0.583
 3970TIP3    H133469   1.665   2.265   0.556
 3970TIP3    H233470   1.680   2.117   0.528
 3971TIP3   OH233471   1.802   4.414   0.665
 3971TIP3    H133472   1.775   4.423   0.756
 3971TIP3    H233473   1.817   4.320   0.654
 3972TIP3   OH233474   2.413   3.716   7.031
 3972TIP3    H133475   2.372   3.706   6.945
 3972TIP3    H233476   2.339   3.721   7.093
 3973TIP3   OH233477   4.698   3.362   2.145
 3973TIP3    H133478   4.766   3.298   2.164
 3973TIP3    H233479   4.623   3.335   2.199
 3974TIP3   OH233480   0.768   2.013   0.971
 3974TIP3    H133481   0.758   2.108   0.980
 3974TIP3    H233482   0.772   1.981   1.061
 3975TIP3   OH233483   1.427   4.149   6.938
 3975TIP3    H133484   1.478   4.170   7.016
 3975TIP3    H233485   1.370   4.225   6.926
 3976TIP3   OH233486   0.122   6.759   1.388
 3976TIP3    H133487   0.175   6.703   1.445
 3976TIP3    H233488   0.173   6.839   1.380
 3977TIP3   OH233489   5.627   4.865   1.669
 3977TIP3    H133490   5.580   4.786   1.641
 3977TIP3    H233491   5.687   4.884   1.596
 3978TIP3   OH233492   4.025   2.342   7.738
 3978TIP3    H133493   3.938   2.381   7.725
 3978TIP3    H233494   4.010   2.248   7.733
 3979TIP3   OH233495   3.329   5.151   1.087
 3979TIP3    H133496   3.383   5.166   1.165
 3979TIP3    H233497   3.258   5.094   1.117
 3980TIP3   OH233498   1.263   0.362   7.617
 3980TIP3    H133499   1.249   0.272   7.646
 3980TIP3    H233500   1.354   0.381   7.640
 3981TIP3   OH233501   0.156   0.584   1.400
 3981TIP3    H133502   0.168   0.506   1.454
 3981TIP3    H233503   0.108   0.645   1.456
 3982TIP3   OH233504   1.589   0.818   0.658
 3982TIP3    H133505   1.674   0.861   0.666
 3982TIP3    H233506   1.538   0.850   0.732
 3983TIP3   OH233507   6.691   5.876   1.054
 3983TIP3    H133508   6.692   5.971   1.067
 3983TIP3    H233509   6.705   5.840   1.141
 3984TIP3   OH233510   2.454   6.188   8.553
 3984TIP3    H133511   2.539   6.161   8.519
 3984TIP3    H233512   2.473   6.261   8.611
 3985TIP3   OH233513   4.532   4.625   7.483
 3985TIP3    H133514   4.477   4.556   7.521
 3985TIP3    H233515   4.517   4.620   7.389
 3986TIP3   OH233516   1.648   0.432   1.015
 3986TIP3    H133517   1.559   0.465   1.027
 3986TIP3    H233518   1.699   0.473   1.084
 3987TIP3   OH233519   1.492   6.591   0.106
 3987TIP3    H133520   1.553   6.529   0.144
 3987TIP3    H233521   1.417   6.538   0.078
 3988TIP3   OH233522   6.564   6.366   0.685
 3988TIP3    H133523   6.623   6.396   0.754
 3988TIP3    H233524   6.513   6.295   0.725
 3989TIP3   OH233525   3.647   4.303   7.766
 3989TIP3    H133526   3.571   4.298   7.824
 3989TIP3    H233527   3.705   4.366   7.808
 3990TIP3   OH233528   0.042   6.743   8.377
 3990TIP3    H133529   0.041   6.650   8.353
 3990TIP3    H233530   0.135   6.762   8.394
 3991TIP3   OH233531   5.798   4.100   8.296
 3991TIP3    H133532   5.799   4.166   8.226
 3991TIP3    H233533   5.717   4.117   8.344
 3992TIP3   OH233534   0.511   6.030   8.548
 3992TIP3    H133535   0.587   6.077   8.583
 3992TIP3    H233536   0.524   6.031   8.454
 3993TIP3   OH233537   2.182   2.594   1.474
 3993TIP3    H133538   2.176   2.585   1.569
 3993TIP3    H233539   2.098   2.561   1.441
 3994TIP3   OH233540   5.115   0.505   2.386
 3994TIP3    H133541   5.154   0.589   2.360
 3994TIP3    H233542   5.080   0.469   2.305
 3995TIP3   OH233543   5.127   2.402   2.095
 3995TIP3    H133544   5.147   2.320   2.140
 3995TIP3    H233545   5.065   2.446   2.153
 3996TIP3   OH233546   5.739   2.479   6.621
 3996TIP3    H133547   5.752   2.573   6.633
 3996TIP3    H233548   5.676   2.472   6.550
 3997TIP3   OH233549   5.438   3.779   0.945
 3997TIP3    H133550   5.434   3.693   0.988
 3997TIP3    H233551   5.422   3.760   0.852
 3998TIP3   OH233552   5.542   4.426   8.219
 3998TIP3    H133553   5.529   4.517   8.245
 3998TIP3    H233554   5.582   4.432   8.132
 3999TIP3   OH233555   3.537   1.975   7.502
 3999TIP3    H133556   3.527   1.889   7.462
 3999TIP3    H233557   3.448   2.009   7.509
 4000TIP3   OH233558   1.718   2.861   8.525
 4000TIP3    H133559   1.646   2.801   8.507
 4000TIP3    H233560   1.751   2.833   8.611
 4001TIP3   OH233561   3.140   6.449   6.555
 4001TIP3    H133562   3.109   6.365   6.522
 4001TIP3    H233563   3.107   6.513   6.491
 4002TIP3   OH233564   3.869   6.668   7.037
 4002TIP3    H133565   3.890   6.674   6.943
 4002TIP3    H233566   3.773   6.666   7.039
 4003TIP3   OH233567   6.686   0.048   0.952
 4003TIP3    H133568   6.704   0.120   0.891
 4003TIP3    H233569   6.714   0.081   1.037
 4004TIP3   OH233570   0.190   3.527   6.852
 4004TIP3    H133571   0.248   3.603   6.850
 4004TIP3    H233572   0.211   3.483   6.934
 4005TIP3   OH233573   3.467   2.560   2.533
 4005TIP3    H133574   3.428   2.647   2.532
 4005TIP3    H233575   3.556   2.574   2.564
 4006TIP3   OH233576   1.511   2.638   0.179
 4006TIP3    H133577   1.566   2.648   0.257
 4006TIP3    H233578   1.566   2.589   0.118
 4007TIP3   OH233579   2.986   4.899   7.182
 4007TIP3    H133580   3.071   4.905   7.226
 4007TIP3    H233581   2.999   4.832   7.115
 4008TIP3   OH233582   1.291   3.384   7.872
 4008TIP3    H133583   1.264   3.361   7.961
 4008TIP3    H233584   1.325   3.474   7.879
 4009TIP3   OH233585   5.630   5.151   7.549
 4009TIP3    H133586   5.678   5.069   7.559
 4009TIP3    H233587   5.601   5.173   7.638
 4010TIP3   OH233588   0.967   3.247   1.862
 4010TIP3    H133589   0.873   3.246   1.844
 4010TIP3    H233590   1.005   3.305   1.796
 4011TIP3   OH233591   0.668   3.118   0.126
 4011TIP3    H133592   0.677   3.201   0.173
 4011TIP3    H233593   0.746   3.114   0.071
 4012TIP3   OH233594   2.748   0.937   6.898
 4012TIP3    H133595   2.714   0.850   6.882
 4012TIP3    H233596   2.803   0.956   6.822
 4013TIP3   OH233597   3.016   0.333   1.409
 4013TIP3    H133598   2.950   0.401   1.424
 4013TIP3    H233599   3.082   0.375   1.356
 4014TIP3   OH233600   4.187   2.149   7.466
 4014TIP3    H133601   4.259   2.177   7.522
 4014TIP3    H233602   4.162   2.227   7.418
 4015TIP3   OH233603   6.159   5.122   7.057
 4015TIP3    H133604   6.121   5.052   7.109
 4015TIP3    H233605   6.178   5.082   6.973
 4016TIP3   OH233606   3.797   1.809   0.582
 4016TIP3    H133607   3.857   1.857   0.525
 4016TIP3    H233608   3.730   1.774   0.523
 4017TIP3   OH233609   5.165   5.953   1.171
 4017TIP3    H133610   5.210   5.995   1.097
 4017TIP3    H233611   5.115   6.024   1.211
 4018TIP3   OH233612   5.642   1.347   0.279
 4018TIP3    H133613   5.688   1.400   0.344
 4018TIP3    H233614   5.566   1.312   0.326
 4019TIP3   OH233615   3.154   5.033   7.782
 4019TIP3    H133616   3.150   4.950   7.829
 4019TIP3    H233617   3.111   5.014   7.698
 4020TIP3   OH233618   5.494   5.819   1.965
 4020TIP3    H133619   5.580   5.784   1.990
 4020TIP3    H233620   5.437   5.800   2.039
 4021TIP3   OH233621   2.921   2.015   8.620
 4021TIP3    H133622   2.879   2.010   8.706
 4021TIP3    H233623   2.955   1.927   8.605
 4022TIP3   OH233624   3.260   4.015   2.325
 4022TIP3    H133625   3.222   3.928   2.333
 4022TIP3    H233626   3.349   3.999   2.292
 4023TIP3   OH233627   1.771   3.686   7.884
 4023TIP3    H133628   1.791   3.780   7.885
 4023TIP3    H233629   1.698   3.678   7.822
 4024TIP3   OH233630   5.255   2.556   1.912
 4024TIP3    H133631   5.205   2.511   1.979
 4024TIP3    H233632   5.231   2.648   1.921
 4025TIP3   OH233633   4.213   1.941   0.339
 4025TIP3    H133634   4.254   1.856   0.326
 4025TIP3    H233635   4.170   1.961   0.256
 4026TIP3   OH233636   1.829   4.458   8.099
 4026TIP3    H133637   1.747   4.411   8.088
 4026TIP3    H233638   1.826   4.527   8.032
 4027TIP3   OH233639   2.705   4.347   7.265
 4027TIP3    H133640   2.779   4.290   7.286
 4027TIP3    H233641   2.632   4.287   7.253
 4028TIP3   OH233642   5.416   0.719   7.959
 4028TIP3    H133643   5.463   0.675   7.887
 4028TIP3    H233644   5.480   0.722   8.030
 4029TIP3   OH233645   0.829   2.922   1.359
 4029TIP3    H133646   0.885   2.972   1.419
 4029TIP3    H233647   0.740   2.945   1.384
 4030TIP3   OH233648   3.525   4.243   8.409
 4030TIP3    H133649   3.531   4.335   8.436
 4030TIP3    H233650   3.433   4.231   8.386
 4031TIP3   OH233651   2.972   2.682   7.934
 4031TIP3    H133652   2.886   2.689   7.892
 4031TIP3    H233653   2.985   2.589   7.948
 4032TIP3   OH233654   3.703   1.369   2.201
 4032TIP3    H133655   3.707   1.455   2.159
 4032TIP3    H233656   3.787   1.361   2.246
 4033TIP3   OH233657   1.146   3.752   0.657
 4033TIP3    H133658   1.202   3.749   0.735
 4033TIP3    H233659   1.082   3.682   0.670
 4034TIP3   OH233660   4.924   0.509   1.558
 4034TIP3    H133661   4.880   0.576   1.505
 4034TIP3    H233662   5.017   0.529   1.550
 4035TIP3   OH233663   1.799   6.057   1.458
 4035TIP3    H133664   1.802   6.099   1.372
 4035TIP3    H233665   1.844   6.117   1.516
 4036TIP3   OH233666   3.516   3.433   0.421
 4036TIP3    H133667   3.427   3.412   0.393
 4036TIP3    H233668   3.509   3.447   0.515
 4037TIP3   OH233669   0.890   3.142   0.297
 4037TIP3    H133670   0.805   3.161   0.337
 4037TIP3    H233671   0.883   3.051   0.268
 4038TIP3   OH233672   2.062   1.808   0.726
 4038TIP3    H133673   2.125   1.763   0.781
 4038TIP3    H233674   2.098   1.896   0.714
 4039TIP3   OH233675   4.611   3.602   0.443
 4039TIP3    H133676   4.568   3.532   0.491
 4039TIP3    H233677   4.601   3.578   0.351
 4040TIP3   OH233678   1.115   6.371   2.000
 4040TIP3    H133679   1.061   6.319   2.059
 4040TIP3    H233680   1.198   6.381   2.046
 4041TIP3   OH233681   0.730   0.006   0.386
 4041TIP3    H133682   0.679   0.070   0.436
 4041TIP3    H233683   0.738   6.771   0.444
 4042TIP3   OH233684   1.442   2.610   1.765
 4042TIP3    H133685   1.501   2.685   1.758
 4042TIP3    H233686   1.442   2.589   1.859
 4043TIP3   OH233687   3.393   4.878   7.793
 4043TIP3    H133688   3.414   4.813   7.726
 4043TIP3    H233689   3.353   4.950   7.744
 4044TIP3   OH233690   6.298   3.084   1.208
 4044TIP3    H133691   6.288   3.015   1.273
 4044TIP3    H233692   6.343   3.042   1.135
 4045TIP3   OH233693   2.088   5.765   6.175
 4045TIP3    H133694   2.070   5.840   6.231
 4045TIP3    H233695   2.005   5.720   6.166
 4046TIP3   OH233696   0.558   3.861   8.278
 4046TIP3    H133697   0.480   3.805   8.271
 4046TIP3    H233698   0.538   3.919   8.352
 4047TIP3   OH233699   1.197   2.109   8.426
 4047TIP3    H133700   1.161   2.062   8.351
 4047TIP3    H233701   1.158   2.196   8.420
 4048TIP3   OH233702   4.600   5.217   0.526
 4048TIP3    H133703   4.544   5.239   0.600
 4048TIP3    H233704   4.658   5.149   0.559
 4049TIP3   OH233705   2.005   4.883   7.644
 4049TIP3    H133706   1.924   4.932   7.630
 4049TIP3    H233707   1.977   4.792   7.651
 4050TIP3   OH233708   1.682   3.465   7.566
 4050TIP3    H133709   1.724   3.416   7.636
 4050TIP3    H233710   1.619   3.404   7.527
 4051TIP3   OH233711   2.634   5.002   8.549
 4051TIP3    H133712   2.723   4.976   8.524
 4051TIP3    H233713   2.646   5.052   8.630
 4052TIP3   OH233714   2.293   2.022   1.835
 4052TIP3    H133715   2.212   2.066   1.861
 4052TIP3    H233716   2.327   2.075   1.763
 4053TIP3   OH233717   4.022   2.490   1.351
 4053TIP3    H133718   3.984   2.491   1.264
 4053TIP3    H233719   4.100   2.545   1.344
 4054TIP3   OH233720   0.533   1.036   0.586
 4054TIP3    H133721   0.511   1.072   0.672
 4054TIP3    H233722   0.512   1.106   0.524
 4055TIP3   OH233723   6.688   3.936   0.321
 4055TIP3    H133724   6.685   4.022   0.363
 4055TIP3    H233725   6.634   3.945   0.243
 4056TIP3   OH233726   5.648   0.940   8.578
 4056TIP3    H133727   5.571   0.907   8.531
 4056TIP3    H233728   5.719   0.937   8.513
 4057TIP3   OH233729   4.030   0.945   2.599
 4057TIP3    H133730   3.945   0.990   2.595
 4057TIP3    H233731   4.076   0.971   2.520
 4058TIP3   OH233732   6.681   4.460   8.378
 4058TIP3    H133733   6.773   4.453   8.403
 4058TIP3    H233734   6.684   4.482   8.284
 4059TIP3   OH233735   5.204   3.829   1.741
 4059TIP3    H133736   5.207   3.749   1.688
 4059TIP3    H233737   5.238   3.897   1.683
 4060TIP3   OH233738   6.693   0.042   2.124
 4060TIP3    H133739   6.682   0.116   2.184
 4060TIP3    H233740   6.660   6.808   2.173
 4061TIP3   OH233741   1.353   1.337   8.552
 4061TIP3    H133742   1.276   1.373   8.597
 4061TIP3    H233743   1.385   1.268   8.611
 4062TIP3   OH233744   5.849   4.390   7.819
 4062TIP3    H133745   5.767   4.367   7.863
 4062TIP3    H233746   5.901   4.309   7.824
 4063TIP3   OH233747   3.503   5.576   7.328
 4063TIP3    H133748   3.497   5.568   7.232
 4063TIP3    H233749   3.495   5.670   7.344
 4064TIP3   OH233750   4.830   0.843   1.645
 4064TIP3    H133751   4.840   0.928   1.687
 4064TIP3    H233752   4.879   0.783   1.701
 4065TIP3   OH233753   5.547   0.395   0.640
 4065TIP3    H133754   5.614   0.334   0.609
 4065TIP3    H233755   5.504   0.426   0.560
 4066TIP3   OH233756   5.523   5.724   7.480
 4066TIP3    H133757   5.557   5.694   7.396
 4066TIP3    H233758   5.451   5.782   7.456
 4067TIP3   OH233759   6.363   3.702   0.140
 4067TIP3    H133760   6.432   3.769   0.137
 4067TIP3    H233761   6.337   3.699   0.233
 4068TIP3   OH233762   2.475   1.060   0.542
 4068TIP3    H133763   2.439   0.988   0.594
 4068TIP3    H233764   2.478   1.026   0.453
 4069TIP3   OH233765   1.740   3.177   0.542
 4069TIP3    H133766   1.778   3.113   0.482
 4069TIP3    H233767   1.815   3.217   0.587
 4070TIP3   OH233768   3.294   0.549   8.060
 4070TIP3    H133769   3.344   0.470   8.081
 4070TIP3    H233770   3.329   0.578   7.976
 4071TIP3   OH233771   0.292   5.474   0.939
 4071TIP3    H133772   0.236   5.492   1.015
 4071TIP3    H233773   0.239   5.416   0.884
 4072TIP3   OH233774   0.570   1.576   1.045
 4072TIP3    H133775   0.520   1.654   1.023
 4072TIP3    H233776   0.648   1.609   1.091
 4073TIP3   OH233777   5.293   1.237   1.239
 4073TIP3    H133778   5.226   1.286   1.192
 4073TIP3    H233779   5.246   1.167   1.283
 4074TIP3   OH233780   0.458   1.131   1.218
 4074TIP3    H133781   0.380   1.161   1.172
 4074TIP3    H233782   0.509   1.210   1.234
 4075TIP3   OH233783   2.080   5.425   1.805
 4075TIP3    H133784   2.045   5.454   1.889
 4075TIP3    H233785   2.173   5.412   1.822
 4076TIP3   OH233786   6.499   3.793   6.501
 4076TIP3    H133787   6.447   3.821   6.576
 4076TIP3    H233788   6.453   3.715   6.468
 4077TIP3   OH233789   1.221   5.838   2.106
 4077TIP3    H133790   1.285   5.903   2.079
 4077TIP3    H233791   1.138   5.886   2.111
 4078TIP3   OH233792   3.576   6.431   7.328
 4078TIP3    H133793   3.548   6.415   7.418
 4078TIP3    H233794   3.495   6.440   7.278
 4079TIP3   OH233795   0.664   0.067   7.443
 4079TIP3    H133796   0.659   0.032   7.532
 4079TIP3    H233797   0.668   6.830   7.387
 4080TIP3   OH233798   3.198   1.122   8.245
 4080TIP3    H133799   3.268   1.100   8.184
 4080TIP3    H233800   3.219   1.209   8.277
 4081TIP3   OH233801   1.586   5.672   7.146
 4081TIP3    H133802   1.645   5.656   7.072
 4081TIP3    H233803   1.511   5.615   7.130
 4082TIP3   OH233804   0.685   2.467   8.321
 4082TIP3    H133805   0.778   2.447   8.329
 4082TIP3    H233806   0.669   2.534   8.387
 4083TIP3   OH233807   3.861   5.462   1.602
 4083TIP3    H133808   3.851   5.399   1.673
 4083TIP3    H233809   3.802   5.431   1.534
 4084TIP3   OH233810   4.059   5.304   2.693
 4084TIP3    H133811   4.137   5.286   2.641
 4084TIP3    H233812   4.020   5.381   2.652
 4085TIP3   OH233813   2.123   0.471   2.371
 4085TIP3    H133814   2.063   0.501   2.439
 4085TIP3    H233815   2.143   0.380   2.396
 4086TIP3   OH233816   1.942   1.606   8.374
 4086TIP3    H133817   2.015   1.643   8.424
 4086TIP3    H233818   1.882   1.680   8.362
 4087TIP3   OH233819   1.349   6.331   0.532
 4087TIP3    H133820   1.387   6.366   0.451
 4087TIP3    H233821   1.423   6.328   0.593
 4088TIP3   OH233822   5.570   2.806   0.898
 4088TIP3    H133823   5.504   2.773   0.838
 4088TIP3    H233824   5.606   2.883   0.855
 4089TIP3   OH233825   4.731   2.362   1.126
 4089TIP3    H133826   4.791   2.296   1.160
 4089TIP3    H233827   4.691   2.400   1.204
 4090TIP3   OH233828   0.911   2.215   0.679
 4090TIP3    H133829   0.841   2.188   0.738
 4090TIP3    H233830   0.956   2.133   0.657
 4091TIP3   OH233831   4.784   2.710   7.351
 4091TIP3    H133832   4.735   2.786   7.319
 4091TIP3    H233833   4.789   2.723   7.446
 4092TIP3   OH233834   3.231   4.606   2.294
 4092TIP3    H133835   3.172   4.531   2.286
 4092TIP3    H233836   3.258   4.606   2.386
 4093TIP3   OH233837   4.012   2.765   0.041
 4093TIP3    H133838   4.033   2.694   0.102
 4093TIP3    H233839   4.073   2.835   0.065
 4094TIP3   OH233840   0.462   0.901   7.740
 4094TIP3    H133841   0.455   0.839   7.812
 4094TIP3    H233842   0.452   0.848   7.661
 4095TIP3   OH233843   5.167   2.527   1.026
 4095TIP3    H133844   5.241   2.484   0.983
 4095TIP3    H233845   5.090   2.494   0.980
 4096TIP3   OH233846   2.819   1.389   1.037
 4096TIP3    H133847   2.801   1.473   1.080
 4096TIP3    H233848   2.854   1.334   1.107
 4097TIP3   OH233849   0.179   2.196   8.496
 4097TIP3    H133850   0.259   2.172   8.448
 4097TIP3    H233851   0.133   2.112   8.508
 4098TIP3   OH233852   1.479   3.072   0.039
 4098TIP3    H133853   1.401   3.124   0.018
 4098TIP3    H233854   1.548   3.108   8.718
 4099TIP3   OH233855   6.796   0.366   0.839
 4099TIP3    H133856   6.727   0.394   0.780
 4099TIP3    H233857   0.009   0.307   0.785
 4100TIP3   OH233858   4.336   2.394   0.159
 4100TIP3    H133859   4.242   2.403   0.149
 4100TIP3    H233860   4.359   2.457   0.228
 4101TIP3   OH233861   5.545   3.966   6.397
 4101TIP3    H133862   5.581   3.889   6.353
 4101TIP3    H233863   5.450   3.951   6.397
 4102TIP3   OH233864   2.690   1.557   7.234
 4102TIP3    H133865   2.632   1.585   7.163
 4102TIP3    H233866   2.639   1.492   7.282
 4103TIP3   OH233867   1.931   0.563   8.044
 4103TIP3    H133868   2.000   0.501   8.067
 4103TIP3    H233869   1.973   0.625   7.984
 4104TIP3   OH233870   0.500   2.283   6.523
 4104TIP3    H133871   0.426   2.342   6.540
 4104TIP3    H233872   0.459   2.196   6.514
 4105TIP3   OH233873   5.731   4.507   7.465
 4105TIP3    H133874   5.723   4.417   7.495
 4105TIP3    H233875   5.770   4.500   7.378
 4106TIP3   OH233876   4.081   0.933   8.636
 4106TIP3    H133877   4.127   0.983   8.704
 4106TIP3    H233878   4.048   1.000   8.576
 4107TIP3   OH233879   5.262   3.783   7.523
 4107TIP3    H133880   5.270   3.874   7.552
 4107TIP3    H233881   5.244   3.790   7.429
 4108TIP3   OH233882   5.596   5.351   0.840
 4108TIP3    H133883   5.598   5.280   0.904
 4108TIP3    H233884   5.681   5.395   0.850
 4109TIP3   OH233885   5.011   1.149   2.176
 4109TIP3    H133886   4.931   1.126   2.223
 4109TIP3    H233887   5.076   1.087   2.209
 4110TIP3   OH233888   6.423   1.136   2.561
 4110TIP3    H133889   6.460   1.072   2.622
 4110TIP3    H233890   6.376   1.082   2.496
 4111TIP3   OH233891   4.238   0.268   1.622
 4111TIP3    H133892   4.238   0.239   1.713
 4111TIP3    H233893   4.145   0.267   1.596
 4112TIP3   OH233894   4.548   4.233   0.326
 4112TIP3    H133895   4.473   4.239   0.267
 4112TIP3    H233896   4.516   4.183   0.401
 4113TIP3   OH233897   3.287   3.758   6.781
 4113TIP3    H133898   3.232   3.693   6.737
 4113TIP3    H233899   3.243   3.841   6.766
 4114TIP3   OH233900   1.120   2.802   0.619
 4114TIP3    H133901   1.144   2.861   0.548
 4114TIP3    H233902   1.072   2.731   0.577
 4115TIP3   OH233903   5.382   4.213   6.834
 4115TIP3    H133904   5.334   4.143   6.789
 4115TIP3    H233905   5.322   4.288   6.831
 4116TIP3   OH233906   3.695   6.770   1.223
 4116TIP3    H133907   3.667   6.747   1.134
 4116TIP3    H233908   3.667   0.020   1.234
 4117TIP3   OH233909   4.403   5.171   7.586
 4117TIP3    H133910   4.473   5.232   7.608
 4117TIP3    H233911   4.431   5.133   7.502
 4118TIP3   OH233912   1.873   5.889   8.140
 4118TIP3    H133913   1.923   5.933   8.208
 4118TIP3    H233914   1.933   5.884   8.065
 4119TIP3   OH233915   5.592   2.537   0.666
 4119TIP3    H133916   5.566   2.626   0.642
 4119TIP3    H233917   5.618   2.495   0.584
 4120TIP3   OH233918   5.090   4.383   1.289
 4120TIP3    H133919   5.105   4.398   1.383
 4120TIP3    H233920   5.086   4.471   1.252
 4121TIP3   OH233921   4.379   6.248   1.197
 4121TIP3    H133922   4.286   6.234   1.178
 4121TIP3    H233923   4.418   6.266   1.111
 4122TIP3   OH233924   6.623   3.519   8.588
 4122TIP3    H133925   6.674   3.572   8.526
 4122TIP3    H233926   6.635   3.429   8.557
 4123TIP3   OH233927   3.621   5.430   0.860
 4123TIP3    H133928   3.547   5.369   0.868
 4123TIP3    H233929   3.608   5.473   0.776
 4124TIP3   OH233930   2.880   2.494   1.840
 4124TIP3    H133931   2.896   2.462   1.929
 4124TIP3    H233932   2.850   2.584   1.852
 4125TIP3   OH233933   2.535   5.323   8.341
 4125TIP3    H133934   2.447   5.357   8.358
 4125TIP3    H233935   2.593   5.384   8.386
 4126TIP3   OH233936   4.328   0.971   2.070
 4126TIP3    H133937   4.284   1.054   2.084
 4126TIP3    H233938   4.401   0.972   2.132
 4127TIP3   OH233939   3.428   2.515   6.591
 4127TIP3    H133940   3.415   2.439   6.533
 4127TIP3    H233941   3.520   2.538   6.581
 4128TIP3   OH233942   4.752   0.986   6.858
 4128TIP3    H133943   4.777   1.056   6.799
 4128TIP3    H233944   4.690   0.933   6.808
 4129TIP3   OH233945   5.035   2.882   0.264
 4129TIP3    H133946   5.031   2.797   0.220
 4129TIP3    H233947   5.028   2.946   0.193
 4130TIP3   OH233948   2.657   2.108   7.498
 4130TIP3    H133949   2.660   2.041   7.566
 4130TIP3    H233950   2.564   2.132   7.491
 4131TIP3   OH233951   6.781   0.687   6.790
 4131TIP3    H133952   6.694   0.691   6.752
 4131TIP3    H233953   6.838   0.726   6.724
 4132TIP3   OH233954   6.567   0.960   0.741
 4132TIP3    H133955   6.505   0.888   0.749
 4132TIP3    H233956   6.652   0.922   0.761
 4133TIP3   OH233957   4.533   5.793   0.194
 4133TIP3    H133958   4.504   5.855   0.261
 4133TIP3    H233959   4.613   5.755   0.231
 4134TIP3   OH233960   6.184   3.124   7.297
 4134TIP3    H133961   6.122   3.060   7.264
 4134TIP3    H233962   6.267   3.101   7.256
 4135TIP3   OH233963   4.960   0.695   8.278
 4135TIP3    H133964   5.040   0.735   8.311
 4135TIP3    H233965   4.889   0.747   8.316
 4136TIP3   OH233966   6.773   5.885   1.519
 4136TIP3    H133967   6.838   5.944   1.481
 4136TIP3    H233968   6.711   5.943   1.564
 4137TIP3   OH233969   4.348   5.428   7.004
 4137TIP3    H133970   4.299   5.410   6.923
 4137TIP3    H233971   4.416   5.490   6.977
 4138TIP3   OH233972   0.358   5.135   1.911
 4138TIP3    H133973   0.263   5.143   1.922
 4138TIP3    H233974   0.390   5.105   1.995
 4139TIP3   OH233975   5.543   6.762   0.656
 4139TIP3    H133976   5.617   6.771   0.596
 4139TIP3    H233977   5.481   6.830   0.628
 4140TIP3   OH233978   5.058   3.516   6.461
 4140TIP3    H133979   5.006   3.564   6.396
 4140TIP3    H233980   5.140   3.497   6.416
 4141TIP3   OH233981   0.439   3.795   6.359
 4141TIP3    H133982   0.431   3.707   6.396
 4141TIP3    H233983   0.442   3.782   6.264
 4142TIP3   OH233984   0.710   1.449   1.539
 4142TIP3    H133985   0.747   1.404   1.615
 4142TIP3    H233986   0.648   1.512   1.576
 4143TIP3   OH233987   4.459   3.307   7.022
 4143TIP3    H133988   4.485   3.362   6.949
 4143TIP3    H233989   4.441   3.368   7.094
 4144TIP3   OH233990   1.722   3.897   7.129
 4144TIP3    H133991   1.665   3.972   7.113
 4144TIP3    H233992   1.719   3.846   7.048
 4145TIP3   OH233993   0.559   1.470   7.897
 4145TIP3    H133994   0.653   1.453   7.907
 4145TIP3    H233995   0.549   1.562   7.922
 4146TIP3   OH233996   5.029   4.046   7.460
 4146TIP3    H133997   5.114   4.061   7.419
 4146TIP3    H233998   4.977   4.003   7.392
 4147TIP3   OH233999   3.167   3.997   1.126
 4147TIP3    H134000   3.184   4.064   1.059
 4147TIP3    H234001   3.190   3.915   1.083
 4148TIP3   OH234002   6.251   2.901   7.858
 4148TIP3    H134003   6.299   2.818   7.848
 4148TIP3    H234004   6.184   2.881   7.924
 4149TIP3   OH234005   4.967   6.546   0.366
 4149TIP3    H134006   5.004   6.620   0.413
 4149TIP3    H234007   4.940   6.582   0.281
 4150TIP3   OH234008   0.942   2.705   6.500
 4150TIP3    H134009   1.023   2.655   6.485
 4150TIP3    H234010   0.948   2.779   6.440
 4151TIP3   OH234011   4.934   5.756   8.305
 4151TIP3    H134012   4.839   5.741   8.302
 4151TIP3    H234013   4.970   5.673   8.337
 4152TIP3   OH234014   5.212   3.678   8.100
 4152TIP3    H134015   5.280   3.730   8.057
 4152TIP3    H234016   5.151   3.655   8.030
 4153TIP3   OH234017   4.214   4.981   6.915
 4153TIP3    H134018   4.168   5.043   6.858
 4153TIP3    H234019   4.228   4.904   6.860
 4154TIP3   OH234020   1.960   5.360   1.573
 4154TIP3    H134021   1.984   5.359   1.665
 4154TIP3    H234022   2.038   5.328   1.527
 4155TIP3   OH234023   1.109   3.743   2.156
 4155TIP3    H134024   1.017   3.718   2.165
 4155TIP3    H234025   1.153   3.663   2.130
 4156TIP3   OH234026   2.043   6.359   6.339
 4156TIP3    H134027   2.087   6.306   6.405
 4156TIP3    H234028   2.097   6.438   6.332
 4157TIP3   OH234029   5.590   4.703   8.579
 4157TIP3    H134030   5.557   4.789   8.605
 4157TIP3    H234031   5.574   4.700   8.485
 4158TIP3   OH234032   1.440   4.556   8.610
 4158TIP3    H134033   1.440   4.532   8.517
 4158TIP3    H234034   1.508   4.501   8.649
 4159TIP3   OH234035   5.053   2.355   6.234
 4159TIP3    H134036   4.958   2.353   6.222
 4159TIP3    H234037   5.065   2.403   6.317
 4160TIP3   OH234038   3.712   5.094   0.224
 4160TIP3    H134039   3.658   5.075   0.300
 4160TIP3    H234040   3.802   5.091   0.257
 4161TIP3   OH234041   2.434   0.770   7.960
 4161TIP3    H134042   2.377   0.795   8.033
 4161TIP3    H234043   2.439   0.675   7.964
 4162TIP3   OH234044   0.418   2.795   1.390
 4162TIP3    H134045   0.440   2.882   1.423
 4162TIP3    H234046   0.502   2.755   1.367
 4163TIP3   OH234047   2.223   2.277   2.629
 4163TIP3    H134048   2.308   2.286   2.587
 4163TIP3    H234049   2.202   2.364   2.663
 4164TIP3   OH234050   5.976   1.699   7.939
 4164TIP3    H134051   5.891   1.662   7.963
 4164TIP3    H234052   6.039   1.645   7.986
 4165TIP3   OH234053   4.483   5.514   2.273
 4165TIP3    H134054   4.517   5.457   2.342
 4165TIP3    H234055   4.395   5.481   2.256
 4166TIP3   OH234056   0.934   0.448   8.648
 4166TIP3    H134057   0.852   0.399   8.644
 4166TIP3    H234058   0.912   0.530   8.692
 4167TIP3   OH234059   2.488   2.148   1.046
 4167TIP3    H134060   2.522   2.091   1.115
 4167TIP3    H234061   2.414   2.193   1.086
 4168TIP3   OH234062   1.093   6.332   1.493
 4168TIP3    H134063   1.072   6.244   1.524
 4168TIP3    H234064   1.042   6.342   1.412
 4169TIP3   OH234065   1.205   0.176   1.611
 4169TIP3    H134066   1.150   0.249   1.637
 4169TIP3    H234067   1.228   0.132   1.692
 4170TIP3   OH234068   2.674   2.804   7.553
 4170TIP3    H134069   2.598   2.766   7.509
 4170TIP3    H234070   2.674   2.896   7.525
 4171TIP3   OH234071   0.524   2.602   0.014
 4171TIP3    H134072   0.515   2.567   0.103
 4171TIP3    H234073   0.483   2.688   0.018
 4172TIP3   OH234074   4.428   4.506   0.972
 4172TIP3    H134075   4.457   4.429   0.923
 4172TIP3    H234076   4.504   4.532   1.023
 4173TIP3   OH234077   3.838   2.057   0.086
 4173TIP3    H134078   3.812   2.069   8.729
 4173TIP3    H234079   3.883   1.973   0.087
 4174TIP3   OH234080   4.897   0.611   0.235
 4174TIP3    H134081   4.865   0.607   0.325
 4174TIP3    H234082   4.824   0.580   0.182
 4175TIP3   OH234083   6.393   3.208   6.876
 4175TIP3    H134084   6.404   3.177   6.966
 4175TIP3    H234085   6.341   3.287   6.883
 4176TIP3   OH234086   4.258   1.160   1.223
 4176TIP3    H134087   4.295   1.116   1.300
 4176TIP3    H234088   4.333   1.206   1.184
 4177TIP3   OH234089   2.736   1.747   8.593
 4177TIP3    H134090   2.828   1.729   8.612
 4177TIP3    H234091   2.713   1.684   8.525
 4178TIP3   OH234092   1.055   6.276   2.381
 4178TIP3    H134093   1.141   6.319   2.378
 4178TIP3    H234094   0.993   6.345   2.359
 4179TIP3   OH234095   5.914   5.250   6.356
 4179TIP3    H134096   5.837   5.194   6.360
 4179TIP3    H234097   5.976   5.203   6.300
 4180TIP3   OH234098   2.566   1.698   0.935
 4180TIP3    H134099   2.634   1.763   0.948
 4180TIP3    H234100   2.484   1.747   0.938
 4181TIP3   OH234101   0.700   5.912   0.154
 4181TIP3    H134102   0.675   5.839   0.211
 4181TIP3    H234103   0.625   5.970   0.155
 4182TIP3   OH234104   1.097   2.427   0.226
 4182TIP3    H134105   1.071   2.516   0.201
 4182TIP3    H234106   1.080   2.423   0.320
 4183TIP3   OH234107   1.002   0.850   0.753
 4183TIP3    H134108   1.055   0.885   0.682
 4183TIP3    H234109   0.912   0.859   0.723
 4184TIP3   OH234110   1.852   4.627   8.317
 4184TIP3    H134111   1.860   4.579   8.235
 4184TIP3    H234112   1.834   4.560   8.383
 4185TIP3   OH234113   1.921   5.389   8.232
 4185TIP3    H134114   1.863   5.457   8.265
 4185TIP3    H234115   1.958   5.349   8.310
 4186TIP3   OH234116   1.327   0.982   8.020
 4186TIP3    H134117   1.392   0.937   7.967
 4186TIP3    H234118   1.304   1.060   7.970
 4187TIP3   OH234119   4.965   3.955   1.723
 4187TIP3    H134120   4.978   3.966   1.629
 4187TIP3    H234121   5.040   3.903   1.753
 4188TIP3   OH234122   5.241   6.188   0.706
 4188TIP3    H134123   5.184   6.265   0.700
 4188TIP3    H234124   5.287   6.186   0.622
 4189TIP3   OH234125   2.088   0.372   2.746
 4189TIP3    H134126   2.081   0.460   2.783
 4189TIP3    H234127   2.028   0.319   2.800
 4190TIP3   OH234128   3.816   3.506   1.783
 4190TIP3    H134129   3.771   3.567   1.725
 4190TIP3    H234130   3.903   3.497   1.746
 4191TIP3   OH234131   3.990   1.863   1.263
 4191TIP3    H134132   3.951   1.855   1.176
 4191TIP3    H234133   3.991   1.957   1.280
 4192TIP3   OH234134   6.762   5.637   0.346
 4192TIP3    H134135   6.719   5.705   0.398
 4192TIP3    H234136   0.010   5.632   0.382
 4193TIP3   OH234137   5.656   0.641   1.900
 4193TIP3    H134138   5.640   0.736   1.901
 4193TIP3    H234139   5.719   0.627   1.971
 4194TIP3   OH234140   0.530   6.620   6.398
 4194TIP3    H134141   0.508   6.645   6.308
 4194TIP3    H234142   0.614   6.576   6.390
 4195TIP3   OH234143   5.361   3.952   6.735
 4195TIP3    H134144   5.395   3.871   6.698
 4195TIP3    H234145   5.268   3.935   6.749
 4196TIP3   OH234146   1.704   6.234   1.183
 4196TIP3    H134147   1.787   6.280   1.190
 4196TIP3    H234148   1.678   6.245   1.091
 4197TIP3   OH234149   1.101   2.559   6.884
 4197TIP3    H134150   1.197   2.563   6.891
 4197TIP3    H234151   1.085   2.510   6.803
 4198TIP3   OH234152   5.390   3.434   8.443
 4198TIP3    H134153   5.400   3.525   8.472
 4198TIP3    H234154   5.317   3.436   8.380
 4199TIP3   OH234155   1.918   5.253   8.469
 4199TIP3    H134156   1.877   5.253   8.555
 4199TIP3    H234157   1.924   5.161   8.444
 4200TIP3   OH234158   3.768   2.423   7.674
 4200TIP3    H134159   3.720   2.434   7.592
 4200TIP3    H234160   3.701   2.424   7.742
 4201TIP3   OH234161   3.081   0.963   0.727
 4201TIP3    H134162   3.110   0.933   0.641
 4201TIP3    H234163   2.986   0.966   0.721
 4202TIP3   OH234164   2.520   2.909   7.105
 4202TIP3    H134165   2.551   2.869   7.023
 4202TIP3    H234166   2.510   2.835   7.165
 4203TIP3   OH234167   4.258   3.645   1.838
 4203TIP3    H134168   4.293   3.724   1.797
 4203TIP3    H234169   4.291   3.648   1.927
 4204TIP3   OH234170   1.332   6.077   7.673
 4204TIP3    H134171   1.427   6.067   7.664
 4204TIP3    H234172   1.313   6.158   7.625
 4205TIP3   OH234173   0.316   3.691   1.286
 4205TIP3    H134174   0.375   3.616   1.284
 4205TIP3    H234175   0.356   3.754   1.225
 4206TIP3   OH234176   4.807   4.431   1.357
 4206TIP3    H134177   4.898   4.413   1.335
 4206TIP3    H234178   4.758   4.358   1.318
 4207TIP3   OH234179   3.967   0.108   1.314
 4207TIP3    H134180   3.934   0.073   1.396
 4207TIP3    H234181   3.908   0.074   1.247
 4208TIP3   OH234182   0.589   1.711   7.636
 4208TIP3    H134183   0.576   1.624   7.600
 4208TIP3    H234184   0.506   1.733   7.677
 4209TIP3   OH234185   3.267   0.953   0.282
 4209TIP3    H134186   3.243   0.881   0.341
 4209TIP3    H234187   3.354   0.981   0.312
 4210TIP3   OH234188   5.027   1.951   1.774
 4210TIP3    H134189   4.941   1.988   1.794
 4210TIP3    H234190   5.089   2.011   1.815
 4211TIP3   OH234191   0.919   2.684   7.116
 4211TIP3    H134192   0.854   2.623   7.081
 4211TIP3    H234193   0.987   2.689   7.049
 4212TIP3   OH234194   2.455   6.155   1.864
 4212TIP3    H134195   2.512   6.089   1.904
 4212TIP3    H234196   2.384   6.105   1.824
 4213TIP3   OH234197   0.411   5.792   0.637
 4213TIP3    H134198   0.464   5.816   0.713
 4213TIP3    H234199   0.320   5.800   0.667
 4214TIP3   OH234200   3.894   2.162   7.445
 4214TIP3    H134201   3.917   2.089   7.501
 4214TIP3    H234202   3.961   2.228   7.463
 4215TIP3   OH234203   1.814   5.583   0.506
 4215TIP3    H134204   1.739   5.525   0.520
 4215TIP3    H234205   1.857   5.587   0.591
 4216TIP3   OH234206   4.724   4.800   7.552
 4216TIP3    H134207   4.780   4.742   7.603
 4216TIP3    H234208   4.642   4.750   7.542
 4217TIP3   OH234209   5.371   5.521   7.167
 4217TIP3    H134210   5.393   5.428   7.168
 4217TIP3    H234211   5.389   5.549   7.078
 4218TIP3   OH234212   6.318   1.910   1.430
 4218TIP3    H134213   6.355   1.992   1.462
 4218TIP3    H234214   6.350   1.902   1.340
 4219TIP3   OH234215   6.735   3.139   8.187
 4219TIP3    H134216   6.798   3.202   8.222
 4219TIP3    H234217   6.786   3.083   8.129
 4220TIP3   OH234218   5.197   4.428   6.840
 4220TIP3    H134219   5.199   4.492   6.769
 4220TIP3    H234220   5.252   4.466   6.909
 4221TIP3   OH234221   4.712   3.532   6.392
 4221TIP3    H134222   4.767   3.611   6.393
 4221TIP3    H234223   4.662   3.539   6.311
 4222TIP3   OH234224   3.359   5.493   2.223
 4222TIP3    H134225   3.379   5.546   2.300
 4222TIP3    H234226   3.443   5.481   2.180
 4223TIP3   OH234227   4.448   2.472   7.420
 4223TIP3    H134228   4.401   2.421   7.486
 4223TIP3    H234229   4.532   2.493   7.461
 4224TIP3   OH234230   5.027   3.410   1.353
 4224TIP3    H134231   4.970   3.333   1.350
 4224TIP3    H234232   4.967   3.484   1.357
 4225TIP3   OH234233   0.108   6.403   1.715
 4225TIP3    H134234   0.033   6.375   1.664
 4225TIP3    H234235   0.072   6.431   1.800
 4226TIP3   OH234236   3.334   6.354   1.161
 4226TIP3    H134237   3.284   6.323   1.085
 4226TIP3    H234238   3.271   6.407   1.211
 4227TIP3   OH234239   6.254   4.102   1.479
 4227TIP3    H134240   6.212   4.187   1.463
 4227TIP3    H234241   6.209   4.067   1.556
 4228TIP3   OH234242   6.225   1.704   2.203
 4228TIP3    H134243   6.214   1.621   2.249
 4228TIP3    H234244   6.136   1.732   2.182
 4229TIP3   OH234245   4.962   0.204   7.236
 4229TIP3    H134246   4.914   0.149   7.174
 4229TIP3    H234247   5.012   0.143   7.290
 4230TIP3   OH234248   0.090   1.594   7.695
 4230TIP3    H134249   0.183   1.582   7.714
 4230TIP3    H234250   0.047   1.519   7.737
 4231TIP3   OH234251   4.989   1.489   1.611
 4231TIP3    H134252   5.040   1.560   1.574
 4231TIP3    H234253   4.986   1.508   1.705
 4232TIP3   OH234254   1.961   2.854   6.777
 4232TIP3    H134255   1.948   2.907   6.698
 4232TIP3    H234256   2.007   2.776   6.745
 4233TIP3   OH234257   6.839   2.861   1.275
 4233TIP3    H134258   6.746   2.878   1.292
 4233TIP3    H234259   0.038   2.948   1.269
 4234TIP3   OH234260   5.734   2.919   7.151
 4234TIP3    H134261   5.684   2.838   7.141
 4234TIP3    H234262   5.680   2.974   7.207
 4235TIP3   OH234263   0.556   3.540   8.097
 4235TIP3    H134264   0.553   3.506   8.007
 4235TIP3    H234265   0.613   3.479   8.144
 4236TIP3   OH234266   2.110   0.063   2.285
 4236TIP3    H134267   2.095   0.105   2.370
 4236TIP3    H234268   2.193   0.016   2.296
 4237TIP3   OH234269   3.039   4.566   0.298
 4237TIP3    H134270   3.074   4.544   0.212
 4237TIP3    H234271   2.952   4.526   0.300
 4238TIP3   OH234272   4.248   3.807   1.212
 4238TIP3    H134273   4.278   3.855   1.135
 4238TIP3    H234274   4.261   3.868   1.284
 4239TIP3   OH234275   6.202   4.103   7.336
 4239TIP3    H134276   6.207   4.196   7.315
 4239TIP3    H234277   6.223   4.058   7.254
 4240TIP3   OH234278   6.811   3.253   0.619
 4240TIP3    H134279   6.718   3.250   0.642
 4240TIP3    H234280   0.014   3.260   0.704
 4241TIP3   OH234281   2.127   2.037   8.456
 4241TIP3    H134282   2.089   2.110   8.506
 4241TIP3    H234283   2.192   2.078   8.400
 4242TIP3   OH234284   5.717   6.395   1.236
 4242TIP3    H134285   5.715   6.403   1.331
 4242TIP3    H234286   5.791   6.337   1.218
 4243TIP3   OH234287   0.928   6.458   7.872
 4243TIP3    H134288   0.863   6.527   7.857
 4243TIP3    H234289   0.887   6.378   7.840
 4244TIP3   OH234290   0.887   4.771   7.970
 4244TIP3    H134291   0.830   4.833   7.926
 4244TIP3    H234292   0.972   4.814   7.975
 4245TIP3   OH234293   4.657   2.050   6.913
 4245TIP3    H134294   4.721   2.091   6.855
 4245TIP3    H234295   4.575   2.052   6.864
 4246TIP3   OH234296   4.026   4.146   7.542
 4246TIP3    H134297   4.010   4.132   7.635
 4246TIP3    H234298   4.001   4.064   7.500
 4247TIP3   OH234299   6.090   5.889   8.061
 4247TIP3    H134300   6.049   5.805   8.042
 4247TIP3    H234301   6.017   5.948   8.080
 4248TIP3   OH234302   5.071   1.790   7.449
 4248TIP3    H134303   5.097   1.873   7.409
 4248TIP3    H234304   5.105   1.723   7.390
 4249TIP3   OH234305   2.895   2.998   0.200
 4249TIP3    H134306   2.848   3.050   0.135
 4249TIP3    H234307   2.863   3.032   0.284
 4250TIP3   OH234308   3.284   5.736   1.169
 4250TIP3    H134309   3.295   5.641   1.161
 4250TIP3    H234310   3.327   5.759   1.251
 4251TIP3   OH234311   4.641   3.399   7.751
 4251TIP3    H134312   4.721   3.412   7.701
 4251TIP3    H234313   4.581   3.356   7.690
 4252TIP3   OH234314   5.887   2.699   8.420
 4252TIP3    H134315   5.931   2.781   8.439
 4252TIP3    H234316   5.879   2.656   8.505
 4253TIP3   OH234317   3.699   0.045   0.237
 4253TIP3    H134318   3.765   0.090   0.182
 4253TIP3    H234319   3.726   6.794   0.236
 4254TIP3   OH234320   5.211   2.420   2.533
 4254TIP3    H134321   5.238   2.442   2.622
 4254TIP3    H234322   5.294   2.409   2.485
 4255TIP3   OH234323   0.309   3.823   0.031
 4255TIP3    H134324   0.239   3.814   0.095
 4255TIP3    H234325   0.316   3.918   0.017
 4256TIP3   OH234326   0.296   5.126   8.711
 4256TIP3    H134327   0.327   5.187   8.644
 4256TIP3    H234328   0.319   5.040   8.677
 4257TIP3   OH234329   2.791   4.443   0.683
 4257TIP3    H134330   2.852   4.469   0.752
 4257TIP3    H234331   2.777   4.523   0.632
 4258TIP3   OH234332   3.843   0.415   0.810
 4258TIP3    H134333   3.906   0.357   0.854
 4258TIP3    H234334   3.897   0.480   0.766
 4259TIP3   OH234335   1.354   6.379   1.712
 4259TIP3    H134336   1.417   6.325   1.664
 4259TIP3    H234337   1.313   6.319   1.774
 4260TIP3   OH234338   5.210   3.072   7.131
 4260TIP3    H134339   5.134   3.070   7.189
 4260TIP3    H234340   5.194   3.145   7.072
 4261TIP3   OH234341   3.186   5.212   2.133
 4261TIP3    H134342   3.111   5.237   2.188
 4261TIP3    H234343   3.246   5.168   2.192
 4262TIP3   OH234344   6.771   0.861   2.426
 4262TIP3    H134345   6.722   0.850   2.508
 4262TIP3    H234346   6.838   0.927   2.447
 4263TIP3   OH234347   4.419   6.542   1.797
 4263TIP3    H134348   4.387   6.558   1.709
 4263TIP3    H234349   4.378   6.459   1.822
 4264TIP3   OH234350   5.593   6.648   7.984
 4264TIP3    H134351   5.569   6.715   7.921
 4264TIP3    H234352   5.687   6.661   7.997
 4265TIP3   OH234353   5.313   1.764   7.926
 4265TIP3    H134354   5.373   1.819   7.876
 4265TIP3    H234355   5.371   1.707   7.978
 4266TIP3   OH234356   4.729   6.300   8.266
 4266TIP3    H134357   4.731   6.328   8.174
 4266TIP3    H234358   4.681   6.217   8.264
 4267TIP3   OH234359   4.923   4.665   7.725
 4267TIP3    H134360   4.960   4.750   7.749
 4267TIP3    H234361   4.998   4.606   7.724
 4268TIP3   OH234362   0.190   4.162   0.394
 4268TIP3    H134363   0.105   4.128   0.423
 4268TIP3    H234364   0.209   4.233   0.455
 4269TIP3   OH234365   3.969   2.057   7.727
 4269TIP3    H134366   3.891   2.001   7.728
 4269TIP3    H234367   4.037   2.005   7.769
 4270TIP3   OH234368   2.165   3.961   8.241
 4270TIP3    H134369   2.194   3.872   8.257
 4270TIP3    H234370   2.155   4.000   8.328
 4271TIP3   OH234371   6.356   5.713   1.244
 4271TIP3    H134372   6.401   5.678   1.167
 4271TIP3    H234373   6.324   5.799   1.216
 4272TIP3   OH234374   1.175   0.987   8.575
 4272TIP3    H134375   1.154   1.003   8.482
 4272TIP3    H234376   1.263   0.949   8.573
 4273TIP3   OH234377   4.122   1.542   7.173
 4273TIP3    H134378   4.130   1.511   7.263
 4273TIP3    H234379   4.040   1.592   7.172
 4274TIP3   OH234380   6.422   1.812   6.679
 4274TIP3    H134381   6.355   1.846   6.620
 4274TIP3    H234382   6.499   1.799   6.623
 4275TIP3   OH234383   1.388   2.552   6.864
 4275TIP3    H134384   1.435   2.636   6.862
 4275TIP3    H234385   1.451   2.489   6.829
 4276TIP3   OH234386   1.261   3.431   0.754
 4276TIP3    H134387   1.341   3.466   0.715
 4276TIP3    H234388   1.191   3.486   0.719
 4277TIP3   OH234389   6.398   3.407   1.711
 4277TIP3    H134390   6.489   3.425   1.731
 4277TIP3    H234391   6.348   3.462   1.772
 4278TIP3   OH234392   4.203   0.837   6.888
 4278TIP3    H134393   4.244   0.877   6.811
 4278TIP3    H234394   4.277   0.813   6.944
 4279TIP3   OH234395   5.339   3.620   0.219
 4279TIP3    H134396   5.285   3.651   0.146
 4279TIP3    H234397   5.429   3.635   0.191
 4280TIP3   OH234398   2.626   3.504   8.706
 4280TIP3    H134399   2.637   3.520   0.065
 4280TIP3    H234400   2.704   3.456   8.680
 4281TIP3   OH234401   5.129   2.544   0.412
 4281TIP3    H134402   5.122   2.610   0.343
 4281TIP3    H234403   5.211   2.498   0.393
 4282TIP3   OH234404   0.518   6.628   7.400
 4282TIP3    H134405   0.576   6.564   7.442
 4282TIP3    H234406   0.430   6.600   7.426
 4283TIP3   OH234407   1.118   2.369   8.461
 4283TIP3    H134408   1.199   2.417   8.479
 4283TIP3    H234409   1.098   2.326   8.544
 4284TIP3   OH234410   3.304   1.378   0.531
 4284TIP3    H134411   3.271   1.331   0.455
 4284TIP3    H234412   3.242   1.357   0.601
 4285TIP3   OH234413   3.601   1.408   8.023
 4285TIP3    H134414   3.680   1.429   7.973
 4285TIP3    H234415   3.634   1.361   8.100
 4286TIP3   OH234416   2.965   5.156   6.677
 4286TIP3    H134417   3.044   5.200   6.647
 4286TIP3    H234418   2.923   5.219   6.735
 4287TIP3   OH234419   2.338   4.479   7.385
 4287TIP3    H134420   2.397   4.437   7.449
 4287TIP3    H234421   2.251   4.445   7.406
 4288TIP3   OH234422   3.141   2.523   2.373
 4288TIP3    H134423   3.086   2.519   2.295
 4288TIP3    H234424   3.148   2.617   2.392
 4289TIP3   OH234425   3.361   1.018   8.580
 4289TIP3    H134426   3.316   1.097   8.611
 4289TIP3    H234427   3.401   1.045   8.498
 4290TIP3   OH234428   4.688   3.867   1.786
 4290TIP3    H134429   4.646   3.953   1.781
 4290TIP3    H234430   4.779   3.884   1.759
 4291TIP3   OH234431   2.296   1.144   6.191
 4291TIP3    H134432   2.373   1.182   6.232
 4291TIP3    H234433   2.320   1.053   6.173
 4292TIP3   OH234434   1.997   4.222   8.319
 4292TIP3    H134435   2.081   4.183   8.344
 4292TIP3    H234436   1.939   4.201   8.392
 4293TIP3   OH234437   4.930   6.727   2.261
 4293TIP3    H134438   4.983   6.799   2.230
 4293TIP3    H234439   4.918   6.744   2.354
 4294TIP3   OH234440   4.835   3.186   1.367
 4294TIP3    H134441   4.750   3.199   1.325
 4294TIP3    H234442   4.840   3.092   1.382
 4295TIP3   OH234443   2.048   0.863   7.006
 4295TIP3    H134444   2.079   0.935   6.950
 4295TIP3    H234445   1.988   0.814   6.950
 4296TIP3   OH234446   3.782   2.783   0.915
 4296TIP3    H134447   3.782   2.818   1.004
 4296TIP3    H234448   3.695   2.805   0.880
 4297TIP3   OH234449   5.844   6.208   6.098
 4297TIP3    H134450   5.880   6.120   6.080
 4297TIP3    H234451   5.749   6.195   6.100
 4298TIP3   OH234452   5.031   1.113   6.896
 4298TIP3    H134453   5.024   1.200   6.854
 4298TIP3    H234454   4.951   1.067   6.868
 4299TIP3   OH234455   5.423   2.335   1.270
 4299TIP3    H134456   5.397   2.243   1.280
 4299TIP3    H234457   5.497   2.332   1.209
 4300TIP3   OH234458   3.147   5.525   6.978
 4300TIP3    H134459   3.074   5.556   6.923
 4300TIP3    H234460   3.222   5.576   6.949
 4301TIP3   OH234461   2.508   0.100   7.954
 4301TIP3    H134462   2.580   0.126   7.896
 4301TIP3    H234463   2.521   0.006   7.968
 4302TIP3   OH234464   6.321   0.972   8.567
 4302TIP3    H134465   6.416   0.974   8.578
 4302TIP3    H234466   6.296   1.064   8.557
 4303TIP3   OH234467   6.492   4.463   1.772
 4303TIP3    H134468   6.526   4.393   1.716
 4303TIP3    H234469   6.401   4.473   1.744
 4304TIP3   OH234470   2.992   2.407   7.978
 4304TIP3    H134471   2.914   2.357   8.000
 4304TIP3    H234472   3.012   2.381   7.888
 4305TIP3   OH234473   1.243   1.608   8.618
 4305TIP3    H134474   1.242   1.703   8.608
 4305TIP3    H234475   1.303   1.577   8.551
 4306TIP3   OH234476   5.658   5.861   2.304
 4306TIP3    H134477   5.565   5.882   2.305
 4306TIP3    H234478   5.696   5.916   2.373
 4307TIP3   OH234479   3.820   1.439   8.449
 4307TIP3    H134480   3.769   1.520   8.451
 4307TIP3    H234481   3.900   1.461   8.403
 4308TIP3   OH234482   6.595   5.927   7.187
 4308TIP3    H134483   6.626   5.837   7.179
 4308TIP3    H234484   6.505   5.920   7.219
 4309TIP3   OH234485   1.450   4.460   2.382
 4309TIP3    H134486   1.436   4.436   2.291
 4309TIP3    H234487   1.364   4.451   2.423
 4310TIP3   OH234488   2.417   6.389   7.346
 4310TIP3    H134489   2.361   6.312   7.361
 4310TIP3    H234490   2.365   6.445   7.288
 4311TIP3   OH234491   4.163   3.797   0.011
 4311TIP3    H134492   4.210   3.714   0.014
 4311TIP3    H234493   4.074   3.773   8.720
 4312TIP3   OH234494   6.404   6.358   7.421
 4312TIP3    H134495   6.432   6.430   7.364
 4312TIP3    H234496   6.324   6.391   7.463
 4313TIP3   OH234497   6.202   1.225   8.521
 4313TIP3    H134498   6.174   1.291   8.586
 4313TIP3    H234499   6.154   1.248   8.442
 4314TIP3   OH234500   0.461   1.848   1.052
 4314TIP3    H134501   0.450   1.870   0.959
 4314TIP3    H234502   0.410   1.915   1.098
 4315TIP3   OH234503   1.599   4.184   7.164
 4315TIP3    H134504   1.680   4.235   7.158
 4315TIP3    H234505   1.600   4.148   7.253
 4316TIP3   OH234506   2.481   6.331   0.045
 4316TIP3    H134507   2.478   6.426   0.057
 4316TIP3    H234508   2.554   6.302   0.099
 4317TIP3   OH234509   1.795   5.675   6.857
 4317TIP3    H134510   1.840   5.695   6.775
 4317TIP3    H234511   1.757   5.588   6.843
 4318TIP3   OH234512   3.007   5.533   1.185
 4318TIP3    H134513   2.927   5.503   1.141
 4318TIP3    H234514   3.069   5.462   1.174
 4319TIP3   OH234515   6.322   5.819   1.544
 4319TIP3    H134516   6.229   5.805   1.562
 4319TIP3    H234517   6.337   5.779   1.459
 4320TIP3   OH234518   4.375   4.209   0.028
 4320TIP3    H134519   4.349   4.130   0.075
 4320TIP3    H234520   4.459   4.187   8.722
 4321TIP3   OH234521   3.514   3.237   8.398
 4321TIP3    H134522   3.425   3.257   8.368
 4321TIP3    H234523   3.502   3.210   8.490
 4322TIP3   OH234524   2.237   2.506   6.269
 4322TIP3    H134525   2.329   2.529   6.260
 4322TIP3    H234526   2.233   2.412   6.253
 4323TIP3   OH234527   2.999   2.788   0.065
 4323TIP3    H134528   2.962   2.867   0.105
 4323TIP3    H234529   3.010   2.727   0.139
 4324TIP3   OH234530   2.871   6.765   1.634
 4324TIP3    H134531   2.802   6.728   1.688
 4324TIP3    H234532   2.836   6.763   1.545
 4325TIP3   OH234533   5.667   2.650   7.554
 4325TIP3    H134534   5.690   2.639   7.462
 4325TIP3    H234535   5.638   2.564   7.582
 4326TIP3   OH234536   5.180   6.537   8.351
 4326TIP3    H134537   5.250   6.549   8.288
 4326TIP3    H234538   5.218   6.483   8.420
 4327TIP3   OH234539   1.947   6.613   2.679
 4327TIP3    H134540   1.854   6.592   2.676
 4327TIP3    H234541   1.991   6.528   2.680
 4328TIP3   OH234542   0.605   4.386   6.991
 4328TIP3    H134543   0.586   4.355   6.902
 4328TIP3    H234544   0.593   4.480   6.987
 4329TIP3   OH234545   3.280   1.598   0.983
 4329TIP3    H134546   3.369   1.564   0.991
 4329TIP3    H234547   3.232   1.558   1.056
 4330TIP3   OH234548   2.278   2.099   0.097
 4330TIP3    H134549   2.210   2.094   0.031
 4330TIP3    H234550   2.330   2.020   0.085
 4331TIP3   OH234551   2.188   3.445   8.055
 4331TIP3    H134552   2.098   3.478   8.046
 4331TIP3    H234553   2.217   3.431   7.965
 4332TIP3   OH234554   2.849   1.940   0.128
 4332TIP3    H134555   2.800   1.988   0.194
 4332TIP3    H234556   2.919   1.895   0.176
 4333TIP3   OH234557   0.238   1.484   8.296
 4333TIP3    H134558   0.205   1.491   8.207
 4333TIP3    H234559   0.260   1.574   8.321
 4334TIP3   OH234560   5.953   2.273   7.510
 4334TIP3    H134561   5.969   2.224   7.429
 4334TIP3    H234562   5.992   2.359   7.494
 4335TIP3   OH234563   3.478   6.551   1.989
 4335TIP3    H134564   3.418   6.599   1.932
 4335TIP3    H234565   3.565   6.571   1.954
 4336TIP3   OH234566   2.468   2.396   7.466
 4336TIP3    H134567   2.441   2.305   7.460
 4336TIP3    H234568   2.492   2.409   7.557
 4337TIP3   OH234569   2.201   3.876   7.204
 4337TIP3    H134570   2.269   3.944   7.205
 4337TIP3    H234571   2.119   3.925   7.198
 4338TIP3   OH234572   5.870   0.863   8.409
 4338TIP3    H134573   5.953   0.840   8.451
 4338TIP3    H234574   5.897   0.910   8.330
 4339TIP3   OH234575   0.337   3.284   6.959
 4339TIP3    H134576   0.411   3.303   7.016
 4339TIP3    H234577   0.374   3.281   6.871
 4340TIP3   OH234578   6.333   4.918   0.919
 4340TIP3    H134579   6.394   4.961   0.859
 4340TIP3    H234580   6.360   4.826   0.918
 4341TIP3   OH234581   6.543   1.347   7.659
 4341TIP3    H134582   6.519   1.284   7.591
 4341TIP3    H234583   6.485   1.422   7.644
 4342TIP3   OH234584   3.469   4.301   8.076
 4342TIP3    H134585   3.471   4.207   8.090
 4342TIP3    H234586   3.383   4.329   8.106
 4343TIP3   OH234587   2.718   1.850   0.712
 4343TIP3    H134588   2.641   1.903   0.735
 4343TIP3    H234589   2.775   1.859   0.788
 4344TIP3   OH234590   0.419   1.069   7.988
 4344TIP3    H134591   0.417   1.052   7.894
 4344TIP3    H234592   0.460   0.991   8.026
 4345TIP3   OH234593   2.748   6.360   7.745
 4345TIP3    H134594   2.658   6.367   7.776
 4345TIP3    H234595   2.785   6.287   7.796
 4346TIP3   OH234596   5.993   0.480   8.084
 4346TIP3    H134597   5.986   0.473   8.180
 4346TIP3    H234598   5.994   0.574   8.067
 4347TIP3   OH234599   5.983   0.720   0.547
 4347TIP3    H134600   6.032   0.750   0.470
 4347TIP3    H234601   6.051   0.696   0.610
 4348TIP3   OH234602   4.802   4.840   0.233
 4348TIP3    H134603   4.718   4.846   0.279
 4348TIP3    H234604   4.789   4.890   0.153
 4349TIP3   OH234605   6.427   5.043   7.440
 4349TIP3    H134606   6.487   4.979   7.480
 4349TIP3    H234607   6.401   5.099   7.513
 4350TIP3   OH234608   0.570   5.545   6.431
 4350TIP3    H134609   0.536   5.598   6.503
 4350TIP3    H234610   0.521   5.575   6.354
 4351TIP3   OH234611   3.151   2.845   6.380
 4351TIP3    H134612   3.237   2.832   6.418
 4351TIP3    H234613   3.121   2.757   6.357
 4352TIP3   OH234614   0.084   3.747   7.413
 4352TIP3    H134615   0.022   3.717   7.480
 4352TIP3    H234616   0.046   3.718   7.330
 4353TIP3   OH234617   5.435   2.443   1.540
 4353TIP3    H134618   5.432   2.390   1.461
 4353TIP3    H234619   5.391   2.391   1.607
 4354TIP3   OH234620   3.986   3.675   6.670
 4354TIP3    H134621   3.931   3.669   6.748
 4354TIP3    H234622   3.965   3.596   6.620
 4355TIP3   OH234623   3.533   3.609   7.677
 4355TIP3    H134624   3.445   3.573   7.688
 4355TIP3    H234625   3.537   3.681   7.740
 4356TIP3   OH234626   4.185   0.744   1.445
 4356TIP3    H134627   4.213   0.700   1.364
 4356TIP3    H234628   4.256   0.807   1.463
 4357TIP3   OH234629   3.996   0.391   7.783
 4357TIP3    H134630   4.083   0.413   7.816
 4357TIP3    H234631   3.959   0.333   7.850
 4358TIP3   OH234632   1.168   3.831   7.798
 4358TIP3    H134633   1.215   3.825   7.714
 4358TIP3    H234634   1.110   3.755   7.798
 4359TIP3   OH234635   1.304   3.665   8.383
 4359TIP3    H134636   1.395   3.657   8.354
 4359TIP3    H234637   1.252   3.634   8.309
 4360TIP3   OH234638   0.236   4.797   1.549
 4360TIP3    H134639   0.302   4.852   1.591
 4360TIP3    H234640   0.152   4.833   1.579
 4361TIP3   OH234641   1.645   3.483   0.487
 4361TIP3    H134642   1.703   3.501   0.412
 4361TIP3    H234643   1.692   3.417   0.537
 4362TIP3   OH234644   1.851   1.134   1.049
 4362TIP3    H134645   1.874   1.209   1.104
 4362TIP3    H234646   1.905   1.145   0.970
 4363TIP3   OH234647   3.876   4.706   1.558
 4363TIP3    H134648   3.944   4.681   1.496
 4363TIP3    H234649   3.858   4.626   1.608
 4364TIP3   OH234650   4.261   6.442   1.589
 4364TIP3    H134651   4.304   6.357   1.604
 4364TIP3    H234652   4.177   6.419   1.549
 4365TIP3   OH234653   6.098   2.713   1.695
 4365TIP3    H134654   6.080   2.807   1.698
 4365TIP3    H234655   6.107   2.687   1.787
 4366TIP3   OH234656   6.005   4.259   0.148
 4366TIP3    H134657   5.974   4.301   0.068
 4366TIP3    H234658   6.100   4.256   0.138
 4367TIP3   OH234659   2.381   0.720   7.356
 4367TIP3    H134660   2.311   0.699   7.294
 4367TIP3    H234661   2.459   0.732   7.301
 4368TIP3   OH234662   4.912   1.973   6.825
 4368TIP3    H134663   4.950   1.886   6.827
 4368TIP3    H234664   4.900   1.992   6.732
 4369TIP3   OH234665   3.376   2.171   1.968
 4369TIP3    H134666   3.287   2.173   1.932
 4369TIP3    H234667   3.387   2.256   2.010
 4370TIP3   OH234668   5.616   5.735   7.091
 4370TIP3    H134669   5.648   5.672   7.155
 4370TIP3    H234670   5.612   5.686   7.009
 4371TIP3   OH234671   4.561   2.467   2.909
 4371TIP3    H134672   4.630   2.445   2.845
 4371TIP3    H234673   4.480   2.468   2.858
 4372TIP3   OH234674   0.594   4.276   0.172
 4372TIP3    H134675   0.504   4.248   0.189
 4372TIP3    H234676   0.646   4.231   0.238
 4373TIP3   OH234677   3.510   4.508   2.336
 4373TIP3    H134678   3.575   4.440   2.319
 4373TIP3    H234679   3.426   4.463   2.332
 4374TIP3   OH234680   2.542   0.444   7.191
 4374TIP3    H134681   2.574   0.407   7.108
 4374TIP3    H234682   2.577   0.534   7.191
 4375TIP3   OH234683   5.869   6.519   7.423
 4375TIP3    H134684   5.867   6.557   7.511
 4375TIP3    H234685   5.913   6.586   7.370
 4376TIP3   OH234686   5.699   0.264   0.146
 4376TIP3    H134687   5.654   0.336   0.190
 4376TIP3    H234688   5.737   0.303   0.068
 4377TIP3   OH234689   4.346   3.946   0.143
 4377TIP3    H134690   4.299   3.980   0.220
 4377TIP3    H234691   4.286   3.883   0.104
 4378TIP3   OH234692   5.818   1.745   0.994
 4378TIP3    H134693   5.860   1.681   1.051
 4378TIP3    H234694   5.884   1.767   0.929
 4379TIP3   OH234695   3.503   0.277   8.436
 4379TIP3    H134696   3.456   0.218   8.378
 4379TIP3    H234697   3.527   0.351   8.381
 4380TIP3   OH234698   0.789   1.873   6.522
 4380TIP3    H134699   0.743   1.790   6.531
 4380TIP3    H234700   0.846   1.878   6.599
 4381TIP3   OH234701   1.906   0.461   7.695
 4381TIP3    H134702   1.950   0.539   7.729
 4381TIP3    H234703   1.840   0.440   7.762
 4382TIP3   OH234704   5.320   0.143   0.928
 4382TIP3    H134705   5.241   0.184   0.963
 4382TIP3    H234706   5.357   0.094   1.001
 4383TIP3   OH234707   2.189   0.330   1.395
 4383TIP3    H134708   2.218   0.382   1.470
 4383TIP3    H234709   2.098   0.356   1.381
 4384TIP3   OH234710   5.776   3.268   7.234
 4384TIP3    H134711   5.731   3.350   7.214
 4384TIP3    H234712   5.715   3.199   7.207
 4385TIP3   OH234713   3.054   0.807   7.240
 4385TIP3    H134714   3.055   0.721   7.196
 4385TIP3    H234715   3.144   0.840   7.229
 4386TIP3   OH234716   6.639   4.626   1.089
 4386TIP3    H134717   6.733   4.645   1.097
 4386TIP3    H234718   6.606   4.634   1.178
 4387TIP3   OH234719   6.005   1.633   8.364
 4387TIP3    H134720   6.064   1.645   8.289
 4387TIP3    H234721   5.944   1.565   8.335
 4388TIP3   OH234722   0.958   1.576   6.681
 4388TIP3    H134723   0.951   1.483   6.703
 4388TIP3    H234724   0.883   1.594   6.624
 4389TIP3   OH234725   2.236   5.591   2.108
 4389TIP3    H134726   2.311   5.631   2.065
 4389TIP3    H234727   2.167   5.590   2.042
 4390TIP3   OH234728   4.511   3.142   7.323
 4390TIP3    H134729   4.594   3.165   7.282
 4390TIP3    H234730   4.444   3.172   7.261
 4391TIP3   OH234731   6.383   4.421   0.309
 4391TIP3    H134732   6.398   4.327   0.299
 4391TIP3    H234733   6.355   4.449   0.222
 4392TIP3   OH234734   3.478   3.311   2.220
 4392TIP3    H134735   3.480   3.215   2.225
 4392TIP3    H234736   3.548   3.332   2.157
 4393TIP3   OH234737   2.289   3.421   0.479
 4393TIP3    H134738   2.306   3.344   0.424
 4393TIP3    H234739   2.325   3.397   0.564
 4394TIP3   OH234740   1.023   0.071   7.970
 4394TIP3    H134741   1.077   0.026   7.905
 4394TIP3    H234742   0.933   0.043   7.950
 4395TIP3   OH234743   4.741   0.908   0.543
 4395TIP3    H134744   4.833   0.884   0.529
 4395TIP3    H234745   4.692   0.827   0.527
 4396TIP3   OH234746   1.175   5.573   6.669
 4396TIP3    H134747   1.254   5.583   6.617
 4396TIP3    H234748   1.189   5.494   6.721
 4397TIP3   OH234749   0.702   4.617   1.301
 4397TIP3    H134750   0.771   4.683   1.303
 4397TIP3    H234751   0.630   4.656   1.349
 4398TIP3   OH234752   2.743   0.620   6.795
 4398TIP3    H134753   2.760   0.631   6.701
 4398TIP3    H234754   2.676   0.552   6.800
 4399TIP3   OH234755   1.165   4.444   8.057
 4399TIP3    H134756   1.120   4.481   8.133
 4399TIP3    H234757   1.168   4.515   7.994
 4400TIP3   OH234758   5.591   4.476   0.388
 4400TIP3    H134759   5.641   4.556   0.372
 4400TIP3    H234760   5.653   4.405   0.374
 4401TIP3   OH234761   0.833   1.047   8.160
 4401TIP3    H134762   0.890   1.118   8.188
 4401TIP3    H234763   0.879   0.967   8.186
 4402TIP3   OH234764   4.360   3.872   1.690
 4402TIP3    H134765   4.316   3.929   1.627
 4402TIP3    H234766   4.419   3.930   1.737
 4403TIP3   OH234767   0.554   2.520   1.099
 4403TIP3    H134768   0.533   2.428   1.115
 4403TIP3    H234769   0.483   2.552   1.043
 4404TIP3   OH234770   3.536   0.977   7.455
 4404TIP3    H134771   3.501   0.912   7.394
 4404TIP3    H234772   3.459   1.025   7.485
 4405TIP3   OH234773   2.730   2.264   1.339
 4405TIP3    H134774   2.703   2.195   1.400
 4405TIP3    H234775   2.815   2.234   1.306
 4406TIP3   OH234776   3.366   5.040   2.261
 4406TIP3    H134777   3.361   4.949   2.230
 4406TIP3    H234778   3.430   5.038   2.332
 4407TIP3   OH234779   2.730   0.372   0.643
 4407TIP3    H134780   2.788   0.392   0.716
 4407TIP3    H234781   2.705   0.458   0.608
 4408TIP3   OH234782   6.277   4.724   1.198
 4408TIP3    H134783   6.344   4.791   1.210
 4408TIP3    H234784   6.279   4.673   1.278
 4409TIP3   OH234785   0.335   6.315   8.657
 4409TIP3    H134786   0.289   6.278   8.582
 4409TIP3    H234787   0.274   6.377   8.696
 4410TIP3   OH234788   2.621   0.087   2.015
 4410TIP3    H134789   2.657   0.108   1.929
 4410TIP3    H234790   2.606   6.833   2.013
 4411TIP3   OH234791   1.037   0.775   7.904
 4411TIP3    H134792   1.032   0.781   8.000
 4411TIP3    H234793   0.977   0.704   7.882
 4412TIP3   OH234794   0.259   2.926   0.586
 4412TIP3    H134795   0.310   2.997   0.624
 4412TIP3    H234796   0.249   2.862   0.657
 4413TIP3   OH234797   4.685   2.451   0.436
 4413TIP3    H134798   4.615   2.394   0.467
 4413TIP3    H234799   4.721   2.405   0.360
 4414TIP3   OH234800   2.426   3.388   8.560
 4414TIP3    H134801   2.447   3.375   8.468
 4414TIP3    H234802   2.501   3.436   8.595
 4415TIP3   OH234803   4.553   4.452   0.018
 4415TIP3    H134804   4.603   4.373   0.041
 4415TIP3    H234805   4.618   4.513   8.718
 4416TIP3   OH234806   6.160   1.516   8.054
 4416TIP3    H134807   6.194   1.428   8.070
 4416TIP3    H234808   6.211   1.572   8.112
 4417TIP3   OH234809   1.320   2.039   0.239
 4417TIP3    H134810   1.256   2.006   0.176
 4417TIP3    H234811   1.393   1.977   0.233
 4418TIP3   OH234812   1.138   1.721   1.977
 4418TIP3    H134813   1.172   1.808   1.995
 4418TIP3    H234814   1.122   1.683   2.063
 4419TIP3   OH234815   0.515   5.784   1.787
 4419TIP3    H134816   0.423   5.772   1.808
 4419TIP3    H234817   0.539   5.704   1.740
 4420TIP3   OH234818   5.788   6.740   0.510
 4420TIP3    H134819   5.805   6.651   0.481
 4420TIP3    H234820   5.763   6.787   0.431
 4421TIP3   OH234821   2.026   1.087   8.428
 4421TIP3    H134822   1.949   1.133   8.394
 4421TIP3    H234823   2.022   1.000   8.387
 4422TIP3   OH234824   1.201   2.578   6.486
 4422TIP3    H134825   1.233   2.507   6.430
 4422TIP3    H234826   1.178   2.535   6.568
 4423TIP3   OH234827   4.177   4.767   8.254
 4423TIP3    H134828   4.188   4.688   8.307
 4423TIP3    H234829   4.111   4.818   8.301
 4424TIP3   OH234830   1.831   2.711   0.048
 4424TIP3    H134831   1.823   2.773   0.121
 4424TIP3    H234832   1.926   2.705   0.033
 4425TIP3   OH234833   4.384   1.577   7.794
 4425TIP3    H134834   4.432   1.623   7.726
 4425TIP3    H234835   4.334   1.510   7.747
 4426TIP3   OH234836   4.380   2.467   1.369
 4426TIP3    H134837   4.312   2.531   1.346
 4426TIP3    H234838   4.332   2.385   1.382
 4427TIP3   OH234839   1.828   2.175   8.186
 4427TIP3    H134840   1.869   2.133   8.262
 4427TIP3    H234841   1.844   2.114   8.114
 4428TIP3   OH234842   1.297   1.485   7.088
 4428TIP3    H134843   1.283   1.451   7.000
 4428TIP3    H234844   1.305   1.408   7.144
 4429TIP3   OH234845   5.224   5.609   8.527
 4429TIP3    H134846   5.283   5.613   8.602
 4429TIP3    H234847   5.213   5.515   8.510
 4430TIP3   OH234848   6.589   1.714   6.154
 4430TIP3    H134849   6.624   1.650   6.216
 4430TIP3    H234850   6.666   1.740   6.102
 4431TIP3   OH234851   4.080   3.787   7.849
 4431TIP3    H134852   4.074   3.806   7.943
 4431TIP3    H234853   4.150   3.845   7.817
 4432TIP3   OH234854   4.323   2.326   7.625
 4432TIP3    H134855   4.360   2.299   7.709
 4432TIP3    H234856   4.273   2.405   7.645
 4433TIP3   OH234857   4.147   1.223   0.952
 4433TIP3    H134858   4.148   1.205   1.046
 4433TIP3    H234859   4.215   1.289   0.940
 4434TIP3   OH234860   6.560   0.947   7.465
 4434TIP3    H134861   6.652   0.920   7.459
 4434TIP3    H234862   6.511   0.871   7.434
 4435TIP3   OH234863   6.353   2.539   0.331
 4435TIP3    H134864   6.335   2.484   0.255
 4435TIP3    H234865   6.357   2.628   0.296
 4436TIP3   OH234866   2.056   0.835   0.719
 4436TIP3    H134867   2.021   0.748   0.700
 4436TIP3    H234868   2.079   0.871   0.633
 4437TIP3   OH234869   1.515   4.895   0.002
 4437TIP3    H134870   1.590   4.864   8.685
 4437TIP3    H234871   1.439   4.877   8.681
 4438TIP3   OH234872   5.529   5.262   7.778
 4438TIP3    H134873   5.462   5.319   7.814
 4438TIP3    H234874   5.603   5.320   7.759
 4439TIP3   OH234875   2.038   4.608   7.380
 4439TIP3    H134876   1.952   4.631   7.414
 4439TIP3    H234877   2.023   4.528   7.330
 4440TIP3   OH234878   0.673   2.769   1.657
 4440TIP3    H134879   0.669   2.756   1.563
 4440TIP3    H234880   0.586   2.743   1.689
 4441TIP3   OH234881   0.857   0.886   8.437
 4441TIP3    H134882   0.917   0.892   8.511
 4441TIP3    H234883   0.771   0.872   8.477
 4442TIP3   OH234884   4.885   0.395   8.167
 4442TIP3    H134885   4.957   0.350   8.121
 4442TIP3    H234886   4.929   0.455   8.227
 4443TIP3   OH234887   6.113   4.212   0.716
 4443TIP3    H134888   6.126   4.170   0.631
 4443TIP3    H234889   6.140   4.145   0.779
 4444TIP3   OH234890   5.595   2.308   0.459
 4444TIP3    H134891   5.686   2.292   0.484
 4444TIP3    H234892   5.554   2.221   0.462
 4445TIP3   OH234893   0.981   5.328   6.293
 4445TIP3    H134894   1.029   5.355   6.215
 4445TIP3    H234895   0.977   5.407   6.347
 4446TIP3   OH234896   0.758   3.280   7.513
 4446TIP3    H134897   0.802   3.198   7.533
 4446TIP3    H234898   0.749   3.280   7.417
 4447TIP3   OH234899   6.661   0.316   7.017
 4447TIP3    H134900   6.655   0.257   6.941
 4447TIP3    H234901   6.590   0.287   7.075
 4448TIP3   OH234902   2.358   1.911   6.311
 4448TIP3    H134903   2.317   1.833   6.350
 4448TIP3    H234904   2.428   1.876   6.256
 4449TIP3   OH234905   6.603   6.772   0.169
 4449TIP3    H134906   6.586   6.796   0.260
 4449TIP3    H234907   6.534   6.815   0.119
 4450TIP3   OH234908   2.229   5.298   0.270
 4450TIP3    H134909   2.204   5.327   0.182
 4450TIP3    H234910   2.150   5.258   0.306
 4451TIP3   OH234911   3.642   1.640   8.486
 4451TIP3    H134912   3.571   1.595   8.532
 4451TIP3    H234913   3.638   1.730   8.519
 4452TIP3   OH234914   4.010   6.146   1.811
 4452TIP3    H134915   4.069   6.088   1.858
 4452TIP3    H234916   3.984   6.212   1.876
 4453TIP3   OH234917   6.111   5.019   7.528
 4453TIP3    H134918   6.129   5.112   7.544
 4453TIP3    H234919   6.059   4.991   7.603
 4454TIP3   OH234920   6.732   2.192   8.045
 4454TIP3    H134921   6.643   2.220   8.023
 4454TIP3    H234922   6.759   2.141   7.969
 4455TIP3   OH234923   1.193   3.411   5.744
 4455TIP3    H134924   1.249   3.343   5.782
 4455TIP3    H234925   1.111   3.404   5.793
 4456TIP3   OH234926   1.763   1.081   0.165
 4456TIP3    H134927   1.747   1.109   0.074
 4456TIP3    H234928   1.840   1.024   0.159
 4457TIP3   OH234929   0.681   3.244   7.237
 4457TIP3    H134930   0.662   3.325   7.189
 4457TIP3    H234931   0.702   3.180   7.169
 4458TIP3   OH234932   5.337   0.080   8.007
 4458TIP3    H134933   5.285   0.001   7.992
 4458TIP3    H234934   5.396   0.084   7.932
 4459TIP3   OH234935   6.465   5.415   7.097
 4459TIP3    H134936   6.483   5.390   7.007
 4459TIP3    H234937   6.438   5.334   7.140
 4460TIP3   OH234938   2.581   3.410   8.106
 4460TIP3    H134939   2.518   3.408   8.178
 4460TIP3    H234940   2.666   3.411   8.149
 4461TIP3   OH234941   3.464   3.775   7.272
 4461TIP3    H134942   3.480   3.846   7.209
 4461TIP3    H234943   3.441   3.700   7.218
 4462TIP3   OH234944   4.913   5.575   0.865
 4462TIP3    H134945   4.970   5.610   0.796
 4462TIP3    H234946   4.835   5.546   0.818
 4463TIP3   OH234947   0.320   2.588   0.922
 4463TIP3    H134948   0.256   2.520   0.943
 4463TIP3    H234949   0.267   2.666   0.906
 4464TIP3   OH234950   3.309   6.272   7.371
 4464TIP3    H134951   3.236   6.296   7.428
 4464TIP3    H234952   3.318   6.345   7.310
 4465TIP3   OH234953   6.083   1.421   7.785
 4465TIP3    H134954   6.079   1.452   7.875
 4465TIP3    H234955   6.019   1.475   7.738
 4466TIP3   OH234956   6.755   1.660   7.318
 4466TIP3    H134957   6.677   1.689   7.271
 4466TIP3    H234958   6.736   1.570   7.343
 4467TIP3   OH234959   3.936   4.670   0.260
 4467TIP3    H134960   3.930   4.746   0.201
 4467TIP3    H234961   3.847   4.634   0.261
 4468TIP3   OH234962   2.206   2.911   0.521
 4468TIP3    H134963   2.188   2.834   0.575
 4468TIP3    H234964   2.183   2.884   0.432
 4469TIP3   OH234965   2.231   3.677   0.378
 4469TIP3    H134966   2.270   3.735   0.443
 4469TIP3    H234967   2.263   3.590   0.402
 4470TIP3   OH234968   6.612   4.326   7.683
 4470TIP3    H134969   6.669   4.332   7.760
 4470TIP3    H234970   6.670   4.341   7.608
 4471TIP3   OH234971   2.963   4.094   8.618
 4471TIP3    H134972   2.920   4.167   8.662
 4471TIP3    H234973   2.902   4.020   8.627
 4472TIP3   OH234974   3.117   5.287   1.321
 4472TIP3    H134975   3.208   5.308   1.342
 4472TIP3    H234976   3.122   5.203   1.274
 4473TIP3   OH234977   5.960   6.587   1.850
 4473TIP3    H134978   5.981   6.644   1.924
 4473TIP3    H234979   6.043   6.542   1.831
 4474TIP3   OH234980   5.683   6.636   1.790
 4474TIP3    H134981   5.650   6.656   1.878
 4474TIP3    H234982   5.765   6.591   1.806
 4475TIP3   OH234983   1.049   3.797   0.294
 4475TIP3    H134984   0.985   3.784   0.364
 4475TIP3    H234985   1.134   3.778   0.335
 4476TIP3   OH234986   2.033   3.238   1.085
 4476TIP3    H134987   1.948   3.236   1.128
 4476TIP3    H234988   2.034   3.160   1.030
 4477TIP3   OH234989   4.585   5.942   8.695
 4477TIP3    H134990   4.579   5.887   0.038
 4477TIP3    H234991   4.626   6.023   8.726
 4478TIP3   OH234992   0.327   4.240   7.799
 4478TIP3    H134993   0.362   4.171   7.855
 4478TIP3    H234994   0.365   4.222   7.713
 4479TIP3   OH234995   5.528   0.984   7.934
 4479TIP3    H134996   5.525   0.910   7.995
 4479TIP3    H234997   5.455   0.970   7.875
 4480TIP3   OH234998   6.541   3.248   0.711
 4480TIP3    H134999   6.471   3.197   0.670
 4480TIP3    H235000   6.498   3.295   0.782
 4481TIP3   OH235001   5.127   5.077   2.200
 4481TIP3    H135002   5.132   5.105   2.291
 4481TIP3    H235003   5.216   5.048   2.179
 4482TIP3   OH235004   3.943   6.736   1.541
 4482TIP3    H135005   4.012   6.801   1.549
 4482TIP3    H235006   3.954   6.680   1.618
 4483TIP3   OH235007   6.187   5.373   6.770
 4483TIP3    H135008   6.151   5.386   6.857
 4483TIP3    H235009   6.111   5.357   6.714
 4484TIP3   OH235010   6.335   3.722   0.391
 4484TIP3    H135011   6.340   3.802   0.444
 4484TIP3    H235012   6.392   3.660   0.436
 4485TIP3   OH235013   3.942   3.472   0.062
 4485TIP3    H135014   3.935   3.548   0.120
 4485TIP3    H235015   3.959   3.398   0.121
 4486TIP3   OH235016   0.000   2.344   6.439
 4486TIP3    H135017   6.792   2.310   6.364
 4486TIP3    H235018   0.059   2.410   6.402
 4487TIP3   OH235019   1.542   5.167   6.631
 4487TIP3    H135020   1.448   5.160   6.617
 4487TIP3    H235021   1.550   5.223   6.708
 4488TIP3   OH235022   2.528   1.925   8.312
 4488TIP3    H135023   2.590   1.876   8.259
 4488TIP3    H235024   2.527   2.013   8.273
 4489TIP3   OH235025   2.561   6.584   1.273
 4489TIP3    H135026   2.503   6.633   1.215
 4489TIP3    H235027   2.574   6.500   1.228
 4490TIP3   OH235028   5.433   0.936   7.669
 4490TIP3    H135029   5.402   0.985   7.593
 4490TIP3    H235030   5.370   0.865   7.679
 4491TIP3   OH235031   6.839   6.436   7.767
 4491TIP3    H135032   6.754   6.404   7.736
 4491TIP3    H235033   6.819   6.520   7.807
 4492TIP3   OH235034   5.750   6.138   0.903
 4492TIP3    H135035   5.692   6.123   0.828
 4492TIP3    H235036   5.704   6.203   0.956
 4493TIP3   OH235037   5.561   0.385   1.798
 4493TIP3    H135038   5.610   0.466   1.817
 4493TIP3    H235039   5.509   0.370   1.877
 4494TIP3   OH235040   4.902   3.782   8.104
 4494TIP3    H135041   4.922   3.788   8.197
 4494TIP3    H235042   4.868   3.693   8.093
 4495TIP3   OH235043   6.390   1.295   0.984
 4495TIP3    H135044   6.351   1.374   1.022
 4495TIP3    H235045   6.343   1.223   1.027
 4496TIP3   OH235046   2.434   2.008   2.080
 4496TIP3    H135047   2.400   1.999   1.991
 4496TIP3    H235048   2.356   2.028   2.133
 4497TIP3   OH235049   1.061   2.843   2.063
 4497TIP3    H135050   1.003   2.768   2.048
 4497TIP3    H235051   1.096   2.829   2.151
 4498TIP3   OH235052   0.870   6.678   1.156
 4498TIP3    H135053   0.901   6.604   1.207
 4498TIP3    H235054   0.912   6.668   1.071
 4499TIP3   OH235055   4.883   5.750   7.347
 4499TIP3    H135056   4.922   5.834   7.371
 4499TIP3    H235057   4.863   5.707   7.430
 4500TIP3   OH235058   5.843   2.955   1.230
 4500TIP3    H135059   5.865   2.979   1.140
 4500TIP3    H235060   5.768   2.896   1.221
 4501TIP3   OH235061   2.240   6.224   0.119
 4501TIP3    H135062   2.331   6.225   0.089
 4501TIP3    H235063   2.224   6.133   0.144
 4502TIP3   OH235064   2.439   2.192   8.542
 4502TIP3    H135065   2.438   2.131   8.616
 4502TIP3    H235066   2.531   2.201   8.519
 4503TIP3   OH235067   4.942   0.033   7.889
 4503TIP3    H135068   4.897   6.797   7.853
 4503TIP3    H235069   5.031   0.002   7.908
 4504TIP3   OH235070   3.000   1.720   8.589
 4504TIP3    H135071   3.042   1.654   8.644
 4504TIP3    H235072   3.068   1.744   8.525
 4505TIP3   OH235073   4.992   3.299   7.127
 4505TIP3    H135074   5.007   3.384   7.167
 4505TIP3    H235075   4.934   3.316   7.053
 4506TIP3   OH235076   5.058   0.741   1.833
 4506TIP3    H135077   5.137   0.687   1.833
 4506TIP3    H235078   5.089   0.830   1.850
 4507TIP3   OH235079   0.580   3.847   1.648
 4507TIP3    H135080   0.545   3.762   1.621
 4507TIP3    H235081   0.512   3.885   1.703
 4508TIP3   OH235082   0.707   4.712   7.563
 4508TIP3    H135083   0.634   4.675   7.514
 4508TIP3    H235084   0.712   4.803   7.533
 4509TIP3   OH235085   2.363   6.280   7.905
 4509TIP3    H135086   2.416   6.353   7.937
 4509TIP3    H235087   2.425   6.206   7.902
 4510TIP3   OH235088   4.282   6.200   8.625
 4510TIP3    H135089   4.334   6.153   8.690
 4510TIP3    H235090   4.196   6.212   8.665
 4511TIP3   OH235091   3.104   5.489   6.591
 4511TIP3    H135092   3.041   5.559   6.603
 4511TIP3    H235093   3.160   5.519   6.519
 4512TIP3   OH235094   0.857   2.991   0.718
 4512TIP3    H135095   0.817   2.962   0.800
 4512TIP3    H235096   0.924   2.925   0.699
 4513TIP3   OH235097   3.466   0.323   8.088
 4513TIP3    H135098   3.521   0.269   8.144
 4513TIP3    H235099   3.493   0.301   7.999
 4514TIP3   OH235100   5.856   1.424   6.734
 4514TIP3    H135101   5.854   1.463   6.821
 4514TIP3    H235102   5.945   1.389   6.726
 4515TIP3   OH235103   5.677   4.374   2.229
 4515TIP3    H135104   5.754   4.391   2.175
 4515TIP3    H235105   5.701   4.410   2.315
 4516TIP3   OH235106   4.163   0.944   0.642
 4516TIP3    H135107   4.141   1.014   0.704
 4516TIP3    H235108   4.258   0.951   0.632
 4517TIP3   OH235109   5.046   3.469   7.806
 4517TIP3    H135110   4.980   3.495   7.742
 4517TIP3    H235111   5.127   3.510   7.775
 4518TIP3   OH235112   2.905   1.016   7.108
 4518TIP3    H135113   2.842   0.975   7.049
 4518TIP3    H235114   2.916   0.952   7.179
 4519TIP3   OH235115   0.111   4.259   0.126
 4519TIP3    H135116   0.028   4.300   0.148
 4519TIP3    H235117   0.144   4.225   0.209
 4520TIP3   OH235118   2.968   1.136   7.601
 4520TIP3    H135119   3.011   1.155   7.517
 4520TIP3    H235120   2.875   1.140   7.582
 4521TIP3   OH235121   3.078   5.323   7.140
 4521TIP3    H135122   3.107   5.342   7.229
 4521TIP3    H235123   3.099   5.401   7.090
 4522TIP3   OH235124   5.594   1.574   1.711
 4522TIP3    H135125   5.609   1.561   1.805
 4522TIP3    H235126   5.511   1.531   1.694
 4523TIP3   OH235127   0.095   3.472   8.713
 4523TIP3    H135128   0.164   3.459   0.044
 4523TIP3    H235129   0.046   3.389   8.713
 4524TIP3   OH235130   3.770   0.968   8.688
 4524TIP3    H135131   3.837   0.935   0.014
 4524TIP3    H235132   3.761   1.061   8.710
 4525TIP3   OH235133   1.889   0.268   2.910
 4525TIP3    H135134   1.955   0.199   2.911
 4525TIP3    H235135   1.829   0.244   2.840
 4526TIP3   OH235136   4.546   3.005   1.493
 4526TIP3    H135137   4.451   3.001   1.488
 4526TIP3    H235138   4.572   2.920   1.528
 4527TIP3   OH235139   2.779   2.348   7.512
 4527TIP3    H135140   2.743   2.268   7.473
 4527TIP3    H235141   2.718   2.369   7.583
 4528TIP3   OH235142   3.077   6.415   6.814
 4528TIP3    H135143   3.081   6.434   6.720
 4528TIP3    H235144   3.101   6.497   6.857
 4529TIP3   OH235145   2.938   5.927   8.333
 4529TIP3    H135146   2.982   5.982   8.268
 4529TIP3    H235147   2.937   5.980   8.413
 4530TIP3   OH235148   1.927   0.405   1.353
 4530TIP3    H135149   1.851   0.355   1.381
 4530TIP3    H235150   1.891   0.470   1.292
 4531TIP3   OH235151   4.925   1.212   7.523
 4531TIP3    H135152   4.868   1.281   7.489
 4531TIP3    H235153   4.908   1.211   7.617
 4532TIP3   OH235154   0.478   5.133   8.040
 4532TIP3    H135155   0.410   5.152   7.976
 4532TIP3    H235156   0.554   5.184   8.010
 4533TIP3   OH235157   6.012   2.182   0.281
 4533TIP3    H135158   5.974   2.159   0.366
 4533TIP3    H235159   6.031   2.098   0.239
 4534TIP3   OH235160   4.022   1.759   8.332
 4534TIP3    H135161   3.929   1.771   8.317
 4534TIP3    H235162   4.063   1.838   8.297
 4535TIP3   OH235163   2.173   5.967   1.569
 4535TIP3    H135164   2.267   5.988   1.567
 4535TIP3    H235165   2.169   5.881   1.610
 4536TIP3   OH235166   3.468   2.446   7.629
 4536TIP3    H135167   3.381   2.413   7.651
 4536TIP3    H235168   3.468   2.536   7.661
 4537TIP3   OH235169   0.229   3.927   6.491
 4537TIP3    H135170   0.293   3.888   6.432
 4537TIP3    H235171   0.248   4.021   6.489
 4538TIP3   OH235172   4.141   6.549   0.069
 4538TIP3    H135173   4.182   6.507   0.144
 4538TIP3    H235174   4.213   6.596   0.026
 4539TIP3   OH235175   0.416   5.114   0.902
 4539TIP3    H135176   0.498   5.162   0.888
 4539TIP3    H235177   0.370   5.165   0.969
 4540TIP3   OH235178   1.753   6.120   0.076
 4540TIP3    H135179   1.766   6.056   0.006
 4540TIP3    H235180   1.831   6.176   0.072
 4541TIP3   OH235181   2.966   3.860   0.608
 4541TIP3    H135182   2.959   3.927   0.676
 4541TIP3    H235183   2.935   3.780   0.650
 4542TIP3   OH235184   4.901   5.782   7.999
 4542TIP3    H135185   4.853   5.727   8.062
 4542TIP3    H235186   4.933   5.720   7.933
 4543TIP3   OH235187   0.302   5.787   8.601
 4543TIP3    H135188   0.312   5.881   8.585
 4543TIP3    H235189   0.354   5.771   8.680
 4544TIP3   OH235190   0.248   1.081   6.748
 4544TIP3    H135191   0.287   1.064   6.663
 4544TIP3    H235192   0.319   1.118   6.801
 4545TIP3   OH235193   3.054   2.813   1.559
 4545TIP3    H135194   3.074   2.733   1.608
 4545TIP3    H235195   3.037   2.879   1.626
 4546TIP3   OH235196   1.559   2.893   1.555
 4546TIP3    H135197   1.466   2.883   1.572
 4546TIP3    H235198   1.601   2.868   1.638
 4547TIP3   OH235199   0.266   0.660   7.361
 4547TIP3    H135200   0.199   0.724   7.337
 4547TIP3    H235201   0.225   0.575   7.348
 4548TIP3   OH235202   4.955   5.323   0.189
 4548TIP3    H135203   4.968   5.357   0.278
 4548TIP3    H235204   5.038   5.340   0.144
 4549TIP3   OH235205   6.816   3.674   7.174
 4549TIP3    H135206   0.043   3.703   7.113
 4549TIP3    H235207   6.748   3.636   7.117
 4550TIP3   OH235208   2.709   0.999   6.205
 4550TIP3    H135209   2.739   1.090   6.211
 4550TIP3    H235210   2.788   0.948   6.194
 4551TIP3   OH235211   5.763   5.605   1.891
 4551TIP3    H135212   5.780   5.646   1.977
 4551TIP3    H235213   5.814   5.525   1.892
 4552TIP3   OH235214   4.610   0.398   8.221
 4552TIP3    H135215   4.593   0.484   8.183
 4552TIP3    H235216   4.688   0.366   8.176
 4553TIP3   OH235217   4.606   2.125   6.422
 4553TIP3    H135218   4.584   2.209   6.463
 4553TIP3    H235219   4.690   2.140   6.379
 4554TIP3   OH235220   3.182   2.981   8.441
 4554TIP3    H135221   3.106   2.925   8.462
 4554TIP3    H235222   3.228   2.935   8.372
 4555TIP3   OH235223   3.468   3.072   1.223
 4555TIP3    H135224   3.473   3.121   1.141
 4555TIP3    H235225   3.505   3.130   1.289
 4556TIP3   OH235226   3.310   0.054   1.225
 4556TIP3    H135227   3.321   6.802   1.203
 4556TIP3    H235228   3.399   0.086   1.239
 4557TIP3   OH235229   1.568   2.805   8.118
 4557TIP3    H135230   1.513   2.800   8.197
 4557TIP3    H235231   1.655   2.827   8.152
 4558TIP3   OH235232   3.476   1.505   8.698
 4558TIP3    H135233   3.531   1.444   0.012
 4558TIP3    H235234   3.399   1.453   8.672
 4559TIP3   OH235235   2.376   2.876   2.012
 4559TIP3    H135236   2.428   2.799   1.990
 4559TIP3    H235237   2.388   2.888   2.106
 4560TIP3   OH235238   6.134   4.396   8.122
 4560TIP3    H135239   6.155   4.337   8.049
 4560TIP3    H235240   6.144   4.483   8.085
 4561TIP3   OH235241   4.304   5.808   8.567
 4561TIP3    H135242   4.314   5.713   8.578
 4561TIP3    H235243   4.384   5.845   8.605
 4562TIP3   OH235244   4.663   5.002   1.125
 4562TIP3    H135245   4.641   4.999   1.218
 4562TIP3    H235246   4.594   4.953   1.082
 4563TIP3   OH235247   0.955   2.592   0.539
 4563TIP3    H135248   0.861   2.576   0.529
 4563TIP3    H235249   0.997   2.514   0.504
 4564TIP3   OH235250   2.248   2.410   0.474
 4564TIP3    H135251   2.166   2.386   0.517
 4564TIP3    H235252   2.262   2.342   0.408
 4565TIP3   OH235253   1.754   6.386   2.671
 4565TIP3    H135254   1.711   6.363   2.589
 4565TIP3    H235255   1.682   6.397   2.733
 4566TIP3   OH235256   1.675   0.397   6.337
 4566TIP3    H135257   1.688   0.489   6.314
 4566TIP3    H235258   1.744   0.350   6.288
 4567TIP3   OH235259   1.140   1.903   8.194
 4567TIP3    H135260   1.081   1.835   8.164
 4567TIP3    H235261   1.115   1.981   8.143
 4568TIP3   OH235262   2.322   4.804   7.225
 4568TIP3    H135263   2.276   4.851   7.295
 4568TIP3    H235264   2.263   4.733   7.200
 4569TIP3   OH235265   4.465   4.333   8.141
 4569TIP3    H135266   4.407   4.262   8.169
 4569TIP3    H235267   4.498   4.305   8.056
 4570TIP3   OH235268   1.588   1.556   0.398
 4570TIP3    H135269   1.657   1.599   0.448
 4570TIP3    H235270   1.627   1.473   0.370
 4571TIP3   OH235271   0.144   4.112   6.926
 4571TIP3    H135272   0.178   4.046   6.866
 4571TIP3    H235273   0.222   4.147   6.970
 4572TIP3   OH235274   5.350   5.464   7.560
 4572TIP3    H135275   5.296   5.520   7.504
 4572TIP3    H235276   5.409   5.524   7.605
 4573TIP3   OH235277   6.365   5.698   0.405
 4573TIP3    H135278   6.354   5.604   0.391
 4573TIP3    H235279   6.418   5.727   0.331
 4574TIP3   OH235280   4.680   5.675   8.167
 4574TIP3    H135281   4.637   5.610   8.222
 4574TIP3    H235282   4.660   5.648   8.078
 4575TIP3   OH235283   2.890   5.935   0.056
 4575TIP3    H135284   2.799   5.942   0.086
 4575TIP3    H235285   2.942   5.967   0.130
 4576TIP3   OH235286   5.754   2.979   8.237
 4576TIP3    H135287   5.710   3.063   8.224
 4576TIP3    H235288   5.699   2.933   8.300
 4577TIP3   OH235289   5.819   4.427   0.691
 4577TIP3    H135290   5.860   4.492   0.633
 4577TIP3    H235291   5.886   4.406   0.755
 4578TIP3   OH235292   2.205   6.120   7.722
 4578TIP3    H135293   2.256   6.049   7.683
 4578TIP3    H235294   2.270   6.186   7.746
 4579TIP3   OH235295   6.331   6.361   2.113
 4579TIP3    H135296   6.277   6.351   2.191
 4579TIP3    H235297   6.327   6.454   2.093
 4580TIP3   OH235298   0.041   3.329   7.479
 4580TIP3    H135299   0.041   3.233   7.483
 4580TIP3    H235300   0.070   3.357   7.565
 4581TIP3   OH235301   4.223   0.000   6.942
 4581TIP3    H135302   4.188   6.798   6.864
 4581TIP3    H235303   4.269   0.077   6.908
 4582TIP3   OH235304   4.880   2.815   0.484
 4582TIP3    H135305   4.962   2.844   0.443
 4582TIP3    H235306   4.830   2.896   0.495
 4583TIP3   OH235307   3.713   1.166   8.158
 4583TIP3    H135308   3.792   1.127   8.119
 4583TIP3    H235309   3.729   1.162   8.252
 4584TIP3   OH235310   5.000   6.213   0.935
 4584TIP3    H135311   4.917   6.185   0.974
 4584TIP3    H235312   4.975   6.252   0.852
 4585TIP3   OH235313   0.556   1.409   8.461
 4585TIP3    H135314   0.495   1.350   8.504
 4585TIP3    H235315   0.605   1.354   8.400
 4586TIP3   OH235316   3.089   2.669   6.750
 4586TIP3    H135317   2.996   2.684   6.767
 4586TIP3    H235318   3.090   2.600   6.684
 4587TIP3   OH235319   1.759   3.579   8.134
 4587TIP3    H135320   1.674   3.535   8.139
 4587TIP3    H235321   1.766   3.609   8.043
 4588TIP3   OH235322   3.661   0.125   8.154
 4588TIP3    H135323   3.661   0.104   8.248
 4588TIP3    H235324   3.611   0.053   8.114
 4589TIP3   OH235325   4.888   5.112   8.155
 4589TIP3    H135326   4.961   5.079   8.208
 4589TIP3    H235327   4.889   5.059   8.076
 4590TIP3   OH235328   0.732   4.921   0.173
 4590TIP3    H135329   0.799   4.854   0.162
 4590TIP3    H235330   0.650   4.872   0.182
 4591TIP3   OH235331   0.165   5.877   0.153
 4591TIP3    H135332   0.214   5.936   0.096
 4591TIP3    H235333   0.075   5.883   0.122
 4592TIP3   OH235334   3.304   0.515   1.560
 4592TIP3    H135335   3.224   0.564   1.578
 4592TIP3    H235336   3.344   0.561   1.486
 4593TIP3   OH235337   1.096   1.061   8.297
 4593TIP3    H135338   1.146   1.118   8.239
 4593TIP3    H235339   1.102   0.974   8.257
 4594TIP3   OH235340   4.414   6.671   2.671
 4594TIP3    H135341   4.321   6.680   2.691
 4594TIP3    H235342   4.451   6.756   2.691
 4595TIP3   OH235343   1.991   3.205   8.033
 4595TIP3    H135344   2.050   3.214   8.108
 4595TIP3    H235345   1.903   3.208   8.071
 4596TIP3   OH235346   2.770   1.186   6.614
 4596TIP3    H135347   2.830   1.113   6.626
 4596TIP3    H235348   2.699   1.151   6.560
 4597TIP3   OH235349   5.774   2.587   0.164
 4597TIP3    H135350   5.689   2.625   0.141
 4597TIP3    H235351   5.822   2.584   0.081
 4598TIP3   OH235352   2.796   2.569   1.141
 4598TIP3    H135353   2.777   2.481   1.107
 4598TIP3    H235354   2.866   2.554   1.206
 4599TIP3   OH235355   4.622   3.441   8.504
 4599TIP3    H135356   4.546   3.499   8.497
 4599TIP3    H235357   4.623   3.413   8.595
 4600TIP3   OH235358   6.341   6.354   8.314
 4600TIP3    H135359   6.256   6.396   8.298
 4600TIP3    H235360   6.361   6.376   8.405
 4601TIP3   OH235361   6.068   4.699   7.441
 4601TIP3    H135362   6.015   4.714   7.519
 4601TIP3    H235363   6.157   4.687   7.474
 4602TIP3   OH235364   1.870   4.670   7.924
 4602TIP3    H135365   1.939   4.645   7.861
 4602TIP3    H235366   1.883   4.763   7.937
 4603TIP3   OH235367   0.996   0.726   0.474
 4603TIP3    H135368   1.042   0.683   0.402
 4603TIP3    H235369   1.017   0.819   0.463
 4604TIP3   OH235370   6.693   3.677   7.582
 4604TIP3    H135371   6.662   3.600   7.533
 4604TIP3    H235372   6.711   3.643   7.670
 4605TIP3   OH235373   5.803   6.701   1.549
 4605TIP3    H135374   5.744   6.673   1.619
 4605TIP3    H235375   5.812   6.624   1.493
 4606TIP3   OH235376   2.238   0.896   7.780
 4606TIP3    H135377   2.310   0.857   7.829
 4606TIP3    H235378   2.241   0.989   7.802
 4607TIP3   OH235379   4.443   4.769   1.276
 4607TIP3    H135380   4.469   4.682   1.306
 4607TIP3    H235381   4.446   4.763   1.180
 4608TIP3   OH235382   0.060   0.707   0.512
 4608TIP3    H135383   0.067   0.777   0.447
 4608TIP3    H235384   0.078   0.751   0.596
 4609TIP3   OH235385   0.574   2.717   7.660
 4609TIP3    H135386   0.494   2.667   7.677
 4609TIP3    H235387   0.544   2.808   7.653
 4610TIP3   OH235388   2.747   1.813   0.443
 4610TIP3    H135389   2.742   1.906   0.420
 4610TIP3    H235390   2.729   1.811   0.537
 4611TIP3   OH235391   3.062   0.670   1.009
 4611TIP3    H135392   3.023   0.663   1.097
 4611TIP3    H235393   3.033   0.591   0.964
 4612TIP3   OH235394   3.830   1.881   7.211
 4612TIP3    H135395   3.841   1.791   7.179
 4612TIP3    H235396   3.741   1.904   7.185
 4613TIP3   OH235397   5.004   5.482   7.573
 4613TIP3    H135398   5.054   5.466   7.493
 4613TIP3    H235399   4.944   5.407   7.579
 4614TIP3   OH235400   4.579   6.325   0.494
 4614TIP3    H135401   4.670   6.300   0.479
 4614TIP3    H235402   4.535   6.306   0.411
 4615TIP3   OH235403   2.212   2.713   7.183
 4615TIP3    H135404   2.216   2.795   7.232
 4615TIP3    H235405   2.244   2.737   7.095
 4616TIP3   OH235406   3.985   0.804   2.082
 4616TIP3    H135407   3.936   0.738   2.131
 4616TIP3    H235408   3.971   0.885   2.130
 4617TIP3   OH235409   5.273   1.670   0.846
 4617TIP3    H135410   5.289   1.636   0.758
 4617TIP3    H235411   5.344   1.632   0.899
 4618TIP3   OH235412   5.701   0.431   1.239
 4618TIP3    H135413   5.658   0.497   1.186
 4618TIP3    H235414   5.710   0.355   1.181
 4619TIP3   OH235415   5.996   1.951   8.268
 4619TIP3    H135416   6.067   1.904   8.225
 4619TIP3    H235417   5.982   1.903   8.350
 4620TIP3   OH235418   0.694   3.694   7.776
 4620TIP3    H135419   0.630   3.629   7.805
 4620TIP3    H235420   0.744   3.649   7.708
 4621TIP3   OH235421   4.136   6.133   7.847
 4621TIP3    H135422   4.215   6.080   7.840
 4621TIP3    H235423   4.131   6.156   7.940
 4622TIP3   OH235424   5.453   3.007   1.319
 4622TIP3    H135425   5.401   3.012   1.239
 4622TIP3    H235426   5.432   3.088   1.365
 4623TIP3   OH235427   1.902   5.122   0.308
 4623TIP3    H135428   1.838   5.101   0.240
 4623TIP3    H235429   1.975   5.062   0.292
 4624TIP3   OH235430   5.380   1.084   7.411
 4624TIP3    H135431   5.448   1.149   7.393
 4624TIP3    H235432   5.330   1.121   7.483
 4625TIP3   OH235433   3.546   0.970   6.135
 4625TIP3    H135434   3.534   0.886   6.180
 4625TIP3    H235435   3.556   1.034   6.206
 4626TIP3   OH235436   0.341   2.346   7.328
 4626TIP3    H135437   0.398   2.311   7.259
 4626TIP3    H235438   0.349   2.284   7.400
 4627TIP3   OH235439   0.236   5.955   1.008
 4627TIP3    H135440   0.207   5.891   1.073
 4627TIP3    H235441   0.197   6.037   1.035
 4628TIP3   OH235442   5.750   4.235   0.285
 4628TIP3    H135443   5.748   4.159   0.228
 4628TIP3    H235444   5.812   4.295   0.244
 4629TIP3   OH235445   3.176   1.913   1.970
 4629TIP3    H135446   3.087   1.943   1.949
 4629TIP3    H235447   3.224   1.993   1.991
 4630TIP3   OH235448   2.868   4.324   8.728
 4630TIP3    H135449   2.808   4.309   0.066
 4630TIP3    H235450   2.825   4.392   8.675
 4631TIP3   OH235451   0.414   0.778   0.448
 4631TIP3    H135452   0.405   0.853   0.507
 4631TIP3    H235453   0.448   0.816   0.367
 4632TIP3   OH235454   5.663   4.100   7.654
 4632TIP3    H135455   5.616   4.183   7.652
 4632TIP3    H235456   5.691   4.090   7.744
 4633TIP3   OH235457   2.181   2.100   1.432
 4633TIP3    H135458   2.155   2.135   1.517
 4633TIP3    H235459   2.274   2.119   1.425
 4634TIP3   OH235460   3.641   3.477   8.347
 4634TIP3    H135461   3.717   3.455   8.400
 4634TIP3    H235462   3.588   3.398   8.347
 4635TIP3   OH235463   3.508   6.770   8.065
 4635TIP3    H135464   3.413   6.758   8.074
 4635TIP3    H235465   3.542   6.681   8.053
 4636TIP3   OH235466   2.577   0.794   0.072
 4636TIP3    H135467   2.661   0.749   0.059
 4636TIP3    H235468   2.513   0.724   0.082
 4637TIP3   OH235469   3.882   5.423   6.860
 4637TIP3    H135470   3.823   5.414   6.785
 4637TIP3    H235471   3.825   5.421   6.937
 4638TIP3   OH235472   3.336   3.383   0.134
 4638TIP3    H135473   3.306   3.340   0.214
 4638TIP3    H235474   3.312   3.323   0.064
 4639TIP3   OH235475   2.096   4.585   1.337
 4639TIP3    H135476   2.106   4.680   1.326
 4639TIP3    H235477   2.027   4.576   1.402
 4640TIP3   OH235478   1.610   4.199   8.194
 4640TIP3    H135479   1.679   4.155   8.143
 4640TIP3    H235480   1.596   4.281   8.148
 4641TIP3   OH235481   0.873   4.508   8.345
 4641TIP3    H135482   0.964   4.519   8.318
 4641TIP3    H235483   0.877   4.481   8.436
 4642TIP3   OH235484   5.520   4.932   0.949
 4642TIP3    H135485   5.429   4.903   0.962
 4642TIP3    H235486   5.572   4.853   0.963
 4643TIP3   OH235487   4.060   5.915   8.144
 4643TIP3    H135488   4.033   6.002   8.173
 4643TIP3    H235489   4.140   5.897   8.194
 4644TIP3   OH235490   3.795   5.573   7.120
 4644TIP3    H135491   3.716   5.626   7.108
 4644TIP3    H235492   3.840   5.613   7.195
 4645TIP3   OH235493   2.402   1.442   0.281
 4645TIP3    H135494   2.355   1.363   0.256
 4645TIP3    H235495   2.359   1.513   0.233
 4646TIP3   OH235496   4.037   1.844   0.110
 4646TIP3    H135497   4.037   1.758   0.069
 4646TIP3    H235498   4.051   1.905   0.037
 4647TIP3   OH235499   5.846   6.773   6.342
 4647TIP3    H135500   5.758   6.782   6.304
 4647TIP3    H235501   5.873   0.022   6.361
 4648TIP3   OH235502   4.134   4.165   8.308
 4648TIP3    H135503   4.228   4.170   8.329
 4648TIP3    H235504   4.102   4.090   8.358
 4649TIP3   OH235505   3.270   3.636   8.294
 4649TIP3    H135506   3.192   3.653   8.241
 4649TIP3    H235507   3.308   3.723   8.307
 4650TIP3   OH235508   4.894   1.848   7.117
 4650TIP3    H135509   4.862   1.861   7.028
 4650TIP3    H235510   4.969   1.907   7.125
 4651TIP3   OH235511   5.395   6.481   7.320
 4651TIP3    H135512   5.448   6.560   7.322
 4651TIP3    H235513   5.371   6.470   7.228
 4652TIP3   OH235514   2.713   2.393   1.659
 4652TIP3    H135515   2.787   2.410   1.717
 4652TIP3    H235516   2.636   2.415   1.711
 4653TIP3   OH235517   3.807   0.650   7.700
 4653TIP3    H135518   3.840   0.634   7.789
 4653TIP3    H235519   3.883   0.635   7.643
 4654TIP3   OH235520   4.041   5.060   7.510
 4654TIP3    H135521   4.039   5.074   7.416
 4654TIP3    H235522   4.038   5.148   7.547
 4655TIP3   OH235523   0.285   0.873   1.475
 4655TIP3    H135524   0.267   0.823   1.555
 4655TIP3    H235525   0.301   0.962   1.506
 4656TIP3   OH235526   3.773   1.980   6.597
 4656TIP3    H135527   3.863   1.989   6.629
 4656TIP3    H235528   3.771   1.895   6.555
 4657TIP3   OH235529   5.953   2.005   7.989
 4657TIP3    H135530   5.989   1.920   7.966
 4657TIP3    H235531   5.926   1.996   8.081
 4658TIP3   OH235532   3.878   2.740   2.412
 4658TIP3    H135533   3.953   2.798   2.402
 4658TIP3    H235534   3.803   2.799   2.424
 4659TIP3   OH235535   2.173   0.052   8.291
 4659TIP3    H135536   2.199   0.039   8.382
 4659TIP3    H235537   2.246   0.099   8.251
 4660TIP3   OH235538   0.024   3.086   7.839
 4660TIP3    H135539   0.049   3.066   7.749
 4660TIP3    H235540   0.062   3.016   7.892
 4661TIP3   OH235541   1.894   0.894   1.343
 4661TIP3    H135542   1.936   0.869   1.261
 4661TIP3    H235543   1.912   0.987   1.353
 4662TIP3   OH235544   6.741   2.266   7.226
 4662TIP3    H135545   6.656   2.268   7.270
 4662TIP3    H235546   6.802   2.302   7.290
 4663TIP3   OH235547   4.646   5.891   7.788
 4663TIP3    H135548   4.723   5.872   7.842
 4663TIP3    H235549   4.636   5.813   7.733
 4664TIP3   OH235550   6.017   3.807   1.488
 4664TIP3    H135551   6.105   3.793   1.522
 4664TIP3    H235552   5.959   3.778   1.558
 4665TIP3   OH235553   0.683   2.685   0.462
 4665TIP3    H135554   0.630   2.715   0.536
 4665TIP3    H235555   0.629   2.701   0.385
 4666TIP3   OH235556   5.433   6.027   2.329
 4666TIP3    H135557   5.414   6.108   2.377
 4666TIP3    H235558   5.360   6.018   2.267
 4667TIP3   OH235559   6.107   0.038   0.400
 4667TIP3    H135560   6.099   6.785   0.421
 4667TIP3    H235561   6.063   0.082   0.473
 4668TIP3   OH235562   1.418   4.212   0.580
 4668TIP3    H135563   1.430   4.117   0.568
 4668TIP3    H235564   1.468   4.233   0.658
 4669TIP3   OH235565   3.403   4.541   6.859
 4669TIP3    H135566   3.481   4.504   6.901
 4669TIP3    H235567   3.370   4.470   6.803
 4670TIP3   OH235568   3.411   1.734   1.527
 4670TIP3    H135569   3.407   1.709   1.619
 4670TIP3    H235570   3.482   1.681   1.490
 4671TIP3   OH235571   3.584   0.665   0.515
 4671TIP3    H135572   3.564   0.576   0.488
 4671TIP3    H235573   3.518   0.685   0.582
 4672TIP3   OH235574   5.184   4.814   0.036
 4672TIP3    H135575   5.152   4.894   8.730
 4672TIP3    H235576   5.275   4.806   0.008
 4673TIP3   OH235577   4.611   2.370   1.622
 4673TIP3    H135578   4.579   2.286   1.655
 4673TIP3    H235579   4.660   2.408   1.695
 4674TIP3   OH235580   1.608   6.440   7.812
 4674TIP3    H135581   1.672   6.510   7.800
 4674TIP3    H235582   1.658   6.359   7.798
 4675TIP3   OH235583   2.951   2.050   7.488
 4675TIP3    H135584   2.952   1.955   7.477
 4675TIP3    H235585   2.871   2.078   7.443
 4676TIP3   OH235586   6.747   1.693   7.023
 4676TIP3    H135587   6.810   1.627   7.053
 4676TIP3    H235588   6.792   1.777   7.035
 4677TIP3   OH235589   2.251   2.717   8.298
 4677TIP3    H135590   2.336   2.679   8.318
 4677TIP3    H235591   2.258   2.745   8.206
 4678TIP3   OH235592   0.508   1.573   1.718
 4678TIP3    H135593   0.501   1.549   1.810
 4678TIP3    H235594   0.428   1.623   1.700
 4679TIP3   OH235595   4.808   1.589   8.528
 4679TIP3    H135596   4.792   1.532   8.453
 4679TIP3    H235597   4.838   1.531   8.597
 4680TIP3   OH235598   4.714   2.026   8.724
 4680TIP3    H135599   4.658   2.100   0.014
 4680TIP3    H235600   4.727   2.036   8.630
 4681TIP3   OH235601   4.327   5.704   7.174
 4681TIP3    H135602   4.400   5.650   7.202
 4681TIP3    H235603   4.350   5.792   7.205
 4682TIP3   OH235604   1.733   4.726   7.383
 4682TIP3    H135605   1.640   4.749   7.374
 4682TIP3    H235606   1.739   4.688   7.471
 4683TIP3   OH235607   5.920   5.320   1.382
 4683TIP3    H135608   5.933   5.335   1.476
 4683TIP3    H235609   5.874   5.398   1.351
 4684TIP3   OH235610   2.178   1.330   8.237
 4684TIP3    H135611   2.180   1.258   8.174
 4684TIP3    H235612   2.090   1.325   8.275
 4685TIP3   OH235613   6.800   5.442   1.556
 4685TIP3    H135614   6.725   5.420   1.612
 4685TIP3    H235615   0.001   5.358   1.539
 4686TIP3   OH235616   2.915   3.516   0.992
 4686TIP3    H135617   2.825   3.544   0.974
 4686TIP3    H235618   2.911   3.472   1.077
 4687TIP3   OH235619   4.909   0.685   2.215
 4687TIP3    H135620   4.985   0.727   2.255
 4687TIP3    H235621   4.933   0.593   2.209
 4688TIP3   OH235622   1.908   4.826   7.201
 4688TIP3    H135623   1.871   4.802   7.286
 4688TIP3    H235624   1.879   4.916   7.187
 4689TIP3   OH235625   6.015   5.748   0.392
 4689TIP3    H135626   6.052   5.675   0.442
 4689TIP3    H235627   5.962   5.706   0.324
 4690TIP3   OH235628   3.237   3.167   7.968
 4690TIP3    H135629   3.157   3.114   7.971
 4690TIP3    H235630   3.208   3.256   7.984
 4691TIP3   OH235631   0.616   0.392   1.606
 4691TIP3    H135632   0.575   0.307   1.625
 4691TIP3    H235633   0.684   0.401   1.673
 4692TIP3   OH235634   2.275   1.012   0.207
 4692TIP3    H135635   2.245   1.103   0.209
 4692TIP3    H235636   2.216   0.968   0.145
 4693TIP3   OH235637   3.769   0.638   0.973
 4693TIP3    H135638   3.769   0.568   0.908
 4693TIP3    H235639   3.685   0.630   1.017
 4694TIP3   OH235640   4.369   0.925   1.044
 4694TIP3    H135641   4.447   0.980   1.034
 4694TIP3    H235642   4.326   0.928   0.958
 4695TIP3   OH235643   4.239   1.361   0.459
 4695TIP3    H135644   4.223   1.454   0.442
 4695TIP3    H235645   4.298   1.360   0.534
 4696TIP3   OH235646   6.626   0.095   0.403
 4696TIP3    H135647   6.572   0.174   0.401
 4696TIP3    H235648   6.581   0.037   0.464
 4697TIP3   OH235649   4.215   2.893   0.214
 4697TIP3    H135650   4.164   2.934   0.284
 4697TIP3    H235651   4.289   2.952   0.201
 4698TIP3   OH235652   3.565   4.839   7.251
 4698TIP3    H135653   3.616   4.919   7.263
 4698TIP3    H235654   3.504   4.859   7.180
 4699TIP3   OH235655   0.726   6.687   7.944
 4699TIP3    H135656   0.692   6.683   8.033
 4699TIP3    H235657   0.731   6.781   7.925
 4700TIP3   OH235658   6.165   1.060   0.543
 4700TIP3    H135659   6.166   0.982   0.597
 4700TIP3    H235660   6.232   1.117   0.581
 4701TIP3   OH235661   2.741   5.151   1.596
 4701TIP3    H135662   2.708   5.062   1.585
 4701TIP3    H235663   2.834   5.145   1.574
 4702TIP3   OH235664   4.477   0.929   6.922
 4702TIP3    H135665   4.480   1.022   6.899
 4702TIP3    H235666   4.505   0.884   6.842
 4703TIP3   OH235667   0.507   2.257   7.138
 4703TIP3    H135668   0.508   2.187   7.073
 4703TIP3    H235669   0.530   2.336   7.089
 4704TIP3   OH235670   2.509   4.615   8.466
 4704TIP3    H135671   2.544   4.667   8.394
 4704TIP3    H235672   2.431   4.573   8.430
 4705TIP3   OH235673   0.959   4.979   0.881
 4705TIP3    H135674   0.961   5.069   0.850
 4705TIP3    H235675   0.947   4.926   0.802
 4706TIP3   OH235676   5.886   6.688   2.226
 4706TIP3    H135677   5.913   6.596   2.230
 4706TIP3    H235678   5.957   6.735   2.269
 4707TIP3   OH235679   1.372   1.962   1.171
 4707TIP3    H135680   1.449   1.946   1.116
 4707TIP3    H235681   1.394   1.923   1.255
 4708TIP3   OH235682   2.469   5.705   8.136
 4708TIP3    H135683   2.559   5.737   8.144
 4708TIP3    H235684   2.442   5.686   8.226
 4709TIP3   OH235685   1.438   1.070   7.304
 4709TIP3    H135686   1.485   1.065   7.387
 4709TIP3    H235687   1.407   1.161   7.300
 4710TIP3   OH235688   1.858   2.457   1.146
 4710TIP3    H135689   1.904   2.444   1.063
 4710TIP3    H235690   1.843   2.552   1.150
 4711TIP3   OH235691   6.713   2.594   8.394
 4711TIP3    H135692   6.765   2.517   8.370
 4711TIP3    H235693   6.766   2.638   8.460
 4712TIP3   OH235694   1.332   6.179   6.219
 4712TIP3    H135695   1.395   6.199   6.150
 4712TIP3    H235696   1.300   6.091   6.198
 4713TIP3   OH235697   1.307   6.782   8.712
 4713TIP3    H135698   1.374   6.751   0.038
 4713TIP3    H235699   1.297   6.711   8.649
 4714TIP3   OH235700   4.407   5.683   0.774
 4714TIP3    H135701   4.316   5.712   0.761
 4714TIP3    H235702   4.430   5.640   0.692
 4715TIP3   OH235703   2.159   5.971   2.024
 4715TIP3    H135704   2.217   5.940   1.954
 4715TIP3    H235705   2.198   5.936   2.105
 4716TIP3   OH235706   3.609   1.778   1.139
 4716TIP3    H135707   3.691   1.826   1.131
 4716TIP3    H235708   3.541   1.845   1.140
 4717TIP3   OH235709   5.727   5.472   6.255
 4717TIP3    H135710   5.655   5.484   6.317
 4717TIP3    H235711   5.799   5.436   6.307
 4718TIP3   OH235712   4.482   4.486   1.304
 4718TIP3    H135713   4.561   4.434   1.291
 4718TIP3    H235714   4.410   4.427   1.281
 4719TIP3   OH235715   0.915   6.510   0.918
 4719TIP3    H135716   0.898   6.445   0.986
 4719TIP3    H235717   0.973   6.465   0.856
 4720TIP3   OH235718   0.798   0.050   0.116
 4720TIP3    H135719   0.888   0.031   0.090
 4720TIP3    H235720   0.798   0.047   0.211
 4721TIP3   OH235721   0.954   5.699   6.784
 4721TIP3    H135722   0.905   5.630   6.829
 4721TIP3    H235723   1.008   5.654   6.720
 4722TIP3   OH235724   3.586   1.881   8.582
 4722TIP3    H135725   3.529   1.919   8.649
 4722TIP3    H235726   3.674   1.913   8.604
 4723TIP3   OH235727   5.757   2.211   8.131
 4723TIP3    H135728   5.808   2.215   8.050
 4723TIP3    H235729   5.746   2.302   8.158
 4724TIP3   OH235730   0.006   2.749   7.786
 4724TIP3    H135731   6.818   2.658   7.781
 4724TIP3    H235732   6.775   2.796   7.828
 4725TIP3   OH235733   6.733   0.595   0.020
 4725TIP3    H135734   6.770   0.684   0.028
 4725TIP3    H235735   6.810   0.539   0.009
 4726TIP3   OH235736   2.483   1.666   0.667
 4726TIP3    H135737   2.523   1.618   0.595
 4726TIP3    H235738   2.553   1.672   0.733
 4727TIP3   OH235739   1.741   2.583   6.725
 4727TIP3    H135740   1.673   2.525   6.691
 4727TIP3    H235741   1.693   2.658   6.761
 4728TIP3   OH235742   3.550   3.167   7.568
 4728TIP3    H135743   3.510   3.179   7.654
 4728TIP3    H235744   3.639   3.138   7.586
 4729TIP3   OH235745   3.503   4.970   1.691
 4729TIP3    H135746   3.432   5.034   1.692
 4729TIP3    H235747   3.552   4.990   1.611
 4730TIP3   OH235748   1.382   2.955   0.570
 4730TIP3    H135749   1.428   2.954   0.487
 4730TIP3    H235750   1.289   2.961   0.546
 4731TIP3   OH235751   1.103   3.890   0.014
 4731TIP3    H135752   1.103   3.862   0.106
 4731TIP3    H235753   1.192   3.875   8.718
 4732TIP3   OH235754   1.949   3.684   0.416
 4732TIP3    H135755   2.012   3.727   0.358
 4732TIP3    H235756   1.909   3.616   0.363
 4733TIP3   OH235757   5.405   1.905   8.599
 4733TIP3    H135758   5.464   1.833   8.622
 4733TIP3    H235759   5.372   1.936   8.683
 4734TIP3   OH235760   4.923   2.174   8.125
 4734TIP3    H135761   4.956   2.092   8.161
 4734TIP3    H235762   4.971   2.187   8.044
 4735TIP3   OH235763   0.676   5.902   7.399
 4735TIP3    H135764   0.759   5.856   7.410
 4735TIP3    H235765   0.618   5.839   7.356
 4736TIP3   OH235766   5.241   3.205   8.699
 4736TIP3    H135767   5.316   3.214   0.023
 4736TIP3    H235768   5.264   3.131   8.643
 4737TIP3   OH235769   3.830   3.063   2.564
 4737TIP3    H135770   3.839   3.138   2.505
 4737TIP3    H235771   3.746   3.025   2.540
 4738TIP3   OH235772   3.564   3.715   6.829
 4738TIP3    H135773   3.608   3.740   6.748
 4738TIP3    H235774   3.471   3.733   6.813
 4739TIP3   OH235775   4.940   2.301   1.791
 4739TIP3    H135776   4.970   2.273   1.877
 4739TIP3    H235777   4.856   2.344   1.807
 4740TIP3   OH235778   0.481   4.476   1.491
 4740TIP3    H135779   0.489   4.484   1.396
 4740TIP3    H235780   0.539   4.542   1.526
 4741TIP3   OH235781   4.218   2.937   8.503
 4741TIP3    H135782   4.167   2.869   8.458
 4741TIP3    H235783   4.156   3.009   8.516
 4742TIP3   OH235784   3.103   1.495   1.160
 4742TIP3    H135785   3.015   1.533   1.156
 4742TIP3    H235786   3.139   1.526   1.243
 4743TIP3   OH235787   1.594   0.068   1.248
 4743TIP3    H135788   1.541   0.144   1.224
 4743TIP3    H235789   1.681   0.104   1.265
 4744TIP3   OH235790   0.164   0.696   8.555
 4744TIP3    H135791   0.102   0.766   8.576
 4744TIP3    H235792   0.249   0.740   8.550
 4745TIP3   OH235793   5.171   0.249   1.684
 4745TIP3    H135794   5.081   0.260   1.652
 4745TIP3    H235795   5.166   0.173   1.743
 4746TIP3   OH235796   0.452   4.482   7.980
 4746TIP3    H135797   0.487   4.406   8.026
 4746TIP3    H235798   0.369   4.452   7.944
 4747TIP3   OH235799   1.462   6.252   7.034
 4747TIP3    H135800   1.515   6.322   7.074
 4747TIP3    H235801   1.526   6.196   6.990
 4748TIP3   OH235802   1.516   3.153   8.033
 4748TIP3    H135803   1.430   3.126   8.064
 4748TIP3    H235804   1.545   3.081   7.978
 4749TIP3   OH235805   0.111   1.053   1.072
 4749TIP3    H135806   0.191   1.027   1.027
 4749TIP3    H235807   0.105   0.994   1.146
 4750TIP3   OH235808   1.519   6.325   2.552
 4750TIP3    H135809   1.451   6.388   2.577
 4750TIP3    H235810   1.471   6.254   2.509
 4751TIP3   OH235811   3.146   0.001   7.171
 4751TIP3    H135812   3.116   6.763   7.126
 4751TIP3    H235813   3.138   0.071   7.106
 4752TIP3   OH235814   5.501   1.959   7.852
 4752TIP3    H135815   5.582   1.994   7.889
 4752TIP3    H235816   5.477   2.022   7.784
 4753TIP3   OH235817   2.970   2.616   0.530
 4753TIP3    H135818   3.025   2.574   0.596
 4753TIP3    H235819   2.880   2.599   0.558
 4754TIP3   OH235820   5.086   4.425   7.771
 4754TIP3    H135821   5.010   4.369   7.788
 4754TIP3    H235822   5.146   4.407   7.844
 4755TIP3   OH235823   4.550   0.011   0.046
 4755TIP3    H135824   4.465   6.828   0.009
 4755TIP3    H235825   4.604   6.773   0.036
 4756TIP3   OH235826   6.134   0.798   6.973
 4756TIP3    H135827   6.107   0.789   6.882
 4756TIP3    H235828   6.112   0.889   6.996
 4757TIP3   OH235829   6.475   5.141   7.968
 4757TIP3    H135830   6.389   5.176   7.945
 4757TIP3    H235831   6.532   5.167   7.896
 4758TIP3   OH235832   3.444   3.489   1.904
 4758TIP3    H135833   3.509   3.431   1.942
 4758TIP3    H235834   3.361   3.462   1.943
 4759TIP3   OH235835   0.546   3.046   1.043
 4759TIP3    H135836   0.575   3.126   1.000
 4759TIP3    H235837   0.530   3.072   1.134
 4760TIP3   OH235838   0.406   5.857   8.240
 4760TIP3    H135839   0.440   5.825   8.323
 4760TIP3    H235840   0.465   5.928   8.215
 4761TIP3   OH235841   0.918   1.027   7.889
 4761TIP3    H135842   0.895   1.032   7.982
 4761TIP3    H235843   0.958   0.941   7.879
 4762TIP3   OH235844   4.709   1.374   8.366
 4762TIP3    H135845   4.696   1.280   8.379
 4762TIP3    H235846   4.708   1.385   8.271
 4763TIP3   OH235847   3.449   4.774   0.727
 4763TIP3    H135848   3.496   4.705   0.681
 4763TIP3    H235849   3.382   4.804   0.665
 4764TIP3   OH235850   5.817   2.073   1.292
 4764TIP3    H135851   5.750   2.101   1.229
 4764TIP3    H235852   5.867   2.006   1.245
 4765TIP3   OH235853   6.762   0.073   1.218
 4765TIP3    H135854   6.687   0.017   1.235
 4765TIP3    H235855   6.837   0.025   1.254
 4766TIP3   OH235856   2.276   1.025   0.874
 4766TIP3    H135857   2.215   0.957   0.902
 4766TIP3    H235858   2.311   0.994   0.791
 4767TIP3   OH235859   2.972   1.602   0.900
 4767TIP3    H135860   2.922   1.667   0.950
 4767TIP3    H235861   3.059   1.640   0.891
 4768TIP3   OH235862   4.591   3.641   6.160
 4768TIP3    H135863   4.614   3.726   6.124
 4768TIP3    H235864   4.496   3.643   6.169
 4769TIP3   OH235865   2.432   5.500   7.750
 4769TIP3    H135866   2.337   5.494   7.739
 4769TIP3    H235867   2.444   5.512   7.845
 4770TIP3   OH235868   6.076   0.745   1.393
 4770TIP3    H135869   6.166   0.777   1.403
 4770TIP3    H235870   6.041   0.746   1.482
 4771TIP3   OH235871   3.839   6.141   1.178
 4771TIP3    H135872   3.816   6.060   1.224
 4771TIP3    H235873   3.873   6.111   1.094
 4772TIP3   OH235874   1.415   1.542   1.138
 4772TIP3    H135875   1.333   1.514   1.096
 4772TIP3    H235876   1.426   1.481   1.211
 4773TIP3   OH235877   0.549   4.555   6.683
 4773TIP3    H135878   0.552   4.469   6.725
 4773TIP3    H235879   0.605   4.611   6.737
 4774TIP3   OH235880   5.559   6.437   0.519
 4774TIP3    H135881   5.514   6.499   0.462
 4774TIP3    H235882   5.542   6.468   0.608
 4775TIP3   OH235883   0.468   1.555   2.029
 4775TIP3    H135884   0.414   1.485   2.065
 4775TIP3    H235885   0.537   1.568   2.094
 4776TIP3   OH235886   4.750   4.453   7.725
 4776TIP3    H135887   4.805   4.531   7.712
 4776TIP3    H235888   4.769   4.398   7.649
 4777TIP3   OH235889   0.223   0.157   1.308
 4777TIP3    H135890   0.312   0.183   1.330
 4777TIP3    H235891   0.215   0.175   1.214
 4778TIP3   OH235892   4.816   6.800   0.457
 4778TIP3    H135893   4.876   6.801   0.382
 4778TIP3    H235894   4.733   6.831   0.421
 4779TIP3   OH235895   5.366   0.268   0.296
 4779TIP3    H135896   5.350   0.355   0.333
 4779TIP3    H235897   5.328   0.272   0.209
 4780TIP3   OH235898   5.119   1.978   1.096
 4780TIP3    H135899   5.142   1.975   1.189
 4780TIP3    H235900   5.200   2.002   1.052
 4781TIP3   OH235901   1.800   6.555   1.245
 4781TIP3    H135902   1.849   6.633   1.270
 4781TIP3    H235903   1.836   6.486   1.302
 4782TIP3   OH235904   2.582   1.128   8.231
 4782TIP3    H135905   2.633   1.056   8.269
 4782TIP3    H235906   2.527   1.159   8.303
 4783TIP3   OH235907   3.392   4.774   2.169
 4783TIP3    H135908   3.469   4.718   2.158
 4783TIP3    H235909   3.333   4.722   2.225
 4784TIP3   OH235910   4.903   3.478   1.792
 4784TIP3    H135911   4.880   3.404   1.736
 4784TIP3    H235912   4.872   3.555   1.745
 4785TIP3   OH235913   6.162   4.690   8.638
 4785TIP3    H135914   6.201   4.704   8.552
 4785TIP3    H235915   6.068   4.694   8.623
 4786TIP3   OH235916   3.000   3.577   6.884
 4786TIP3    H135917   2.998   3.631   6.806
 4786TIP3    H235918   2.962   3.632   6.953
 4787TIP3   OH235919   6.745   6.036   7.391
 4787TIP3    H135920   6.702   5.975   7.331
 4787TIP3    H235921   6.811   6.080   7.337
 4788TIP3   OH235922   5.552   3.913   1.742
 4788TIP3    H135923   5.486   3.921   1.811
 4788TIP3    H235924   5.501   3.891   1.664
 4789TIP3   OH235925   1.439   5.649   0.369
 4789TIP3    H135926   1.362   5.672   0.317
 4789TIP3    H235927   1.506   5.627   0.305
 4790TIP3   OH235928   0.400   3.398   7.542
 4790TIP3    H135929   0.388   3.313   7.499
 4790TIP3    H235930   0.311   3.428   7.560
 4791TIP3   OH235931   5.063   5.427   6.256
 4791TIP3    H135932   5.154   5.454   6.270
 4791TIP3    H235933   5.015   5.465   6.330
 4792TIP3   OH235934   1.309   2.705   1.038
 4792TIP3    H135935   1.246   2.633   1.030
 4792TIP3    H235936   1.262   2.781   1.004
 4793TIP3   OH235937   2.079   4.263   0.310
 4793TIP3    H135938   2.046   4.191   0.257
 4793TIP3    H235939   2.060   4.238   0.400
 4794TIP3   OH235940   4.354   5.793   1.556
 4794TIP3    H135941   4.365   5.699   1.563
 4794TIP3    H235942   4.386   5.828   1.639
 4795TIP3   OH235943   6.464   0.674   8.595
 4795TIP3    H135944   6.550   0.635   8.580
 4795TIP3    H235945   6.479   0.768   8.592
 4796TIP3   OH235946   3.352   1.312   7.958
 4796TIP3    H135947   3.421   1.370   7.989
 4796TIP3    H235948   3.398   1.242   7.913
 4797TIP3   OH235949   1.917   5.586   7.153
 4797TIP3    H135950   2.007   5.586   7.118
 4797TIP3    H235951   1.894   5.679   7.159
 4798TIP3   OH235952   6.163   6.270   8.039
 4798TIP3    H135953   6.219   6.242   8.111
 4798TIP3    H235954   6.154   6.365   8.051
 4799TIP3   OH235955   3.924   3.931   1.106
 4799TIP3    H135956   3.979   3.942   1.184
 4799TIP3    H235957   3.953   3.848   1.068
 4800TIP3   OH235958   1.898   2.047   1.391
 4800TIP3    H135959   1.931   2.037   1.480
 4800TIP3    H235960   1.863   1.961   1.368
 4801TIP3   OH235961   5.569   3.679   0.040
 4801TIP3    H135962   5.572   3.697   8.680
 4801TIP3    H235963   5.571   3.584   0.046
 4802TIP3   OH235964   1.256   5.691   6.354
 4802TIP3    H135965   1.348   5.717   6.349
 4802TIP3    H235966   1.258   5.596   6.338
 4803TIP3   OH235967   4.500   6.669   8.032
 4803TIP3    H135968   4.432   6.647   7.968
 4803TIP3    H235969   4.461   6.740   8.084
 4804TIP3   OH235970   0.858   0.998   6.708
 4804TIP3    H135971   0.889   0.982   6.619
 4804TIP3    H235972   0.770   1.033   6.697
 4805TIP3   OH235973   4.266   5.467   7.380
 4805TIP3    H135974   4.343   5.479   7.326
 4805TIP3    H235975   4.193   5.493   7.324
 4806TIP3   OH235976   5.744   3.857   8.632
 4806TIP3    H135977   5.667   3.902   8.595
 4806TIP3    H235978   5.813   3.871   8.567
 4807TIP3   OH235979   6.817   5.232   1.058
 4807TIP3    H135980   6.748   5.172   1.086
 4807TIP3    H235981   6.792   5.316   1.096
 4808TIP3   OH235982   5.683   6.700   0.889
 4808TIP3    H135983   5.651   6.709   0.800
 4808TIP3    H235984   5.765   6.748   0.891
 4809TIP3   OH235985   5.290   0.902   0.011
 4809TIP3    H135986   5.385   0.909   0.011
 4809TIP3    H235987   5.259   0.993   0.008
 4810TIP3   OH235988   5.799   3.730   1.647
 4810TIP3    H135989   5.729   3.772   1.698
 4810TIP3    H235990   5.770   3.639   1.637
 4811TIP3   OH235991   5.035   5.010   8.359
 4811TIP3    H135992   5.100   5.062   8.407
 4811TIP3    H235993   5.041   4.923   8.397
 4812TIP3   OH235994   1.431   4.097   0.125
 4812TIP3    H135995   1.383   4.176   0.102
 4812TIP3    H235996   1.488   4.081   0.049
 4813TIP3   OH235997   3.918   2.401   1.103
 4813TIP3    H135998   4.012   2.382   1.103
 4813TIP3    H235999   3.898   2.422   1.012
 4814TIP3   OH236000   0.253   1.249   0.058
 4814TIP3    H136001   0.175   1.265   0.110
 4814TIP3    H236002   0.323   1.234   0.122
 4815TIP3   OH236003   2.574   3.973   1.601
 4815TIP3    H136004   2.613   3.887   1.617
 4815TIP3    H236005   2.646   4.035   1.610
 4816TIP3   OH236006   6.083   1.198   0.766
 4816TIP3    H136007   6.029   1.251   0.825
 4816TIP3    H236008   6.081   1.110   0.803
 4817TIP3   OH236009   3.597   4.062   0.385
 4817TIP3    H136010   3.586   4.156   0.395
 4817TIP3    H236011   3.533   4.036   0.320
 4818TIP3   OH236012   1.053   6.513   1.771
 4818TIP3    H136013   0.990   6.578   1.802
 4818TIP3    H236014   1.070   6.457   1.847
 4819TIP3   OH236015   2.284   6.284   0.842
 4819TIP3    H136016   2.375   6.310   0.855
 4819TIP3    H236017   2.285   6.232   0.761
 4820TIP3   OH236018   0.438   4.317   0.660
 4820TIP3    H136019   0.463   4.405   0.688
 4820TIP3    H236020   0.352   4.329   0.619
 4821TIP3   OH236021   1.843   2.438   8.089
 4821TIP3    H136022   1.821   2.352   8.124
 4821TIP3    H236023   1.892   2.481   8.160
 4822TIP3   OH236024   2.887   4.577   1.852
 4822TIP3    H136025   2.933   4.543   1.775
 4822TIP3    H236026   2.794   4.563   1.831
 4823TIP3   OH236027   2.633   5.949   7.477
 4823TIP3    H136028   2.611   6.038   7.506
 4823TIP3    H236029   2.728   5.943   7.486
 4824TIP3   OH236030   2.503   6.625   1.552
 4824TIP3    H136031   2.503   6.707   1.601
 4824TIP3    H236032   2.494   6.653   1.461
 4825TIP3   OH236033   2.449   4.517   0.631
 4825TIP3    H136034   2.544   4.525   0.619
 4825TIP3    H236035   2.416   4.606   0.619
 4826TIP3   OH236036   1.209   2.819   8.037
 4826TIP3    H136037   1.179   2.906   8.062
 4826TIP3    H236038   1.255   2.786   8.114
 4827TIP3   OH236039   3.055   6.104   6.730
 4827TIP3    H136040   2.993   6.166   6.767
 4827TIP3    H236041   3.019   6.018   6.750
 4828TIP3   OH236042   6.576   3.406   6.689
 4828TIP3    H136043   6.506   3.454   6.734
 4828TIP3    H236044   6.538   3.320   6.671
 4829TIP3   OH236045   5.907   6.786   8.449
 4829TIP3    H136046   5.962   6.782   8.526
 4829TIP3    H236047   5.819   6.804   8.483
 4830TIP3   OH236048   2.047   1.424   7.394
 4830TIP3    H136049   2.016   1.493   7.454
 4830TIP3    H236050   2.103   1.470   7.332
 4831TIP3   OH236051   5.066   6.149   8.094
 4831TIP3    H136052   5.086   6.055   8.091
 4831TIP3    H236053   5.063   6.169   8.188
 4832TIP3   OH236054   1.309   0.847   7.224
 4832TIP3    H136055   1.334   0.934   7.254
 4832TIP3    H236056   1.358   0.787   7.280
 4833TIP3   OH236057   0.668   4.223   0.839
 4833TIP3    H136058   0.759   4.249   0.832
 4833TIP3    H236059   0.624   4.267   0.766
 4834TIP3   OH236060   6.662   4.606   0.724
 4834TIP3    H136061   6.586   4.646   0.767
 4834TIP3    H236062   6.728   4.676   0.723
 4835TIP3   OH236063   4.995   2.471   2.370
 4835TIP3    H136064   4.925   2.530   2.400
 4835TIP3    H236065   5.034   2.437   2.451
 4836TIP3   OH236066   2.101   5.323   0.025
 4836TIP3    H136067   2.065   5.235   0.013
 4836TIP3    H236068   2.141   5.344   8.675
 4837TIP3   OH236069   5.839   2.309   0.085
 4837TIP3    H136070   5.912   2.286   0.142
 4837TIP3    H236071   5.798   2.384   0.128
 4838TIP3   OH236072   3.854   6.509   1.357
 4838TIP3    H136073   3.844   6.597   1.395
 4838TIP3    H236074   3.872   6.524   1.265
 4839TIP3   OH236075   0.294   5.247   7.873
 4839TIP3    H136076   0.225   5.309   7.851
 4839TIP3    H236077   0.338   5.230   7.789
 4840TIP3   OH236078   5.163   3.620   0.437
 4840TIP3    H136079   5.191   3.683   0.503
 4840TIP3    H236080   5.223   3.634   0.364
 4841TIP3   OH236081   6.591   4.611   7.441
 4841TIP3    H136082   6.532   4.618   7.367
 4841TIP3    H236083   6.626   4.522   7.437
 4842TIP3   OH236084   6.666   0.905   7.918
 4842TIP3    H136085   6.587   0.852   7.922
 4842TIP3    H236086   6.728   0.853   7.867
 4843TIP3   OH236087   1.300   5.897   8.186
 4843TIP3    H136088   1.277   5.868   8.274
 4843TIP3    H236089   1.254   5.981   8.176
 4844TIP3   OH236090   4.791   1.804   7.452
 4844TIP3    H136091   4.739   1.725   7.436
 4844TIP3    H236092   4.882   1.777   7.442
 4845TIP3   OH236093   2.710   6.359   7.377
 4845TIP3    H136094   2.638   6.366   7.314
 4845TIP3    H236095   2.669   6.327   7.457
 4846TIP3   OH236096   6.144   1.354   1.486
 4846TIP3    H136097   6.067   1.346   1.430
 4846TIP3    H236098   6.116   1.410   1.559
 4847TIP3   OH236099   0.682   2.679   8.539
 4847TIP3    H136100   0.650   2.655   8.626
 4847TIP3    H236101   0.650   2.768   8.525
 4848TIP3   OH236102   0.854   4.664   8.709
 4848TIP3    H136103   0.932   4.661   0.030
 4848TIP3    H236104   0.789   4.612   0.023
 4849TIP3   OH236105   4.021   4.239   1.144
 4849TIP3    H136106   4.057   4.284   1.067
 4849TIP3    H236107   3.983   4.158   1.108
 4850TIP3   OH236108   4.290   6.595   7.868
 4850TIP3    H136109   4.194   6.589   7.865
 4850TIP3    H236110   4.313   6.644   7.789
 4851TIP3   OH236111   5.388   1.125   2.123
 4851TIP3    H136112   5.411   1.182   2.197
 4851TIP3    H236113   5.336   1.055   2.163
 4852TIP3   OH236114   0.031   1.988   0.347
 4852TIP3    H136115   0.005   1.929   0.418
 4852TIP3    H236116   0.029   1.934   0.269
 4853TIP3   OH236117   4.862   2.353   7.386
 4853TIP3    H136118   4.841   2.268   7.425
 4853TIP3    H236119   4.792   2.411   7.416
 4854TIP3   OH236120   2.397   3.118   7.471
 4854TIP3    H136121   2.490   3.138   7.478
 4854TIP3    H236122   2.353   3.203   7.482
 4855TIP3   OH236123   4.043   1.180   8.507
 4855TIP3    H136124   4.071   1.208   8.419
 4855TIP3    H236125   4.058   1.258   8.562
 4856TIP3   OH236126   3.503   1.266   6.555
 4856TIP3    H136127   3.568   1.307   6.612
 4856TIP3    H236128   3.554   1.210   6.496
 4857TIP3   OH236129   6.109   6.519   1.543
 4857TIP3    H136130   6.116   6.521   1.638
 4857TIP3    H236131   6.017   6.542   1.525
 4858TIP3   OH236132   2.231   2.028   0.586
 4858TIP3    H136133   2.265   1.943   0.556
 4858TIP3    H236134   2.227   2.081   0.507
 4859TIP3   OH236135   5.767   5.538   1.338
 4859TIP3    H136136   5.821   5.615   1.319
 4859TIP3    H236137   5.681   5.573   1.360
 4860TIP3   OH236138   0.743   2.286   8.541
 4860TIP3    H136139   0.664   2.250   8.580
 4860TIP3    H236140   0.775   2.349   8.605
 4861TIP3   OH236141   2.638   4.396   1.097
 4861TIP3    H136142   2.614   4.448   1.020
 4861TIP3    H236143   2.582   4.319   1.092
 4862TIP3   OH236144   3.061   2.858   7.656
 4862TIP3    H136145   3.022   2.828   7.573
 4862TIP3    H236146   3.038   2.790   7.719
 4863TIP3   OH236147   5.837   1.564   7.641
 4863TIP3    H136148   5.839   1.658   7.659
 4863TIP3    H236149   5.786   1.555   7.561
 4864TIP3   OH236150   6.833   6.339   8.046
 4864TIP3    H136151   0.003   6.378   7.959
 4864TIP3    H236152   6.739   6.321   8.052
 4865TIP3   OH236153   1.590   3.687   7.662
 4865TIP3    H136154   1.587   3.752   7.592
 4865TIP3    H236155   1.598   3.603   7.617
 4866TIP3   OH236156   1.188   0.873   1.131
 4866TIP3    H136157   1.199   0.968   1.134
 4866TIP3    H236158   1.159   0.849   1.219
 4867TIP3   OH236159   0.950   4.678   1.692
 4867TIP3    H136160   1.027   4.638   1.651
 4867TIP3    H236161   0.981   4.763   1.725
 4868TIP3   OH236162   2.348   2.144   7.407
 4868TIP3    H136163   2.347   2.160   7.312
 4868TIP3    H236164   2.290   2.069   7.419
 4869TIP3   OH236165   1.387   0.649   8.516
 4869TIP3    H136166   1.358   0.599   8.592
 4869TIP3    H236167   1.399   0.583   8.448
 4870TIP3   OH236168   4.505   0.180   1.148
 4870TIP3    H136169   4.488   0.242   1.077
 4870TIP3    H236170   4.432   0.193   1.209
 4871TIP3   OH236171   2.130   2.460   2.181
 4871TIP3    H136172   2.104   2.485   2.092
 4871TIP3    H236173   2.052   2.475   2.234
 4872TIP3   OH236174   5.418   1.541   6.419
 4872TIP3    H136175   5.502   1.536   6.464
 4872TIP3    H236176   5.416   1.630   6.382
 4873TIP3   OH236177   4.269   4.318   1.512
 4873TIP3    H136178   4.325   4.383   1.554
 4873TIP3    H236179   4.302   4.312   1.422
 4874TIP3   OH236180   6.162   3.772   8.376
 4874TIP3    H136181   6.122   3.687   8.359
 4874TIP3    H236182   6.256   3.756   8.371
 4875TIP3   OH236183   1.022   1.682   2.274
 4875TIP3    H136184   0.944   1.736   2.283
 4875TIP3    H236185   0.990   1.599   2.238
 4876TIP3   OH236186   6.017   3.070   6.876
 4876TIP3    H136187   6.054   3.084   6.789
 4876TIP3    H236188   6.063   3.133   6.932
 4877TIP3   OH236189   1.829   0.888   2.106
 4877TIP3    H136190   1.817   0.875   2.200
 4877TIP3    H236191   1.764   0.831   2.064
 4878TIP3   OH236192   3.606   0.033   7.842
 4878TIP3    H136193   3.566   0.016   7.927
 4878TIP3    H236194   3.534   0.067   7.788
 4879TIP3   OH236195   2.759   6.589   2.359
 4879TIP3    H136196   2.743   6.549   2.445
 4879TIP3    H236197   2.683   6.645   2.344
 4880TIP3   OH236198   3.618   3.155   6.983
 4880TIP3    H136199   3.578   3.231   6.941
 4880TIP3    H236200   3.619   3.176   7.076
 4881TIP3   OH236201   3.791   4.319   0.641
 4881TIP3    H136202   3.703   4.355   0.636
 4881TIP3    H236203   3.778   4.226   0.661
 4882TIP3   OH236204   5.149   0.650   0.673
 4882TIP3    H136205   5.147   0.575   0.613
 4882TIP3    H236206   5.186   0.615   0.754
 4883TIP3   OH236207   6.213   3.821   0.675
 4883TIP3    H136208   6.119   3.803   0.678
 4883TIP3    H236209   6.254   3.742   0.711
 4884TIP3   OH236210   4.905   6.278   1.913
 4884TIP3    H136211   4.860   6.195   1.929
 4884TIP3    H236212   4.929   6.275   1.820
 4885TIP3   OH236213   1.990   6.531   0.544
 4885TIP3    H136214   1.959   6.591   0.477
 4885TIP3    H236215   1.926   6.540   0.615
 4886TIP3   OH236216   2.136   1.108   8.029
 4886TIP3    H136217   2.196   1.154   7.970
 4886TIP3    H236218   2.051   1.110   7.984
 4887TIP3   OH236219   1.659   6.350   8.401
 4887TIP3    H136220   1.697   6.267   8.371
 4887TIP3    H236221   1.723   6.417   8.376
 4888TIP3   OH236222   5.658   1.991   1.047
 4888TIP3    H136223   5.576   1.943   1.053
 4888TIP3    H236224   5.725   1.923   1.034
 4889TIP3   OH236225   2.694   3.042   0.842
 4889TIP3    H136226   2.634   3.054   0.768
 4889TIP3    H236227   2.780   3.059   0.805
 4890TIP3   OH236228   1.024   2.324   7.656
 4890TIP3    H136229   0.932   2.297   7.652
 4890TIP3    H236230   1.048   2.342   7.565
 4891TIP3   OH236231   5.234   6.778   6.978
 4891TIP3    H136232   5.194   0.013   6.935
 4891TIP3    H236233   5.276   6.730   6.907
 4892TIP3   OH236234   5.949   2.596   7.128
 4892TIP3    H136235   5.915   2.612   7.040
 4892TIP3    H236236   5.871   2.589   7.184
 4893TIP3   OH236237   1.239   5.869   6.570
 4893TIP3    H136238   1.315   5.921   6.545
 4893TIP3    H236239   1.218   5.818   6.492
 4894TIP3   OH236240   1.362   6.525   7.973
 4894TIP3    H136241   1.294   6.584   7.942
 4894TIP3    H236242   1.414   6.505   7.895
 4895TIP3   OH236243   1.725   1.353   8.056
 4895TIP3    H136244   1.743   1.441   8.025
 4895TIP3    H236245   1.712   1.302   7.976
 4896TIP3   OH236246   6.615   5.501   2.383
 4896TIP3    H136247   6.552   5.561   2.423
 4896TIP3    H236248   6.603   5.418   2.429
 4897TIP3   OH236249   1.663   3.676   0.774
 4897TIP3    H136250   1.578   3.690   0.734
 4897TIP3    H236251   1.644   3.626   0.854
 4898TIP3   OH236252   2.346   3.108   7.980
 4898TIP3    H136253   2.319   3.194   8.014
 4898TIP3    H236254   2.394   3.128   7.900
 4899TIP3   OH236255   1.904   5.735   0.291
 4899TIP3    H136256   1.866   5.680   0.360
 4899TIP3    H236257   1.862   5.705   0.211
 4900TIP3   OH236258   3.077   4.042   1.585
 4900TIP3    H136259   3.154   4.042   1.642
 4900TIP3    H236260   3.093   3.971   1.524
 4901TIP3   OH236261   4.259   2.188   8.489
 4901TIP3    H136262   4.306   2.131   8.428
 4901TIP3    H236263   4.273   2.276   8.454
 4902TIP3   OH236264   1.894   3.679   0.002
 4902TIP3    H136265   1.840   3.640   0.072
 4902TIP3    H236266   1.962   3.727   0.049
 4903TIP3   OH236267   6.829   5.390   2.259
 4903TIP3    H136268   6.769   5.440   2.315
 4903TIP3    H236269   0.070   5.440   2.261
 4904TIP3   OH236270   6.803   1.116   6.664
 4904TIP3    H136271   6.802   1.065   6.583
 4904TIP3    H236272   0.050   1.105   6.699
 4905TIP3   OH236273   2.533   0.184   0.692
 4905TIP3    H136274   2.613   0.229   0.662
 4905TIP3    H236275   2.535   0.100   0.647
 4906TIP3   OH236276   6.223   2.011   0.132
 4906TIP3    H136277   6.238   1.917   0.134
 4906TIP3    H236278   6.175   2.026   0.051
 4907TIP3   OH236279   6.075   6.524   0.049
 4907TIP3    H136280   6.011   6.467   0.005
 4907TIP3    H236281   6.159   6.481   0.034
 4908TIP3   OH236282   0.691   3.510   6.804
 4908TIP3    H136283   0.772   3.504   6.854
 4908TIP3    H236284   0.710   3.462   6.723
 4909TIP3   OH236285   6.156   1.173   7.742
 4909TIP3    H136286   6.158   1.266   7.762
 4909TIP3    H236287   6.084   1.163   7.680
 4910TIP3   OH236288   3.206   1.579   1.382
 4910TIP3    H136289   3.280   1.636   1.402
 4910TIP3    H236290   3.129   1.636   1.385
 4911TIP3   OH236291   3.579   5.567   1.331
 4911TIP3    H136292   3.521   5.635   1.366
 4911TIP3    H236293   3.615   5.606   1.251
 4912TIP3   OH236294   3.132   6.454   1.332
 4912TIP3    H136295   3.067   6.388   1.308
 4912TIP3    H236296   3.096   6.499   1.408
 4913TIP3   OH236297   5.038   5.429   0.423
 4913TIP3    H136298   4.973   5.406   0.490
 4913TIP3    H236299   5.122   5.407   0.463
 4914TIP3   OH236300   0.886   3.524   8.422
 4914TIP3    H136301   0.863   3.506   8.514
 4914TIP3    H236302   0.859   3.614   8.407
 4915TIP3   OH236303   6.499   4.333   6.593
 4915TIP3    H136304   6.406   4.353   6.580
 4915TIP3    H236305   6.532   4.408   6.643
 4916TIP3   OH236306   6.378   0.454   7.580
 4916TIP3    H136307   6.418   0.532   7.619
 4916TIP3    H236308   6.330   0.486   7.504
 4917TIP3   OH236309   4.612   3.717   1.248
 4917TIP3    H136310   4.547   3.649   1.230
 4917TIP3    H236311   4.563   3.784   1.295
 4918TIP3   OH236312   4.216   4.123   2.230
 4918TIP3    H136313   4.201   4.216   2.245
 4918TIP3    H236314   4.287   4.100   2.291
 4919TIP3   OH236315   0.727   5.393   8.723
 4919TIP3    H136316   0.803   5.341   0.012
 4919TIP3    H236317   0.668   5.384   0.064
 4920TIP3   OH236318   5.500   2.647   0.102
 4920TIP3    H136319   5.432   2.707   0.131
 4920TIP3    H236320   5.511   2.665   0.009
 4921TIP3   OH236321   0.273   4.969   7.485
 4921TIP3    H136322   0.236   4.881   7.478
 4921TIP3    H236323   0.198   5.025   7.507
 4922TIP3   OH236324   1.153   4.652   6.772
 4922TIP3    H136325   1.148   4.662   6.867
 4922TIP3    H236326   1.071   4.689   6.739
 4923TIP3   OH236327   0.552   1.992   7.814
 4923TIP3    H136328   0.602   1.995   7.896
 4923TIP3    H236329   0.619   1.984   7.746
 4924TIP3   OH236330   4.435   3.873   7.410
 4924TIP3    H136331   4.347   3.847   7.439
 4924TIP3    H236332   4.457   3.812   7.341
 4925TIP3   OH236333   2.745   5.373   0.368
 4925TIP3    H136334   2.810   5.434   0.332
 4925TIP3    H236335   2.672   5.377   0.307
 4926TIP3   OH236336   0.273   4.106   1.453
 4926TIP3    H136337   0.337   4.108   1.383
 4926TIP3    H236338   0.312   4.159   1.523
 4927TIP3   OH236339   0.270   5.279   7.071
 4927TIP3    H136340   0.356   5.304   7.040
 4927TIP3    H236341   0.284   5.197   7.118
 4928TIP3   OH236342   3.698   6.833   6.738
 4928TIP3    H136343   3.660   6.834   6.826
 4928TIP3    H236344   3.784   6.791   6.750
 4929TIP3   OH236345   6.813   0.871   1.665
 4929TIP3    H136346   0.032   0.944   1.656
 4929TIP3    H236347   0.027   0.797   1.691
 4930TIP3   OH236348   3.525   0.564   1.999
 4930TIP3    H136349   3.563   0.607   2.076
 4930TIP3    H236350   3.457   0.623   1.970
 4931TIP3   OH236351   2.668   1.006   1.581
 4931TIP3    H136352   2.718   0.936   1.541
 4931TIP3    H236353   2.732   1.057   1.631
 4932TIP3   OH236354   1.601   0.758   2.031
 4932TIP3    H136355   1.558   0.735   2.113
 4932TIP3    H236356   1.529   0.787   1.974
 4933TIP3   OH236357   3.222   4.377   8.142
 4933TIP3    H136358   3.178   4.304   8.185
 4933TIP3    H236359   3.151   4.433   8.111
 4934TIP3   OH236360   4.447   1.457   8.432
 4934TIP3    H136361   4.433   1.445   8.338
 4934TIP3    H236362   4.541   1.469   8.442
 4935TIP3   OH236363   5.739   6.697   8.733
 4935TIP3    H136364   5.761   6.779   8.690
 4935TIP3    H236365   5.648   6.679   8.707
 4936TIP3   OH236366   0.487   4.025   7.357
 4936TIP3    H136367   0.509   4.015   7.264
 4936TIP3    H236368   0.394   4.004   7.362
 4937TIP3   OH236369   1.633   0.616   7.493
 4937TIP3    H136370   1.587   0.679   7.548
 4937TIP3    H236371   1.725   0.645   7.496
 4938TIP3   OH236372   1.522   0.355   7.746
 4938TIP3    H136373   1.496   0.267   7.773
 4938TIP3    H236374   1.589   0.380   7.810
 4939TIP3   OH236375   1.674   0.171   8.686
 4939TIP3    H136376   1.744   0.233   8.665
 4939TIP3    H236377   1.599   0.201   8.634
 4940TIP3   OH236378   6.083   5.332   0.777
 4940TIP3    H136379   6.173   5.310   0.801
 4940TIP3    H236380   6.090   5.372   0.690
 4941TIP3   OH236381   5.612   0.836   1.280
 4941TIP3    H136382   5.612   0.753   1.232
 4941TIP3    H236383   5.554   0.893   1.229
 4942TIP3   OH236384   5.661   3.800   8.273
 4942TIP3    H136385   5.625   3.887   8.259
 4942TIP3    H236386   5.755   3.813   8.281
 4943TIP3   OH236387   5.796   3.065   1.725
 4943TIP3    H136388   5.753   3.143   1.760
 4943TIP3    H236389   5.826   3.092   1.638
 4944TIP3   OH236390   3.943   1.351   0.503
 4944TIP3    H136391   3.938   1.324   0.595
 4944TIP3    H236392   4.036   1.345   0.482
 4945TIP3   OH236393   0.364   5.221   0.204
 4945TIP3    H136394   0.329   5.203   0.116
 4945TIP3    H236395   0.424   5.148   0.220
 4946TIP3   OH236396   1.586   4.942   1.115
 4946TIP3    H136397   1.640   4.878   1.068
 4946TIP3    H236398   1.567   4.900   1.199
 4947TIP3   OH236399   3.131   1.330   0.957
 4947TIP3    H136400   3.089   1.392   1.017
 4947TIP3    H236401   3.220   1.321   0.990
 4948TIP3   OH236402   4.528   4.141   1.850
 4948TIP3    H136403   4.568   4.101   1.928
 4948TIP3    H236404   4.437   4.156   1.874
 4949TIP3   OH236405   5.816   1.450   0.483
 4949TIP3    H136406   5.783   1.476   0.569
 4949TIP3    H236407   5.900   1.408   0.502
 4950TIP3   OH236408   0.462   1.932   7.513
 4950TIP3    H136409   0.397   1.862   7.510
 4950TIP3    H236410   0.535   1.895   7.563
 4951TIP3   OH236411   1.742   0.042   7.803
 4951TIP3    H136412   1.752   6.788   7.804
 4951TIP3    H236413   1.827   0.076   7.831
 4952TIP3   OH236414   4.771   1.308   1.637
 4952TIP3    H136415   4.703   1.368   1.606
 4952TIP3    H236416   4.851   1.361   1.636
 4953TIP3   OH236417   2.855   6.043   1.102
 4953TIP3    H136418   2.872   5.956   1.139
 4953TIP3    H236419   2.762   6.058   1.120
 4954TIP3   OH236420   1.593   4.907   7.847
 4954TIP3    H136421   1.621   4.959   7.921
 4954TIP3    H236422   1.515   4.951   7.814
 4955TIP3   OH236423   3.903   3.863   0.181
 4955TIP3    H136424   3.861   3.865   0.267
 4955TIP3    H236425   3.970   3.932   0.186
 4956TIP3   OH236426   4.746   0.112   7.127
 4956TIP3    H136427   4.661   0.075   7.103
 4956TIP3    H236428   4.771   0.166   7.051
 4957TIP3   OH236429   0.928   5.368   1.329
 4957TIP3    H136430   0.842   5.401   1.303
 4957TIP3    H236431   0.960   5.321   1.252
 4958TIP3   OH236432   3.627   5.572   7.682
 4958TIP3    H136433   3.659   5.533   7.763
 4958TIP3    H236434   3.644   5.506   7.615
 4959TIP3   OH236435   4.072   1.472   8.324
 4959TIP3    H136436   4.047   1.440   8.237
 4959TIP3    H236437   4.114   1.556   8.307
 4960TIP3   OH236438   5.487   0.786   2.847
 4960TIP3    H136439   5.478   0.875   2.879
 4960TIP3    H236440   5.398   0.753   2.841
 4961TIP3   OH236441   1.554   3.924   0.542
 4961TIP3    H136442   1.519   3.964   0.622
 4961TIP3    H236443   1.485   3.939   0.477
 4962TIP3   OH236444   0.876   1.433   0.238
 4962TIP3    H136445   0.925   1.492   0.181
 4962TIP3    H236446   0.879   1.348   0.195
 4963TIP3   OH236447   6.511   6.584   7.226
 4963TIP3    H136448   6.567   6.510   7.248
 4963TIP3    H236449   6.572   6.653   7.201
 4964TIP3   OH236450   4.586   4.891   0.387
 4964TIP3    H136451   4.641   4.940   0.448
 4964TIP3    H236452   4.513   4.861   0.441
 4965TIP3   OH236453   6.421   3.299   6.417
 4965TIP3    H136454   6.442   3.268   6.505
 4965TIP3    H236455   6.493   3.269   6.362
 4966TIP3   OH236456   4.376   0.483   2.797
 4966TIP3    H136457   4.430   0.547   2.750
 4966TIP3    H236458   4.378   0.405   2.741
 4967TIP3   OH236459   1.184   2.762   1.284
 4967TIP3    H136460   1.229   2.771   1.200
 4967TIP3    H236461   1.241   2.807   1.347
 4968TIP3   OH236462   1.104   0.182   8.621
 4968TIP3    H136463   1.107   0.116   8.552
 4968TIP3    H236464   1.049   0.251   8.586
 4969TIP3   OH236465   5.021   1.957   8.272
 4969TIP3    H136466   4.993   1.882   8.324
 4969TIP3    H236467   5.096   1.993   8.320
 4970TIP3   OH236468   2.674   2.399   7.766
 4970TIP3    H136469   2.713   2.486   7.780
 4970TIP3    H236470   2.582   2.410   7.789
 4971TIP3   OH236471   0.660   5.821   2.193
 4971TIP3    H136472   0.575   5.864   2.206
 4971TIP3    H236473   0.685   5.790   2.280
 4972TIP3   OH236474   3.933   3.842   0.773
 4972TIP3    H136475   3.994   3.803   0.836
 4972TIP3    H236476   3.881   3.768   0.742
 4973TIP3   OH236477   5.208   5.757   7.203
 4973TIP3    H136478   5.255   5.680   7.172
 4973TIP3    H236479   5.116   5.738   7.185
 4974TIP3   OH236480   5.091   4.723   8.500
 4974TIP3    H136481   5.067   4.677   8.419
 4974TIP3    H236482   5.013   4.717   8.555
 4975TIP3   OH236483   6.100   3.844   2.115
 4975TIP3    H136484   6.073   3.807   2.030
 4975TIP3    H236485   6.032   3.815   2.176
 4976TIP3   OH236486   6.003   5.391   7.266
 4976TIP3    H136487   5.953   5.317   7.300
 4976TIP3    H236488   5.982   5.464   7.325
 4977TIP3   OH236489   5.020   2.287   0.561
 4977TIP3    H136490   5.047   2.373   0.529
 4977TIP3    H236491   5.080   2.268   0.633
 4978TIP3   OH236492   6.282   4.170   1.107
 4978TIP3    H136493   6.235   4.212   1.179
 4978TIP3    H236494   6.375   4.188   1.125
 4979TIP3   OH236495   1.845   2.495   0.230
 4979TIP3    H136496   1.781   2.459   0.291
 4979TIP3    H236497   1.794   2.511   0.150
 4980TIP3   OH236498   0.476   4.237   7.526
 4980TIP3    H136499   0.487   4.158   7.473
 4980TIP3    H236500   0.454   4.305   7.464
 4981TIP3   OH236501   2.732   6.297   0.148
 4981TIP3    H136502   2.718   6.203   0.139
 4981TIP3    H236503   2.770   6.324   0.064
 4982TIP3   OH236504   6.311   1.040   8.192
 4982TIP3    H136505   6.287   1.028   8.284
 4982TIP3    H236506   6.402   1.010   8.187
 4983TIP3   OH236507   4.794   0.605   8.611
 4983TIP3    H136508   4.810   0.530   8.553
 4983TIP3    H236509   4.738   0.571   8.680
 4984TIP3   OH236510   0.681   2.130   6.916
 4984TIP3    H136511   0.724   2.084   6.843
 4984TIP3    H236512   0.587   2.112   6.904
 4985TIP3   OH236513   1.816   6.836   1.801
 4985TIP3    H136514   1.745   6.828   1.738
 4985TIP3    H236515   1.835   0.089   1.805
 4986TIP3   OH236516   5.365   4.228   8.336
 4986TIP3    H136517   5.276   4.260   8.325
 4986TIP3    H236518   5.420   4.296   8.298
 4987TIP3   OH236519   0.156   2.435   0.154
 4987TIP3    H136520   0.090   2.485   0.203
 4987TIP3    H236521   0.233   2.433   0.211
 4988TIP3   OH236522   5.118   0.157   1.977
 4988TIP3    H136523   5.204   0.119   1.994
 4988TIP3    H236524   5.073   0.154   2.061
 4989TIP3   OH236525   4.493   6.805   0.551
 4989TIP3    H136526   4.490   0.046   0.502
 4989TIP3    H236527   4.512   6.831   0.641
 4990TIP3   OH236528   0.371   2.376   1.597
 4990TIP3    H136529   0.334   2.432   1.666
 4990TIP3    H236530   0.324   2.402   1.518
 4991TIP3   OH236531   4.400   2.758   0.049
 4991TIP3    H136532   4.317   2.791   0.084
 4991TIP3    H236533   4.384   2.747   8.690
 4992TIP3   OH236534   5.899   6.052   8.175
 4992TIP3    H136535   5.862   6.140   8.168
 4992TIP3    H236536   5.826   5.993   8.155
 4993TIP3   OH236537   3.090   2.310   0.130
 4993TIP3    H136538   3.025   2.263   0.079
 4993TIP3    H236539   3.082   2.401   0.101
 4994TIP3   OH236540   3.500   1.130   8.352
 4994TIP3    H136541   3.531   1.108   8.264
 4994TIP3    H236542   3.577   1.121   8.408
 4995TIP3   OH236543   1.404   3.428   6.482
 4995TIP3    H136544   1.358   3.507   6.508
 4995TIP3    H236545   1.496   3.446   6.500
 4996TIP3   OH236546   5.706   3.085   0.755
 4996TIP3    H136547   5.735   3.045   0.673
 4996TIP3    H236548   5.614   3.108   0.739
 4997TIP3   OH236549   4.212   4.021   1.523
 4997TIP3    H136550   4.122   4.017   1.555
 4997TIP3    H236551   4.234   4.115   1.524
 4998TIP3   OH236552   6.046   1.255   8.269
 4998TIP3    H136553   5.986   1.317   8.228
 4998TIP3    H236554   6.121   1.253   8.210
 4999TIP3   OH236555   1.315   2.799   0.073
 4999TIP3    H136556   1.347   2.881   0.109
 4999TIP3    H236557   1.378   2.733   0.104
 5000TIP3   OH236558   2.102   1.948   7.557
 5000TIP3    H136559   2.128   1.950   7.465
 5000TIP3    H236560   2.025   2.004   7.561
 5001TIP3   OH236561   2.621   4.934   0.960
 5001TIP3    H136562   2.617   4.923   0.865
 5001TIP3    H236563   2.710   4.905   0.983
 5002TIP3   OH236564   1.461   0.387   0.739
 5002TIP3    H136565   1.520   0.365   0.811
 5002TIP3    H236566   1.373   0.374   0.775
 5003TIP3   OH236567   4.254   5.036   0.302
 5003TIP3    H136568   4.279   4.973   0.369
 5003TIP3    H236569   4.328   5.098   0.300
 5004TIP3   OH236570   4.717   4.004   7.276
 5004TIP3    H136571   4.738   3.927   7.222
 5004TIP3    H236572   4.752   4.078   7.226
 5005TIP3   OH236573   0.907   2.840   0.303
 5005TIP3    H136574   0.919   2.786   0.225
 5005TIP3    H236575   0.839   2.796   0.353
 5006TIP3   OH236576   1.072   0.497   1.083
 5006TIP3    H136577   1.097   0.489   0.991
 5006TIP3    H236578   1.004   0.563   1.084
 5007TIP3   OH236579   4.217   2.202   1.441
 5007TIP3    H136580   4.220   2.131   1.505
 5007TIP3    H236581   4.132   2.191   1.397
 5008TIP3   OH236582   1.084   6.828   8.431
 5008TIP3    H136583   1.100   6.744   8.473
 5008TIP3    H236584   1.107   6.814   8.339
 5009TIP3   OH236585   0.650   1.287   1.018
 5009TIP3    H136586   0.615   1.369   1.053
 5009TIP3    H236587   0.689   1.243   1.094
 5010TIP3   OH236588   5.420   6.699   1.296
 5010TIP3    H136589   5.457   6.736   1.216
 5010TIP3    H236590   5.402   6.774   1.352
 5011TIP3   OH236591   3.092   0.205   1.099
 5011TIP3    H136592   3.140   0.154   1.163
 5011TIP3    H236593   3.101   0.156   1.017
 5012TIP3   OH236594   6.533   5.884   7.880
 5012TIP3    H136595   6.589   5.840   7.815
 5012TIP3    H236596   6.458   5.914   7.829
 5013TIP3   OH236597   0.711   0.298   8.688
 5013TIP3    H136598   0.646   0.340   0.009
 5013TIP3    H236599   0.743   0.224   0.005
 5014TIP3   OH236600   4.222   2.249   7.118
 5014TIP3    H136601   4.316   2.250   7.140
 5014TIP3    H236602   4.187   2.175   7.168
 5015TIP3   OH236603   3.149   2.991   0.215
 5015TIP3    H136604   3.056   2.993   0.193
 5015TIP3    H236605   3.152   2.973   0.309
 5016TIP3   OH236606   0.121   1.391   8.568
 5016TIP3    H136607   0.185   1.345   8.622
 5016TIP3    H236608   0.172   1.421   8.492
 5017TIP3   OH236609   4.474   4.835   1.004
 5017TIP3    H136610   4.407   4.832   0.937
 5017TIP3    H236611   4.553   4.802   0.961
 5018TIP3   OH236612   3.464   1.296   1.535
 5018TIP3    H136613   3.463   1.209   1.494
 5018TIP3    H236614   3.380   1.303   1.579
 5019TIP3   OH236615   5.712   1.813   0.184
 5019TIP3    H136616   5.625   1.795   0.219
 5019TIP3    H236617   5.772   1.766   0.242
 5020TIP3   OH236618   1.507   0.777   0.396
 5020TIP3    H136619   1.468   0.692   0.415
 5020TIP3    H236620   1.552   0.802   0.477
 5021TIP3   OH236621   1.347   5.052   0.596
 5021TIP3    H136622   1.333   5.016   0.684
 5021TIP3    H236623   1.261   5.084   0.569
 5022TIP3   OH236624   2.027   0.726   7.863
 5022TIP3    H136625   2.105   0.780   7.856
 5022TIP3    H236626   1.955   0.783   7.837
 5023TIP3   OH236627   3.953   3.709   7.626
 5023TIP3    H136628   3.988   3.735   7.712
 5023TIP3    H236629   3.859   3.727   7.632
 5024TIP3   OH236630   1.964   0.009   0.039
 5024TIP3    H136631   1.879   0.002   0.082
 5024TIP3    H236632   2.013   6.774   0.071
 5025TIP3   OH236633   5.136   3.379   0.219
 5025TIP3    H136634   5.162   3.318   0.150
 5025TIP3    H236635   5.210   3.438   0.229
 5026TIP3   OH236636   4.089   0.012   8.078
 5026TIP3    H136637   4.011   0.059   8.048
 5026TIP3    H236638   4.075   0.001   8.172
 5027TIP3   OH236639   4.931   1.440   0.023
 5027TIP3    H136640   5.005   1.391   8.722
 5027TIP3    H236641   4.971   1.516   0.065
 5028TIP3   OH236642   0.969   0.243   2.460
 5028TIP3    H136643   0.934   0.177   2.399
 5028TIP3    H236644   1.062   0.221   2.468
 5029TIP3   OH236645   1.176   3.846   7.314
 5029TIP3    H136646   1.234   3.909   7.270
 5029TIP3    H236647   1.193   3.763   7.269
 5030TIP3   OH236648   0.489   0.074   7.027
 5030TIP3    H136649   0.526   6.836   6.987
 5030TIP3    H236650   0.468   0.132   6.954
 5031TIP3   OH236651   0.623   6.181   7.348
 5031TIP3    H136652   0.578   6.149   7.270
 5031TIP3    H236653   0.683   6.110   7.372
 5032TIP3   OH236654   6.679   0.418   0.249
 5032TIP3    H136655   6.691   0.475   0.173
 5032TIP3    H236656   6.667   0.479   0.322
 5033TIP3   OH236657   6.722   3.209   1.079
 5033TIP3    H136658   6.671   3.289   1.095
 5033TIP3    H236659   6.685   3.145   1.140
 5034TIP3   OH236660   4.691   0.822   2.293
 5034TIP3    H136661   4.648   0.745   2.328
 5034TIP3    H236662   4.778   0.791   2.267
 5035TIP3   OH236663   4.522   1.208   8.068
 5035TIP3    H136664   4.446   1.261   8.089
 5035TIP3    H236665   4.596   1.269   8.071
 5036TIP3   OH236666   2.301   1.758   1.143
 5036TIP3    H136667   2.276   1.774   1.052
 5036TIP3    H236668   2.287   1.665   1.156
 5037TIP3   OH236669   4.588   0.177   7.647
 5037TIP3    H136670   4.681   0.184   7.624
 5037TIP3    H236671   4.558   0.100   7.600
 5038TIP3   OH236672   1.947   6.004   0.539
 5038TIP3    H136673   1.860   5.968   0.554
 5038TIP3    H236674   2.003   5.928   0.524
 5039TIP3   OH236675   5.070   0.572   8.681
 5039TIP3    H136676   5.001   0.606   0.004
 5039TIP3    H236677   5.026   0.557   8.597
 5040TIP3   OH236678   0.287   2.818   7.493
 5040TIP3    H136679   0.326   2.893   7.448
 5040TIP3    H236680   0.279   2.750   7.425
 5041TIP3   OH236681   0.268   0.280   0.431
 5041TIP3    H136682   0.269   0.375   0.427
 5041TIP3    H236683   0.205   0.253   0.365
 5042TIP3   OH236684   3.722   4.962   6.637
 5042TIP3    H136685   3.635   4.934   6.607
 5042TIP3    H236686   3.780   4.890   6.611
 5043TIP3   OH236687   5.061   2.908   1.671
 5043TIP3    H136688   5.135   2.965   1.695
 5043TIP3    H236689   5.060   2.840   1.738
 5044TIP3   OH236690   0.604   0.287   2.124
 5044TIP3    H136691   0.584   0.381   2.112
 5044TIP3    H236692   0.536   0.256   2.183
 5045TIP3   OH236693   0.194   5.692   8.155
 5045TIP3    H136694   0.146   5.727   8.080
 5045TIP3    H236695   0.268   5.751   8.166
 5046TIP3   OH236696   2.486   2.436   6.467
 5046TIP3    H136697   2.530   2.521   6.461
 5046TIP3    H236698   2.518   2.387   6.391
 5047TIP3   OH236699   2.758   3.027   7.761
 5047TIP3    H136700   2.800   3.101   7.806
 5047TIP3    H236701   2.832   2.972   7.733
 5048TIP3   OH236702   6.666   6.811   7.137
 5048TIP3    H136703   6.746   0.019   7.159
 5048TIP3    H236704   6.673   6.794   7.043
 5049TIP3   OH236705   5.292   2.444   8.712
 5049TIP3    H136706   5.304   2.502   0.052
 5049TIP3    H236707   5.197   2.437   8.701
 5050TIP3   OH236708   3.370   4.032   8.574
 5050TIP3    H136709   3.338   4.122   8.578
 5050TIP3    H236710   3.301   3.980   8.615
 5051TIP3   OH236711   5.277   6.267   6.316
 5051TIP3    H136712   5.237   6.352   6.297
 5051TIP3    H236713   5.359   6.289   6.360
 5052TIP3   OH236714   3.425   4.562   8.256
 5052TIP3    H136715   3.347   4.511   8.232
 5052TIP3    H236716   3.429   4.632   8.191
 5053TIP3   OH236717   2.331   0.562   0.436
 5053TIP3    H136718   2.260   0.584   0.376
 5053TIP3    H236719   2.317   0.470   0.458
 5054TIP3   OH236720   1.927   2.746   1.003
 5054TIP3    H136721   1.930   2.674   0.940
 5054TIP3    H236722   1.870   2.812   0.963
 5055TIP3   OH236723   2.680   6.312   1.844
 5055TIP3    H136724   2.712   6.275   1.926
 5055TIP3    H236725   2.591   6.276   1.835
 5056TIP3   OH236726   4.715   2.661   0.041
 5056TIP3    H136727   4.668   2.596   8.724
 5056TIP3    H236728   4.681   2.651   0.130
 5057TIP3   OH236729   4.229   1.128   6.438
 5057TIP3    H136730   4.275   1.164   6.514
 5057TIP3    H236731   4.273   1.166   6.363
 5058TIP3   OH236732   4.211   6.288   0.628
 5058TIP3    H136733   4.194   6.197   0.602
 5058TIP3    H236734   4.305   6.289   0.649
 5059TIP3   OH236735   6.323   3.581   8.627
 5059TIP3    H136736   6.414   3.572   8.598
 5059TIP3    H236737   6.328   3.634   8.706
 5060TIP3   OH236738   4.110   6.478   8.105
 5060TIP3    H136739   4.061   6.505   8.028
 5060TIP3    H236740   4.047   6.485   8.177
 5061TIP3   OH236741   2.631   0.689   7.193
 5061TIP3    H136742   2.692   0.683   7.266
 5061TIP3    H236743   2.617   0.783   7.181
 5062TIP3   OH236744   6.024   3.021   0.169
 5062TIP3    H136745   5.945   3.037   0.116
 5062TIP3    H236746   5.997   3.039   0.259
 5063TIP3   OH236747   5.875   1.709   6.437
 5063TIP3    H136748   5.969   1.711   6.418
 5063TIP3    H236749   5.860   1.785   6.493
 5064TIP3   OH236750   3.033   3.644   8.600
 5064TIP3    H136751   3.029   3.584   8.525
 5064TIP3    H236752   3.035   3.731   8.560
 5065TIP3   OH236753   5.502   5.646   0.624
 5065TIP3    H136754   5.576   5.653   0.684
 5065TIP3    H236755   5.433   5.699   0.665
 5066TIP3   OH236756   2.480   5.416   0.262
 5066TIP3    H136757   2.455   5.480   0.195
 5066TIP3    H236758   2.401   5.365   0.278
 5067TIP3   OH236759   0.933   6.247   7.241
 5067TIP3    H136760   0.860   6.188   7.224
 5067TIP3    H236761   0.971   6.215   7.323
 5068TIP3   OH236762   2.988   6.129   1.406
 5068TIP3    H136763   2.962   6.037   1.413
 5068TIP3    H236764   3.057   6.129   1.340
 5069TIP3   OH236765   1.670   2.474   0.045
 5069TIP3    H136766   1.722   2.526   8.718
 5069TIP3    H236767   1.684   2.383   0.017
 5070TIP3   OH236768   1.632   4.634   1.644
 5070TIP3    H136769   1.599   4.658   1.730
 5070TIP3    H236770   1.596   4.700   1.585
 5071TIP3   OH236771   6.366   6.412   7.806
 5071TIP3    H136772   6.319   6.440   7.885
 5071TIP3    H236773   6.296   6.386   7.745
 5072TIP3   OH236774   4.712   0.509   7.630
 5072TIP3    H136775   4.756   0.501   7.715
 5072TIP3    H236776   4.758   0.446   7.574
 5073TIP3   OH236777   2.646   1.184   0.214
 5073TIP3    H136778   2.589   1.108   0.225
 5073TIP3    H236779   2.722   1.150   0.166
 5074TIP3   OH236780   4.732   1.761   0.020
 5074TIP3    H136781   4.738   1.854   8.733
 5074TIP3    H236782   4.760   1.716   8.675
 5075TIP3   OH236783   6.823   4.876   0.616
 5075TIP3    H136784   6.806   4.932   0.540
 5075TIP3    H236785   6.840   4.936   0.688
 5076TIP3   OH236786   1.426   1.791   0.182
 5076TIP3    H136787   1.498   1.746   0.137
 5076TIP3    H236788   1.361   1.723   0.197
 5077TIP3   OH236789   5.065   5.637   0.642
 5077TIP3    H136790   5.091   5.552   0.606
 5077TIP3    H236791   5.146   5.687   0.645
 5078TIP3   OH236792   5.887   4.386   1.578
 5078TIP3    H136793   5.908   4.398   1.670
 5078TIP3    H236794   5.823   4.314   1.577
 5079TIP3   OH236795   4.871   5.153   2.298
 5079TIP3    H136796   4.953   5.155   2.248
 5079TIP3    H236797   4.830   5.238   2.279
 5080TIP3   OH236798   4.674   6.700   7.454
 5080TIP3    H136799   4.631   6.785   7.448
 5080TIP3    H236800   4.736   6.699   7.382
 5081TIP3   OH236801   6.287   2.321   7.654
 5081TIP3    H136802   6.215   2.381   7.636
 5081TIP3    H236803   6.256   2.269   7.729
 5082TIP3   OH236804   4.765   3.854   1.059
 5082TIP3    H136805   4.725   3.802   1.129
 5082TIP3    H236806   4.756   3.799   0.981
 5083TIP3   OH236807   5.154   5.819   7.841
 5083TIP3    H136808   5.193   5.862   7.765
 5083TIP3    H236809   5.224   5.764   7.877
 5084TIP3   OH236810   4.922   2.420   0.896
 5084TIP3    H136811   4.902   2.478   0.823
 5084TIP3    H236812   4.839   2.412   0.943
 5085TIP3   OH236813   2.138   2.946   8.436
 5085TIP3    H136814   2.149   2.935   8.530
 5085TIP3    H236815   2.190   2.876   8.396
 5086TIP3   OH236816   0.908   2.154   8.322
 5086TIP3    H136817   0.884   2.197   8.404
 5086TIP3    H236818   0.886   2.062   8.337
 5087TIP3   OH236819   3.256   5.147   1.833
 5087TIP3    H136820   3.291   5.228   1.871
 5087TIP3    H236821   3.218   5.100   1.906
 5088TIP3   OH236822   0.106   0.267   8.700
 5088TIP3    H136823   0.169   0.195   8.701
 5088TIP3    H236824   0.020   0.223   8.704
 5089TIP3   OH236825   5.237   2.577   8.241
 5089TIP3    H136826   5.216   2.491   8.204
 5089TIP3    H236827   5.157   2.604   8.286
 5090TIP3   OH236828   3.707   5.271   1.071
 5090TIP3    H136829   3.786   5.308   1.108
 5090TIP3    H236830   3.696   5.316   0.987
 5091TIP3   OH236831   3.211   4.777   1.613
 5091TIP3    H136832   3.124   4.763   1.576
 5091TIP3    H236833   3.244   4.854   1.567
 5092TIP3   OH236834   6.659   6.122   1.121
 5092TIP3    H136835   6.570   6.152   1.105
 5092TIP3    H236836   6.710   6.202   1.133
 5093TIP3   OH236837   2.582   0.934   7.302
 5093TIP3    H136838   2.519   0.942   7.374
 5093TIP3    H236839   2.664   0.907   7.344
 5094TIP3   OH236840   3.091   5.479   0.009
 5094TIP3    H136841   3.177   5.518   0.024
 5094TIP3    H236842   3.101   5.430   8.661
 5095TIP3   OH236843   2.340   5.297   0.599
 5095TIP3    H136844   2.388   5.273   0.520
 5095TIP3    H236845   2.248   5.280   0.578
 5096TIP3   OH236846   4.310   0.808   6.309
 5096TIP3    H136847   4.373   0.847   6.249
 5096TIP3    H236848   4.348   0.820   6.396
 5097TIP3   OH236849   1.783   5.533   6.412
 5097TIP3    H136850   1.712   5.477   6.381
 5097TIP3    H236851   1.827   5.481   6.479
 5098TIP3   OH236852   5.834   5.192   7.372
 5098TIP3    H136853   5.758   5.209   7.427
 5098TIP3    H236854   5.855   5.099   7.388
 5099TIP3   OH236855   5.610   6.591   7.596
 5099TIP3    H136856   5.613   6.639   7.513
 5099TIP3    H236857   5.545   6.639   7.648
 5100TIP3   OH236858   5.551   0.991   0.099
 5100TIP3    H136859   5.604   0.979   0.020
 5100TIP3    H236860   5.608   0.965   0.171
 5101TIP3   OH236861   6.694   2.323   1.148
 5101TIP3    H136862   6.737   2.401   1.183
 5101TIP3    H236863   6.620   2.356   1.098
 5102TIP3   OH236864   3.067   0.635   0.081
 5102TIP3    H136865   3.132   0.572   0.112
 5102TIP3    H236866   3.115   0.692   0.022
 5103TIP3   OH236867   4.911   3.355   8.698
 5103TIP3    H136868   4.992   3.402   8.719
 5103TIP3    H236869   4.841   3.419   8.714
 5104TIP3   OH236870   0.778   0.201   0.711
 5104TIP3    H136871   0.727   0.244   0.643
 5104TIP3    H236872   0.729   0.120   0.730
 5105TIP3   OH236873   1.891   5.579   6.192
 5105TIP3    H136874   1.838   5.511   6.150
 5105TIP3    H236875   1.864   5.576   6.284
 5106TIP3   OH236876   5.195   5.949   6.789
 5106TIP3    H136877   5.226   6.019   6.731
 5106TIP3    H236878   5.102   5.965   6.799
 5107TIP3   OH236879   4.743   6.431   1.252
 5107TIP3    H136880   4.741   6.353   1.308
 5107TIP3    H236881   4.685   6.494   1.296
 5108TIP3   OH236882   0.318   1.974   0.813
 5108TIP3    H136883   0.321   1.884   0.782
 5108TIP3    H236884   0.249   2.015   0.760
 5109TIP3   OH236885   3.339   0.661   0.662
 5109TIP3    H136886   3.346   0.566   0.669
 5109TIP3    H236887   3.329   0.691   0.753
 5110TIP3   OH236888   1.537   0.957   2.329
 5110TIP3    H136889   1.629   0.930   2.337
 5110TIP3    H236890   1.495   0.885   2.282
 5111TIP3   OH236891   2.071   6.471   8.213
 5111TIP3    H136892   2.024   6.463   8.295
 5111TIP3    H236893   2.006   6.504   8.151
 5112TIP3   OH236894   0.900   4.958   0.535
 5112TIP3    H136895   0.924   4.875   0.576
 5112TIP3    H236896   0.904   4.940   0.441
 5113TIP3   OH236897   3.685   4.334   7.140
 5113TIP3    H136898   3.700   4.358   7.231
 5113TIP3    H236899   3.596   4.299   7.138
 5114TIP3   OH236900   6.542   5.085   0.855
 5114TIP3    H136901   6.513   5.063   0.766
 5114TIP3    H236902   6.580   5.004   0.889
 5115TIP3   OH236903   3.714   6.169   6.193
 5115TIP3    H136904   3.651   6.113   6.239
 5115TIP3    H236905   3.794   6.118   6.188
 5116TIP3   OH236906   1.519   4.266   0.831
 5116TIP3    H136907   1.563   4.277   0.915
 5116TIP3    H236908   1.481   4.351   0.811
 5117TIP3   OH236909   4.183   4.678   0.437
 5117TIP3    H136910   4.225   4.593   0.428
 5117TIP3    H236911   4.101   4.669   0.388
 5118TIP3   OH236912   2.194   1.781   7.757
 5118TIP3    H136913   2.228   1.837   7.827
 5118TIP3    H236914   2.171   1.841   7.686
 5119TIP3   OH236915   1.538   6.368   8.111
 5119TIP3    H136916   1.476   6.416   8.055
 5119TIP3    H236917   1.569   6.434   8.173
 5120TIP3   OH236918   5.756   4.890   8.337
 5120TIP3    H136919   5.714   4.925   8.415
 5120TIP3    H236920   5.844   4.927   8.338
 5121TIP3   OH236921   3.938   2.551   0.807
 5121TIP3    H136922   3.867   2.536   0.746
 5121TIP3    H236923   3.927   2.642   0.836
 5122TIP3   OH236924   1.789   6.559   6.864
 5122TIP3    H136925   1.698   6.542   6.842
 5122TIP3    H236926   1.834   6.476   6.847
 5123TIP3   OH236927   2.194   1.330   1.391
 5123TIP3    H136928   2.120   1.349   1.334
 5123TIP3    H236929   2.246   1.410   1.391
 5124TIP3   OH236930   3.448   4.284   6.360
 5124TIP3    H136931   3.396   4.348   6.310
 5124TIP3    H236932   3.538   4.316   6.352
 5125TIP3   OH236933   0.003   5.635   0.937
 5125TIP3    H136934   0.016   5.556   0.990
 5125TIP3    H236935   6.814   5.701   1.000
 5126TIP3   OH236936   1.963   5.592   0.723
 5126TIP3    H136937   2.027   5.549   0.780
 5126TIP3    H236938   1.975   5.686   0.740
 5127TIP3   OH236939   2.703   3.726   6.297
 5127TIP3    H136940   2.771   3.715   6.230
 5127TIP3    H236941   2.630   3.766   6.251
 5128TIP3   OH236942   3.996   4.945   1.390
 5128TIP3    H136943   4.027   4.992   1.313
 5128TIP3    H236944   4.071   4.946   1.450
 5129TIP3   OH236945   1.472   3.329   1.721
 5129TIP3    H136946   1.427   3.245   1.728
 5129TIP3    H236947   1.419   3.390   1.772
 5130TIP3   OH236948   4.902   2.765   8.547
 5130TIP3    H136949   4.830   2.733   8.600
 5130TIP3    H236950   4.909   2.703   8.475
 5131TIP3   OH236951   0.127   4.964   1.281
 5131TIP3    H136952   0.180   5.008   1.348
 5131TIP3    H236953   0.153   4.872   1.286
 5132TIP3   OH236954   4.000   3.701   8.308
 5132TIP3    H136955   3.933   3.768   8.292
 5132TIP3    H236956   4.073   3.725   8.250
 5133TIP3   OH236957   0.791   5.721   0.502
 5133TIP3    H136958   0.756   5.690   0.418
 5133TIP3    H236959   0.793   5.643   0.557
 5134TIP3   OH236960   4.911   1.159   8.033
 5134TIP3    H136961   4.969   1.120   7.968
 5134TIP3    H236962   4.823   1.143   7.998
 5135TIP3   OH236963   5.889   2.585   0.705
 5135TIP3    H136964   5.938   2.554   0.629
 5135TIP3    H236965   5.802   2.606   0.671
 5136TIP3   OH236966   1.547   5.443   6.818
 5136TIP3    H136967   1.610   5.425   6.888
 5136TIP3    H236968   1.496   5.517   6.851
 5137TIP3   OH236969   1.978   1.996   8.038
 5137TIP3    H136970   1.950   1.911   8.005
 5137TIP3    H236971   2.046   2.024   7.977
 5138TIP3   OH236972   5.316   2.739   7.575
 5138TIP3    H136973   5.401   2.782   7.557
 5138TIP3    H236974   5.335   2.678   7.646
 5139TIP3   OH236975   3.272   3.108   8.725
 5139TIP3    H136976   3.252   3.068   0.075
 5139TIP3    H236977   3.207   3.070   8.665
 5140TIP3   OH236978   6.154   1.554   1.282
 5140TIP3    H136979   6.176   1.489   1.349
 5140TIP3    H236980   6.228   1.554   1.222
 5141TIP3   OH236981   3.689   4.466   6.887
 5141TIP3    H136982   3.727   4.554   6.889
 5141TIP3    H236983   3.702   4.432   6.975
 5142TIP3   OH236984   3.193   5.703   2.226
 5142TIP3    H136985   3.243   5.622   2.234
 5142TIP3    H236986   3.108   5.682   2.267
 5143TIP3   OH236987   4.380   4.482   8.483
 5143TIP3    H136988   4.406   4.556   8.428
 5143TIP3    H236989   4.454   4.421   8.477
 5144TIP3   OH236990   5.053   1.679   0.566
 5144TIP3    H136991   4.980   1.686   0.504
 5144TIP3    H236992   5.014   1.639   0.644
 5145TIP3   OH236993   3.095   3.173   2.375
 5145TIP3    H136994   3.144   3.107   2.326
 5145TIP3    H236995   3.157   3.204   2.442
 5146TIP3   OH236996   1.674   5.970   7.946
 5146TIP3    H136997   1.722   5.969   8.030
 5146TIP3    H236998   1.596   5.917   7.962
 5147TIP3   OH236999   2.986   2.588   0.263
 5147TIP3    H137000   3.073   2.555   0.286
 5147TIP3    H237001   2.944   2.607   0.347
 5148TIP3   OH237002   3.895   3.427   1.029
 5148TIP3    H137003   3.825   3.373   1.065
 5148TIP3    H237004   3.892   3.412   0.935
 5149TIP3   OH237005   5.394   0.008   0.399
 5149TIP3    H137006   5.311   6.836   0.445
 5149TIP3    H237007   5.392   0.100   0.371
 5150TIP3   OH237008   6.519   1.281   0.383
 5150TIP3    H137009   6.496   1.236   0.465
 5150TIP3    H237010   6.435   1.295   0.339
 5151TIP3   OH237011   4.205   3.785   6.896
 5151TIP3    H137012   4.242   3.841   6.964
 5151TIP3    H237013   4.110   3.791   6.910
 5152TIP3   OH237014   6.316   4.651   7.556
 5152TIP3    H137015   6.388   4.708   7.583
 5152TIP3    H237016   6.358   4.583   7.504
 5153TIP3   OH237017   1.658   0.367   3.013
 5153TIP3    H137018   1.632   0.282   3.051
 5153TIP3    H237019   1.742   0.349   2.971
 5154TIP3   OH237020   3.256   5.008   6.447
 5154TIP3    H137021   3.185   4.947   6.469
 5154TIP3    H237022   3.232   5.090   6.490
 5155TIP3   OH237023   5.321   0.300   8.190
 5155TIP3    H137024   5.322   0.240   8.116
 5155TIP3    H237025   5.340   0.245   8.266
 5156TIP3   OH237026   0.333   0.412   8.677
 5156TIP3    H137027   0.253   0.385   8.723
 5156TIP3    H237028   0.333   0.508   8.685
 5157TIP3   OH237029   0.228   6.827   7.553
 5157TIP3    H137030   0.231   6.739   7.517
 5157TIP3    H237031   0.256   0.043   7.480
 5158TIP3   OH237032   2.244   6.648   0.432
 5158TIP3    H137033   2.258   6.574   0.372
 5158TIP3    H237034   2.180   6.616   0.495
 5159TIP3   OH237035   5.502   4.591   7.811
 5159TIP3    H137036   5.506   4.504   7.852
 5159TIP3    H237037   5.593   4.612   7.790
 5160TIP3   OH237038   6.209   0.535   7.382
 5160TIP3    H137039   6.129   0.586   7.398
 5160TIP3    H237040   6.209   0.519   7.288
 5161TIP3   OH237041   5.237   2.373   1.724
 5161TIP3    H137042   5.169   2.414   1.670
 5161TIP3    H237043   5.241   2.428   1.802
 5162TIP3   OH237044   5.088   1.360   2.025
 5162TIP3    H137045   5.148   1.330   1.957
 5162TIP3    H237046   5.062   1.280   2.071
 5163TIP3   OH237047   2.643   0.606   0.926
 5163TIP3    H137048   2.620   0.644   1.011
 5163TIP3    H237049   2.566   0.555   0.901
 5164TIP3   OH237050   3.639   5.931   6.305
 5164TIP3    H137051   3.578   5.857   6.302
 5164TIP3    H237052   3.716   5.897   6.349
 5165TIP3   OH237053   2.035   2.619   6.088
 5165TIP3    H137054   1.944   2.607   6.117
 5165TIP3    H237055   2.087   2.597   6.165
 5166TIP3   OH237056   3.974   2.871   8.248
 5166TIP3    H137057   3.964   2.781   8.215
 5166TIP3    H237058   3.885   2.898   8.271
 5167TIP3   OH237059   0.303   4.909   0.280
 5167TIP3    H137060   0.354   4.960   0.343
 5167TIP3    H237061   0.216   4.948   0.282
 5168TIP3   OH237062   6.687   0.585   8.412
 5168TIP3    H137063   6.688   0.571   8.317
 5168TIP3    H237064   6.764   0.539   8.444
 5169TIP3   OH237065   6.829   6.492   8.301
 5169TIP3    H137066   6.799   6.458   8.217
 5169TIP3    H237067   6.819   6.419   8.362
 5170TIP3   OH237068   2.964   5.622   7.239
 5170TIP3    H137069   3.022   5.562   7.287
 5170TIP3    H237070   2.914   5.667   7.308
 5171TIP3   OH237071   2.616   1.912   7.680
 5171TIP3    H137072   2.573   1.829   7.700
 5171TIP3    H237073   2.601   1.966   7.757
 5172TIP3   OH237074   2.017   1.537   1.620
 5172TIP3    H137075   1.962   1.599   1.669
 5172TIP3    H237076   1.978   1.535   1.533
 5173TIP3   OH237077   5.430   6.118   8.665
 5173TIP3    H137078   5.522   6.126   8.642
 5173TIP3    H237079   5.429   6.112   0.026
 5174TIP3   OH237080   2.164   5.488   7.687
 5174TIP3    H137081   2.085   5.511   7.637
 5174TIP3    H237082   2.152   5.532   7.771
 5175TIP3   OH237083   5.838   4.537   6.074
 5175TIP3    H137084   5.760   4.541   6.129
 5175TIP3    H237085   5.828   4.609   6.012
 5176TIP3   OH237086   1.177   5.397   7.083
 5176TIP3    H137087   1.120   5.365   7.013
 5176TIP3    H237088   1.253   5.433   7.038
 5177TIP3   OH237089   2.297   3.613   0.003
 5177TIP3    H137090   2.245   3.563   0.066
 5177TIP3    H237091   2.318   3.550   8.669
 5178TIP3   OH237092   2.326   2.922   0.813
 5178TIP3    H137093   2.251   2.879   0.854
 5178TIP3    H237094   2.354   2.861   0.745
 5179TIP3   OH237095   0.106   1.817   0.133
 5179TIP3    H137096   0.076   1.733   0.097
 5179TIP3    H237097   0.200   1.816   0.118
 5180TIP3   OH237098   2.845   3.714   6.069
 5180TIP3    H137099   2.888   3.798   6.050
 5180TIP3    H237100   2.838   3.672   5.983
 5181TIP3   OH237101   2.105   3.163   0.552
 5181TIP3    H137102   2.128   3.070   0.556
 5181TIP3    H237103   2.155   3.202   0.624
 5182TIP3   OH237104   6.061   6.093   0.990
 5182TIP3    H137105   6.015   6.086   0.907
 5182TIP3    H237106   5.994   6.122   1.052
 5183TIP3   OH237107   2.206   1.787   1.535
 5183TIP3    H137108   2.157   1.795   1.616
 5183TIP3    H237109   2.220   1.877   1.506
 5184TIP3   OH237110   6.718   2.463   6.667
 5184TIP3    H137111   6.656   2.534   6.648
 5184TIP3    H237112   6.776   2.462   6.591
 5185TIP3   OH237113   1.835   4.945   0.057
 5185TIP3    H137114   1.771   5.003   0.098
 5185TIP3    H237115   1.792   4.913   8.712
 5186TIP3   OH237116   0.273   3.518   0.573
 5186TIP3    H137117   0.268   3.599   0.523
 5186TIP3    H237118   0.199   3.523   0.634
 5187TIP3   OH237119   3.245   1.223   0.733
 5187TIP3    H137120   3.172   1.163   0.718
 5187TIP3    H237121   3.231   1.256   0.822
 5188TIP3   OH237122   2.889   3.777   7.764
 5188TIP3    H137123   2.849   3.782   7.677
 5188TIP3    H237124   2.902   3.868   7.790
 5189TIP3   OH237125   3.989   5.612   7.525
 5189TIP3    H137126   3.931   5.686   7.507
 5189TIP3    H237127   3.977   5.593   7.618
 5190TIP3   OH237128   5.880   3.166   0.383
 5190TIP3    H137129   5.806   3.215   0.347
 5190TIP3    H237130   5.949   3.232   0.392
 5191TIP3   OH237131   4.911   5.321   1.891
 5191TIP3    H137132   4.898   5.356   1.803
 5191TIP3    H237133   4.922   5.398   1.947
 5192TIP3   OH237134   5.793   0.838   1.540
 5192TIP3    H137135   5.736   0.785   1.596
 5192TIP3    H237136   5.749   0.838   1.455
 5193TIP3   OH237137   5.234   2.549   7.084
 5193TIP3    H137138   5.243   2.576   6.992
 5193TIP3    H237139   5.142   2.566   7.105
 5194TIP3   OH237140   4.881   0.192   7.611
 5194TIP3    H137141   4.872   0.130   7.683
 5194TIP3    H237142   4.975   0.214   7.610
 5195TIP3   OH237143   5.031   2.364   8.624
 5195TIP3    H137144   4.945   2.400   8.603
 5195TIP3    H237145   5.027   2.273   8.593
 5196TIP3   OH237146   3.129   2.566   1.724
 5196TIP3    H137147   3.041   2.547   1.757
 5196TIP3    H237148   3.173   2.607   1.798
 5197TIP3   OH237149   3.406   2.097   8.229
 5197TIP3    H137150   3.372   2.041   8.160
 5197TIP3    H237151   3.348   2.173   8.230
 5198TIP3   OH237152   3.067   2.286   1.409
 5198TIP3    H137153   3.015   2.242   1.342
 5198TIP3    H237154   3.153   2.244   1.404
 5199TIP3   OH237155   4.205   4.285   0.929
 5199TIP3    H137156   4.299   4.295   0.912
 5199TIP3    H237157   4.162   4.329   0.855
 5200TIP3   OH237158   4.875   5.988   1.663
 5200TIP3    H137159   4.888   6.081   1.645
 5200TIP3    H237160   4.919   5.973   1.747
 5201TIP3   OH237161   3.032   5.023   2.456
 5201TIP3    H137162   3.006   5.080   2.383
 5201TIP3    H237163   2.957   5.026   2.516
 5202TIP3   OH237164   3.120   3.020   6.171
 5202TIP3    H137165   3.028   3.020   6.147
 5202TIP3    H237166   3.132   2.940   6.222
 5203TIP3   OH237167   5.183   5.702   1.278
 5203TIP3    H137168   5.095   5.664   1.285
 5203TIP3    H237169   5.170   5.781   1.225
 5204TIP3   OH237170   5.864   3.561   8.686
 5204TIP3    H137171   5.832   3.626   0.015
 5204TIP3    H237172   5.791   3.551   8.625
 5205TIP3   OH237173   1.648   0.690   0.177
 5205TIP3    H137174   1.606   0.725   0.255
 5205TIP3    H237175   1.671   0.600   0.201
 5206TIP3   OH237176   4.610   3.430   0.042
 5206TIP3    H137177   4.639   3.511   0.084
 5206TIP3    H237178   4.551   3.390   0.105
 5207TIP3   OH237179   6.224   3.852   7.447
 5207TIP3    H137180   6.216   3.945   7.426
 5207TIP3    H237181   6.303   3.847   7.501
 5208TIP3   OH237182   5.651   2.122   8.494
 5208TIP3    H137183   5.638   2.031   8.468
 5208TIP3    H237184   5.646   2.121   8.590
 5209TIP3   OH237185   1.699   4.450   7.304
 5209TIP3    H137186   1.715   4.542   7.325
 5209TIP3    H237187   1.704   4.405   7.388
 5210TIP3   OH237188   4.142   3.896   6.335
 5210TIP3    H137189   4.120   3.874   6.244
 5210TIP3    H237190   4.238   3.900   6.336
 5211TIP3   OH237191   1.077   6.505   0.555
 5211TIP3    H137192   1.162   6.460   0.553
 5211TIP3    H237193   1.040   6.483   0.640
 5212TIP3   OH237194   1.049   2.012   7.098
 5212TIP3    H137195   1.080   2.102   7.102
 5212TIP3    H237196   0.957   2.017   7.123
 5213TIP3   OH237197   6.552   2.281   2.458
 5213TIP3    H137198   6.592   2.366   2.475
 5213TIP3    H237199   6.561   2.232   2.540
 5214TIP3   OH237200   1.822   0.956   7.140
 5214TIP3    H137201   1.893   0.897   7.115
 5214TIP3    H237202   1.857   1.044   7.124
 5215TIP3   OH237203   6.500   6.838   8.424
 5215TIP3    H137204   6.493   6.824   8.329
 5215TIP3    H237205   6.593   6.829   8.443
 5216TIP3   OH237206   1.713   0.453   7.928
 5216TIP3    H137207   1.781   0.505   7.970
 5216TIP3    H237208   1.714   0.370   7.975
 5217TIP3   OH237209   0.693   0.384   6.957
 5217TIP3    H137210   0.774   0.424   6.988
 5217TIP3    H237211   0.714   0.291   6.947
 5218TIP3   OH237212   6.602   3.621   8.085
 5218TIP3    H137213   6.514   3.585   8.077
 5218TIP3    H237214   6.616   3.629   8.179
 5219TIP3   OH237215   4.785   5.555   7.191
 5219TIP3    H137216   4.815   5.565   7.100
 5219TIP3    H237217   4.833   5.621   7.240
 5220TIP3   OH237218   1.582   4.085   6.486
 5220TIP3    H137219   1.558   4.162   6.538
 5220TIP3    H237220   1.664   4.110   6.444
 5221TIP3   OH237221   4.391   6.230   7.621
 5221TIP3    H137222   4.377   6.150   7.672
 5221TIP3    H237223   4.409   6.298   7.686
 5222TIP3   OH237224   3.416   3.274   7.817
 5222TIP3    H137225   3.363   3.226   7.881
 5222TIP3    H237226   3.374   3.360   7.812
 5223TIP3   OH237227   3.133   1.718   8.301
 5223TIP3    H137228   3.140   1.728   8.206
 5223TIP3    H237229   3.172   1.798   8.336
 5224TIP3   OH237230   6.363   0.587   6.544
 5224TIP3    H137231   6.314   0.636   6.479
 5224TIP3    H237232   6.451   0.624   6.540
 5225TIP3   OH237233   2.027   6.238   1.015
 5225TIP3    H137234   1.989   6.325   1.012
 5225TIP3    H237235   2.108   6.245   0.964
 5226TIP3   OH237236   6.523   2.709   1.236
 5226TIP3    H137237   6.451   2.714   1.173
 5226TIP3    H237238   6.492   2.757   1.313
 5227TIP3   OH237239   1.565   2.155   1.677
 5227TIP3    H137240   1.471   2.152   1.659
 5227TIP3    H237241   1.581   2.243   1.711
 5228TIP3   OH237242   0.807   3.611   7.315
 5228TIP3    H137243   0.836   3.547   7.250
 5228TIP3    H237244   0.714   3.592   7.328
 5229TIP3   OH237245   0.368   3.775   7.476
 5229TIP3    H137246   0.280   3.738   7.474
 5229TIP3    H237247   0.393   3.773   7.569
 5230TIP3   OH237248   2.060   0.160   0.750
 5230TIP3    H137249   2.088   0.096   0.684
 5230TIP3    H237250   1.991   0.210   0.706
 5231TIP3   OH237251   2.767   1.279   6.224
 5231TIP3    H137252   2.843   1.308   6.275
 5231TIP3    H237253   2.711   1.357   6.218
 5232TIP3   OH237254   0.647   1.012   6.357
 5232TIP3    H137255   0.743   1.005   6.359
 5232TIP3    H237256   0.619   0.972   6.440
 5233TIP3   OH237257   3.100   4.495   0.032
 5233TIP3    H137258   3.191   4.463   0.028
 5233TIP3    H237259   3.047   4.418   0.012
 5234TIP3   OH237260   2.368   6.780   1.229
 5234TIP3    H137261   2.408   0.006   1.173
 5234TIP3    H237262   2.277   6.809   1.239
 5235TIP3   OH237263   3.670   3.740   7.071
 5235TIP3    H137264   3.640   3.716   6.983
 5235TIP3    H237265   3.632   3.827   7.087
 5236TIP3   OH237266   5.190   1.536   7.840
 5236TIP3    H137267   5.268   1.480   7.835
 5236TIP3    H237268   5.221   1.618   7.878
 5237TIP3   OH237269   6.657   6.764   8.175
 5237TIP3    H137270   6.696   6.696   8.120
 5237TIP3    H237271   6.721   6.777   8.245
 5238TIP3   OH237272   1.906   5.999   2.206
 5238TIP3    H137273   1.938   6.050   2.132
 5238TIP3    H237274   1.863   5.923   2.166
 5239TIP3   OH237275   1.016   0.525   7.581
 5239TIP3    H137276   1.103   0.485   7.591
 5239TIP3    H237277   0.985   0.539   7.670
 5240TIP3   OH237278   6.675   5.046   1.233
 5240TIP3    H137279   6.650   5.134   1.259
 5240TIP3    H237280   6.771   5.046   1.238
 5241TIP3   OH237281   4.619   3.967   6.183
 5241TIP3    H137282   4.611   4.053   6.226
 5241TIP3    H237283   4.545   3.917   6.218
 5242TIP3   OH237284   5.114   0.823   0.319
 5242TIP3    H137285   5.111   0.819   0.224
 5242TIP3    H237286   5.038   0.771   0.347
 5243TIP3   OH237287   1.076   6.196   0.029
 5243TIP3    H137288   1.167   6.218   0.009
 5243TIP3    H237289   1.082   6.138   0.106
 5244TIP3   OH237290   4.917   3.395   0.791
 5244TIP3    H137291   4.981   3.332   0.758
 5244TIP3    H237292   4.866   3.346   0.855
 5245TIP3   OH237293   3.803   5.239   0.758
 5245TIP3    H137294   3.864   5.231   0.832
 5245TIP3    H237295   3.750   5.316   0.780
 5246TIP3   OH237296   4.790   5.089   6.788
 5246TIP3    H137297   4.851   5.043   6.730
 5246TIP3    H237298   4.707   5.042   6.778
 5247TIP3   OH237299   1.489   2.273   0.265
 5247TIP3    H137300   1.473   2.306   0.177
 5247TIP3    H237301   1.430   2.198   0.274
 5248TIP3   OH237302   1.977   2.344   1.398
 5248TIP3    H137303   1.961   2.328   1.305
 5248TIP3    H237304   2.023   2.265   1.428
 5249TIP3   OH237305   2.214   2.889   0.221
 5249TIP3    H137306   2.189   2.797   0.215
 5249TIP3    H237307   2.163   2.932   0.152
 5250TIP3   OH237308   4.823   1.099   1.448
 5250TIP3    H137309   4.866   1.162   1.390
 5250TIP3    H237310   4.788   1.153   1.519
 5251TIP3   OH237311   6.118   5.453   0.122
 5251TIP3    H137312   6.100   5.542   0.092
 5251TIP3    H237313   6.075   5.448   0.208
 5252TIP3   OH237314   6.749   6.650   7.908
 5252TIP3    H137315   6.664   6.646   7.865
 5252TIP3    H237316   6.789   6.731   7.874
 5253TIP3   OH237317   3.430   0.120   0.797
 5253TIP3    H137318   3.358   0.156   0.746
 5253TIP3    H237319   3.388   0.063   0.861
 5254TIP3   OH237320   4.742   2.096   8.430
 5254TIP3    H137321   4.732   2.034   8.358
 5254TIP3    H237322   4.762   2.179   8.388
 5255TIP3   OH237323   1.442   1.139   8.717
 5255TIP3    H137324   1.453   1.054   8.675
 5255TIP3    H237325   1.439   1.120   0.077
 5256TIP3   OH237326   3.498   2.581   8.721
 5256TIP3    H137327   3.565   2.648   8.734
 5256TIP3    H237328   3.425   2.628   8.682
 5257TIP3   OH237329   0.159   0.317   1.512
 5257TIP3    H137330   0.193   0.269   1.587
 5257TIP3    H237331   0.160   0.254   1.440
 5258TIP3   OH237332   1.873   5.884   7.115
 5258TIP3    H137333   1.916   5.959   7.156
 5258TIP3    H237334   1.898   5.890   7.023
 5259TIP3   OH237335   1.381   5.517   7.445
 5259TIP3    H137336   1.309   5.554   7.495
 5259TIP3    H237337   1.413   5.444   7.498
 5260TIP3   OH237338   4.309   6.733   8.688
 5260TIP3    H137339   4.243   6.768   8.627
 5260TIP3    H237340   4.374   6.692   8.631
 5261TIP3   OH237341   4.353   6.482   8.546
 5261TIP3    H137342   4.326   6.406   8.598
 5261TIP3    H237343   4.436   6.457   8.507
 5262TIP3   OH237344   1.178   1.877   8.587
 5262TIP3    H137345   1.188   1.962   8.545
 5262TIP3    H237346   1.108   1.890   8.651
 5263TIP3   OH237347   5.390   5.587   6.667
 5263TIP3    H137348   5.382   5.620   6.577
 5263TIP3    H237349   5.347   5.654   6.720
 5264TIP3   OH237350   0.955   2.586   1.959
 5264TIP3    H137351   0.953   2.627   1.873
 5264TIP3    H237352   1.016   2.512   1.949
 5265TIP3   OH237353   5.053   3.827   6.450
 5265TIP3    H137354   5.095   3.900   6.496
 5265TIP3    H237355   5.124   3.790   6.397
 5266TIP3   OH237356   4.640   1.605   0.430
 5266TIP3    H137357   4.730   1.637   0.425
 5266TIP3    H237358   4.648   1.522   0.478
 5267TIP3   OH237359   0.205   1.442   8.023
 5267TIP3    H137360   0.296   1.415   8.037
 5267TIP3    H237361   0.181   1.401   7.939
 5268TIP3   OH237362   5.068   3.311   8.216
 5268TIP3    H137363   5.064   3.238   8.278
 5268TIP3    H237364   5.010   3.285   8.145
 5269TIP3   OH237365   6.557   1.970   7.829
 5269TIP3    H137366   6.559   1.876   7.813
 5269TIP3    H237367   6.608   2.008   7.759
 5270TIP3   OH237368   3.417   5.394   7.971
 5270TIP3    H137369   3.340   5.448   7.992
 5270TIP3    H237370   3.389   5.340   7.898
 5271TIP3   OH237371   3.088   2.958   1.310
 5271TIP3    H137372   3.070   2.916   1.395
 5271TIP3    H237373   3.068   2.890   1.246
 5272TIP3   OH237374   2.260   4.687   0.815
 5272TIP3    H137375   2.301   4.659   0.897
 5272TIP3    H237376   2.311   4.764   0.788
 5273TIP3   OH237377   0.434   5.579   6.742
 5273TIP3    H137378   0.414   5.494   6.702
 5273TIP3    H237379   0.352   5.628   6.736
 5274TIP3   OH237380   6.624   0.117   7.631
 5274TIP3    H137381   6.564   0.160   7.692
 5274TIP3    H237382   6.595   0.146   7.544
 5275TIP3   OH237383   6.477   1.764   0.321
 5275TIP3    H137384   6.388   1.739   0.295
 5275TIP3    H237385   6.534   1.723   0.257
 5276TIP3   OH237386   2.925   4.192   1.196
 5276TIP3    H137387   2.986   4.211   1.267
 5276TIP3    H237388   2.939   4.099   1.176
 5277TIP3   OH237389   0.185   4.375   0.603
 5277TIP3    H137390   0.158   4.461   0.571
 5277TIP3    H237391   0.133   4.361   0.682
 5278TIP3   OH237392   2.672   3.367   7.605
 5278TIP3    H137393   2.696   3.415   7.684
 5278TIP3    H237394   2.581   3.390   7.589
 5279TIP3   OH237395   5.366   0.521   0.405
 5279TIP3    H137396   5.395   0.612   0.412
 5279TIP3    H237397   5.272   0.527   0.387
 5280TIP3   OH237398   2.340   2.165   0.353
 5280TIP3    H137399   2.433   2.189   0.349
 5280TIP3    H237400   2.313   2.158   0.262
 5281TIP3   OH237401   1.801   6.013   0.968
 5281TIP3    H137402   1.727   6.073   0.973
 5281TIP3    H237403   1.878   6.070   0.964
 5282TIP3   OH237404   3.426   0.042   0.129
 5282TIP3    H137405   3.492   0.038   0.198
 5282TIP3    H237406   3.453   6.817   0.065
 5283TIP3   OH237407   4.230   2.469   6.777
 5283TIP3    H137408   4.184   2.540   6.822
 5283TIP3    H237409   4.163   2.401   6.766
 5284TIP3   OH237410   4.882   1.717   2.218
 5284TIP3    H137411   4.896   1.810   2.202
 5284TIP3    H237412   4.969   1.682   2.236
 5285TIP3   OH237413   3.732   5.703   8.006
 5285TIP3    H137414   3.728   5.609   7.988
 5285TIP3    H237415   3.799   5.737   7.947
 5286TIP3   OH237416   6.453   5.552   1.040
 5286TIP3    H137417   6.496   5.527   0.958
 5286TIP3    H237418   6.429   5.469   1.081
 5287TIP3   OH237419   6.045   3.306   7.112
 5287TIP3    H137420   5.956   3.300   7.146
 5287TIP3    H237421   6.100   3.316   7.191
 5288TIP3   OH237422   3.873   5.452   0.321
 5288TIP3    H137423   3.778   5.447   0.317
 5288TIP3    H237424   3.891   5.513   0.392
 5289TIP3   OH237425   0.542   1.440   7.524
 5289TIP3    H137426   0.611   1.377   7.547
 5289TIP3    H237427   0.561   1.463   7.433
 5290TIP3   OH237428   0.925   2.676   1.265
 5290TIP3    H137429   1.015   2.670   1.234
 5290TIP3    H237430   0.916   2.767   1.293
 5291TIP3   OH237431   0.838   4.356   1.641
 5291TIP3    H137432   0.931   4.376   1.653
 5291TIP3    H237433   0.794   4.438   1.662
 5292TIP3   OH237434   2.130   2.236   1.960
 5292TIP3    H137435   2.101   2.280   2.040
 5292TIP3    H237436   2.093   2.288   1.889
 5293TIP3   OH237437   0.452   5.767   7.251
 5293TIP3    H137438   0.506   5.758   7.173
 5293TIP3    H237439   0.438   5.676   7.281
 5294TIP3   OH237440   1.518   1.930   6.030
 5294TIP3    H137441   1.503   2.020   6.058
 5294TIP3    H237442   1.494   1.877   6.105
 5295TIP3   OH237443   2.623   2.806   0.016
 5295TIP3    H137444   2.528   2.812   0.006
 5295TIP3    H237445   2.657   2.891   8.723
 5296TIP3   OH237446   4.211   3.910   7.162
 5296TIP3    H137447   4.207   3.880   7.253
 5296TIP3    H237448   4.121   3.903   7.130
 5297TIP3   OH237449   3.246   1.984   7.305
 5297TIP3    H137450   3.208   1.994   7.218
 5297TIP3    H237451   3.307   2.057   7.313
 5298TIP3   OH237452   5.314   1.092   8.463
 5298TIP3    H137453   5.241   1.144   8.428
 5298TIP3    H237454   5.360   1.151   8.521
 5299TIP3   OH237455   3.017   5.645   1.983
 5299TIP3    H137456   3.031   5.566   1.931
 5299TIP3    H237457   3.064   5.629   2.064
 5300TIP3   OH237458   2.891   2.197   7.045
 5300TIP3    H137459   2.836   2.140   7.097
 5300TIP3    H237460   2.923   2.263   7.107
 5301TIP3   OH237461   3.338   0.117   7.760
 5301TIP3    H137462   3.256   0.074   7.785
 5301TIP3    H237463   3.327   0.137   7.667
 5302TIP3   OH237464   6.781   1.372   7.804
 5302TIP3    H137465   6.807   1.299   7.861
 5302TIP3    H237466   6.710   1.337   7.750
 5303TIP3   OH237467   6.521   0.862   0.377
 5303TIP3    H137468   6.508   0.902   0.462
 5303TIP3    H237469   6.448   0.893   0.324
 5304TIP3   OH237470   2.307   2.952   7.706
 5304TIP3    H137471   2.339   2.943   7.796
 5304TIP3    H237472   2.361   3.021   7.668
 5305TIP3   OH237473   4.357   4.909   7.663
 5305TIP3    H137474   4.370   5.004   7.665
 5305TIP3    H237475   4.430   4.876   7.610
 5306TIP3   OH237476   5.513   5.140   8.106
 5306TIP3    H137477   5.483   5.215   8.055
 5306TIP3    H237478   5.436   5.113   8.156
 5307TIP3   OH237479   4.778   5.364   1.653
 5307TIP3    H137480   4.806   5.439   1.600
 5307TIP3    H237481   4.708   5.400   1.708
 5308TIP3   OH237482   3.743   0.097   6.483
 5308TIP3    H137483   3.701   0.026   6.433
 5308TIP3    H237484   3.737   0.068   6.574
 5309TIP3   OH237485   4.841   4.437   7.318
 5309TIP3    H137486   4.922   4.450   7.368
 5309TIP3    H237487   4.820   4.524   7.284
 5310TIP3   OH237488   0.157   2.690   6.466
 5310TIP3    H137489   0.211   2.767   6.483
 5310TIP3    H237490   0.075   2.709   6.512
 5311TIP3   OH237491   4.322   5.062   1.800
 5311TIP3    H137492   4.316   5.056   1.895
 5311TIP3    H237493   4.312   4.972   1.769
 5312TIP3   OH237494   5.550   1.259   1.926
 5312TIP3    H137495   5.484   1.219   1.982
 5312TIP3    H237496   5.556   1.350   1.956
 5313TIP3   OH237497   5.532   1.591   0.986
 5313TIP3    H137498   5.520   1.504   1.023
 5313TIP3    H237499   5.592   1.635   1.047
 5314TIP3   OH237500   5.630   2.914   8.681
 5314TIP3    H137501   5.545   2.958   8.679
 5314TIP3    H237502   5.614   2.829   8.641
 5315TIP3   OH237503   6.668   5.748   6.494
 5315TIP3    H137504   6.729   5.817   6.521
 5315TIP3    H237505   6.621   5.786   6.419
 5316TIP3   OH237506   2.162   1.159   7.464
 5316TIP3    H137507   2.148   1.248   7.433
 5316TIP3    H237508   2.143   1.104   7.388
 5317TIP3   OH237509   4.490   4.822   8.426
 5317TIP3    H137510   4.500   4.871   8.344
 5317TIP3    H237511   4.565   4.762   8.428
 5318TIP3   OH237512   6.721   6.371   1.162
 5318TIP3    H137513   6.699   6.424   1.239
 5318TIP3    H237514   6.816   6.358   1.169
 5319TIP3   OH237515   4.878   2.982   7.621
 5319TIP3    H137516   4.794   3.003   7.580
 5319TIP3    H237517   4.882   3.040   7.698
 5320TIP3   OH237518   0.504   5.013   6.735
 5320TIP3    H137519   0.504   4.960   6.655
 5320TIP3    H237520   0.434   4.975   6.789
 5321TIP3   OH237521   1.377   4.097   7.915
 5321TIP3    H137522   1.425   4.173   7.886
 5321TIP3    H237523   1.441   4.025   7.914
 5322TIP3   OH237524   2.459   0.393   7.455
 5322TIP3    H137525   2.492   0.304   7.440
 5322TIP3    H237526   2.476   0.439   7.373
 5323TIP3   OH237527   4.393   0.789   8.670
 5323TIP3    H137528   4.303   0.815   8.652
 5323TIP3    H237529   4.397   0.780   0.031
 5324TIP3   OH237530   6.239   2.256   2.014
 5324TIP3    H137531   6.175   2.249   2.085
 5324TIP3    H237532   6.318   2.288   2.056
 5325TIP3   OH237533   6.270   4.099   0.100
 5325TIP3    H137534   6.312   4.126   0.181
 5325TIP3    H237535   6.243   4.008   0.116
 5326TIP3   OH237536   5.223   3.612   1.525
 5326TIP3    H137537   5.239   3.546   1.592
 5326TIP3    H237538   5.160   3.571   1.465
 5327TIP3   OH237539   0.109   3.155   7.061
 5327TIP3    H137540   0.081   3.240   7.094
 5327TIP3    H237541   0.197   3.170   7.027
 5328TIP3   OH237542   3.206   3.104   7.668
 5328TIP3    H137543   3.190   3.010   7.673
 5328TIP3    H237544   3.250   3.126   7.750
 5329TIP3   OH237545   4.147   1.485   7.437
 5329TIP3    H137546   4.093   1.538   7.495
 5329TIP3    H237547   4.103   1.400   7.434
 5330TIP3   OH237548   5.848   6.454   8.620
 5330TIP3    H137549   5.795   6.375   8.632
 5330TIP3    H237550   5.804   6.521   8.671
 5331TIP3   OH237551   6.352   0.068   0.261
 5331TIP3    H137552   6.344   0.061   0.166
 5331TIP3    H237553   6.267   0.041   0.295
 5332TIP3   OH237554   2.187   4.507   0.238
 5332TIP3    H137555   2.275   4.479   0.211
 5332TIP3    H237556   2.135   4.427   0.240
 5333TIP3   OH237557   5.545   4.720   8.309
 5333TIP3    H137558   5.608   4.786   8.279
 5333TIP3    H237559   5.472   4.771   8.343
 5334TIP3   OH237560   3.326   6.266   0.093
 5334TIP3    H137561   3.406   6.256   0.042
 5334TIP3    H237562   3.340   6.347   0.142
 5335TIP3   OH237563   1.961   2.699   0.398
 5335TIP3    H137564   1.908   2.769   0.361
 5335TIP3    H237565   1.944   2.624   0.343
 5336TIP3   OH237566   4.661   2.457   1.392
 5336TIP3    H137567   4.656   2.417   1.479
 5336TIP3    H237568   4.570   2.473   1.368
 5337TIP3   OH237569   2.781   3.918   8.705
 5337TIP3    H137570   2.692   3.884   8.698
 5337TIP3    H237571   2.821   3.870   0.043
 5338TIP3   OH237572   6.261   0.534   7.114
 5338TIP3    H137573   6.248   0.462   7.052
 5338TIP3    H237574   6.208   0.605   7.080
 5339TIP3   OH237575   6.386   3.394   0.200
 5339TIP3    H137576   6.376   3.488   0.188
 5339TIP3    H237577   6.467   3.384   0.251
 5340TIP3   OH237578   2.465   3.071   8.417
 5340TIP3    H137579   2.393   3.134   8.408
 5340TIP3    H237580   2.441   3.020   8.495
 5341TIP3   OH237581   6.313   6.110   8.727
 5341TIP3    H137582   6.253   6.141   8.659
 5341TIP3    H237583   6.291   6.164   0.069
 5342TIP3   OH237584   4.128   4.304   7.361
 5342TIP3    H137585   4.092   4.237   7.420
 5342TIP3    H237586   4.105   4.273   7.273
 5343TIP3   OH237587   5.855   5.846   1.225
 5343TIP3    H137588   5.852   5.864   1.131
 5343TIP3    H237589   5.782   5.896   1.262
 5344TIP3   OH237590   5.240   1.231   8.015
 5344TIP3    H137591   5.331   1.256   8.034
 5344TIP3    H237592   5.238   1.136   8.027
 5345TIP3   OH237593   6.829   2.244   0.873
 5345TIP3    H137594   6.778   2.323   0.853
 5345TIP3    H237595   6.796   2.178   0.812
 5346TIP3   OH237596   5.780   2.134   7.660
 5346TIP3    H137597   5.793   2.177   7.744
 5346TIP3    H237598   5.839   2.180   7.600
 5347TIP3   OH237599   4.786   2.814   0.879
 5347TIP3    H137600   4.747   2.751   0.819
 5347TIP3    H237601   4.880   2.794   0.878
 5348TIP3   OH237602   1.214   3.544   8.629
 5348TIP3    H137603   1.291   3.570   8.680
 5348TIP3    H237604   1.227   3.586   8.544
 5349TIP3   OH237605   3.402   2.011   7.887
 5349TIP3    H137606   3.386   1.931   7.837
 5349TIP3    H237607   3.315   2.043   7.909
 5350TIP3   OH237608   6.439   2.409   6.297
 5350TIP3    H137609   6.467   2.487   6.248
 5350TIP3    H237610   6.344   2.412   6.294
 5351TIP3   OH237611   2.101   3.030   8.728
 5351TIP3    H137612   2.127   3.115   8.693
 5351TIP3    H237613   2.007   3.037   0.007
 5352TIP3   OH237614   2.565   1.648   7.521
 5352TIP3    H137615   2.556   1.554   7.506
 5352TIP3    H237616   2.630   1.654   7.591
 5353TIP3   OH237617   4.415   1.980   7.854
 5353TIP3    H137618   4.349   1.910   7.856
 5353TIP3    H237619   4.423   2.009   7.944
 5354TIP3   OH237620   0.952   1.226   0.459
 5354TIP3    H137621   0.934   1.285   0.386
 5354TIP3    H237622   0.898   1.261   0.531
 5355TIP3   OH237623   6.087   0.414   8.666
 5355TIP3    H137624   6.049   0.357   8.732
 5355TIP3    H237625   6.020   0.421   8.599
 5356TIP3   OH237626   0.421   2.978   1.827
 5356TIP3    H137627   0.429   2.883   1.825
 5356TIP3    H237628   0.500   3.009   1.782
 5357TIP3   OH237629   3.914   4.052   6.917
 5357TIP3    H137630   3.837   4.061   6.860
 5357TIP3    H237631   3.911   4.129   6.974
 5358TIP3   OH237632   1.848   5.153   1.912
 5358TIP3    H137633   1.817   5.093   1.979
 5358TIP3    H237634   1.902   5.100   1.854
 5359TIP3   OH237635   6.714   6.478   0.223
 5359TIP3    H137636   6.663   6.496   0.302
 5359TIP3    H237637   6.778   6.549   0.220
 5360TIP3   OH237638   1.001   3.033   7.223
 5360TIP3    H137639   1.052   3.101   7.266
 5360TIP3    H237640   0.995   2.962   7.287
 5361TIP3   OH237641   0.288   5.593   7.597
 5361TIP3    H137642   0.383   5.581   7.593
 5361TIP3    H237643   0.260   5.543   7.673
 5362TIP3   OH237644   6.702   4.034   7.317
 5362TIP3    H137645   6.668   4.118   7.285
 5362TIP3    H237646   6.641   3.969   7.281
 5363TIP3   OH237647   5.563   2.928   0.433
 5363TIP3    H137648   5.657   2.917   0.446
 5363TIP3    H237649   5.553   3.021   0.411
 5364TIP3   OH237650   2.711   4.006   7.529
 5364TIP3    H137651   2.767   4.064   7.478
 5364TIP3    H237652   2.738   3.918   7.503
 5365TIP3   OH237653   5.242   6.476   0.462
 5365TIP3    H137654   5.201   6.390   0.454
 5365TIP3    H237655   5.308   6.465   0.531
 5366TIP3   OH237656   2.604   1.245   8.002
 5366TIP3    H137657   2.588   1.207   8.088
 5366TIP3    H237658   2.634   1.172   7.948
 5367TIP3   OH237659   3.265   2.244   6.830
 5367TIP3    H137660   3.296   2.257   6.920
 5367TIP3    H237661   3.328   2.183   6.792
 5368TIP3   OH237662   1.926   4.073   6.693
 5368TIP3    H137663   1.871   4.086   6.770
 5368TIP3    H237664   1.908   4.149   6.637
 5369TIP3   OH237665   3.598   1.347   0.157
 5369TIP3    H137666   3.585   1.298   0.238
 5369TIP3    H237667   3.687   1.328   0.130
 5370TIP3   OH237668   3.982   5.889   0.682
 5370TIP3    H137669   3.893   5.859   0.702
 5370TIP3    H237670   3.970   5.965   0.625
 5371TIP3   OH237671   0.313   2.625   8.340
 5371TIP3    H137672   0.244   2.614   8.275
 5371TIP3    H237673   0.352   2.709   8.319
 5372TIP3   OH237674   3.746   3.419   7.754
 5372TIP3    H137675   3.776   3.443   7.842
 5372TIP3    H237676   3.668   3.472   7.740
 5373TIP3   OH237677   3.119   6.742   7.431
 5373TIP3    H137678   3.076   6.657   7.445
 5373TIP3    H237679   3.112   6.757   7.337
 5374TIP3   OH237680   4.245   4.355   7.862
 5374TIP3    H137681   4.235   4.379   7.770
 5374TIP3    H237682   4.337   4.373   7.882
 5375TIP3   OH237683   4.540   2.131   1.717
 5375TIP3    H137684   4.461   2.144   1.770
 5375TIP3    H237685   4.609   2.112   1.780
 5376TIP3   OH237686   3.334   0.832   1.559
 5376TIP3    H137687   3.341   0.924   1.535
 5376TIP3    H237688   3.313   0.787   1.477
 5377TIP3   OH237689   0.371   5.893   0.357
 5377TIP3    H137690   0.373   5.848   0.442
 5377TIP3    H237691   0.283   5.930   0.352
 5378TIP3   OH237692   1.818   6.229   8.137
 5378TIP3    H137693   1.733   6.260   8.106
 5378TIP3    H237694   1.879   6.254   8.068
 5379TIP3   OH237695   2.902   0.812   7.662
 5379TIP3    H137696   2.827   0.796   7.719
 5379TIP3    H237697   2.896   0.905   7.639
 5380TIP3   OH237698   4.306   0.387   8.699
 5380TIP3    H137699   4.393   0.373   8.662
 5380TIP3    H237700   4.279   0.473   8.666
 5381TIP3   OH237701   3.605   2.902   0.262
 5381TIP3    H137702   3.637   2.991   0.256
 5381TIP3    H237703   3.684   2.848   0.261
 5382TIP3   OH237704   0.057   1.479   7.102
 5382TIP3    H137705   0.107   1.411   7.056
 5382TIP3    H237706   0.119   1.515   7.166
 5383TIP3   OH237707   5.440   1.428   7.828
 5383TIP3    H137708   5.466   1.335   7.827
 5383TIP3    H237709   5.495   1.469   7.762
 5384TIP3   OH237710   4.459   2.142   2.763
 5384TIP3    H137711   4.491   2.184   2.684
 5384TIP3    H237712   4.507   2.183   2.834
 5385TIP3   OH237713   0.379   5.751   1.485
 5385TIP3    H137714   0.333   5.755   1.569
 5385TIP3    H237715   0.336   5.817   1.431
 5386TIP3   OH237716   0.482   6.271   0.872
 5386TIP3    H137717   0.568   6.245   0.838
 5386TIP3    H237718   0.423   6.202   0.843
 5387TIP3   OH237719   2.715   2.545   0.579
 5387TIP3    H137720   2.656   2.535   0.654
 5387TIP3    H237721   2.676   2.615   0.527
 5388TIP3   OH237722   1.754   5.141   0.544
 5388TIP3    H137723   1.791   5.135   0.456
 5388TIP3    H237724   1.710   5.226   0.546
 5389TIP3   OH237725   1.669   6.089   7.434
 5389TIP3    H137726   1.652   6.008   7.385
 5389TIP3    H237727   1.643   6.068   7.524
 5390TIP3   OH237728   1.309   6.478   2.603
 5390TIP3    H137729   1.341   6.567   2.616
 5390TIP3    H237730   1.250   6.485   2.528
 5391TIP3   OH237731   6.749   0.406   7.823
 5391TIP3    H137732   6.740   0.463   7.747
 5391TIP3    H237733   6.661   0.400   7.859
 5392TIP3   OH237734   5.584   1.699   7.738
 5392TIP3    H137735   5.602   1.693   7.831
 5392TIP3    H237736   5.569   1.792   7.722
 5393TIP3   OH237737   3.563   0.719   2.224
 5393TIP3    H137738   3.581   0.807   2.259
 5393TIP3    H237739   3.620   0.661   2.275
 5394TIP3   OH237740   5.895   2.139   0.764
 5394TIP3    H137741   5.833   2.159   0.834
 5394TIP3    H237742   5.978   2.124   0.809
 5395TIP3   OH237743   3.818   4.534   1.175
 5395TIP3    H137744   3.912   4.545   1.190
 5395TIP3    H237745   3.812   4.483   1.095
 5396TIP3   OH237746   4.602   1.408   1.417
 5396TIP3    H137747   4.581   1.426   1.326
 5396TIP3    H237748   4.682   1.457   1.434
 5397TIP3   OH237749   2.255   1.700   0.514
 5397TIP3    H137750   2.183   1.654   0.555
 5397TIP3    H237751   2.332   1.676   0.565
 5398TIP3   OH237752   3.619   0.740   8.017
 5398TIP3    H137753   3.625   0.766   7.925
 5398TIP3    H237754   3.706   0.707   8.038
 5399TIP3   OH237755   0.856   3.528   7.604
 5399TIP3    H137756   0.874   3.544   7.512
 5399TIP3    H237757   0.823   3.438   7.607
 5400TIP3   OH237758   1.194   5.914   7.837
 5400TIP3    H137759   1.235   5.961   7.765
 5400TIP3    H237760   1.137   5.978   7.879
 5401TIP3   OH237761   1.140   3.566   0.992
 5401TIP3    H137762   1.045   3.551   0.987
 5401TIP3    H237763   1.178   3.481   0.969
 5402TIP3   OH237764   2.340   5.860   1.828
 5402TIP3    H137765   2.391   5.815   1.896
 5402TIP3    H237766   2.318   5.792   1.765
 5403TIP3   OH237767   6.613   3.695   1.555
 5403TIP3    H137768   6.537   3.749   1.580
 5403TIP3    H237769   6.672   3.701   1.629
 5404TIP3   OH237770   0.198   6.236   8.411
 5404TIP3    H137771   0.203   6.259   8.318
 5404TIP3    H237772   0.217   6.143   8.413
 5405TIP3   OH237773   1.003   0.164   7.210
 5405TIP3    H137774   0.953   0.237   7.172
 5405TIP3    H237775   1.059   0.206   7.275
 5406TIP3   OH237776   6.156   1.141   6.826
 5406TIP3    H137777   6.138   1.135   6.732
 5406TIP3    H237778   6.072   1.126   6.868
 5407TIP3   OH237779   0.377   4.874   8.617
 5407TIP3    H137780   0.302   4.843   8.566
 5407TIP3    H237781   0.453   4.834   8.575
 5408TIP3   OH237782   6.011   1.837   0.786
 5408TIP3    H137783   6.048   1.923   0.808
 5408TIP3    H237784   6.074   1.774   0.820
 5409TIP3   OH237785   4.162   5.258   6.564
 5409TIP3    H137786   4.181   5.269   6.471
 5409TIP3    H237787   4.222   5.190   6.593
 5410TIP3   OH237788   3.249   0.736   1.322
 5410TIP3    H137789   3.219   0.653   1.286
 5410TIP3    H237790   3.191   0.801   1.282
 5411TIP3   OH237791   3.925   0.328   0.466
 5411TIP3    H137792   3.896   0.299   0.380
 5411TIP3    H237793   3.934   0.248   0.517
 5412TIP3   OH237794   0.798   5.988   0.412
 5412TIP3    H137795   0.750   5.985   0.329
 5412TIP3    H237796   0.825   5.898   0.428
 5413TIP3   OH237797   4.812   5.531   8.460
 5413TIP3    H137798   4.735   5.490   8.499
 5413TIP3    H237799   4.788   5.624   8.452
 5414TIP3   OH237800   5.885   3.909   8.127
 5414TIP3    H137801   5.858   3.977   8.189
 5414TIP3    H237802   5.980   3.911   8.128
 5415TIP3   OH237803   0.074   5.713   8.462
 5415TIP3    H137804   0.138   5.730   8.532
 5415TIP3    H237805   0.000   5.673   8.508
 5416TIP3   OH237806   3.269   1.312   0.157
 5416TIP3    H137807   3.330   1.246   0.123
 5416TIP3    H237808   3.185   1.267   0.165
 5417TIP3   OH237809   0.309   5.373   1.437
 5417TIP3    H137810   0.263   5.304   1.389
 5417TIP3    H237811   0.354   5.327   1.508
 5418TIP3   OH237812   0.843   4.989   2.198
 5418TIP3    H137813   0.921   4.955   2.154
 5418TIP3    H237814   0.861   5.082   2.213
 5419TIP3   OH237815   2.098   4.642   8.725
 5419TIP3    H137816   2.152   4.599   0.057
 5419TIP3    H237817   2.023   4.676   0.040
 5420TIP3   OH237818   3.971   1.552   0.244
 5420TIP3    H137819   3.951   1.548   0.338
 5420TIP3    H237820   4.059   1.589   0.239
 5421TIP3   OH237821   2.145   0.885   0.430
 5421TIP3    H137822   2.178   0.926   0.350
 5421TIP3    H237823   2.079   0.823   0.399
 5422TIP3   OH237824   2.301   5.738   1.284
 5422TIP3    H137825   2.229   5.704   1.337
 5422TIP3    H237826   2.353   5.661   1.261
 5423TIP3   OH237827   1.966   3.859   8.450
 5423TIP3    H137828   1.986   3.949   8.477
 5423TIP3    H237829   1.981   3.807   8.529
 5424TIP3   OH237830   6.727   4.399   1.225
 5424TIP3    H137831   6.728   4.493   1.245
 5424TIP3    H237832   6.801   4.363   1.273
 5425TIP3   OH237833   2.766   5.489   8.402
 5425TIP3    H137834   2.819   5.557   8.361
 5425TIP3    H237835   2.782   5.498   8.496
 5426TIP3   OH237836   0.349   3.546   7.134
 5426TIP3    H137837   0.317   3.635   7.117
 5426TIP3    H237838   0.379   3.549   7.225
 5427TIP3   OH237839   2.292   3.831   7.994
 5427TIP3    H137840   2.269   3.828   8.087
 5427TIP3    H237841   2.350   3.757   7.981
 5428TIP3   OH237842   6.287   4.645   0.444
 5428TIP3    H137843   6.311   4.572   0.388
 5428TIP3    H237844   6.233   4.702   0.389
 5429TIP3   OH237845   3.747   5.905   0.852
 5429TIP3    H137846   3.694   5.831   0.880
 5429TIP3    H237847   3.684   5.974   0.830
 5430TIP3   OH237848   4.345   3.019   0.724
 5430TIP3    H137849   4.403   2.944   0.724
 5430TIP3    H237850   4.259   2.983   0.745
 5431TIP3   OH237851   5.047   1.703   8.429
 5431TIP3    H137852   5.024   1.702   8.522
 5431TIP3    H237853   4.988   1.639   8.389
 5432TIP3   OH237854   5.989   0.404   6.482
 5432TIP3    H137855   5.952   0.490   6.504
 5432TIP3    H237856   6.066   0.424   6.428
 5433TIP3   OH237857   4.874   3.317   7.511
 5433TIP3    H137858   4.870   3.273   7.426
 5433TIP3    H237859   4.967   3.313   7.536
 5434TIP3   OH237860   6.725   3.767   1.300
 5434TIP3    H137861   6.664   3.714   1.352
 5434TIP3    H237862   6.774   3.818   1.365
 5435TIP3   OH237863   6.779   3.902   7.737
 5435TIP3    H137864   6.794   3.809   7.720
 5435TIP3    H237865   0.010   3.927   7.795
 5436TIP3   OH237866   1.962   3.814   1.764
 5436TIP3    H137867   1.980   3.874   1.836
 5436TIP3    H237868   1.868   3.822   1.750
 5437TIP3   OH237869   2.869   0.357   7.539
 5437TIP3    H137870   2.859   0.276   7.490
 5437TIP3    H237871   2.794   0.359   7.599
 5438TIP3   OH237872   2.007   1.195   7.138
 5438TIP3    H137873   1.996   1.204   7.043
 5438TIP3    H237874   2.091   1.236   7.157
 5439TIP3   OH237875   2.374   2.262   0.806
 5439TIP3    H137876   2.317   2.218   0.870
 5439TIP3    H237877   2.354   2.220   0.723
 5440TIP3   OH237878   0.456   4.101   8.057
 5440TIP3    H137879   0.515   4.169   8.089
 5440TIP3    H237880   0.424   4.056   8.135
 5441TIP3   OH237881   5.542   3.862   0.230
 5441TIP3    H137882   5.547   3.788   0.170
 5441TIP3    H237883   5.450   3.889   0.227
 5442TIP3   OH237884   0.743   0.661   0.103
 5442TIP3    H137885   0.669   0.659   0.042
 5442TIP3    H237886   0.708   0.622   0.184
 5443TIP3   OH237887   0.505   4.171   1.312
 5443TIP3    H137888   0.507   4.182   1.217
 5443TIP3    H237889   0.564   4.238   1.346
 5444TIP3   OH237890   5.740   3.829   7.594
 5444TIP3    H137891   5.753   3.887   7.519
 5444TIP3    H237892   5.748   3.886   7.670
 5445TIP3   OH237893   6.188   0.934   1.915
 5445TIP3    H137894   6.225   0.932   2.003
 5445TIP3    H237895   6.171   1.026   1.897
 5446TIP3   OH237896   0.776   1.683   1.203
 5446TIP3    H137897   0.844   1.646   1.259
 5446TIP3    H237898   0.767   1.773   1.232
 5447TIP3   OH237899   5.406   6.295   1.747
 5447TIP3    H137900   5.333   6.279   1.687
 5447TIP3    H237901   5.456   6.367   1.706
 5448TIP3   OH237902   5.489   4.891   7.420
 5448TIP3    H137903   5.394   4.898   7.436
 5448TIP3    H237904   5.507   4.959   7.355
 5449TIP3   OH237905   2.873   6.148   7.217
 5449TIP3    H137906   2.851   6.206   7.290
 5449TIP3    H237907   2.846   6.061   7.247
 5450TIP3   OH237908   1.153   3.968   2.323
 5450TIP3    H137909   1.220   4.006   2.265
 5450TIP3    H237910   1.123   3.890   2.277
 5451TIP3   OH237911   2.923   4.881   0.897
 5451TIP3    H137912   2.954   4.809   0.952
 5451TIP3    H237913   2.956   4.861   0.809
 5452TIP3   OH237914   1.469   0.080   7.780
 5452TIP3    H137915   1.465   0.047   7.870
 5452TIP3    H237916   1.550   0.044   7.745
 5453TIP3   OH237917   0.064   3.656   0.729
 5453TIP3    H137918   0.028   3.618   0.810
 5453TIP3    H237919   6.832   3.707   0.693
 5454TIP3   OH237920   3.715   0.009   1.696
 5454TIP3    H137921   3.689   0.075   1.633
 5454TIP3    H237922   3.803   6.823   1.669
 5455TIP3   OH237923   4.175   2.662   7.133
 5455TIP3    H137924   4.113   2.647   7.061
 5455TIP3    H237925   4.183   2.757   7.138
 5456TIP3   OH237926   5.273   0.355   1.284
 5456TIP3    H137927   5.221   0.421   1.330
 5456TIP3    H237928   5.310   0.401   1.209
 5457TIP3   OH237929   3.116   6.795   7.810
 5457TIP3    H137930   3.182   6.731   7.781
 5457TIP3    H237931   3.033   6.749   7.801
 5458TIP3   OH237932   5.870   3.372   0.575
 5458TIP3    H137933   5.877   3.303   0.640
 5458TIP3    H237934   5.959   3.407   0.568
 5459TIP3   OH237935   4.334   4.890   0.535
 5459TIP3    H137936   4.275   4.824   0.499
 5459TIP3    H237937   4.353   4.861   0.624
 5460TIP3   OH237938   5.856   0.200   6.319
 5460TIP3    H137939   5.930   0.180   6.261
 5460TIP3    H237940   5.895   0.250   6.391
 5461TIP3   OH237941   5.680   3.569   0.791
 5461TIP3    H137942   5.717   3.646   0.834
 5461TIP3    H237943   5.690   3.498   0.855
 5462TIP3   OH237944   3.360   2.415   1.229
 5462TIP3    H137945   3.439   2.462   1.205
 5462TIP3    H237946   3.347   2.435   1.322
 5463TIP3   OH237947   5.048   3.262   6.615
 5463TIP3    H137948   5.027   3.352   6.592
 5463TIP3    H237949   5.132   3.245   6.571
 5464TIP3   OH237950   0.935   4.550   7.804
 5464TIP3    H137951   0.861   4.501   7.767
 5464TIP3    H237952   0.897   4.601   7.875
 5465TIP3   OH237953   3.746   0.658   0.114
 5465TIP3    H137954   3.785   0.742   0.139
 5465TIP3    H237955   3.773   0.598   0.183
 5466TIP3   OH237956   2.799   2.958   1.421
 5466TIP3    H137957   2.867   2.897   1.450
 5466TIP3    H237958   2.744   2.907   1.362
 5467TIP3   OH237959   6.560   3.417   1.167
 5467TIP3    H137960   6.594   3.417   1.256
 5467TIP3    H237961   6.465   3.422   1.177
 5468TIP3   OH237962   6.173   0.349   7.761
 5468TIP3    H137963   6.218   0.391   7.688
 5468TIP3    H237964   6.132   0.272   7.723
 5469TIP3   OH237965   1.129   1.942   6.460
 5469TIP3    H137966   1.143   1.855   6.423
 5469TIP3    H237967   1.068   1.984   6.400
 5470TIP3   OH237968   5.621   2.471   8.006
 5470TIP3    H137969   5.536   2.513   8.015
 5470TIP3    H237970   5.679   2.524   8.061
 5471TIP3   OH237971   5.761   5.209   6.688
 5471TIP3    H137972   5.693   5.182   6.626
 5471TIP3    H237973   5.810   5.278   6.643
 5472TIP3   OH237974   6.622   6.582   8.686
 5472TIP3    H137975   6.684   6.512   8.667
 5472TIP3    H237976   6.640   6.606   0.042
 5473TIP3   OH237977   5.698   6.151   6.524
 5473TIP3    H137978   5.698   6.114   6.613
 5473TIP3    H237979   5.789   6.146   6.496
 5474TIP3   OH237980   2.729   2.192   8.520
 5474TIP3    H137981   2.788   2.126   8.556
 5474TIP3    H237982   2.775   2.225   8.443
 5475TIP3   OH237983   2.730   5.503   0.080
 5475TIP3    H137984   2.646   5.545   0.065
 5475TIP3    H237985   2.720   5.415   0.042
 5476TIP3   OH237986   3.174   1.431   8.340
 5476TIP3    H137987   3.148   1.513   8.297
 5476TIP3    H237988   3.269   1.439   8.351
 5477TIP3   OH237989   2.626   4.139   0.072
 5477TIP3    H137990   2.646   4.106   0.160
 5477TIP3    H237991   2.681   4.087   0.014
 5478TIP3   OH237992   2.588   0.869   8.352
 5478TIP3    H137993   2.557   0.815   8.279
 5478TIP3    H237994   2.539   0.838   8.428
 5479TIP3   OH237995   1.495   2.497   8.028
 5479TIP3    H137996   1.464   2.459   8.110
 5479TIP3    H237997   1.537   2.579   8.053
 5480TIP3   OH237998   5.579   6.184   6.118
 5480TIP3    H137999   5.565   6.102   6.166
 5480TIP3    H238000   5.567   6.253   6.183
 5481TIP3   OH238001   3.838   0.301   0.200
 5481TIP3    H138002   3.825   0.328   0.109
 5481TIP3    H238003   3.932   0.307   0.214
 5482TIP3   OH238004   6.740   5.970   8.126
 5482TIP3    H138005   6.659   5.993   8.081
 5482TIP3    H238006   6.800   6.042   8.105
 5483TIP3   OH238007   5.470   0.091   8.734
 5483TIP3    H138008   5.380   0.109   0.024
 5483TIP3    H238009   5.522   0.130   0.070
 5484TIP3   OH238010   4.760   5.085   7.271
 5484TIP3    H138011   4.781   5.008   7.324
 5484TIP3    H238012   4.665   5.088   7.269
 5485TIP3   OH238013   5.974   1.806   8.563
 5485TIP3    H138014   5.979   1.724   8.514
 5485TIP3    H238015   5.892   1.801   8.611
 5486TIP3   OH238016   5.154   1.463   0.414
 5486TIP3    H138017   5.119   1.393   0.469
 5486TIP3    H238018   5.134   1.543   0.461
 5487TIP3   OH238019   5.392   6.588   8.167
 5487TIP3    H138020   5.365   6.506   8.126
 5487TIP3    H238021   5.457   6.625   8.107
 5488TIP3   OH238022   3.713   5.058   1.465
 5488TIP3    H138023   3.666   5.017   1.392
 5488TIP3    H238024   3.706   5.152   1.449
 5489TIP3   OH238025   2.453   4.040   7.840
 5489TIP3    H138026   2.416   3.992   7.915
 5489TIP3    H238027   2.437   4.132   7.861
 5490TIP3   OH238028   5.063   4.599   0.121
 5490TIP3    H138029   5.100   4.681   0.089
 5490TIP3    H238030   5.039   4.617   0.212
 5491TIP3   OH238031   3.401   6.345   1.675
 5491TIP3    H138032   3.400   6.441   1.684
 5491TIP3    H238033   3.407   6.329   1.581
 5492TIP3   OH238034   2.280   1.424   6.905
 5492TIP3    H138035   2.202   1.375   6.928
 5492TIP3    H238036   2.313   1.383   6.825
 5493TIP3   OH238037   6.609   5.652   7.263
 5493TIP3    H138038   6.585   5.560   7.257
 5493TIP3    H238039   6.669   5.657   7.337
 5494TIP3   OH238040   6.589   2.007   6.133
 5494TIP3    H138041   6.517   1.953   6.167
 5494TIP3    H238042   6.663   1.947   6.124
 5495TIP3   OH238043   5.768   4.408   8.393
 5495TIP3    H138044   5.680   4.420   8.358
 5495TIP3    H238045   5.755   4.389   8.486
 5496TIP3   OH238046   3.870   3.943   7.399
 5496TIP3    H138047   3.886   3.923   7.307
 5496TIP3    H238048   3.806   3.878   7.427
 5497TIP3   OH238049   3.694   2.672   1.267
 5497TIP3    H138050   3.658   2.638   1.185
 5497TIP3    H238051   3.739   2.753   1.242
 5498TIP3   OH238052   0.025   2.584   1.812
 5498TIP3    H138053   6.820   2.622   1.887
 5498TIP3    H238054   0.110   2.556   1.847
 5499TIP3   OH238055   4.967   2.592   7.154
 5499TIP3    H138056   4.937   2.629   7.237
 5499TIP3    H238057   4.913   2.634   7.088
 5500TIP3   OH238058   3.428   4.603   6.575
 5500TIP3    H138059   3.415   4.510   6.594
 5500TIP3    H238060   3.519   4.619   6.596
 5501TIP3   OH238061   2.371   6.002   1.321
 5501TIP3    H138062   2.333   6.056   1.252
 5501TIP3    H238063   2.348   5.912   1.296
 5502TIP3   OH238064   6.644   4.837   0.912
 5502TIP3    H138065   6.596   4.777   0.969
 5502TIP3    H238066   6.732   4.799   0.907
 5503TIP3   OH238067   4.156   5.287   1.405
 5503TIP3    H138068   4.245   5.261   1.380
 5503TIP3    H238069   4.148   5.256   1.496
 5504TIP3   OH238070   5.033   4.540   0.615
 5504TIP3    H138071   4.958   4.531   0.556
 5504TIP3    H238072   5.102   4.578   0.562
 5505TIP3   OH238073   3.894   0.917   7.784
 5505TIP3    H138074   3.869   0.826   7.772
 5505TIP3    H238075   3.884   0.933   7.878
 5506TIP3   OH238076   0.472   3.976   7.045
 5506TIP3    H138077   0.463   3.972   6.950
 5506TIP3    H238078   0.505   3.890   7.071
 5507TIP3   OH238079   0.601   0.909   8.173
 5507TIP3    H138080   0.673   0.955   8.130
 5507TIP3    H238081   0.643   0.856   8.241
 5508TIP3   OH238082   0.742   2.337   0.432
 5508TIP3    H138083   0.804   2.273   0.465
 5508TIP3    H238084   0.664   2.287   0.411
 5509TIP3   OH238085   4.494   5.124   7.353
 5509TIP3    H138086   4.479   5.175   7.273
 5509TIP3    H238087   4.483   5.033   7.325
 5510TIP3   OH238088   6.692   5.160   0.351
 5510TIP3    H138089   6.748   5.197   0.283
 5510TIP3    H238090   6.670   5.235   0.406
 5511TIP3   OH238091   0.417   4.932   7.736
 5511TIP3    H138092   0.409   4.932   7.640
 5511TIP3    H238093   0.326   4.937   7.767
 5512TIP3   OH238094   5.832   6.472   0.453
 5512TIP3    H138095   5.747   6.451   0.493
 5512TIP3    H238096   5.896   6.448   0.520
 5513TIP3   OH238097   0.077   2.085   7.542
 5513TIP3    H138098   0.080   2.021   7.470
 5513TIP3    H238099   0.169   2.108   7.556
 5514TIP3   OH238100   4.577   2.818   2.421
 5514TIP3    H138101   4.565   2.905   2.383
 5514TIP3    H238102   4.537   2.823   2.508
 5515TIP3   OH238103   4.065   3.250   1.558
 5515TIP3    H138104   4.108   3.178   1.605
 5515TIP3    H238105   4.087   3.328   1.608
 5516TIP3   OH238106   4.475   0.487   0.709
 5516TIP3    H138107   4.531   0.564   0.719
 5516TIP3    H238108   4.403   0.517   0.653
 5517TIP3   OH238109   2.747   3.257   8.343
 5517TIP3    H138110   2.703   3.174   8.322
 5517TIP3    H238111   2.757   3.254   8.439
 5518TIP3   OH238112   3.822   0.448   8.187
 5518TIP3    H138113   3.805   0.357   8.164
 5518TIP3    H238114   3.916   0.451   8.208
 5519TIP3   OH238115   1.419   6.427   8.492
 5519TIP3    H138116   1.407   6.383   8.576
 5519TIP3    H238117   1.495   6.383   8.453
 5520TIP3   OH238118   3.141   0.177   6.945
 5520TIP3    H138119   3.150   0.271   6.959
 5520TIP3    H238120   3.160   0.165   6.852
 5521TIP3   OH238121   6.005   2.017   1.950
 5521TIP3    H138122   6.042   2.024   2.039
 5521TIP3    H238123   6.002   1.923   1.933
 5522TIP3   OH238124   0.993   0.184   0.887
 5522TIP3    H138125   0.911   0.190   0.838
 5522TIP3    H238126   0.995   0.094   0.919
 5523TIP3   OH238127   5.940   4.656   8.155
 5523TIP3    H138128   5.921   4.621   8.242
 5523TIP3    H238129   6.003   4.726   8.171
 5524TIP3   OH238130   6.228   2.584   0.566
 5524TIP3    H138131   6.156   2.522   0.555
 5524TIP3    H238132   6.283   2.570   0.488
 5525TIP3   OH238133   1.312   2.123   1.499
 5525TIP3    H138134   1.342   2.032   1.492
 5525TIP3    H238135   1.227   2.124   1.455
 5526TIP3   OH238136   1.290   4.300   8.283
 5526TIP3    H138137   1.288   4.364   8.212
 5526TIP3    H238138   1.256   4.347   8.359
 5527TIP3   OH238139   5.934   6.298   7.901
 5527TIP3    H138140   5.964   6.382   7.866
 5527TIP3    H238141   5.986   6.285   7.980
 5528TIP3   OH238142   5.895   5.555   6.903
 5528TIP3    H138143   5.834   5.482   6.912
 5528TIP3    H238144   5.981   5.518   6.925
 5529TIP3   OH238145   5.545   6.681   6.989
 5529TIP3    H138146   5.513   6.757   7.038
 5529TIP3    H238147   5.484   6.672   6.915
 5530TIP3   OH238148   6.298   1.821   8.481
 5530TIP3    H138149   6.366   1.863   8.534
 5530TIP3    H238150   6.217   1.835   8.530
 5531TIP3   OH238151   3.757   1.466   7.361
 5531TIP3    H138152   3.687   1.441   7.421
 5531TIP3    H238153   3.828   1.404   7.379
 5532TIP3   OH238154   6.639   1.369   7.151
 5532TIP3    H138155   6.726   1.400   7.128
 5532TIP3    H238156   6.585   1.389   7.075
 5533TIP3   OH238157   4.308   2.549   8.032
 5533TIP3    H138158   4.274   2.606   7.963
 5533TIP3    H238159   4.235   2.490   8.052
 5534TIP3   OH238160   3.521   0.805   0.015
 5534TIP3    H138161   3.520   0.901   0.020
 5534TIP3    H238162   3.606   0.779   0.051
 5535TIP3   OH238163   1.309   0.033   0.569
 5535TIP3    H138164   1.216   0.056   0.571
 5535TIP3    H238165   1.347   0.082   0.643
 5536TIP3   OH238166   6.021   5.663   7.763
 5536TIP3    H138167   6.038   5.627   7.850
 5536TIP3    H238168   6.108   5.679   7.726
 5537TIP3   OH238169   3.168   3.753   7.751
 5537TIP3    H138170   3.076   3.737   7.770
 5537TIP3    H238171   3.189   3.835   7.796
 5538TIP3   OH238172   0.100   2.555   8.162
 5538TIP3    H138173   0.029   2.619   8.164
 5538TIP3    H238174   0.063   2.476   8.201
 5539TIP3   OH238175   1.407   3.987   0.755
 5539TIP3    H138176   1.441   4.049   0.820
 5539TIP3    H238177   1.389   3.908   0.805
 5540TIP3   OH238178   3.875   6.352   0.274
 5540TIP3    H138179   3.836   6.267   0.257
 5540TIP3    H238180   3.813   6.396   0.333
 5541TIP3   OH238181   1.602   0.910   0.905
 5541TIP3    H138182   1.580   0.956   0.986
 5541TIP3    H238183   1.577   0.819   0.921
 5542TIP3   OH238184   2.179   1.269   0.217
 5542TIP3    H138185   2.133   1.284   0.134
 5542TIP3    H238186   2.139   1.330   0.278
 5543TIP3   OH238187   4.513   2.093   0.926
 5543TIP3    H138188   4.599   2.092   0.969
 5543TIP3    H238189   4.459   2.147   0.983
 5544TIP3   OH238190   5.776   3.483   1.087
 5544TIP3    H138191   5.780   3.457   1.179
 5544TIP3    H238192   5.743   3.405   1.041
 5545TIP3   OH238193   4.322   3.920   7.760
 5545TIP3    H138194   4.316   3.966   7.677
 5545TIP3    H238195   4.388   3.968   7.810
 5546TIP3   OH238196   3.685   4.083   6.760
 5546TIP3    H138197   3.674   4.136   6.681
 5546TIP3    H238198   3.618   4.114   6.820
 5547TIP3   OH238199   0.985   5.976   1.989
 5547TIP3    H138200   0.994   6.009   2.079
 5547TIP3    H238201   0.891   5.964   1.977
 5548TIP3   OH238202   2.685   4.803   1.227
 5548TIP3    H138203   2.638   4.873   1.181
 5548TIP3    H238204   2.619   4.734   1.238
 5549TIP3   OH238205   6.217   1.497   8.498
 5549TIP3    H138206   6.154   1.569   8.489
 5549TIP3    H238207   6.237   1.471   8.408
 5550TIP3   OH238208   4.780   4.094   8.423
 5550TIP3    H138209   4.849   4.032   8.445
 5550TIP3    H238210   4.752   4.069   8.336
 5551TIP3   OH238211   3.656   3.744   0.289
 5551TIP3    H138212   3.562   3.727   0.283
 5551TIP3    H238213   3.674   3.809   0.221
 5552TIP3   OH238214   3.091   6.078   8.142
 5552TIP3    H138215   3.101   6.171   8.119
 5552TIP3    H238216   3.122   6.030   8.066
 5553TIP3   OH238217   2.228   3.613   7.264
 5553TIP3    H138218   2.170   3.598   7.190
 5553TIP3    H238219   2.202   3.699   7.297
 5554TIP3   OH238220   0.043   6.573   7.231
 5554TIP3    H138221   6.839   6.657   7.241
 5554TIP3    H238222   0.096   6.584   7.152
 5555TIP3   OH238223   1.521   3.425   8.117
 5555TIP3    H138224   1.473   3.482   8.057
 5555TIP3    H238225   1.544   3.349   8.065
 5556TIP3   OH238226   3.758   3.922   7.707
 5556TIP3    H138227   3.739   3.932   7.613
 5556TIP3    H238228   3.830   3.984   7.723
 5557TIP3   OH238229   4.673   0.778   7.593
 5557TIP3    H138230   4.644   0.688   7.610
 5557TIP3    H238231   4.711   0.807   7.675
 5558TIP3   OH238232   5.337   2.334   7.785
 5558TIP3    H138233   5.381   2.321   7.869
 5558TIP3    H238234   5.246   2.354   7.808
 5559TIP3   OH238235   1.228   5.912   6.201
 5559TIP3    H138236   1.148   5.870   6.170
 5559TIP3    H238237   1.270   5.847   6.257
 5560TIP3   OH238238   1.564   5.930   7.245
 5560TIP3    H138239   1.609   5.998   7.195
 5560TIP3    H238240   1.597   5.848   7.209
 5561TIP3   OH238241   1.599   0.377   7.114
 5561TIP3    H138242   1.573   0.354   7.025
 5561TIP3    H238243   1.672   0.317   7.134
 5562TIP3   OH238244   0.022   0.811   8.154
 5562TIP3    H138245   6.835   0.853   8.072
 5562TIP3    H238246   0.001   0.718   8.140
 5563TIP3   OH238247   0.969   5.243   0.827
 5563TIP3    H138248   0.934   5.332   0.831
 5563TIP3    H238249   1.038   5.247   0.761
 5564TIP3   OH238250   1.612   5.832   1.679
 5564TIP3    H138251   1.597   5.837   1.585
 5564TIP3    H238252   1.707   5.845   1.688
 5565TIP3   OH238253   5.093   2.186   6.881
 5565TIP3    H138254   5.013   2.134   6.880
 5565TIP3    H238255   5.150   2.143   6.816
 5566TIP3   OH238256   4.988   0.830   0.577
 5566TIP3    H138257   5.032   0.915   0.575
 5566TIP3    H238258   5.056   0.768   0.601
 5567TIP3   OH238259   3.903   6.140   8.181
 5567TIP3    H138260   3.870   6.222   8.146
 5567TIP3    H238261   3.962   6.166   8.252
 5568TIP3   OH238262   4.880   4.733   1.366
 5568TIP3    H138263   4.959   4.725   1.312
 5568TIP3    H238264   4.876   4.826   1.388
 5569TIP3   OH238265   3.448   4.050   7.683
 5569TIP3    H138266   3.516   4.083   7.624
 5569TIP3    H238267   3.490   3.977   7.729
 5570TIP3   OH238268   2.846   1.881   8.352
 5570TIP3    H138269   2.808   1.853   8.435
 5570TIP3    H238270   2.860   1.800   8.303
 5571TIP3   OH238271   2.442   0.453   0.760
 5571TIP3    H138272   2.483   0.367   0.765
 5571TIP3    H238273   2.348   0.435   0.761
 5572TIP3   OH238274   1.917   5.272   0.812
 5572TIP3    H138275   1.926   5.193   0.865
 5572TIP3    H238276   1.952   5.247   0.727
 5573TIP3   OH238277   4.835   1.199   6.717
 5573TIP3    H138278   4.744   1.225   6.702
 5573TIP3    H238279   4.885   1.280   6.709
 5574TIP3   OH238280   4.860   4.836   8.643
 5574TIP3    H138281   4.910   4.911   8.677
 5574TIP3    H238282   4.823   4.868   8.561
 5575TIP3   OH238283   5.225   2.957   8.275
 5575TIP3    H138284   5.147   2.968   8.329
 5575TIP3    H238285   5.193   2.962   8.185
 5576TIP3   OH238286   2.521   1.964   0.286
 5576TIP3    H138287   2.554   2.004   0.206
 5576TIP3    H238288   2.454   2.025   0.317
 5577TIP3   OH238289   3.648   0.939   1.046
 5577TIP3    H138290   3.678   0.850   1.061
 5577TIP3    H238291   3.556   0.938   1.072
 5578TIP3   OH238292   0.309   6.841   2.148
 5578TIP3    H138293   0.336   0.035   2.232
 5578TIP3    H238294   0.388   0.004   2.093
 5579TIP3   OH238295   2.019   0.221   2.503
 5579TIP3    H138296   2.064   0.237   2.586
 5579TIP3    H238297   1.926   0.223   2.526
 5580TIP3   OH238298   1.986   5.460   7.419
 5580TIP3    H138299   1.965   5.465   7.326
 5580TIP3    H238300   1.905   5.431   7.461
 5581TIP3   OH238301   0.714   4.890   1.593
 5581TIP3    H138302   0.773   4.945   1.542
 5581TIP3    H238303   0.760   4.875   1.675
 5582TIP3   OH238304   2.042   4.860   6.676
 5582TIP3    H138305   2.119   4.916   6.690
 5582TIP3    H238306   2.013   4.881   6.587
 5583TIP3   OH238307   3.167   4.503   8.463
 5583TIP3    H138308   3.183   4.515   8.556
 5583TIP3    H238309   3.185   4.589   8.424
 5584TIP3   OH238310   1.306   0.600   7.877
 5584TIP3    H138311   1.309   0.665   7.808
 5584TIP3    H238312   1.388   0.551   7.867
 5585TIP3   OH238313   2.010   5.837   0.843
 5585TIP3    H138314   2.048   5.867   0.926
 5585TIP3    H238315   1.916   5.856   0.852
 5586TIP3   OH238316   0.102   3.475   1.156
 5586TIP3    H138317   0.138   3.540   1.217
 5586TIP3    H238318   0.028   3.518   1.114
 5587TIP3   OH238319   4.117   3.141   7.735
 5587TIP3    H138320   4.204   3.116   7.769
 5587TIP3    H238321   4.117   3.236   7.736
 5588TIP3   OH238322   6.237   3.285   0.981
 5588TIP3    H138323   6.329   3.310   0.973
 5588TIP3    H238324   6.229   3.253   1.071
 5589TIP3   OH238325   0.390   3.413   2.093
 5589TIP3    H138326   0.484   3.399   2.081
 5589TIP3    H238327   0.376   3.504   2.065
 5590TIP3   OH238328   2.406   4.766   0.282
 5590TIP3    H138329   2.440   4.768   0.193
 5590TIP3    H238330   2.381   4.675   0.296
 5591TIP3   OH238331   0.594   0.968   7.200
 5591TIP3    H138332   0.559   0.962   7.111
 5591TIP3    H238333   0.655   0.894   7.207
 5592TIP3   OH238334   4.678   2.498   7.574
 5592TIP3    H138335   4.736   2.564   7.613
 5592TIP3    H238336   4.665   2.433   7.642
 5593TIP3   OH238337   5.449   4.686   1.545
 5593TIP3    H138338   5.354   4.670   1.537
 5593TIP3    H238339   5.482   4.676   1.456
 5594TIP3   OH238340   3.148   5.415   7.373
 5594TIP3    H138341   3.243   5.406   7.384
 5594TIP3    H238342   3.112   5.396   7.459
 5595TIP3   OH238343   3.556   3.072   2.015
 5595TIP3    H138344   3.520   3.040   2.098
 5595TIP3    H238345   3.561   2.994   1.959
 5596TIP3   OH238346   1.170   5.166   2.066
 5596TIP3    H138347   1.129   5.080   2.076
 5596TIP3    H238348   1.150   5.211   2.148
 5597TIP3   OH238349   1.784   5.795   1.225
 5597TIP3    H138350   1.780   5.718   1.168
 5597TIP3    H238351   1.794   5.869   1.165
 5598TIP3   OH238352   0.505   3.012   2.078
 5598TIP3    H138353   0.555   3.092   2.095
 5598TIP3    H238354   0.474   3.022   1.988
 5599TIP3   OH238355   6.774   1.833   7.695
 5599TIP3    H138356   6.767   1.874   7.609
 5599TIP3    H238357   6.835   1.761   7.683
 5600TIP3   OH238358   4.213   4.690   7.742
 5600TIP3    H138359   4.224   4.782   7.716
 5600TIP3    H238360   4.237   4.640   7.663
 5601TIP3   OH238361   0.132   3.649   1.993
 5601TIP3    H138362   0.227   3.657   1.993
 5601TIP3    H238363   0.112   3.596   1.915
 5602TIP3   OH238364   5.684   0.066   8.538
 5602TIP3    H138365   5.665   0.088   8.446
 5602TIP3    H238366   5.601   0.080   8.583
 5603TIP3   OH238367   1.757   3.847   0.309
 5603TIP3    H138368   1.697   3.862   0.382
 5603TIP3    H238369   1.831   3.801   0.348
 5604TIP3   OH238370   5.859   4.725   1.534
 5604TIP3    H138371   5.888   4.815   1.520
 5604TIP3    H238372   5.907   4.697   1.612
 5605TIP3   OH238373   2.238   0.677   1.633
 5605TIP3    H138374   2.216   0.724   1.552
 5605TIP3    H238375   2.282   0.597   1.603
 5606TIP3   OH238376   5.665   3.922   7.332
 5606TIP3    H138377   5.706   3.839   7.307
 5606TIP3    H238378   5.592   3.897   7.388
 5607TIP3   OH238379   6.497   5.828   6.299
 5607TIP3    H138380   6.524   5.760   6.237
 5607TIP3    H238381   6.434   5.881   6.251
 5608TIP3   OH238382   4.430   1.996   7.396
 5608TIP3    H138383   4.377   2.075   7.400
 5608TIP3    H238384   4.460   1.983   7.487
 5609TIP3   OH238385   1.246   1.251   7.225
 5609TIP3    H138386   1.222   1.175   7.171
 5609TIP3    H238387   1.181   1.251   7.296
 5610TIP3   OH238388   5.745   3.485   1.396
 5610TIP3    H138389   5.697   3.403   1.400
 5610TIP3    H238390   5.774   3.501   1.486
 5611TIP3   OH238391   2.276   3.709   8.274
 5611TIP3    H138392   2.359   3.704   8.322
 5611TIP3    H238393   2.250   3.617   8.263
 5612TIP3   OH238394   6.692   4.565   0.429
 5612TIP3    H138395   6.663   4.656   0.419
 5612TIP3    H238396   6.635   4.529   0.496
 5613TIP3   OH238397   6.087   0.222   7.212
 5613TIP3    H138398   6.026   0.176   7.154
 5613TIP3    H238399   6.053   0.311   7.217
 5614TIP3   OH238400   5.799   1.344   7.976
 5614TIP3    H138401   5.803   1.406   7.903
 5614TIP3    H238402   5.802   1.258   7.935
 5615TIP3   OH238403   3.645   1.018   1.527
 5615TIP3    H138404   3.614   1.018   1.617
 5615TIP3    H238405   3.566   1.008   1.474
 5616TIP3   OH238406   5.625   3.449   8.161
 5616TIP3    H138407   5.540   3.457   8.118
 5616TIP3    H238408   5.689   3.467   8.093
 5617TIP3   OH238409   5.934   5.960   7.792
 5617TIP3    H138410   5.984   5.985   7.714
 5617TIP3    H238411   5.934   5.864   7.790
 5618TIP3   OH238412   3.982   4.549   7.378
 5618TIP3    H138413   4.046   4.478   7.373
 5618TIP3    H238414   3.964   4.572   7.287
 5619TIP3   OH238415   1.201   3.203   7.245
 5619TIP3    H138416   1.227   3.196   7.153
 5619TIP3    H238417   1.259   3.142   7.291
 5620TIP3   OH238418   5.931   3.639   6.804
 5620TIP3    H138419   6.000   3.677   6.749
 5620TIP3    H238420   5.850   3.661   6.759
 5621TIP3   OH238421   4.789   3.116   7.852
 5621TIP3    H138422   4.747   3.037   7.888
 5621TIP3    H238423   4.719   3.160   7.803
 5622TIP3   OH238424   2.765   6.067   0.491
 5622TIP3    H138425   2.715   6.005   0.545
 5622TIP3    H238426   2.720   6.150   0.502
 5623TIP3   OH238427   0.033   2.863   0.393
 5623TIP3    H138428   0.100   2.891   0.455
 5623TIP3    H238429   6.819   2.940   0.381
 5624TIP3   OH238430   5.460   2.247   8.016
 5624TIP3    H138431   5.437   2.239   8.108
 5624TIP3    H238432   5.538   2.302   8.016
 5625TIP3   OH238433   1.308   4.155   2.185
 5625TIP3    H138434   1.399   4.160   2.213
 5625TIP3    H238435   1.307   4.086   2.119
 5626TIP3   OH238436   4.096   1.512   1.369
 5626TIP3    H138437   4.010   1.544   1.398
 5626TIP3    H238438   4.087   1.505   1.274
 5627TIP3   OH238439   5.535   3.652   7.840
 5627TIP3    H138440   5.560   3.708   7.767
 5627TIP3    H238441   5.519   3.713   7.912
 5628TIP3   OH238442   0.795   0.754   6.291
 5628TIP3    H138443   0.702   0.730   6.287
 5628TIP3    H238444   0.840   0.671   6.308
 5629TIP3   OH238445   1.777   5.321   7.506
 5629TIP3    H138446   1.753   5.320   7.599
 5629TIP3    H238447   1.726   5.251   7.467
 5630TIP3   OH238448   0.279   2.928   6.077
 5630TIP3    H138449   0.259   2.971   6.160
 5630TIP3    H238450   0.348   2.982   6.038
 5631TIP3   OH238451   2.112   2.598   7.783
 5631TIP3    H138452   2.042   2.660   7.806
 5631TIP3    H238453   2.162   2.643   7.714
 5632TIP3   OH238454   2.076   0.207   0.305
 5632TIP3    H138455   2.154   0.256   0.278
 5632TIP3    H238456   2.043   0.169   0.223
 5633TIP3   OH238457   2.680   6.349   0.433
 5633TIP3    H138458   2.767   6.359   0.470
 5633TIP3    H238459   2.694   6.353   0.338
 5634TIP3   OH238460   5.811   2.684   6.902
 5634TIP3    H138461   5.832   2.728   6.820
 5634TIP3    H238462   5.733   2.632   6.882
 5635TIP3   OH238463   1.145   6.228   0.947
 5635TIP3    H138464   1.151   6.134   0.967
 5635TIP3    H238465   1.069   6.258   0.997
 5636TIP3   OH238466   6.536   4.370   0.980
 5636TIP3    H138467   6.562   4.299   1.039
 5636TIP3    H238468   6.561   4.450   1.027
 5637TIP3   OH238469   2.832   6.829   1.142
 5637TIP3    H138470   2.802   6.812   1.231
 5637TIP3    H238471   2.828   0.084   1.134
 5638TIP3   OH238472   3.568   2.258   7.837
 5638TIP3    H138473   3.526   2.171   7.835
 5638TIP3    H238474   3.526   2.306   7.766
 5639TIP3   OH238475   2.730   0.139   1.765
 5639TIP3    H138476   2.781   0.216   1.791
 5639TIP3    H238477   2.778   0.104   1.690
 5640TIP3   OH238478   6.623   0.495   0.672
 5640TIP3    H138479   6.654   0.510   0.582
 5640TIP3    H238480   6.549   0.435   0.662
 5641TIP3   OH238481   6.638   2.267   0.432
 5641TIP3    H138482   6.628   2.195   0.494
 5641TIP3    H238483   6.658   2.224   0.348
 5642TIP3   OH238484   6.281   3.071   1.593
 5642TIP3    H138485   6.271   2.993   1.537
 5642TIP3    H238486   6.309   3.140   1.533
 5643TIP3   OH238487   3.119   2.223   1.897
 5643TIP3    H138488   3.157   2.310   1.886
 5643TIP3    H238489   3.036   2.237   1.941
 5644TIP3   OH238490   0.581   6.250   0.510
 5644TIP3    H138491   0.636   6.300   0.450
 5644TIP3    H238492   0.536   6.186   0.454
 5645TIP3   OH238493   6.170   5.054   0.009
 5645TIP3    H138494   6.110   5.128   0.005
 5645TIP3    H238495   6.117   4.981   0.039
 5646TIP3   OH238496   0.824   3.762   8.328
 5646TIP3    H138497   0.736   3.796   8.313
 5646TIP3    H238498   0.857   3.814   8.402
 5647TIP3   OH238499   4.001   5.438   0.085
 5647TIP3    H138500   4.083   5.390   0.084
 5647TIP3    H238501   3.965   5.423   0.173
 5648TIP3   OH238502   1.497   4.936   1.955
 5648TIP3    H138503   1.548   4.893   2.024
 5648TIP3    H238504   1.410   4.896   1.962
 5649TIP3   OH238505   3.721   2.271   2.231
 5649TIP3    H138506   3.770   2.349   2.256
 5649TIP3    H238507   3.630   2.291   2.253
 5650TIP3   OH238508   4.354   0.499   1.555
 5650TIP3    H138509   4.364   0.567   1.622
 5650TIP3    H238510   4.306   0.429   1.598
 5651TIP3   OH238511   2.482   5.159   1.326
 5651TIP3    H138512   2.559   5.103   1.325
 5651TIP3    H238513   2.471   5.183   1.418
 5652TIP3   OH238514   3.683   0.746   1.297
 5652TIP3    H138515   3.668   0.714   1.386
 5652TIP3    H238516   3.600   0.730   1.251
 5653TIP3   OH238517   4.188   0.998   8.009
 5653TIP3    H138518   4.233   0.913   8.013
 5653TIP3    H238519   4.244   1.052   7.954
 5654TIP3   OH238520   0.297   0.947   8.288
 5654TIP3    H138521   0.214   0.951   8.240
 5654TIP3    H238522   0.364   0.950   8.220
 5655TIP3   OH238523   4.496   1.951   6.243
 5655TIP3    H138524   4.434   2.010   6.201
 5655TIP3    H238525   4.533   2.002   6.316
 5656TIP3   OH238526   0.463   4.573   0.741
 5656TIP3    H138527   0.469   4.618   0.825
 5656TIP3    H238528   0.412   4.631   0.686
 5657TIP3   OH238529   1.847   4.352   7.806
 5657TIP3    H138530   1.877   4.349   7.715
 5657TIP3    H238531   1.920   4.318   7.857
 5658TIP3   OH238532   2.201   1.500   1.168
 5658TIP3    H138533   2.290   1.467   1.174
 5658TIP3    H238534   2.171   1.473   1.081
 5659TIP3   OH238535   6.823   0.285   2.270
 5659TIP3    H138536   6.778   0.362   2.237
 5659TIP3    H238537   6.761   0.246   2.332
 5660TIP3   OH238538   6.639   4.195   8.665
 5660TIP3    H138539   6.576   4.191   8.594
 5660TIP3    H238540   6.624   4.280   8.707
 5661TIP3   OH238541   0.676   5.286   0.931
 5661TIP3    H138542   0.661   5.377   0.907
 5661TIP3    H238543   0.762   5.265   0.895
 5662TIP3   OH238544   1.998   0.440   0.397
 5662TIP3    H138545   2.033   0.358   0.361
 5662TIP3    H238546   1.932   0.412   0.460
 5663TIP3   OH238547   5.398   5.910   7.691
 5663TIP3    H138548   5.398   5.906   7.596
 5663TIP3    H238549   5.488   5.892   7.717
 5664TIP3   OH238550   5.811   0.277   2.213
 5664TIP3    H138551   5.751   0.350   2.221
 5664TIP3    H238552   5.768   0.216   2.152
 5665TIP3   OH238553   0.479   5.553   0.453
 5665TIP3    H138554   0.574   5.538   0.459
 5665TIP3    H238555   0.452   5.569   0.543
 5666TIP3   OH238556   0.875   6.583   8.406
 5666TIP3    H138557   0.833   6.516   8.351
 5666TIP3    H238558   0.945   6.536   8.451
 5667TIP3   OH238559   6.037   4.812   1.014
 5667TIP3    H138560   5.984   4.854   1.082
 5667TIP3    H238561   6.084   4.742   1.059
 5668TIP3   OH238562   5.027   2.070   6.360
 5668TIP3    H138563   5.095   2.018   6.319
 5668TIP3    H238564   5.016   2.145   6.302
 5669TIP3   OH238565   6.225   2.587   0.939
 5669TIP3    H138566   6.162   2.515   0.943
 5669TIP3    H238567   6.256   2.587   0.848
 5670TIP3   OH238568   0.347   6.042   0.020
 5670TIP3    H138569   0.427   6.020   8.708
 5670TIP3    H238570   0.336   6.136   0.004
 5671TIP3   OH238571   1.689   4.568   0.882
 5671TIP3    H138572   1.760   4.588   0.944
 5671TIP3    H238573   1.609   4.579   0.933
 5672TIP3   OH238574   1.951   2.471   8.526
 5672TIP3    H138575   1.858   2.471   8.502
 5672TIP3    H238576   1.994   2.517   8.454
 5673TIP3   OH238577   5.324   4.919   0.446
 5673TIP3    H138578   5.321   5.008   0.413
 5673TIP3    H238579   5.277   4.922   0.530
 5674TIP3   OH238580   5.887   5.914   7.349
 5674TIP3    H138581   5.881   5.917   7.253
 5674TIP3    H238582   5.979   5.894   7.367
 5675TIP3   OH238583   2.621   5.880   1.727
 5675TIP3    H138584   2.608   5.900   1.820
 5675TIP3    H238585   2.544   5.918   1.684
 5676TIP3   OH238586   5.515   0.266   2.344
 5676TIP3    H138587   5.527   0.354   2.308
 5676TIP3    H238588   5.440   0.230   2.296
 5677TIP3   OH238589   4.753   1.857   1.707
 5677TIP3    H138590   4.776   1.815   1.790
 5677TIP3    H238591   4.722   1.944   1.732
 5678TIP3   OH238592   5.669   1.369   0.847
 5678TIP3    H138593   5.637   1.292   0.893
 5678TIP3    H238594   5.599   1.391   0.785
 5679TIP3   OH238595   0.936   4.416   7.149
 5679TIP3    H138596   0.913   4.457   7.233
 5679TIP3    H238597   0.892   4.471   7.083
 5680TIP3   OH238598   2.756   5.717   2.005
 5680TIP3    H138599   2.833   5.667   1.977
 5680TIP3    H238600   2.787   5.807   2.014
 5681TIP3   OH238601   3.547   1.117   7.932
 5681TIP3    H138602   3.481   1.078   7.990
 5681TIP3    H238603   3.617   1.146   7.991
 5682TIP3   OH238604   0.131   1.081   1.634
 5682TIP3    H138605   0.225   1.079   1.618
 5682TIP3    H238606   0.122   1.116   1.723
 5683TIP3   OH238607   2.511   0.130   7.117
 5683TIP3    H138608   2.436   0.096   7.067
 5683TIP3    H238609   2.544   0.202   7.064
 5684TIP3   OH238610   6.374   6.123   1.883
 5684TIP3    H138611   6.403   6.177   1.810
 5684TIP3    H238612   6.327   6.051   1.842
 5685TIP3   OH238613   5.319   4.293   8.697
 5685TIP3    H138614   5.356   4.380   8.688
 5685TIP3    H238615   5.395   4.236   8.715
 5686TIP3   OH238616   1.106   2.505   0.975
 5686TIP3    H138617   1.028   2.559   0.963
 5686TIP3    H238618   1.073   2.424   1.014
 5687TIP3   OH238619   0.668   2.174   2.263
 5687TIP3    H138620   0.601   2.240   2.249
 5687TIP3    H238621   0.622   2.090   2.251
 5688TIP3   OH238622   5.635   0.489   7.509
 5688TIP3    H138623   5.620   0.466   7.417
 5688TIP3    H238624   5.649   0.584   7.507
 5689TIP3   OH238625   2.256   5.239   2.280
 5689TIP3    H138626   2.343   5.213   2.309
 5689TIP3    H238627   2.261   5.239   2.185
 5690TIP3   OH238628   5.093   3.636   6.711
 5690TIP3    H138629   5.077   3.606   6.621
 5690TIP3    H238630   5.091   3.731   6.706
 5691TIP3   OH238631   6.249   5.883   7.170
 5691TIP3    H138632   6.173   5.877   7.112
 5691TIP3    H238633   6.279   5.793   7.180
 5692TIP3   OH238634   1.245   6.304   7.553
 5692TIP3    H138635   1.155   6.271   7.551
 5692TIP3    H238636   1.236   6.399   7.565
 5693TIP3   OH238637   5.686   1.548   1.973
 5693TIP3    H138638   5.600   1.547   2.014
 5693TIP3    H238639   5.746   1.521   2.042
 5694TIP3   OH238640   0.512   6.041   1.617
 5694TIP3    H138641   0.435   6.090   1.588
 5694TIP3    H238642   0.501   6.031   1.711
 5695TIP3   OH238643   2.090   1.093   1.644
 5695TIP3    H138644   2.052   1.038   1.712
 5695TIP3    H238645   2.102   1.179   1.685
 5696TIP3   OH238646   4.494   5.915   1.159
 5696TIP3    H138647   4.517   5.928   1.251
 5696TIP3    H238648   4.401   5.934   1.154
 5697TIP3   OH238649   3.866   0.559   0.566
 5697TIP3    H138650   3.776   0.585   0.545
 5697TIP3    H238651   3.876   0.473   0.525
 5698TIP3   OH238652   4.953   3.949   1.443
 5698TIP3    H138653   4.938   3.854   1.448
 5698TIP3    H238654   4.968   3.965   1.350
 5699TIP3   OH238655   2.761   3.977   7.891
 5699TIP3    H138656   2.709   4.014   7.820
 5699TIP3    H238657   2.802   4.052   7.933
 5700TIP3   OH238658   4.301   1.953   2.429
 5700TIP3    H138659   4.350   2.023   2.386
 5700TIP3    H238660   4.366   1.884   2.442
 5701TIP3   OH238661   0.321   4.179   0.881
 5701TIP3    H138662   0.280   4.100   0.845
 5701TIP3    H238663   0.375   4.213   0.809
 5702TIP3   OH238664   0.998   2.302   1.111
 5702TIP3    H138665   1.081   2.277   1.152
 5702TIP3    H238666   0.932   2.256   1.162
 5703TIP3   OH238667   2.747   2.748   8.124
 5703TIP3    H138668   2.837   2.774   8.142
 5703TIP3    H238669   2.696   2.829   8.135
 5704TIP3   OH238670   2.092   4.635   7.058
 5704TIP3    H138671   2.057   4.556   7.100
 5704TIP3    H238672   2.044   4.707   7.099
 5705TIP3   OH238673   3.474   1.850   0.522
 5705TIP3    H138674   3.396   1.844   0.467
 5705TIP3    H238675   3.441   1.880   0.607
 5706TIP3   OH238676   6.627   2.485   6.955
 5706TIP3    H138677   6.606   2.444   6.871
 5706TIP3    H238678   6.720   2.466   6.968
 5707TIP3   OH238679   6.057   5.370   7.011
 5707TIP3    H138680   6.081   5.277   7.013
 5707TIP3    H238681   6.035   5.391   7.101
 5708TIP3   OH238682   1.081   2.079   6.712
 5708TIP3    H138683   1.163   2.116   6.745
 5708TIP3    H238684   1.106   2.036   6.630
 5709TIP3   OH238685   0.021   5.094   0.799
 5709TIP3    H138686   0.067   5.019   0.836
 5709TIP3    H238687   6.833   5.145   0.875
 5710TIP3   OH238688   3.686   6.372   0.494
 5710TIP3    H138689   3.616   6.335   0.440
 5710TIP3    H238690   3.642   6.396   0.576
 5711TIP3   OH238691   0.339   2.323   1.906
 5711TIP3    H138692   0.316   2.413   1.928
 5711TIP3    H238693   0.255   2.278   1.900
 5712TIP3   OH238694   6.183   1.007   0.991
 5712TIP3    H138695   6.225   0.952   1.057
 5712TIP3    H238696   6.151   1.083   1.040
 5713TIP3   OH238697   4.709   6.148   7.709
 5713TIP3    H138698   4.781   6.131   7.770
 5713TIP3    H238699   4.664   6.063   7.702
 5714TIP3   OH238700   2.904   5.708   7.970
 5714TIP3    H138701   2.963   5.729   7.898
 5714TIP3    H238702   2.838   5.651   7.931
 5715TIP3   OH238703   1.234   0.180   2.503
 5715TIP3    H138704   1.272   0.209   2.586
 5715TIP3    H238705   1.307   0.137   2.457
 5716TIP3   OH238706   5.971   5.905   2.066
 5716TIP3    H138707   5.905   5.836   2.064
 5716TIP3    H238708   5.984   5.923   2.159
 5717TIP3   OH238709   5.198   1.641   6.974
 5717TIP3    H138710   5.107   1.660   6.950
 5717TIP3    H238711   5.247   1.719   6.949
 5718TIP3   OH238712   1.237   5.434   1.975
 5718TIP3    H138713   1.258   5.486   2.053
 5718TIP3    H238714   1.200   5.353   2.009
 5719TIP3   OH238715   3.627   5.590   0.647
 5719TIP3    H138716   3.564   5.662   0.635
 5719TIP3    H238717   3.689   5.600   0.574
 5720TIP3   OH238718   1.264   5.715   7.612
 5720TIP3    H138719   1.196   5.762   7.660
 5720TIP3    H238720   1.298   5.779   7.549
 5721TIP3   OH238721   4.052   3.956   8.458
 5721TIP3    H138722   3.979   3.923   8.511
 5721TIP3    H238723   4.094   3.878   8.422
 5722TIP3   OH238724   3.110   1.481   8.005
 5722TIP3    H138725   3.184   1.423   8.024
 5722TIP3    H238726   3.034   1.435   8.040
 5723TIP3   OH238727   2.389   3.394   1.708
 5723TIP3    H138728   2.374   3.303   1.735
 5723TIP3    H238729   2.392   3.389   1.612
 5724TIP3   OH238730   3.135   1.163   0.450
 5724TIP3    H138731   3.216   1.116   0.470
 5724TIP3    H238732   3.125   1.155   0.355
 5725TIP3   OH238733   6.155   1.669   7.451
 5725TIP3    H138734   6.146   1.708   7.537
 5725TIP3    H238735   6.085   1.708   7.399
 5726TIP3   OH238736   0.524   5.248   1.574
 5726TIP3    H138737   0.567   5.258   1.489
 5726TIP3    H238738   0.579   5.185   1.622
 5727TIP3   OH238739   4.497   0.229   6.260
 5727TIP3    H138740   4.518   0.318   6.290
 5727TIP3    H238741   4.418   0.239   6.207
 5728TIP3   OH238742   6.791   6.490   2.274
 5728TIP3    H138743   0.026   6.520   2.224
 5728TIP3    H238744   6.731   6.565   2.274
 5729TIP3   OH238745   6.041   6.383   6.515
 5729TIP3    H138746   6.121   6.336   6.492
 5729TIP3    H238747   5.978   6.315   6.538
 5730TIP3   OH238748   1.187   0.606   0.791
 5730TIP3    H138749   1.253   0.675   0.802
 5730TIP3    H238750   1.110   0.651   0.756
 5731TIP3   OH238751   1.518   0.574   1.718
 5731TIP3    H138752   1.537   0.487   1.752
 5731TIP3    H238753   1.463   0.558   1.641
 5732TIP3   OH238754   4.367   0.584   7.592
 5732TIP3    H138755   4.333   0.633   7.667
 5732TIP3    H238756   4.310   0.608   7.519
 5733TIP3   OH238757   3.991   2.472   0.094
 5733TIP3    H138758   3.922   2.476   0.028
 5733TIP3    H238759   3.948   2.499   0.175
 5734TIP3   OH238760   5.790   4.905   7.083
 5734TIP3    H138761   5.833   4.985   7.052
 5734TIP3    H238762   5.708   4.935   7.122
 5735TIP3   OH238763   5.513   2.420   7.563
 5735TIP3    H138764   5.444   2.450   7.504
 5735TIP3    H238765   5.466   2.375   7.633
 5736TIP3   OH238766   4.175   2.169   7.937
 5736TIP3    H138767   4.134   2.230   7.875
 5736TIP3    H238768   4.204   2.095   7.883
 5737TIP3   OH238769   1.117   5.633   7.906
 5737TIP3    H138770   1.178   5.626   7.980
 5737TIP3    H238771   1.143   5.714   7.862
 5738TIP3   OH238772   2.628   5.566   7.377
 5738TIP3    H138773   2.564   5.612   7.432
 5738TIP3    H238774   2.599   5.475   7.376
 5739TIP3   OH238775   2.491   4.942   8.043
 5739TIP3    H138776   2.513   4.948   7.950
 5739TIP3    H238777   2.506   5.030   8.077
 5740TIP3   OH238778   3.843   6.246   6.710
 5740TIP3    H138779   3.896   6.320   6.740
 5740TIP3    H238780   3.763   6.285   6.676
 5741TIP3   OH238781   2.433   0.751   6.448
 5741TIP3    H138782   2.343   0.731   6.473
 5741TIP3    H238783   2.473   0.785   6.528
 5742TIP3   OH238784   6.586   5.304   1.308
 5742TIP3    H138785   6.555   5.391   1.335
 5742TIP3    H238786   6.529   5.280   1.235
 5743TIP3   OH238787   2.176   1.656   1.862
 5743TIP3    H138788   2.112   1.600   1.819
 5743TIP3    H238789   2.135   1.683   1.944
 5744TIP3   OH238790   3.447   5.075   7.542
 5744TIP3    H138791   3.471   5.121   7.462
 5744TIP3    H238792   3.413   4.991   7.511
 5745TIP3   OH238793   4.702   5.159   0.846
 5745TIP3    H138794   4.745   5.207   0.917
 5745TIP3    H238795   4.609   5.178   0.857
 5746TIP3   OH238796   1.931   6.098   1.727
 5746TIP3    H138797   2.007   6.130   1.678
 5746TIP3    H238798   1.936   6.003   1.718
 5747TIP3   OH238799   6.429   2.082   7.568
 5747TIP3    H138800   6.382   2.031   7.635
 5747TIP3    H238801   6.437   2.169   7.606
 5748TIP3   OH238802   2.814   4.847   7.447
 5748TIP3    H138803   2.823   4.849   7.352
 5748TIP3    H238804   2.741   4.787   7.463
 5749TIP3   OH238805   1.335   4.331   1.101
 5749TIP3    H138806   1.392   4.365   1.171
 5749TIP3    H238807   1.362   4.239   1.092
 5750TIP3   OH238808   5.935   5.117   0.902
 5750TIP3    H138809   5.957   5.031   0.867
 5750TIP3    H238810   5.953   5.178   0.830
 5751TIP3   OH238811   4.325   3.394   7.259
 5751TIP3    H138812   4.269   3.419   7.333
 5751TIP3    H238813   4.263   3.369   7.191
 5752TIP3   OH238814   6.457   2.134   1.465
 5752TIP3    H138815   6.371   2.175   1.467
 5752TIP3    H238816   6.519   2.207   1.463
 5753TIP3   OH238817   4.742   3.722   6.850
 5753TIP3    H138818   4.686   3.792   6.819
 5753TIP3    H238819   4.819   3.766   6.886
 5754TIP3   OH238820   4.267   0.207   7.664
 5754TIP3    H138821   4.276   0.148   7.738
 5754TIP3    H238822   4.173   0.219   7.654
 5755TIP3   OH238823   0.493   0.046   8.302
 5755TIP3    H138824   0.411   0.051   8.351
 5755TIP3    H238825   0.546   0.118   8.337
 5756TIP3   OH238826   6.646   5.398   0.461
 5756TIP3    H138827   6.656   5.466   0.395
 5756TIP3    H238828   6.665   5.442   0.544
 5757TIP3   OH238829   2.321   2.894   1.508
 5757TIP3    H138830   2.401   2.934   1.474
 5757TIP3    H238831   2.348   2.855   1.591
 5758TIP3   OH238832   0.720   4.943   8.377
 5758TIP3    H138833   0.806   4.942   8.336
 5758TIP3    H238834   0.737   4.961   8.469
 5759TIP3   OH238835   2.894   6.290   0.624
 5759TIP3    H138836   2.872   6.347   0.698
 5759TIP3    H238837   2.901   6.203   0.663
 5760TIP3   OH238838   5.403   6.214   6.954
 5760TIP3    H138839   5.444   6.135   6.988
 5760TIP3    H238840   5.343   6.183   6.885
 5761TIP3   OH238841   5.362   4.175   0.495
 5761TIP3    H138842   5.440   4.121   0.480
 5761TIP3    H238843   5.396   4.264   0.504
 5762TIP3   OH238844   3.861   0.828   1.594
 5762TIP3    H138845   3.781   0.796   1.551
 5762TIP3    H238846   3.914   0.749   1.606
 5763TIP3   OH238847   1.108   0.304   7.403
 5763TIP3    H138848   1.170   0.334   7.471
 5763TIP3    H238849   1.065   0.384   7.373
 5764TIP3   OH238850   2.789   3.123   0.442
 5764TIP3    H138851   2.723   3.156   0.381
 5764TIP3    H238852   2.759   3.153   0.528
 5765TIP3   OH238853   2.623   1.514   0.461
 5765TIP3    H138854   2.664   1.430   0.442
 5765TIP3    H238855   2.585   1.542   0.377
 5766TIP3   OH238856   1.614   6.245   0.621
 5766TIP3    H138857   1.691   6.289   0.657
 5766TIP3    H238858   1.645   6.209   0.537
 5767TIP3   OH238859   1.058   4.871   7.287
 5767TIP3    H138860   1.125   4.814   7.323
 5767TIP3    H238861   1.061   4.855   7.192
 5768TIP3   OH238862   5.819   4.664   0.414
 5768TIP3    H138863   5.820   4.756   0.440
 5768TIP3    H238864   5.861   4.618   0.487
 5769TIP3   OH238865   2.407   0.992   1.192
 5769TIP3    H138866   2.344   1.038   1.247
 5769TIP3    H238867   2.355   0.952   1.123
 5770TIP3   OH238868   1.568   0.301   1.797
 5770TIP3    H138869   1.539   0.229   1.740
 5770TIP3    H238870   1.663   0.305   1.785
 5771TIP3   OH238871   3.453   0.365   7.790
 5771TIP3    H138872   3.382   0.300   7.796
 5771TIP3    H238873   3.409   0.446   7.763
 5772TIP3   OH238874   3.942   5.335   1.205
 5772TIP3    H138875   4.027   5.326   1.246
 5772TIP3    H238876   3.927   5.430   1.202
 5773TIP3   OH238877   1.359   6.148   8.352
 5773TIP3    H138878   1.444   6.105   8.358
 5773TIP3    H238879   1.352   6.200   8.432
 5774TIP3   OH238880   0.363   6.053   7.962
 5774TIP3    H138881   0.372   5.986   7.895
 5774TIP3    H238882   0.448   6.056   8.005
 5775TIP3   OH238883   5.454   5.969   2.645
 5775TIP3    H138884   5.499   5.972   2.561
 5775TIP3    H238885   5.494   6.040   2.696
 5776TIP3   OH238886   2.635   5.322   7.831
 5776TIP3    H138887   2.619   5.262   7.905
 5776TIP3    H238888   2.549   5.336   7.792
 5777TIP3   OH238889   3.600   1.905   7.051
 5777TIP3    H138890   3.536   1.846   7.091
 5777TIP3    H238891   3.650   1.849   6.992
 5778TIP3   OH238892   4.922   6.536   8.620
 5778TIP3    H138893   4.922   6.541   8.524
 5778TIP3    H238894   4.875   6.455   8.640
 5779TIP3   OH238895   3.794   0.493   8.625
 5779TIP3    H138896   3.876   0.533   8.594
 5779TIP3    H238897   3.767   0.549   8.698
 5780TIP3   OH238898   1.454   6.008   0.630
 5780TIP3    H138899   1.462   6.089   0.681
 5780TIP3    H238900   1.392   5.954   0.679
 5781TIP3   OH238901   3.268   4.215   1.341
 5781TIP3    H138902   3.351   4.250   1.308
 5781TIP3    H238903   3.277   4.120   1.333
 5782TIP3   OH238904   0.552   4.065   0.581
 5782TIP3    H138905   0.512   4.141   0.623
 5782TIP3    H238906   0.632   4.099   0.541
 5783TIP3   OH238907   0.377   0.764   7.988
 5783TIP3    H138908   0.301   0.706   7.980
 5783TIP3    H238909   0.436   0.717   8.047
 5784TIP3   OH238910   5.828   4.184   7.405
 5784TIP3    H138911   5.820   4.153   7.315
 5784TIP3    H238912   5.757   4.140   7.452
 5785TIP3   OH238913   3.529   3.173   7.246
 5785TIP3    H138914   3.554   3.136   7.330
 5785TIP3    H238915   3.436   3.192   7.255
 5786TIP3   OH238916   3.505   2.024   1.758
 5786TIP3    H138917   3.458   2.023   1.674
 5786TIP3    H238918   3.445   2.068   1.818
 5787TIP3   OH238919   1.107   0.535   8.458
 5787TIP3    H138920   1.055   0.497   8.528
 5787TIP3    H238921   1.188   0.564   8.500
 5788TIP3   OH238922   6.255   0.587   7.976
 5788TIP3    H138923   6.272   0.503   8.019
 5788TIP3    H238924   6.181   0.624   8.024
 5789TIP3   OH238925   4.214   0.598   0.318
 5789TIP3    H138926   4.179   0.675   0.362
 5789TIP3    H238927   4.185   0.607   0.227
 5790TIP3   OH238928   5.425   5.973   8.075
 5790TIP3    H138929   5.431   6.000   8.166
 5790TIP3    H238930   5.333   5.950   8.062
 5791TIP3   OH238931   0.809   0.497   1.426
 5791TIP3    H138932   0.756   0.439   1.480
 5791TIP3    H238933   0.760   0.504   1.344
 5792TIP3   OH238934   0.560   6.314   6.915
 5792TIP3    H138935   0.558   6.321   7.011
 5792TIP3    H238936   0.530   6.225   6.897
 5793TIP3   OH238937   5.858   5.513   8.461
 5793TIP3    H138938   5.897   5.427   8.476
 5793TIP3    H238939   5.925   5.575   8.490
 5794TIP3   OH238940   1.476   6.781   8.029
 5794TIP3    H138941   1.468   6.689   8.051
 5794TIP3    H238942   1.533   6.817   8.097
 5795TIP3   OH238943   1.195   0.302   8.021
 5795TIP3    H138944   1.183   0.337   7.932
 5795TIP3    H238945   1.132   0.230   8.027
 5796TIP3   OH238946   0.441   3.192   7.385
 5796TIP3    H138947   0.380   3.134   7.339
 5796TIP3    H238948   0.501   3.223   7.317
 5797TIP3   OH238949   3.668   0.222   1.512
 5797TIP3    H138950   3.579   0.207   1.543
 5797TIP3    H238951   3.662   0.211   1.417
 5798TIP3   OH238952   2.773   3.471   7.273
 5798TIP3    H138953   2.699   3.532   7.273
 5798TIP3    H238954   2.842   3.517   7.226
 5799TIP3   OH238955   0.017   1.148   0.802
 5799TIP3    H138956   6.780   1.192   0.837
 5799TIP3    H238957   0.073   1.135   0.878
 5800TIP3   OH238958   2.864   4.786   7.892
 5800TIP3    H138959   2.894   4.855   7.951
 5800TIP3    H238960   2.827   4.720   7.949
 5801TIP3   OH238961   0.534   4.148   8.442
 5801TIP3    H138962   0.561   4.145   8.350
 5801TIP3    H238963   0.614   4.132   8.491
 5802TIP3   OH238964   1.889   1.643   2.356
 5802TIP3    H138965   1.897   1.602   2.270
 5802TIP3    H238966   1.806   1.691   2.351
 5803TIP3   OH238967   5.679   1.649   2.305
 5803TIP3    H138968   5.594   1.619   2.337
 5803TIP3    H238969   5.715   1.574   2.260
 5804TIP3   OH238970   1.054   4.094   1.705
 5804TIP3    H138971   1.039   4.169   1.647
 5804TIP3    H238972   1.143   4.065   1.683
 5805TIP3   OH238973   4.546   5.251   2.380
 5805TIP3    H138974   4.565   5.170   2.428
 5805TIP3    H238975   4.476   5.227   2.321
 5806TIP3   OH238976   4.454   3.490   1.996
 5806TIP3    H138977   4.528   3.446   2.039
 5806TIP3    H238978   4.382   3.428   2.004
 5807TIP3   OH238979   4.509   0.367   7.864
 5807TIP3    H138980   4.567   0.431   7.906
 5807TIP3    H238981   4.534   0.283   7.902
 5808TIP3   OH238982   3.380   5.985   8.397
 5808TIP3    H138983   3.423   5.994   8.312
 5808TIP3    H238984   3.340   5.898   8.395
 5809TIP3   OH238985   6.012   3.641   7.097
 5809TIP3    H138986   6.002   3.554   7.135
 5809TIP3    H238987   6.001   3.628   7.003
 5810TIP3   OH238988   0.680   1.579   2.212
 5810TIP3    H138989   0.717   1.509   2.265
 5810TIP3    H238990   0.725   1.659   2.243
 5811TIP3   OH238991   5.678   3.468   0.409
 5811TIP3    H138992   5.719   3.535   0.354
 5811TIP3    H238993   5.743   3.448   0.476
 5812TIP3   OH238994   6.830   3.732   1.053
 5812TIP3    H138995   6.783   3.737   1.136
 5812TIP3    H238996   6.815   3.817   1.012
 5813TIP3   OH238997   4.381   4.460   0.525
 5813TIP3    H138998   4.445   4.499   0.466
 5813TIP3    H238999   4.421   4.377   0.552
 5814TIP3   OH239000   2.040   3.800   6.887
 5814TIP3    H139001   2.047   3.766   6.798
 5814TIP3    H239002   1.950   3.784   6.912
 5815TIP3   OH239003   5.560   4.082   0.986
 5815TIP3    H139004   5.529   4.151   0.927
 5815TIP3    H239005   5.624   4.034   0.934
 5816TIP3   OH239006   2.441   6.363   2.062
 5816TIP3    H139007   2.460   6.280   2.019
 5816TIP3    H239008   2.524   6.388   2.103
 5817TIP3   OH239009   6.089   2.461   6.776
 5817TIP3    H139010   6.070   2.510   6.696
 5817TIP3    H239011   6.169   2.412   6.756
 5818TIP3   OH239012   1.548   2.221   6.784
 5818TIP3    H139013   1.607   2.157   6.745
 5818TIP3    H239014   1.605   2.280   6.833
 5819TIP3   OH239015   1.911   3.458   8.577
 5819TIP3    H139016   1.890   3.488   8.489
 5819TIP3    H239017   1.924   3.539   8.627
 5820TIP3   OH239018   4.637   1.313   2.785
 5820TIP3    H139019   4.725   1.311   2.748
 5820TIP3    H239020   4.634   1.238   2.845
 5821TIP3   OH239021   0.119   0.097   8.089
 5821TIP3    H139022   0.147   0.122   8.177
 5821TIP3    H239023   0.149   0.006   8.080
 5822TIP3   OH239024   5.451   1.010   1.115
 5822TIP3    H139025   5.404   1.073   1.169
 5822TIP3    H239026   5.519   1.062   1.071
 5823TIP3   OH239027   0.860   3.712   0.478
 5823TIP3    H139028   0.779   3.688   0.434
 5823TIP3    H239029   0.833   3.739   0.566
 5824TIP3   OH239030   4.794   2.129   1.277
 5824TIP3    H139031   4.720   2.130   1.337
 5824TIP3    H239032   4.871   2.118   1.333
 5825TIP3   OH239033   1.511   3.640   7.219
 5825TIP3    H139034   1.431   3.656   7.169
 5825TIP3    H239035   1.481   3.602   7.301
 5826TIP3   OH239036   2.008   4.692   0.364
 5826TIP3    H139037   1.925   4.691   0.317
 5826TIP3    H239038   2.061   4.626   0.320
 5827TIP3   OH239039   2.128   1.109   1.189
 5827TIP3    H139040   2.068   1.145   1.255
 5827TIP3    H239041   2.087   1.129   1.105
 5828TIP3   OH239042   3.440   1.280   2.216
 5828TIP3    H139043   3.413   1.276   2.125
 5828TIP3    H239044   3.518   1.337   2.216
 5829TIP3   OH239045   4.545   2.099   7.628
 5829TIP3    H139046   4.527   2.193   7.630
 5829TIP3    H239047   4.530   2.070   7.717
 5830TIP3   OH239048   4.733   2.659   0.668
 5830TIP3    H139049   4.685   2.586   0.629
 5830TIP3    H239050   4.810   2.671   0.612
 5831TIP3   OH239051   5.784   4.893   1.909
 5831TIP3    H139052   5.734   4.914   1.988
 5831TIP3    H239053   5.717   4.882   1.841
 5832TIP3   OH239054   4.535   0.707   0.437
 5832TIP3    H139055   4.586   0.629   0.458
 5832TIP3    H239056   4.472   0.678   0.371
 5833TIP3   OH239057   6.539   5.807   0.197
 5833TIP3    H139058   6.564   5.740   0.133
 5833TIP3    H239059   6.618   5.822   0.248
 5834TIP3   OH239060   2.191   0.391   0.845
 5834TIP3    H139061   2.162   0.300   0.839
 5834TIP3    H239062   2.218   0.402   0.936
 5835TIP3   OH239063   5.108   0.466   0.373
 5835TIP3    H139064   5.051   0.471   0.297
 5835TIP3    H239065   5.112   0.373   0.395
 5836TIP3   OH239066   4.601   3.127   1.244
 5836TIP3    H139067   4.621   3.051   1.190
 5836TIP3    H239068   4.526   3.100   1.297
 5837TIP3   OH239069   5.467   6.505   1.479
 5837TIP3    H139070   5.423   6.539   1.557
 5837TIP3    H239071   5.456   6.575   1.414
 5838TIP3   OH239072   0.141   2.924   8.029
 5838TIP3    H139073   0.074   2.860   8.056
 5838TIP3    H239074   0.223   2.888   8.063
 5839TIP3   OH239075   5.074   5.052   7.227
 5839TIP3    H139076   4.993   5.078   7.184
 5839TIP3    H239077   5.045   4.995   7.299
 5840TIP3   OH239078   3.824   1.121   1.750
 5840TIP3    H139079   3.768   1.199   1.747
 5840TIP3    H239080   3.835   1.103   1.844
 5841TIP3   OH239081   5.690   5.164   1.040
 5841TIP3    H139082   5.768   5.159   0.986
 5841TIP3    H239083   5.639   5.087   1.016
 5842TIP3   OH239084   5.602   5.608   8.572
 5842TIP3    H139085   5.611   5.674   8.641
 5842TIP3    H239086   5.689   5.571   8.562
 5843TIP3   OH239087   1.332   1.309   8.290
 5843TIP3    H139088   1.399   1.242   8.274
 5843TIP3    H239089   1.328   1.315   8.385
 5844TIP3   OH239090   5.481   1.283   2.380
 5844TIP3    H139091   5.475   1.379   2.382
 5844TIP3    H239092   5.560   1.265   2.329
 5845TIP3   OH239093   4.627   5.023   7.720
 5845TIP3    H139094   4.661   4.956   7.660
 5845TIP3    H239095   4.623   5.102   7.666
 5846TIP3   OH239096   6.179   6.620   6.318
 5846TIP3    H139097   6.218   6.702   6.350
 5846TIP3    H239098   6.254   6.564   6.301
 5847TIP3   OH239099   5.559   6.267   1.041
 5847TIP3    H139100   5.583   6.323   1.115
 5847TIP3    H239101   5.475   6.229   1.066
 5848TIP3   OH239102   4.270   3.100   6.982
 5848TIP3    H139103   4.357   3.135   7.001
 5848TIP3    H239104   4.268   3.092   6.886
 5849TIP3   OH239105   2.968   1.386   6.376
 5849TIP3    H139106   2.942   1.475   6.398
 5849TIP3    H239107   3.064   1.388   6.377
 5850TIP3   OH239108   1.937   1.193   7.845
 5850TIP3    H139109   1.970   1.278   7.816
 5850TIP3    H239110   1.843   1.196   7.827
 5851TIP3   OH239111   0.070   3.794   0.206
 5851TIP3    H139112   0.029   3.869   0.248
 5851TIP3    H239113   0.003   3.761   0.145
 5852TIP3   OH239114   1.904   3.015   7.842
 5852TIP3    H139115   1.963   3.008   7.767
 5852TIP3    H239116   1.956   3.060   7.909
 5853TIP3   OH239117   6.032   0.744   8.032
 5853TIP3    H139118   6.078   0.828   8.037
 5853TIP3    H239119   5.946   0.767   7.996
 5854TIP3   OH239120   0.646   6.691   8.186
 5854TIP3    H139121   0.722   6.700   8.243
 5854TIP3    H239122   0.582   6.753   8.222
 5855TIP3   OH239123   6.169   0.567   0.666
 5855TIP3    H139124   6.203   0.535   0.583
 5855TIP3    H239125   6.143   0.488   0.713
 5856TIP3   OH239126   4.060   6.445   0.809
 5856TIP3    H139127   4.102   6.415   0.728
 5856TIP3    H239128   4.113   6.520   0.837
 5857TIP3   OH239129   6.765   2.641   1.588
 5857TIP3    H139130   6.812   2.611   1.665
 5857TIP3    H239131   6.828   2.694   1.540
 5858TIP3   OH239132   0.692   2.703   0.829
 5858TIP3    H139133   0.607   2.737   0.859
 5858TIP3    H239134   0.707   2.625   0.883
 5859TIP3   OH239135   5.539   0.301   0.867
 5859TIP3    H139136   5.528   0.328   0.776
 5859TIP3    H239137   5.461   0.249   0.887
 5860TIP3   OH239138   4.543   0.239   1.577
 5860TIP3    H139139   4.451   0.265   1.580
 5860TIP3    H239140   4.581   0.293   1.508
 5861TIP3   OH239141   1.983   5.119   8.193
 5861TIP3    H139142   1.941   5.205   8.182
 5861TIP3    H239143   2.069   5.139   8.230
 5862TIP3   OH239144   3.273   3.299   8.252
 5862TIP3    H139145   3.216   3.264   8.183
 5862TIP3    H239146   3.316   3.375   8.212
 5863TIP3   OH239147   6.165   3.160   8.683
 5863TIP3    H139148   6.170   3.255   8.696
 5863TIP3    H239149   6.109   3.129   0.020
 5864TIP3   OH239150   3.554   5.646   8.209
 5864TIP3    H139151   3.615   5.664   8.138
 5864TIP3    H239152   3.567   5.554   8.229
 5865TIP3   OH239153   3.735   5.580   8.535
 5865TIP3    H139154   3.735   5.522   8.459
 5865TIP3    H239155   3.740   5.668   8.498
 5866TIP3   OH239156   4.029   2.678   0.419
 5866TIP3    H139157   4.069   2.605   0.467
 5866TIP3    H239158   4.071   2.756   0.456
 5867TIP3   OH239159   0.007   6.233   2.269
 5867TIP3    H139160   6.838   6.322   2.301
 5867TIP3    H239161   0.100   6.224   2.249
 5868TIP3   OH239162   6.547   2.519   0.521
 5868TIP3    H139163   6.468   2.521   0.467
 5868TIP3    H239164   6.592   2.438   0.494
 5869TIP3   OH239165   1.749   5.436   7.015
 5869TIP3    H139166   1.811   5.494   7.060
 5869TIP3    H239167   1.703   5.392   7.086
 5870TIP3   OH239168   3.377   0.525   7.222
 5870TIP3    H139169   3.367   0.471   7.300
 5870TIP3    H239170   3.469   0.516   7.197
 5871TIP3   OH239171   5.427   0.037   1.779
 5871TIP3    H139172   5.379   0.100   1.833
 5871TIP3    H239173   5.491   6.839   1.839
 5872TIP3   OH239174   4.009   2.160   1.246
 5872TIP3    H139175   4.051   2.191   1.165
 5872TIP3    H239176   3.924   2.203   1.247
 5873TIP3   OH239177   3.988   1.708   0.785
 5873TIP3    H139178   3.939   1.731   0.706
 5873TIP3    H239179   4.077   1.738   0.768
 5874TIP3   OH239180   2.622   0.706   1.204
 5874TIP3    H139181   2.657   0.637   1.261
 5874TIP3    H239182   2.554   0.748   1.257
 5875TIP3   OH239183   3.868   5.655   0.022
 5875TIP3    H139184   3.835   5.615   8.676
 5875TIP3    H239185   3.912   5.584   0.068
 5876TIP3   OH239186   3.134   0.789   0.496
 5876TIP3    H139187   3.107   0.720   0.436
 5876TIP3    H239188   3.203   0.749   0.549
 5877TIP3   OH239189   1.958   5.677   8.667
 5877TIP3    H139190   1.955   5.591   8.709
 5877TIP3    H239191   1.994   5.660   8.580
 5878TIP3   OH239192   2.484   1.464   1.099
 5878TIP3    H139193   2.542   1.529   1.058
 5878TIP3    H239194   2.487   1.389   1.039
 5879TIP3   OH239195   0.038   1.951   8.145
 5879TIP3    H139196   0.028   1.958   8.050
 5879TIP3    H239197   6.802   1.997   8.180
 5880TIP3   OH239198   0.694   0.281   6.670
 5880TIP3    H139199   0.620   0.289   6.730
 5880TIP3    H239200   0.752   0.218   6.711
 5881TIP3   OH239201   6.112   6.217   8.574
 5881TIP3    H139202   6.085   6.272   8.501
 5881TIP3    H239203   6.037   6.159   8.589
 5882TIP3   OH239204   6.566   6.522   0.456
 5882TIP3    H139205   6.572   6.456   0.525
 5882TIP3    H239206   6.560   6.605   0.504
 5883TIP3   OH239207   6.336   6.686   1.483
 5883TIP3    H139208   6.355   6.755   1.419
 5883TIP3    H239209   6.240   6.681   1.484
 5884TIP3   OH239210   5.113   4.370   1.574
 5884TIP3    H139211   5.055   4.298   1.597
 5884TIP3    H239212   5.115   4.425   1.652
 5885TIP3   OH239213   4.562   2.863   6.976
 5885TIP3    H139214   4.557   2.773   6.943
 5885TIP3    H239215   4.501   2.912   6.921
 5886TIP3   OH239216   0.150   4.036   7.513
 5886TIP3    H139217   0.095   3.959   7.499
 5886TIP3    H239218   0.200   4.015   7.593
 5887TIP3   OH239219   0.017   1.597   8.720
 5887TIP3    H139220   0.034   1.514   8.677
 5887TIP3    H239221   0.087   1.655   8.690
 5888TIP3   OH239222   2.899   4.232   7.443
 5888TIP3    H139223   2.988   4.228   7.410
 5888TIP3    H239224   2.907   4.279   7.526
 5889TIP3   OH239225   4.522   3.622   7.275
 5889TIP3    H139226   4.561   3.588   7.356
 5889TIP3    H239227   4.452   3.560   7.254
 5890TIP3   OH239228   0.282   4.485   0.131
 5890TIP3    H139229   0.236   4.565   0.105
 5890TIP3    H239230   0.219   4.415   0.117
 5891TIP3   OH239231   1.756   3.700   6.255
 5891TIP3    H139232   1.794   3.756   6.323
 5891TIP3    H239233   1.796   3.615   6.268
 5892TIP3   OH239234   2.859   3.278   8.611
 5892TIP3    H139235   2.937   3.264   8.557
 5892TIP3    H239236   2.890   3.332   8.684
 5893TIP3   OH239237   5.192   6.497   0.148
 5893TIP3    H139238   5.149   6.418   0.116
 5893TIP3    H239239   5.194   6.486   0.243
 5894TIP3   OH239240   3.127   0.096   1.835
 5894TIP3    H139241   3.137   0.038   1.760
 5894TIP3    H239242   3.127   0.184   1.797
 5895TIP3   OH239243   0.691   6.336   1.338
 5895TIP3    H139244   0.776   6.353   1.297
 5895TIP3    H239245   0.630   6.330   1.265
 5896TIP3   OH239246   2.966   0.997   8.103
 5896TIP3    H139247   2.941   1.060   8.036
 5896TIP3    H239248   2.996   1.051   8.177
 5897TIP3   OH239249   1.626   6.285   0.931
 5897TIP3    H139250   1.685   6.308   0.859
 5897TIP3    H239251   1.541   6.273   0.890
 5898TIP3   OH239252   6.669   2.064   1.060
 5898TIP3    H139253   6.678   2.152   1.097
 5898TIP3    H239254   6.753   2.046   1.020
 5899TIP3   OH239255   5.575   5.397   1.146
 5899TIP3    H139256   5.602   5.305   1.147
 5899TIP3    H239257   5.650   5.444   1.184
 5900TIP3   OH239258   3.695   0.370   7.664
 5900TIP3    H139259   3.628   0.383   7.732
 5900TIP3    H239260   3.732   0.457   7.649
 5901TIP3   OH239261   2.304   2.205   8.299
 5901TIP3    H139262   2.375   2.205   8.235
 5901TIP3    H239263   2.348   2.204   8.384
 5902TIP3   OH239264   0.421   0.496   0.796
 5902TIP3    H139265   0.407   0.463   0.884
 5902TIP3    H239266   0.396   0.423   0.739
 5903TIP3   OH239267   1.594   1.104   1.135
 5903TIP3    H139268   1.686   1.079   1.128
 5903TIP3    H239269   1.589   1.189   1.092
 5904TIP3   OH239270   6.687   0.211   8.044
 5904TIP3    H139271   6.601   0.248   8.061
 5904TIP3    H239272   6.701   0.149   8.116
 5905TIP3   OH239273   3.324   6.119   6.698
 5905TIP3    H139274   3.325   6.129   6.603
 5905TIP3    H239275   3.235   6.143   6.724
 5906TIP3   OH239276   1.911   2.648   6.537
 5906TIP3    H139277   1.892   2.742   6.534
 5906TIP3    H239278   1.865   2.616   6.614
 5907TIP3   OH239279   4.473   3.113   0.497
 5907TIP3    H139280   4.532   3.053   0.542
 5907TIP3    H239281   4.399   3.123   0.558
 5908TIP3   OH239282   6.439   6.089   7.444
 5908TIP3    H139283   6.533   6.089   7.428
 5908TIP3    H239284   6.415   6.181   7.450
 5909TIP3   OH239285   2.366   0.623   0.108
 5909TIP3    H139286   2.377   0.543   0.058
 5909TIP3    H239287   2.272   0.643   0.101
 5910TIP3   OH239288   3.693   6.618   1.851
 5910TIP3    H139289   3.680   6.579   1.765
 5910TIP3    H239290   3.689   6.712   1.836
 5911TIP3   OH239291   0.511   6.350   8.049
 5911TIP3    H139292   0.553   6.264   8.053
 5911TIP3    H239293   0.427   6.339   8.092
 5912TIP3   OH239294   4.607   6.819   1.543
 5912TIP3    H139295   4.601   0.074   1.543
 5912TIP3    H239296   4.525   6.790   1.502
 5913TIP3   OH239297   3.182   5.423   1.627
 5913TIP3    H139298   3.144   5.420   1.715
 5913TIP3    H239299   3.259   5.368   1.632
 5914TIP3   OH239300   3.190   2.482   1.026
 5914TIP3    H139301   3.102   2.448   1.037
 5914TIP3    H239302   3.234   2.461   1.109
 5915TIP3   OH239303   6.461   6.061   8.098
 5915TIP3    H139304   6.450   5.971   8.070
 5915TIP3    H239305   6.494   6.107   8.020
 5916TIP3   OH239306   1.316   2.287   7.582
 5916TIP3    H139307   1.347   2.368   7.542
 5916TIP3    H239308   1.345   2.293   7.673
 5917TIP3   OH239309   1.081   1.341   1.410
 5917TIP3    H139310   0.996   1.384   1.396
 5917TIP3    H239311   1.059   1.259   1.453
 5918TIP3   OH239312   0.763   0.987   1.669
 5918TIP3    H139313   0.689   0.959   1.615
 5918TIP3    H239314   0.794   1.067   1.627
 5919TIP3   OH239315   5.106   4.264   8.535
 5919TIP3    H139316   5.055   4.330   8.582
 5919TIP3    H239317   5.192   4.265   8.577
 5920TIP3   OH239318   4.572   2.074   1.432
 5920TIP3    H139319   4.566   2.122   1.515
 5920TIP3    H239320   4.548   1.984   1.455
 5921TIP3   OH239321   5.444   4.832   0.146
 5921TIP3    H139322   5.427   4.925   0.162
 5921TIP3    H239323   5.400   4.787   0.218
 5922TIP3   OH239324   3.285   4.271   7.626
 5922TIP3    H139325   3.311   4.187   7.664
 5922TIP3    H239326   3.292   4.333   7.698
 5923TIP3   OH239327   1.009   5.213   7.211
 5923TIP3    H139328   0.990   5.206   7.118
 5923TIP3    H239329   1.087   5.269   7.216
 5924TIP3   OH239330   6.105   2.548   8.047
 5924TIP3    H139331   6.028   2.604   8.036
 5924TIP3    H239332   6.071   2.467   8.083
 5925TIP3   OH239333   6.453   1.731   7.476
 5925TIP3    H139334   6.457   1.654   7.533
 5925TIP3    H239335   6.519   1.791   7.511
 5926TIP3   OH239336   5.991   5.359   6.593
 5926TIP3    H139337   5.953   5.447   6.593
 5926TIP3    H239338   5.987   5.331   6.502
 5927TIP3   OH239339   5.453   5.523   6.911
 5927TIP3    H139340   5.414   5.524   6.823
 5927TIP3    H239341   5.534   5.474   6.901
 5928TIP3   OH239342   3.882   6.092   7.769
 5928TIP3    H139343   3.872   5.997   7.774
 5928TIP3    H239344   3.968   6.109   7.807
 5929TIP3   OH239345   4.410   3.863   6.335
 5929TIP3    H139346   4.467   3.891   6.406
 5929TIP3    H239347   4.405   3.768   6.345
 5930TIP3   OH239348   1.423   5.335   0.211
 5930TIP3    H139349   1.448   5.318   0.121
 5930TIP3    H239350   1.470   5.416   0.234
 5931TIP3   OH239351   4.158   3.823   6.062
 5931TIP3    H139352   4.222   3.752   6.051
 5931TIP3    H239353   4.088   3.801   6.001
 5932TIP3   OH239354   1.455   0.552   7.278
 5932TIP3    H139355   1.513   0.498   7.225
 5932TIP3    H239356   1.506   0.571   7.357
 5933TIP3   OH239357   0.621   0.750   8.568
 5933TIP3    H139358   0.604   0.662   8.534
 5933TIP3    H239359   0.542   0.799   8.546
 5934TIP3   OH239360   6.329   6.143   7.078
 5934TIP3    H139361   6.276   6.075   7.120
 5934TIP3    H239362   6.295   6.225   7.113
 5935TIP3   OH239363   5.835   6.492   6.253
 5935TIP3    H139364   5.820   6.420   6.191
 5935TIP3    H239365   5.834   6.571   6.198
 5936TIP3   OH239366   0.852   2.525   2.250
 5936TIP3    H139367   0.806   2.598   2.210
 5936TIP3    H239368   0.852   2.457   2.183
 5937TIP3   OH239369   3.289   4.749   8.465
 5937TIP3    H139370   3.286   4.806   8.542
 5937TIP3    H239371   3.333   4.802   8.398
 5938TIP3   OH239372   4.021   5.071   7.239
 5938TIP3    H139373   3.991   5.044   7.152
 5938TIP3    H239374   4.083   5.142   7.221
 5939TIP3   OH239375   4.597   3.998   6.998
 5939TIP3    H139376   4.623   3.931   7.061
 5939TIP3    H239377   4.502   4.004   7.007
 5940TIP3   OH239378   5.763   6.450   0.761
 5940TIP3    H139379   5.711   6.376   0.791
 5940TIP3    H239380   5.719   6.527   0.798
 5941TIP3   OH239381   0.789   6.221   7.694
 5941TIP3    H139382   0.718   6.165   7.663
 5941TIP3    H239383   0.745   6.301   7.724
 5942TIP3   OH239384   0.442   6.590   0.216
 5942TIP3    H139385   0.478   6.636   0.140
 5942TIP3    H239386   0.388   6.655   0.261
 5943TIP3   OH239387   0.906   6.715   0.606
 5943TIP3    H139388   0.964   6.653   0.563
 5943TIP3    H239389   0.822   6.669   0.611
 5944TIP3   OH239390   2.732   5.128   7.473
 5944TIP3    H139391   2.739   5.162   7.384
 5944TIP3    H239392   2.789   5.052   7.475
 5945TIP3   OH239393   1.806   3.625   6.903
 5945TIP3    H139394   1.718   3.653   6.877
 5945TIP3    H239395   1.838   3.575   6.827
 5946TIP3   OH239396   3.197   4.771   6.731
 5946TIP3    H139397   3.183   4.713   6.806
 5946TIP3    H239398   3.264   4.727   6.679
 5947TIP3   OH239399   0.263   3.005   0.237
 5947TIP3    H139400   0.208   3.066   0.287
 5947TIP3    H239401   0.315   2.959   0.304
 5948TIP3   OH239402   4.583   2.872   7.255
 5948TIP3    H139403   4.535   2.949   7.286
 5948TIP3    H239404   4.577   2.876   7.160
 5949TIP3   OH239405   2.862   5.812   1.218
 5949TIP3    H139406   2.779   5.766   1.203
 5949TIP3    H239407   2.921   5.744   1.251
 5950TIP3   OH239408   4.715   4.056   1.516
 5950TIP3    H139409   4.802   4.029   1.487
 5950TIP3    H239410   4.657   3.988   1.484
 5951TIP3   OH239411   0.633   5.391   7.217
 5951TIP3    H139412   0.661   5.479   7.189
 5951TIP3    H239413   0.552   5.407   7.266
 5952TIP3   OH239414   6.666   0.622   0.414
 5952TIP3    H139415   6.621   0.707   0.412
 5952TIP3    H239416   6.752   0.641   0.451
 5953TIP3   OH239417   2.797   4.515   1.271
 5953TIP3    H139418   2.750   4.451   1.218
 5953TIP3    H239419   2.884   4.476   1.285
 5954TIP3   OH239420   5.240   3.753   0.698
 5954TIP3    H139421   5.271   3.832   0.742
 5954TIP3    H239422   5.165   3.781   0.646
 5955TIP3   OH239423   1.518   3.256   7.752
 5955TIP3    H139424   1.447   3.275   7.814
 5955TIP3    H239425   1.548   3.168   7.777
 5956TIP3   OH239426   5.718   2.554   7.295
 5956TIP3    H139427   5.640   2.576   7.245
 5956TIP3    H239428   5.715   2.458   7.303
 5957TIP3   OH239429   6.262   3.019   0.290
 5957TIP3    H139430   6.242   3.110   0.315
 5957TIP3    H239431   6.201   3.000   0.219
 5958TIP3   OH239432   3.038   1.542   7.013
 5958TIP3    H139433   2.989   1.615   7.051
 5958TIP3    H239434   2.987   1.464   7.036
 5959TIP3   OH239435   0.995   2.383   1.597
 5959TIP3    H139436   0.936   2.441   1.645
 5959TIP3    H239437   1.073   2.377   1.652
 5960TIP3   OH239438   3.226   6.365   1.946
 5960TIP3    H139439   3.291   6.359   1.876
 5960TIP3    H239440   3.257   6.303   2.013
 5961TIP3   OH239441   3.550   0.043   0.479
 5961TIP3    H139442   3.614   0.098   0.525
 5961TIP3    H239443   3.601   6.837   0.413
 5962TIP3   OH239444   2.690   1.252   0.483
 5962TIP3    H139445   2.673   1.230   0.391
 5962TIP3    H239446   2.651   1.180   0.532
 5963TIP3   OH239447   6.166   1.696   6.404
 5963TIP3    H139448   6.190   1.711   6.313
 5963TIP3    H239449   6.151   1.602   6.410
 5964TIP3   OH239450   4.044   2.970   0.482
 5964TIP3    H139451   3.990   2.951   0.559
 5964TIP3    H239452   3.982   2.998   0.415
 5965TIP3   OH239453   5.963   4.892   0.060
 5965TIP3    H139454   6.026   4.845   0.115
 5965TIP3    H239455   5.879   4.849   0.079
 5966TIP3   OH239456   0.180   6.674   8.097
 5966TIP3    H139457   0.131   6.594   8.116
 5966TIP3    H239458   0.252   6.645   8.041
 5967TIP3   OH239459   1.898   4.065   8.101
 5967TIP3    H139460   1.988   4.033   8.106
 5967TIP3    H239461   1.900   4.147   8.150
 5968TIP3   OH239462   5.808   4.455   7.213
 5968TIP3    H139463   5.868   4.530   7.207
 5968TIP3    H239464   5.790   4.432   7.122
 5969TIP3   OH239465   2.449   5.022   0.379
 5969TIP3    H139466   2.542   5.038   0.390
 5969TIP3    H239467   2.442   4.928   0.364
 5970TIP3   OH239468   4.500   0.566   6.795
 5970TIP3    H139469   4.433   0.499   6.786
 5970TIP3    H239470   4.495   0.616   6.714
 5971TIP3   OH239471   1.555   4.103   1.792
 5971TIP3    H139472   1.591   4.029   1.840
 5971TIP3    H239473   1.626   4.166   1.787
 5972TIP3   OH239474   3.287   3.217   0.356
 5972TIP3    H139475   3.220   3.159   0.319
 5972TIP3    H239476   3.283   3.201   0.450
 5973TIP3   OH239477   4.228   2.693   1.368
 5973TIP3    H139478   4.255   2.775   1.410
 5973TIP3    H239479   4.195   2.720   1.282
 5974TIP3   OH239480   5.673   5.361   6.905
 5974TIP3    H139481   5.672   5.303   6.829
 5974TIP3    H239482   5.698   5.305   6.978
 5975TIP3   OH239483   5.761   3.354   2.395
 5975TIP3    H139484   5.689   3.353   2.332
 5975TIP3    H239485   5.740   3.287   2.459
 5976TIP3   OH239486   2.405   3.474   7.646
 5976TIP3    H139487   2.330   3.437   7.694
 5976TIP3    H239488   2.466   3.501   7.715
 5977TIP3   OH239489   4.147   3.749   7.434
 5977TIP3    H139490   4.166   3.656   7.447
 5977TIP3    H239491   4.060   3.761   7.471
 5978TIP3   OH239492   6.757   0.600   7.042
 5978TIP3    H139493   6.766   0.626   6.951
 5978TIP3    H239494   6.725   0.509   7.038
 5979TIP3   OH239495   1.201   5.508   8.174
 5979TIP3    H139496   1.153   5.583   8.207
 5979TIP3    H239497   1.138   5.436   8.178
 5980TIP3   OH239498   4.393   4.070   8.169
 5980TIP3    H139499   4.438   4.015   8.106
 5980TIP3    H239500   4.413   4.031   8.254
 5981TIP3   OH239501   3.245   5.101   0.201
 5981TIP3    H139502   3.232   5.009   0.179
 5981TIP3    H239503   3.287   5.139   0.124
 5982TIP3   OH239504   2.207   5.443   8.517
 5982TIP3    H139505   2.199   5.367   8.460
 5982TIP3    H239506   2.164   5.514   8.470
 5983TIP3   OH239507   0.638   4.611   1.919
 5983TIP3    H139508   0.623   4.528   1.964
 5983TIP3    H239509   0.671   4.670   1.987
 5984TIP3   OH239510   4.270   5.183   1.123
 5984TIP3    H139511   4.311   5.197   1.209
 5984TIP3    H239512   4.311   5.248   1.066
 5985TIP3   OH239513   1.315   5.690   0.633
 5985TIP3    H139514   1.352   5.627   0.571
 5985TIP3    H239515   1.235   5.722   0.591
 5986TIP3   OH239516   2.250   3.403   1.054
 5986TIP3    H139517   2.180   3.338   1.052
 5986TIP3    H239518   2.229   3.458   1.130
 5987TIP3   OH239519   2.817   2.992   6.164
 5987TIP3    H139520   2.749   3.047   6.203
 5987TIP3    H239521   2.787   2.902   6.178
 5988TIP3   OH239522   4.843   0.344   8.513
 5988TIP3    H139523   4.909   0.296   8.564
 5988TIP3    H239524   4.885   0.360   8.428
 5989TIP3   OH239525   6.834   6.776   1.655
 5989TIP3    H139526   6.747   6.735   1.656
 5989TIP3    H239527   0.009   6.795   1.563
 5990TIP3   OH239528   0.488   3.676   0.902
 5990TIP3    H139529   0.476   3.702   0.811
 5990TIP3    H239530   0.401   3.682   0.941
 5991TIP3   OH239531   3.275   1.771   7.758
 5991TIP3    H139532   3.247   1.818   7.680
 5991TIP3    H239533   3.339   1.707   7.727
 5992TIP3   OH239534   3.596   4.960   0.011
 5992TIP3    H139535   3.673   4.976   8.692
 5992TIP3    H239536   3.614   5.004   0.094
 5993TIP3   OH239537   1.454   3.474   1.267
 5993TIP3    H139538   1.374   3.425   1.288
 5993TIP3    H239539   1.473   3.523   1.347
 5994TIP3   OH239540   5.170   4.682   1.600
 5994TIP3    H139541   5.110   4.756   1.595
 5994TIP3    H239542   5.139   4.630   1.674
 5995TIP3   OH239543   5.896   5.143   2.036
 5995TIP3    H139544   5.903   5.075   1.969
 5995TIP3    H239545   5.817   5.121   2.085
 5996TIP3   OH239546   3.719   6.457   2.225
 5996TIP3    H139547   3.771   6.383   2.257
 5996TIP3    H239548   3.732   6.456   2.130
 5997TIP3   OH239549   1.026   2.724   1.647
 5997TIP3    H139550   0.954   2.785   1.634
 5997TIP3    H239551   1.027   2.671   1.567
 5998TIP3   OH239552   5.112   4.302   8.279
 5998TIP3    H139553   5.079   4.262   8.359
 5998TIP3    H239554   5.042   4.290   8.215
 5999TIP3   OH239555   4.840   6.319   0.387
 5999TIP3    H139556   4.789   6.322   0.306
 5999TIP3    H239557   4.885   6.403   0.390
 6000TIP3   OH239558   0.694   3.566   0.800
 6000TIP3    H139559   0.619   3.604   0.845
 6000TIP3    H239560   0.659   3.534   0.717
 6001TIP3   OH239561   0.789   3.531   1.816
 6001TIP3    H139562   0.866   3.581   1.788
 6001TIP3    H239563   0.744   3.588   1.878
 6002TIP3   OH239564   2.943   5.114   0.354
 6002TIP3    H139565   3.020   5.104   0.298
 6002TIP3    H239566   2.923   5.208   0.351
 6003TIP3   OH239567   4.956   2.160   7.850
 6003TIP3    H139568   5.051   2.163   7.864
 6003TIP3    H239569   4.936   2.067   7.838
 6004TIP3   OH239570   0.776   4.301   7.390
 6004TIP3    H139571   0.682   4.319   7.383
 6004TIP3    H239572   0.814   4.386   7.416
 6005TIP3   OH239573   3.302   3.562   6.454
 6005TIP3    H139574   3.279   3.469   6.446
 6005TIP3    H239575   3.223   3.603   6.490
 6006TIP3   OH239576   3.246   1.692   7.425
 6006TIP3    H139577   3.248   1.779   7.384
 6006TIP3    H239578   3.223   1.633   7.354
 6007TIP3   OH239579   2.908   1.762   7.097
 6007TIP3    H139580   2.937   1.849   7.070
 6007TIP3    H239581   2.859   1.776   7.178
 6008TIP3   OH239582   4.764   4.998   0.626
 6008TIP3    H139583   4.742   5.031   0.713
 6008TIP3    H239584   4.815   4.919   0.642
 6009TIP3   OH239585   4.060   5.083   8.081
 6009TIP3    H139586   4.149   5.080   8.115
 6009TIP3    H239587   4.064   5.143   8.006
 6010TIP3   OH239588   1.932   6.325   6.861
 6010TIP3    H139589   2.001   6.270   6.822
 6010TIP3    H239590   1.979   6.384   6.919
 6011TIP3   OH239591   0.493   5.069   0.426
 6011TIP3    H139592   0.432   5.133   0.464
 6011TIP3    H239593   0.528   5.023   0.502
 6012TIP3   OH239594   0.257   1.675   1.680
 6012TIP3    H139595   0.238   1.694   1.588
 6012TIP3    H239596   0.176   1.695   1.727
 6013TIP3   OH239597   6.612   4.928   8.103
 6013TIP3    H139598   6.543   4.983   8.065
 6013TIP3    H239599   6.566   4.855   8.144
 6014TIP3   OH239600   1.338   0.005   6.866
 6014TIP3    H139601   1.406   0.036   6.926
 6014TIP3    H239602   1.369   0.030   6.779
 6015TIP3   OH239603   6.021   3.527   8.084
 6015TIP3    H139604   5.980   3.613   8.082
 6015TIP3    H239605   5.975   3.477   8.016
 6016TIP3   OH239606   5.812   2.103   2.348
 6016TIP3    H139607   5.745   2.035   2.341
 6016TIP3    H239608   5.765   2.179   2.383
 6017TIP3   OH239609   4.029   1.630   8.665
 6017TIP3    H139610   3.985   1.615   8.582
 6017TIP3    H239611   4.111   1.580   8.658
 6018TIP3   OH239612   1.636   5.049   0.203
 6018TIP3    H139613   1.641   4.980   0.270
 6018TIP3    H239614   1.562   5.023   0.148
 6019TIP3   OH239615   0.955   3.440   5.884
 6019TIP3    H139616   0.884   3.432   5.947
 6019TIP3    H239617   0.934   3.518   5.833
 6020TIP3   OH239618   1.229   0.491   7.162
 6020TIP3    H139619   1.236   0.565   7.102
 6020TIP3    H239620   1.305   0.500   7.220
 6021TIP3   OH239621   2.359   0.833   0.652
 6021TIP3    H139622   2.421   0.777   0.605
 6021TIP3    H239623   2.288   0.847   0.590
 6022TIP3   OH239624   5.242   0.932   8.045
 6022TIP3    H139625   5.298   0.860   8.014
 6022TIP3    H239626   5.240   0.922   8.140
 6023TIP3   OH239627   4.427   1.451   2.675
 6023TIP3    H139628   4.382   1.387   2.619
 6023TIP3    H239629   4.475   1.397   2.738
 6024TIP3   OH239630   3.382   2.302   8.620
 6024TIP3    H139631   3.324   2.259   8.557
 6024TIP3    H239632   3.385   2.393   8.592
 6025TIP3   OH239633   3.221   3.784   0.503
 6025TIP3    H139634   3.276   3.858   0.527
 6025TIP3    H239635   3.140   3.798   0.552
 6026TIP3   OH239636   2.486   3.823   8.713
 6026TIP3    H139637   2.416   3.767   8.678
 6026TIP3    H239638   2.501   3.790   0.067
 6027TIP3   OH239639   6.708   5.789   7.671
 6027TIP3    H139640   6.680   5.698   7.680
 6027TIP3    H239641   6.753   5.792   7.586
 6028TIP3   OH239642   4.622   4.375   8.371
 6028TIP3    H139643   4.686   4.307   8.393
 6028TIP3    H239644   4.589   4.350   8.285
 6029TIP3   OH239645   5.590   5.209   8.731
 6029TIP3    H139646   5.558   5.223   0.085
 6029TIP3    H239647   5.578   5.293   8.687
 6030TIP3   OH239648   5.322   3.283   1.405
 6030TIP3    H139649   5.266   3.275   1.482
 6030TIP3    H239650   5.411   3.287   1.440
 6031TIP3   OH239651   0.114   2.907   8.365
 6031TIP3    H139652   0.193   2.875   8.321
 6031TIP3    H239653   0.141   2.987   8.410
 6032TIP3   OH239654   5.378   5.501   0.861
 6032TIP3    H139655   5.463   5.459   0.843
 6032TIP3    H239656   5.374   5.507   0.956
 6033TIP3   OH239657   3.825   6.114   8.550
 6033TIP3    H139658   3.782   6.080   8.472
 6033TIP3    H239659   3.809   6.048   8.617
 6034TIP3   OH239660   5.185   5.239   7.782
 6034TIP3    H139661   5.203   5.199   7.697
 6034TIP3    H239662   5.271   5.271   7.812
 6035TIP3   OH239663   1.777   1.731   1.397
 6035TIP3    H139664   1.759   1.770   1.311
 6035TIP3    H239665   1.838   1.660   1.378
 6036TIP3   OH239666   1.465   1.164   6.985
 6036TIP3    H139667   1.532   1.215   7.031
 6036TIP3    H239668   1.414   1.229   6.937
 6037TIP3   OH239669   2.028   1.518   0.550
 6037TIP3    H139670   1.974   1.592   0.576
 6037TIP3    H239671   2.005   1.504   0.458
 6038TIP3   OH239672   2.916   1.871   7.803
 6038TIP3    H139673   2.850   1.804   7.785
 6038TIP3    H239674   2.956   1.889   7.717
 6039TIP3   OH239675   3.822   2.708   0.259
 6039TIP3    H139676   3.770   2.635   0.292
 6039TIP3    H239677   3.900   2.709   0.314
 6040TIP3   OH239678   1.015   5.707   8.193
 6040TIP3    H139679   1.022   5.799   8.221
 6040TIP3    H239680   0.991   5.712   8.100
 6041TIP3   OH239681   4.093   2.268   0.507
 6041TIP3    H139682   4.150   2.345   0.499
 6041TIP3    H239683   4.153   2.193   0.504
 6042TIP3   OH239684   2.976   4.318   0.456
 6042TIP3    H139685   2.888   4.298   0.424
 6042TIP3    H239686   3.021   4.233   0.457
 6043TIP3   OH239687   2.886   3.605   8.023
 6043TIP3    H139688   2.797   3.582   8.050
 6043TIP3    H239689   2.874   3.651   7.940
 6044TIP3   OH239690   5.351   6.292   2.393
 6044TIP3    H139691   5.354   6.328   2.304
 6044TIP3    H239692   5.299   6.355   2.443
 6045TIP3   OH239693   5.599   3.910   0.668
 6045TIP3    H139694   5.674   3.852   0.683
 6045TIP3    H239695   5.601   3.927   0.574
 6046TIP3   OH239696   3.267   1.115   7.560
 6046TIP3    H139697   3.228   1.105   7.647
 6046TIP3    H239698   3.209   1.177   7.516
 6047TIP3   OH239699   0.713   5.944   0.737
 6047TIP3    H139700   0.723   6.032   0.773
 6047TIP3    H239701   0.741   5.952   0.646
 6048TIP3   OH239702   4.298   5.732   2.213
 6048TIP3    H139703   4.220   5.735   2.267
 6048TIP3    H239704   4.359   5.677   2.262
 6049TIP3   OH239705   3.844   1.213   0.061
 6049TIP3    H139706   3.836   1.199   0.155
 6049TIP3    H239707   3.936   1.234   0.047
 6050TIP3   OH239708   2.690   3.246   1.699
 6050TIP3    H139709   2.626   3.217   1.764
 6050TIP3    H239710   2.753   3.173   1.694
 6051TIP3   OH239711   2.824   2.103   0.480
 6051TIP3    H139712   2.753   2.146   0.528
 6051TIP3    H239713   2.871   2.175   0.438
 6052TIP3   OH239714   5.571   2.117   0.803
 6052TIP3    H139715   5.588   2.210   0.814
 6052TIP3    H239716   5.602   2.077   0.884
 6053TIP3   OH239717   1.650   1.890   0.407
 6053TIP3    H139718   1.644   1.835   0.328
 6053TIP3    H239719   1.603   1.841   0.474
 6054TIP3   OH239720   6.660   4.596   8.130
 6054TIP3    H139721   6.724   4.644   8.078
 6054TIP3    H239722   6.582   4.651   8.129
 6055TIP3   OH239723   1.832   1.691   0.526
 6055TIP3    H139724   1.844   1.785   0.519
 6055TIP3    H239725   1.773   1.679   0.600
 6056TIP3   OH239726   1.479   0.375   6.523
 6056TIP3    H139727   1.479   0.464   6.560
 6056TIP3    H239728   1.542   0.379   6.451
 6057TIP3   OH239729   2.969   5.827   0.685
 6057TIP3    H139730   2.913   5.767   0.636
 6057TIP3    H239731   2.972   5.790   0.773
 6058TIP3   OH239732   4.525   0.624   8.115
 6058TIP3    H139733   4.530   0.686   8.042
 6058TIP3    H239734   4.530   0.679   8.194
 6059TIP3   OH239735   4.723   5.159   1.979
 6059TIP3    H139736   4.796   5.206   1.938
 6059TIP3    H239737   4.647   5.216   1.965
 6060TIP3   OH239738   3.651   5.678   1.886
 6060TIP3    H139739   3.624   5.600   1.936
 6060TIP3    H239740   3.686   5.737   1.952
 6061TIP3   OH239741   3.299   1.698   6.911
 6061TIP3    H139742   3.309   1.766   6.844
 6061TIP3    H239743   3.205   1.694   6.926
 6062TIP3   OH239744   4.554   5.588   6.925
 6062TIP3    H139745   4.637   5.610   6.968
 6062TIP3    H239746   4.521   5.671   6.891
 6063TIP3   OH239747   0.404   6.452   8.347
 6063TIP3    H139748   0.367   6.540   8.353
 6063TIP3    H239749   0.333   6.394   8.376
 6064TIP3   OH239750   4.754   5.153   0.140
 6064TIP3    H139751   4.836   5.196   0.162
 6064TIP3    H239752   4.750   5.153   0.045
 6065TIP3   OH239753   4.249   5.326   8.216
 6065TIP3    H139754   4.343   5.316   8.206
 6065TIP3    H239755   4.212   5.282   8.139
 6066TIP3   OH239756   4.196   6.019   2.009
 6066TIP3    H139757   4.121   5.975   2.047
 6066TIP3    H239758   4.260   6.024   2.080
 6067TIP3   OH239759   4.029   4.589   8.524
 6067TIP3    H139760   3.988   4.675   8.523
 6067TIP3    H239761   4.076   4.586   8.607
 6068TIP3   OH239762   1.847   4.385   0.100
 6068TIP3    H139763   1.819   4.476   0.110
 6068TIP3    H239764   1.816   4.342   0.179
 6069TIP3   OH239765   3.262   6.434   2.450
 6069TIP3    H139766   3.169   6.412   2.437
 6069TIP3    H239767   3.287   6.480   2.370
 6070TIP3   OH239768   1.720   1.422   1.150
 6070TIP3    H139769   1.767   1.447   1.071
 6070TIP3    H239770   1.628   1.443   1.131
 6071TIP3   OH239771   0.958   4.631   0.859
 6071TIP3    H139772   0.931   4.564   0.796
 6071TIP3    H239773   1.005   4.696   0.807
 6072TIP3   OH239774   3.485   2.031   1.178
 6072TIP3    H139775   3.532   2.114   1.187
 6072TIP3    H239776   3.417   2.050   1.113
 6073TIP3   OH239777   5.690   1.549   6.557
 6073TIP3    H139778   5.752   1.495   6.606
 6073TIP3    H239779   5.745   1.607   6.504
 6074TIP3   OH239780   0.081   2.243   1.927
 6074TIP3    H139781   0.051   2.187   1.856
 6074TIP3    H239782   0.091   2.183   2.002
 6075TIP3   OH239783   6.260   2.947   8.331
 6075TIP3    H139784   6.313   2.961   8.409
 6075TIP3    H239785   6.201   3.022   8.328
 6076TIP3   OH239786   3.936   3.889   1.384
 6076TIP3    H139787   3.921   3.972   1.431
 6076TIP3    H239788   3.994   3.840   1.442
 6077TIP3   OH239789   1.087   5.099   6.401
 6077TIP3    H139790   1.009   5.042   6.404
 6077TIP3    H239791   1.055   5.181   6.363
 6078TIP3   OH239792   3.772   4.118   8.722
 6078TIP3    H139793   3.738   4.205   8.701
 6078TIP3    H239794   3.694   4.066   0.005
 6079TIP3   OH239795   4.199   1.293   1.529
 6079TIP3    H139796   4.156   1.214   1.496
 6079TIP3    H239797   4.182   1.359   1.461
 6080TIP3   OH239798   2.427   6.058   1.595
 6080TIP3    H139799   2.426   6.044   1.501
 6080TIP3    H239800   2.457   6.149   1.605
 6081TIP3   OH239801   5.173   4.417   7.198
 6081TIP3    H139802   5.172   4.442   7.291
 6081TIP3    H239803   5.249   4.361   7.189
 6082TIP3   OH239804   6.119   2.075   1.628
 6082TIP3    H139805   6.090   2.132   1.699
 6082TIP3    H239806   6.039   2.043   1.587
 6083TIP3   OH239807   2.036   6.208   1.989
 6083TIP3    H139808   2.096   6.133   1.998
 6083TIP3    H239809   1.999   6.199   1.902
 6084TIP3   OH239810   3.486   6.101   7.198
 6084TIP3    H139811   3.578   6.119   7.219
 6084TIP3    H239812   3.439   6.178   7.231
 6085TIP3   OH239813   3.093   3.672   6.598
 6085TIP3    H139814   3.048   3.756   6.612
 6085TIP3    H239815   3.022   3.610   6.582
 6086TIP3   OH239816   2.733   4.896   1.541
 6086TIP3    H139817   2.689   4.834   1.599
 6086TIP3    H239818   2.764   4.842   1.468
 6087TIP3   OH239819   0.804   1.245   1.279
 6087TIP3    H139820   0.812   1.171   1.339
 6087TIP3    H239821   0.746   1.306   1.325
 6088TIP3   OH239822   0.380   1.413   1.521
 6088TIP3    H139823   0.288   1.415   1.494
 6088TIP3    H239824   0.379   1.449   1.610
 6089TIP3   OH239825   5.597   0.906   1.982
 6089TIP3    H139826   5.664   0.930   2.047
 6089TIP3    H239827   5.514   0.912   2.030
 6090TIP3   OH239828   5.858   2.330   1.609
 6090TIP3    H139829   5.901   2.320   1.694
 6090TIP3    H239830   5.837   2.241   1.582
 6091TIP3   OH239831   3.085   0.205   8.703
 6091TIP3    H139832   3.129   0.233   0.049
 6091TIP3    H239833   3.143   0.233   8.632
 6092TIP3   OH239834   6.817   4.955   6.680
 6092TIP3    H139835   0.050   4.907   6.717
 6092TIP3    H239836   0.012   5.042   6.660
 6093TIP3   OH239837   5.715   5.814   8.068
 6093TIP3    H139838   5.643   5.876   8.056
 6093TIP3    H239839   5.678   5.745   8.123
 6094TIP3   OH239840   5.985   2.952   8.078
 6094TIP3    H139841   6.058   2.984   8.132
 6094TIP3    H239842   5.909   2.955   8.136
 6095TIP3   OH239843   2.709   6.700   0.364
 6095TIP3    H139844   2.778   6.634   0.371
 6095TIP3    H239845   2.706   6.722   0.271
 6096TIP3   OH239846   4.372   1.025   2.811
 6096TIP3    H139847   4.319   1.102   2.792
 6096TIP3    H239848   4.310   0.953   2.819
 6097TIP3   OH239849   3.939   6.380   7.534
 6097TIP3    H139850   3.907   6.436   7.463
 6097TIP3    H239851   4.020   6.342   7.500
 6098TIP3   OH239852   2.624   4.266   8.027
 6098TIP3    H139853   2.599   4.317   7.950
 6098TIP3    H239854   2.713   4.237   8.008
 6099TIP3   OH239855   1.733   1.880   0.120
 6099TIP3    H139856   1.816   1.840   0.092
 6099TIP3    H239857   1.686   1.897   0.039
 6100TIP3   OH239858   6.060   2.917   0.841
 6100TIP3    H139859   6.155   2.917   0.828
 6100TIP3    H239860   6.024   2.894   0.756
 6101TIP3   OH239861   0.994   3.416   8.694
 6101TIP3    H139862   1.075   3.465   8.676
 6101TIP3    H239863   0.965   3.450   0.044
 6102TIP3   OH239864   6.290   1.890   6.923
 6102TIP3    H139865   6.354   1.945   6.968
 6102TIP3    H239866   6.328   1.875   6.837
 6103TIP3   OH239867   4.123   0.349   0.806
 6103TIP3    H139868   4.184   0.349   0.732
 6103TIP3    H239869   4.163   0.408   0.870
 6104TIP3   OH239870   6.271   6.540   8.053
 6104TIP3    H139871   6.209   6.570   8.119
 6104TIP3    H239872   6.317   6.620   8.025
 6105TIP3   OH239873   5.645   2.304   7.346
 6105TIP3    H139874   5.572   2.332   7.401
 6105TIP3    H239875   5.706   2.263   7.407
 6106TIP3   OH239876   4.080   2.386   7.344
 6106TIP3    H139877   4.121   2.389   7.258
 6106TIP3    H239878   4.083   2.476   7.376
 6107TIP3   OH239879   2.365   1.746   0.243
 6107TIP3    H139880   2.441   1.803   0.256
 6107TIP3    H239881   2.354   1.701   0.327
 6108TIP3   OH239882   0.939   4.127   7.524
 6108TIP3    H139883   0.969   4.075   7.449
 6108TIP3    H239884   0.872   4.185   7.488
 6109TIP3   OH239885   4.556   6.200   8.514
 6109TIP3    H139886   4.588   6.173   8.428
 6109TIP3    H239887   4.481   6.143   8.531
 6110TIP3   OH239888   5.345   2.062   1.273
 6110TIP3    H139889   5.318   2.041   1.362
 6110TIP3    H239890   5.387   1.982   1.242
 6111TIP3   OH239891   4.002   0.658   8.539
 6111TIP3    H139892   3.952   0.735   8.511
 6111TIP3    H239893   4.048   0.630   8.459
 6112TIP3   OH239894   3.305   2.919   1.867
 6112TIP3    H139895   3.225   2.969   1.883
 6112TIP3    H239896   3.284   2.831   1.896
 6113TIP3   OH239897   5.538   2.117   1.624
 6113TIP3    H139898   5.610   2.099   1.563
 6113TIP3    H239899   5.580   2.128   1.709
 6114TIP3   OH239900   6.100   0.081   6.959
 6114TIP3    H139901   6.031   0.018   6.980
 6114TIP3    H239902   6.093   0.094   6.864
 6115TIP3   OH239903   0.587   1.744   6.810
 6115TIP3    H139904   0.612   1.830   6.776
 6115TIP3    H239905   0.519   1.713   6.751
 6116TIP3   OH239906   6.524   1.741   7.170
 6116TIP3    H139907   6.518   1.834   7.192
 6116TIP3    H239908   6.587   1.737   7.099
 6117TIP3   OH239909   1.608   0.558   0.556
 6117TIP3    H139910   1.589   0.482   0.611
 6117TIP3    H239911   1.594   0.633   0.614
 6118TIP3   OH239912   5.437   6.242   1.342
 6118TIP3    H139913   5.504   6.307   1.366
 6118TIP3    H239914   5.367   6.256   1.406
 6119TIP3   OH239915   5.839   2.370   6.844
 6119TIP3    H139916   5.790   2.402   6.769
 6119TIP3    H239917   5.924   2.413   6.837
 6120TIP3   OH239918   0.332   3.258   1.587
 6120TIP3    H139919   0.402   3.206   1.547
 6120TIP3    H239920   0.346   3.248   1.682
 6121TIP3   OH239921   1.113   0.389   1.765
 6121TIP3    H139922   1.186   0.378   1.826
 6121TIP3    H239923   1.140   0.462   1.708
 6122TIP3   OH239924   4.208   1.835   7.468
 6122TIP3    H139925   4.255   1.856   7.387
 6122TIP3    H239926   4.138   1.900   7.472
 6123TIP3   OH239927   2.277   2.212   2.301
 6123TIP3    H139928   2.308   2.129   2.337
 6123TIP3    H239929   2.193   2.227   2.345
 6124TIP3   OH239930   6.673   1.589   0.746
 6124TIP3    H139931   6.651   1.581   0.653
 6124TIP3    H239932   6.647   1.504   0.783
 6125TIP3   OH239933   4.940   6.713   0.725
 6125TIP3    H139934   4.909   6.627   0.752
 6125TIP3    H239935   4.919   6.718   0.632
 6126TIP3   OH239936   6.612   0.138   2.402
 6126TIP3    H139937   6.523   0.153   2.371
 6126TIP3    H239938   6.601   0.097   2.488
 6127TIP3   OH239939   4.570   5.479   7.760
 6127TIP3    H139940   4.595   5.401   7.709
 6127TIP3    H239941   4.534   5.539   7.695
 6128TIP3   OH239942   4.901   2.909   1.438
 6128TIP3    H139943   4.942   2.896   1.524
 6128TIP3    H239944   4.825   2.851   1.439
 6129TIP3   OH239945   2.735   5.729   0.246
 6129TIP3    H139946   2.815   5.781   0.248
 6129TIP3    H239947   2.755   5.658   0.184
 6130TIP3   OH239948   1.397   5.233   7.951
 6130TIP3    H139949   1.404   5.307   8.010
 6130TIP3    H239950   1.322   5.183   7.984
 6131TIP3   OH239951   0.696   5.314   6.468
 6131TIP3    H139952   0.763   5.299   6.401
 6131TIP3    H239953   0.656   5.397   6.444
 6132TIP3   OH239954   5.124   6.830   8.250
 6132TIP3    H139955   5.118   0.048   8.326
 6132TIP3    H239956   5.168   6.752   8.283
 6133TIP3   OH239957   6.404   3.546   7.530
 6133TIP3    H139958   6.480   3.509   7.485
 6133TIP3    H239959   6.348   3.470   7.548
 6134TIP3   OH239960   0.854   0.078   6.758
 6134TIP3    H139961   0.821   6.830   6.741
 6134TIP3    H239962   0.935   0.065   6.808
 6135TIP3   OH239963   0.162   4.820   8.446
 6135TIP3    H139964   0.173   4.874   8.367
 6135TIP3    H239965   0.152   4.731   8.414
 6136TIP3   OH239966   3.288   0.078   0.396
 6136TIP3    H139967   3.301   0.031   0.315
 6136TIP3    H239968   3.365   0.057   0.450
 6137TIP3   OH239969   5.714   4.994   8.581
 6137TIP3    H139970   5.687   5.054   8.650
 6137TIP3    H239971   5.808   4.983   8.592
 6138TIP3   OH239972   1.969   6.682   8.040
 6138TIP3    H139973   2.049   6.735   8.038
 6138TIP3    H239974   1.948   6.674   8.133
 6139TIP3   OH239975   1.345   0.764   1.477
 6139TIP3    H139976   1.405   0.824   1.433
 6139TIP3    H239977   1.278   0.821   1.516
 6140TIP3   OH239978   0.975   5.914   6.601
 6140TIP3    H139979   1.070   5.908   6.615
 6140TIP3    H239980   0.938   5.848   6.658
 6141TIP3   OH239981   2.885   4.988   0.052
 6141TIP3    H139982   2.878   4.900   0.089
 6141TIP3    H239983   2.923   4.974   8.699
 6142TIP3   OH239984   5.463   1.791   0.267
 6142TIP3    H139985   5.408   1.819   0.340
 6142TIP3    H239986   5.460   1.864   0.205
 6143TIP3   OH239987   0.479   2.354   2.183
 6143TIP3    H139988   0.449   2.445   2.182
 6143TIP3    H239989   0.424   2.309   2.119
 6144TIP3   OH239990   4.656   4.231   1.238
 6144TIP3    H139991   4.728   4.169   1.225
 6144TIP3    H239992   4.581   4.190   1.193
 6145TIP3   OH239993   6.034   4.984   7.267
 6145TIP3    H139994   5.965   4.946   7.321
 6145TIP3    H239995   6.070   5.055   7.320
 6146TIP3   OH239996   4.833   1.911   7.809
 6146TIP3    H139997   4.834   1.833   7.865
 6146TIP3    H239998   4.767   1.891   7.742
 6147TIP3   OH239999   2.308   4.470   7.981
 6147TIP3    H140000   2.250   4.442   8.052
 6147TIP3    H240001   2.281   4.560   7.963
 6148TIP3   OH240002   6.005   0.169   1.103
 6148TIP3    H140003   5.960   0.163   1.188
 6148TIP3    H240004   5.998   0.080   1.067
 6149TIP3   OH240005   3.270   4.993   1.434
 6149TIP3    H140006   3.306   4.934   1.368
 6149TIP3    H240007   3.344   5.044   1.464
 6150TIP3   OH240008   5.480   6.625   8.613
 6150TIP3    H140009   5.393   6.640   8.651
 6150TIP3    H240010   5.498   6.533   8.631
 6151TIP3   OH240011   3.625   5.865   2.196
 6151TIP3    H140012   3.582   5.937   2.243
 6151TIP3    H240013   3.693   5.835   2.256
 6152TIP3   OH240014   6.697   6.328   1.603
 6152TIP3    H140015   6.687   6.234   1.617
 6152TIP3    H240016   6.631   6.368   1.661
 6153TIP3   OH240017   6.623   1.639   0.117
 6153TIP3    H140018   6.574   1.567   0.077
 6153TIP3    H240019   6.714   1.621   0.094
 6154TIP3   OH240020   1.807   2.883   1.423
 6154TIP3    H140021   1.728   2.898   1.475
 6154TIP3    H240022   1.871   2.946   1.458
 6155TIP3   OH240023   5.290   1.617   8.322
 6155TIP3    H140024   5.222   1.677   8.353
 6155TIP3    H240025   5.310   1.563   8.398
 6156TIP3   OH240026   5.562   3.161   7.672
 6156TIP3    H140027   5.559   3.073   7.711
 6156TIP3    H240028   5.654   3.176   7.654
 6157TIP3   OH240029   0.156   6.098   0.409
 6157TIP3    H140030   0.100   6.159   0.457
 6157TIP3    H240031   0.103   6.072   0.333
 6158TIP3   OH240032   3.527   4.334   0.350
 6158TIP3    H140033   3.444   4.333   0.302
 6158TIP3    H240034   3.506   4.376   0.433
 6159TIP3   OH240035   3.572   5.063   1.998
 6159TIP3    H140036   3.487   5.067   2.041
 6159TIP3    H240037   3.623   5.134   2.038
 6160TIP3   OH240038   0.542   2.909   8.513
 6160TIP3    H140039   0.498   2.895   8.430
 6160TIP3    H240040   0.510   2.994   8.544
 6161TIP3   OH240041   2.508   3.332   0.961
 6161TIP3    H140042   2.533   3.275   1.034
 6161TIP3    H240043   2.434   3.382   0.995
 6162TIP3   OH240044   2.857   0.763   0.815
 6162TIP3    H140045   2.785   0.702   0.833
 6162TIP3    H240046   2.929   0.731   0.869
 6163TIP3   OH240047   6.677   3.693   8.351
 6163TIP3    H140048   6.762   3.651   8.366
 6163TIP3    H240049   6.698   3.774   8.304
 6164TIP3   OH240050   0.650   3.266   2.091
 6164TIP3    H140051   0.733   3.312   2.078
 6164TIP3    H240052   0.651   3.240   2.183
 6165TIP3   OH240053   1.674   2.207   1.075
 6165TIP3    H140054   1.764   2.175   1.066
 6165TIP3    H240055   1.632   2.183   0.992
 6166TIP3   OH240056   4.978   3.003   1.133
 6166TIP3    H140057   5.013   3.011   1.222
 6166TIP3    H240058   4.953   2.911   1.125
 6167TIP3   OH240059   0.855   3.420   2.152
 6167TIP3    H140060   0.853   3.435   2.247
 6167TIP3    H240061   0.886   3.503   2.116
 6168TIP3   OH240062   5.294   4.716   8.107
 6168TIP3    H140063   5.381   4.694   8.074
 6168TIP3    H240064   5.259   4.779   8.045
 6169TIP3   OH240065   2.596   3.240   2.631
 6169TIP3    H140066   2.541   3.162   2.622
 6169TIP3    H240067   2.674   3.221   2.579
 6170TIP3   OH240068   2.282   6.122   1.083
 6170TIP3    H140069   2.305   6.153   0.996
 6170TIP3    H240070   2.194   6.085   1.074
 6171TIP3   OH240071   5.561   5.245   0.259
 6171TIP3    H140072   5.559   5.314   0.325
 6171TIP3    H240073   5.487   5.189   0.280
 6172TIP3   OH240074   5.118   6.581   1.347
 6172TIP3    H140075   5.117   6.503   1.292
 6172TIP3    H240076   5.187   6.635   1.309
 6173TIP3   OH240077   5.786   6.535   6.594
 6173TIP3    H140078   5.800   6.450   6.635
 6173TIP3    H240079   5.692   6.540   6.581
 6174TIP3   OH240080   5.293   0.268   2.557
 6174TIP3    H140081   5.308   0.286   2.464
 6174TIP3    H240082   5.355   0.198   2.578
 6175TIP3   OH240083   3.440   0.196   7.181
 6175TIP3    H140084   3.364   0.149   7.147
 6175TIP3    H240085   3.423   0.203   7.275
 6176TIP3   OH240086   4.661   0.672   1.251
 6176TIP3    H140087   4.691   0.678   1.161
 6176TIP3    H240088   4.702   0.746   1.296
 6177TIP3   OH240089   1.564   3.916   7.835
 6177TIP3    H140090   1.654   3.947   7.842
 6177TIP3    H240091   1.572   3.821   7.824
 6178TIP3   OH240092   5.987   5.260   8.713
 6178TIP3    H140093   5.981   5.258   8.618
 6178TIP3    H240094   6.057   5.323   8.732
 6179TIP3   OH240095   3.525   6.076   2.329
 6179TIP3    H140096   3.538   6.145   2.263
 6179TIP3    H240097   3.555   6.116   2.411
 6180TIP3   OH240098   6.801   1.994   0.725
 6180TIP3    H140099   6.745   1.961   0.655
 6180TIP3    H240100   6.827   1.917   0.775
 6181TIP3   OH240101   6.215   4.029   7.052
 6181TIP3    H140102   6.209   3.954   7.112
 6181TIP3    H240103   6.172   3.998   6.972
 6182TIP3   OH240104   3.433   5.363   8.501
 6182TIP3    H140105   3.506   5.393   8.555
 6182TIP3    H240106   3.397   5.443   8.462
 6183TIP3   OH240107   6.483   4.211   1.628
 6183TIP3    H140108   6.490   4.125   1.671
 6183TIP3    H240109   6.403   4.205   1.577
 6184TIP3   OH240110   1.101   2.362   0.505
 6184TIP3    H140111   1.185   2.348   0.550
 6184TIP3    H240112   1.035   2.330   0.567
 6185TIP3   OH240113   1.897   0.717   7.467
 6185TIP3    H140114   1.979   0.677   7.495
 6185TIP3    H240115   1.905   0.809   7.491
 6186TIP3   OH240116   5.177   1.029   1.380
 6186TIP3    H140117   5.138   1.024   1.468
 6186TIP3    H240118   5.201   0.939   1.359
 6187TIP3   OH240119   2.109   2.261   8.592
 6187TIP3    H140120   2.034   2.321   8.584
 6187TIP3    H240121   2.184   2.319   8.601
 6188TIP3   OH240122   3.177   4.168   7.401
 6188TIP3    H140123   3.248   4.143   7.342
 6188TIP3    H240124   3.217   4.228   7.464
 6189TIP3   OH240125   1.793   1.202   0.568
 6189TIP3    H140126   1.886   1.209   0.546
 6189TIP3    H240127   1.788   1.127   0.628
 6190TIP3   OH240128   4.437   6.554   7.394
 6190TIP3    H140129   4.516   6.607   7.389
 6190TIP3    H240130   4.402   6.570   7.482
 6191TIP3   OH240131   1.892   5.823   1.806
 6191TIP3    H140132   1.970   5.781   1.843
 6191TIP3    H240133   1.838   5.846   1.882
 6192TIP3   OH240134   6.828   2.328   8.282
 6192TIP3    H140135   6.834   2.274   8.361
 6192TIP3    H240136   6.789   2.270   8.216
 6193TIP3   OH240137   0.835   3.497   1.226
 6193TIP3    H140138   0.740   3.510   1.223
 6193TIP3    H240139   0.861   3.490   1.134
 6194TIP3   OH240140   2.159   4.176   7.365
 6194TIP3    H140141   2.230   4.166   7.301
 6194TIP3    H240142   2.141   4.087   7.395
 6195TIP3   OH240143   6.739   3.777   1.784
 6195TIP3    H140144   6.734   3.704   1.846
 6195TIP3    H240145   6.833   3.789   1.770
 6196TIP3   OH240146   5.085   1.688   8.716
 6196TIP3    H140147   5.167   1.646   0.005
 6196TIP3    H240148   5.076   1.761   0.043
 6197TIP3   OH240149   1.339   0.765   1.873
 6197TIP3    H140150   1.363   0.850   1.837
 6197TIP3    H240151   1.397   0.703   1.830
 6198TIP3   OH240152   0.182   6.341   6.635
 6198TIP3    H140153   0.212   6.343   6.543
 6198TIP3    H240154   0.118   6.270   6.638
 6199TIP3   OH240155   5.568   4.825   7.703
 6199TIP3    H140156   5.528   4.834   7.617
 6199TIP3    H240157   5.516   4.758   7.747
 6200TIP3   OH240158   0.924   5.186   8.709
 6200TIP3    H140159   0.931   5.237   8.628
 6200TIP3    H240160   0.896   5.099   8.680
 6201TIP3   OH240161   0.037   0.558   1.705
 6201TIP3    H140162   6.813   0.493   1.734
 6201TIP3    H240163   0.113   0.507   1.681
 6202TIP3   OH240164   6.464   0.723   7.630
 6202TIP3    H140165   6.432   0.806   7.594
 6202TIP3    H240166   6.556   0.721   7.606
 6203TIP3   OH240167   5.927   2.559   8.666
 6203TIP3    H140168   5.910   2.472   8.630
 6203TIP3    H240169   6.016   2.554   8.701
 6204TIP3   OH240170   5.549   6.063   1.815
 6204TIP3    H140171   5.480   6.127   1.799
 6204TIP3    H240172   5.510   6.000   1.875
 6205TIP3   OH240173   5.144   3.623   1.978
 6205TIP3    H140174   5.060   3.619   2.022
 6205TIP3    H240175   5.141   3.704   1.926
 6206TIP3   OH240176   5.435   1.828   1.150
 6206TIP3    H140177   5.407   1.767   1.083
 6206TIP3    H240178   5.482   1.774   1.214
 6207TIP3   OH240179   2.626   5.926   0.701
 6207TIP3    H140180   2.599   5.951   0.789
 6207TIP3    H240181   2.645   5.833   0.707
 6208TIP3   OH240182   4.857   2.383   6.930
 6208TIP3    H140183   4.922   2.399   6.861
 6208TIP3    H240184   4.783   2.342   6.885
 6209TIP3   OH240185   6.253   3.503   1.475
 6209TIP3    H140186   6.281   3.446   1.546
 6209TIP3    H240187   6.213   3.578   1.518
 6210TIP3   OH240188   5.147   5.059   7.987
 6210TIP3    H140189   5.181   5.050   8.076
 6210TIP3    H240190   5.179   5.145   7.958
 6211TIP3   OH240191   6.623   0.492   1.017
 6211TIP3    H140192   6.650   0.446   1.097
 6211TIP3    H240193   6.668   0.447   0.946
 6212TIP3   OH240194   0.898   3.286   0.747
 6212TIP3    H140195   0.909   3.192   0.732
 6212TIP3    H240196   0.862   3.319   0.665
 6213TIP3   OH240197   5.855   5.620   0.188
 6213TIP3    H140198   5.846   5.672   0.107
 6213TIP3    H240199   5.771   5.575   0.197
 6214TIP3   OH240200   5.409   5.813   1.420
 6214TIP3    H140201   5.358   5.799   1.340
 6214TIP3    H240202   5.404   5.729   1.466
 6215TIP3   OH240203   0.011   0.857   0.757
 6215TIP3    H140204   6.834   0.816   0.842
 6215TIP3    H240205   0.050   0.942   0.779
 6216TIP3   OH240206   0.429   1.075   7.024
 6216TIP3    H140207   0.442   1.169   7.009
 6216TIP3    H240208   0.381   1.070   7.106
 6217TIP3   OH240209   1.088   3.591   8.216
 6217TIP3    H140210   1.070   3.621   8.127
 6217TIP3    H240211   1.012   3.620   8.267
 6218TIP3   OH240212   0.169   2.385   1.044
 6218TIP3    H140213   0.130   2.420   1.125
 6218TIP3    H240214   0.098   2.336   1.003
 6219TIP3   OH240215   0.163   3.958   8.438
 6219TIP3    H140216   0.077   3.999   8.446
 6219TIP3    H240217   0.219   4.008   8.498
 6220TIP3   OH240218   5.053   1.885   0.188
 6220TIP3    H140219   5.125   1.948   0.192
 6220TIP3    H240220   4.979   1.935   0.154
 6221TIP3   OH240221   5.339   4.857   8.445
 6221TIP3    H140222   5.261   4.808   8.470
 6221TIP3    H240223   5.347   4.925   8.511
 6222TIP3   OH240224   4.721   3.556   0.982
 6222TIP3    H140225   4.771   3.500   0.922
 6222TIP3    H240226   4.694   3.496   1.052
 6223TIP3   OH240227   0.092   4.656   0.497
 6223TIP3    H140228   0.062   4.735   0.543
 6223TIP3    H240229   0.018   4.632   0.441
 6224TIP3   OH240230   0.644   6.626   0.535
 6224TIP3    H140231   0.562   6.595   0.573
 6224TIP3    H240232   0.661   6.566   0.463
 6225TIP3   OH240233   1.659   3.814   7.404
 6225TIP3    H140234   1.605   3.823   7.326
 6225TIP3    H240235   1.716   3.739   7.386
 6226TIP3   OH240236   0.576   6.719   1.419
 6226TIP3    H140237   0.638   6.777   1.375
 6226TIP3    H240238   0.631   6.662   1.473
 6227TIP3   OH240239   0.761   6.029   7.139
 6227TIP3    H140240   0.768   5.976   7.060
 6227TIP3    H240241   0.731   5.967   7.206
 6228TIP3   OH240242   2.595   4.430   6.507
 6228TIP3    H140243   2.653   4.356   6.523
 6228TIP3    H240244   2.518   4.412   6.561
 6229TIP3   OH240245   1.926   0.230   6.888
 6229TIP3    H140246   1.860   0.166   6.860
 6229TIP3    H240247   2.008   0.181   6.886
 6230TIP3   OH240248   2.566   2.185   8.240
 6230TIP3    H140249   2.614   2.214   8.318
 6230TIP3    H240250   2.580   2.254   8.176
 6231TIP3   OH240251   3.814   6.667   0.435
 6231TIP3    H140252   3.873   6.692   0.365
 6231TIP3    H240253   3.747   6.614   0.392
 6232TIP3   OH240254   6.404   6.438   8.551
 6232TIP3    H140255   6.458   6.510   8.583
 6232TIP3    H240256   6.364   6.402   8.630
 6233TIP3   OH240257   3.677   3.723   7.464
 6233TIP3    H140258   3.639   3.655   7.521
 6233TIP3    H240259   3.614   3.732   7.393
 6234TIP3   OH240260   4.927   6.123   8.656
 6234TIP3    H140261   4.894   6.097   8.570
 6234TIP3    H240262   4.958   6.041   8.695
 6235TIP3   OH240263   2.430   4.743   1.312
 6235TIP3    H140264   2.352   4.796   1.297
 6235TIP3    H240265   2.411   4.660   1.269
 6236TIP3   OH240266   5.567   5.692   8.258
 6236TIP3    H140267   5.603   5.614   8.301
 6236TIP3    H240268   5.476   5.671   8.241
 6237TIP3   OH240269   6.765   3.312   7.898
 6237TIP3    H140270   6.756   3.303   7.993
 6237TIP3    H240271   6.773   3.222   7.866
 6238TIP3   OH240272   1.895   5.157   1.291
 6238TIP3    H140273   1.956   5.208   1.238
 6238TIP3    H240274   1.830   5.221   1.320
 6239TIP3   OH240275   2.771   2.954   8.359
 6239TIP3    H140276   2.835   2.914   8.418
 6239TIP3    H240277   2.686   2.930   8.397
 6240TIP3   OH240278   4.481   3.919   1.376
 6240TIP3    H140279   4.433   3.929   1.458
 6240TIP3    H240280   4.448   3.988   1.319
 6241TIP3   OH240281   0.062   1.007   7.556
 6241TIP3    H140282   0.000   1.065   7.512
 6241TIP3    H240283   0.140   1.061   7.570
 6242TIP3   OH240284   1.587   6.720   6.619
 6242TIP3    H140285   1.553   6.658   6.683
 6242TIP3    H240286   1.556   6.687   6.535
 6243TIP3   OH240287   4.387   0.170   0.771
 6243TIP3    H140288   4.348   0.209   0.850
 6243TIP3    H240289   4.468   0.129   0.803
 6244TIP3   OH240290   1.795   1.859   7.189
 6244TIP3    H140291   1.885   1.854   7.156
 6244TIP3    H240292   1.755   1.776   7.163
 6245TIP3   OH240293   1.777   5.238   8.704
 6245TIP3    H140294   1.812   5.296   0.038
 6245TIP3    H240295   1.684   5.230   8.725
 6246TIP3   OH240296   3.393   0.946   8.067
 6246TIP3    H140297   3.444   0.867   8.050
 6246TIP3    H240298   3.343   0.927   8.146
 6247TIP3   OH240299   1.451   1.707   7.471
 6247TIP3    H140300   1.359   1.709   7.500
 6247TIP3    H240301   1.463   1.620   7.434
 6248TIP3   OH240302   0.440   1.570   7.051
 6248TIP3    H140303   0.408   1.651   7.092
 6248TIP3    H240304   0.519   1.596   7.005
 6249TIP3   OH240305   6.771   2.617   1.129
 6249TIP3    H140306   0.011   2.641   1.174
 6249TIP3    H240307   6.705   2.678   1.163
 6250TIP3   OH240308   3.259   4.241   8.417
 6250TIP3    H140309   3.218   4.320   8.452
 6250TIP3    H240310   3.186   4.188   8.385
 6251TIP3   OH240311   2.708   0.776   7.917
 6251TIP3    H140312   2.714   0.686   7.948
 6251TIP3    H240313   2.616   0.799   7.928
 6252TIP3   OH240314   4.469   1.207   0.466
 6252TIP3    H140315   4.381   1.232   0.440
 6252TIP3    H240316   4.508   1.169   0.386
 6253TIP3   OH240317   1.171   2.753   2.562
 6253TIP3    H140318   1.143   2.701   2.487
 6253TIP3    H240319   1.216   2.690   2.619
 6254TIP3   OH240320   0.036   3.382   7.202
 6254TIP3    H140321   0.039   3.477   7.189
 6254TIP3    H240322   0.060   3.370   7.294
 6255TIP3   OH240323   6.059   5.959   8.387
 6255TIP3    H140324   6.036   5.990   8.299
 6255TIP3    H240325   6.153   5.976   8.394
 6256TIP3   OH240326   3.017   3.616   0.740
 6256TIP3    H140327   2.976   3.578   0.817
 6256TIP3    H240328   3.095   3.660   0.774
 6257TIP3   OH240329   1.271   5.104   6.187
 6257TIP3    H140330   1.197   5.090   6.246
 6257TIP3    H240331   1.334   5.037   6.212
 6258TIP3   OH240332   3.641   1.459   7.614
 6258TIP3    H140333   3.551   1.470   7.585
 6258TIP3    H240334   3.655   1.365   7.616
 6259TIP3   OH240335   0.496   6.600   6.824
 6259TIP3    H140336   0.538   6.554   6.751
 6259TIP3    H240337   0.463   6.530   6.880
 6260TIP3   OH240338   4.396   5.352   7.941
 6260TIP3    H140339   4.455   5.400   7.883
 6260TIP3    H240340   4.442   5.350   8.025
 6261TIP3   OH240341   2.648   0.367   7.697
 6261TIP3    H140342   2.570   0.319   7.669
 6261TIP3    H240343   2.698   0.303   7.748
 6262TIP3   OH240344   1.523   3.657   6.731
 6262TIP3    H140345   1.493   3.579   6.684
 6262TIP3    H240346   1.597   3.689   6.679
 6263TIP3   OH240347   4.955   5.345   8.302
 6263TIP3    H140348   5.022   5.314   8.362
 6263TIP3    H240349   4.917   5.422   8.347
 6264TIP3   OH240350   6.148   4.042   0.915
 6264TIP3    H140351   6.193   4.110   0.965
 6264TIP3    H240352   6.088   4.002   0.977
 6265TIP3   OH240353   4.616   6.494   7.075
 6265TIP3    H140354   4.642   6.568   7.130
 6265TIP3    H240355   4.556   6.531   7.010
 6266TIP3   OH240356   5.230   2.827   1.465
 6266TIP3    H140357   5.292   2.878   1.412
 6266TIP3    H240358   5.160   2.889   1.484
 6267TIP3   OH240359   3.092   3.272   8.455
 6267TIP3    H140360   3.080   3.179   8.438
 6267TIP3    H240361   3.153   3.301   8.387
 6268TIP3   OH240362   1.182   2.514   1.401
 6268TIP3    H140363   1.171   2.602   1.364
 6268TIP3    H240364   1.094   2.487   1.426
 6269TIP3   OH240365   4.731   1.002   2.617
 6269TIP3    H140366   4.742   1.014   2.712
 6269TIP3    H240367   4.767   0.915   2.599
 6270TIP3   OH240368   4.128   0.598   2.894
 6270TIP3    H140369   4.220   0.571   2.893
 6270TIP3    H240370   4.087   0.543   2.827
 6271TIP3   OH240371   0.641   2.586   2.019
 6271TIP3    H140372   0.682   2.509   2.058
 6271TIP3    H240373   0.659   2.657   2.081
 6272TIP3   OH240374   6.388   6.192   1.090
 6272TIP3    H140375   6.351   6.112   1.125
 6272TIP3    H240376   6.321   6.258   1.104
 6273TIP3   OH240377   1.723   4.858   8.549
 6273TIP3    H140378   1.684   4.943   8.528
 6273TIP3    H240379   1.788   4.843   8.481
 6274TIP3   OH240380   2.591   0.129   0.229
 6274TIP3    H140381   2.562   0.121   0.320
 6274TIP3    H240382   2.683   0.154   0.235
 6275TIP3   OH240383   4.658   4.104   0.967
 6275TIP3    H140384   4.687   4.026   1.014
 6275TIP3    H240385   4.674   4.083   0.875
 6276TIP3   OH240386   1.459   4.381   1.374
 6276TIP3    H140387   1.446   4.475   1.390
 6276TIP3    H240388   1.525   4.355   1.439
 6277TIP3   OH240389   2.868   0.459   0.957
 6277TIP3    H140390   2.792   0.518   0.958
 6277TIP3    H240391   2.837   0.379   1.000
 6278TIP3   OH240392   5.927   0.863   2.159
 6278TIP3    H140393   5.933   0.819   2.243
 6278TIP3    H240394   6.017   0.866   2.127
 6279TIP3   OH240395   1.278   3.566   7.622
 6279TIP3    H140396   1.222   3.521   7.558
 6279TIP3    H240397   1.303   3.497   7.683
 6280TIP3   OH240398   4.322   4.747   8.017
 6280TIP3    H140399   4.258   4.763   8.086
 6280TIP3    H240400   4.270   4.726   7.940
 6281TIP3   OH240401   1.190   4.899   7.697
 6281TIP3    H140402   1.112   4.928   7.648
 6281TIP3    H240403   1.168   4.810   7.725
 6282TIP3   OH240404   4.503   2.399   6.872
 6282TIP3    H140405   4.419   2.367   6.839
 6282TIP3    H240406   4.508   2.364   6.961
 6283TIP3   OH240407   2.980   0.167   7.732
 6283TIP3    H140408   2.999   0.198   7.643
 6283TIP3    H240409   3.039   0.093   7.745
 6284TIP3   OH240410   1.901   4.538   1.067
 6284TIP3    H140411   1.942   4.472   1.012
 6284TIP3    H240412   1.973   4.596   1.092
 6285TIP3   OH240413   5.086   3.590   0.938
 6285TIP3    H140414   5.163   3.561   0.890
 6285TIP3    H240415   5.013   3.546   0.894
 6286TIP3   OH240416   3.872   0.134   7.065
 6286TIP3    H140417   3.948   0.120   7.009
 6286TIP3    H240418   3.849   0.046   7.096
 6287TIP3   OH240419   4.456   4.573   7.223
 6287TIP3    H140420   4.551   4.581   7.209
 6287TIP3    H240421   4.427   4.510   7.158
 6288TIP3   OH240422   4.859   5.164   2.571
 6288TIP3    H140423   4.900   5.250   2.584
 6288TIP3    H240424   4.873   5.144   2.479
 6289TIP3   OH240425   4.912   1.053   1.782
 6289TIP3    H140426   4.915   1.144   1.751
 6289TIP3    H240427   5.004   1.030   1.797
 6290TIP3   OH240428   5.025   1.176   0.248
 6290TIP3    H140429   4.986   1.130   0.174
 6290TIP3    H240430   4.958   1.240   0.275
 6291TIP3   OH240431   0.108   5.388   0.222
 6291TIP3    H140432   0.140   5.472   0.254
 6291TIP3    H240433   0.147   5.323   0.280
 6292TIP3   OH240434   3.745   4.751   0.624
 6292TIP3    H140435   3.727   4.657   0.626
 6292TIP3    H240436   3.840   4.757   0.633
 6293TIP3   OH240437   3.258   6.648   0.851
 6293TIP3    H140438   3.297   6.687   0.930
 6293TIP3    H240439   3.324   6.660   0.783
 6294TIP3   OH240440   3.361   1.472   7.516
 6294TIP3    H140441   3.321   1.555   7.491
 6294TIP3    H240442   3.384   1.431   7.433
 6295TIP3   OH240443   2.502   1.920   1.248
 6295TIP3    H140444   2.437   1.874   1.195
 6295TIP3    H240445   2.568   1.853   1.268
 6296TIP3   OH240446   3.431   2.886   8.514
 6296TIP3    H140447   3.358   2.922   8.566
 6296TIP3    H240448   3.389   2.849   8.437
 6297TIP3   OH240449   3.401   1.001   1.108
 6297TIP3    H140450   3.399   1.097   1.098
 6297TIP3    H240451   3.324   0.971   1.060
 6298TIP3   OH240452   5.975   5.213   6.041
 6298TIP3    H140453   6.051   5.224   6.098
 6298TIP3    H240454   5.972   5.119   6.024
 6299TIP3   OH240455   4.852   6.563   1.008
 6299TIP3    H140456   4.921   6.619   1.045
 6299TIP3    H240457   4.826   6.507   1.081
 6300TIP3   OH240458   3.972   4.294   7.075
 6300TIP3    H140459   3.891   4.279   7.125
 6300TIP3    H240460   3.974   4.389   7.061
 6301TIP3   OH240461   4.727   0.921   1.937
 6301TIP3    H140462   4.786   0.984   1.896
 6301TIP3    H240463   4.761   0.911   2.025
 6302TIP3   OH240464   6.342   1.198   2.231
 6302TIP3    H140465   6.437   1.210   2.233
 6302TIP3    H240466   6.326   1.128   2.294
 6303TIP3   OH240467   0.405   5.749   0.935
 6303TIP3    H140468   0.345   5.678   0.956
 6303TIP3    H240469   0.351   5.828   0.938
 6304TIP3   OH240470   0.929   1.274   8.445
 6304TIP3    H140471   0.957   1.265   8.354
 6304TIP3    H240472   0.906   1.185   8.472
 6305TIP3   OH240473   2.141   5.001   0.307
 6305TIP3    H140474   2.154   4.907   0.299
 6305TIP3    H240475   2.230   5.037   0.318
 6306TIP3   OH240476   6.775   2.290   8.674
 6306TIP3    H140477   6.734   2.259   0.020
 6306TIP3    H240478   6.760   2.219   8.611
 6307TIP3   OH240479   4.533   2.461   8.659
 6307TIP3    H140480   4.478   2.399   8.706
 6307TIP3    H240481   4.472   2.513   8.607
 6308TIP3   OH240482   5.935   1.210   7.005
 6308TIP3    H140483   5.851   1.171   7.028
 6308TIP3    H240484   5.936   1.293   7.052
 6309TIP3   OH240485   2.850   1.321   7.041
 6309TIP3    H140486   2.767   1.340   6.997
 6309TIP3    H240487   2.833   1.241   7.091
 6310TIP3   OH240488   0.407   1.651   6.644
 6310TIP3    H140489   0.339   1.711   6.613
 6310TIP3    H240490   0.382   1.566   6.610
 6311TIP3   OH240491   4.808   2.087   7.502
 6311TIP3    H140492   4.831   1.999   7.474
 6311TIP3    H240493   4.728   2.076   7.554
 6312TIP3   OH240494   3.687   2.902   1.790
 6312TIP3    H140495   3.705   2.995   1.779
 6312TIP3    H240496   3.773   2.861   1.784
 6313TIP3   OH240497   3.927   2.377   2.494
 6313TIP3    H140498   3.879   2.429   2.558
 6313TIP3    H240499   3.912   2.422   2.411
 6314TIP3   OH240500   2.178   2.499   1.742
 6314TIP3    H140501   2.244   2.505   1.811
 6314TIP3    H240502   2.100   2.464   1.786
 6315TIP3   OH240503   5.876   4.662   7.649
 6315TIP3    H140504   5.816   4.610   7.595
 6315TIP3    H240505   5.919   4.597   7.705
 6316TIP3   OH240506   3.900   4.903   7.968
 6316TIP3    H140507   3.848   4.892   8.047
 6316TIP3    H240508   3.980   4.947   7.998
 6317TIP3   OH240509   5.789   5.917   8.456
 6317TIP3    H140510   5.882   5.912   8.434
 6317TIP3    H240511   5.757   5.827   8.445
 6318TIP3   OH240512   3.569   6.335   6.651
 6318TIP3    H140513   3.499   6.401   6.659
 6318TIP3    H240514   3.537   6.275   6.583
 6319TIP3   OH240515   0.719   6.393   1.801
 6319TIP3    H140516   0.779   6.460   1.769
 6319TIP3    H240517   0.707   6.413   1.894
 6320TIP3   OH240518   1.127   4.765   7.045
 6320TIP3    H140519   1.043   4.724   7.061
 6320TIP3    H240520   1.182   4.738   7.119
 6321TIP3   OH240521   6.440   5.791   8.393
 6321TIP3    H140522   6.479   5.784   8.481
 6321TIP3    H240523   6.413   5.883   8.387
 6322TIP3   OH240524   1.242   6.733   1.670
 6322TIP3    H140525   1.214   6.772   1.753
 6322TIP3    H240526   1.260   6.808   1.614
 6323TIP3   OH240527   4.413   0.369   7.375
 6323TIP3    H140528   4.468   0.410   7.309
 6323TIP3    H240529   4.347   0.322   7.324
 6324TIP3   OH240530   0.470   1.162   0.826
 6324TIP3    H140531   0.402   1.118   0.877
 6324TIP3    H240532   0.543   1.172   0.887
 6325TIP3   OH240533   1.521   3.286   7.208
 6325TIP3    H140534   1.521   3.208   7.264
 6325TIP3    H240535   1.604   3.281   7.160
 6326TIP3   OH240536   1.367   4.659   7.975
 6326TIP3    H140537   1.320   4.728   8.022
 6326TIP3    H240538   1.329   4.659   7.887
 6327TIP3   OH240539   1.437   0.898   8.277
 6327TIP3    H140540   1.457   0.820   8.226
 6327TIP3    H240541   1.376   0.947   8.222
 6328TIP3   OH240542   3.667   0.776   1.849
 6328TIP3    H140543   3.652   0.686   1.876
 6328TIP3    H240544   3.763   0.786   1.849
 6329TIP3   OH240545   0.472   4.650   7.423
 6329TIP3    H140546   0.475   4.584   7.353
 6329TIP3    H240547   0.381   4.647   7.453
 6330TIP3   OH240548   1.965   1.986   6.824
 6330TIP3    H140549   1.989   2.057   6.882
 6330TIP3    H240550   1.977   2.022   6.736
 6331TIP3   OH240551   6.321   0.763   1.728
 6331TIP3    H140552   6.241   0.740   1.681
 6331TIP3    H240553   6.292   0.821   1.799
 6332TIP3   OH240554   6.357   5.692   1.945
 6332TIP3    H140555   6.355   5.600   1.919
 6332TIP3    H240556   6.429   5.698   2.007
 6333TIP3   OH240557   1.382   2.389   8.514
 6333TIP3    H140558   1.473   2.368   8.493
 6333TIP3    H240559   1.386   2.434   8.598
 6334TIP3   OH240560   0.086   0.429   8.457
 6334TIP3    H140561   0.113   0.519   8.472
 6334TIP3    H240562   0.103   0.384   8.540
 6335TIP3   OH240563   2.838   4.179   1.572
 6335TIP3    H140564   2.916   4.122   1.570
 6335TIP3    H240565   2.822   4.193   1.666
 6336TIP3   OH240566   0.195   6.550   8.721
 6336TIP3    H140567   0.164   6.590   0.068
 6336TIP3    H240568   0.204   6.624   8.661
 6337TIP3   OH240569   2.818   1.096   8.533
 6337TIP3    H140570   2.819   1.164   8.466
 6337TIP3    H240571   2.890   1.038   8.508
 6338TIP3   OH240572   6.837   0.962   6.223
 6338TIP3    H140573   6.819   0.932   6.312
 6338TIP3    H240574   6.769   1.027   6.205
 6339TIP3   OH240575   1.823   1.576   0.935
 6339TIP3    H140576   1.778   1.585   0.851
 6339TIP3    H240577   1.853   1.665   0.955
 6340TIP3   OH240578   2.577   6.220   2.389
 6340TIP3    H140579   2.586   6.137   2.342
 6340TIP3    H240580   2.667   6.243   2.414
 6341TIP3   OH240581   3.370   1.048   1.408
 6341TIP3    H140582   3.374   1.027   1.314
 6341TIP3    H240583   3.287   1.095   1.419
 6342TIP3   OH240584   0.910   4.440   2.443
 6342TIP3    H140585   0.963   4.371   2.403
 6342TIP3    H240586   0.973   4.510   2.462
 6343TIP3   OH240587   2.202   2.329   7.679
 6343TIP3    H140588   2.172   2.418   7.697
 6343TIP3    H240589   2.144   2.298   7.609
 6344TIP3   OH240590   1.558   6.156   6.042
 6344TIP3    H140591   1.490   6.099   6.005
 6344TIP3    H240592   1.640   6.116   6.012
 6345TIP3   OH240593   2.766   1.458   6.636
 6345TIP3    H140594   2.803   1.524   6.578
 6345TIP3    H240595   2.806   1.376   6.608
 6346TIP3   OH240596   0.821   0.558   0.671
 6346TIP3    H140597   0.744   0.571   0.615
 6346TIP3    H240598   0.890   0.608   0.629
 6347TIP3   OH240599   0.967   5.831   0.070
 6347TIP3    H140600   0.956   5.761   0.007
 6347TIP3    H240601   0.879   5.845   0.106
 6348TIP3   OH240602   0.449   2.700   1.827
 6348TIP3    H140603   0.371   2.647   1.844
 6348TIP3    H240604   0.511   2.675   1.895
 6349TIP3   OH240605   2.976   3.295   0.384
 6349TIP3    H140606   2.915   3.257   0.447
 6349TIP3    H240607   3.031   3.353   0.437
 6350TIP3   OH240608   3.953   4.128   7.800
 6350TIP3    H140609   3.885   4.183   7.838
 6350TIP3    H240610   4.016   4.114   7.872
 6351TIP3   OH240611   5.602   2.031   7.471
 6351TIP3    H140612   5.528   2.090   7.466
 6351TIP3    H240613   5.659   2.068   7.539
 6352TIP3   OH240614   4.089   1.124   0.285
 6352TIP3    H140615   4.051   1.196   0.335
 6352TIP3    H240616   4.113   1.163   0.201
 6353TIP3   OH240617   3.375   4.976   7.120
 6353TIP3    H140618   3.352   5.008   7.032
 6353TIP3    H240619   3.388   5.056   7.171
 6354TIP3   OH240620   5.004   0.194   0.450
 6354TIP3    H140621   4.990   0.100   0.441
 6354TIP3    H240622   5.021   0.208   0.543
 6355TIP3   OH240623   1.888   5.768   6.628
 6355TIP3    H140624   1.969   5.787   6.580
 6355TIP3    H240625   1.820   5.768   6.561
 6356TIP3   OH240626   4.780   0.721   7.326
 6356TIP3    H140627   4.743   0.744   7.411
 6356TIP3    H240628   4.741   0.636   7.305
 6357TIP3   OH240629   6.824   6.536   1.922
 6357TIP3    H140630   6.818   6.627   1.894
 6357TIP3    H240631   0.055   6.535   1.985
 6358TIP3   OH240632   0.653   4.757   0.418
 6358TIP3    H140633   0.707   4.825   0.378
 6358TIP3    H240634   0.602   4.722   0.345
 6359TIP3   OH240635   2.788   6.728   7.554
 6359TIP3    H140636   2.740   6.675   7.617
 6359TIP3    H240637   2.741   6.715   7.471
 6360TIP3   OH240638   4.362   6.728   1.497
 6360TIP3    H140639   4.346   6.738   1.591
 6360TIP3    H240640   4.279   6.752   1.456
 6361TIP3   OH240641   4.958   1.567   1.890
 6361TIP3    H140642   4.986   1.504   1.956
 6361TIP3    H240643   4.880   1.608   1.928
 6362TIP3   OH240644   3.604   3.071   7.939
 6362TIP3    H140645   3.654   3.108   8.012
 6362TIP3    H240646   3.533   3.133   7.924
 6363TIP3   OH240647   2.692   6.139   2.669
 6363TIP3    H140648   2.754   6.178   2.607
 6363TIP3    H240649   2.712   6.045   2.667
 6364TIP3   OH240650   1.576   2.697   0.728
 6364TIP3    H140651   1.669   2.674   0.738
 6364TIP3    H240652   1.564   2.772   0.787
 6365TIP3   OH240653   3.367   3.777   1.852
 6365TIP3    H140654   3.439   3.797   1.793
 6365TIP3    H240655   3.374   3.682   1.867
 6366TIP3   OH240656   3.090   5.829   1.014
 6366TIP3    H140657   3.163   5.801   1.070
 6366TIP3    H240658   3.012   5.810   1.066
 6367TIP3   OH240659   6.653   5.863   0.777
 6367TIP3    H140660   6.687   5.870   0.867
 6367TIP3    H240661   6.596   5.786   0.779
 6368TIP3   OH240662   5.636   1.400   0.028
 6368TIP3    H140663   5.642   1.380   0.121
 6368TIP3    H240664   5.717   1.365   8.725
 6369TIP3   OH240665   4.780   1.247   2.469
 6369TIP3    H140666   4.769   1.185   2.541
 6369TIP3    H240667   4.774   1.192   2.390
 6370TIP3   OH240668   4.392   1.016   1.808
 6370TIP3    H140669   4.456   1.075   1.848
 6370TIP3    H240670   4.357   0.965   1.881
 6371TIP3   OH240671   4.457   4.859   7.333
 6371TIP3    H140672   4.463   4.765   7.316
 6371TIP3    H240673   4.379   4.868   7.388
 6372TIP3   OH240674   2.224   5.105   6.359
 6372TIP3    H140675   2.153   5.101   6.294
 6372TIP3    H240676   2.217   5.192   6.397
 6373TIP3   OH240677   6.601   0.926   8.595
 6373TIP3    H140678   6.666   0.938   8.527
 6373TIP3    H240679   6.637   0.969   8.672
 6374TIP3   OH240680   1.238   4.857   8.380
 6374TIP3    H140681   1.333   4.846   8.383
 6374TIP3    H240682   1.214   4.884   8.469
 6375TIP3   OH240683   6.195   4.304   7.859
 6375TIP3    H140684   6.255   4.264   7.797
 6375TIP3    H240685   6.148   4.370   7.808
 6376TIP3   OH240686   1.127   6.293   6.950
 6376TIP3    H140687   1.039   6.256   6.940
 6376TIP3    H240688   1.120   6.381   6.913
 6377TIP3   OH240689   4.865   3.667   1.403
 6377TIP3    H140690   4.795   3.692   1.342
 6377TIP3    H240691   4.819   3.644   1.483
 6378TIP3   OH240692   3.251   4.880   0.954
 6378TIP3    H140693   3.259   4.948   0.887
 6378TIP3    H240694   3.217   4.804   0.906
 6379TIP3   OH240695   5.520   0.442   8.562
 6379TIP3    H140696   5.463   0.478   8.629
 6379TIP3    H240697   5.576   0.516   8.536
 6380TIP3   OH240698   1.045   1.162   0.747
 6380TIP3    H140699   0.980   1.127   0.808
 6380TIP3    H240700   1.013   1.249   0.724
 6381TIP3   OH240701   5.099   4.224   7.009
 6381TIP3    H140702   5.077   4.285   7.079
 6381TIP3    H240703   5.140   4.279   6.942
 6382TIP3   OH240704   1.937   2.320   0.645
 6382TIP3    H140705   1.948   2.305   0.551
 6382TIP3    H240706   1.920   2.233   0.681
 6383TIP3   OH240707   6.837   6.271   0.575
 6383TIP3    H140708   6.753   6.311   0.595
 6383TIP3    H240709   0.044   6.339   0.528
 6384TIP3   OH240710   0.613   6.417   7.497
 6384TIP3    H140711   0.552   6.389   7.565
 6384TIP3    H240712   0.621   6.342   7.439
 6385TIP3   OH240713   3.229   5.227   6.618
 6385TIP3    H140714   3.198   5.316   6.606
 6385TIP3    H240715   3.305   5.235   6.676
 6386TIP3   OH240716   1.285   4.979   6.969
 6386TIP3    H140717   1.240   4.901   7.001
 6386TIP3    H240718   1.216   5.029   6.924
 6387TIP3   OH240719   2.364   5.613   0.619
 6387TIP3    H140720   2.383   5.689   0.564
 6387TIP3    H240721   2.397   5.538   0.569
 6388TIP3   OH240722   3.577   1.715   7.700
 6388TIP3    H140723   3.570   1.755   7.613
 6388TIP3    H240724   3.627   1.634   7.685
 6389TIP3   OH240725   3.288   4.045   1.780
 6389TIP3    H140726   3.331   4.111   1.835
 6389TIP3    H240727   3.316   3.961   1.816
 6390TIP3   OH240728   0.735   3.411   6.555
 6390TIP3    H140729   0.721   3.464   6.476
 6390TIP3    H240730   0.722   3.321   6.525
 6391TIP3   OH240731   1.147   6.839   7.491
 6391TIP3    H140732   1.121   6.782   7.418
 6391TIP3    H240733   1.180   0.077   7.448
 6392TIP3   OH240734   1.333   3.742   0.923
 6392TIP3    H140735   1.268   3.682   0.959
 6392TIP3    H240736   1.415   3.693   0.926
 6393TIP3   OH240737   3.264   6.106   2.165
 6393TIP3    H140738   3.335   6.156   2.206
 6393TIP3    H240739   3.294   6.015   2.169
 6394TIP3   OH240740   5.835   3.998   0.119
 6394TIP3    H140741   5.928   4.007   0.101
 6394TIP3    H240742   5.803   3.938   0.052
 6395TIP3   OH240743   0.235   5.792   1.750
 6395TIP3    H140744   0.261   5.840   1.829
 6395TIP3    H240745   0.141   5.806   1.743
 6396TIP3   OH240746   0.700   3.757   1.205
 6396TIP3    H140747   0.610   3.790   1.204
 6396TIP3    H240748   0.745   3.809   1.139
 6397TIP3   OH240749   5.807   2.611   8.160
 6397TIP3    H140750   5.778   2.701   8.174
 6397TIP3    H240751   5.834   2.581   8.247
 6398TIP3   OH240752   0.546   3.597   0.406
 6398TIP3    H140753   0.498   3.647   0.339
 6398TIP3    H240754   0.499   3.513   0.411
 6399TIP3   OH240755   6.353   6.782   7.509
 6399TIP3    H140756   6.382   0.032   7.513
 6399TIP3    H240757   6.295   6.772   7.585
 6400TIP3   OH240758   6.062   0.385   2.303
 6400TIP3    H140759   6.023   0.462   2.345
 6400TIP3    H240760   5.991   0.346   2.253
 6401TIP3   OH240761   4.031   3.434   8.335
 6401TIP3    H140762   4.009   3.526   8.334
 6401TIP3    H240763   3.968   3.393   8.276
 6402TIP3   OH240764   5.087   6.403   2.067
 6402TIP3    H140765   5.014   6.341   2.068
 6402TIP3    H240766   5.065   6.463   1.995
 6403TIP3   OH240767   2.315   0.915   8.174
 6403TIP3    H140768   2.253   0.985   8.152
 6403TIP3    H240769   2.353   0.943   8.258
 6404TIP3   OH240770   3.459   5.189   0.838
 6404TIP3    H140771   3.527   5.122   0.835
 6404TIP3    H240772   3.407   5.167   0.916
 6405TIP3   OH240773   4.774   4.593   8.633
 6405TIP3    H140774   4.812   4.673   8.669
 6405TIP3    H240775   4.725   4.623   8.556
 6406TIP3   OH240776   2.446   1.930   0.884
 6406TIP3    H140777   2.457   2.009   0.937
 6406TIP3    H240778   2.435   1.962   0.795
 6407TIP3   OH240779   5.659   4.178   1.227
 6407TIP3    H140780   5.595   4.154   1.159
 6407TIP3    H240781   5.606   4.214   1.298
 6408TIP3   OH240782   0.048   1.748   0.782
 6408TIP3    H140783   6.818   1.689   0.755
 6408TIP3    H240784   0.045   1.746   0.878
 6409TIP3   OH240785   4.742   0.084   1.942
 6409TIP3    H140786   4.823   0.057   1.898
 6409TIP3    H240787   4.766   0.166   1.986
 6410TIP3   OH240788   6.303   5.122   0.263
 6410TIP3    H140789   6.236   5.072   0.309
 6410TIP3    H240790   6.278   5.119   0.171
 6411TIP3   OH240791   0.965   1.479   2.107
 6411TIP3    H140792   1.023   1.406   2.085
 6411TIP3    H240793   0.887   1.437   2.145
 6412TIP3   OH240794   2.338   0.288   0.502
 6412TIP3    H140795   2.257   0.243   0.526
 6412TIP3    H240796   2.407   0.227   0.527
 6413TIP3   OH240797   1.238   1.228   0.311
 6413TIP3    H140798   1.319   1.183   0.286
 6413TIP3    H240799   1.252   1.253   0.402
 6414TIP3   OH240800   6.216   0.656   0.003
 6414TIP3    H140801   6.308   0.667   8.717
 6414TIP3    H240802   6.194   0.569   8.705
 6415TIP3   OH240803   6.755   1.675   1.617
 6415TIP3    H140804   6.698   1.600   1.629
 6415TIP3    H240805   6.716   1.724   1.545
 6416TIP3   OH240806   4.505   5.289   8.503
 6416TIP3    H140807   4.497   5.318   8.412
 6416TIP3    H240808   4.415   5.276   8.533
 6417TIP3   OH240809   0.791   2.322   2.079
 6417TIP3    H140810   0.751   2.265   2.144
 6417TIP3    H240811   0.869   2.276   2.050
 6418TIP3   OH240812   6.196   5.544   1.654
 6418TIP3    H140813   6.250   5.510   1.726
 6418TIP3    H240814   6.185   5.637   1.674
 6419TIP3   OH240815   6.076   2.982   1.757
 6419TIP3    H140816   6.133   3.018   1.689
 6419TIP3    H240817   6.004   3.045   1.763
 6420TIP3   OH240818   3.034   1.764   0.229
 6420TIP3    H140819   3.062   1.701   0.162
 6420TIP3    H240820   3.034   1.715   0.311
 6421TIP3   OH240821   3.956   1.905   0.396
 6421TIP3    H140822   4.042   1.948   0.388
 6421TIP3    H240823   3.947   1.855   0.315
 6422TIP3   OH240824   4.558   1.818   1.517
 6422TIP3    H140825   4.614   1.802   1.593
 6422TIP3    H240826   4.604   1.778   1.444
 6423TIP3   OH240827   1.979   4.347   7.542
 6423TIP3    H140828   2.074   4.353   7.554
 6423TIP3    H240829   1.965   4.262   7.501
 6424TIP3   OH240830   0.752   2.660   6.684
 6424TIP3    H140831   0.761   2.565   6.678
 6424TIP3    H240832   0.836   2.695   6.652
 6425TIP3   OH240833   6.307   1.321   0.236
 6425TIP3    H140834   6.287   1.398   0.183
 6425TIP3    H240835   6.238   1.259   0.215
 6426TIP3   OH240836   4.669   6.094   1.298
 6426TIP3    H140837   4.591   6.148   1.290
 6426TIP3    H240838   4.647   6.030   1.366
 6427TIP3   OH240839   5.039   3.002   0.736
 6427TIP3    H140840   5.082   2.927   0.778
 6427TIP3    H240841   5.052   3.075   0.798
 6428TIP3   OH240842   2.685   4.004   0.801
 6428TIP3    H140843   2.693   4.068   0.730
 6428TIP3    H240844   2.592   4.002   0.822
 6429TIP3   OH240845   0.209   0.741   1.015
 6429TIP3    H140846   0.202   0.655   0.974
 6429TIP3    H240847   0.120   0.762   1.041
 6430TIP3   OH240848   4.546   1.798   6.806
 6430TIP3    H140849   4.536   1.844   6.889
 6430TIP3    H240850   4.517   1.861   6.740
 6431TIP3   OH240851   6.663   3.410   1.522
 6431TIP3    H140852   6.753   3.407   1.488
 6431TIP3    H240853   6.643   3.503   1.526
 6432TIP3   OH240854   1.711   6.159   0.383
 6432TIP3    H140855   1.775   6.226   0.359
 6432TIP3    H240856   1.763   6.079   0.391
 6433TIP3   OH240857   2.970   2.313   0.390
 6433TIP3    H140858   2.959   2.402   0.421
 6433TIP3    H240859   3.016   2.322   0.307
 6434TIP3   OH240860   3.911   0.007   0.895
 6434TIP3    H140861   3.928   0.096   0.927
 6434TIP3    H240862   3.992   6.823   0.850
 6435TIP3   OH240863   3.238   0.871   0.934
 6435TIP3    H140864   3.215   0.899   0.845
 6435TIP3    H240865   3.194   0.787   0.945
 6436TIP3   OH240866   3.234   3.076   2.160
 6436TIP3    H140867   3.192   2.992   2.145
 6436TIP3    H240868   3.322   3.054   2.189
 6437TIP3   OH240869   5.507   2.700   8.567
 6437TIP3    H140870   5.495   2.758   8.492
 6437TIP3    H240871   5.499   2.612   8.531
 6438TIP3   OH240872   3.548   3.898   1.362
 6438TIP3    H140873   3.541   3.989   1.393
 6438TIP3    H240874   3.605   3.904   1.285
 6439TIP3   OH240875   6.313   2.158   2.432
 6439TIP3    H140876   6.391   2.214   2.428
 6439TIP3    H240877   6.346   2.071   2.408
 6440TIP3   OH240878   3.655   3.907   1.734
 6440TIP3    H140879   3.714   3.944   1.667
 6440TIP3    H240880   3.632   3.821   1.700
 6441TIP3   OH240881   6.312   2.275   8.436
 6441TIP3    H140882   6.307   2.298   8.528
 6441TIP3    H240883   6.221   2.268   8.407
 6442TIP3   OH240884   2.369   5.622   7.515
 6442TIP3    H140885   2.288   5.576   7.494
 6442TIP3    H240886   2.395   5.588   7.601
 6443TIP3   OH240887   2.852   0.215   7.125
 6443TIP3    H140888   2.895   0.299   7.135
 6443TIP3    H240889   2.880   0.165   7.202
 6444TIP3   OH240890   1.583   4.090   8.612
 6444TIP3    H140891   1.542   4.045   8.538
 6444TIP3    H240892   1.675   4.063   8.609
 6445TIP3   OH240893   4.470   1.682   7.095
 6445TIP3    H140894   4.459   1.653   7.186
 6445TIP3    H240895   4.453   1.776   7.098
 6446TIP3   OH240896   1.569   2.785   6.850
 6446TIP3    H140897   1.486   2.831   6.838
 6446TIP3    H240898   1.633   2.854   6.869
 6447TIP3   OH240899   5.637   4.720   1.081
 6447TIP3    H140900   5.595   4.692   1.163
 6447TIP3    H240901   5.663   4.639   1.038
 6448TIP3   OH240902   6.123   0.594   2.103
 6448TIP3    H140903   6.030   0.583   2.120
 6448TIP3    H240904   6.148   0.671   2.154
 6449TIP3   OH240905   6.765   2.187   1.408
 6449TIP3    H140906   6.753   2.197   1.313
 6449TIP3    H240907   6.787   2.275   1.438
 6450TIP3   OH240908   5.871   0.406   2.629
 6450TIP3    H140909   5.935   0.476   2.645
 6450TIP3    H240910   5.803   0.448   2.576
 6451TIP3   OH240911   5.221   3.240   6.893
 6451TIP3    H140912   5.274   3.307   6.937
 6451TIP3    H240913   5.163   3.290   6.835
 6452TIP3   OH240914   3.768   5.730   7.344
 6452TIP3    H140915   3.684   5.686   7.358
 6452TIP3    H240916   3.748   5.802   7.285
 6453TIP3   OH240917   5.557   4.318   7.216
 6453TIP3    H140918   5.523   4.371   7.287
 6453TIP3    H240919   5.646   4.349   7.203
 6454TIP3   OH240920   0.300   1.030   6.479
 6454TIP3    H140921   0.299   1.093   6.407
 6454TIP3    H240922   0.274   0.947   6.439
 6455TIP3   OH240923   2.127   5.819   0.407
 6455TIP3    H140924   2.173   5.743   0.443
 6455TIP3    H240925   2.049   5.784   0.365
 6456TIP3   OH240926   3.254   3.525   1.550
 6456TIP3    H140927   3.187   3.592   1.534
 6456TIP3    H240928   3.229   3.486   1.634
 6457TIP3   OH240929   6.484   1.386   6.896
 6457TIP3    H140930   6.527   1.470   6.882
 6457TIP3    H240931   6.396   1.408   6.924
 6458TIP3   OH240932   1.875   0.322   8.637
 6458TIP3    H140933   1.960   0.320   8.681
 6458TIP3    H240934   1.887   0.386   8.567
 6459TIP3   OH240935   2.381   5.193   1.582
 6459TIP3    H140936   2.374   5.098   1.589
 6459TIP3    H240937   2.417   5.220   1.667
 6460TIP3   OH240938   0.954   0.407   7.081
 6460TIP3    H140939   0.988   0.393   6.993
 6460TIP3    H240940   1.024   0.456   7.126
 6461TIP3   OH240941   4.212   5.423   2.269
 6461TIP3    H140942   4.214   5.332   2.301
 6461TIP3    H240943   4.172   5.472   2.341
 6462TIP3   OH240944   4.495   6.221   6.843
 6462TIP3    H140945   4.442   6.153   6.801
 6462TIP3    H240946   4.507   6.287   6.774
 6463TIP3   OH240947   1.325   0.226   8.241
 6463TIP3    H140948   1.273   0.265   8.171
 6463TIP3    H240949   1.297   0.134   8.243
 6464TIP3   OH240950   6.676   2.324   1.679
 6464TIP3    H140951   6.714   2.404   1.644
 6464TIP3    H240952   6.637   2.349   1.762
 6465TIP3   OH240953   2.133   1.055   6.816
 6465TIP3    H140954   2.107   1.147   6.811
 6465TIP3    H240955   2.110   1.020   6.730
 6466TIP3   OH240956   5.161   4.225   7.962
 6466TIP3    H140957   5.163   4.155   7.897
 6466TIP3    H240958   5.091   4.200   8.022
 6467TIP3   OH240959   3.259   0.380   8.523
 6467TIP3    H140960   3.331   0.318   8.510
 6467TIP3    H240961   3.301   0.466   8.527
 6468TIP3   OH240962   5.183   3.236   0.842
 6468TIP3    H140963   5.193   3.226   0.937
 6468TIP3    H240964   5.224   3.321   0.823
 6469TIP3   OH240965   6.588   2.775   7.931
 6469TIP3    H140966   6.528   2.700   7.937
 6469TIP3    H240967   6.542   2.846   7.975
 6470TIP3   OH240968   0.400   2.277   1.129
 6470TIP3    H140969   0.312   2.313   1.117
 6470TIP3    H240970   0.426   2.248   1.041
 6471TIP3   OH240971   3.539   6.131   6.896
 6471TIP3    H140972   3.488   6.154   6.973
 6471TIP3    H240973   3.476   6.091   6.836
 6472TIP3   OH240974   1.230   4.984   0.854
 6472TIP3    H140975   1.286   4.906   0.855
 6472TIP3    H240976   1.152   4.958   0.902
 6473TIP3   OH240977   6.614   1.164   2.359
 6473TIP3    H140978   6.567   1.163   2.442
 6473TIP3    H240979   6.644   1.074   2.348
 6474TIP3   OH240980   1.396   6.202   0.827
 6474TIP3    H140981   1.318   6.253   0.805
 6474TIP3    H240982   1.362   6.121   0.865
 6475TIP3   OH240983   1.722   0.259   1.443
 6475TIP3    H140984   1.628   0.272   1.447
 6475TIP3    H240985   1.746   0.230   1.531
 6476TIP3   OH240986   0.003   1.138   7.936
 6476TIP3    H140987   6.799   1.057   7.912
 6476TIP3    H240988   0.062   1.113   8.006
 6477TIP3   OH240989   4.001   3.546   0.572
 6477TIP3    H140990   3.947   3.613   0.615
 6477TIP3    H240991   3.948   3.517   0.498
 6478TIP3   OH240992   0.903   3.864   7.368
 6478TIP3    H140993   0.859   3.780   7.377
 6478TIP3    H240994   0.993   3.841   7.345
 6479TIP3   OH240995   1.607   0.314   7.472
 6479TIP3    H140996   1.566   0.323   7.558
 6479TIP3    H240997   1.654   0.397   7.459
 6480TIP3   OH240998   3.528   6.043   0.729
 6480TIP3    H140999   3.438   6.012   0.740
 6480TIP3    H241000   3.532   6.125   0.778
 6481TIP3   OH241001   0.073   2.469   1.325
 6481TIP3    H141002   0.047   2.548   1.372
 6481TIP3    H241003   0.167   2.462   1.339
 6482TIP3   OH241004   4.310   1.740   1.306
 6482TIP3    H141005   4.349   1.755   1.392
 6482TIP3    H241006   4.223   1.703   1.325
 6483TIP3   OH241007   0.427   2.688   7.143
 6483TIP3    H141008   0.455   2.685   7.051
 6483TIP3    H241009   0.437   2.780   7.168
 6484TIP3   OH241010   3.376   2.172   2.261
 6484TIP3    H141011   3.348   2.118   2.187
 6484TIP3    H241012   3.414   2.110   2.324
 6485TIP3   OH241013   1.218   5.363   6.106
 6485TIP3    H141014   1.250   5.389   6.193
 6485TIP3    H241015   1.229   5.268   6.104
 6486TIP3   OH241016   1.928   6.486   0.978
 6486TIP3    H141017   1.875   6.525   1.047
 6486TIP3    H241018   1.983   6.557   0.946
 6487TIP3   OH241019   6.169   1.587   7.140
 6487TIP3    H141020   6.196   1.507   7.094
 6487TIP3    H241021   6.138   1.645   7.070
 6488TIP3   OH241022   1.800   6.623   7.841
 6488TIP3    H141023   1.847   6.609   7.759
 6488TIP3    H241024   1.869   6.639   7.906
 6489TIP3   OH241025   2.950   6.781   6.875
 6489TIP3    H141026   2.965   6.704   6.930
 6489TIP3    H241027   3.035   6.800   6.837
 6490TIP3   OH241028   1.378   1.909   1.877
 6490TIP3    H141029   1.451   1.920   1.938
 6490TIP3    H241030   1.303   1.949   1.922
 6491TIP3   OH241031   0.083   0.894   1.290
 6491TIP3    H141032   0.004   0.846   1.314
 6491TIP3    H241033   0.144   0.878   1.362
 6492TIP3   OH241034   5.550   0.950   8.325
 6492TIP3    H141035   5.603   0.994   8.258
 6492TIP3    H241036   5.507   1.022   8.372
 6493TIP3   OH241037   4.191   0.756   1.886
 6493TIP3    H141038   4.254   0.790   1.950
 6493TIP3    H241039   4.106   0.761   1.931
 6494TIP3   OH241040   3.013   0.044   8.360
 6494TIP3    H141041   2.950   0.005   8.299
 6494TIP3    H241042   3.005   0.138   8.346
 6495TIP3   OH241043   5.426   1.244   8.686
 6495TIP3    H141044   5.497   1.307   8.702
 6495TIP3    H241045   5.415   1.199   0.035
 6496TIP3   OH241046   2.257   1.958   6.705
 6496TIP3    H141047   2.240   1.868   6.678
 6496TIP3    H241048   2.179   2.007   6.677
 6497TIP3   OH241049   2.930   5.163   0.910
 6497TIP3    H141050   2.943   5.068   0.912
 6497TIP3    H241051   2.922   5.184   0.817
 6498TIP3   OH241052   2.877   0.871   0.333
 6498TIP3    H141053   2.967   0.870   0.301
 6498TIP3    H241054   2.874   0.948   0.390
 6499TIP3   OH241055   3.172   3.958   0.007
 6499TIP3    H141056   3.115   4.013   8.687
 6499TIP3    H241057   3.150   3.868   8.716
 6500TIP3   OH241058   3.075   4.424   1.326
 6500TIP3    H141059   3.142   4.355   1.326
 6500TIP3    H241060   3.125   4.505   1.321
 6501TIP3   OH241061   6.438   0.721   0.698
 6501TIP3    H141062   6.509   0.658   0.696
 6501TIP3    H241063   6.362   0.673   0.666
 6502TIP3   OH241064   0.953   5.887   7.516
 6502TIP3    H141065   0.970   5.870   7.423
 6502TIP3    H241066   0.969   5.803   7.559
 6503TIP3   OH241067   1.393   0.189   0.103
 6503TIP3    H141068   1.453   0.201   0.029
 6503TIP3    H241069   1.423   0.253   0.168
 6504TIP3   OH241070   5.588   5.568   7.685
 6504TIP3    H141071   5.580   5.652   7.639
 6504TIP3    H241072   5.655   5.520   7.636
 6505TIP3   OH241073   2.867   0.217   0.215
 6505TIP3    H141074   2.863   0.303   0.174
 6505TIP3    H241075   2.954   0.214   0.256
 6506TIP3   OH241076   4.112   1.989   8.644
 6506TIP3    H141077   4.155   2.062   8.600
 6506TIP3    H241078   4.030   1.976   8.596
 6507TIP3   OH241079   3.692   1.754   6.816
 6507TIP3    H141080   3.622   1.692   6.796
 6507TIP3    H241081   3.744   1.757   6.735
 6508TIP3   OH241082   0.711   6.160   8.381
 6508TIP3    H141083   0.671   6.242   8.352
 6508TIP3    H241084   0.770   6.187   8.452
 6509TIP3   OH241085   0.343   3.104   8.023
 6509TIP3    H141086   0.257   3.062   8.013
 6509TIP3    H241087   0.391   3.046   8.083
 6510TIP3   OH241088   5.788   0.287   8.300
 6510TIP3    H141089   5.740   0.364   8.269
 6510TIP3    H241090   5.747   0.213   8.255
 6511TIP3   OH241091   4.295   3.168   6.048
 6511TIP3    H141092   4.236   3.217   5.991
 6511TIP3    H241093   4.330   3.233   6.109
 6512TIP3   OH241094   0.819   2.553   1.047
 6512TIP3    H141095   0.728   2.528   1.063
 6512TIP3    H241096   0.846   2.596   1.128
 6513TIP3   OH241097   2.570   0.627   7.633
 6513TIP3    H141098   2.511   0.556   7.604
 6513TIP3    H241099   2.624   0.587   7.701
 6514TIP3   OH241100   6.345   2.813   1.060
 6514TIP3    H141101   6.272   2.753   1.043
 6514TIP3    H241102   6.350   2.867   0.981
 6515TIP3   OH241103   3.659   0.435   1.302
 6515TIP3    H141104   3.738   0.465   1.348
 6515TIP3    H241105   3.648   0.498   1.230
 6516TIP3   OH241106   2.595   6.198   7.605
 6516TIP3    H141107   2.522   6.258   7.618
 6516TIP3    H241108   2.671   6.244   7.642
 6517TIP3   OH241109   3.088   6.556   1.835
 6517TIP3    H141110   3.020   6.603   1.884
 6517TIP3    H241111   3.124   6.493   1.898
 6518TIP3   OH241112   2.075   5.065   8.726
 6518TIP3    H141113   2.010   5.022   0.048
 6518TIP3    H241114   2.096   4.999   8.660
 6519TIP3   OH241115   3.690   6.042   8.318
 6519TIP3    H141116   3.776   6.066   8.284
 6519TIP3    H241117   3.637   6.025   8.240
 6520TIP3   OH241118   4.382   1.129   7.851
 6520TIP3    H141119   4.393   1.152   7.759
 6520TIP3    H241120   4.431   1.195   7.899
 6521TIP3   OH241121   3.102   5.355   8.491
 6521TIP3    H141122   3.191   5.338   8.462
 6521TIP3    H241123   3.046   5.316   8.423
 6522TIP3   OH241124   1.770   6.218   7.765
 6522TIP3    H141125   1.737   6.136   7.802
 6522TIP3    H241126   1.816   6.192   7.685
 6523TIP3   OH241127   2.945   0.643   1.268
 6523TIP3    H141128   2.933   0.712   1.333
 6523TIP3    H241129   2.876   0.580   1.288
 6524TIP3   OH241130   2.162   0.767   8.345
 6524TIP3    H141131   2.077   0.802   8.318
 6524TIP3    H241132   2.220   0.786   8.272
 6525TIP3   OH241133   1.058   5.792   0.557
 6525TIP3    H141134   1.081   5.884   0.540
 6525TIP3    H241135   0.965   5.787   0.537
 6526TIP3   OH241136   0.431   0.322   8.243
 6526TIP3    H141137   0.443   0.317   8.149
 6526TIP3    H241138   0.518   0.308   8.280
 6527TIP3   OH241139   4.040   6.309   1.413
 6527TIP3    H141140   3.965   6.360   1.386
 6527TIP3    H241141   4.003   6.226   1.445
 6528TIP3   OH241142   3.648   5.321   0.467
 6528TIP3    H141143   3.576   5.320   0.530
 6528TIP3    H241144   3.711   5.259   0.503
 6529TIP3   OH241145   2.329   1.126   1.483
 6529TIP3    H141146   2.267   1.096   1.550
 6529TIP3    H241147   2.285   1.199   1.441
 6530TIP3   OH241148   2.166   4.051   8.507
 6530TIP3    H141149   2.111   4.104   8.564
 6530TIP3    H241150   2.255   4.068   8.537
 6531TIP3   OH241151   0.106   4.431   7.964
 6531TIP3    H141152   0.020   4.390   7.975
 6531TIP3    H241153   0.112   4.450   7.871
 6532TIP3   OH241154   1.152   5.072   0.091
 6532TIP3    H141155   1.081   5.108   0.038
 6532TIP3    H241156   1.150   5.124   0.172
 6533TIP3   OH241157   0.136   5.160   6.821
 6533TIP3    H141158   0.197   5.086   6.817
 6533TIP3    H241159   0.165   5.211   6.897
 6534TIP3   OH241160   0.491   6.299   1.164
 6534TIP3    H141161   0.465   6.391   1.172
 6534TIP3    H241162   0.493   6.283   1.069
 6535TIP3   OH241163   5.616   3.715   1.319
 6535TIP3    H141164   5.684   3.769   1.279
 6535TIP3    H241165   5.662   3.637   1.350
 6536TIP3   OH241166   2.326   0.438   8.488
 6536TIP3    H141167   2.360   0.524   8.516
 6536TIP3    H241168   2.355   0.430   8.397
 6537TIP3   OH241169   4.437   2.565   7.104
 6537TIP3    H141170   4.407   2.525   7.022
 6537TIP3    H241171   4.358   2.601   7.143
 6538TIP3   OH241172   1.463   5.168   6.879
 6538TIP3    H141173   1.409   5.090   6.890
 6538TIP3    H241174   1.552   5.139   6.900
 6539TIP3   OH241175   5.583   0.735   8.168
 6539TIP3    H141176   5.579   0.801   8.237
 6539TIP3    H241177   5.589   0.651   8.214
 6540TIP3   OH241178   5.310   3.149   6.480
 6540TIP3    H141179   5.366   3.224   6.503
 6540TIP3    H241180   5.359   3.104   6.411
 6541TIP3   OH241181   6.400   6.436   6.363
 6541TIP3    H141182   6.396   6.353   6.314
 6541TIP3    H241183   6.493   6.450   6.379
 6542TIP3   OH241184   5.237   1.683   7.273
 6542TIP3    H141185   5.323   1.725   7.277
 6542TIP3    H241186   5.230   1.650   7.183
 6543TIP3   OH241187   0.600   2.247   1.895
 6543TIP3    H141188   0.653   2.303   1.951
 6543TIP3    H241189   0.510   2.269   1.915
 6544TIP3   OH241190   3.413   6.665   1.086
 6544TIP3    H141191   3.393   6.580   1.124
 6544TIP3    H241192   3.486   6.649   1.027
 6545TIP3   OH241193   6.706   6.384   7.324
 6545TIP3    H141194   6.760   6.460   7.303
 6545TIP3    H241195   6.735   6.316   7.264
 6546TIP3   OH241196   4.479   6.378   0.241
 6546TIP3    H141197   4.499   6.463   0.280
 6546TIP3    H241198   4.383   6.376   0.237
 6547TIP3   OH241199   6.547   6.660   0.890
 6547TIP3    H141200   6.611   6.591   0.908
 6547TIP3    H241201   6.595   6.741   0.907
 6548TIP3   OH241202   0.114   6.634   0.253
 6548TIP3    H141203   0.149   6.578   0.323
 6548TIP3    H241204   0.160   6.717   0.263
 6549TIP3   OH241205   5.254   6.521   2.494
 6549TIP3    H141206   5.161   6.506   2.476
 6549TIP3    H241207   5.255   6.590   2.560
 6550TIP3   OH241208   5.618   2.994   7.985
 6550TIP3    H141209   5.608   2.964   8.075
 6550TIP3    H241210   5.571   3.078   7.982
 6551TIP3   OH241211   5.492   4.695   7.151
 6551TIP3    H141212   5.409   4.742   7.160
 6551TIP3    H241213   5.557   4.753   7.192
 6552TIP3   OH241214   6.559   3.662   0.762
 6552TIP3    H141215   6.603   3.690   0.682
 6552TIP3    H241216   6.582   3.729   0.827
 6553TIP3   OH241217   1.292   5.924   1.671
 6553TIP3    H141218   1.199   5.942   1.679
 6553TIP3    H241219   1.306   5.845   1.722
 6554TIP3   OH241220   6.018   5.789   0.705
 6554TIP3    H141221   5.999   5.807   0.797
 6554TIP3    H241222   6.016   5.875   0.663
 6555TIP3   OH241223   2.563   1.486   8.084
 6555TIP3    H141224   2.573   1.393   8.064
 6555TIP3    H241225   2.532   1.525   8.002
 6556TIP3   OH241226   6.219   5.969   1.174
 6556TIP3    H141227   6.156   5.968   1.247
 6556TIP3    H241228   6.170   6.006   1.101
 6557TIP3   OH241229   6.508   3.163   7.431
 6557TIP3    H141230   6.538   3.117   7.353
 6557TIP3    H241231   6.562   3.129   7.502
 6558TIP3   OH241232   0.798   5.813   1.213
 6558TIP3    H141233   0.749   5.849   1.139
 6558TIP3    H241234   0.735   5.812   1.285
 6559TIP3   OH241235   2.021   0.014   2.818
 6559TIP3    H141236   1.985   6.793   2.754
 6559TIP3    H241237   2.116   0.010   2.805
 6560TIP3   OH241238   6.258   2.279   0.244
 6560TIP3    H141239   6.162   2.284   0.251
 6560TIP3    H241240   6.275   2.186   0.227
 6561TIP3   OH241241   5.409   0.265   7.035
 6561TIP3    H141242   5.482   0.311   6.993
 6561TIP3    H241243   5.349   0.245   6.963
 6562TIP3   OH241244   1.432   6.378   1.136
 6562TIP3    H141245   1.489   6.366   1.060
 6562TIP3    H241246   1.362   6.315   1.124
 6563TIP3   OH241247   6.143   4.364   1.467
 6563TIP3    H141248   6.056   4.387   1.500
 6563TIP3    H241249   6.126   4.301   1.397
 6564TIP3   OH241250   2.132   1.759   8.511
 6564TIP3    H141251   2.138   1.855   8.507
 6564TIP3    H241252   2.216   1.728   8.478
 6565TIP3   OH241253   1.270   5.113   6.630
 6565TIP3    H141254   1.210   5.115   6.704
 6565TIP3    H241255   1.215   5.126   6.554
 6566TIP3   OH241256   4.627   2.996   8.177
 6566TIP3    H141257   4.572   2.989   8.256
 6566TIP3    H241258   4.572   2.962   8.107
 6567TIP3   OH241259   4.879   3.806   0.751
 6567TIP3    H141260   4.952   3.840   0.699
 6567TIP3    H241261   4.865   3.717   0.718
 6568TIP3   OH241262   0.648   5.125   2.065
 6568TIP3    H141263   0.691   5.087   2.142
 6568TIP3    H241264   0.555   5.117   2.084
 6569TIP3   OH241265   0.684   2.424   0.722
 6569TIP3    H141266   0.703   2.410   0.629
 6569TIP3    H241267   0.660   2.516   0.728
 6570TIP3   OH241268   1.764   3.842   6.702
 6570TIP3    H141269   1.753   3.936   6.718
 6570TIP3    H241270   1.804   3.838   6.615
 6571TIP3   OH241271   4.836   2.636   1.724
 6571TIP3    H141272   4.804   2.554   1.761
 6571TIP3    H241273   4.822   2.700   1.794
 6572TIP3   OH241274   4.315   3.430   0.959
 6572TIP3    H141275   4.349   3.433   1.049
 6572TIP3    H241276   4.337   3.342   0.928
 6573TIP3   OH241277   1.393   2.832   2.089
 6573TIP3    H141278   1.410   2.894   2.159
 6573TIP3    H241279   1.470   2.776   2.087
 6574TIP3   OH241280   0.138   5.432   7.322
 6574TIP3    H141281   0.087   5.373   7.377
 6574TIP3    H241282   0.136   5.392   7.235
 6575TIP3   OH241283   2.134   4.865   8.565
 6575TIP3    H141284   2.070   4.852   8.495
 6575TIP3    H241285   2.123   4.789   8.622
 6576TIP3   OH241286   0.795   2.270   0.944
 6576TIP3    H141287   0.882   2.291   0.979
 6576TIP3    H241288   0.774   2.342   0.886
 6577TIP3   OH241289   6.689   2.161   7.672
 6577TIP3    H141290   6.764   2.130   7.621
 6577TIP3    H241291   6.722   2.235   7.722
 6578TIP3   OH241292   1.196   4.276   0.811
 6578TIP3    H141293   1.247   4.241   0.884
 6578TIP3    H241294   1.217   4.220   0.737
 6579TIP3   OH241295   4.649   1.866   8.252
 6579TIP3    H141296   4.612   1.803   8.190
 6579TIP3    H241297   4.618   1.836   8.337
 6580TIP3   OH241298   2.688   6.434   2.130
 6580TIP3    H141299   2.685   6.339   2.121
 6580TIP3    H241300   2.734   6.448   2.213
 6581TIP3   OH241301   5.523   4.547   1.303
 6581TIP3    H141302   5.614   4.524   1.323
 6581TIP3    H241303   5.472   4.474   1.338
 6582TIP3   OH241304   4.136   1.878   7.889
 6582TIP3    H141305   4.147   1.815   7.818
 6582TIP3    H241306   4.059   1.848   7.936
 6583TIP3   OH241307   4.465   1.278   2.141
 6583TIP3    H141308   4.514   1.356   2.167
 6583TIP3    H241309   4.473   1.276   2.046
 6584TIP3   OH241310   2.124   4.883   1.557
 6584TIP3    H141311   2.210   4.906   1.522
 6584TIP3    H241312   2.064   4.903   1.485
 6585TIP3   OH241313   5.630   4.589   6.225
 6585TIP3    H141314   5.549   4.630   6.197
 6585TIP3    H241315   5.616   4.566   6.317
 6586TIP3   OH241316   5.160   6.824   2.404
 6586TIP3    H141317   5.231   6.791   2.459
 6586TIP3    H241318   5.081   6.808   2.455
 6587TIP3   OH241319   1.529   6.640   6.367
 6587TIP3    H141320   1.445   6.682   6.384
 6587TIP3    H241321   1.514   6.589   6.287
 6588TIP3   OH241322   3.147   2.421   6.640
 6588TIP3    H141323   3.173   2.383   6.724
 6588TIP3    H241324   3.223   2.408   6.583
 6589TIP3   OH241325   2.439   3.129   1.836
 6589TIP3    H141326   2.394   3.159   1.915
 6589TIP3    H241327   2.439   3.033   1.844
 6590TIP3   OH241328   6.353   2.953   7.512
 6590TIP3    H141329   6.442   2.932   7.543
 6590TIP3    H241330   6.364   3.033   7.462
 6591TIP3   OH241331   4.382   5.937   1.811
 6591TIP3    H141332   4.311   5.954   1.872
 6591TIP3    H241333   4.462   5.954   1.862
 6592TIP3   OH241334   5.778   4.913   7.403
 6592TIP3    H141335   5.689   4.897   7.374
 6592TIP3    H241336   5.793   4.848   7.472
 6593TIP3   OH241337   5.410   3.615   1.147
 6593TIP3    H141338   5.378   3.539   1.195
 6593TIP3    H241339   5.477   3.653   1.204
 6594TIP3   OH241340   1.127   5.905   8.583
 6594TIP3    H141341   1.088   5.910   8.671
 6594TIP3    H241342   1.220   5.919   8.597
 6595TIP3   OH241343   1.560   0.023   7.004
 6595TIP3    H141344   1.554   6.768   7.009
 6595TIP3    H241345   1.633   0.045   7.061
 6596TIP3   OH241346   1.087   5.735   0.828
 6596TIP3    H141347   1.120   5.777   0.749
 6596TIP3    H241348   1.141   5.656   0.838
 6597TIP3   OH241349   2.432   2.480   1.550
 6597TIP3    H141350   2.404   2.505   1.638
 6597TIP3    H241351   2.368   2.521   1.492
 6598TIP3   OH241352   4.470   1.981   6.620
 6598TIP3    H141353   4.518   2.028   6.552
 6598TIP3    H241354   4.396   2.037   6.640
 6599TIP3   OH241355   2.302   6.229   2.306
 6599TIP3    H141356   2.390   6.227   2.345
 6599TIP3    H241357   2.281   6.137   2.292
 6600TIP3   OH241358   1.140   1.682   7.210
 6600TIP3    H141359   1.195   1.627   7.153
 6600TIP3    H241360   1.189   1.764   7.217
 6601TIP3   OH241361   0.539   6.417   7.188
 6601TIP3    H141362   0.504   6.339   7.229
 6601TIP3    H241363   0.528   6.486   7.253
 6602TIP3   OH241364   3.710   5.079   7.656
 6602TIP3    H141365   3.726   4.986   7.677
 6602TIP3    H241366   3.634   5.077   7.598
 6603TIP3   OH241367   2.233   1.516   8.043
 6603TIP3    H141368   2.278   1.598   8.062
 6603TIP3    H241369   2.229   1.471   8.127
 6604TIP3   OH241370   0.511   1.918   8.561
 6604TIP3    H141371   0.535   1.825   8.563
 6604TIP3    H241372   0.537   1.948   8.474
 6605TIP3   OH241373   5.692   0.383   7.087
 6605TIP3    H141374   5.627   0.418   7.148
 6605TIP3    H241375   5.709   0.454   7.026
 6606TIP3   OH241376   5.198   0.544   8.193
 6606TIP3    H141377   5.225   0.454   8.173
 6606TIP3    H241378   5.266   0.599   8.155
 6607TIP3   OH241379   1.852   3.613   7.409
 6607TIP3    H141380   1.788   3.582   7.473
 6607TIP3    H241381   1.865   3.539   7.350
 6608TIP3   OH241382   6.707   1.586   7.985
 6608TIP3    H141383   6.722   1.511   7.927
 6608TIP3    H241384   6.632   1.631   7.946
 6609TIP3   OH241385   5.870   6.214   0.055
 6609TIP3    H141386   5.807   6.230   0.126
 6609TIP3    H241387   5.941   6.166   0.098
 6610TIP3   OH241388   0.886   4.551   7.403
 6610TIP3    H141389   0.967   4.541   7.454
 6610TIP3    H241390   0.834   4.613   7.453
 6611TIP3   OH241391   5.338   5.195   7.526
 6611TIP3    H141392   5.428   5.181   7.499
 6611TIP3    H241393   5.323   5.289   7.511
 6612TIP3   OH241394   3.091   6.170   1.143
 6612TIP3    H141395   3.000   6.144   1.131
 6612TIP3    H241396   3.097   6.258   1.106
 6613TIP3   OH241397   4.569   6.306   0.992
 6613TIP3    H141398   4.625   6.229   0.995
 6613TIP3    H241399   4.612   6.370   1.048
 6614TIP3   OH241400   6.606   5.688   8.605
 6614TIP3    H141401   6.605   5.780   8.630
 6614TIP3    H241402   6.639   5.642   8.682
 6615TIP3   OH241403   6.478   4.425   2.036
 6615TIP3    H141404   6.492   4.428   1.941
 6615TIP3    H241405   6.480   4.331   2.058
 6616TIP3   OH241406   2.688   5.859   8.235
 6616TIP3    H141407   2.776   5.827   8.254
 6616TIP3    H241408   2.680   5.941   8.283
 6617TIP3   OH241409   0.856   5.359   7.695
 6617TIP3    H141410   0.871   5.389   7.785
 6617TIP3    H241411   0.901   5.275   7.691
 6618TIP3   OH241412   1.296   2.254   6.759
 6618TIP3    H141413   1.387   2.239   6.785
 6618TIP3    H241414   1.299   2.258   6.663
 6619TIP3   OH241415   4.684   3.768   7.109
 6619TIP3    H141416   4.628   3.714   7.165
 6619TIP3    H241417   4.681   3.726   7.023
 6620TIP3   OH241418   0.532   2.507   0.269
 6620TIP3    H141419   0.598   2.493   0.337
 6620TIP3    H241420   0.457   2.455   0.298
 6621TIP3   OH241421   4.144   3.346   8.038
 6621TIP3    H141422   4.184   3.419   8.084
 6621TIP3    H241423   4.144   3.274   8.102
 6622TIP3   OH241424   3.497   1.639   7.117
 6622TIP3    H141425   3.534   1.551   7.119
 6622TIP3    H241426   3.476   1.655   7.025
 6623TIP3   OH241427   2.994   5.386   8.192
 6623TIP3    H141428   2.978   5.458   8.253
 6623TIP3    H241429   2.913   5.335   8.194
 6624TIP3   OH241430   3.929   2.178   8.302
 6624TIP3    H141431   4.016   2.144   8.282
 6624TIP3    H241432   3.890   2.192   8.216
 6625TIP3   OH241433   2.646   5.343   0.629
 6625TIP3    H141434   2.685   5.313   0.546
 6625TIP3    H241435   2.557   5.308   0.627
 6626TIP3   OH241436   3.514   3.750   0.788
 6626TIP3    H141437   3.544   3.820   0.730
 6626TIP3    H241438   3.490   3.794   0.869
 6627TIP3   OH241439   3.834   2.038   2.343
 6627TIP3    H141440   3.791   2.121   2.320
 6627TIP3    H241441   3.785   1.972   2.295
 6628TIP3   OH241442   2.321   5.459   0.898
 6628TIP3    H141443   2.404   5.432   0.858
 6628TIP3    H241444   2.274   5.503   0.827
 6629TIP3   OH241445   2.009   3.079   1.497
 6629TIP3    H141446   2.002   3.160   1.447
 6629TIP3    H241447   2.079   3.097   1.561
 6630TIP3   OH241448   0.300   5.362   6.657
 6630TIP3    H141449   0.214   5.368   6.615
 6630TIP3    H241450   0.293   5.286   6.715
 6631TIP3   OH241451   2.408   5.635   8.404
 6631TIP3    H141452   2.445   5.715   8.440
 6631TIP3    H241453   2.391   5.580   8.480
 6632TIP3   OH241454   3.983   4.838   6.584
 6632TIP3    H141455   4.068   4.812   6.620
 6632TIP3    H241456   4.005   4.907   6.520
 6633TIP3   OH241457   2.715   4.238   1.800
 6633TIP3    H141458   2.677   4.179   1.865
 6633TIP3    H241459   2.658   4.316   1.802
 6634TIP3   OH241460   2.512   5.068   2.345
 6634TIP3    H141461   2.592   5.056   2.294
 6634TIP3    H241462   2.538   5.123   2.419
 6635TIP3   OH241463   4.726   3.087   0.839
 6635TIP3    H141464   4.738   2.992   0.851
 6635TIP3    H241465   4.796   3.126   0.891
 6636TIP3   OH241466   0.597   2.139   8.289
 6636TIP3    H141467   0.662   2.178   8.348
 6636TIP3    H241468   0.518   2.191   8.302
 6637TIP3   OH241469   2.095   5.611   1.422
 6637TIP3    H141470   2.003   5.605   1.395
 6637TIP3    H241471   2.128   5.521   1.416
 6638TIP3   OH241472   4.455   1.914   0.717
 6638TIP3    H141473   4.476   1.982   0.782
 6638TIP3    H241474   4.534   1.905   0.665
 6639TIP3   OH241475   0.950   2.447   8.238
 6639TIP3    H141476   1.013   2.450   8.166
 6639TIP3    H241477   1.000   2.414   8.312
 6640TIP3   OH241478   0.119   3.417   1.484
 6640TIP3    H141479   0.201   3.387   1.524
 6640TIP3    H241480   0.111   3.508   1.512
 6641TIP3   OH241481   5.114   6.673   7.217
 6641TIP3    H141482   5.142   6.751   7.264
 6641TIP3    H241483   5.151   6.683   7.129
 6642TIP3   OH241484   0.692   0.825   0.929
 6642TIP3    H141485   0.753   0.759   0.962
 6642TIP3    H241486   0.626   0.775   0.881
 6643TIP3   OH241487   0.576   5.218   7.702
 6643TIP3    H141488   0.602   5.134   7.664
 6643TIP3    H241489   0.504   5.249   7.647
 6644TIP3   OH241490   4.948   5.812   0.489
 6644TIP3    H141491   4.972   5.744   0.552
 6644TIP3    H241492   4.858   5.834   0.510
 6645TIP3   OH241493   2.312   0.537   2.152
 6645TIP3    H141494   2.337   0.454   2.111
 6645TIP3    H241495   2.228   0.518   2.195
 6646TIP3   OH241496   4.495   5.194   0.262
 6646TIP3    H141497   4.508   5.194   0.357
 6646TIP3    H241498   4.574   5.154   0.227
 6647TIP3   OH241499   0.627   1.037   1.418
 6647TIP3    H141500   0.670   0.956   1.392
 6647TIP3    H241501   0.563   1.054   1.349
 6648TIP3   OH241502   4.649   0.135   8.390
 6648TIP3    H141503   4.705   0.104   8.319
 6648TIP3    H241504   4.676   0.226   8.404
 6649TIP3   OH241505   1.366   4.875   6.553
 6649TIP3    H141506   1.350   4.963   6.586
 6649TIP3    H241507   1.414   4.888   6.471
 6650TIP3   OH241508   4.489   2.267   7.182
 6650TIP3    H141509   4.577   2.247   7.149
 6650TIP3    H241510   4.502   2.340   7.241
 6651TIP3   OH241511   5.847   6.435   7.085
 6651TIP3    H141512   5.890   6.515   7.054
 6651TIP3    H241513   5.753   6.453   7.074
 6652TIP3   OH241514   2.524   3.809   7.683
 6652TIP3    H141515   2.519   3.904   7.682
 6652TIP3    H241516   2.438   3.780   7.652
 6653TIP3   OH241517   3.340   6.071   1.059
 6653TIP3    H141518   3.374   6.017   1.131
 6653TIP3    H241519   3.263   6.114   1.096
 6654TIP3   OH241520   4.620   6.270   1.696
 6654TIP3    H141521   4.714   6.259   1.679
 6654TIP3    H241522   4.587   6.312   1.617
 6655TIP3   OH241523   0.435   2.119   1.548
 6655TIP3    H141524   0.496   2.074   1.607
 6655TIP3    H241525   0.399   2.190   1.601
 6656TIP3   OH241526   2.932   3.132   7.126
 6656TIP3    H141527   2.843   3.165   7.111
 6656TIP3    H241528   2.985   3.211   7.139
 6657TIP3   OH241529   5.834   1.145   0.211
 6657TIP3    H141530   5.754   1.197   0.220
 6657TIP3    H241531   5.879   1.156   0.295
 6658TIP3   OH241532   2.217   5.108   7.756
 6658TIP3    H141533   2.161   5.046   7.709
 6658TIP3    H241534   2.287   5.128   7.694
 6659TIP3   OH241535   2.192   5.957   2.294
 6659TIP3    H141536   2.187   5.911   2.378
 6659TIP3    H241537   2.102   5.982   2.275
 6660TIP3   OH241538   4.612   5.868   7.363
 6660TIP3    H141539   4.636   5.961   7.364
 6660TIP3    H241540   4.627   5.840   7.272
 6661TIP3   OH241541   2.594   4.544   0.114
 6661TIP3    H141542   2.523   4.480   0.115
 6661TIP3    H241543   2.560   4.618   0.065
 6662TIP3   OH241544   4.223   0.471   0.566
 6662TIP3    H141545   4.202   0.540   0.628
 6662TIP3    H241546   4.157   0.479   0.498
 6663TIP3   OH241547   0.135   6.624   1.165
 6663TIP3    H141548   0.113   6.680   1.239
 6663TIP3    H241549   0.214   6.577   1.194
 6664TIP3   OH241550   5.261   3.476   0.740
 6664TIP3    H141551   5.341   3.445   0.699
 6664TIP3    H241552   5.250   3.566   0.709
 6665TIP3   OH241553   0.311   2.133   7.830
 6665TIP3    H141554   0.376   2.062   7.835
 6665TIP3    H241555   0.312   2.172   7.918
 6666TIP3   OH241556   6.700   0.179   1.685
 6666TIP3    H141557   6.754   0.103   1.663
 6666TIP3    H241558   6.624   0.143   1.729
 6667TIP3   OH241559   2.298   4.182   8.033
 6667TIP3    H141560   2.347   4.264   8.029
 6667TIP3    H241561   2.263   4.180   8.122
 6668TIP3   OH241562   4.279   5.954   7.266
 6668TIP3    H141563   4.209   5.971   7.328
 6668TIP3    H241564   4.360   5.974   7.314
 6669TIP3   OH241565   1.778   0.488   8.411
 6669TIP3    H141566   1.863   0.532   8.400
 6669TIP3    H241567   1.735   0.536   8.481
 6670TIP3   OH241568   5.344   0.603   0.014
 6670TIP3    H141569   5.261   0.608   8.700
 6670TIP3    H241570   5.354   0.690   0.052
 6671TIP3   OH241571   1.595   1.712   1.598
 6671TIP3    H141572   1.626   1.784   1.653
 6671TIP3    H241573   1.660   1.705   1.528
 6672TIP3   OH241574   0.423   0.228   2.310
 6672TIP3    H141575   0.360   0.297   2.290
 6672TIP3    H241576   0.441   0.239   2.404
 6673TIP3   OH241577   0.154   4.903   7.789
 6673TIP3    H141578   0.087   4.953   7.836
 6673TIP3    H241579   0.134   4.812   7.808
 6674TIP3   OH241580   3.689   1.509   0.395
 6674TIP3    H141581   3.773   1.468   0.416
 6674TIP3    H241582   3.626   1.463   0.450
 6675TIP3   OH241583   5.792   3.101   7.463
 6675TIP3    H141584   5.846   3.142   7.530
 6675TIP3    H241585   5.786   3.166   7.393
 6676TIP3   OH241586   2.202   1.571   7.167
 6676TIP3    H141587   2.262   1.612   7.229
 6676TIP3    H241588   2.201   1.629   7.091
 6677TIP3   OH241589   2.207   5.494   7.175
 6677TIP3    H141590   2.171   5.425   7.231
 6677TIP3    H241591   2.213   5.455   7.089
 6678TIP3   OH241592   5.442   4.059   1.938
 6678TIP3    H141593   5.504   4.076   2.010
 6678TIP3    H241594   5.365   4.024   1.982
 6679TIP3   OH241595   5.869   2.122   0.503
 6679TIP3    H141596   5.875   2.106   0.598
 6679TIP3    H241597   5.782   2.089   0.480
 6680TIP3   OH241598   2.067   4.605   7.749
 6680TIP3    H141599   2.134   4.648   7.802
 6680TIP3    H241600   2.110   4.529   7.712
 6681TIP3   OH241601   5.682   6.262   0.249
 6681TIP3    H141602   5.712   6.347   0.281
 6681TIP3    H241603   5.612   6.237   0.308
 6682TIP3   OH241604   2.236   4.132   1.308
 6682TIP3    H141605   2.326   4.111   1.333
 6682TIP3    H241606   2.206   4.056   1.259
 6683TIP3   OH241607   5.803   2.601   0.958
 6683TIP3    H141608   5.749   2.679   0.954
 6683TIP3    H241609   5.854   2.601   0.877
 6684TIP3   OH241610   3.921   0.723   8.243
 6684TIP3    H141611   3.863   0.648   8.227
 6684TIP3    H241612   3.880   0.769   8.317
 6685TIP3   OH241613   5.497   1.880   8.322
 6685TIP3    H141614   5.469   1.897   8.412
 6685TIP3    H241615   5.417   1.884   8.271
 6686TIP3   OH241616   1.917   6.781   8.297
 6686TIP3    H141617   1.973   0.016   8.313
 6686TIP3    H241618   1.918   6.732   8.380
 6687TIP3   OH241619   5.929   0.404   1.915
 6687TIP3    H141620   5.885   0.333   1.961
 6687TIP3    H241621   5.904   0.483   1.962
 6688TIP3   OH241622   5.085   4.131   0.446
 6688TIP3    H141623   5.175   4.159   0.467
 6688TIP3    H241624   5.056   4.192   0.378
 6689TIP3   OH241625   5.722   0.555   0.857
 6689TIP3    H141626   5.734   0.461   0.870
 6689TIP3    H241627   5.811   0.590   0.851
 6690TIP3   OH241628   0.469   4.812   1.955
 6690TIP3    H141629   0.431   4.837   2.039
 6690TIP3    H241630   0.521   4.734   1.974
 6691TIP3   OH241631   4.500   2.177   0.134
 6691TIP3    H141632   4.564   2.237   0.172
 6691TIP3    H241633   4.416   2.223   0.142
 6692TIP3   OH241634   0.857   1.687   7.719
 6692TIP3    H141635   0.912   1.764   7.736
 6692TIP3    H241636   0.769   1.723   7.708
 6693TIP3   OH241637   4.650   5.485   0.784
 6693TIP3    H141638   4.615   5.505   0.871
 6693TIP3    H241639   4.582   5.432   0.743
 6694TIP3   OH241640   3.707   0.220   8.638
 6694TIP3    H141641   3.741   0.309   8.636
 6694TIP3    H241642   3.619   0.228   8.601
 6695TIP3   OH241643   0.251   4.213   7.337
 6695TIP3    H141644   0.243   4.176   7.249
 6695TIP3    H241645   0.189   4.162   7.390
 6696TIP3   OH241646   5.161   3.249   1.160
 6696TIP3    H141647   5.099   3.322   1.165
 6696TIP3    H241648   5.215   3.258   1.238
 6697TIP3   OH241649   2.658   6.025   0.199
 6697TIP3    H141650   2.563   6.026   0.212
 6697TIP3    H241651   2.693   5.991   0.282
 6698TIP3   OH241652   4.712   0.344   0.672
 6698TIP3    H141653   4.701   0.254   0.703
 6698TIP3    H241654   4.623   0.378   0.665
 6699TIP3   OH241655   3.441   4.113   6.868
 6699TIP3    H141656   3.375   4.165   6.914
 6699TIP3    H241657   3.398   4.087   6.787
 6700TIP3   OH241658   6.419   3.921   0.904
 6700TIP3    H141659   6.328   3.899   0.888
 6700TIP3    H241660   6.419   3.965   0.989
 6701TIP3   OH241661   3.776   0.800   8.460
 6701TIP3    H141662   3.703   0.739   8.450
 6701TIP3    H241663   3.754   0.850   8.539
 6702TIP3   OH241664   4.467   4.385   7.023
 6702TIP3    H141665   4.541   4.370   6.964
 6702TIP3    H241666   4.436   4.298   7.046
 6703TIP3   OH241667   2.452   1.238   0.961
 6703TIP3    H141668   2.392   1.173   0.924
 6703TIP3    H241669   2.508   1.187   1.020
 6704TIP3   OH241670   1.834   1.724   6.786
 6704TIP3    H141671   1.894   1.798   6.802
 6704TIP3    H241672   1.813   1.730   6.693
 6705TIP3   OH241673   3.551   4.060   6.514
 6705TIP3    H141674   3.479   3.997   6.520
 6705TIP3    H241675   3.516   4.132   6.461
 6706TIP3   OH241676   3.182   6.170   8.442
 6706TIP3    H141677   3.264   6.131   8.411
 6706TIP3    H241678   3.185   6.159   8.537
 6707TIP3   OH241679   5.232   1.848   2.079
 6707TIP3    H141680   5.199   1.764   2.112
 6707TIP3    H241681   5.154   1.891   2.044
 6708TIP3   OH241682   0.728   5.158   0.283
 6708TIP3    H141683   0.756   5.070   0.257
 6708TIP3    H241684   0.664   5.142   0.353
 6709TIP3   OH241685   3.552   2.374   1.850
 6709TIP3    H141686   3.511   2.447   1.804
 6709TIP3    H241687   3.584   2.317   1.781
 6710TIP3   OH241688   3.674   6.721   0.943
 6710TIP3    H141689   3.630   6.673   0.873
 6710TIP3    H241690   3.757   6.750   0.904
 6711TIP3   OH241691   1.112   6.137   7.951
 6711TIP3    H141692   1.080   6.225   7.971
 6711TIP3    H241693   1.198   6.133   7.993
 6712TIP3   OH241694   3.160   1.478   7.263
 6712TIP3    H141695   3.125   1.501   7.177
 6712TIP3    H241696   3.248   1.446   7.246
 6713TIP3   OH241697   2.486   3.337   7.190
 6713TIP3    H141698   2.544   3.261   7.179
 6713TIP3    H241699   2.533   3.395   7.250
 6714TIP3   OH241700   0.162   1.372   0.838
 6714TIP3    H141701   0.143   1.464   0.820
 6714TIP3    H241702   0.142   1.326   0.757
 6715TIP3   OH241703   0.110   0.915   0.007
 6715TIP3    H141704   0.036   0.975   8.730
 6715TIP3    H241705   0.186   0.968   8.718
 6716TIP3   OH241706   4.077   5.617   1.535
 6716TIP3    H141707   4.000   5.560   1.541
 6716TIP3    H241708   4.151   5.560   1.557
 6717TIP3   OH241709   0.844   1.153   6.167
 6717TIP3    H141710   0.756   1.123   6.192
 6717TIP3    H241711   0.859   1.113   6.081
 6718TIP3   OH241712   4.253   2.612   6.126
 6718TIP3    H141713   4.213   2.682   6.177
 6718TIP3    H241714   4.298   2.658   6.054
 6719TIP3   OH241715   5.928   5.184   0.488
 6719TIP3    H141716   5.990   5.252   0.464
 6719TIP3    H241717   5.873   5.172   0.411
 6720TIP3   OH241718   1.117   3.655   1.369
 6720TIP3    H141719   1.121   3.602   1.289
 6720TIP3    H241720   1.149   3.596   1.437
 6721TIP3   OH241721   5.213   0.785   7.712
 6721TIP3    H141722   5.139   0.751   7.661
 6721TIP3    H241723   5.224   0.721   7.782
 6722TIP3   OH241724   3.900   6.110   0.546
 6722TIP3    H141725   3.901   6.204   0.529
 6722TIP3    H241726   3.810   6.083   0.526
 6723TIP3   OH241727   3.229   4.843   0.129
 6723TIP3    H141728   3.175   4.781   0.080
 6723TIP3    H241729   3.292   4.788   0.176
 6724TIP3   OH241730   0.744   6.613   0.052
 6724TIP3    H141731   0.669   6.605   8.727
 6724TIP3    H241732   0.738   6.702   0.087
 6725TIP3   OH241733   2.031   5.907   1.305
 6725TIP3    H141734   1.942   5.884   1.334
 6725TIP3    H241735   2.075   5.936   1.384
 6726TIP3   OH241736   5.573   4.106   8.467
 6726TIP3    H141737   5.539   4.107   8.556
 6726TIP3    H241738   5.498   4.131   8.413
 6727TIP3   OH241739   3.642   2.198   7.323
 6727TIP3    H141740   3.581   2.149   7.378
 6727TIP3    H241741   3.728   2.163   7.345
 6728TIP3   OH241742   4.309   0.468   8.159
 6728TIP3    H141743   4.372   0.536   8.180
 6728TIP3    H241744   4.362   0.392   8.136
 6729TIP3   OH241745   0.424   4.013   1.827
 6729TIP3    H141746   0.426   4.107   1.848
 6729TIP3    H241747   0.476   3.973   1.897
 6730TIP3   OH241748   2.150   1.333   1.745
 6730TIP3    H141749   2.127   1.353   1.835
 6730TIP3    H241750   2.100   1.397   1.693
 6731TIP3   OH241751   3.060   3.533   7.355
 6731TIP3    H141752   3.009   3.530   7.437
 6731TIP3    H241753   3.128   3.599   7.372
 6732TIP3   OH241754   0.889   1.888   8.392
 6732TIP3    H141755   0.813   1.841   8.358
 6732TIP3    H241756   0.950   1.819   8.418
 6733TIP3   OH241757   0.731   1.340   1.805
 6733TIP3    H141758   0.792   1.269   1.826
 6733TIP3    H241759   0.771   1.418   1.842
 6734TIP3   OH241760   0.259   5.214   1.673
 6734TIP3    H141761   0.302   5.154   1.733
 6734TIP3    H241762   0.274   5.301   1.710
 6735TIP3   OH241763   3.938   6.117   0.898
 6735TIP3    H141764   3.863   6.170   0.870
 6735TIP3    H241765   3.915   6.028   0.872
 6736TIP3   OH241766   5.636   0.611   0.468
 6736TIP3    H141767   5.596   0.568   0.392
 6736TIP3    H241768   5.661   0.698   0.436
 6737TIP3   OH241769   2.494   5.223   2.032
 6737TIP3    H141770   2.514   5.219   1.939
 6737TIP3    H241771   2.579   5.221   2.075
 6738TIP3   OH241772   4.253   1.711   0.683
 6738TIP3    H141773   4.294   1.791   0.650
 6738TIP3    H241774   4.309   1.684   0.756
 6739TIP3   OH241775   3.895   5.606   1.195
 6739TIP3    H141776   3.927   5.681   1.244
 6739TIP3    H241777   3.811   5.636   1.158
 6740TIP3   OH241778   5.035   0.997   7.423
 6740TIP3    H141779   4.983   1.068   7.460
 6740TIP3    H241780   5.010   0.993   7.331
 6741TIP3   OH241781   4.861   4.848   7.333
 6741TIP3    H141782   4.831   4.823   7.420
 6741TIP3    H241783   4.818   4.786   7.274
 6742TIP3   OH241784   4.186   6.782   1.719
 6742TIP3    H141785   4.175   0.008   1.787
 6742TIP3    H241786   4.129   6.710   1.747
 6743TIP3   OH241787   5.730   4.320   8.648
 6743TIP3    H141788   5.815   4.285   8.621
 6743TIP3    H241789   5.750   4.379   8.720
 6744TIP3   OH241790   4.226   0.082   2.146
 6744TIP3    H141791   4.139   0.118   2.163
 6744TIP3    H241792   4.275   0.098   2.226
 6745TIP3   OH241793   1.714   4.730   1.264
 6745TIP3    H141794   1.765   4.650   1.253
 6745TIP3    H241795   1.625   4.700   1.283
 6746TIP3   OH241796   5.002   3.005   8.449
 6746TIP3    H141797   4.954   2.926   8.473
 6746TIP3    H241798   4.952   3.077   8.488
 6747TIP3   OH241799   0.248   0.811   1.747
 6747TIP3    H141800   0.280   0.721   1.756
 6747TIP3    H241801   0.225   0.837   1.836
 6748TIP3   OH241802   1.557   2.557   1.123
 6748TIP3    H141803   1.607   2.637   1.134
 6748TIP3    H241804   1.473   2.586   1.087
 6749TIP3   OH241805   3.916   2.689   7.719
 6749TIP3    H141806   3.912   2.593   7.716
 6749TIP3    H241807   3.842   2.715   7.773
 6750TIP3   OH241808   0.155   4.491   7.339
 6750TIP3    H141809   0.146   4.486   7.244
 6750TIP3    H241810   0.194   4.407   7.365
 6751TIP3   OH241811   0.869   0.252   7.686
 6751TIP3    H141812   0.947   0.303   7.706
 6751TIP3    H241813   0.898   0.161   7.691
 6752TIP3   OH241814   0.940   1.324   6.741
 6752TIP3    H141815   1.010   1.276   6.785
 6752TIP3    H241816   0.859   1.292   6.782
 6753TIP3   OH241817   6.503   6.067   0.505
 6753TIP3    H141818   6.498   6.151   0.460
 6753TIP3    H241819   6.486   6.088   0.597
 6754TIP3   OH241820   0.047   1.371   0.214
 6754TIP3    H141821   6.801   1.369   0.173
 6754TIP3    H241822   0.053   1.458   0.252
 6755TIP3   OH241823   6.088   0.939   6.464
 6755TIP3    H141824   5.997   0.951   6.437
 6755TIP3    H241825   6.114   1.023   6.501
 6756TIP3   OH241826   5.304   4.137   7.454
 6756TIP3    H141827   5.355   4.218   7.453
 6756TIP3    H241828   5.314   4.102   7.365
 6757TIP3   OH241829   0.414   3.099   7.652
 6757TIP3    H141830   0.435   3.126   7.562
 6757TIP3    H241831   0.498   3.097   7.696
 6758TIP3   OH241832   1.538   3.021   0.306
 6758TIP3    H141833   1.547   3.112   0.334
 6758TIP3    H241834   1.485   3.024   0.227
 6759TIP3   OH241835   3.685   2.983   8.540
 6759TIP3    H141836   3.651   3.068   8.568
 6759TIP3    H241837   3.607   2.933   8.516
 6760TIP3   OH241838   6.165   2.065   0.844
 6760TIP3    H141839   6.239   2.124   0.857
 6760TIP3    H241840   6.142   2.036   0.932
 6761TIP3   OH241841   5.690   5.506   6.550
 6761TIP3    H141842   5.738   5.588   6.563
 6761TIP3    H241843   5.606   5.520   6.593
 6762TIP3   OH241844   5.080   5.022   0.610
 6762TIP3    H141845   5.133   5.080   0.665
 6762TIP3    H241846   5.020   4.979   0.671
 6763TIP3   OH241847   1.989   1.638   8.094
 6763TIP3    H141848   1.945   1.596   8.168
 6763TIP3    H241849   2.063   1.581   8.074
 6764TIP3   OH241850   4.298   4.467   0.239
 6764TIP3    H141851   4.374   4.479   0.296
 6764TIP3    H241852   4.231   4.428   0.296
 6765TIP3   OH241853   6.122   2.419   6.390
 6765TIP3    H141854   6.084   2.489   6.444
 6765TIP3    H241855   6.112   2.450   6.300
 6766TIP3   OH241856   5.061   1.092   0.531
 6766TIP3    H141857   5.037   1.089   0.438
 6766TIP3    H241858   5.030   1.177   0.562
 6767TIP3   OH241859   3.806   1.284   1.454
 6767TIP3    H141860   3.748   1.343   1.502
 6767TIP3    H241861   3.758   1.264   1.373
 6768TIP3   OH241862   0.764   2.082   7.184
 6768TIP3    H141863   0.717   2.093   7.101
 6768TIP3    H241864   0.743   2.162   7.233
 6769TIP3   OH241865   2.165   0.680   2.628
 6769TIP3    H141866   2.084   0.716   2.590
 6769TIP3    H241867   2.138   0.647   2.714
 6770TIP3   OH241868   6.190   2.355   2.543
 6770TIP3    H141869   6.153   2.296   2.608
 6770TIP3    H241870   6.237   2.297   2.482
 6771TIP3   OH241871   4.088   1.482   7.998
 6771TIP3    H141872   4.070   1.575   7.979
 6771TIP3    H241873   4.099   1.442   7.912
 6772TIP3   OH241874   6.050   3.233   7.881
 6772TIP3    H141875   6.039   3.186   7.964
 6772TIP3    H241876   6.103   3.175   7.827
 6773TIP3   OH241877   4.550   1.662   8.025
 6773TIP3    H141878   4.469   1.619   8.000
 6773TIP3    H241879   4.592   1.685   7.942
 6774TIP3   OH241880   2.214   0.862   1.408
 6774TIP3    H141881   2.172   0.947   1.424
 6774TIP3    H241882   2.180   0.834   1.324
 6775TIP3   OH241883   6.476   2.203   7.295
 6775TIP3    H141884   6.434   2.289   7.304
 6775TIP3    H241885   6.465   2.162   7.380
 6776TIP3   OH241886   5.810   3.886   7.856
 6776TIP3    H141887   5.891   3.885   7.805
 6776TIP3    H241888   5.838   3.868   7.946
 6777TIP3   OH241889   6.590   6.111   6.984
 6777TIP3    H141890   6.499   6.130   7.007
 6777TIP3    H241891   6.619   6.048   7.049
 6778TIP3   OH241892   4.781   1.623   7.874
 6778TIP3    H141893   4.771   1.571   7.794
 6778TIP3    H241894   4.855   1.583   7.919
 6779TIP3   OH241895   4.348   0.620   8.450
 6779TIP3    H141896   4.399   0.540   8.461
 6779TIP3    H241897   4.371   0.674   8.526
 6780TIP3   OH241898   2.620   6.649   7.332
 6780TIP3    H141899   2.544   6.700   7.358
 6780TIP3    H241900   2.597   6.559   7.353
 6781TIP3   OH241901   6.549   0.368   1.562
 6781TIP3    H141902   6.526   0.293   1.508
 6781TIP3    H241903   6.635   0.347   1.598
 6782TIP3   OH241904   3.285   0.843   2.069
 6782TIP3    H141905   3.324   0.847   2.156
 6782TIP3    H241906   3.235   0.925   2.061
 6783TIP3   OH241907   2.206   5.333   1.402
 6783TIP3    H141908   2.195   5.267   1.334
 6783TIP3    H241909   2.256   5.288   1.470
 6784TIP3   OH241910   2.701   3.085   0.012
 6784TIP3    H141911   2.627   3.136   0.048
 6784TIP3    H241912   2.755   3.150   8.701
 6785TIP3   OH241913   0.456   6.070   7.158
 6785TIP3    H141914   0.503   6.054   7.076
 6785TIP3    H241915   0.401   6.146   7.139
 6786TIP3   OH241916   2.744   6.412   6.616
 6786TIP3    H141917   2.790   6.361   6.550
 6786TIP3    H241918   2.790   6.496   6.618
 6787TIP3   OH241919   5.300   3.340   7.276
 6787TIP3    H141920   5.303   3.264   7.335
 6787TIP3    H241921   5.234   3.397   7.314
 6788TIP3   OH241922   3.790   4.919   8.254
 6788TIP3    H141923   3.799   4.823   8.251
 6788TIP3    H241924   3.859   4.946   8.315
 6789TIP3   OH241925   3.849   0.932   7.430
 6789TIP3    H141926   3.764   0.975   7.424
 6789TIP3    H241927   3.830   0.839   7.421
 6790TIP3   OH241928   5.713   0.199   0.529
 6790TIP3    H141929   5.689   0.157   0.446
 6790TIP3    H241930   5.808   0.194   0.531
 6791TIP3   OH241931   5.076   5.866   0.925
 6791TIP3    H141932   5.086   5.853   1.020
 6791TIP3    H241933   5.156   5.829   0.887
 6792TIP3   OH241934   2.889   1.636   1.503
 6792TIP3    H141935   2.854   1.697   1.568
 6792TIP3    H241936   2.893   1.687   1.422
 6793TIP3   OH241937   5.381   6.008   7.131
 6793TIP3    H141938   5.328   5.931   7.154
 6793TIP3    H241939   5.324   6.083   7.149
 6794TIP3   OH241940   0.343   2.902   6.506
 6794TIP3    H141941   0.435   2.922   6.521
 6794TIP3    H241942   0.318   2.957   6.431
 6795TIP3   OH241943   0.564   2.009   1.781
 6795TIP3    H141944   0.547   1.954   1.857
 6795TIP3    H241945   0.574   2.097   1.816
 6796TIP3   OH241946   1.296   1.750   8.330
 6796TIP3    H141947   1.260   1.802   8.259
 6796TIP3    H241948   1.263   1.791   8.410
 6797TIP3   OH241949   2.948   6.514   0.427
 6797TIP3    H141950   2.943   6.421   0.450
 6797TIP3    H241951   3.042   6.533   0.426
 6798TIP3   OH241952   4.537   3.770   1.992
 6798TIP3    H141953   4.523   3.676   1.976
 6798TIP3    H241954   4.588   3.799   1.916
 6799TIP3   OH241955   3.288   3.507   7.741
 6799TIP3    H141956   3.211   3.460   7.709
 6799TIP3    H241957   3.261   3.598   7.745
 6800TIP3   OH241958   5.068   3.985   8.545
 6800TIP3    H141959   5.042   3.983   8.636
 6800TIP3    H241960   5.100   4.074   8.530
 6801TIP3   OH241961   1.859   6.586   7.564
 6801TIP3    H141962   1.845   6.634   7.482
 6801TIP3    H241963   1.921   6.517   7.541
 6802TIP3   OH241964   3.357   2.227   7.329
 6802TIP3    H141965   3.290   2.295   7.334
 6802TIP3    H241966   3.430   2.268   7.284
 6803TIP3   OH241967   5.529   3.472   7.173
 6803TIP3    H141968   5.450   3.436   7.214
 6803TIP3    H241969   5.521   3.448   7.081
 6804TIP3   OH241970   0.993   0.940   1.321
 6804TIP3    H141971   0.917   0.885   1.338
 6804TIP3    H241972   0.966   0.998   1.250
 6805TIP3   OH241973   3.885   0.613   7.953
 6805TIP3    H141974   3.896   0.598   8.047
 6805TIP3    H241975   3.968   0.586   7.915
 6806TIP3   OH241976   5.454   6.504   0.779
 6806TIP3    H141977   5.394   6.478   0.849
 6806TIP3    H241978   5.440   6.598   0.769
 6807TIP3   OH241979   1.577   5.856   1.399
 6807TIP3    H141980   1.505   5.882   1.342
 6807TIP3    H241981   1.655   5.860   1.343
 6808TIP3   OH241982   3.524   3.398   6.943
 6808TIP3    H141983   3.452   3.442   6.988
 6808TIP3    H241984   3.561   3.465   6.886
 6809TIP3   OH241985   4.076   3.299   0.386
 6809TIP3    H141986   4.149   3.296   0.447
 6809TIP3    H241987   4.002   3.331   0.438
 6810TIP3   OH241988   1.415   1.806   6.247
 6810TIP3    H141989   1.473   1.821   6.322
 6810TIP3    H241990   1.344   1.752   6.282
 6811TIP3   OH241991   4.423   6.350   7.861
 6811TIP3    H141992   4.385   6.305   7.937
 6811TIP3    H241993   4.386   6.439   7.865
 6812TIP3   OH241994   3.544   2.629   8.284
 6812TIP3    H141995   3.461   2.616   8.331
 6812TIP3    H241996   3.558   2.546   8.238
 6813TIP3   OH241997   4.855   5.738   7.604
 6813TIP3    H141998   4.895   5.691   7.677
 6813TIP3    H241999   4.913   5.813   7.589
 6814TIP3   OH242000   5.993   0.511   1.294
 6814TIP3    H142001   5.900   0.523   1.312
 6814TIP3    H242002   6.035   0.590   1.327
 6815TIP3   OH242003   0.618   3.125   2.329
 6815TIP3    H142004   0.682   3.069   2.373
 6815TIP3    H242005   0.539   3.117   2.382
 6816TIP3   OH242006   2.161   0.944   2.377
 6816TIP3    H142007   2.092   0.915   2.437
 6816TIP3    H242008   2.155   0.884   2.303
 6817TIP3   OH242009   1.133   3.886   8.298
 6817TIP3    H142010   1.196   3.913   8.231
 6817TIP3    H242011   1.174   3.811   8.340
 6818TIP3   OH242012   5.603   1.926   2.306
 6818TIP3    H142013   5.608   1.831   2.321
 6818TIP3    H242014   5.624   1.937   2.213
 6819TIP3   OH242015   5.124   5.825   8.648
 6819TIP3    H142016   5.091   5.755   8.592
 6819TIP3    H242017   5.203   5.855   8.603
 6820TIP3   OH242018   5.473   1.651   0.634
 6820TIP3    H142019   5.568   1.658   0.641
 6820TIP3    H242020   5.455   1.557   0.641
 6821TIP3   OH242021   0.334   0.119   8.719
 6821TIP3    H142022   0.356   0.210   0.004
 6821TIP3    H242023   0.404   0.068   0.024
 6822TIP3   OH242024   1.165   4.696   0.059
 6822TIP3    H142025   1.172   4.729   0.148
 6822TIP3    H242026   1.178   4.601   0.067
 6823TIP3   OH242027   1.822   3.170   0.100
 6823TIP3    H142028   1.816   3.256   0.142
 6823TIP3    H242029   1.808   3.188   0.007
 6824TIP3   OH242030   6.409   6.797   6.932
 6824TIP3    H142031   6.502   6.802   6.911
 6824TIP3    H242032   6.367   6.773   6.849
 6825TIP3   OH242033   5.264   6.498   0.993
 6825TIP3    H142034   5.222   6.425   1.039
 6825TIP3    H242035   5.198   6.567   0.992
 6826TIP3   OH242036   5.224   5.325   0.077
 6826TIP3    H142037   5.273   5.407   0.080
 6826TIP3    H242038   5.202   5.312   8.719
 6827TIP3   OH242039   2.940   2.249   7.745
 6827TIP3    H142040   2.853   2.280   7.769
 6827TIP3    H242041   2.925   2.187   7.674
 6828TIP3   OH242042   5.980   5.367   1.644
 6828TIP3    H142043   6.047   5.304   1.672
 6828TIP3    H242044   6.022   5.453   1.655
 6829TIP3   OH242045   3.987   0.064   0.524
 6829TIP3    H142046   3.913   0.008   0.500
 6829TIP3    H242047   4.030   0.018   0.596
 6830TIP3   OH242048   4.376   3.533   6.601
 6830TIP3    H142049   4.434   3.605   6.627
 6830TIP3    H242050   4.322   3.569   6.531
 6831TIP3   OH242051   0.073   2.402   6.937
 6831TIP3    H142052   0.123   2.457   6.997
 6831TIP3    H242053   0.068   2.453   6.856
 6832TIP3   OH242054   2.882   1.326   8.064
 6832TIP3    H142055   2.921   1.284   7.988
 6832TIP3    H242056   2.788   1.322   8.049
 6833TIP3   OH242057   3.723   4.361   6.631
 6833TIP3    H142058   3.712   4.374   6.725
 6833TIP3    H242059   3.754   4.446   6.598
 6834TIP3   OH242060   0.913   1.609   1.455
 6834TIP3    H142061   0.953   1.625   1.540
 6834TIP3    H242062   0.830   1.565   1.475
 6835TIP3   OH242063   1.456   3.080   6.663
 6835TIP3    H142064   1.418   3.005   6.709
 6835TIP3    H242065   1.465   3.051   6.572
 6836TIP3   OH242066   6.358   5.421   0.695
 6836TIP3    H142067   6.364   5.356   0.624
 6836TIP3    H242068   6.432   5.402   0.752
 6837TIP3   OH242069   5.913   6.192   1.301
 6837TIP3    H142070   5.835   6.162   1.348
 6837TIP3    H242071   5.983   6.134   1.332
 6838TIP3   OH242072   2.859   4.688   0.084
 6838TIP3    H142073   2.937   4.634   0.072
 6838TIP3    H242074   2.789   4.638   0.042
 6839TIP3   OH242075   1.356   6.652   7.359
 6839TIP3    H142076   1.450   6.668   7.366
 6839TIP3    H242077   1.332   6.691   7.275
 6840TIP3   OH242078   2.548   3.640   8.421
 6840TIP3    H142079   2.574   3.626   8.512
 6840TIP3    H242080   2.625   3.679   8.379
 6841TIP3   OH242081   5.012   1.384   6.791
 6841TIP3    H142082   4.954   1.435   6.847
 6841TIP3    H242083   5.058   1.449   6.738
 6842TIP3   OH242084   4.152   6.498   1.239
 6842TIP3    H142085   4.099   6.494   1.318
 6842TIP3    H242086   4.211   6.423   1.245
 6843TIP3   OH242087   2.546   3.057   1.449
 6843TIP3    H142088   2.565   3.117   1.521
 6843TIP3    H242089   2.630   3.014   1.430
 6844TIP3   OH242090   4.708   6.455   2.237
 6844TIP3    H142091   4.711   6.398   2.314
 6844TIP3    H242092   4.782   6.514   2.249
 6845TIP3   OH242093   4.723   4.647   7.143
 6845TIP3    H142094   4.709   4.576   7.080
 6845TIP3    H242095   4.756   4.720   7.090
 6846TIP3   OH242096   3.342   2.538   8.456
 6846TIP3    H142097   3.301   2.585   8.528
 6846TIP3    H242098   3.270   2.509   8.401
 6847TIP3   OH242099   1.503   1.437   1.378
 6847TIP3    H142100   1.463   1.414   1.462
 6847TIP3    H242101   1.537   1.526   1.392
 6848TIP3   OH242102   6.190   3.425   7.306
 6848TIP3    H142103   6.162   3.498   7.362
 6848TIP3    H242104   6.188   3.349   7.364
 6849TIP3   OH242105   3.141   6.127   8.705
 6849TIP3    H142106   3.166   6.048   0.019
 6849TIP3    H242107   3.205   6.193   8.732
 6850TIP3   OH242108   5.644   4.261   6.793
 6850TIP3    H142109   5.659   4.248   6.699
 6850TIP3    H242110   5.549   4.248   6.803
 6851TIP3   OH242111   2.843   4.011   7.170
 6851TIP3    H142112   2.748   4.024   7.176
 6851TIP3    H242113   2.876   4.036   7.256
 6852TIP3   OH242114   0.090   1.218   0.527
 6852TIP3    H142115   0.018   1.186   0.473
 6852TIP3    H242116   0.077   1.177   0.612
 6853TIP3   OH242117   4.418   0.002   7.157
 6853TIP3    H142118   4.362   6.772   7.124
 6853TIP3    H242119   4.454   0.043   7.078
 6854TIP3   OH242120   1.860   3.692   1.994
 6854TIP3    H142121   1.898   3.717   1.910
 6854TIP3    H242122   1.840   3.774   2.037
 6855TIP3   OH242123   2.879   5.660   1.519
 6855TIP3    H142124   2.969   5.632   1.501
 6855TIP3    H242125   2.825   5.585   1.497
 6856TIP3   OH242126   2.350   4.143   0.276
 6856TIP3    H142127   2.334   4.089   0.198
 6856TIP3    H242128   2.263   4.168   0.306
 6857TIP3   OH242129   4.951   2.632   8.285
 6857TIP3    H142130   4.896   2.556   8.267
 6857TIP3    H242131   4.922   2.699   8.223
 6858TIP3   OH242132   4.183   2.000   1.622
 6858TIP3    H142133   4.129   1.927   1.651
 6858TIP3    H242134   4.269   1.982   1.659
 6859TIP3   OH242135   6.414   4.731   8.137
 6859TIP3    H142136   6.402   4.685   8.220
 6859TIP3    H242137   6.329   4.727   8.094
 6860TIP3   OH242138   0.049   4.298   1.410
 6860TIP3    H142139   0.069   4.361   1.479
 6860TIP3    H242140   0.119   4.233   1.416
 6861TIP3   OH242141   3.646   4.601   0.326
 6861TIP3    H142142   3.635   4.694   0.342
 6861TIP3    H242143   3.633   4.560   0.411
 6862TIP3   OH242144   0.539   6.111   0.260
 6862TIP3    H142145   0.502   6.191   0.223
 6862TIP3    H242146   0.468   6.047   0.255
 6863TIP3   OH242147   6.828   4.238   1.048
 6863TIP3    H142148   6.778   4.289   1.112
 6863TIP3    H242149   0.051   4.300   1.012
 6864TIP3   OH242150   6.025   3.912   8.576
 6864TIP3    H142151   6.018   3.841   8.640
 6864TIP3    H242152   6.086   3.878   8.510
 6865TIP3   OH242153   5.618   6.016   1.377
 6865TIP3    H142154   5.549   5.955   1.401
 6865TIP3    H242155   5.573   6.088   1.333
 6866TIP3   OH242156   4.626   0.480   7.173
 6866TIP3    H142157   4.705   0.482   7.119
 6866TIP3    H242158   4.559   0.522   7.119
 6867TIP3   OH242159   6.353   3.487   8.055
 6867TIP3    H142160   6.353   3.410   7.998
 6867TIP3    H242161   6.295   3.464   8.127
 6868TIP3   OH242162   1.933   1.479   7.123
 6868TIP3    H142163   1.978   1.431   7.053
 6868TIP3    H242164   1.995   1.480   7.196
 6869TIP3   OH242165   6.774   6.373   8.592
 6869TIP3    H142166   6.730   6.292   8.567
 6869TIP3    H242167   6.828   6.349   8.666
 6870TIP3   OH242168   3.118   6.370   8.272
 6870TIP3    H142169   3.145   6.443   8.328
 6870TIP3    H242170   3.146   6.291   8.319
 6871TIP3   OH242171   3.869   1.029   0.912
 6871TIP3    H142172   3.787   1.011   0.957
 6871TIP3    H242173   3.936   1.015   0.979
 6872TIP3   OH242174   3.324   6.555   7.276
 6872TIP3    H142175   3.321   6.576   7.182
 6872TIP3    H242176   3.270   6.622   7.317
 6873TIP3   OH242177   1.547   3.563   0.988
 6873TIP3    H142178   1.480   3.514   1.036
 6873TIP3    H242179   1.627   3.512   0.998
 6874TIP3   OH242180   4.249   5.282   0.154
 6874TIP3    H142181   4.275   5.340   0.225
 6874TIP3    H242182   4.326   5.227   0.139
 6875TIP3   OH242183   5.927   4.990   1.506
 6875TIP3    H142184   5.975   4.980   1.424
 6875TIP3    H242185   5.989   5.033   1.565
 6876TIP3   OH242186   5.442   1.522   2.103
 6876TIP3    H142187   5.421   1.615   2.095
 6876TIP3    H242188   5.430   1.502   2.195
 6877TIP3   OH242189   3.524   1.012   1.792
 6877TIP3    H142190   3.570   1.073   1.849
 6877TIP3    H242191   3.572   0.930   1.800
 6878TIP3   OH242192   5.257   4.193   1.048
 6878TIP3    H142193   5.164   4.210   1.059
 6878TIP3    H242194   5.290   4.267   0.997
 6879TIP3   OH242195   5.351   5.037   1.765
 6879TIP3    H142196   5.378   4.956   1.809
 6879TIP3    H242197   5.264   5.056   1.802
 6880TIP3   OH242198   5.530   6.020   0.736
 6880TIP3    H142199   5.461   6.086   0.749
 6880TIP3    H242200   5.493   5.939   0.771
 6881TIP3   OH242201   3.014   4.131   8.344
 6881TIP3    H142202   2.926   4.139   8.379
 6881TIP3    H242203   3.003   4.136   8.249
 6882TIP3   OH242204   5.011   4.616   7.081
 6882TIP3    H142205   5.076   4.552   7.110
 6882TIP3    H242206   4.937   4.564   7.050
 6883TIP3   OH242207   5.420   4.657   0.819
 6883TIP3    H142208   5.424   4.741   0.775
 6883TIP3    H242209   5.512   4.630   0.829
 6884TIP3   OH242210   5.020   5.575   1.489
 6884TIP3    H142211   5.061   5.661   1.501
 6884TIP3    H242212   4.927   5.595   1.479
 6885TIP3   OH242213   0.628   1.612   0.123
 6885TIP3    H142214   0.677   1.692   0.102
 6885TIP3    H242215   0.690   1.558   0.172
 6886TIP3   OH242216   6.542   1.718   8.294
 6886TIP3    H142217   6.631   1.685   8.284
 6886TIP3    H242218   6.521   1.757   8.209
 6887TIP3   OH242219   3.779   4.048   0.702
 6887TIP3    H142220   3.835   3.977   0.733
 6887TIP3    H242221   3.728   4.009   0.630
 6888TIP3   OH242222   6.512   0.879   2.598
 6888TIP3    H142223   6.542   0.807   2.654
 6888TIP3    H242224   6.451   0.838   2.537
 6889TIP3   OH242225   0.385   2.422   8.613
 6889TIP3    H142226   0.388   2.440   8.519
 6889TIP3    H242227   0.439   2.490   8.652
 6890TIP3   OH242228   3.143   4.976   8.616
 6890TIP3    H142229   3.175   4.972   8.707
 6890TIP3    H242230   3.180   5.058   8.582
 6891TIP3   OH242231   3.597   5.946   7.609
 6891TIP3    H142232   3.566   5.934   7.699
 6891TIP3    H242233   3.520   5.975   7.561
 6892TIP3   OH242234   0.282   0.003   8.468
 6892TIP3    H142235   0.311   0.033   8.554
 6892TIP3    H242236   0.228   0.075   8.434
 6893TIP3   OH242237   1.537   5.940   8.295
 6893TIP3    H142238   1.464   5.926   8.235
 6893TIP3    H242239   1.515   5.888   8.373
 6894TIP3   OH242240   3.054   6.703   6.384
 6894TIP3    H142241   3.058   6.792   6.420
 6894TIP3    H242242   2.999   6.711   6.306
 6895TIP3   OH242243   5.090   4.031   7.735
 6895TIP3    H142244   5.055   3.942   7.741
 6895TIP3    H242245   5.064   4.062   7.648
 6896TIP3   OH242246   5.469   1.631   8.713
 6896TIP3    H142247   5.524   1.556   0.001
 6896TIP3    H242248   5.423   1.651   0.060
 6897TIP3   OH242249   2.111   3.470   0.152
 6897TIP3    H142250   2.017   3.485   0.163
 6897TIP3    H242251   2.129   3.391   0.202
 6898TIP3   OH242252   4.049   4.417   8.175
 6898TIP3    H142253   4.077   4.468   8.099
 6898TIP3    H242254   4.121   4.355   8.190
 6899TIP3   OH242255   5.396   0.526   2.620
 6899TIP3    H142256   5.326   0.475   2.580
 6899TIP3    H242257   5.370   0.535   2.712
 6900TIP3   OH242258   3.318   5.468   1.145
 6900TIP3    H142259   3.412   5.454   1.150
 6900TIP3    H242260   3.286   5.397   1.089
 6901TIP3   OH242261   4.042   4.091   0.025
 6901TIP3    H142262   4.102   4.027   8.721
 6901TIP3    H242263   3.957   4.071   8.720
 6902TIP3   OH242264   4.104   1.844   2.179
 6902TIP3    H142265   4.034   1.806   2.126
 6902TIP3    H242266   4.184   1.830   2.128
 6903TIP3   OH242267   0.407   0.092   7.744
 6903TIP3    H142268   0.344   0.046   7.687
 6903TIP3    H242269   0.473   0.026   7.764
 6904TIP3   OH242270   5.034   6.438   7.939
 6904TIP3    H142271   4.990   6.356   7.963
 6904TIP3    H242272   5.018   6.446   7.845
 6905TIP3   OH242273   2.859   6.267   6.871
 6905TIP3    H142274   2.920   6.340   6.859
 6905TIP3    H242275   2.793   6.280   6.803
 6906TIP3   OH242276   5.463   2.504   0.999
 6906TIP3    H142277   5.516   2.575   1.034
 6906TIP3    H242278   5.524   2.432   0.988
 6907TIP3   OH242279   5.980   0.672   7.441
 6907TIP3    H142280   5.944   0.634   7.521
 6907TIP3    H242281   5.943   0.760   7.438
 6908TIP3   OH242282   4.019   5.022   0.538
 6908TIP3    H142283   3.954   5.089   0.559
 6908TIP3    H242284   4.041   5.038   0.446
 6909TIP3   OH242285   1.342   5.285   2.343
 6909TIP3    H142286   1.337   5.376   2.314
 6909TIP3    H242287   1.251   5.259   2.358
 6910TIP3   OH242288   6.253   3.461   2.337
 6910TIP3    H142289   6.286   3.371   2.339
 6910TIP3    H242290   6.224   3.473   2.247
 6911TIP3   OH242291   0.873   1.030   7.416
 6911TIP3    H142292   0.842   1.035   7.506
 6911TIP3    H242293   0.846   0.943   7.386
 6912TIP3   OH242294   6.174   0.906   7.529
 6912TIP3    H142295   6.189   0.845   7.601
 6912TIP3    H242296   6.100   0.960   7.557
 6913TIP3   OH242297   5.386   2.472   0.362
 6913TIP3    H142298   5.430   2.516   0.290
 6913TIP3    H242299   5.453   2.416   0.401
 6914TIP3   OH242300   1.480   5.371   7.223
 6914TIP3    H142301   1.427   5.431   7.276
 6914TIP3    H242302   1.417   5.305   7.192
 6915TIP3   OH242303   2.182   4.886   8.119
 6915TIP3    H142304   2.237   4.849   8.188
 6915TIP3    H242305   2.221   4.971   8.100
 6916TIP3   OH242306   0.844   5.619   1.548
 6916TIP3    H142307   0.914   5.555   1.558
 6916TIP3    H242308   0.768   5.568   1.520
 6917TIP3   OH242309   2.903   4.987   8.439
 6917TIP3    H142310   2.988   4.995   8.482
 6917TIP3    H242311   2.900   4.896   8.409
 6918TIP3   OH242312   5.327   1.510   7.468
 6918TIP3    H142313   5.267   1.440   7.442
 6918TIP3    H242314   5.294   1.588   7.424
 6919TIP3   OH242315   0.163   1.244   7.466
 6919TIP3    H142316   0.087   1.297   7.491
 6919TIP3    H242317   0.205   1.294   7.396
 6920TIP3   OH242318   3.646   6.025   0.481
 6920TIP3    H142319   3.606   6.099   0.436
 6920TIP3    H242320   3.615   6.032   0.572
 6921TIP3   OH242321   2.194   1.452   0.747
 6921TIP3    H142322   2.263   1.402   0.702
 6921TIP3    H242323   2.126   1.465   0.681
 6922TIP3   OH242324   0.910   4.346   0.822
 6922TIP3    H142325   0.888   4.353   0.914
 6922TIP3    H242326   1.002   4.373   0.817
 6923TIP3   OH242327   4.837   2.723   7.960
 6923TIP3    H142328   4.834   2.767   8.045
 6923TIP3    H242329   4.752   2.743   7.920
 6924TIP3   OH242330   3.758   6.650   8.241
 6924TIP3    H142331   3.704   6.710   8.293
 6924TIP3    H242332   3.761   6.569   8.293
 6925TIP3   OH242333   2.956   3.369   0.121
 6925TIP3    H142334   3.027   3.432   0.136
 6925TIP3    H242335   2.944   3.326   0.206
 6926TIP3   OH242336   6.002   4.215   6.798
 6926TIP3    H142337   6.021   4.277   6.728
 6926TIP3    H242338   6.067   4.146   6.789
 6927TIP3   OH242339   6.099   6.614   0.331
 6927TIP3    H142340   6.194   6.612   0.321
 6927TIP3    H242341   6.066   6.597   0.243
 6928TIP3   OH242342   5.126   3.075   7.512
 6928TIP3    H142343   5.069   3.055   7.587
 6928TIP3    H242344   5.065   3.088   7.439
 6929TIP3   OH242345   3.195   5.901   7.956
 6929TIP3    H142346   3.178   5.851   7.876
 6929TIP3    H242347   3.221   5.835   8.020
 6930TIP3   OH242348   3.692   5.851   1.575
 6930TIP3    H142349   3.688   5.783   1.643
 6930TIP3    H242350   3.776   5.894   1.589
 6931TIP3   OH242351   0.053   1.739   8.294
 6931TIP3    H142352   0.074   1.777   8.380
 6931TIP3    H242353   0.080   1.806   8.231
 6932TIP3   OH242354   0.266   3.391   0.215
 6932TIP3    H142355   0.187   3.443   0.234
 6932TIP3    H242356   0.248   3.306   0.253
 6933TIP3   OH242357   6.165   4.995   7.891
 6933TIP3    H142358   6.216   5.016   7.968
 6933TIP3    H242359   6.195   4.908   7.865
 6934TIP3   OH242360   6.759   6.343   6.986
 6934TIP3    H142361   6.682   6.288   6.974
 6934TIP3    H242362   6.749   6.414   6.921
 6935TIP3   OH242363   6.527   3.967   1.762
 6935TIP3    H142364   6.451   3.931   1.807
 6935TIP3    H242365   6.594   3.900   1.771
 6936TIP3   OH242366   1.687   5.321   8.078
 6936TIP3    H142367   1.765   5.355   8.122
 6936TIP3    H242368   1.621   5.389   8.090
 6937TIP3   OH242369   2.457   3.186   1.220
 6937TIP3    H142370   2.503   3.132   1.285
 6937TIP3    H242371   2.441   3.127   1.146
 6938TIP3   OH242372   1.200   2.254   8.704
 6938TIP3    H142373   1.236   2.305   0.042
 6938TIP3    H242374   1.264   2.264   8.633
 6939TIP3   OH242375   2.371   4.995   8.456
 6939TIP3    H142376   2.450   5.013   8.507
 6939TIP3    H242377   2.314   4.948   8.517
 6940TIP3   OH242378   5.111   5.368   7.336
 6940TIP3    H142379   5.192   5.361   7.286
 6940TIP3    H242380   5.042   5.347   7.274
 6941TIP3   OH242381   1.248   3.942   2.031
 6941TIP3    H142382   1.210   3.859   2.060
 6941TIP3    H242383   1.330   3.918   1.989
 6942TIP3   OH242384   3.169   0.462   1.205
 6942TIP3    H142385   3.152   0.530   1.139
 6942TIP3    H242386   3.151   0.380   1.159
 6943TIP3   OH242387   3.936   0.017   8.318
 6943TIP3    H142388   3.934   0.007   8.413
 6943TIP3    H242389   3.883   6.785   8.285
 6944TIP3   OH242390   1.825   6.383   0.750
 6944TIP3    H142391   1.898   6.344   0.703
 6944TIP3    H242392   1.863   6.419   0.830
 6945TIP3   OH242393   5.244   3.829   7.251
 6945TIP3    H142394   5.296   3.813   7.173
 6945TIP3    H242395   5.162   3.867   7.219
 6946TIP3   OH242396   5.342   3.686   6.988
 6946TIP3    H142397   5.353   3.613   6.928
 6946TIP3    H242398   5.248   3.685   7.009
 6947TIP3   OH242399   4.168   4.112   0.269
 6947TIP3    H142400   4.129   4.123   0.182
 6947TIP3    H242401   4.100   4.139   0.330
 6948TIP3   OH242402   4.652   6.109   7.264
 6948TIP3    H142403   4.571   6.159   7.278
 6948TIP3    H242404   4.714   6.172   7.228
 6949TIP3   OH242405   3.813   3.359   0.774
 6949TIP3    H142406   3.731   3.327   0.812
 6949TIP3    H242407   3.825   3.307   0.695
 6950TIP3   OH242408   5.310   0.801   2.013
 6950TIP3    H142409   5.321   0.713   1.977
 6950TIP3    H242410   5.246   0.791   2.083
 6951TIP3   OH242411   4.994   2.497   6.454
 6951TIP3    H142412   4.915   2.550   6.461
 6951TIP3    H242413   4.993   2.441   6.532
 6952TIP3   OH242414   6.554   2.502   1.417
 6952TIP3    H142415   6.561   2.549   1.501
 6952TIP3    H242416   6.554   2.571   1.351
 6953TIP3   OH242417   5.098   2.635   7.980
 6953TIP3    H142418   5.027   2.690   7.947
 6953TIP3    H242419   5.127   2.677   8.060
 6954TIP3   OH242420   0.589   1.662   7.344
 6954TIP3    H142421   0.605   1.736   7.403
 6954TIP3    H242422   0.635   1.686   7.263
 6955TIP3   OH242423   3.265   5.949   0.829
 6955TIP3    H142424   3.285   6.003   0.906
 6955TIP3    H242425   3.195   5.891   0.859
 6956TIP3   OH242426   2.561   5.187   1.045
 6956TIP3    H142427   2.529   5.148   1.127
 6956TIP3    H242428   2.571   5.113   0.985
 6957TIP3   OH242429   3.410   2.018   0.734
 6957TIP3    H142430   3.377   2.050   0.818
 6957TIP3    H242431   3.373   2.079   0.670
 6958TIP3   OH242432   4.707   4.475   1.065
 6958TIP3    H142433   4.775   4.497   1.128
 6958TIP3    H242434   4.680   4.386   1.088
 6959TIP3   OH242435   3.954   5.658   0.509
 6959TIP3    H142436   3.872   5.691   0.472
 6959TIP3    H242437   4.001   5.736   0.538
 6960TIP3   OH242438   5.384   4.069   8.085
 6960TIP3    H142439   5.324   4.112   8.146
 6960TIP3    H242440   5.332   4.054   8.007
 6961TIP3   OH242441   5.421   1.393   0.675
 6961TIP3    H142442   5.364   1.351   0.740
 6961TIP3    H242443   5.424   1.331   0.602
 6962TIP3   OH242444   5.414   3.103   0.740
 6962TIP3    H142445   5.329   3.137   0.769
 6962TIP3    H242446   5.393   3.020   0.699
 6963TIP3   OH242447   1.149   3.014   0.419
 6963TIP3    H142448   1.079   2.952   0.398
 6963TIP3    H242449   1.119   3.097   0.382
 6964TIP3   OH242450   4.123   0.357   0.190
 6964TIP3    H142451   4.185   0.420   0.225
 6964TIP3    H242452   4.163   0.325   0.109
 6965TIP3   OH242453   4.993   6.241   8.355
 6965TIP3    H142454   4.937   6.301   8.307
 6965TIP3    H242455   5.062   6.296   8.392
 6966TIP3   OH242456   2.168   2.992   1.254
 6966TIP3    H142457   2.109   3.038   1.314
 6966TIP3    H242458   2.135   3.013   1.167
 6967TIP3   OH242459   0.055   5.386   8.700
 6967TIP3    H142460   0.081   5.413   0.054
 6967TIP3    H242461   0.137   5.356   8.660
 6968TIP3   OH242462   1.195   0.087   7.729
 6968TIP3    H142463   1.172   0.054   7.642
 6968TIP3    H242464   1.284   0.055   7.744
 6969TIP3   OH242465   1.686   4.173   7.475
 6969TIP3    H142466   1.705   4.103   7.538
 6969TIP3    H242467   1.623   4.229   7.519
 6970TIP3   OH242468   4.744   5.497   7.968
 6970TIP3    H142469   4.817   5.516   7.909
 6970TIP3    H242470   4.678   5.457   7.911
 6971TIP3   OH242471   2.954   3.141   0.800
 6971TIP3    H142472   3.006   3.118   0.877
 6971TIP3    H242473   3.011   3.198   0.749
 6972TIP3   OH242474   5.177   2.863   0.931
 6972TIP3    H142475   5.204   2.773   0.917
 6972TIP3    H242476   5.114   2.859   1.003
 6973TIP3   OH242477   6.128   4.431   6.143
 6973TIP3    H142478   6.161   4.484   6.216
 6973TIP3    H242479   6.044   4.471   6.121
 6974TIP3   OH242480   5.223   4.669   0.465
 6974TIP3    H142481   5.264   4.630   0.387
 6974TIP3    H242482   5.256   4.759   0.467
 6975TIP3   OH242483   3.217   6.344   7.645
 6975TIP3    H142484   3.309   6.321   7.655
 6975TIP3    H242485   3.215   6.440   7.655
 6976TIP3   OH242486   1.217   0.316   0.870
 6976TIP3    H142487   1.136   0.269   0.890
 6976TIP3    H242488   1.188   0.402   0.839
 6977TIP3   OH242489   2.896   2.722   7.383
 6977TIP3    H142490   2.804   2.731   7.408
 6977TIP3    H242491   2.907   2.783   7.309
 6978TIP3   OH242492   2.195   5.193   0.947
 6978TIP3    H142493   2.277   5.218   0.903
 6978TIP3    H242494   2.139   5.270   0.941
 6979TIP3   OH242495   0.775   4.210   0.348
 6979TIP3    H142496   0.831   4.197   0.424
 6979TIP3    H242497   0.792   4.135   0.291
 6980TIP3   OH242498   3.886   2.074   1.538
 6980TIP3    H142499   3.897   2.165   1.565
 6980TIP3    H242500   3.973   2.035   1.546
 6981TIP3   OH242501   6.664   3.066   0.393
 6981TIP3    H142502   6.646   3.159   0.404
 6981TIP3    H242503   6.647   3.028   0.479
 6982TIP3   OH242504   2.316   0.410   2.602
 6982TIP3    H142505   2.267   0.349   2.658
 6982TIP3    H242506   2.270   0.494   2.612
 6983TIP3   OH242507   2.947   0.733   8.201
 6983TIP3    H142508   3.042   0.726   8.203
 6983TIP3    H242509   2.930   0.812   8.148
 6984TIP3   OH242510   4.848   1.979   6.567
 6984TIP3    H142511   4.914   2.008   6.504
 6984TIP3    H242512   4.788   2.054   6.575
 6985TIP3   OH242513   3.177   6.767   8.551
 6985TIP3    H142514   3.124   6.763   8.631
 6985TIP3    H242515   3.127   6.824   8.493
 6986TIP3   OH242516   5.556   1.552   7.171
 6986TIP3    H142517   5.525   1.620   7.231
 6986TIP3    H242518   5.537   1.586   7.084
 6987TIP3   OH242519   2.968   2.314   0.972
 6987TIP3    H142520   3.019   2.304   0.892
 6987TIP3    H242521   2.879   2.334   0.941
 6988TIP3   OH242522   4.158   5.414   6.809
 6988TIP3    H142523   4.162   5.365   6.727
 6988TIP3    H242524   4.068   5.447   6.813
 6989TIP3   OH242525   4.957   4.721   2.264
 6989TIP3    H142526   4.961   4.626   2.270
 6989TIP3    H242527   5.000   4.742   2.181
 6990TIP3   OH242528   0.491   4.749   0.963
 6990TIP3    H142529   0.574   4.791   0.987
 6990TIP3    H242530   0.425   4.794   1.015
 6991TIP3   OH242531   1.824   0.981   0.718
 6991TIP3    H142532   1.902   0.933   0.690
 6991TIP3    H242533   1.797   0.936   0.798
 6992TIP3   OH242534   0.440   3.207   8.340
 6992TIP3    H142535   0.521   3.162   8.364
 6992TIP3    H242536   0.421   3.175   8.251
 6993TIP3   OH242537   2.914   3.725   7.101
 6993TIP3    H142538   2.871   3.798   7.145
 6993TIP3    H242539   2.991   3.708   7.155
 6994TIP3   OH242540   0.268   3.295   1.036
 6994TIP3    H142541   0.287   3.242   1.113
 6994TIP3    H242542   0.214   3.367   1.069
 6995TIP3   OH242543   4.313   0.796   8.225
 6995TIP3    H142544   4.323   0.823   8.316
 6995TIP3    H242545   4.279   0.706   8.230
 6996TIP3   OH242546   6.349   3.210   2.342
 6996TIP3    H142547   6.423   3.240   2.395
 6996TIP3    H242548   6.356   3.115   2.342
 6997TIP3   OH242549   5.205   2.085   7.977
 6997TIP3    H142550   5.204   1.994   8.006
 6997TIP3    H242551   5.295   2.099   7.946
 6998TIP3   OH242552   0.262   4.345   8.169
 6998TIP3    H142553   0.212   4.372   8.092
 6998TIP3    H242554   0.311   4.268   8.140
 6999TIP3   OH242555   0.815   6.045   7.927
 6999TIP3    H142556   0.908   6.069   7.930
 6999TIP3    H242557   0.789   6.061   7.837
 7000TIP3   OH242558   1.841   3.967   7.856
 7000TIP3    H142559   1.853   4.027   7.930
 7000TIP3    H242560   1.929   3.958   7.818
 7001TIP3   OH242561   4.385   1.956   8.352
 7001TIP3    H142562   4.405   1.935   8.444
 7001TIP3    H242563   4.470   1.956   8.309
 7002TIP3   OH242564   3.558   4.838   0.424
 7002TIP3    H142565   3.613   4.824   0.501
 7002TIP3    H242566   3.525   4.927   0.433
 7003TIP3   OH242567   0.120   5.796   1.212
 7003TIP3    H142568   0.068   5.722   1.246
 7003TIP3    H242569   0.130   5.854   1.287
 7004TIP3   OH242570   6.060   3.154   8.419
 7004TIP3    H142571   6.079   3.158   8.513
 7004TIP3    H242572   5.972   3.191   8.411
 7005TIP3   OH242573   5.913   3.861   0.722
 7005TIP3    H142574   5.870   3.837   0.804
 7005TIP3    H242575   5.969   3.935   0.745
 7006TIP3   OH242576   1.702   0.745   7.865
 7006TIP3    H142577   1.622   0.777   7.822
 7006TIP3    H242578   1.708   0.654   7.838
 7007TIP3   OH242579   4.440   6.766   2.317
 7007TIP3    H142580   4.505   6.769   2.248
 7007TIP3    H242581   4.435   0.014   2.351
 7008TIP3   OH242582   4.956   0.713   8.012
 7008TIP3    H142583   5.043   0.697   7.976
 7008TIP3    H242584   4.966   0.698   8.106
 7009TIP3   OH242585   2.408   1.080   7.563
 7009TIP3    H142586   2.376   1.114   7.646
 7009TIP3    H242587   2.330   1.078   7.507
 7010TIP3   OH242588   1.880   3.522   2.190
 7010TIP3    H142589   1.868   3.593   2.127
 7010TIP3    H242590   1.972   3.499   2.184
 7011TIP3   OH242591   6.533   5.945   8.694
 7011TIP3    H142592   6.463   6.008   8.674
 7011TIP3    H242593   6.526   5.929   0.054
 7012TIP3   OH242594   4.490   6.278   7.377
 7012TIP3    H142595   4.500   6.373   7.369
 7012TIP3    H242596   4.463   6.265   7.468
 7013TIP3   OH242597   4.987   4.941   7.771
 7013TIP3    H142598   4.905   4.922   7.817
 7013TIP3    H242599   5.046   4.972   7.839
 7014TIP3   OH242600   6.578   0.392   8.627
 7014TIP3    H142601   6.505   0.429   8.576
 7014TIP3    H242602   6.610   0.465   8.679
 7015TIP3   OH242603   4.496   6.508   2.478
 7015TIP3    H142604   4.466   6.568   2.546
 7015TIP3    H242605   4.476   6.553   2.396
 7016TIP3   OH242606   1.806   4.690   0.204
 7016TIP3    H142607   1.711   4.678   0.206
 7016TIP3    H242608   1.819   4.774   0.161
 7017TIP3   OH242609   1.371   3.452   7.032
 7017TIP3    H142610   1.422   3.422   7.107
 7017TIP3    H242611   1.411   3.409   6.957
 7018TIP3   OH242612   0.694   5.268   7.958
 7018TIP3    H142613   0.681   5.262   7.863
 7018TIP3    H242614   0.773   5.321   7.968
 7019TIP3   OH242615   3.196   3.363   0.847
 7019TIP3    H142616   3.274   3.376   0.900
 7019TIP3    H242617   3.125   3.400   0.900
 7020TIP3   OH242618   4.912   5.808   0.090
 7020TIP3    H142619   4.983   5.823   0.027
 7020TIP3    H242620   4.867   5.730   0.057
 7021TIP3   OH242621   1.811   0.314   0.835
 7021TIP3    H142622   1.766   0.371   0.896
 7021TIP3    H242623   1.770   0.228   0.846
 7022TIP3   OH242624   0.737   3.914   8.032
 7022TIP3    H142625   0.675   3.900   8.103
 7022TIP3    H242626   0.820   3.934   8.076
 7023TIP3   OH242627   3.848   5.825   7.620
 7023TIP3    H142628   3.755   5.847   7.623
 7023TIP3    H242629   3.877   5.830   7.711
 7024TIP3   OH242630   2.739   5.417   1.382
 7024TIP3    H142631   2.679   5.353   1.421
 7024TIP3    H242632   2.765   5.378   1.299
 7025TIP3   OH242633   6.217   1.536   1.961
 7025TIP3    H142634   6.175   1.508   2.042
 7025TIP3    H242635   6.310   1.538   1.981
 7026TIP3   OH242636   6.736   1.109   0.035
 7026TIP3    H142637   6.735   1.134   0.127
 7026TIP3    H242638   6.690   1.180   8.724
 7027TIP3   OH242639   2.425   1.784   1.823
 7027TIP3    H142640   2.394   1.874   1.831
 7027TIP3    H242641   2.345   1.733   1.810
 7028TIP3   OH242642   0.267   1.362   6.945
 7028TIP3    H142643   0.319   1.353   6.865
 7028TIP3    H242644   0.315   1.426   6.998
 7029TIP3   OH242645   3.130   2.858   0.477
 7029TIP3    H142646   3.186   2.873   0.554
 7029TIP3    H242647   3.102   2.767   0.485
 7030TIP3   OH242648   1.587   4.294   7.845
 7030TIP3    H142649   1.682   4.290   7.836
 7030TIP3    H242650   1.557   4.338   7.765
 7031TIP3   OH242651   4.166   1.611   0.426
 7031TIP3    H142652   4.237   1.666   0.394
 7031TIP3    H242653   4.165   1.625   0.521
 7032TIP3   OH242654   5.524   0.673   0.707
 7032TIP3    H142655   5.586   0.622   0.759
 7032TIP3    H242656   5.548   0.655   0.616
 7033TIP3   OH242657   6.179   1.440   2.234
 7033TIP3    H142658   6.238   1.365   2.238
 7033TIP3    H242659   6.104   1.414   2.288
 7034TIP3   OH242660   0.721   4.947   1.014
 7034TIP3    H142661   0.817   4.954   1.020
 7034TIP3    H242662   0.701   4.971   0.924
 7035TIP3   OH242663   1.266   3.925   1.356
 7035TIP3    H142664   1.221   3.841   1.367
 7035TIP3    H242665   1.195   3.989   1.352
 7036TIP3   OH242666   3.802   3.911   8.275
 7036TIP3    H142667   3.805   3.985   8.336
 7036TIP3    H242668   3.749   3.845   8.319
 7037TIP3   OH242669   1.169   1.944   7.557
 7037TIP3    H142670   1.155   2.013   7.492
 7037TIP3    H242671   1.160   1.989   7.642
 7038TIP3   OH242672   5.196   3.216   1.645
 7038TIP3    H142673   5.216   3.310   1.644
 7038TIP3    H242674   5.278   3.174   1.672
 7039TIP3   OH242675   5.105   1.216   8.299
 7039TIP3    H142676   5.085   1.233   8.207
 7039TIP3    H242677   5.066   1.290   8.346
 7040TIP3   OH242678   5.396   2.116   7.625
 7040TIP3    H142679   5.327   2.108   7.558
 7040TIP3    H242680   5.374   2.196   7.672
 7041TIP3   OH242681   1.726   2.320   7.820
 7041TIP3    H142682   1.725   2.313   7.915
 7041TIP3    H242683   1.809   2.362   7.799
 7042TIP3   OH242684   5.532   3.243   8.599
 7042TIP3    H142685   5.562   3.307   8.663
 7042TIP3    H242686   5.476   3.293   8.539
 7043TIP3   OH242687   6.736   4.476   7.099
 7043TIP3    H142688   6.831   4.465   7.095
 7043TIP3    H242689   6.706   4.462   7.009
 7044TIP3   OH242690   4.922   6.640   8.364
 7044TIP3    H142691   5.017   6.635   8.361
 7044TIP3    H242692   4.895   6.654   8.273
 7045TIP3   OH242693   1.153   5.436   0.031
 7045TIP3    H142694   1.161   5.386   0.112
 7045TIP3    H242695   1.240   5.435   8.726
 7046TIP3   OH242696   6.371   6.616   0.267
 7046TIP3    H142697   6.419   6.570   0.335
 7046TIP3    H242698   6.439   6.653   0.210
 7047TIP3   OH242699   0.497   3.057   6.782
 7047TIP3    H142700   0.531   3.016   6.702
 7047TIP3    H242701   0.501   3.151   6.764
 7048TIP3   OH242702   6.238   6.469   1.806
 7048TIP3    H142703   6.282   6.486   1.889
 7048TIP3    H242704   6.309   6.440   1.747
 7049TIP3   OH242705   5.164   2.758   8.663
 7049TIP3    H142706   5.082   2.788   8.623
 7049TIP3    H242707   5.231   2.817   8.629
 7050TIP3   OH242708   5.958   0.246   1.381
 7050TIP3    H142709   5.883   0.264   1.438
 7050TIP3    H242710   5.978   0.331   1.340
 7051TIP3   OH242711   1.781   6.066   8.358
 7051TIP3    H142712   1.699   6.020   8.341
 7051TIP3    H242713   1.807   6.100   8.272
 7052TIP3   OH242714   2.169   2.427   7.154
 7052TIP3    H142715   2.191   2.513   7.191
 7052TIP3    H242716   2.162   2.442   7.060
 7053TIP3   OH242717   5.870   3.142   1.456
 7053TIP3    H142718   5.852   3.067   1.400
 7053TIP3    H242719   5.957   3.172   1.429
 7054TIP3   OH242720   3.639   5.141   6.866
 7054TIP3    H142721   3.544   5.140   6.864
 7054TIP3    H242722   3.665   5.080   6.798
 7055TIP3   OH242723   5.952   1.785   7.316
 7055TIP3    H142724   5.902   1.710   7.285
 7055TIP3    H242725   5.902   1.818   7.391
 7056TIP3   OH242726   1.646   4.878   0.431
 7056TIP3    H142727   1.634   4.888   0.525
 7056TIP3    H242728   1.715   4.813   0.422
 7057TIP3   OH242729   0.723   4.647   8.185
 7057TIP3    H142730   0.782   4.690   8.122
 7057TIP3    H242731   0.781   4.597   8.242
 7058TIP3   OH242732   6.230   3.782   7.176
 7058TIP3    H142733   6.246   3.750   7.266
 7058TIP3    H242734   6.160   3.726   7.143
 7059TIP3   OH242735   3.995   5.095   6.736
 7059TIP3    H142736   3.933   5.031   6.700
 7059TIP3    H242737   4.047   5.123   6.661
 7060TIP3   OH242738   5.723   2.176   6.538
 7060TIP3    H142739   5.743   2.259   6.581
 7060TIP3    H242740   5.663   2.198   6.467
 7061TIP3   OH242741   2.495   4.365   0.393
 7061TIP3    H142742   2.422   4.406   0.439
 7061TIP3    H242743   2.454   4.297   0.339
 7062TIP3   OH242744   1.891   3.840   0.644
 7062TIP3    H142745   1.814   3.804   0.689
 7062TIP3    H242746   1.917   3.770   0.584
 7063TIP3   OH242747   4.295   1.938   2.709
 7063TIP3    H142748   4.268   1.969   2.622
 7063TIP3    H242749   4.336   2.015   2.750
 7064TIP3   OH242750   0.368   0.564   1.732
 7064TIP3    H142751   0.410   0.508   1.666
 7064TIP3    H242752   0.345   0.505   1.803
 7065TIP3   OH242753   5.221   2.135   1.850
 7065TIP3    H142754   5.301   2.133   1.902
 7065TIP3    H242755   5.214   2.225   1.819
 7066TIP3   OH242756   4.399   2.752   7.415
 7066TIP3    H142757   4.417   2.665   7.379
 7066TIP3    H242758   4.459   2.810   7.368
 7067TIP3   OH242759   3.804   6.271   2.010
 7067TIP3    H142760   3.753   6.220   2.074
 7067TIP3    H242761   3.747   6.275   1.933
 7068TIP3   OH242762   3.045   4.812   2.270
 7068TIP3    H142763   3.038   4.881   2.336
 7068TIP3    H242764   3.131   4.774   2.284
 7069TIP3   OH242765   0.175   3.789   7.011
 7069TIP3    H142766   0.163   3.854   7.080
 7069TIP3    H242767   0.207   3.839   6.936
 7070TIP3   OH242768   1.982   4.905   7.937
 7070TIP3    H142769   2.038   4.887   7.861
 7070TIP3    H242770   2.042   4.907   8.011
 7071TIP3   OH242771   3.275   6.527   2.193
 7071TIP3    H142772   3.344   6.511   2.128
 7071TIP3    H242773   3.265   6.623   2.194
 7072LIG      O42774   2.520   5.880   3.147
 7072LIG     C142775   2.488   6.013   3.147
 7072LIG     C242776   2.434   6.060   3.279
 7072LIG     C342777   2.618   6.078   3.102
 7072LIG     H142778   2.408   6.030   3.071
 7072LIG     H242779   2.394   6.162   3.261
 7072LIG     H342780   2.515   6.057   3.355
 7072LIG     H442781   2.363   5.985   3.319
 7072LIG     H542782   2.705   6.039   3.158
 7072LIG     H642783   2.609   6.188   3.120
 7072LIG     H742784   2.636   6.051   2.996
 7072LIG     H842785   2.548   5.862   3.057
   6.84075   6.84075   8.73438
