Title t= 8400.00000 step= 4200000
42785
    1SAPS     N    1   4.599   3.522   6.482
    1SAPS   HN1    2   4.588   3.577   6.395
    1SAPS   HN2    3   4.592   3.586   6.564
    1SAPS   HN3    4   4.696   3.485   6.480
    1SAPS   C12    5   4.483   3.425   6.505
    1SAPS  H12A    6   4.481   3.355   6.422
    1SAPS   C13    7   4.494   3.344   6.639
    1SAPS  O13A    8   4.600   3.354   6.711
    1SAPS  O13B    9   4.401   3.262   6.665
    1SAPS   C11   10   4.361   3.513   6.515
    1SAPS  H11A   11   4.361   3.592   6.592
    1SAPS  H11B   12   4.283   3.434   6.528
    1SAPS     P   13   4.204   3.615   6.328
    1SAPS   O13   14   4.109   3.516   6.372
    1SAPS   O14   15   4.187   3.758   6.370
    1SAPS   O12   16   4.338   3.567   6.381
    1SAPS   O11   17   4.208   3.611   6.171
    1SAPS    C1   18   4.263   3.496   6.103
    1SAPS    HA   19   4.364   3.468   6.140
    1SAPS    HB   20   4.189   3.414   6.114
    1SAPS    C2   21   4.270   3.525   5.945
    1SAPS    HS   22   4.373   3.505   5.908
    1SAPS   O21   23   4.246   3.659   5.916
    1SAPS   C21   24   4.344   3.744   5.939
    1SAPS   O22   25   4.457   3.719   5.971
    1SAPS   C22   26   4.296   3.894   5.902
    1SAPS   H2R   27   4.187   3.899   5.879
    1SAPS   H2S   28   4.310   3.956   5.992
    1SAPS    C3   29   4.176   3.429   5.869
    1SAPS    HX   30   4.075   3.423   5.915
    1SAPS    HY   31   4.214   3.325   5.877
    1SAPS   O31   32   4.174   3.467   5.731
    1SAPS   C31   33   4.070   3.543   5.696
    1SAPS   O32   34   3.988   3.602   5.769
    1SAPS   C32   35   4.070   3.548   5.539
    1SAPS   H2X   36   4.058   3.446   5.497
    1SAPS   H2Y   37   4.162   3.602   5.509
    1SAPS   C23   38   4.381   3.948   5.781
    1SAPS   H3R   39   4.481   3.973   5.822
    1SAPS   H3S   40   4.345   4.047   5.746
    1SAPS   C24   41   4.389   3.858   5.651
    1SAPS   H4R   42   4.400   3.751   5.682
    1SAPS   H4S   43   4.481   3.885   5.595
    1SAPS   C25   44   4.257   3.873   5.585
    1SAPS   H5R   45   4.172   3.828   5.638
    1SAPS   C26   46   4.235   3.948   5.479
    1SAPS   H6R   47   4.136   3.948   5.432
    1SAPS   C27   48   4.347   4.023   5.404
    1SAPS   H7R   49   4.445   4.025   5.457
    1SAPS   H7S   50   4.320   4.130   5.392
    1SAPS   C28   51   4.372   3.948   5.277
    1SAPS   H8R   52   4.432   3.856   5.277
    1SAPS   C29   53   4.306   3.972   5.163
    1SAPS   H9R   54   4.335   3.908   5.079
    1SAPS  C210   55   4.201   4.074   5.122
    1SAPS  H10R   56   4.243   4.143   5.046
    1SAPS  H10S   57   4.162   4.129   5.210
    1SAPS  C211   58   4.089   3.991   5.065
    1SAPS  H11R   59   4.089   3.883   5.085
    1SAPS  C212   60   4.012   4.040   4.963
    1SAPS  H12R   61   3.937   3.965   4.933
    1SAPS  C213   62   3.997   4.181   4.918
    1SAPS  H13R   63   4.088   4.242   4.936
    1SAPS  H13S   64   3.914   4.236   4.967
    1SAPS  C214   65   3.963   4.196   4.766
    1SAPS  H14R   66   3.860   4.223   4.737
    1SAPS  C215   67   4.053   4.175   4.669
    1SAPS  H15R   68   4.027   4.186   4.562
    1SAPS  C216   69   4.195   4.134   4.686
    1SAPS  H16R   70   4.225   4.135   4.793
    1SAPS  H16S   71   4.274   4.195   4.638
    1SAPS  C217   72   4.195   3.984   4.644
    1SAPS  H17R   73   4.201   3.974   4.534
    1SAPS  H17S   74   4.104   3.927   4.672
    1SAPS  C218   75   4.319   3.905   4.693
    1SAPS  H18R   76   4.328   3.805   4.647
    1SAPS  H18S   77   4.297   3.869   4.796
    1SAPS  C219   78   4.455   3.974   4.701
    1SAPS  H19R   79   4.462   4.034   4.794
    1SAPS  H19S   80   4.456   4.035   4.608
    1SAPS  C220   81   4.577   3.883   4.705
    1SAPS  H20R   82   4.567   3.803   4.628
    1SAPS  H20S   83   4.582   3.836   4.805
    1SAPS  H20T   84   4.675   3.933   4.685
    1SAPS   C33   85   3.936   3.607   5.478
    1SAPS   H3X   86   3.936   3.718   5.481
    1SAPS   H3Y   87   3.844   3.570   5.529
    1SAPS   C34   88   3.902   3.575   5.328
    1SAPS   H4X   89   3.801   3.615   5.304
    1SAPS   H4Y   90   3.901   3.466   5.306
    1SAPS   C35   91   4.003   3.645   5.243
    1SAPS   H5X   92   4.105   3.626   5.283
    1SAPS   H5Y   93   3.982   3.754   5.245
    1SAPS   C36   94   4.006   3.604   5.093
    1SAPS   H6X   95   4.022   3.496   5.073
    1SAPS   H6Y   96   4.069   3.672   5.031
    1SAPS   C37   97   3.879   3.644   5.017
    1SAPS   H7X   98   3.860   3.753   5.029
    1SAPS   H7Y   99   3.800   3.586   5.070
    1SAPS   C38  100   3.877   3.601   4.868
    1SAPS   H8X  101   3.775   3.575   4.833
    1SAPS   H8Y  102   3.941   3.512   4.845
    1SAPS   C39  103   3.920   3.722   4.775
    1SAPS   H9X  104   4.027   3.745   4.795
    1SAPS   H9Y  105   3.857   3.808   4.809
    1SAPS  C310  106   3.903   3.694   4.624
    1SAPS  H10X  107   3.817   3.624   4.620
    1SAPS  H10Y  108   3.989   3.651   4.570
    1SAPS  C311  109   3.864   3.825   4.555
    1SAPS  H11X  110   3.935   3.908   4.576
    1SAPS  H11Y  111   3.766   3.864   4.590
    1SAPS  C312  112   3.860   3.803   4.399
    1SAPS  H12X  113   3.935   3.731   4.360
    1SAPS  H12Y  114   3.862   3.896   4.337
    1SAPS  C313  115   3.719   3.745   4.364
    1SAPS  H13X  116   3.651   3.833   4.364
    1SAPS  H13Y  117   3.695   3.672   4.444
    1SAPS  C314  118   3.724   3.662   4.233
    1SAPS  H14X  119   3.821   3.608   4.241
    1SAPS  H14Y  120   3.737   3.730   4.146
    1SAPS  C315  121   3.599   3.569   4.220
    1SAPS  H15X  122   3.519   3.611   4.155
    1SAPS  H15Y  123   3.553   3.556   4.321
    1SAPS  C316  124   3.643   3.432   4.169
    1SAPS  H16X  125   3.704   3.380   4.246
    1SAPS  H16Y  126   3.696   3.450   4.073
    1SAPS  C317  127   3.520   3.339   4.147
    1SAPS  H17X  128   3.443   3.381   4.216
    1SAPS  H17Y  129   3.548   3.237   4.179
    1SAPS  C318  130   3.467   3.334   4.000
    1SAPS  H18X  131   3.549   3.335   3.926
    1SAPS  H18Y  132   3.391   3.416   3.996
    1SAPS  H18Z  133   3.399   3.247   3.987
    2SAPS     N  134   4.807   5.620   6.737
    2SAPS   HN1  135   4.794   5.618   6.634
    2SAPS   HN2  136   4.820   5.522   6.770
    2SAPS   HN3  137   4.717   5.657   6.775
    2SAPS   C12  138   4.924   5.709   6.774
    2SAPS  H12A  139   4.901   5.729   6.877
    2SAPS   C13  140   5.064   5.633   6.775
    2SAPS  O13A  141   5.073   5.509   6.751
    2SAPS  O13B  142   5.166   5.700   6.809
    2SAPS   C11  143   4.932   5.827   6.677
    2SAPS  H11A  144   4.962   5.793   6.575
    2SAPS  H11B  145   5.016   5.891   6.711
    2SAPS     P  146   4.773   6.022   6.733
    2SAPS   O13  147   4.631   6.055   6.725
    2SAPS   O14  148   4.838   6.014   6.866
    2SAPS   O12  149   4.805   5.887   6.653
    2SAPS   O11  150   4.857   6.123   6.650
    2SAPS    C1  151   4.782   6.217   6.569
    2SAPS    HA  152   4.695   6.267   6.616
    2SAPS    HB  153   4.849   6.302   6.544
    2SAPS    C2  154   4.762   6.163   6.429
    2SAPS    HS  155   4.687   6.081   6.426
    2SAPS   O21  156   4.886   6.115   6.372
    2SAPS   C21  157   4.881   6.027   6.276
    2SAPS   O22  158   4.787   5.963   6.240
    2SAPS   C22  159   5.024   5.991   6.216
    2SAPS   H2R  160   5.084   5.966   6.307
    2SAPS   H2S  161   5.019   5.907   6.144
    2SAPS    C3  162   4.704   6.271   6.330
    2SAPS    HX  163   4.794   6.321   6.290
    2SAPS    HY  164   4.645   6.348   6.383
    2SAPS   O31  165   4.639   6.214   6.211
    2SAPS   C31  166   4.510   6.183   6.219
    2SAPS   O32  167   4.450   6.160   6.322
    2SAPS   C32  168   4.451   6.177   6.075
    2SAPS   H2X  169   4.504   6.100   6.016
    2SAPS   H2Y  170   4.466   6.275   6.025
    2SAPS   C23  171   5.107   6.104   6.166
    2SAPS   H3R  172   5.215   6.078   6.165
    2SAPS   H3S  173   5.102   6.182   6.245
    2SAPS   C24  174   5.065   6.162   6.034
    2SAPS   H4R  175   5.122   6.257   6.023
    2SAPS   H4S  176   4.955   6.182   6.036
    2SAPS   C25  177   5.092   6.066   5.918
    2SAPS   H5R  178   5.189   6.017   5.936
    2SAPS   C26  179   5.019   6.041   5.805
    2SAPS   H6R  180   5.059   5.967   5.734
    2SAPS   C27  181   4.883   6.090   5.765
    2SAPS   H7R  182   4.862   6.061   5.660
    2SAPS   H7S  183   4.875   6.201   5.760
    2SAPS   C28  184   4.766   6.047   5.853
    2SAPS   H8R  185   4.764   6.083   5.957
    2SAPS   C29  186   4.667   5.962   5.803
    2SAPS   H9R  187   4.580   5.942   5.867
    2SAPS  C210  188   4.672   5.901   5.666
    2SAPS  H10R  189   4.778   5.879   5.639
    2SAPS  H10S  190   4.633   5.970   5.587
    2SAPS  C211  191   4.582   5.776   5.661
    2SAPS  H11R  192   4.539   5.743   5.757
    2SAPS  C212  193   4.555   5.697   5.555
    2SAPS  H12R  194   4.486   5.612   5.558
    2SAPS  C213  195   4.596   5.730   5.413
    2SAPS  H13R  196   4.660   5.656   5.360
    2SAPS  H13S  197   4.651   5.826   5.422
    2SAPS  C214  198   4.468   5.742   5.336
    2SAPS  H14R  199   4.374   5.742   5.393
    2SAPS  C215  200   4.468   5.766   5.205
    2SAPS  H15R  201   4.370   5.780   5.157
    2SAPS  C216  202   4.589   5.769   5.114
    2SAPS  H16R  203   4.620   5.664   5.095
    2SAPS  H16S  204   4.670   5.824   5.166
    2SAPS  C217  205   4.561   5.836   4.974
    2SAPS  H17R  206   4.655   5.862   4.921
    2SAPS  H17S  207   4.508   5.930   5.001
    2SAPS  C218  208   4.479   5.755   4.871
    2SAPS  H18R  209   4.396   5.708   4.927
    2SAPS  H18S  210   4.541   5.676   4.823
    2SAPS  C219  211   4.413   5.839   4.757
    2SAPS  H19R  212   4.492   5.905   4.716
    2SAPS  H19S  213   4.340   5.904   4.812
    2SAPS  C220  214   4.338   5.764   4.645
    2SAPS  H20R  215   4.411   5.722   4.572
    2SAPS  H20S  216   4.267   5.831   4.593
    2SAPS  H20T  217   4.272   5.689   4.693
    2SAPS   C33  218   4.297   6.149   6.076
    2SAPS   H3X  219   4.254   6.207   6.160
    2SAPS   H3Y  220   4.291   6.039   6.089
    2SAPS   C34  221   4.228   6.187   5.945
    2SAPS   H4X  222   4.237   6.297   5.935
    2SAPS   H4Y  223   4.123   6.159   5.965
    2SAPS   C35  224   4.279   6.097   5.829
    2SAPS   H5X  225   4.258   5.990   5.851
    2SAPS   H5Y  226   4.387   6.116   5.813
    2SAPS   C36  227   4.209   6.137   5.697
    2SAPS   H6X  228   4.212   6.248   5.690
    2SAPS   H6Y  229   4.106   6.101   5.720
    2SAPS   C37  230   4.286   6.079   5.574
    2SAPS   H7X  231   4.242   5.978   5.561
    2SAPS   H7Y  232   4.394   6.070   5.599
    2SAPS   C38  233   4.270   6.169   5.454
    2SAPS   H8X  234   4.296   6.272   5.487
    2SAPS   H8Y  235   4.162   6.178   5.427
    2SAPS   C39  236   4.365   6.139   5.341
    2SAPS   H9X  237   4.342   6.041   5.293
    2SAPS   H9Y  238   4.470   6.146   5.375
    2SAPS  C310  239   4.342   6.236   5.229
    2SAPS  H10X  240   4.353   6.341   5.263
    2SAPS  H10Y  241   4.237   6.231   5.195
    2SAPS  C311  242   4.444   6.209   5.113
    2SAPS  H11X  243   4.408   6.123   5.052
    2SAPS  H11Y  244   4.547   6.192   5.149
    2SAPS  C312  245   4.459   6.334   5.025
    2SAPS  H12X  246   4.509   6.415   5.082
    2SAPS  H12Y  247   4.358   6.374   5.001
    2SAPS  C313  248   4.543   6.317   4.904
    2SAPS  H13X  249   4.647   6.296   4.934
    2SAPS  H13Y  250   4.540   6.415   4.850
    2SAPS  C314  251   4.491   6.212   4.803
    2SAPS  H14X  252   4.398   6.250   4.755
    2SAPS  H14Y  253   4.462   6.117   4.853
    2SAPS  C315  254   4.594   6.167   4.696
    2SAPS  H15X  255   4.549   6.078   4.647
    2SAPS  H15Y  256   4.686   6.129   4.745
    2SAPS  C316  257   4.607   6.276   4.587
    2SAPS  H16X  258   4.640   6.373   4.629
    2SAPS  H16Y  259   4.502   6.290   4.552
    2SAPS  C317  260   4.694   6.234   4.467
    2SAPS  H17X  261   4.649   6.138   4.435
    2SAPS  H17Y  262   4.795   6.220   4.513
    2SAPS  C318  263   4.706   6.320   4.340
    2SAPS  H18X  264   4.768   6.276   4.259
    2SAPS  H18Y  265   4.735   6.425   4.362
    2SAPS  H18Z  266   4.604   6.329   4.297
    3SAPS     N  267   4.788   4.017   6.641
    3SAPS   HN1  268   4.877   3.970   6.665
    3SAPS   HN2  269   4.802   4.061   6.547
    3SAPS   HN3  270   4.749   4.087   6.708
    3SAPS   C12  271   4.684   3.909   6.624
    3SAPS  H12A  272   4.692   3.868   6.524
    3SAPS   C13  273   4.697   3.786   6.722
    3SAPS  O13A  274   4.806   3.770   6.783
    3SAPS  O13B  275   4.615   3.690   6.696
    3SAPS   C11  276   4.544   3.971   6.630
    3SAPS  H11A  277   4.512   3.977   6.736
    3SAPS  H11B  278   4.475   3.894   6.588
    3SAPS     P  279   4.418   4.186   6.546
    3SAPS   O13  280   4.303   4.112   6.485
    3SAPS   O14  281   4.391   4.258   6.671
    3SAPS   O12  282   4.545   4.100   6.568
    3SAPS   O11  283   4.475   4.288   6.442
    3SAPS    C1  284   4.597   4.359   6.475
    3SAPS    HA  285   4.593   4.420   6.568
    3SAPS    HB  286   4.676   4.280   6.481
    3SAPS    C2  287   4.648   4.458   6.364
    3SAPS    HS  288   4.576   4.542   6.358
    3SAPS   O21  289   4.659   4.393   6.241
    3SAPS   C21  290   4.614   4.456   6.132
    3SAPS   O22  291   4.535   4.546   6.127
    3SAPS   C22  292   4.691   4.391   6.016
    3SAPS   H2R  293   4.789   4.442   6.010
    3SAPS   H2S  294   4.695   4.282   6.037
    3SAPS    C3  295   4.787   4.503   6.405
    3SAPS    HX  296   4.845   4.410   6.419
    3SAPS    HY  297   4.783   4.544   6.508
    3SAPS   O31  298   4.852   4.592   6.312
    3SAPS   C31  299   4.815   4.719   6.325
    3SAPS   O32  300   4.726   4.755   6.407
    3SAPS   C32  301   4.888   4.799   6.226
    3SAPS   H2X  302   4.993   4.767   6.240
    3SAPS   H2Y  303   4.882   4.904   6.260
    3SAPS   C23  304   4.596   4.407   5.894
    3SAPS   H3R  305   4.562   4.509   5.865
    3SAPS   H3S  306   4.501   4.359   5.928
    3SAPS   C24  307   4.649   4.330   5.772
    3SAPS   H4R  308   4.714   4.241   5.791
    3SAPS   H4S  309   4.732   4.390   5.729
    3SAPS   C25  310   4.553   4.301   5.663
    3SAPS   H5R  311   4.469   4.241   5.701
    3SAPS   C26  312   4.558   4.338   5.534
    3SAPS   H6R  313   4.470   4.305   5.477
    3SAPS   C27  314   4.664   4.413   5.461
    3SAPS   H7R  315   4.745   4.443   5.531
    3SAPS   H7S  316   4.619   4.505   5.417
    3SAPS   C28  317   4.732   4.329   5.354
    3SAPS   H8R  318   4.818   4.274   5.394
    3SAPS   C29  319   4.698   4.306   5.223
    3SAPS   H9R  320   4.759   4.238   5.162
    3SAPS  C210  321   4.577   4.365   5.151
    3SAPS  H10R  322   4.599   4.468   5.116
    3SAPS  H10S  323   4.487   4.393   5.209
    3SAPS  C211  324   4.533   4.273   5.037
    3SAPS  H11R  325   4.468   4.193   5.076
    3SAPS  C212  326   4.557   4.284   4.906
    3SAPS  H12R  327   4.490   4.227   4.840
    3SAPS  C213  328   4.644   4.389   4.841
    3SAPS  H13R  329   4.709   4.444   4.912
    3SAPS  H13S  330   4.589   4.470   4.788
    3SAPS  C214  331   4.740   4.313   4.743
    3SAPS  H14R  332   4.698   4.228   4.687
    3SAPS  C215  333   4.874   4.332   4.730
    3SAPS  H15R  334   4.937   4.277   4.659
    3SAPS  C216  335   4.953   4.429   4.807
    3SAPS  H16R  336   4.967   4.396   4.912
    3SAPS  H16S  337   4.915   4.534   4.813
    3SAPS  C217  338   5.091   4.445   4.739
    3SAPS  H17R  339   5.085   4.482   4.635
    3SAPS  H17S  340   5.139   4.345   4.735
    3SAPS  C218  341   5.169   4.549   4.821
    3SAPS  H18R  342   5.174   4.503   4.922
    3SAPS  H18S  343   5.112   4.643   4.832
    3SAPS  C219  344   5.310   4.574   4.768
    3SAPS  H19R  345   5.353   4.472   4.768
    3SAPS  H19S  346   5.310   4.615   4.665
    3SAPS  C220  347   5.395   4.668   4.857
    3SAPS  H20R  348   5.383   4.632   4.961
    3SAPS  H20S  349   5.343   4.766   4.860
    3SAPS  H20T  350   5.500   4.676   4.822
    3SAPS   C33  351   4.849   4.762   6.074
    3SAPS   H3X  352   4.840   4.653   6.058
    3SAPS   H3Y  353   4.921   4.802   5.999
    3SAPS   C34  354   4.710   4.822   6.034
    3SAPS   H4X  355   4.723   4.932   6.034
    3SAPS   H4Y  356   4.632   4.792   6.107
    3SAPS   C35  357   4.673   4.785   5.891
    3SAPS   H5X  358   4.653   4.676   5.882
    3SAPS   H5Y  359   4.583   4.847   5.875
    3SAPS   C36  360   4.766   4.826   5.771
    3SAPS   H6X  361   4.865   4.779   5.756
    3SAPS   H6Y  362   4.794   4.933   5.768
    3SAPS   C37  363   4.694   4.787   5.639
    3SAPS   H7X  364   4.586   4.800   5.660
    3SAPS   H7Y  365   4.701   4.678   5.618
    3SAPS   C38  366   4.749   4.861   5.522
    3SAPS   H8X  367   4.858   4.837   5.526
    3SAPS   H8Y  368   4.743   4.970   5.546
    3SAPS   C39  369   4.685   4.835   5.385
    3SAPS   H9X  370   4.680   4.726   5.361
    3SAPS   H9Y  371   4.741   4.894   5.310
    3SAPS  C310  372   4.540   4.891   5.383
    3SAPS  H10X  373   4.558   5.000   5.393
    3SAPS  H10Y  374   4.469   4.856   5.461
    3SAPS  C311  375   4.480   4.875   5.241
    3SAPS  H11X  376   4.564   4.897   5.171
    3SAPS  H11Y  377   4.392   4.939   5.220
    3SAPS  C312  378   4.435   4.736   5.202
    3SAPS  H12X  379   4.340   4.720   5.257
    3SAPS  H12Y  380   4.509   4.654   5.212
    3SAPS  C313  381   4.387   4.739   5.051
    3SAPS  H13X  382   4.456   4.794   4.984
    3SAPS  H13Y  383   4.288   4.790   5.049
    3SAPS  C314  384   4.360   4.601   4.985
    3SAPS  H14X  385   4.322   4.520   5.051
    3SAPS  H14Y  386   4.449   4.550   4.944
    3SAPS  C315  387   4.267   4.611   4.861
    3SAPS  H15X  388   4.180   4.676   4.886
    3SAPS  H15Y  389   4.222   4.512   4.840
    3SAPS  C316  390   4.339   4.686   4.750
    3SAPS  H16X  391   4.446   4.686   4.781
    3SAPS  H16Y  392   4.289   4.785   4.743
    3SAPS  C317  393   4.344   4.619   4.611
    3SAPS  H17X  394   4.408   4.529   4.620
    3SAPS  H17Y  395   4.391   4.686   4.536
    3SAPS  C318  396   4.202   4.581   4.554
    3SAPS  H18X  397   4.187   4.672   4.492
    3SAPS  H18Y  398   4.128   4.581   4.637
    3SAPS  H18Z  399   4.209   4.481   4.506
    4SAPS     N  400   1.808   2.132   6.953
    4SAPS   HN1  401   1.768   2.145   6.857
    4SAPS   HN2  402   1.907   2.156   6.930
    4SAPS   HN3  403   1.793   2.034   6.983
    4SAPS   C12  404   1.740   2.232   7.050
    4SAPS  H12A  405   1.655   2.186   7.098
    4SAPS   C13  406   1.823   2.293   7.160
    4SAPS  O13A  407   1.949   2.272   7.155
    4SAPS  O13B  408   1.779   2.340   7.270
    4SAPS   C11  409   1.682   2.350   6.962
    4SAPS  H11A  410   1.764   2.397   6.904
    4SAPS  H11B  411   1.637   2.424   7.032
    4SAPS     P  412   1.439   2.313   6.861
    4SAPS   O13  413   1.380   2.183   6.817
    4SAPS   O14  414   1.389   2.388   6.981
    4SAPS   O12  415   1.592   2.297   6.865
    4SAPS   O11  416   1.430   2.401   6.729
    4SAPS    C1  417   1.545   2.430   6.647
    4SAPS    HA  418   1.608   2.511   6.690
    4SAPS    HB  419   1.605   2.337   6.637
    4SAPS    C2  420   1.511   2.459   6.497
    4SAPS    HS  421   1.605   2.455   6.438
    4SAPS   O21  422   1.451   2.591   6.487
    4SAPS   C21  423   1.482   2.661   6.382
    4SAPS   O22  424   1.548   2.618   6.287
    4SAPS   C22  425   1.399   2.794   6.392
    4SAPS   H2R  426   1.407   2.854   6.299
    4SAPS   H2S  427   1.296   2.753   6.393
    4SAPS    C3  428   1.421   2.349   6.442
    4SAPS    HX  429   1.319   2.369   6.482
    4SAPS    HY  430   1.456   2.258   6.497
    4SAPS   O31  431   1.417   2.339   6.298
    4SAPS   C31  432   1.517   2.277   6.240
    4SAPS   O32  433   1.619   2.235   6.289
    4SAPS   C32  434   1.502   2.278   6.081
    4SAPS   H2X  435   1.479   2.382   6.048
    4SAPS   H2Y  436   1.414   2.214   6.059
    4SAPS   C23  437   1.422   2.889   6.513
    4SAPS   H3R  438   1.425   2.839   6.612
    4SAPS   H3S  439   1.347   2.971   6.511
    4SAPS   C24  440   1.557   2.957   6.511
    4SAPS   H4R  441   1.550   3.033   6.591
    4SAPS   H4S  442   1.558   3.023   6.421
    4SAPS   C25  443   1.686   2.871   6.526
    4SAPS   H5R  444   1.700   2.806   6.614
    4SAPS   C26  445   1.788   2.862   6.435
    4SAPS   H6R  446   1.879   2.809   6.466
    4SAPS   C27  447   1.803   2.928   6.300
    4SAPS   H7R  448   1.868   3.016   6.318
    4SAPS   H7S  449   1.710   2.976   6.263
    4SAPS   C28  450   1.868   2.845   6.196
    4SAPS   H8R  451   1.975   2.830   6.216
    4SAPS   C29  452   1.819   2.808   6.081
    4SAPS   H9R  453   1.879   2.738   6.020
    4SAPS  C210  454   1.675   2.841   6.030
    4SAPS  H10R  455   1.675   2.913   5.946
    4SAPS  H10S  456   1.620   2.898   6.108
    4SAPS  C211  457   1.590   2.725   5.990
    4SAPS  H11R  458   1.577   2.637   6.055
    4SAPS  C212  459   1.512   2.727   5.876
    4SAPS  H12R  460   1.456   2.634   5.858
    4SAPS  C213  461   1.510   2.826   5.761
    4SAPS  H13R  462   1.461   2.774   5.676
    4SAPS  H13S  463   1.613   2.849   5.727
    4SAPS  C214  464   1.442   2.956   5.786
    4SAPS  H14R  465   1.468   3.019   5.872
    4SAPS  C215  466   1.373   3.022   5.692
    4SAPS  H15R  467   1.349   3.127   5.715
    4SAPS  C216  468   1.340   2.985   5.554
    4SAPS  H16R  469   1.233   2.955   5.546
    4SAPS  H16S  470   1.407   2.903   5.522
    4SAPS  C217  471   1.352   3.104   5.460
    4SAPS  H17R  472   1.455   3.147   5.466
    4SAPS  H17S  473   1.279   3.183   5.487
    4SAPS  C218  474   1.338   3.058   5.316
    4SAPS  H18R  475   1.236   3.014   5.314
    4SAPS  H18S  476   1.410   2.976   5.292
    4SAPS  C219  477   1.344   3.178   5.227
    4SAPS  H19R  478   1.347   3.133   5.125
    4SAPS  H19S  479   1.437   3.237   5.245
    4SAPS  C220  480   1.225   3.272   5.239
    4SAPS  H20R  481   1.221   3.323   5.337
    4SAPS  H20S  482   1.132   3.211   5.235
    4SAPS  H20T  483   1.216   3.346   5.156
    4SAPS   C33  484   1.630   2.229   6.003
    4SAPS   H3X  485   1.655   2.127   6.039
    4SAPS   H3Y  486   1.711   2.299   6.035
    4SAPS   C34  487   1.610   2.225   5.855
    4SAPS   H4X  488   1.560   2.129   5.828
    4SAPS   H4Y  489   1.712   2.204   5.816
    4SAPS   C35  490   1.552   2.350   5.790
    4SAPS   H5X  491   1.600   2.445   5.819
    4SAPS   H5Y  492   1.445   2.365   5.819
    4SAPS   C36  493   1.542   2.336   5.639
    4SAPS   H6X  494   1.467   2.257   5.618
    4SAPS   H6Y  495   1.638   2.301   5.595
    4SAPS   C37  496   1.500   2.469   5.567
    4SAPS   H7X  497   1.590   2.534   5.560
    4SAPS   H7Y  498   1.423   2.526   5.622
    4SAPS   C38  499   1.458   2.455   5.416
    4SAPS   H8X  500   1.548   2.422   5.360
    4SAPS   H8Y  501   1.438   2.559   5.385
    4SAPS   C39  502   1.340   2.360   5.389
    4SAPS   H9X  503   1.253   2.406   5.441
    4SAPS   H9Y  504   1.357   2.262   5.438
    4SAPS  C310  505   1.306   2.353   5.239
    4SAPS  H10X  506   1.333   2.451   5.194
    4SAPS  H10Y  507   1.198   2.336   5.220
    4SAPS  C311  508   1.391   2.246   5.167
    4SAPS  H11X  509   1.370   2.148   5.215
    4SAPS  H11Y  510   1.497   2.274   5.188
    4SAPS  C312  511   1.365   2.245   5.015
    4SAPS  H12X  512   1.266   2.199   4.994
    4SAPS  H12Y  513   1.434   2.174   4.965
    4SAPS  C313  514   1.400   2.378   4.947
    4SAPS  H13X  515   1.502   2.398   4.986
    4SAPS  H13Y  516   1.330   2.460   4.975
    4SAPS  C314  517   1.412   2.366   4.795
    4SAPS  H14X  518   1.309   2.355   4.754
    4SAPS  H14Y  519   1.470   2.272   4.781
    4SAPS  C315  520   1.497   2.482   4.734
    4SAPS  H15X  521   1.606   2.476   4.753
    4SAPS  H15Y  522   1.464   2.576   4.783
    4SAPS  C316  523   1.483   2.502   4.583
    4SAPS  H16X  524   1.379   2.535   4.561
    4SAPS  H16Y  525   1.480   2.399   4.543
    4SAPS  C317  526   1.593   2.594   4.521
    4SAPS  H17X  527   1.690   2.579   4.572
    4SAPS  H17Y  528   1.556   2.692   4.558
    4SAPS  C318  529   1.617   2.601   4.367
    4SAPS  H18X  530   1.663   2.510   4.324
    4SAPS  H18Y  531   1.686   2.683   4.337
    4SAPS  H18Z  532   1.523   2.626   4.315
    5SAPS     N  533   5.229   3.998   7.045
    5SAPS   HN1  534   5.169   3.914   7.032
    5SAPS   HN2  535   5.319   3.982   6.996
    5SAPS   HN3  536   5.259   4.021   7.142
    5SAPS   C12  537   5.152   4.110   6.986
    5SAPS  H12A  538   5.133   4.075   6.886
    5SAPS   C13  539   5.005   4.126   7.039
    5SAPS  O13A  540   4.947   4.048   7.118
    5SAPS  O13B  541   4.928   4.198   6.972
    5SAPS   C11  542   5.232   4.252   6.984
    5SAPS  H11A  543   5.258   4.261   7.091
    5SAPS  H11B  544   5.163   4.328   6.942
    5SAPS     P  545   5.391   4.351   6.801
    5SAPS   O13  546   5.389   4.478   6.864
    5SAPS   O14  547   5.516   4.301   6.739
    5SAPS   O12  548   5.354   4.246   6.915
    5SAPS   O11  549   5.275   4.341   6.700
    5SAPS    C1  550   5.237   4.240   6.610
    5SAPS    HA  551   5.268   4.140   6.649
    5SAPS    HB  552   5.126   4.242   6.602
    5SAPS    C2  553   5.282   4.258   6.467
    5SAPS    HS  554   5.387   4.223   6.456
    5SAPS   O21  555   5.261   4.390   6.424
    5SAPS   C21  556   5.361   4.441   6.351
    5SAPS   O22  557   5.475   4.403   6.356
    5SAPS   C22  558   5.309   4.578   6.285
    5SAPS   H2R  559   5.200   4.597   6.284
    5SAPS   H2S  560   5.345   4.659   6.353
    5SAPS    C3  561   5.194   4.180   6.371
    5SAPS    HX  562   5.095   4.230   6.364
    5SAPS    HY  563   5.184   4.071   6.390
    5SAPS   O31  564   5.250   4.182   6.237
    5SAPS   C31  565   5.191   4.101   6.148
    5SAPS   O32  566   5.097   4.031   6.172
    5SAPS   C32  567   5.274   4.108   6.018
    5SAPS   H2X  568   5.330   4.015   5.994
    5SAPS   H2Y  569   5.347   4.191   6.035
    5SAPS   C23  570   5.356   4.599   6.140
    5SAPS   H3R  571   5.467   4.601   6.143
    5SAPS   H3S  572   5.321   4.701   6.113
    5SAPS   C24  573   5.300   4.504   6.037
    5SAPS   H4R  574   5.303   4.405   6.087
    5SAPS   H4S  575   5.374   4.504   5.954
    5SAPS   C25  576   5.162   4.535   5.985
    5SAPS   H5R  577   5.090   4.532   6.068
    5SAPS   C26  578   5.122   4.556   5.862
    5SAPS   H6R  579   5.014   4.562   5.845
    5SAPS   C27  580   5.199   4.559   5.731
    5SAPS   H7R  581   5.174   4.463   5.680
    5SAPS   H7S  582   5.310   4.564   5.743
    5SAPS   C28  583   5.149   4.670   5.640
    5SAPS   H8R  584   5.130   4.767   5.687
    5SAPS   C29  585   5.113   4.664   5.508
    5SAPS   H9R  586   5.079   4.755   5.457
    5SAPS  C210  587   5.118   4.540   5.428
    5SAPS  H10R  588   5.029   4.480   5.457
    5SAPS  H10S  589   5.211   4.482   5.449
    5SAPS  C211  590   5.128   4.576   5.284
    5SAPS  H11R  591   5.030   4.554   5.240
    5SAPS  C212  592   5.236   4.615   5.216
    5SAPS  H12R  593   5.231   4.628   5.106
    5SAPS  C213  594   5.372   4.653   5.272
    5SAPS  H13R  595   5.442   4.581   5.225
    5SAPS  H13S  596   5.375   4.635   5.382
    5SAPS  C214  597   5.415   4.796   5.246
    5SAPS  H14R  598   5.373   4.848   5.159
    5SAPS  C215  599   5.480   4.877   5.324
    5SAPS  H15R  600   5.507   4.975   5.281
    5SAPS  C216  601   5.545   4.850   5.456
    5SAPS  H16R  602   5.640   4.906   5.468
    5SAPS  H16S  603   5.568   4.742   5.469
    5SAPS  C217  604   5.457   4.906   5.570
    5SAPS  H17R  605   5.369   4.841   5.589
    5SAPS  H17S  606   5.413   5.004   5.540
    5SAPS  C218  607   5.531   4.940   5.701
    5SAPS  H18R  608   5.479   5.017   5.762
    5SAPS  H18S  609   5.628   4.984   5.669
    5SAPS  C219  610   5.567   4.825   5.796
    5SAPS  H19R  611   5.635   4.753   5.745
    5SAPS  H19S  612   5.477   4.765   5.821
    5SAPS  C220  613   5.625   4.876   5.931
    5SAPS  H20R  614   5.563   4.964   5.960
    5SAPS  H20S  615   5.733   4.903   5.931
    5SAPS  H20T  616   5.614   4.800   6.011
    5SAPS   C33  617   5.184   4.145   5.898
    5SAPS   H3X  618   5.131   4.238   5.930
    5SAPS   H3Y  619   5.111   4.062   5.893
    5SAPS   C34  620   5.254   4.156   5.760
    5SAPS   H4X  621   5.314   4.065   5.739
    5SAPS   H4Y  622   5.315   4.249   5.753
    5SAPS   C35  623   5.158   4.145   5.634
    5SAPS   H5X  624   5.089   4.227   5.662
    5SAPS   H5Y  625   5.098   4.053   5.614
    5SAPS   C36  626   5.241   4.184   5.512
    5SAPS   H6X  627   5.331   4.122   5.496
    5SAPS   H6Y  628   5.271   4.290   5.521
    5SAPS   C37  629   5.168   4.170   5.379
    5SAPS   H7X  630   5.081   4.235   5.405
    5SAPS   H7Y  631   5.131   4.065   5.370
    5SAPS   C38  632   5.257   4.234   5.263
    5SAPS   H8X  633   5.351   4.174   5.268
    5SAPS   H8Y  634   5.278   4.339   5.294
    5SAPS   C39  635   5.193   4.250   5.120
    5SAPS   H9X  636   5.252   4.312   5.049
    5SAPS   H9Y  637   5.096   4.304   5.119
    5SAPS  C310  638   5.158   4.112   5.051
    5SAPS  H10X  639   5.078   4.067   5.114
    5SAPS  H10Y  640   5.246   4.046   5.065
    5SAPS  C311  641   5.115   4.126   4.906
    5SAPS  H11X  642   5.198   4.170   4.848
    5SAPS  H11Y  643   5.021   4.185   4.899
    5SAPS  C312  644   5.080   3.989   4.843
    5SAPS  H12X  645   4.995   3.942   4.897
    5SAPS  H12Y  646   5.157   3.913   4.867
    5SAPS  C313  647   5.035   3.990   4.693
    5SAPS  H13X  648   5.100   4.052   4.626
    5SAPS  H13Y  649   4.932   4.023   4.668
    5SAPS  C314  650   5.058   3.842   4.634
    5SAPS  H14X  651   5.156   3.803   4.669
    5SAPS  H14Y  652   5.077   3.856   4.526
    5SAPS  C315  653   4.941   3.753   4.668
    5SAPS  H15X  654   4.846   3.797   4.632
    5SAPS  H15Y  655   4.930   3.736   4.777
    5SAPS  C316  656   4.956   3.615   4.606
    5SAPS  H16X  657   5.066   3.616   4.587
    5SAPS  H16Y  658   4.898   3.613   4.511
    5SAPS  C317  659   4.906   3.500   4.699
    5SAPS  H17X  660   4.803   3.523   4.732
    5SAPS  H17Y  661   4.966   3.510   4.792
    5SAPS  C318  662   4.922   3.362   4.648
    5SAPS  H18X  663   4.944   3.304   4.740
    5SAPS  H18Y  664   5.009   3.360   4.579
    5SAPS  H18Z  665   4.831   3.325   4.598
    6SAPS     N  666   2.304   3.971   6.608
    6SAPS   HN1  667   2.232   3.954   6.682
    6SAPS   HN2  668   2.326   4.072   6.592
    6SAPS   HN3  669   2.272   3.928   6.520
    6SAPS   C12  670   2.439   3.914   6.649
    6SAPS  H12A  671   2.453   3.963   6.744
    6SAPS   C13  672   2.453   3.758   6.650
    6SAPS  O13A  673   2.366   3.683   6.600
    6SAPS  O13B  674   2.561   3.708   6.701
    6SAPS   C11  675   2.544   3.970   6.550
    6SAPS  H11A  676   2.524   3.927   6.449
    6SAPS  H11B  677   2.646   3.938   6.578
    6SAPS     P  678   2.631   4.214   6.476
    6SAPS   O13  679   2.564   4.316   6.396
    6SAPS   O14  680   2.735   4.247   6.577
    6SAPS   O12  681   2.526   4.118   6.540
    6SAPS   O11  682   2.710   4.130   6.376
    6SAPS    C1  683   2.654   4.099   6.244
    6SAPS    HA  684   2.636   3.989   6.236
    6SAPS    HB  685   2.561   4.155   6.223
    6SAPS    C2  686   2.755   4.132   6.133
    6SAPS    HS  687   2.849   4.087   6.171
    6SAPS   O21  688   2.770   4.276   6.124
    6SAPS   C21  689   2.881   4.323   6.181
    6SAPS   O22  690   2.968   4.265   6.232
    6SAPS   C22  691   2.877   4.478   6.160
    6SAPS   H2R  692   2.817   4.516   6.245
    6SAPS   H2S  693   2.983   4.509   6.165
    6SAPS    C3  694   2.715   4.067   6.003
    6SAPS    HX  695   2.608   4.092   5.982
    6SAPS    HY  696   2.715   3.956   6.013
    6SAPS   O31  697   2.787   4.124   5.897
    6SAPS   C31  698   2.884   4.053   5.843
    6SAPS   O32  699   2.919   3.935   5.872
    6SAPS   C32  700   2.955   4.146   5.744
    6SAPS   H2X  701   2.991   4.225   5.812
    6SAPS   H2Y  702   2.878   4.183   5.672
    6SAPS   C23  703   2.816   4.520   6.024
    6SAPS   H3R  704   2.714   4.477   6.022
    6SAPS   H3S  705   2.867   4.473   5.937
    6SAPS   C24  706   2.823   4.680   6.003
    6SAPS   H4R  707   2.816   4.707   5.895
    6SAPS   H4S  708   2.922   4.721   6.033
    6SAPS   C25  709   2.710   4.740   6.083
    6SAPS   H5R  710   2.713   4.713   6.189
    6SAPS   C26  711   2.596   4.798   6.034
    6SAPS   H6R  712   2.521   4.818   6.112
    6SAPS   C27  713   2.551   4.801   5.893
    6SAPS   H7R  714   2.523   4.704   5.847
    6SAPS   H7S  715   2.633   4.839   5.829
    6SAPS   C28  716   2.431   4.886   5.873
    6SAPS   H8R  717   2.372   4.899   5.965
    6SAPS   C29  718   2.393   4.952   5.761
    6SAPS   H9R  719   2.304   5.016   5.768
    6SAPS  C210  720   2.468   4.976   5.632
    6SAPS  H10R  721   2.574   5.000   5.655
    6SAPS  H10S  722   2.428   5.064   5.578
    6SAPS  C211  723   2.487   4.844   5.547
    6SAPS  H11R  724   2.460   4.754   5.604
    6SAPS  C212  725   2.509   4.837   5.413
    6SAPS  H12R  726   2.526   4.737   5.369
    6SAPS  C213  727   2.502   4.961   5.329
    6SAPS  H13R  728   2.396   4.994   5.337
    6SAPS  H13S  729   2.508   4.918   5.227
    6SAPS  C214  730   2.607   5.071   5.352
    6SAPS  H14R  731   2.659   5.056   5.447
    6SAPS  C215  732   2.635   5.180   5.285
    6SAPS  H15R  733   2.712   5.253   5.317
    6SAPS  C216  734   2.574   5.226   5.155
    6SAPS  H16R  735   2.473   5.180   5.149
    6SAPS  H16S  736   2.630   5.186   5.068
    6SAPS  C217  737   2.568   5.379   5.153
    6SAPS  H17R  738   2.667   5.425   5.174
    6SAPS  H17S  739   2.499   5.413   5.233
    6SAPS  C218  740   2.513   5.426   5.011
    6SAPS  H18R  741   2.404   5.405   5.023
    6SAPS  H18S  742   2.558   5.357   4.937
    6SAPS  C219  743   2.551   5.563   4.969
    6SAPS  H19R  744   2.661   5.581   4.970
    6SAPS  H19S  745   2.503   5.636   5.037
    6SAPS  C220  746   2.505   5.606   4.825
    6SAPS  H20R  747   2.551   5.548   4.743
    6SAPS  H20S  748   2.546   5.708   4.807
    6SAPS  H20T  749   2.395   5.604   4.818
    6SAPS   C33  750   3.078   4.087   5.675
    6SAPS   H3X  751   3.111   3.995   5.727
    6SAPS   H3Y  752   3.163   4.157   5.662
    6SAPS   C34  753   3.038   4.036   5.534
    6SAPS   H4X  754   3.009   4.123   5.472
    6SAPS   H4Y  755   2.943   3.978   5.534
    6SAPS   C35  756   3.144   3.953   5.470
    6SAPS   H5X  757   3.165   3.856   5.520
    6SAPS   H5Y  758   3.240   4.008   5.475
    6SAPS   C36  759   3.102   3.905   5.334
    6SAPS   H6X  760   3.013   3.839   5.332
    6SAPS   H6Y  761   3.188   3.849   5.290
    6SAPS   C37  762   3.078   4.019   5.230
    6SAPS   H7X  763   3.164   4.090   5.233
    6SAPS   H7Y  764   2.983   4.068   5.258
    6SAPS   C38  765   3.077   3.958   5.085
    6SAPS   H8X  766   2.986   3.894   5.072
    6SAPS   H8Y  767   3.160   3.886   5.069
    6SAPS   C39  768   3.082   4.068   4.974
    6SAPS   H9X  769   3.043   4.022   4.881
    6SAPS   H9Y  770   3.188   4.098   4.954
    6SAPS  C310  771   2.987   4.184   5.002
    6SAPS  H10X  772   3.012   4.234   5.098
    6SAPS  H10Y  773   2.893   4.130   5.026
    6SAPS  C311  774   2.971   4.280   4.877
    6SAPS  H11X  775   3.066   4.337   4.874
    6SAPS  H11Y  776   2.890   4.350   4.905
    6SAPS  C312  777   2.938   4.229   4.741
    6SAPS  H12X  778   2.846   4.168   4.735
    6SAPS  H12Y  779   3.025   4.166   4.712
    6SAPS  C313  780   2.920   4.344   4.638
    6SAPS  H13X  781   3.011   4.407   4.645
    6SAPS  H13Y  782   2.835   4.410   4.663
    6SAPS  C314  783   2.908   4.286   4.497
    6SAPS  H14X  784   2.811   4.240   4.469
    6SAPS  H14Y  785   2.985   4.207   4.481
    6SAPS  C315  786   2.926   4.382   4.374
    6SAPS  H15X  787   2.919   4.331   4.275
    6SAPS  H15Y  788   3.019   4.441   4.387
    6SAPS  C316  789   2.820   4.484   4.379
    6SAPS  H16X  790   2.809   4.519   4.484
    6SAPS  H16Y  791   2.722   4.456   4.337
    6SAPS  C317  792   2.866   4.605   4.298
    6SAPS  H17X  793   2.874   4.562   4.195
    6SAPS  H17Y  794   2.965   4.636   4.337
    6SAPS  C318  795   2.773   4.723   4.301
    6SAPS  H18X  796   2.832   4.810   4.264
    6SAPS  H18Y  797   2.720   4.735   4.398
    6SAPS  H18Z  798   2.695   4.695   4.227
    7SAPS     N  799   2.680   0.344   6.801
    7SAPS   HN1  800   2.641   0.397   6.721
    7SAPS   HN2  801   2.660   0.409   6.880
    7SAPS   HN3  802   2.782   0.334   6.788
    7SAPS   C12  803   2.613   0.214   6.825
    7SAPS  H12A  804   2.641   0.166   6.917
    7SAPS   C13  805   2.463   0.215   6.839
    7SAPS  O13A  806   2.409   0.326   6.811
    7SAPS  O13B  807   2.397   0.107   6.863
    7SAPS   C11  808   2.669   0.115   6.711
    7SAPS  H11A  809   2.656   0.167   6.614
    7SAPS  H11B  810   2.599   0.029   6.706
    7SAPS     P  811   2.935   0.134   6.703
    7SAPS   O13  812   2.938   0.257   6.781
    7SAPS   O14  813   3.048   0.039   6.709
    7SAPS   O12  814   2.799   0.056   6.735
    7SAPS   O11  815   2.912   0.179   6.549
    7SAPS    C1  816   2.912   0.087   6.438
    7SAPS    HA  817   3.006   0.027   6.439
    7SAPS    HB  818   2.826   0.017   6.436
    7SAPS    C2  819   2.895   0.161   6.298
    7SAPS    HS  820   2.901   0.096   6.208
    7SAPS   O21  821   2.989   0.268   6.278
    7SAPS   C21  822   3.117   0.211   6.273
    7SAPS   O22  823   3.131   0.094   6.263
    7SAPS   C22  824   3.220   0.322   6.277
    7SAPS   H2R  825   3.178   0.415   6.232
    7SAPS   H2S  826   3.242   0.327   6.386
    7SAPS    C3  827   2.753   0.232   6.303
    7SAPS    HX  828   2.767   0.287   6.398
    7SAPS    HY  829   2.675   0.155   6.325
    7SAPS   O31  830   2.717   0.318   6.191
    7SAPS   C31  831   2.739   0.444   6.198
    7SAPS   O32  832   2.787   0.499   6.297
    7SAPS   C32  833   2.691   0.505   6.064
    7SAPS   H2X  834   2.605   0.447   6.025
    7SAPS   H2Y  835   2.779   0.497   5.996
    7SAPS   C23  836   3.343   0.273   6.201
    7SAPS   H3R  837   3.385   0.171   6.213
    7SAPS   H3S  838   3.415   0.339   6.255
    7SAPS   C24  839   3.345   0.319   6.056
    7SAPS   H4R  840   3.253   0.276   6.012
    7SAPS   H4S  841   3.430   0.269   6.003
    7SAPS   C25  842   3.340   0.468   6.024
    7SAPS   H5R  843   3.280   0.523   6.098
    7SAPS   C26  844   3.396   0.545   5.929
    7SAPS   H6R  845   3.398   0.655   5.932
    7SAPS   C27  846   3.482   0.492   5.819
    7SAPS   H7R  847   3.419   0.429   5.753
    7SAPS   H7S  848   3.565   0.434   5.864
    7SAPS   C28  849   3.544   0.604   5.744
    7SAPS   H8R  850   3.615   0.660   5.806
    7SAPS   C29  851   3.523   0.635   5.616
    7SAPS   H9R  852   3.593   0.702   5.563
    7SAPS  C210  853   3.431   0.556   5.526
    7SAPS  H10R  854   3.356   0.498   5.585
    7SAPS  H10S  855   3.484   0.486   5.458
    7SAPS  C211  856   3.349   0.653   5.443
    7SAPS  H11R  857   3.268   0.702   5.498
    7SAPS  C212  858   3.354   0.689   5.311
    7SAPS  H12R  859   3.273   0.755   5.275
    7SAPS  C213  860   3.456   0.654   5.199
    7SAPS  H13R  861   3.558   0.633   5.239
    7SAPS  H13S  862   3.472   0.741   5.131
    7SAPS  C214  863   3.402   0.538   5.117
    7SAPS  H14R  864   3.339   0.465   5.170
    7SAPS  C215  865   3.443   0.505   4.996
    7SAPS  H15R  866   3.382   0.428   4.946
    7SAPS  C216  867   3.555   0.571   4.912
    7SAPS  H16R  868   3.635   0.495   4.899
    7SAPS  H16S  869   3.590   0.662   4.966
    7SAPS  C217  870   3.535   0.599   4.764
    7SAPS  H17R  871   3.504   0.504   4.715
    7SAPS  H17S  872   3.635   0.627   4.726
    7SAPS  C218  873   3.441   0.717   4.747
    7SAPS  H18R  874   3.493   0.808   4.783
    7SAPS  H18S  875   3.335   0.713   4.781
    7SAPS  C219  876   3.416   0.739   4.594
    7SAPS  H19R  877   3.513   0.740   4.540
    7SAPS  H19S  878   3.369   0.840   4.594
    7SAPS  C220  879   3.314   0.638   4.536
    7SAPS  H20R  880   3.310   0.654   4.426
    7SAPS  H20S  881   3.210   0.653   4.572
    7SAPS  H20T  882   3.357   0.537   4.553
    7SAPS   C33  883   2.650   0.651   6.079
    7SAPS   H3X  884   2.725   0.718   6.127
    7SAPS   H3Y  885   2.571   0.649   6.157
    7SAPS   C34  886   2.598   0.720   5.948
    7SAPS   H4X  887   2.514   0.661   5.905
    7SAPS   H4Y  888   2.677   0.691   5.876
    7SAPS   C35  889   2.568   0.867   5.956
    7SAPS   H5X  890   2.655   0.936   5.956
    7SAPS   H5Y  891   2.513   0.887   6.050
    7SAPS   C36  892   2.477   0.921   5.845
    7SAPS   H6X  893   2.472   1.032   5.850
    7SAPS   H6Y  894   2.374   0.881   5.857
    7SAPS   C37  895   2.535   0.890   5.707
    7SAPS   H7X  896   2.548   0.780   5.697
    7SAPS   H7Y  897   2.635   0.933   5.688
    7SAPS   C38  898   2.448   0.945   5.593
    7SAPS   H8X  899   2.424   1.051   5.618
    7SAPS   H8Y  900   2.350   0.895   5.605
    7SAPS   C39  901   2.503   0.921   5.454
    7SAPS   H9X  902   2.515   0.811   5.443
    7SAPS   H9Y  903   2.613   0.933   5.465
    7SAPS  C310  904   2.429   0.991   5.338
    7SAPS  H10X  905   2.451   1.099   5.357
    7SAPS  H10Y  906   2.318   0.980   5.348
    7SAPS  C311  907   2.478   0.948   5.204
    7SAPS  H11X  908   2.471   0.837   5.206
    7SAPS  H11Y  909   2.585   0.977   5.194
    7SAPS  C312  910   2.406   1.011   5.089
    7SAPS  H12X  911   2.435   1.118   5.080
    7SAPS  H12Y  912   2.296   1.003   5.094
    7SAPS  C313  913   2.441   0.941   4.955
    7SAPS  H13X  914   2.407   0.837   4.967
    7SAPS  H13Y  915   2.552   0.947   4.944
    7SAPS  C314  916   2.378   1.009   4.832
    7SAPS  H14X  917   2.395   1.118   4.845
    7SAPS  H14Y  918   2.268   0.989   4.837
    7SAPS  C315  919   2.413   0.962   4.689
    7SAPS  H15X  920   2.384   0.855   4.686
    7SAPS  H15Y  921   2.522   0.974   4.670
    7SAPS  C316  922   2.342   1.046   4.570
    7SAPS  H16X  923   2.384   1.147   4.590
    7SAPS  H16Y  924   2.236   1.032   4.597
    7SAPS  C317  925   2.389   0.994   4.431
    7SAPS  H17X  926   2.321   1.029   4.351
    7SAPS  H17Y  927   2.375   0.885   4.448
    7SAPS  C318  928   2.537   1.035   4.395
    7SAPS  H18X  929   2.555   1.002   4.291
    7SAPS  H18Y  930   2.610   0.991   4.466
    7SAPS  H18Z  931   2.547   1.146   4.395
    8SAPS     N  932   2.156   1.478   6.829
    8SAPS   HN1  933   2.152   1.563   6.769
    8SAPS   HN2  934   2.075   1.418   6.806
    8SAPS   HN3  935   2.158   1.505   6.930
    8SAPS   C12  936   2.284   1.404   6.794
    8SAPS  H12A  937   2.371   1.447   6.842
    8SAPS   C13  938   2.285   1.256   6.843
    8SAPS  O13A  939   2.186   1.222   6.921
    8SAPS  O13B  940   2.391   1.183   6.837
    8SAPS   C11  941   2.294   1.411   6.632
    8SAPS  H11A  942   2.198   1.372   6.592
    8SAPS  H11B  943   2.378   1.345   6.602
    8SAPS     P  944   2.473   1.597   6.584
    8SAPS   O13  945   2.482   1.741   6.536
    8SAPS   O14  946   2.546   1.552   6.706
    8SAPS   O12  947   2.321   1.546   6.591
    8SAPS   O11  948   2.551   1.503   6.479
    8SAPS    C1  949   2.504   1.481   6.343
    8SAPS    HA  950   2.502   1.372   6.320
    8SAPS    HB  951   2.401   1.518   6.329
    8SAPS    C2  952   2.596   1.559   6.236
    8SAPS    HS  953   2.554   1.661   6.239
    8SAPS   O21  954   2.596   1.504   6.099
    8SAPS   C21  955   2.482   1.515   6.031
    8SAPS   O22  956   2.393   1.586   6.060
    8SAPS   C22  957   2.481   1.413   5.915
    8SAPS   H2R  958   2.532   1.319   5.942
    8SAPS   H2S  959   2.374   1.389   5.898
    8SAPS    C3  960   2.743   1.565   6.281
    8SAPS    HX  961   2.783   1.462   6.271
    8SAPS    HY  962   2.751   1.595   6.387
    8SAPS   O31  963   2.818   1.647   6.197
    8SAPS   C31  964   2.830   1.776   6.226
    8SAPS   O32  965   2.756   1.838   6.299
    8SAPS   C32  966   2.953   1.835   6.153
    8SAPS   H2X  967   3.043   1.796   6.206
    8SAPS   H2Y  968   2.950   1.946   6.153
    8SAPS   C23  969   2.533   1.470   5.781
    8SAPS   H3R  970   2.636   1.512   5.786
    8SAPS   H3S  971   2.469   1.556   5.750
    8SAPS   C24  972   2.536   1.372   5.666
    8SAPS   H4R  973   2.529   1.435   5.574
    8SAPS   H4S  974   2.443   1.312   5.670
    8SAPS   C25  975   2.659   1.285   5.654
    8SAPS   H5R  976   2.704   1.256   5.751
    8SAPS   C26  977   2.716   1.242   5.541
    8SAPS   H6R  978   2.811   1.186   5.541
    8SAPS   C27  979   2.668   1.269   5.395
    8SAPS   H7R  980   2.563   1.306   5.392
    8SAPS   H7S  981   2.679   1.170   5.348
    8SAPS   C28  982   2.761   1.376   5.345
    8SAPS   H8R  983   2.778   1.462   5.412
    8SAPS   C29  984   2.813   1.365   5.222
    8SAPS   H9R  985   2.876   1.451   5.197
    8SAPS  C210  986   2.787   1.264   5.115
    8SAPS  H10R  987   2.681   1.278   5.084
    8SAPS  H10S  988   2.788   1.166   5.167
    8SAPS  C211  989   2.880   1.251   4.998
    8SAPS  H11R  990   2.964   1.188   5.030
    8SAPS  C212  991   2.886   1.327   4.890
    8SAPS  H12R  992   2.971   1.313   4.821
    8SAPS  C213  993   2.777   1.428   4.851
    8SAPS  H13R  994   2.812   1.532   4.871
    8SAPS  H13S  995   2.686   1.402   4.910
    8SAPS  C214  996   2.731   1.416   4.713
    8SAPS  H14R  997   2.652   1.341   4.698
    8SAPS  C215  998   2.768   1.488   4.609
    8SAPS  H15R  999   2.707   1.464   4.521
    8SAPS  C216 1000   2.878   1.591   4.588
    8SAPS  H16R 1001   2.946   1.600   4.675
    8SAPS  H16S 1002   2.826   1.687   4.572
    8SAPS  C217 1003   2.951   1.547   4.455
    8SAPS  H17R 1004   2.887   1.539   4.365
    8SAPS  H17S 1005   2.978   1.440   4.466
    8SAPS  C218 1006   3.060   1.638   4.405
    8SAPS  H18R 1007   3.098   1.605   4.307
    8SAPS  H18S 1008   3.149   1.623   4.469
    8SAPS  C219 1009   3.040   1.794   4.412
    8SAPS  H19R 1010   3.082   1.820   4.512
    8SAPS  H19S 1011   2.932   1.821   4.403
    8SAPS  C220 1012   3.128   1.862   4.314
    8SAPS  H20R 1013   3.108   1.971   4.322
    8SAPS  H20S 1014   3.112   1.822   4.211
    8SAPS  H20T 1015   3.238   1.856   4.332
    8SAPS   C33 1016   2.972   1.782   6.010
    8SAPS   H3X 1017   2.984   1.672   6.005
    8SAPS   H3Y 1018   3.058   1.836   5.965
    8SAPS   C34 1019   2.856   1.816   5.916
    8SAPS   H4X 1020   2.852   1.925   5.895
    8SAPS   H4Y 1021   2.755   1.788   5.952
    8SAPS   C35 1022   2.867   1.749   5.777
    8SAPS   H5X 1023   2.870   1.640   5.800
    8SAPS   H5Y 1024   2.956   1.791   5.726
    8SAPS   C36 1025   2.747   1.774   5.683
    8SAPS   H6X 1026   2.744   1.881   5.652
    8SAPS   H6Y 1027   2.658   1.744   5.743
    8SAPS   C37 1028   2.749   1.686   5.561
    8SAPS   H7X 1029   2.736   1.580   5.591
    8SAPS   H7Y 1030   2.850   1.698   5.517
    8SAPS   C38 1031   2.646   1.754   5.464
    8SAPS   H8X 1032   2.685   1.856   5.447
    8SAPS   H8Y 1033   2.545   1.772   5.507
    8SAPS   C39 1034   2.657   1.703   5.323
    8SAPS   H9X 1035   2.601   1.608   5.309
    8SAPS   H9Y 1036   2.763   1.706   5.289
    8SAPS  C310 1037   2.591   1.801   5.218
    8SAPS  H10X 1038   2.610   1.909   5.230
    8SAPS  H10Y 1039   2.480   1.797   5.225
    8SAPS  C311 1040   2.619   1.762   5.073
    8SAPS  H11X 1041   2.578   1.659   5.062
    8SAPS  H11Y 1042   2.729   1.753   5.057
    8SAPS  C312 1043   2.550   1.847   4.963
    8SAPS  H12X 1044   2.586   1.952   4.965
    8SAPS  H12Y 1045   2.440   1.844   4.973
    8SAPS  C313 1046   2.582   1.804   4.821
    8SAPS  H13X 1047   2.545   1.701   4.808
    8SAPS  H13Y 1048   2.692   1.798   4.807
    8SAPS  C314 1049   2.523   1.897   4.722
    8SAPS  H14X 1050   2.549   1.865   4.619
    8SAPS  H14Y 1051   2.563   1.998   4.746
    8SAPS  C315 1052   2.366   1.897   4.717
    8SAPS  H15X 1053   2.319   1.903   4.818
    8SAPS  H15Y 1054   2.328   1.810   4.660
    8SAPS  C316 1055   2.300   2.019   4.647
    8SAPS  H16X 1056   2.314   2.112   4.707
    8SAPS  H16Y 1057   2.192   2.003   4.631
    8SAPS  C317 1058   2.354   2.049   4.494
    8SAPS  H17X 1059   2.402   1.954   4.461
    8SAPS  H17Y 1060   2.419   2.138   4.505
    8SAPS  C318 1061   2.258   2.079   4.382
    8SAPS  H18X 1062   2.189   1.992   4.382
    8SAPS  H18Y 1063   2.301   2.088   4.280
    8SAPS  H18Z 1064   2.198   2.171   4.395
    9SAPS     N 1065   0.892   4.396   6.733
    9SAPS   HN1 1066   0.978   4.357   6.775
    9SAPS   HN2 1067   0.829   4.315   6.713
    9SAPS   HN3 1068   0.904   4.460   6.651
    9SAPS   C12 1069   0.832   4.475   6.839
    9SAPS  H12A 1070   0.733   4.496   6.802
    9SAPS   C13 1071   0.832   4.396   6.979
    9SAPS  O13A 1072   0.897   4.292   6.984
    9SAPS  O13B 1073   0.792   4.463   7.071
    9SAPS   C11 1074   0.912   4.602   6.856
    9SAPS  H11A 1075   1.019   4.593   6.882
    9SAPS  H11B 1076   0.856   4.646   6.942
    9SAPS     P 1077   0.962   4.826   6.719
    9SAPS   O13 1078   0.882   4.908   6.815
    9SAPS   O14 1079   1.103   4.822   6.746
    9SAPS   O12 1080   0.906   4.676   6.740
    9SAPS   O11 1081   0.941   4.859   6.569
    9SAPS    C1 1082   0.965   4.758   6.476
    9SAPS    HA 1083   1.024   4.676   6.521
    9SAPS    HB 1084   0.878   4.708   6.430
    9SAPS    C2 1085   1.055   4.808   6.365
    9SAPS    HS 1086   1.121   4.892   6.395
    9SAPS   O21 1087   0.969   4.845   6.252
    9SAPS   C21 1088   0.937   4.974   6.239
    9SAPS   O22 1089   0.972   5.060   6.315
    9SAPS   C22 1090   0.844   4.988   6.122
    9SAPS   H2R 1091   0.767   4.908   6.111
    9SAPS   H2S 1092   0.789   5.080   6.149
    9SAPS    C3 1093   1.159   4.697   6.312
    9SAPS    HX 1094   1.112   4.596   6.316
    9SAPS    HY 1095   1.238   4.694   6.390
    9SAPS   O31 1096   1.229   4.729   6.195
    9SAPS   C31 1097   1.196   4.666   6.078
    9SAPS   O32 1098   1.105   4.581   6.064
    9SAPS   C32 1099   1.282   4.739   5.979
    9SAPS   H2X 1100   1.389   4.726   6.007
    9SAPS   H2Y 1101   1.264   4.848   5.984
    9SAPS   C23 1102   0.919   5.004   5.984
    9SAPS   H3R 1103   0.942   4.899   5.957
    9SAPS   H3S 1104   1.017   5.054   5.991
    9SAPS   C24 1105   0.825   5.081   5.891
    9SAPS   H4R 1106   0.718   5.054   5.902
    9SAPS   H4S 1107   0.856   5.070   5.785
    9SAPS   C25 1108   0.840   5.224   5.919
    9SAPS   H5R 1109   0.812   5.249   6.022
    9SAPS   C26 1110   0.873   5.319   5.831
    9SAPS   H6R 1111   0.870   5.418   5.879
    9SAPS   C27 1112   0.901   5.309   5.680
    9SAPS   H7R 1113   0.848   5.396   5.637
    9SAPS   H7S 1114   0.857   5.218   5.634
    9SAPS   C28 1115   1.045   5.306   5.633
    9SAPS   H8R 1116   1.111   5.321   5.719
    9SAPS   C29 1117   1.102   5.303   5.512
    9SAPS   H9R 1118   1.212   5.306   5.505
    9SAPS  C210 1119   1.028   5.300   5.379
    9SAPS  H10R 1120   0.990   5.401   5.352
    9SAPS  H10S 1121   0.942   5.232   5.396
    9SAPS  C211 1122   1.116   5.243   5.270
    9SAPS  H11R 1123   1.101   5.136   5.253
    9SAPS  C212 1124   1.214   5.310   5.201
    9SAPS  H12R 1125   1.287   5.258   5.138
    9SAPS  C213 1126   1.236   5.455   5.199
    9SAPS  H13R 1127   1.170   5.510   5.269
    9SAPS  H13S 1128   1.222   5.499   5.099
    9SAPS  C214 1129   1.380   5.487   5.237
    9SAPS  H14R 1130   1.390   5.490   5.346
    9SAPS  C215 1131   1.485   5.506   5.154
    9SAPS  H15R 1132   1.583   5.518   5.205
    9SAPS  C216 1133   1.497   5.509   4.998
    9SAPS  H16R 1134   1.429   5.432   4.955
    9SAPS  H16S 1135   1.593   5.466   4.963
    9SAPS  C217 1136   1.500   5.651   4.934
    9SAPS  H17R 1137   1.584   5.698   4.989
    9SAPS  H17S 1138   1.406   5.701   4.969
    9SAPS  C218 1139   1.535   5.660   4.781
    9SAPS  H18R 1140   1.633   5.617   4.754
    9SAPS  H18S 1141   1.536   5.767   4.749
    9SAPS  C219 1142   1.439   5.586   4.691
    9SAPS  H19R 1143   1.342   5.599   4.743
    9SAPS  H19S 1144   1.464   5.478   4.692
    9SAPS  C220 1145   1.436   5.639   4.543
    9SAPS  H20R 1146   1.533   5.599   4.504
    9SAPS  H20S 1147   1.436   5.750   4.537
    9SAPS  H20T 1148   1.349   5.590   4.494
    9SAPS   C33 1149   1.263   4.687   5.831
    9SAPS   H3X 1150   1.155   4.672   5.811
    9SAPS   H3Y 1151   1.311   4.587   5.821
    9SAPS   C34 1152   1.318   4.791   5.729
    9SAPS   H4X 1153   1.299   4.891   5.773
    9SAPS   H4Y 1154   1.265   4.782   5.632
    9SAPS   C35 1155   1.468   4.786   5.714
    9SAPS   H5X 1156   1.482   4.685   5.670
    9SAPS   H5Y 1157   1.508   4.799   5.817
    9SAPS   C36 1158   1.522   4.884   5.603
    9SAPS   H6X 1159   1.625   4.919   5.627
    9SAPS   H6Y 1160   1.453   4.970   5.591
    9SAPS   C37 1161   1.519   4.816   5.464
    9SAPS   H7X 1162   1.417   4.779   5.440
    9SAPS   H7Y 1163   1.576   4.721   5.469
    9SAPS   C38 1164   1.572   4.901   5.347
    9SAPS   H8X 1165   1.597   4.842   5.256
    9SAPS   H8Y 1166   1.667   4.948   5.382
    9SAPS   C39 1167   1.494   5.024   5.313
    9SAPS   H9X 1168   1.475   5.092   5.399
    9SAPS   H9Y 1169   1.399   4.988   5.268
    9SAPS  C310 1170   1.556   5.114   5.209
    9SAPS  H10X 1171   1.654   5.147   5.248
    9SAPS  H10Y 1172   1.490   5.203   5.205
    9SAPS  C311 1173   1.564   5.042   5.074
    9SAPS  H11X 1174   1.463   4.999   5.067
    9SAPS  H11Y 1175   1.637   4.962   5.101
    9SAPS  C312 1176   1.598   5.140   4.958
    9SAPS  H12X 1177   1.697   5.187   4.978
    9SAPS  H12Y 1178   1.517   5.216   4.952
    9SAPS  C313 1179   1.598   5.073   4.820
    9SAPS  H13X 1180   1.506   5.012   4.808
    9SAPS  H13Y 1181   1.690   5.014   4.797
    9SAPS  C314 1182   1.607   5.179   4.710
    9SAPS  H14X 1183   1.706   5.228   4.716
    9SAPS  H14Y 1184   1.540   5.264   4.735
    9SAPS  C315 1185   1.583   5.136   4.562
    9SAPS  H15X 1186   1.479   5.095   4.562
    9SAPS  H15Y 1187   1.662   5.059   4.546
    9SAPS  C316 1188   1.592   5.247   4.448
    9SAPS  H16X 1189   1.690   5.300   4.450
    9SAPS  H16Y 1190   1.510   5.321   4.464
    9SAPS  C317 1191   1.571   5.185   4.310
    9SAPS  H17X 1192   1.527   5.251   4.232
    9SAPS  H17Y 1193   1.492   5.108   4.317
    9SAPS  C318 1194   1.696   5.112   4.251
    9SAPS  H18X 1195   1.733   5.022   4.304
    9SAPS  H18Y 1196   1.788   5.171   4.268
    9SAPS  H18Z 1197   1.680   5.082   4.145
   10SAPS     N 1198   1.942   3.769   6.351
   10SAPS   HN1 1199   2.028   3.749   6.405
   10SAPS   HN2 1200   1.868   3.697   6.361
   10SAPS   HN3 1201   1.960   3.790   6.250
   10SAPS   C12 1202   1.870   3.877   6.415
   10SAPS  H12A 1203   1.765   3.870   6.390
   10SAPS   C13 1204   1.868   3.868   6.569
   10SAPS  O13A 1205   1.939   3.778   6.624
   10SAPS  O13B 1206   1.777   3.933   6.631
   10SAPS   C11 1207   1.923   4.015   6.371
   10SAPS  H11A 1208   2.014   4.039   6.430
   10SAPS  H11B 1209   1.843   4.087   6.399
   10SAPS     P 1210   2.026   4.131   6.150
   10SAPS   O13 1211   2.166   4.139   6.199
   10SAPS   O14 1212   2.015   4.094   6.011
   10SAPS   O12 1213   1.952   4.017   6.227
   10SAPS   O11 1214   1.939   4.258   6.186
   10SAPS    C1 1215   1.990   4.389   6.209
   10SAPS    HA 1216   1.922   4.452   6.269
   10SAPS    HB 1217   2.088   4.382   6.262
   10SAPS    C2 1218   2.020   4.461   6.072
   10SAPS    HS 1219   1.925   4.451   6.015
   10SAPS   O21 1220   2.129   4.396   6.000
   10SAPS   C21 1221   2.255   4.397   6.044
   10SAPS   O22 1222   2.293   4.441   6.152
   10SAPS   C22 1223   2.346   4.340   5.935
   10SAPS   H2R 1224   2.424   4.275   5.980
   10SAPS   H2S 1225   2.278   4.283   5.868
   10SAPS    C3 1226   2.056   4.610   6.090
   10SAPS    HX 1227   2.146   4.625   6.153
   10SAPS    HY 1228   1.977   4.674   6.135
   10SAPS   O31 1229   2.093   4.657   5.959
   10SAPS   C31 1230   1.996   4.697   5.880
   10SAPS   O32 1231   1.879   4.691   5.898
   10SAPS   C32 1232   2.065   4.788   5.773
   10SAPS   H2X 1233   2.121   4.717   5.708
   10SAPS   H2Y 1234   2.133   4.860   5.824
   10SAPS   C23 1235   2.426   4.446   5.855
   10SAPS   H3R 1236   2.487   4.504   5.928
   10SAPS   H3S 1237   2.365   4.524   5.805
   10SAPS   C24 1238   2.525   4.377   5.757
   10SAPS   H4R 1239   2.477   4.353   5.660
   10SAPS   H4S 1240   2.561   4.280   5.797
   10SAPS   C25 1241   2.652   4.460   5.733
   10SAPS   H5R 1242   2.675   4.551   5.790
   10SAPS   C26 1243   2.736   4.439   5.628
   10SAPS   H6R 1244   2.818   4.512   5.616
   10SAPS   C27 1245   2.706   4.343   5.519
   10SAPS   H7R 1246   2.614   4.385   5.474
   10SAPS   H7S 1247   2.688   4.240   5.557
   10SAPS   C28 1248   2.825   4.335   5.422
   10SAPS   H8R 1249   2.926   4.313   5.462
   10SAPS   C29 1250   2.816   4.363   5.292
   10SAPS   H9R 1251   2.906   4.358   5.229
   10SAPS  C210 1252   2.685   4.413   5.231
   10SAPS  H10R 1253   2.663   4.513   5.273
   10SAPS  H10S 1254   2.599   4.347   5.256
   10SAPS  C211 1255   2.704   4.422   5.083
   10SAPS  H11R 1256   2.732   4.323   5.045
   10SAPS  C212 1257   2.715   4.526   4.989
   10SAPS  H12R 1258   2.731   4.500   4.884
   10SAPS  C213 1259   2.698   4.670   5.019
   10SAPS  H13R 1260   2.782   4.714   4.961
   10SAPS  H13S 1261   2.725   4.679   5.127
   10SAPS  C214 1262   2.566   4.738   5.005
   10SAPS  H14R 1263   2.494   4.713   5.084
   10SAPS  C215 1264   2.538   4.823   4.908
   10SAPS  H15R 1265   2.447   4.884   4.915
   10SAPS  C216 1266   2.638   4.873   4.807
   10SAPS  H16R 1267   2.716   4.796   4.790
   10SAPS  H16S 1268   2.684   4.968   4.842
   10SAPS  C217 1269   2.565   4.918   4.686
   10SAPS  H17R 1270   2.485   4.844   4.662
   10SAPS  H17S 1271   2.626   4.924   4.594
   10SAPS  C218 1272   2.497   5.054   4.698
   10SAPS  H18R 1273   2.566   5.138   4.717
   10SAPS  H18S 1274   2.424   5.048   4.782
   10SAPS  C219 1275   2.436   5.104   4.564
   10SAPS  H19R 1276   2.359   5.179   4.589
   10SAPS  H19S 1277   2.390   5.016   4.513
   10SAPS  C220 1278   2.536   5.174   4.467
   10SAPS  H20R 1279   2.537   5.121   4.369
   10SAPS  H20S 1280   2.631   5.164   4.523
   10SAPS  H20T 1281   2.497   5.278   4.463
   10SAPS   C33 1282   1.968   4.886   5.691
   10SAPS   H3X 1283   1.955   4.975   5.756
   10SAPS   H3Y 1284   1.873   4.832   5.671
   10SAPS   C34 1285   2.035   4.935   5.561
   10SAPS   H4X 1286   2.080   4.850   5.507
   10SAPS   H4Y 1287   2.129   4.984   5.595
   10SAPS   C35 1288   1.964   5.031   5.479
   10SAPS   H5X 1289   1.938   5.120   5.541
   10SAPS   H5Y 1290   1.863   5.003   5.443
   10SAPS   C36 1291   2.053   5.086   5.358
   10SAPS   H6X 1292   2.155   5.119   5.386
   10SAPS   H6Y 1293   1.993   5.171   5.318
   10SAPS   C37 1294   2.089   4.981   5.248
   10SAPS   H7X 1295   1.997   4.930   5.213
   10SAPS   H7Y 1296   2.138   4.891   5.291
   10SAPS   C38 1297   2.167   5.022   5.121
   10SAPS   H8X 1298   2.219   4.935   5.075
   10SAPS   H8Y 1299   2.238   5.096   5.165
   10SAPS   C39 1300   2.071   5.091   5.018
   10SAPS   H9X 1301   2.027   5.178   5.072
   10SAPS   H9Y 1302   1.985   5.027   4.991
   10SAPS  C310 1303   2.129   5.125   4.883
   10SAPS  H10X 1304   2.187   5.044   4.834
   10SAPS  H10Y 1305   2.213   5.195   4.906
   10SAPS  C311 1306   2.029   5.155   4.779
   10SAPS  H11X 1307   1.946   5.215   4.821
   10SAPS  H11Y 1308   1.980   5.066   4.735
   10SAPS  C312 1309   2.090   5.238   4.662
   10SAPS  H12X 1310   2.164   5.172   4.613
   10SAPS  H12Y 1311   2.140   5.329   4.702
   10SAPS  C313 1312   1.986   5.277   4.555
   10SAPS  H13X 1313   1.909   5.341   4.604
   10SAPS  H13Y 1314   1.930   5.187   4.522
   10SAPS  C314 1315   2.039   5.324   4.427
   10SAPS  H14X 1316   2.100   5.414   4.451
   10SAPS  H14Y 1317   1.952   5.354   4.365
   10SAPS  C315 1318   2.132   5.233   4.350
   10SAPS  H15X 1319   2.089   5.133   4.326
   10SAPS  H15Y 1320   2.220   5.220   4.416
   10SAPS  C316 1321   2.188   5.292   4.215
   10SAPS  H16X 1322   2.286   5.242   4.198
   10SAPS  H16Y 1323   2.214   5.399   4.226
   10SAPS  C317 1324   2.100   5.280   4.091
   10SAPS  H17X 1325   2.018   5.353   4.112
   10SAPS  H17Y 1326   2.057   5.178   4.097
   10SAPS  C318 1327   2.164   5.317   3.956
   10SAPS  H18X 1328   2.221   5.412   3.965
   10SAPS  H18Y 1329   2.087   5.326   3.876
   10SAPS  H18Z 1330   2.245   5.247   3.926
   11SAPS     N 1331   3.040   2.916   2.348
   11SAPS   HN1 1332   2.987   2.968   2.422
   11SAPS   HN2 1333   3.057   2.818   2.377
   11SAPS   HN3 1334   3.130   2.966   2.331
   11SAPS   C12 1335   2.975   2.938   2.216
   11SAPS  H12A 1336   2.912   2.854   2.190
   11SAPS   C13 1337   2.903   3.073   2.207
   11SAPS  O13A 1338   2.886   3.144   2.311
   11SAPS  O13B 1339   2.834   3.094   2.109
   11SAPS   C11 1340   3.077   2.921   2.109
   11SAPS  H11A 1341   3.157   2.997   2.121
   11SAPS  H11B 1342   3.019   2.945   2.017
   11SAPS     P 1343   3.262   2.735   2.137
   11SAPS   O13 1344   3.241   2.596   2.191
   11SAPS   O14 1345   3.358   2.743   2.025
   11SAPS   O12 1346   3.118   2.787   2.090
   11SAPS   O11 1347   3.293   2.839   2.249
   11SAPS    C1 1348   3.390   2.810   2.345
   11SAPS    HA 1349   3.354   2.721   2.402
   11SAPS    HB 1350   3.493   2.794   2.307
   11SAPS    C2 1351   3.397   2.925   2.451
   11SAPS    HS 1352   3.296   2.958   2.485
   11SAPS   O21 1353   3.457   3.039   2.395
   11SAPS   C21 1354   3.383   3.125   2.331
   11SAPS   O22 1355   3.261   3.122   2.320
   11SAPS   C22 1356   3.474   3.241   2.288
   11SAPS   H2R 1357   3.573   3.226   2.336
   11SAPS   H2S 1358   3.489   3.213   2.182
   11SAPS    C3 1359   3.483   2.892   2.564
   11SAPS    HX 1360   3.491   2.975   2.638
   11SAPS    HY 1361   3.587   2.879   2.526
   11SAPS   O31 1362   3.428   2.767   2.618
   11SAPS   C31 1363   3.374   2.769   2.739
   11SAPS   O32 1364   3.363   2.868   2.805
   11SAPS   C32 1365   3.313   2.633   2.760
   11SAPS   H2X 1366   3.390   2.555   2.741
   11SAPS   H2Y 1367   3.240   2.637   2.677
   11SAPS   C23 1368   3.411   3.385   2.289
   11SAPS   H3R 1369   3.303   3.376   2.264
   11SAPS   H3S 1370   3.465   3.453   2.219
   11SAPS   C24 1371   3.425   3.460   2.423
   11SAPS   H4R 1372   3.390   3.565   2.417
   11SAPS   H4S 1373   3.533   3.467   2.451
   11SAPS   C25 1374   3.344   3.394   2.530
   11SAPS   H5R 1375   3.236   3.391   2.509
   11SAPS   C26 1376   3.382   3.344   2.648
   11SAPS   H6R 1377   3.298   3.302   2.706
   11SAPS   C27 1378   3.521   3.336   2.713
   11SAPS   H7R 1379   3.596   3.346   2.632
   11SAPS   H7S 1380   3.538   3.247   2.777
   11SAPS   C28 1381   3.541   3.461   2.807
   11SAPS   H8R 1382   3.463   3.537   2.791
   11SAPS   C29 1383   3.621   3.468   2.909
   11SAPS   H9R 1384   3.641   3.561   2.964
   11SAPS  C210 1385   3.716   3.356   2.953
   11SAPS  H10R 1386   3.749   3.298   2.864
   11SAPS  H10S 1387   3.654   3.298   3.025
   11SAPS  C211 1388   3.839   3.398   3.029
   11SAPS  H11R 1389   3.931   3.415   2.970
   11SAPS  C212 1390   3.851   3.428   3.162
   11SAPS  H12R 1391   3.952   3.441   3.203
   11SAPS  C213 1392   3.744   3.427   3.261
   11SAPS  H13R 1393   3.763   3.357   3.345
   11SAPS  H13S 1394   3.653   3.383   3.214
   11SAPS  C214 1395   3.725   3.573   3.304
   11SAPS  H14R 1396   3.774   3.647   3.239
   11SAPS  C215 1397   3.660   3.607   3.414
   11SAPS  H15R 1398   3.662   3.716   3.424
   11SAPS  C216 1399   3.590   3.528   3.522
   11SAPS  H16R 1400   3.604   3.419   3.506
   11SAPS  H16S 1401   3.480   3.543   3.514
   11SAPS  C217 1402   3.642   3.560   3.666
   11SAPS  H17R 1403   3.579   3.498   3.734
   11SAPS  H17S 1404   3.621   3.668   3.685
   11SAPS  C218 1405   3.791   3.529   3.680
   11SAPS  H18R 1406   3.855   3.579   3.604
   11SAPS  H18S 1407   3.796   3.420   3.655
   11SAPS  C219 1408   3.857   3.529   3.816
   11SAPS  H19R 1409   3.964   3.501   3.806
   11SAPS  H19S 1410   3.806   3.452   3.878
   11SAPS  C220 1411   3.859   3.665   3.892
   11SAPS  H20R 1412   3.921   3.654   3.983
   11SAPS  H20S 1413   3.753   3.693   3.913
   11SAPS  H20T 1414   3.894   3.744   3.822
   11SAPS   C33 1415   3.236   2.618   2.894
   11SAPS   H3X 1416   3.177   2.526   2.879
   11SAPS   H3Y 1417   3.174   2.708   2.916
   11SAPS   C34 1418   3.327   2.596   3.015
   11SAPS   H4X 1419   3.366   2.694   3.051
   11SAPS   H4Y 1420   3.417   2.538   2.986
   11SAPS   C35 1421   3.259   2.524   3.121
   11SAPS   H5X 1422   3.236   2.422   3.083
   11SAPS   H5Y 1423   3.161   2.572   3.142
   11SAPS   C36 1424   3.346   2.501   3.246
   11SAPS   H6X 1425   3.286   2.456   3.328
   11SAPS   H6Y 1426   3.386   2.601   3.276
   11SAPS   C37 1427   3.472   2.411   3.229
   11SAPS   H7X 1428   3.537   2.443   3.145
   11SAPS   H7Y 1429   3.426   2.310   3.219
   11SAPS   C38 1430   3.566   2.428   3.347
   11SAPS   H8X 1431   3.592   2.536   3.347
   11SAPS   H8Y 1432   3.663   2.374   3.335
   11SAPS   C39 1433   3.504   2.380   3.484
   11SAPS   H9X 1434   3.465   2.278   3.467
   11SAPS   H9Y 1435   3.418   2.450   3.500
   11SAPS  C310 1436   3.608   2.385   3.600
   11SAPS  H10X 1437   3.655   2.486   3.601
   11SAPS  H10Y 1438   3.678   2.300   3.586
   11SAPS  C311 1439   3.536   2.383   3.735
   11SAPS  H11X 1440   3.467   2.296   3.729
   11SAPS  H11Y 1441   3.477   2.473   3.762
   11SAPS  C312 1442   3.630   2.368   3.853
   11SAPS  H12X 1443   3.705   2.288   3.830
   11SAPS  H12Y 1444   3.571   2.332   3.939
   11SAPS  C313 1445   3.711   2.494   3.908
   11SAPS  H13X 1446   3.637   2.566   3.948
   11SAPS  H13Y 1447   3.761   2.548   3.825
   11SAPS  C314 1448   3.801   2.458   4.026
   11SAPS  H14X 1449   3.873   2.542   4.031
   11SAPS  H14Y 1450   3.861   2.366   4.007
   11SAPS  C315 1451   3.720   2.442   4.156
   11SAPS  H15X 1452   3.655   2.352   4.155
   11SAPS  H15Y 1453   3.651   2.526   4.175
   11SAPS  C316 1454   3.800   2.409   4.285
   11SAPS  H16X 1455   3.742   2.416   4.380
   11SAPS  H16Y 1456   3.891   2.471   4.299
   11SAPS  C317 1457   3.862   2.266   4.290
   11SAPS  H17X 1458   3.940   2.258   4.212
   11SAPS  H17Y 1459   3.784   2.190   4.267
   11SAPS  C318 1460   3.929   2.241   4.426
   11SAPS  H18X 1461   4.006   2.320   4.442
   11SAPS  H18Y 1462   3.971   2.138   4.422
   11SAPS  H18Z 1463   3.856   2.235   4.508
   12SAPS     N 1464   2.138   2.440   1.990
   12SAPS   HN1 1465   2.199   2.523   2.002
   12SAPS   HN2 1466   2.040   2.473   1.995
   12SAPS   HN3 1467   2.154   2.372   2.067
   12SAPS   C12 1468   2.154   2.383   1.849
   12SAPS  H12A 1469   2.146   2.276   1.847
   12SAPS   C13 1470   2.049   2.435   1.749
   12SAPS  O13A 1471   1.980   2.535   1.781
   12SAPS  O13B 1472   2.047   2.378   1.633
   12SAPS   C11 1473   2.297   2.411   1.809
   12SAPS  H11A 1474   2.319   2.520   1.812
   12SAPS  H11B 1475   2.302   2.377   1.703
   12SAPS     P 1476   2.543   2.335   1.862
   12SAPS   O13 1477   2.580   2.209   1.797
   12SAPS   O14 1478   2.574   2.465   1.793
   12SAPS   O12 1479   2.394   2.332   1.891
   12SAPS   O11 1480   2.597   2.335   2.007
   12SAPS    C1 1481   2.599   2.464   2.085
   12SAPS    HA 1482   2.699   2.512   2.079
   12SAPS    HB 1483   2.522   2.533   2.043
   12SAPS    C2 1484   2.579   2.433   2.236
   12SAPS    HS 1485   2.597   2.523   2.297
   12SAPS   O21 1486   2.679   2.347   2.290
   12SAPS   C21 1487   2.796   2.396   2.317
   12SAPS   O22 1488   2.831   2.509   2.309
   12SAPS   C22 1489   2.890   2.276   2.356
   12SAPS   H2R 1490   2.881   2.201   2.275
   12SAPS   H2S 1491   2.997   2.307   2.348
   12SAPS    C3 1492   2.441   2.373   2.266
   12SAPS    HX 1493   2.430   2.286   2.197
   12SAPS    HY 1494   2.362   2.448   2.242
   12SAPS   O31 1495   2.417   2.336   2.397
   12SAPS   C31 1496   2.443   2.211   2.431
   12SAPS   O32 1497   2.505   2.128   2.365
   12SAPS   C32 1498   2.389   2.204   2.574
   12SAPS   H2X 1499   2.474   2.220   2.643
   12SAPS   H2Y 1500   2.331   2.111   2.591
   12SAPS   C23 1501   2.847   2.219   2.491
   12SAPS   H3R 1502   2.904   2.126   2.511
   12SAPS   H3S 1503   2.739   2.194   2.482
   12SAPS   C24 1504   2.883   2.304   2.618
   12SAPS   H4R 1505   2.818   2.268   2.700
   12SAPS   H4S 1506   2.849   2.407   2.595
   12SAPS   C25 1507   3.027   2.316   2.661
   12SAPS   H5R 1508   3.097   2.338   2.578
   12SAPS   C26 1509   3.084   2.289   2.783
   12SAPS   H6R 1510   3.193   2.294   2.793
   12SAPS   C27 1511   3.002   2.266   2.907
   12SAPS   H7R 1512   2.908   2.326   2.910
   12SAPS   H7S 1513   3.068   2.293   2.992
   12SAPS   C28 1514   2.954   2.130   2.928
   12SAPS   H8R 1515   2.903   2.079   2.846
   12SAPS   C29 1516   2.959   2.076   3.052
   12SAPS   H9R 1517   2.922   1.975   3.077
   12SAPS  C210 1518   3.016   2.131   3.179
   12SAPS  H10R 1519   2.958   2.075   3.256
   12SAPS  H10S 1520   2.972   2.233   3.185
   12SAPS  C211 1521   3.168   2.138   3.196
   12SAPS  H11R 1522   3.229   2.111   3.108
   12SAPS  C212 1523   3.221   2.137   3.324
   12SAPS  H12R 1524   3.331   2.130   3.323
   12SAPS  C213 1525   3.155   2.142   3.456
   12SAPS  H13R 1526   3.239   2.114   3.523
   12SAPS  H13S 1527   3.072   2.068   3.464
   12SAPS  C214 1528   3.098   2.284   3.483
   12SAPS  H14R 1529   3.069   2.341   3.394
   12SAPS  C215 1530   3.091   2.332   3.607
   12SAPS  H15R 1531   3.063   2.438   3.618
   12SAPS  C216 1532   3.120   2.266   3.745
   12SAPS  H16R 1533   3.227   2.282   3.770
   12SAPS  H16S 1534   3.097   2.157   3.752
   12SAPS  C217 1535   3.049   2.326   3.863
   12SAPS  H17R 1536   2.942   2.303   3.845
   12SAPS  H17S 1537   3.049   2.437   3.871
   12SAPS  C218 1538   3.092   2.255   3.995
   12SAPS  H18R 1539   3.060   2.149   3.988
   12SAPS  H18S 1540   3.029   2.304   4.072
   12SAPS  C219 1541   3.238   2.271   4.041
   12SAPS  H19R 1542   3.255   2.378   4.066
   12SAPS  H19S 1543   3.312   2.226   3.971
   12SAPS  C220 1544   3.248   2.196   4.173
   12SAPS  H20R 1545   3.218   2.092   4.149
   12SAPS  H20S 1546   3.180   2.235   4.252
   12SAPS  H20T 1547   3.350   2.195   4.217
   12SAPS   C33 1548   2.291   2.322   2.612
   12SAPS   H3X 1549   2.223   2.329   2.525
   12SAPS   H3Y 1550   2.336   2.423   2.620
   12SAPS   C34 1551   2.214   2.280   2.741
   12SAPS   H4X 1552   2.171   2.179   2.722
   12SAPS   H4Y 1553   2.132   2.355   2.747
   12SAPS   C35 1554   2.297   2.283   2.867
   12SAPS   H5X 1555   2.310   2.389   2.898
   12SAPS   H5Y 1556   2.396   2.240   2.839
   12SAPS   C36 1557   2.228   2.209   2.983
   12SAPS   H6X 1558   2.216   2.103   2.953
   12SAPS   H6Y 1559   2.129   2.254   3.004
   12SAPS   C37 1560   2.306   2.221   3.113
   12SAPS   H7X 1561   2.306   2.329   3.140
   12SAPS   H7Y 1562   2.412   2.192   3.095
   12SAPS   C38 1563   2.246   2.133   3.228
   12SAPS   H8X 1564   2.282   2.028   3.218
   12SAPS   H8Y 1565   2.135   2.134   3.226
   12SAPS   C39 1566   2.300   2.180   3.368
   12SAPS   H9X 1567   2.262   2.284   3.375
   12SAPS   H9Y 1568   2.411   2.182   3.364
   12SAPS  C310 1569   2.254   2.093   3.483
   12SAPS  H10X 1570   2.297   1.994   3.458
   12SAPS  H10Y 1571   2.145   2.082   3.496
   12SAPS  C311 1572   2.315   2.125   3.622
   12SAPS  H11X 1573   2.269   2.214   3.670
   12SAPS  H11Y 1574   2.423   2.146   3.604
   12SAPS  C312 1575   2.301   2.017   3.726
   12SAPS  H12X 1576   2.363   1.932   3.691
   12SAPS  H12Y 1577   2.197   1.979   3.742
   12SAPS  C313 1578   2.347   2.068   3.866
   12SAPS  H13X 1579   2.264   2.131   3.904
   12SAPS  H13Y 1580   2.437   2.133   3.860
   12SAPS  C314 1581   2.402   1.943   3.945
   12SAPS  H14X 1582   2.441   1.978   4.043
   12SAPS  H14Y 1583   2.487   1.901   3.887
   12SAPS  C315 1584   2.302   1.827   3.962
   12SAPS  H15X 1585   2.264   1.801   3.861
   12SAPS  H15Y 1586   2.221   1.855   4.032
   12SAPS  C316 1587   2.361   1.691   4.013
   12SAPS  H16X 1588   2.441   1.708   4.089
   12SAPS  H16Y 1589   2.421   1.641   3.934
   12SAPS  C317 1590   2.260   1.596   4.081
   12SAPS  H17X 1591   2.176   1.557   4.019
   12SAPS  H17Y 1592   2.209   1.657   4.158
   12SAPS  C318 1593   2.318   1.470   4.157
   12SAPS  H18X 1594   2.372   1.397   4.095
   12SAPS  H18Y 1595   2.241   1.419   4.219
   12SAPS  H18Z 1596   2.397   1.511   4.224
   13SAPS     N 1597   5.598   0.627   2.316
   13SAPS   HN1 1598   5.552   0.534   2.307
   13SAPS   HN2 1599   5.693   0.616   2.357
   13SAPS   HN3 1600   5.538   0.672   2.388
   13SAPS   C12 1601   5.598   0.693   2.182
   13SAPS  H12A 1602   5.648   0.787   2.200
   13SAPS   C13 1603   5.682   0.619   2.069
   13SAPS  O13A 1604   5.742   0.511   2.098
   13SAPS  O13B 1605   5.660   0.654   1.949
   13SAPS   C11 1606   5.457   0.727   2.133
   13SAPS  H11A 1607   5.413   0.626   2.116
   13SAPS  H11B 1608   5.473   0.773   2.033
   13SAPS     P 1609   5.405   0.968   2.214
   13SAPS   O13 1610   5.538   1.010   2.267
   13SAPS   O14 1611   5.355   1.010   2.080
   13SAPS   O12 1612   5.390   0.809   2.227
   13SAPS   O11 1613   5.293   1.017   2.312
   13SAPS    C1 1614   5.263   0.949   2.428
   13SAPS    HA 1615   5.213   0.856   2.394
   13SAPS    HB 1616   5.346   0.894   2.477
   13SAPS    C2 1617   5.162   1.020   2.528
   13SAPS    HS 1618   5.221   1.085   2.596
   13SAPS   O21 1619   5.075   0.920   2.591
   13SAPS   C21 1620   5.130   0.818   2.650
   13SAPS   O22 1621   5.247   0.781   2.656
   13SAPS   C22 1622   5.015   0.730   2.705
   13SAPS   H2R 1623   4.923   0.782   2.738
   13SAPS   H2S 1624   4.991   0.658   2.624
   13SAPS    C3 1625   5.075   1.122   2.448
   13SAPS    HX 1626   5.008   1.052   2.394
   13SAPS    HY 1627   5.143   1.186   2.388
   13SAPS   O31 1628   5.010   1.203   2.546
   13SAPS   C31 1629   4.885   1.205   2.568
   13SAPS   O32 1630   4.796   1.139   2.513
   13SAPS   C32 1631   4.867   1.324   2.666
   13SAPS   H2X 1632   4.793   1.392   2.618
   13SAPS   H2Y 1633   4.960   1.385   2.670
   13SAPS   C23 1634   5.070   0.635   2.818
   13SAPS   H3R 1635   5.167   0.589   2.791
   13SAPS   H3S 1636   4.997   0.551   2.825
   13SAPS   C24 1637   5.068   0.706   2.954
   13SAPS   H4R 1638   4.970   0.754   2.974
   13SAPS   H4S 1639   5.131   0.795   2.935
   13SAPS   C25 1640   5.102   0.615   3.063
   13SAPS   H5R 1641   5.160   0.525   3.036
   13SAPS   C26 1642   5.048   0.623   3.186
   13SAPS   H6R 1643   5.072   0.539   3.254
   13SAPS   C27 1644   4.955   0.729   3.238
   13SAPS   H7R 1645   4.969   0.821   3.176
   13SAPS   H7S 1646   4.996   0.749   3.339
   13SAPS   C28 1647   4.807   0.679   3.229
   13SAPS   H8R 1648   4.779   0.676   3.123
   13SAPS   C29 1649   4.724   0.640   3.322
   13SAPS   H9R 1650   4.631   0.589   3.292
   13SAPS  C210 1651   4.759   0.651   3.466
   13SAPS  H10R 1652   4.861   0.608   3.482
   13SAPS  H10S 1653   4.688   0.582   3.516
   13SAPS  C211 1654   4.764   0.786   3.527
   13SAPS  H11R 1655   4.772   0.877   3.467
   13SAPS  C212 1656   4.744   0.813   3.658
   13SAPS  H12R 1657   4.733   0.917   3.690
   13SAPS  C213 1658   4.717   0.713   3.772
   13SAPS  H13R 1659   4.693   0.609   3.741
   13SAPS  H13S 1660   4.627   0.743   3.829
   13SAPS  C214 1661   4.832   0.700   3.866
   13SAPS  H14R 1662   4.921   0.651   3.825
   13SAPS  C215 1663   4.830   0.748   3.993
   13SAPS  H15R 1664   4.922   0.732   4.051
   13SAPS  C216 1665   4.712   0.804   4.068
   13SAPS  H16R 1666   4.671   0.882   4.000
   13SAPS  H16S 1667   4.746   0.860   4.158
   13SAPS  C217 1668   4.607   0.700   4.111
   13SAPS  H17R 1669   4.601   0.637   4.020
   13SAPS  H17S 1670   4.502   0.730   4.132
   13SAPS  C218 1671   4.658   0.609   4.217
   13SAPS  H18R 1672   4.760   0.565   4.207
   13SAPS  H18S 1673   4.590   0.521   4.211
   13SAPS  C219 1674   4.638   0.679   4.350
   13SAPS  H19R 1675   4.532   0.707   4.361
   13SAPS  H19S 1676   4.710   0.763   4.344
   13SAPS  C220 1677   4.675   0.582   4.462
   13SAPS  H20R 1678   4.700   0.628   4.560
   13SAPS  H20S 1679   4.766   0.524   4.435
   13SAPS  H20T 1680   4.590   0.513   4.482
   13SAPS   C33 1681   4.819   1.283   2.804
   13SAPS   H3X 1682   4.749   1.197   2.802
   13SAPS   H3Y 1683   4.777   1.370   2.860
   13SAPS   C34 1684   4.930   1.235   2.896
   13SAPS   H4X 1685   5.007   1.314   2.911
   13SAPS   H4Y 1686   4.987   1.145   2.863
   13SAPS   C35 1687   4.872   1.178   3.035
   13SAPS   H5X 1688   4.820   1.081   3.022
   13SAPS   H5Y 1689   4.805   1.253   3.084
   13SAPS   C36 1690   4.990   1.137   3.129
   13SAPS   H6X 1691   5.051   1.229   3.116
   13SAPS   H6Y 1692   5.045   1.047   3.095
   13SAPS   C37 1693   4.937   1.131   3.275
   13SAPS   H7X 1694   4.846   1.068   3.285
   13SAPS   H7Y 1695   4.912   1.231   3.318
   13SAPS   C38 1696   5.048   1.077   3.369
   13SAPS   H8X 1697   5.146   1.128   3.362
   13SAPS   H8Y 1698   5.060   0.970   3.340
   13SAPS   C39 1699   5.003   1.083   3.515
   13SAPS   H9X 1700   4.895   1.057   3.526
   13SAPS   H9Y 1701   5.025   1.189   3.537
   13SAPS  C310 1702   5.094   0.995   3.602
   13SAPS  H10X 1703   5.203   0.999   3.580
   13SAPS  H10Y 1704   5.066   0.889   3.586
   13SAPS  C311 1705   5.090   1.029   3.749
   13SAPS  H11X 1706   4.983   1.021   3.776
   13SAPS  H11Y 1707   5.132   1.132   3.750
   13SAPS  C312 1708   5.174   0.926   3.829
   13SAPS  H12X 1709   5.271   0.904   3.779
   13SAPS  H12Y 1710   5.118   0.831   3.846
   13SAPS  C313 1711   5.207   0.984   3.967
   13SAPS  H13X 1712   5.110   1.015   4.012
   13SAPS  H13Y 1713   5.277   1.070   3.960
   13SAPS  C314 1714   5.275   0.877   4.055
   13SAPS  H14X 1715   5.368   0.834   4.012
   13SAPS  H14Y 1716   5.206   0.790   4.051
   13SAPS  C315 1717   5.288   0.908   4.200
   13SAPS  H15X 1718   5.370   0.977   4.228
   13SAPS  H15Y 1719   5.292   0.814   4.260
   13SAPS  C316 1720   5.158   0.973   4.250
   13SAPS  H16X 1721   5.073   0.921   4.201
   13SAPS  H16Y 1722   5.148   1.080   4.221
   13SAPS  C317 1723   5.150   0.971   4.400
   13SAPS  H17X 1724   5.241   1.005   4.455
   13SAPS  H17Y 1725   5.152   0.864   4.429
   13SAPS  C318 1726   5.029   1.036   4.461
   13SAPS  H18X 1727   5.050   1.145   4.457
   13SAPS  H18Y 1728   5.016   1.002   4.566
   13SAPS  H18Z 1729   4.942   1.017   4.394
   14SAPS     N 1730   5.986   3.447   2.430
   14SAPS   HN1 1731   6.043   3.458   2.517
   14SAPS   HN2 1732   5.891   3.429   2.469
   14SAPS   HN3 1733   6.011   3.358   2.383
   14SAPS   C12 1734   5.989   3.553   2.329
   14SAPS  H12A 1735   5.972   3.640   2.391
   14SAPS   C13 1736   6.127   3.560   2.264
   14SAPS  O13A 1737   6.213   3.461   2.262
   14SAPS  O13B 1738   6.145   3.662   2.194
   14SAPS   C11 1739   5.875   3.529   2.229
   14SAPS  H11A 1740   5.887   3.439   2.165
   14SAPS  H11B 1741   5.869   3.617   2.161
   14SAPS     P 1742   5.610   3.539   2.236
   14SAPS   O13 1743   5.622   3.576   2.098
   14SAPS   O14 1744   5.547   3.409   2.256
   14SAPS   O12 1745   5.750   3.522   2.305
   14SAPS   O11 1746   5.527   3.652   2.318
   14SAPS    C1 1747   5.609   3.751   2.388
   14SAPS    HA 1748   5.713   3.755   2.350
   14SAPS    HB 1749   5.569   3.853   2.371
   14SAPS    C2 1750   5.603   3.721   2.540
   14SAPS    HS 1751   5.670   3.635   2.561
   14SAPS   O21 1752   5.469   3.707   2.579
   14SAPS   C21 1753   5.427   3.585   2.613
   14SAPS   O22 1754   5.497   3.487   2.628
   14SAPS   C22 1755   5.280   3.606   2.644
   14SAPS   H2R 1756   5.274   3.648   2.747
   14SAPS   H2S 1757   5.249   3.681   2.568
   14SAPS    C3 1758   5.656   3.843   2.615
   14SAPS    HX 1759   5.606   3.936   2.579
   14SAPS    HY 1760   5.764   3.859   2.592
   14SAPS   O31 1761   5.634   3.826   2.759
   14SAPS   C31 1762   5.718   3.746   2.820
   14SAPS   O32 1763   5.816   3.688   2.771
   14SAPS   C32 1764   5.679   3.735   2.968
   14SAPS   H2X 1765   5.633   3.833   2.991
   14SAPS   H2Y 1766   5.780   3.718   3.011
   14SAPS   C23 1767   5.197   3.481   2.634
   14SAPS   H3R 1768   5.239   3.402   2.568
   14SAPS   H3S 1769   5.103   3.510   2.583
   14SAPS   C24 1770   5.152   3.417   2.760
   14SAPS   H4R 1771   5.087   3.327   2.750
   14SAPS   H4S 1772   5.090   3.484   2.822
   14SAPS   C25 1773   5.273   3.367   2.837
   14SAPS   H5R 1774   5.346   3.310   2.777
   14SAPS   C26 1775   5.302   3.401   2.961
   14SAPS   H6R 1776   5.397   3.358   2.998
   14SAPS   C27 1777   5.214   3.459   3.062
   14SAPS   H7R 1778   5.127   3.507   3.012
   14SAPS   H7S 1779   5.263   3.540   3.120
   14SAPS   C28 1780   5.165   3.343   3.150
   14SAPS   H8R 1781   5.119   3.259   3.095
   14SAPS   C29 1782   5.165   3.341   3.281
   14SAPS   H9R 1783   5.123   3.252   3.329
   14SAPS  C210 1784   5.207   3.461   3.370
   14SAPS  H10R 1785   5.314   3.489   3.361
   14SAPS  H10S 1786   5.211   3.426   3.475
   14SAPS  C211 1787   5.122   3.586   3.369
   14SAPS  H11R 1788   5.133   3.637   3.272
   14SAPS  C212 1789   5.053   3.636   3.468
   14SAPS  H12R 1790   5.014   3.738   3.457
   14SAPS  C213 1791   5.028   3.580   3.604
   14SAPS  H13R 1792   5.082   3.633   3.685
   14SAPS  H13S 1793   5.060   3.474   3.607
   14SAPS  C214 1794   4.875   3.576   3.632
   14SAPS  H14R 1795   4.828   3.490   3.582
   14SAPS  C215 1796   4.798   3.657   3.696
   14SAPS  H15R 1797   4.689   3.641   3.696
   14SAPS  C216 1798   4.848   3.772   3.776
   14SAPS  H16R 1799   4.805   3.865   3.732
   14SAPS  H16S 1800   4.958   3.784   3.790
   14SAPS  C217 1801   4.784   3.775   3.922
   14SAPS  H17R 1802   4.821   3.686   3.978
   14SAPS  H17S 1803   4.676   3.758   3.908
   14SAPS  C218 1804   4.815   3.910   3.986
   14SAPS  H18R 1805   4.746   3.982   3.938
   14SAPS  H18S 1806   4.913   3.959   3.969
   14SAPS  C219 1807   4.805   3.897   4.138
   14SAPS  H19R 1808   4.715   3.848   4.180
   14SAPS  H19S 1809   4.791   4.004   4.167
   14SAPS  C220 1810   4.926   3.840   4.210
   14SAPS  H20R 1811   4.953   3.744   4.161
   14SAPS  H20S 1812   4.892   3.810   4.311
   14SAPS  H20T 1813   5.012   3.910   4.221
   14SAPS   C33 1814   5.587   3.617   2.998
   14SAPS   H3X 1815   5.615   3.535   2.928
   14SAPS   H3Y 1816   5.481   3.637   2.972
   14SAPS   C34 1817   5.599   3.570   3.142
   14SAPS   H4X 1818   5.708   3.552   3.156
   14SAPS   H4Y 1819   5.553   3.469   3.149
   14SAPS   C35 1820   5.557   3.660   3.252
   14SAPS   H5X 1821   5.449   3.682   3.242
   14SAPS   H5Y 1822   5.614   3.754   3.236
   14SAPS   C36 1823   5.584   3.593   3.388
   14SAPS   H6X 1824   5.519   3.504   3.396
   14SAPS   H6Y 1825   5.547   3.660   3.469
   14SAPS   C37 1826   5.739   3.574   3.421
   14SAPS   H7X 1827   5.799   3.663   3.397
   14SAPS   H7Y 1828   5.785   3.495   3.357
   14SAPS   C38 1829   5.772   3.547   3.565
   14SAPS   H8X 1830   5.750   3.637   3.627
   14SAPS   H8Y 1831   5.881   3.527   3.575
   14SAPS   C39 1832   5.701   3.429   3.621
   14SAPS   H9X 1833   5.732   3.342   3.560
   14SAPS   H9Y 1834   5.590   3.436   3.612
   14SAPS  C310 1835   5.726   3.413   3.771
   14SAPS  H10X 1836   5.834   3.417   3.796
   14SAPS  H10Y 1837   5.702   3.308   3.797
   14SAPS  C311 1838   5.633   3.503   3.855
   14SAPS  H11X 1839   5.529   3.488   3.818
   14SAPS  H11Y 1840   5.655   3.605   3.815
   14SAPS  C312 1841   5.648   3.518   4.007
   14SAPS  H12X 1842   5.620   3.418   4.046
   14SAPS  H12Y 1843   5.583   3.600   4.046
   14SAPS  C313 1844   5.791   3.561   4.041
   14SAPS  H13X 1845   5.808   3.657   3.989
   14SAPS  H13Y 1846   5.866   3.489   4.001
   14SAPS  C314 1847   5.818   3.571   4.183
   14SAPS  H14X 1848   5.737   3.633   4.226
   14SAPS  H14Y 1849   5.911   3.623   4.213
   14SAPS  C315 1850   5.834   3.435   4.260
   14SAPS  H15X 1851   5.918   3.378   4.215
   14SAPS  H15Y 1852   5.749   3.368   4.234
   14SAPS  C316 1853   5.840   3.471   4.408
   14SAPS  H16X 1854   5.769   3.551   4.439
   14SAPS  H16Y 1855   5.944   3.509   4.419
   14SAPS  C317 1856   5.818   3.357   4.511
   14SAPS  H17X 1857   5.835   3.402   4.612
   14SAPS  H17Y 1858   5.892   3.274   4.505
   14SAPS  C318 1859   5.675   3.306   4.526
   14SAPS  H18X 1860   5.655   3.219   4.459
   14SAPS  H18Y 1861   5.603   3.385   4.500
   14SAPS  H18Z 1862   5.666   3.272   4.632
   15SAPS     N 1863   3.694   3.264   1.693
   15SAPS   HN1 1864   3.593   3.286   1.697
   15SAPS   HN2 1865   3.749   3.351   1.676
   15SAPS   HN3 1866   3.711   3.202   1.612
   15SAPS   C12 1867   3.742   3.211   1.829
   15SAPS  H12A 1868   3.706   3.275   1.909
   15SAPS   C13 1869   3.698   3.066   1.856
   15SAPS  O13A 1870   3.628   3.004   1.772
   15SAPS  O13B 1871   3.743   3.010   1.961
   15SAPS   C11 1872   3.899   3.202   1.813
   15SAPS  H11A 1873   3.928   3.143   1.724
   15SAPS  H11B 1874   3.941   3.160   1.907
   15SAPS     P 1875   4.050   3.390   1.906
   15SAPS   O13 1876   4.178   3.328   1.871
   15SAPS   O14 1877   4.056   3.539   1.901
   15SAPS   O12 1878   3.945   3.337   1.808
   15SAPS   O11 1879   4.000   3.346   2.050
   15SAPS    C1 1880   3.883   3.395   2.115
   15SAPS    HA 1881   3.845   3.477   2.050
   15SAPS    HB 1882   3.812   3.310   2.112
   15SAPS    C2 1883   3.919   3.442   2.258
   15SAPS    HS 1884   3.968   3.542   2.253
   15SAPS   O21 1885   3.998   3.349   2.329
   15SAPS   C21 1886   4.125   3.350   2.316
   15SAPS   O22 1887   4.192   3.438   2.260
   15SAPS   C22 1888   4.181   3.248   2.405
   15SAPS   H2R 1889   4.168   3.291   2.507
   15SAPS   H2S 1890   4.104   3.169   2.395
   15SAPS    C3 1891   3.792   3.475   2.342
   15SAPS    HX 1892   3.737   3.380   2.358
   15SAPS    HY 1893   3.715   3.529   2.283
   15SAPS   O31 1894   3.820   3.548   2.462
   15SAPS   C31 1895   3.858   3.474   2.561
   15SAPS   O32 1896   3.850   3.350   2.564
   15SAPS   C32 1897   3.912   3.565   2.672
   15SAPS   H2X 1898   4.007   3.524   2.713
   15SAPS   H2Y 1899   3.843   3.557   2.759
   15SAPS   C23 1900   4.321   3.194   2.374
   15SAPS   H3R 1901   4.399   3.272   2.367
   15SAPS   H3S 1902   4.313   3.169   2.266
   15SAPS   C24 1903   4.369   3.073   2.459
   15SAPS   H4R 1904   4.435   3.016   2.390
   15SAPS   H4S 1905   4.286   3.001   2.472
   15SAPS   C25 1906   4.445   3.094   2.586
   15SAPS   H5R 1907   4.540   3.149   2.575
   15SAPS   C26 1908   4.399   3.057   2.711
   15SAPS   H6R 1909   4.457   3.096   2.796
   15SAPS   C27 1910   4.266   2.997   2.742
   15SAPS   H7R 1911   4.278   2.936   2.835
   15SAPS   H7S 1912   4.243   2.928   2.658
   15SAPS   C28 1913   4.156   3.104   2.751
   15SAPS   H8R 1914   4.113   3.138   2.655
   15SAPS   C29 1915   4.098   3.147   2.865
   15SAPS   H9R 1916   4.032   3.235   2.867
   15SAPS  C210 1917   4.124   3.098   3.004
   15SAPS  H10R 1918   4.188   3.007   3.000
   15SAPS  H10S 1919   4.037   3.065   3.066
   15SAPS  C211 1920   4.199   3.216   3.066
   15SAPS  H11R 1921   4.251   3.280   2.993
   15SAPS  C212 1922   4.205   3.238   3.204
   15SAPS  H12R 1923   4.270   3.321   3.237
   15SAPS  C213 1924   4.124   3.159   3.304
   15SAPS  H13R 1925   4.190   3.090   3.360
   15SAPS  H13S 1926   4.053   3.087   3.257
   15SAPS  C214 1927   4.032   3.237   3.394
   15SAPS  H14R 1928   3.926   3.229   3.367
   15SAPS  C215 1929   4.066   3.310   3.502
   15SAPS  H15R 1930   3.979   3.336   3.564
   15SAPS  C216 1931   4.208   3.331   3.546
   15SAPS  H16R 1932   4.243   3.420   3.489
   15SAPS  H16S 1933   4.268   3.246   3.507
   15SAPS  C217 1934   4.239   3.345   3.689
   15SAPS  H17R 1935   4.187   3.268   3.751
   15SAPS  H17S 1936   4.215   3.447   3.725
   15SAPS  C218 1937   4.388   3.332   3.724
   15SAPS  H18R 1938   4.462   3.371   3.651
   15SAPS  H18S 1939   4.407   3.225   3.745
   15SAPS  C219 1940   4.433   3.393   3.865
   15SAPS  H19R 1941   4.380   3.337   3.946
   15SAPS  H19S 1942   4.406   3.499   3.881
   15SAPS  C220 1943   4.585   3.371   3.883
   15SAPS  H20R 1944   4.607   3.412   3.984
   15SAPS  H20S 1945   4.645   3.413   3.800
   15SAPS  H20T 1946   4.609   3.263   3.881
   15SAPS   C33 1947   3.923   3.711   2.628
   15SAPS   H3X 1948   3.815   3.737   2.630
   15SAPS   H3Y 1949   3.962   3.731   2.526
   15SAPS   C34 1950   4.009   3.801   2.724
   15SAPS   H4X 1951   3.996   3.909   2.700
   15SAPS   H4Y 1952   4.118   3.782   2.718
   15SAPS   C35 1953   3.959   3.782   2.866
   15SAPS   H5X 1954   3.981   3.678   2.898
   15SAPS   H5Y 1955   3.849   3.796   2.872
   15SAPS   C36 1956   4.003   3.880   2.977
   15SAPS   H6X 1957   3.964   3.978   2.939
   15SAPS   H6Y 1958   4.114   3.894   2.977
   15SAPS   C37 1959   3.949   3.845   3.118
   15SAPS   H7X 1960   3.997   3.748   3.143
   15SAPS   H7Y 1961   3.839   3.831   3.127
   15SAPS   C38 1962   3.991   3.954   3.222
   15SAPS   H8X 1963   3.950   4.051   3.185
   15SAPS   H8Y 1964   4.101   3.956   3.207
   15SAPS   C39 1965   3.957   3.909   3.361
   15SAPS   H9X 1966   4.004   3.809   3.368
   15SAPS   H9Y 1967   3.848   3.890   3.376
   15SAPS  C310 1968   4.011   4.013   3.466
   15SAPS  H10X 1969   3.963   4.109   3.438
   15SAPS  H10Y 1970   4.119   4.030   3.446
   15SAPS  C311 1971   3.982   3.985   3.616
   15SAPS  H11X 1972   4.014   3.883   3.644
   15SAPS  H11Y 1973   3.873   3.994   3.635
   15SAPS  C312 1974   4.054   4.081   3.710
   15SAPS  H12X 1975   4.015   4.181   3.681
   15SAPS  H12Y 1976   4.164   4.073   3.700
   15SAPS  C313 1977   4.027   4.053   3.849
   15SAPS  H13X 1978   4.022   3.945   3.872
   15SAPS  H13Y 1979   3.919   4.073   3.868
   15SAPS  C314 1980   4.116   4.148   3.932
   15SAPS  H14X 1981   4.102   4.253   3.898
   15SAPS  H14Y 1982   4.225   4.136   3.916
   15SAPS  C315 1983   4.085   4.141   4.083
   15SAPS  H15X 1984   4.173   4.179   4.138
   15SAPS  H15Y 1985   4.065   4.035   4.109
   15SAPS  C316 1986   3.962   4.233   4.114
   15SAPS  H16X 1987   3.886   4.214   4.036
   15SAPS  H16Y 1988   3.994   4.339   4.104
   15SAPS  C317 1989   3.897   4.225   4.259
   15SAPS  H17X 1990   3.974   4.269   4.326
   15SAPS  H17Y 1991   3.894   4.124   4.305
   15SAPS  C318 1992   3.755   4.279   4.272
   15SAPS  H18X 1993   3.678   4.234   4.205
   15SAPS  H18Y 1994   3.754   4.389   4.259
   15SAPS  H18Z 1995   3.721   4.265   4.377
   16SAPS     N 1996   6.172   3.824   1.990
   16SAPS   HN1 1997   6.208   3.895   2.057
   16SAPS   HN2 1998   6.164   3.734   2.042
   16SAPS   HN3 1999   6.244   3.818   1.916
   16SAPS   C12 2000   6.045   3.862   1.936
   16SAPS  H12A 2001   6.074   3.920   1.850
   16SAPS   C13 2002   5.970   3.746   1.874
   16SAPS  O13A 2003   6.024   3.632   1.858
   16SAPS  O13B 2004   5.871   3.777   1.808
   16SAPS   C11 2005   5.955   3.935   2.048
   16SAPS  H11A 2006   5.940   3.867   2.134
   16SAPS  H11B 2007   5.853   3.959   2.011
   16SAPS     P 2008   6.019   4.177   1.969
   16SAPS   O13 2009   6.152   4.180   1.902
   16SAPS   O14 2010   5.896   4.161   1.885
   16SAPS   O12 2011   6.018   4.063   2.086
   16SAPS   O11 2012   6.008   4.308   2.055
   16SAPS    C1 2013   5.889   4.341   2.132
   16SAPS    HA 2014   5.835   4.428   2.089
   16SAPS    HB 2015   5.816   4.258   2.128
   16SAPS    C2 2016   5.924   4.375   2.278
   16SAPS    HS 2017   6.012   4.443   2.282
   16SAPS   O21 2018   5.939   4.254   2.352
   16SAPS   C21 2019   6.059   4.196   2.362
   16SAPS   O22 2020   6.161   4.238   2.313
   16SAPS   C22 2021   6.044   4.055   2.424
   16SAPS   H2R 2022   5.936   4.042   2.442
   16SAPS   H2S 2023   6.086   3.979   2.355
   16SAPS    C3 2024   5.810   4.459   2.343
   16SAPS    HX 2025   5.720   4.399   2.319
   16SAPS    HY 2026   5.794   4.551   2.282
   16SAPS   O31 2027   5.826   4.477   2.488
   16SAPS   C31 2028   5.783   4.380   2.564
   16SAPS   O32 2029   5.731   4.278   2.529
   16SAPS   C32 2030   5.802   4.412   2.716
   16SAPS   H2X 2031   5.752   4.507   2.742
   16SAPS   H2Y 2032   5.911   4.433   2.710
   16SAPS   C23 2033   6.130   4.041   2.555
   16SAPS   H3R 2034   6.104   4.114   2.635
   16SAPS   H3S 2035   6.235   4.057   2.523
   16SAPS   C24 2036   6.097   3.907   2.618
   16SAPS   H4R 2037   6.117   3.837   2.535
   16SAPS   H4S 2038   5.991   3.897   2.649
   16SAPS   C25 2039   6.190   3.878   2.740
   16SAPS   H5R 2040   6.294   3.853   2.712
   16SAPS   C26 2041   6.147   3.878   2.863
   16SAPS   H6R 2042   6.223   3.851   2.938
   16SAPS   C27 2043   6.021   3.925   2.927
   16SAPS   H7R 2044   5.984   3.843   2.993
   16SAPS   H7S 2045   5.945   3.934   2.846
   16SAPS   C28 2046   6.015   4.064   2.988
   16SAPS   H8R 2047   6.021   4.155   2.927
   16SAPS   C29 2048   6.013   4.088   3.117
   16SAPS   H9R 2049   6.025   4.192   3.152
   16SAPS  C210 2050   6.008   3.999   3.236
   16SAPS  H10R 2051   6.081   4.022   3.317
   16SAPS  H10S 2052   6.027   3.893   3.208
   16SAPS  C211 2053   5.869   4.002   3.298
   16SAPS  H11R 2054   5.789   4.028   3.227
   16SAPS  C212 2055   5.840   3.991   3.431
   16SAPS  H12R 2056   5.735   3.993   3.462
   16SAPS  C213 2057   5.942   3.986   3.548
   16SAPS  H13R 2058   5.928   4.070   3.620
   16SAPS  H13S 2059   6.048   3.998   3.518
   16SAPS  C214 2060   5.942   3.856   3.623
   16SAPS  H14R 2061   5.860   3.790   3.591
   16SAPS  C215 2062   6.005   3.833   3.738
   16SAPS  H15R 2063   6.000   3.733   3.785
   16SAPS  C216 2064   6.101   3.937   3.789
   16SAPS  H16R 2065   6.148   4.006   3.716
   16SAPS  H16S 2066   6.182   3.869   3.823
   16SAPS  C217 2067   6.060   4.012   3.918
   16SAPS  H17R 2068   5.990   4.092   3.885
   16SAPS  H17S 2069   6.150   4.073   3.939
   16SAPS  C218 2070   6.014   3.925   4.033
   16SAPS  H18R 2071   6.080   3.836   4.041
   16SAPS  H18S 2072   5.917   3.875   4.012
   16SAPS  C219 2073   6.003   3.990   4.174
   16SAPS  H19R 2074   5.957   3.915   4.242
   16SAPS  H19S 2075   5.927   4.071   4.179
   16SAPS  C220 2076   6.134   4.034   4.241
   16SAPS  H20R 2077   6.178   4.116   4.180
   16SAPS  H20S 2078   6.211   3.956   4.259
   16SAPS  H20T 2079   6.108   4.070   4.342
   16SAPS   C33 2080   5.763   4.296   2.803
   16SAPS   H3X 2081   5.839   4.216   2.789
   16SAPS   H3Y 2082   5.660   4.259   2.782
   16SAPS   C34 2083   5.750   4.325   2.958
   16SAPS   H4X 2084   5.852   4.343   2.999
   16SAPS   H4Y 2085   5.712   4.237   3.014
   16SAPS   C35 2086   5.643   4.434   2.991
   16SAPS   H5X 2087   5.549   4.401   2.944
   16SAPS   H5Y 2088   5.674   4.535   2.955
   16SAPS   C36 2089   5.613   4.462   3.135
   16SAPS   H6X 2090   5.556   4.557   3.124
   16SAPS   H6Y 2091   5.700   4.506   3.189
   16SAPS   C37 2092   5.552   4.348   3.231
   16SAPS   H7X 2093   5.602   4.251   3.209
   16SAPS   H7Y 2094   5.446   4.343   3.199
   16SAPS   C38 2095   5.556   4.382   3.375
   16SAPS   H8X 2096   5.489   4.320   3.439
   16SAPS   H8Y 2097   5.521   4.487   3.387
   16SAPS   C39 2098   5.700   4.363   3.428
   16SAPS   H9X 2099   5.773   4.416   3.363
   16SAPS   H9Y 2100   5.729   4.256   3.419
   16SAPS  C310 2101   5.718   4.402   3.577
   16SAPS  H10X 2102   5.688   4.505   3.604
   16SAPS  H10Y 2103   5.822   4.400   3.613
   16SAPS  C311 2104   5.650   4.302   3.670
   16SAPS  H11X 2105   5.670   4.195   3.647
   16SAPS  H11Y 2106   5.540   4.310   3.660
   16SAPS  C312 2107   5.686   4.324   3.819
   16SAPS  H12X 2108   5.659   4.427   3.851
   16SAPS  H12Y 2109   5.795   4.306   3.807
   16SAPS  C313 2110   5.629   4.222   3.918
   16SAPS  H13X 2111   5.647   4.116   3.888
   16SAPS  H13Y 2112   5.519   4.226   3.932
   16SAPS  C314 2113   5.710   4.224   4.046
   16SAPS  H14X 2114   5.821   4.230   4.034
   16SAPS  H14Y 2115   5.690   4.131   4.103
   16SAPS  C315 2116   5.669   4.343   4.138
   16SAPS  H15X 2117   5.559   4.357   4.146
   16SAPS  H15Y 2118   5.712   4.432   4.089
   16SAPS  C316 2119   5.719   4.337   4.286
   16SAPS  H16X 2120   5.829   4.322   4.283
   16SAPS  H16Y 2121   5.688   4.244   4.340
   16SAPS  C317 2122   5.697   4.466   4.367
   16SAPS  H17X 2123   5.589   4.463   4.395
   16SAPS  H17Y 2124   5.716   4.552   4.300
   16SAPS  C318 2125   5.791   4.495   4.491
   16SAPS  H18X 2126   5.835   4.400   4.528
   16SAPS  H18Y 2127   5.732   4.545   4.571
   16SAPS  H18Z 2128   5.871   4.561   4.450
   17SAPS     N 2129   1.446   2.090   1.773
   17SAPS   HN1 2130   1.384   2.014   1.737
   17SAPS   HN2 2131   1.386   2.160   1.822
   17SAPS   HN3 2132   1.507   2.132   1.700
   17SAPS   C12 2133   1.543   2.034   1.877
   17SAPS  H12A 2134   1.585   1.945   1.832
   17SAPS   C13 2135   1.669   2.129   1.887
   17SAPS  O13A 2136   1.676   2.227   1.809
   17SAPS  O13B 2137   1.761   2.085   1.962
   17SAPS   C11 2138   1.477   2.013   2.006
   17SAPS  H11A 2139   1.434   2.110   2.038
   17SAPS  H11B 2140   1.544   1.987   2.091
   17SAPS     P 2141   1.361   1.767   2.018
   17SAPS   O13 2142   1.237   1.704   1.966
   17SAPS   O14 2143   1.486   1.703   1.967
   17SAPS   O12 2144   1.366   1.923   1.994
   17SAPS   O11 2145   1.358   1.757   2.175
   17SAPS    C1 2146   1.369   1.863   2.270
   17SAPS    HA 2147   1.466   1.916   2.257
   17SAPS    HB 2148   1.290   1.938   2.245
   17SAPS    C2 2149   1.348   1.814   2.412
   17SAPS    HS 2150   1.342   1.906   2.475
   17SAPS   O21 2151   1.447   1.711   2.449
   17SAPS   C21 2152   1.559   1.762   2.502
   17SAPS   O22 2153   1.580   1.882   2.513
   17SAPS   C22 2154   1.626   1.648   2.586
   17SAPS   H2R 2155   1.587   1.655   2.689
   17SAPS   H2S 2156   1.588   1.547   2.559
   17SAPS    C3 2157   1.199   1.762   2.416
   17SAPS    HX 2158   1.199   1.668   2.357
   17SAPS    HY 2159   1.129   1.832   2.365
   17SAPS   O31 2160   1.158   1.728   2.548
   17SAPS   C31 2161   1.100   1.823   2.604
   17SAPS   O32 2162   1.088   1.940   2.563
   17SAPS   C32 2163   1.029   1.763   2.725
   17SAPS   H2X 2164   1.097   1.687   2.768
   17SAPS   H2Y 2165   0.928   1.722   2.701
   17SAPS   C23 2166   1.779   1.655   2.594
   17SAPS   H3R 2167   1.821   1.692   2.498
   17SAPS   H3S 2168   1.826   1.558   2.623
   17SAPS   C24 2169   1.833   1.747   2.707
   17SAPS   H4R 2170   1.832   1.693   2.805
   17SAPS   H4S 2171   1.769   1.838   2.715
   17SAPS   C25 2172   1.967   1.794   2.667
   17SAPS   H5R 2173   1.975   1.812   2.559
   17SAPS   C26 2174   2.077   1.808   2.742
   17SAPS   H6R 2175   2.165   1.849   2.691
   17SAPS   C27 2176   2.098   1.795   2.893
   17SAPS   H7R 2177   2.208   1.806   2.902
   17SAPS   H7S 2178   2.056   1.695   2.920
   17SAPS   C28 2179   2.031   1.897   2.980
   17SAPS   H8R 2180   1.964   1.969   2.930
   17SAPS   C29 2181   2.030   1.908   3.116
   17SAPS   H9R 2182   1.971   1.988   3.163
   17SAPS  C210 2183   2.096   1.806   3.202
   17SAPS  H10R 2184   2.204   1.795   3.178
   17SAPS  H10S 2185   2.057   1.703   3.187
   17SAPS  C211 2186   2.084   1.823   3.351
   17SAPS  H11R 2187   2.016   1.899   3.391
   17SAPS  C212 2188   2.151   1.746   3.441
   17SAPS  H12R 2189   2.142   1.766   3.549
   17SAPS  C213 2190   2.242   1.633   3.398
   17SAPS  H13R 2191   2.328   1.631   3.468
   17SAPS  H13S 2192   2.287   1.640   3.297
   17SAPS  C214 2193   2.180   1.499   3.410
   17SAPS  H14R 2194   2.093   1.493   3.476
   17SAPS  C215 2195   2.218   1.393   3.334
   17SAPS  H15R 2196   2.168   1.297   3.349
   17SAPS  C216 2197   2.326   1.378   3.229
   17SAPS  H16R 2198   2.403   1.307   3.267
   17SAPS  H16S 2199   2.390   1.464   3.201
   17SAPS  C217 2200   2.267   1.302   3.109
   17SAPS  H17R 2201   2.213   1.208   3.131
   17SAPS  H17S 2202   2.363   1.277   3.059
   17SAPS  C218 2203   2.188   1.391   3.017
   17SAPS  H18R 2204   2.241   1.487   2.997
   17SAPS  H18S 2205   2.096   1.426   3.068
   17SAPS  C219 2206   2.131   1.323   2.895
   17SAPS  H19R 2207   2.068   1.238   2.927
   17SAPS  H19S 2208   2.211   1.280   2.831
   17SAPS  C220 2209   2.051   1.422   2.790
   17SAPS  H20R 2210   1.972   1.472   2.851
   17SAPS  H20S 2211   1.996   1.356   2.720
   17SAPS  H20T 2212   2.118   1.500   2.747
   17SAPS   C33 2213   1.012   1.887   2.825
   17SAPS   H3X 2214   0.933   1.956   2.788
   17SAPS   H3Y 2215   1.104   1.944   2.848
   17SAPS   C34 2216   0.951   1.838   2.959
   17SAPS   H4X 2217   1.020   1.753   2.980
   17SAPS   H4Y 2218   0.846   1.804   2.949
   17SAPS   C35 2219   0.948   1.944   3.076
   17SAPS   H5X 2220   0.911   2.043   3.042
   17SAPS   H5Y 2221   1.049   1.966   3.119
   17SAPS   C36 2222   0.861   1.909   3.190
   17SAPS   H6X 2223   0.890   1.813   3.238
   17SAPS   H6Y 2224   0.755   1.900   3.157
   17SAPS   C37 2225   0.869   2.015   3.299
   17SAPS   H7X 2226   0.816   2.105   3.259
   17SAPS   H7Y 2227   0.974   2.049   3.312
   17SAPS   C38 2228   0.826   1.979   3.441
   17SAPS   H8X 2229   0.860   1.884   3.487
   17SAPS   H8Y 2230   0.717   1.979   3.420
   17SAPS   C39 2231   0.859   2.093   3.531
   17SAPS   H9X 2232   0.782   2.089   3.611
   17SAPS   H9Y 2233   0.835   2.186   3.476
   17SAPS  C310 2234   1.001   2.085   3.590
   17SAPS  H10X 2235   1.077   2.091   3.509
   17SAPS  H10Y 2236   1.005   1.991   3.649
   17SAPS  C311 2237   1.033   2.208   3.672
   17SAPS  H11X 2238   1.044   2.293   3.601
   17SAPS  H11Y 2239   1.135   2.203   3.716
   17SAPS  C312 2240   0.931   2.259   3.778
   17SAPS  H12X 2241   0.840   2.302   3.730
   17SAPS  H12Y 2242   0.981   2.344   3.830
   17SAPS  C313 2243   0.898   2.149   3.880
   17SAPS  H13X 2244   0.988   2.106   3.928
   17SAPS  H13Y 2245   0.846   2.067   3.825
   17SAPS  C314 2246   0.812   2.195   3.999
   17SAPS  H14X 2247   0.708   2.215   3.968
   17SAPS  H14Y 2248   0.860   2.288   4.037
   17SAPS  C315 2249   0.804   2.091   4.111
   17SAPS  H15X 2250   0.908   2.052   4.121
   17SAPS  H15Y 2251   0.738   2.004   4.090
   17SAPS  C316 2252   0.770   2.157   4.241
   17SAPS  H16X 2253   0.662   2.183   4.235
   17SAPS  H16Y 2254   0.824   2.254   4.234
   17SAPS  C317 2255   0.800   2.069   4.364
   17SAPS  H17X 2256   0.777   2.134   4.451
   17SAPS  H17Y 2257   0.907   2.037   4.360
   17SAPS  C318 2258   0.716   1.941   4.370
   17SAPS  H18X 2259   0.735   1.886   4.464
   17SAPS  H18Y 2260   0.732   1.868   4.287
   17SAPS  H18Z 2261   0.607   1.960   4.373
   18SAPS     N 2262   4.290   2.628   2.309
   18SAPS   HN1 2263   4.222   2.706   2.309
   18SAPS   HN2 2264   4.351   2.623   2.393
   18SAPS   HN3 2265   4.355   2.648   2.230
   18SAPS   C12 2266   4.247   2.487   2.294
   18SAPS  H12A 2267   4.158   2.467   2.352
   18SAPS   C13 2268   4.222   2.434   2.161
   18SAPS  O13A 2269   4.244   2.502   2.055
   18SAPS  O13B 2270   4.174   2.318   2.149
   18SAPS   C11 2271   4.355   2.400   2.357
   18SAPS  H11A 2272   4.447   2.393   2.295
   18SAPS  H11B 2273   4.320   2.296   2.374
   18SAPS     P 2274   4.354   2.408   2.625
   18SAPS   O13 2275   4.310   2.269   2.612
   18SAPS   O14 2276   4.474   2.436   2.705
   18SAPS   O12 2277   4.388   2.461   2.485
   18SAPS   O11 2278   4.239   2.504   2.674
   18SAPS    C1 2279   4.257   2.612   2.765
   18SAPS    HA 2280   4.344   2.675   2.739
   18SAPS    HB 2281   4.172   2.682   2.757
   18SAPS    C2 2282   4.254   2.561   2.915
   18SAPS    HS 2283   4.346   2.506   2.944
   18SAPS   O21 2284   4.132   2.491   2.935
   18SAPS   C21 2285   4.145   2.363   2.973
   18SAPS   O22 2286   4.253   2.301   2.983
   18SAPS   C22 2287   4.006   2.306   2.997
   18SAPS   H2R 2288   3.940   2.391   3.025
   18SAPS   H2S 2289   3.967   2.264   2.902
   18SAPS    C3 2290   4.257   2.680   3.018
   18SAPS    HX 2291   4.161   2.735   3.010
   18SAPS    HY 2292   4.335   2.749   2.979
   18SAPS   O31 2293   4.285   2.638   3.150
   18SAPS   C31 2294   4.376   2.713   3.215
   18SAPS   O32 2295   4.444   2.800   3.160
   18SAPS   C32 2296   4.389   2.673   3.359
   18SAPS   H2X 2297   4.432   2.570   3.360
   18SAPS   H2Y 2298   4.300   2.684   3.424
   18SAPS   C23 2299   4.004   2.194   3.102
   18SAPS   H3R 2300   4.091   2.128   3.081
   18SAPS   H3S 2301   3.911   2.136   3.087
   18SAPS   C24 2302   3.997   2.257   3.240
   18SAPS   H4R 2303   3.906   2.317   3.264
   18SAPS   H4S 2304   4.078   2.331   3.259
   18SAPS   C25 2305   4.022   2.150   3.342
   18SAPS   H5R 2306   4.025   2.048   3.302
   18SAPS   C26 2307   4.016   2.169   3.482
   18SAPS   H6R 2308   4.006   2.082   3.549
   18SAPS   C27 2309   4.016   2.293   3.560
   18SAPS   H7R 2310   3.970   2.270   3.658
   18SAPS   H7S 2311   3.938   2.360   3.516
   18SAPS   C28 2312   4.155   2.369   3.581
   18SAPS   H8R 2313   4.193   2.416   3.489
   18SAPS   C29 2314   4.233   2.384   3.691
   18SAPS   H9R 2315   4.323   2.446   3.686
   18SAPS  C210 2316   4.197   2.326   3.824
   18SAPS  H10R 2317   4.290   2.289   3.871
   18SAPS  H10S 2318   4.125   2.242   3.811
   18SAPS  C211 2319   4.146   2.419   3.923
   18SAPS  H11R 2320   4.099   2.506   3.875
   18SAPS  C212 2321   4.172   2.414   4.057
   18SAPS  H12R 2322   4.135   2.494   4.123
   18SAPS  C213 2323   4.254   2.303   4.123
   18SAPS  H13R 2324   4.259   2.212   4.060
   18SAPS  H13S 2325   4.189   2.258   4.202
   18SAPS  C214 2326   4.392   2.342   4.177
   18SAPS  H14R 2327   4.455   2.417   4.128
   18SAPS  C215 2328   4.450   2.296   4.291
   18SAPS  H15R 2329   4.547   2.341   4.316
   18SAPS  C216 2330   4.400   2.192   4.386
   18SAPS  H16R 2331   4.457   2.098   4.371
   18SAPS  H16S 2332   4.297   2.168   4.352
   18SAPS  C217 2333   4.385   2.238   4.528
   18SAPS  H17R 2334   4.315   2.324   4.536
   18SAPS  H17S 2335   4.486   2.267   4.562
   18SAPS  C218 2336   4.317   2.133   4.617
   18SAPS  H18R 2337   4.385   2.046   4.617
   18SAPS  H18S 2338   4.223   2.099   4.568
   18SAPS  C219 2339   4.300   2.190   4.754
   18SAPS  H19R 2340   4.210   2.255   4.753
   18SAPS  H19S 2341   4.389   2.249   4.786
   18SAPS  C220 2342   4.269   2.092   4.868
   18SAPS  H20R 2343   4.172   2.042   4.850
   18SAPS  H20S 2344   4.264   2.130   4.972
   18SAPS  H20T 2345   4.344   2.009   4.867
   18SAPS   C33 2346   4.502   2.760   3.425
   18SAPS   H3X 2347   4.471   2.866   3.413
   18SAPS   H3Y 2348   4.598   2.749   3.371
   18SAPS   C34 2349   4.515   2.736   3.578
   18SAPS   H4X 2350   4.417   2.725   3.630
   18SAPS   H4Y 2351   4.558   2.831   3.615
   18SAPS   C35 2352   4.603   2.622   3.612
   18SAPS   H5X 2353   4.694   2.630   3.548
   18SAPS   H5Y 2354   4.553   2.526   3.586
   18SAPS   C36 2355   4.644   2.603   3.762
   18SAPS   H6X 2356   4.555   2.593   3.828
   18SAPS   H6Y 2357   4.688   2.697   3.801
   18SAPS   C37 2358   4.754   2.497   3.789
   18SAPS   H7X 2359   4.856   2.535   3.767
   18SAPS   H7Y 2360   4.733   2.411   3.723
   18SAPS   C38 2361   4.740   2.463   3.939
   18SAPS   H8X 2362   4.635   2.430   3.952
   18SAPS   H8Y 2363   4.765   2.554   3.998
   18SAPS   C39 2364   4.839   2.353   3.991
   18SAPS   H9X 2365   4.941   2.381   3.959
   18SAPS   H9Y 2366   4.812   2.258   3.939
   18SAPS  C310 2367   4.816   2.356   4.142
   18SAPS  H10X 2368   4.711   2.328   4.162
   18SAPS  H10Y 2369   4.845   2.450   4.194
   18SAPS  C311 2370   4.902   2.250   4.209
   18SAPS  H11X 2371   4.925   2.167   4.139
   18SAPS  H11Y 2372   4.853   2.210   4.300
   18SAPS  C312 2373   5.044   2.304   4.235
   18SAPS  H12X 2374   5.067   2.370   4.149
   18SAPS  H12Y 2375   5.123   2.226   4.226
   18SAPS  C313 2376   5.053   2.372   4.373
   18SAPS  H13X 2377   5.017   2.309   4.456
   18SAPS  H13Y 2378   4.994   2.466   4.366
   18SAPS  C314 2379   5.201   2.407   4.410
   18SAPS  H14X 2380   5.254   2.437   4.318
   18SAPS  H14Y 2381   5.251   2.311   4.439
   18SAPS  C315 2382   5.228   2.507   4.526
   18SAPS  H15X 2383   5.155   2.590   4.518
   18SAPS  H15Y 2384   5.330   2.552   4.519
   18SAPS  C316 2385   5.203   2.447   4.660
   18SAPS  H16X 2386   5.293   2.389   4.690
   18SAPS  H16Y 2387   5.107   2.392   4.655
   18SAPS  C317 2388   5.196   2.565   4.756
   18SAPS  H17X 2389   5.119   2.642   4.735
   18SAPS  H17Y 2390   5.296   2.614   4.755
   18SAPS  C318 2391   5.158   2.507   4.891
   18SAPS  H18X 2392   5.240   2.446   4.935
   18SAPS  H18Y 2393   5.063   2.450   4.878
   18SAPS  H18Z 2394   5.134   2.588   4.964
   19SAPS     N 2395   3.811   4.562   1.964
   19SAPS   HN1 2396   3.864   4.544   2.052
   19SAPS   HN2 2397   3.727   4.611   2.001
   19SAPS   HN3 2398   3.789   4.471   1.919
   19SAPS   C12 2399   3.887   4.657   1.880
   19SAPS  H12A 2400   3.963   4.606   1.822
   19SAPS   C13 2401   3.796   4.742   1.782
   19SAPS  O13A 2402   3.680   4.703   1.746
   19SAPS  O13B 2403   3.862   4.818   1.706
   19SAPS   C11 2404   3.951   4.764   1.975
   19SAPS  H11A 2405   3.867   4.802   2.037
   19SAPS  H11B 2406   3.993   4.843   1.910
   19SAPS     P 2407   4.203   4.734   2.037
   19SAPS   O13 2408   4.242   4.631   1.930
   19SAPS   O14 2409   4.233   4.874   2.014
   19SAPS   O12 2410   4.051   4.710   2.062
   19SAPS   O11 2411   4.258   4.683   2.182
   19SAPS    C1 2412   4.241   4.543   2.208
   19SAPS    HA 2413   4.132   4.526   2.224
   19SAPS    HB 2414   4.267   4.479   2.121
   19SAPS    C2 2415   4.295   4.508   2.353
   19SAPS    HS 2416   4.267   4.407   2.389
   19SAPS   O21 2417   4.250   4.617   2.439
   19SAPS   C21 2418   4.135   4.587   2.500
   19SAPS   O22 2419   4.072   4.483   2.496
   19SAPS   C22 2420   4.100   4.698   2.593
   19SAPS   H2R 2421   4.172   4.706   2.677
   19SAPS   H2S 2422   4.105   4.787   2.527
   19SAPS    C3 2423   4.452   4.505   2.357
   19SAPS    HX 2424   4.471   4.603   2.308
   19SAPS    HY 2425   4.494   4.425   2.293
   19SAPS   O31 2426   4.488   4.480   2.492
   19SAPS   C31 2427   4.560   4.578   2.551
   19SAPS   O32 2428   4.604   4.679   2.502
   19SAPS   C32 2429   4.568   4.545   2.700
   19SAPS   H2X 2430   4.598   4.440   2.719
   19SAPS   H2Y 2431   4.472   4.564   2.754
   19SAPS   C23 2432   3.953   4.692   2.647
   19SAPS   H3R 2433   3.959   4.605   2.716
   19SAPS   H3S 2434   3.898   4.677   2.552
   19SAPS   C24 2435   3.900   4.819   2.712
   19SAPS   H4R 2436   3.891   4.890   2.627
   19SAPS   H4S 2437   3.972   4.861   2.786
   19SAPS   C25 2438   3.764   4.793   2.783
   19SAPS   H5R 2439   3.677   4.776   2.719
   19SAPS   C26 2440   3.748   4.801   2.913
   19SAPS   H6R 2441   3.650   4.770   2.952
   19SAPS   C27 2442   3.860   4.793   3.020
   19SAPS   H7R 2443   3.956   4.757   2.976
   19SAPS   H7S 2444   3.828   4.709   3.084
   19SAPS   C28 2445   3.890   4.915   3.090
   19SAPS   H8R 2446   3.947   4.980   3.022
   19SAPS   C29 2447   3.863   4.956   3.213
   19SAPS   H9R 2448   3.904   5.054   3.241
   19SAPS  C210 2449   3.777   4.889   3.313
   19SAPS  H10R 2450   3.840   4.836   3.388
   19SAPS  H10S 2451   3.722   4.809   3.259
   19SAPS  C211 2452   3.674   4.988   3.361
   19SAPS  H11R 2453   3.673   5.074   3.293
   19SAPS  C212 2454   3.603   5.002   3.479
   19SAPS  H12R 2455   3.533   5.085   3.498
   19SAPS  C213 2456   3.598   4.909   3.600
   19SAPS  H13R 2457   3.589   4.801   3.577
   19SAPS  H13S 2458   3.504   4.928   3.656
   19SAPS  C214 2459   3.717   4.925   3.679
   19SAPS  H14R 2460   3.808   4.889   3.628
   19SAPS  C215 2461   3.722   4.962   3.813
   19SAPS  H15R 2462   3.816   4.949   3.869
   19SAPS  C216 2463   3.603   5.003   3.899
   19SAPS  H16R 2464   3.512   5.022   3.838
   19SAPS  H16S 2465   3.623   5.102   3.945
   19SAPS  C217 2466   3.574   4.903   4.008
   19SAPS  H17R 2467   3.659   4.885   4.077
   19SAPS  H17S 2468   3.545   4.811   3.954
   19SAPS  C218 2469   3.457   4.958   4.099
   19SAPS  H18R 2470   3.370   4.934   4.034
   19SAPS  H18S 2471   3.460   5.068   4.105
   19SAPS  C219 2472   3.458   4.897   4.235
   19SAPS  H19R 2473   3.387   4.956   4.297
   19SAPS  H19S 2474   3.546   4.930   4.295
   19SAPS  C220 2475   3.437   4.752   4.250
   19SAPS  H20R 2476   3.523   4.709   4.194
   19SAPS  H20S 2477   3.347   4.709   4.202
   19SAPS  H20T 2478   3.429   4.741   4.360
   19SAPS   C33 2479   4.672   4.633   2.765
   19SAPS   H3X 2480   4.639   4.739   2.758
   19SAPS   H3Y 2481   4.773   4.626   2.720
   19SAPS   C34 2482   4.660   4.618   2.918
   19SAPS   H4X 2483   4.691   4.512   2.932
   19SAPS   H4Y 2484   4.554   4.616   2.952
   19SAPS   C35 2485   4.738   4.704   3.013
   19SAPS   H5X 2486   4.702   4.809   3.003
   19SAPS   H5Y 2487   4.844   4.683   2.990
   19SAPS   C36 2488   4.710   4.668   3.165
   19SAPS   H6X 2489   4.755   4.573   3.199
   19SAPS   H6Y 2490   4.600   4.665   3.183
   19SAPS   C37 2491   4.754   4.791   3.251
   19SAPS   H7X 2492   4.696   4.879   3.217
   19SAPS   H7Y 2493   4.861   4.819   3.240
   19SAPS   C38 2494   4.711   4.758   3.399
   19SAPS   H8X 2495   4.618   4.697   3.406
   19SAPS   H8Y 2496   4.699   4.856   3.450
   19SAPS   C39 2497   4.819   4.667   3.463
   19SAPS   H9X 2498   4.916   4.720   3.479
   19SAPS   H9Y 2499   4.839   4.579   3.399
   19SAPS  C310 2500   4.776   4.607   3.598
   19SAPS  H10X 2501   4.838   4.517   3.619
   19SAPS  H10Y 2502   4.671   4.575   3.586
   19SAPS  C311 2503   4.813   4.701   3.708
   19SAPS  H11X 2504   4.756   4.795   3.694
   19SAPS  H11Y 2505   4.920   4.730   3.707
   19SAPS  C312 2506   4.774   4.642   3.846
   19SAPS  H12X 2507   4.848   4.567   3.882
   19SAPS  H12Y 2508   4.672   4.599   3.851
   19SAPS  C313 2509   4.787   4.759   3.945
   19SAPS  H13X 2510   4.731   4.731   4.037
   19SAPS  H13Y 2511   4.738   4.852   3.908
   19SAPS  C314 2512   4.937   4.795   3.978
   19SAPS  H14X 2513   4.979   4.819   3.878
   19SAPS  H14Y 2514   4.989   4.713   4.031
   19SAPS  C315 2515   4.942   4.914   4.067
   19SAPS  H15X 2516   4.878   4.993   4.023
   19SAPS  H15Y 2517   5.047   4.949   4.081
   19SAPS  C316 2518   4.894   4.888   4.211
   19SAPS  H16X 2519   4.821   4.805   4.211
   19SAPS  H16Y 2520   4.854   4.983   4.252
   19SAPS  C317 2521   5.003   4.834   4.307
   19SAPS  H17X 2522   5.088   4.905   4.303
   19SAPS  H17Y 2523   5.037   4.735   4.273
   19SAPS  C318 2524   4.939   4.827   4.450
   19SAPS  H18X 2525   4.922   4.928   4.492
   19SAPS  H18Y 2526   5.008   4.779   4.523
   19SAPS  H18Z 2527   4.838   4.779   4.452
   20SAPS     N 2528   4.890   5.158   2.038
   20SAPS   HN1 2529   4.976   5.215   2.027
   20SAPS   HN2 2530   4.877   5.144   2.140
   20SAPS   HN3 2531   4.911   5.063   1.999
   20SAPS   C12 2532   4.778   5.214   1.954
   20SAPS  H12A 2533   4.829   5.257   1.869
   20SAPS   C13 2534   4.678   5.105   1.906
   20SAPS  O13A 2535   4.697   4.983   1.944
   20SAPS  O13B 2536   4.568   5.139   1.858
   20SAPS   C11 2537   4.712   5.334   2.018
   20SAPS  H11A 2538   4.677   5.305   2.119
   20SAPS  H11B 2539   4.627   5.368   1.956
   20SAPS     P 2540   4.744   5.594   2.061
   20SAPS   O13 2541   4.854   5.698   2.033
   20SAPS   O14 2542   4.625   5.603   1.978
   20SAPS   O12 2543   4.805   5.447   2.038
   20SAPS   O11 2544   4.707   5.598   2.216
   20SAPS    C1 2545   4.793   5.597   2.327
   20SAPS    HA 2546   4.745   5.550   2.416
   20SAPS    HB 2547   4.888   5.547   2.298
   20SAPS    C2 2548   4.844   5.739   2.364
   20SAPS    HS 2549   4.924   5.759   2.290
   20SAPS   O21 2550   4.898   5.724   2.491
   20SAPS   C21 2551   4.975   5.814   2.539
   20SAPS   O22 2552   5.012   5.914   2.474
   20SAPS   C22 2553   5.024   5.765   2.674
   20SAPS   H2R 2554   4.966   5.681   2.715
   20SAPS   H2S 2555   5.133   5.744   2.663
   20SAPS    C3 2556   4.741   5.853   2.357
   20SAPS    HX 2557   4.722   5.880   2.251
   20SAPS    HY 2558   4.765   5.954   2.396
   20SAPS   O31 2559   4.613   5.818   2.420
   20SAPS   C31 2560   4.596   5.837   2.541
   20SAPS   O32 2561   4.667   5.904   2.614
   20SAPS   C32 2562   4.452   5.797   2.586
   20SAPS   H2X 2563   4.401   5.759   2.494
   20SAPS   H2Y 2564   4.393   5.889   2.609
   20SAPS   C23 2565   4.996   5.875   2.784
   20SAPS   H3R 2566   4.887   5.898   2.789
   20SAPS   H3S 2567   5.048   5.969   2.759
   20SAPS   C24 2568   5.039   5.845   2.936
   20SAPS   H4R 2569   5.150   5.854   2.937
   20SAPS   H4S 2570   5.001   5.742   2.947
   20SAPS   C25 2571   4.970   5.935   3.035
   20SAPS   H5R 2572   4.903   6.013   2.996
   20SAPS   C26 2573   4.984   5.942   3.170
   20SAPS   H6R 2574   4.914   6.005   3.226
   20SAPS   C27 2575   5.072   5.855   3.250
   20SAPS   H7R 2576   5.151   5.922   3.288
   20SAPS   H7S 2577   5.123   5.783   3.182
   20SAPS   C28 2578   5.006   5.791   3.367
   20SAPS   H8R 2579   4.921   5.723   3.348
   20SAPS   C29 2580   5.021   5.827   3.496
   20SAPS   H9R 2581   4.965   5.766   3.569
   20SAPS  C210 2582   5.104   5.935   3.561
   20SAPS  H10R 2583   5.170   5.993   3.492
   20SAPS  H10S 2584   5.180   5.877   3.618
   20SAPS  C211 2585   5.032   6.025   3.657
   20SAPS  H11R 2586   4.997   6.113   3.601
   20SAPS  C212 2587   5.016   6.019   3.793
   20SAPS  H12R 2588   4.960   6.106   3.829
   20SAPS  C213 2589   5.052   5.900   3.876
   20SAPS  H13R 2590   5.117   5.939   3.957
   20SAPS  H13S 2591   5.115   5.829   3.820
   20SAPS  C214 2592   4.930   5.828   3.916
   20SAPS  H14R 2593   4.866   5.799   3.831
   20SAPS  C215 2594   4.900   5.784   4.042
   20SAPS  H15R 2595   4.809   5.724   4.055
   20SAPS  C216 2596   4.983   5.804   4.164
   20SAPS  H16R 2597   5.007   5.909   4.191
   20SAPS  H16S 2598   5.075   5.744   4.149
   20SAPS  C217 2599   4.929   5.744   4.297
   20SAPS  H17R 2600   5.004   5.750   4.379
   20SAPS  H17S 2601   4.915   5.635   4.278
   20SAPS  C218 2602   4.810   5.825   4.340
   20SAPS  H18R 2603   4.729   5.789   4.272
   20SAPS  H18S 2604   4.824   5.934   4.331
   20SAPS  C219 2605   4.771   5.797   4.477
   20SAPS  H19R 2606   4.770   5.687   4.490
   20SAPS  H19S 2607   4.669   5.838   4.491
   20SAPS  C220 2608   4.859   5.856   4.589
   20SAPS  H20R 2609   4.953   5.797   4.593
   20SAPS  H20S 2610   4.811   5.853   4.689
   20SAPS  H20T 2611   4.885   5.963   4.579
   20SAPS   C33 2612   4.439   5.696   2.699
   20SAPS   H3X 2613   4.474   5.739   2.795
   20SAPS   H3Y 2614   4.507   5.612   2.673
   20SAPS   C34 2615   4.295   5.653   2.709
   20SAPS   H4X 2616   4.273   5.600   2.614
   20SAPS   H4Y 2617   4.243   5.752   2.712
   20SAPS   C35 2618   4.267   5.560   2.830
   20SAPS   H5X 2619   4.352   5.489   2.840
   20SAPS   H5Y 2620   4.179   5.498   2.804
   20SAPS   C36 2621   4.247   5.641   2.958
   20SAPS   H6X 2622   4.184   5.732   2.944
   20SAPS   H6Y 2623   4.336   5.697   2.995
   20SAPS   C37 2624   4.200   5.557   3.071
   20SAPS   H7X 2625   4.235   5.452   3.065
   20SAPS   H7Y 2626   4.089   5.559   3.076
   20SAPS   C38 2627   4.246   5.599   3.210
   20SAPS   H8X 2628   4.217   5.700   3.247
   20SAPS   H8Y 2629   4.356   5.595   3.225
   20SAPS   C39 2630   4.192   5.497   3.311
   20SAPS   H9X 2631   4.243   5.399   3.302
   20SAPS   H9Y 2632   4.090   5.473   3.275
   20SAPS  C310 2633   4.190   5.544   3.461
   20SAPS  H10X 2634   4.126   5.634   3.468
   20SAPS  H10Y 2635   4.296   5.569   3.486
   20SAPS  C311 2636   4.133   5.444   3.562
   20SAPS  H11X 2637   4.207   5.361   3.569
   20SAPS  H11Y 2638   4.030   5.407   3.541
   20SAPS  C312 2639   4.124   5.509   3.706
   20SAPS  H12X 2640   4.083   5.612   3.706
   20SAPS  H12Y 2641   4.229   5.527   3.737
   20SAPS  C313 2642   4.050   5.426   3.815
   20SAPS  H13X 2643   3.949   5.410   3.772
   20SAPS  H13Y 2644   4.032   5.479   3.911
   20SAPS  C314 2645   4.096   5.283   3.836
   20SAPS  H14X 2646   4.194   5.287   3.887
   20SAPS  H14Y 2647   4.111   5.237   3.736
   20SAPS  C315 2648   4.005   5.182   3.914
   20SAPS  H15X 2649   4.056   5.083   3.919
   20SAPS  H15Y 2650   3.914   5.169   3.851
   20SAPS  C316 2651   3.958   5.228   4.050
   20SAPS  H16X 2652   3.898   5.321   4.053
   20SAPS  H16Y 2653   4.045   5.234   4.119
   20SAPS  C317 2654   3.870   5.119   4.131
   20SAPS  H17X 2655   3.923   5.026   4.098
   20SAPS  H17Y 2656   3.770   5.107   4.085
   20SAPS  C318 2657   3.868   5.131   4.285
   20SAPS  H18X 2658   3.820   5.225   4.319
   20SAPS  H18Y 2659   3.972   5.133   4.324
   20SAPS  H18Z 2660   3.824   5.040   4.331
   21CHL1    C3 2661   1.569   3.934   5.597
   21CHL1    H3 2662   1.662   3.987   5.629
   21CHL1    O3 2663   1.539   3.844   5.702
   21CHL1   H3' 2664   1.452   3.807   5.685
   21CHL1    C4 2665   1.461   4.037   5.602
   21CHL1   H4A 2666   1.358   3.997   5.591
   21CHL1   H4B 2667   1.463   4.083   5.703
   21CHL1    C5 2668   1.477   4.145   5.490
   21CHL1    C6 2669   1.484   4.280   5.523
   21CHL1    H6 2670   1.463   4.307   5.628
   21CHL1    C7 2671   1.504   4.386   5.418
   21CHL1   H7A 2672   1.438   4.473   5.437
   21CHL1   H7B 2673   1.604   4.428   5.442
   21CHL1    C8 2674   1.489   4.336   5.273
   21CHL1    H8 2675   1.380   4.324   5.253
   21CHL1   C14 2676   1.555   4.436   5.170
   21CHL1   H14 2677   1.664   4.417   5.179
   21CHL1   C15 2678   1.519   4.579   5.189
   21CHL1  H15A 2679   1.408   4.579   5.196
   21CHL1  H15B 2680   1.573   4.629   5.272
   21CHL1   C16 2681   1.548   4.638   5.050
   21CHL1  H16A 2682   1.457   4.682   5.004
   21CHL1  H16B 2683   1.638   4.704   5.056
   21CHL1   C17 2684   1.591   4.524   4.957
   21CHL1   H17 2685   1.701   4.514   4.972
   21CHL1   C13 2686   1.531   4.402   5.022
   21CHL1   C18 2687   1.384   4.386   4.990
   21CHL1  H18A 2688   1.340   4.486   5.008
   21CHL1  H18B 2689   1.375   4.370   4.880
   21CHL1  H18C 2690   1.332   4.315   5.058
   21CHL1   C12 2691   1.600   4.266   5.000
   21CHL1  H12A 2692   1.589   4.219   4.900
   21CHL1  H12B 2693   1.706   4.268   5.033
   21CHL1   C11 2694   1.545   4.154   5.098
   21CHL1  H11A 2695   1.438   4.130   5.078
   21CHL1  H11B 2696   1.613   4.067   5.082
   21CHL1    C9 2697   1.547   4.198   5.248
   21CHL1    H9 2698   1.652   4.201   5.284
   21CHL1   C10 2699   1.496   4.089   5.353
   21CHL1   C19 2700   1.366   4.033   5.298
   21CHL1  H19A 2701   1.321   3.955   5.362
   21CHL1  H19B 2702   1.291   4.111   5.275
   21CHL1  H19C 2703   1.381   3.972   5.206
   21CHL1    C1 2704   1.603   3.974   5.358
   21CHL1   H1A 2705   1.636   3.945   5.256
   21CHL1   H1B 2706   1.695   4.022   5.396
   21CHL1    C2 2707   1.584   3.863   5.462
   21CHL1   H2A 2708   1.680   3.806   5.464
   21CHL1   H2B 2709   1.502   3.793   5.435
   21CHL1   C20 2710   1.561   4.543   4.800
   21CHL1   H20 2711   1.453   4.540   4.776
   21CHL1   C21 2712   1.625   4.429   4.717
   21CHL1  H21A 2713   1.731   4.410   4.741
   21CHL1  H21B 2714   1.608   4.442   4.608
   21CHL1  H21C 2715   1.574   4.336   4.748
   21CHL1   C22 2716   1.613   4.682   4.757
   21CHL1  H22A 2717   1.543   4.753   4.806
   21CHL1  H22B 2718   1.711   4.690   4.808
   21CHL1   C23 2719   1.616   4.713   4.600
   21CHL1  H23A 2720   1.664   4.809   4.574
   21CHL1  H23B 2721   1.678   4.637   4.549
   21CHL1   C24 2722   1.474   4.710   4.548
   21CHL1  H24A 2723   1.443   4.604   4.563
   21CHL1  H24B 2724   1.411   4.770   4.617
   21CHL1   C25 2725   1.465   4.751   4.405
   21CHL1   H25 2726   1.529   4.841   4.404
   21CHL1   C26 2727   1.509   4.647   4.302
   21CHL1  H26A 2728   1.496   4.686   4.198
   21CHL1  H26B 2729   1.615   4.615   4.305
   21CHL1  H26C 2730   1.450   4.554   4.311
   21CHL1   C27 2731   1.323   4.801   4.356
   21CHL1  H27A 2732   1.255   4.718   4.384
   21CHL1  H27B 2733   1.299   4.902   4.397
   21CHL1  H27C 2734   1.327   4.812   4.245
   22CHL1    C3 2735   2.372   1.925   6.024
   22CHL1    H3 2736   2.383   2.035   6.035
   22CHL1    O3 2737   2.419   1.860   6.143
   22CHL1   H3' 2738   2.412   1.768   6.117
   22CHL1    C4 2739   2.227   1.891   6.001
   22CHL1   H4A 2740   2.215   1.780   6.002
   22CHL1   H4B 2741   2.170   1.918   6.092
   22CHL1    C5 2742   2.152   1.927   5.883
   22CHL1    C6 2743   2.031   1.994   5.878
   22CHL1    H6 2744   1.984   2.021   5.974
   22CHL1    C7 2745   1.952   2.030   5.754
   22CHL1   H7A 2746   1.845   1.999   5.748
   22CHL1   H7B 2747   1.943   2.140   5.749
   22CHL1    C8 2748   2.020   1.972   5.625
   22CHL1    H8 2749   1.985   1.866   5.620
   22CHL1   C14 2750   1.971   2.047   5.498
   22CHL1   H14 2751   2.005   2.151   5.519
   22CHL1   C15 2752   1.817   2.066   5.470
   22CHL1  H15A 2753   1.760   1.974   5.494
   22CHL1  H15B 2754   1.784   2.146   5.539
   22CHL1   C16 2755   1.802   2.096   5.316
   22CHL1  H16A 2756   1.747   2.015   5.264
   22CHL1  H16B 2757   1.771   2.198   5.285
   22CHL1   C17 2758   1.949   2.087   5.261
   22CHL1   H17 2759   1.989   2.190   5.268
   22CHL1   C13 2760   2.029   2.003   5.371
   22CHL1   C18 2761   2.001   1.848   5.352
   22CHL1  H18A 2762   2.041   1.783   5.433
   22CHL1  H18B 2763   1.895   1.818   5.346
   22CHL1  H18C 2764   2.043   1.814   5.255
   22CHL1   C12 2765   2.185   2.019   5.370
   22CHL1  H12A 2766   2.229   1.985   5.274
   22CHL1  H12B 2767   2.207   2.127   5.374
   22CHL1   C11 2768   2.237   1.943   5.486
   22CHL1  H11A 2769   2.231   1.836   5.458
   22CHL1  H11B 2770   2.345   1.963   5.503
   22CHL1    C9 2771   2.174   1.976   5.628
   22CHL1    H9 2772   2.190   2.084   5.648
   22CHL1   C10 2773   2.234   1.898   5.748
   22CHL1   C19 2774   2.227   1.745   5.718
   22CHL1  H19A 2775   2.320   1.713   5.667
   22CHL1  H19B 2776   2.223   1.690   5.814
   22CHL1  H19C 2777   2.135   1.727   5.658
   22CHL1    C1 2778   2.376   1.948   5.768
   22CHL1   H1A 2779   2.441   1.927   5.681
   22CHL1   H1B 2780   2.361   2.055   5.795
   22CHL1    C2 2781   2.443   1.886   5.891
   22CHL1   H2A 2782   2.547   1.926   5.894
   22CHL1   H2B 2783   2.444   1.776   5.878
   22CHL1   C20 2784   1.950   2.048   5.109
   22CHL1   H20 2785   1.900   1.949   5.109
   22CHL1   C21 2786   2.094   2.034   5.057
   22CHL1  H21A 2787   2.155   2.114   5.103
   22CHL1  H21B 2788   2.103   2.037   4.946
   22CHL1  H21C 2789   2.146   1.942   5.092
   22CHL1   C22 2790   1.860   2.142   5.029
   22CHL1  H22A 2791   1.750   2.129   5.044
   22CHL1  H22B 2792   1.875   2.242   5.076
   22CHL1   C23 2793   1.879   2.121   4.884
   22CHL1  H23A 2794   1.968   2.183   4.859
   22CHL1  H23B 2795   1.897   2.013   4.864
   22CHL1   C24 2796   1.760   2.167   4.792
   22CHL1  H24A 2797   1.674   2.115   4.837
   22CHL1  H24B 2798   1.752   2.278   4.802
   22CHL1   C25 2799   1.796   2.133   4.649
   22CHL1   H25 2800   1.816   2.023   4.645
   22CHL1   C26 2801   1.674   2.166   4.561
   22CHL1  H26A 2802   1.592   2.100   4.598
   22CHL1  H26B 2803   1.653   2.272   4.587
   22CHL1  H26C 2804   1.691   2.161   4.452
   22CHL1   C27 2805   1.932   2.196   4.596
   22CHL1  H27A 2806   1.959   2.168   4.492
   22CHL1  H27B 2807   1.918   2.304   4.618
   22CHL1  H27C 2808   2.015   2.160   4.660
   23CHL1    C3 2809   0.864   3.636   5.692
   23CHL1    H3 2810   0.759   3.623   5.659
   23CHL1    O3 2811   0.875   3.599   5.828
   23CHL1   H3' 2812   0.964   3.622   5.855
   23CHL1    C4 2813   0.976   3.573   5.607
   23CHL1   H4A 2814   1.064   3.606   5.665
   23CHL1   H4B 2815   0.953   3.465   5.621
   23CHL1    C5 2816   0.969   3.622   5.461
   23CHL1    C6 2817   0.973   3.527   5.367
   23CHL1    H6 2818   0.988   3.422   5.396
   23CHL1    C7 2819   0.961   3.550   5.219
   23CHL1   H7A 2820   1.041   3.497   5.162
   23CHL1   H7B 2821   0.864   3.518   5.176
   23CHL1    C8 2822   0.982   3.700   5.181
   23CHL1    H8 2823   1.092   3.708   5.191
   23CHL1   C14 2824   0.943   3.732   5.044
   23CHL1   H14 2825   0.832   3.722   5.045
   23CHL1   C15 2826   0.978   3.635   4.927
   23CHL1  H15A 2827   1.072   3.579   4.946
   23CHL1  H15B 2828   0.898   3.558   4.923
   23CHL1   C16 2829   0.964   3.721   4.797
   23CHL1  H16A 2830   1.069   3.726   4.760
   23CHL1  H16B 2831   0.907   3.674   4.714
   23CHL1   C17 2832   0.913   3.856   4.844
   23CHL1   H17 2833   0.803   3.843   4.852
   23CHL1   C13 2834   0.958   3.876   4.993
   23CHL1   C18 2835   1.105   3.913   4.983
   23CHL1  H18A 2836   1.125   4.015   4.944
   23CHL1  H18B 2837   1.146   3.913   5.086
   23CHL1  H18C 2838   1.174   3.844   4.929
   23CHL1   C12 2839   0.876   3.961   5.088
   23CHL1  H12A 2840   0.889   4.065   5.052
   23CHL1  H12B 2841   0.768   3.937   5.074
   23CHL1   C11 2842   0.917   3.947   5.238
   23CHL1  H11A 2843   1.014   3.998   5.259
   23CHL1  H11B 2844   0.837   3.992   5.300
   23CHL1    C9 2845   0.917   3.797   5.282
   23CHL1    H9 2846   0.810   3.767   5.275
   23CHL1   C10 2847   0.961   3.770   5.428
   23CHL1   C19 2848   1.106   3.818   5.454
   23CHL1  H19A 2849   1.178   3.745   5.412
   23CHL1  H19B 2850   1.127   3.916   5.405
   23CHL1  H19C 2851   1.132   3.834   5.561
   23CHL1    C1 2852   0.863   3.837   5.530
   23CHL1   H1A 2853   0.879   3.947   5.520
   23CHL1   H1B 2854   0.757   3.816   5.508
   23CHL1    C2 2855   0.884   3.794   5.680
   23CHL1   H2A 2856   0.793   3.823   5.736
   23CHL1   H2B 2857   0.972   3.838   5.732
   23CHL1   C20 2858   0.931   3.979   4.751
   23CHL1   H20 2859   0.906   4.076   4.798
   23CHL1   C21 2860   0.818   3.958   4.643
   23CHL1  H21A 2861   0.838   3.875   4.573
   23CHL1  H21B 2862   0.800   4.043   4.574
   23CHL1  H21C 2863   0.719   3.930   4.685
   23CHL1   C22 2864   1.064   3.992   4.680
   23CHL1  H22A 2865   1.159   3.978   4.735
   23CHL1  H22B 2866   1.058   3.911   4.605
   23CHL1   C23 2867   1.077   4.128   4.606
   23CHL1  H23A 2868   0.983   4.146   4.550
   23CHL1  H23B 2869   1.073   4.216   4.675
   23CHL1   C24 2870   1.196   4.147   4.522
   23CHL1  H24A 2871   1.292   4.130   4.575
   23CHL1  H24B 2872   1.202   4.065   4.447
   23CHL1   C25 2873   1.212   4.290   4.454
   23CHL1   H25 2874   1.303   4.285   4.390
   23CHL1   C26 2875   1.087   4.333   4.376
   23CHL1  H26A 2876   1.044   4.253   4.313
   23CHL1  H26B 2877   1.006   4.360   4.447
   23CHL1  H26C 2878   1.106   4.414   4.301
   23CHL1   C27 2879   1.245   4.405   4.555
   23CHL1  H27A 2880   1.250   4.498   4.493
   23CHL1  H27B 2881   1.163   4.401   4.629
   23CHL1  H27C 2882   1.341   4.394   4.609
   24CHL1    C3 2883   3.341   4.645   6.007
   24CHL1    H3 2884   3.387   4.741   5.974
   24CHL1    O3 2885   3.371   4.637   6.145
   24CHL1   H3' 2886   3.350   4.548   6.176
   24CHL1    C4 2887   3.193   4.646   5.977
   24CHL1   H4A 2888   3.144   4.554   6.014
   24CHL1   H4B 2889   3.156   4.731   6.038
   24CHL1    C5 2890   3.173   4.666   5.823
   24CHL1    C6 2891   3.102   4.774   5.770
   24CHL1    H6 2892   3.050   4.841   5.840
   24CHL1    C7 2893   3.072   4.791   5.622
   24CHL1   H7A 2894   2.963   4.783   5.603
   24CHL1   H7B 2895   3.110   4.886   5.577
   24CHL1    C8 2896   3.137   4.678   5.537
   24CHL1    H8 2897   3.066   4.592   5.528
   24CHL1   C14 2898   3.149   4.730   5.395
   24CHL1   H14 2899   3.209   4.823   5.403
   24CHL1   C15 2900   3.024   4.782   5.325
   24CHL1  H15A 2901   2.936   4.718   5.348
   24CHL1  H15B 2902   2.990   4.882   5.358
   24CHL1   C16 2903   3.056   4.776   5.178
   24CHL1  H16A 2904   2.980   4.711   5.130
   24CHL1  H16B 2905   3.054   4.873   5.123
   24CHL1   C17 2906   3.192   4.707   5.165
   24CHL1   H17 2907   3.262   4.792   5.176
   24CHL1   C13 2908   3.210   4.629   5.296
   24CHL1   C18 2909   3.123   4.503   5.276
   24CHL1  H18A 2910   3.156   4.423   5.207
   24CHL1  H18B 2911   3.113   4.452   5.374
   24CHL1  H18C 2912   3.023   4.541   5.246
   24CHL1   C12 2913   3.354   4.598   5.344
   24CHL1  H12A 2914   3.413   4.529   5.281
   24CHL1  H12B 2915   3.404   4.697   5.349
   24CHL1   C11 2916   3.343   4.539   5.489
   24CHL1  H11A 2917   3.303   4.436   5.483
   24CHL1  H11B 2918   3.446   4.538   5.530
   24CHL1    C9 2919   3.270   4.628   5.598
   24CHL1    H9 2920   3.342   4.713   5.603
   24CHL1   C10 2921   3.252   4.566   5.736
   24CHL1   C19 2922   3.167   4.434   5.727
   24CHL1  H19A 2923   3.166   4.394   5.830
   24CHL1  H19B 2924   3.060   4.442   5.699
   24CHL1  H19C 2925   3.225   4.371   5.656
   24CHL1    C1 2926   3.392   4.526   5.790
   24CHL1   H1A 2927   3.434   4.429   5.754
   24CHL1   H1B 2928   3.457   4.608   5.752
   24CHL1    C2 2929   3.405   4.528   5.939
   24CHL1   H2A 2930   3.512   4.513   5.963
   24CHL1   H2B 2931   3.356   4.438   5.982
   24CHL1   C20 2932   3.201   4.642   5.025
   24CHL1   H20 2933   3.142   4.548   5.028
   24CHL1   C21 2934   3.355   4.614   5.002
   24CHL1  H21A 2935   3.401   4.540   5.070
   24CHL1  H21B 2936   3.412   4.709   5.013
   24CHL1  H21C 2937   3.374   4.587   4.896
   24CHL1   C22 2938   3.130   4.716   4.909
   24CHL1  H22A 2939   3.020   4.710   4.917
   24CHL1  H22B 2940   3.162   4.821   4.926
   24CHL1   C23 2941   3.166   4.670   4.767
   24CHL1  H23A 2942   3.272   4.696   4.745
   24CHL1  H23B 2943   3.152   4.561   4.753
   24CHL1   C24 2944   3.072   4.716   4.653
   24CHL1  H24A 2945   3.102   4.677   4.553
   24CHL1  H24B 2946   2.971   4.676   4.676
   24CHL1   C25 2947   3.058   4.873   4.646
   24CHL1   H25 2948   3.048   4.910   4.750
   24CHL1   C26 2949   3.184   4.934   4.583
   24CHL1  H26A 2950   3.217   4.867   4.501
   24CHL1  H26B 2951   3.180   5.041   4.556
   24CHL1  H26C 2952   3.263   4.928   4.662
   24CHL1   C27 2953   2.933   4.922   4.569
   24CHL1  H27A 2954   2.844   4.869   4.608
   24CHL1  H27B 2955   2.923   5.032   4.567
   24CHL1  H27C 2956   2.935   4.889   4.462
   25CHL1    C3 2957   6.173   5.958   5.775
   25CHL1    H3 2958   6.233   6.047   5.750
   25CHL1    O3 2959   6.122   5.962   5.909
   25CHL1   H3' 2960   6.050   5.899   5.899
   25CHL1    C4 2961   6.055   5.957   5.673
   25CHL1   H4A 2962   6.003   5.861   5.693
   25CHL1   H4B 2963   5.977   6.036   5.685
   25CHL1    C5 2964   6.103   5.953   5.527
   25CHL1    C6 2965   6.056   6.041   5.444
   25CHL1    H6 2966   5.976   6.114   5.466
   25CHL1    C7 2967   6.074   6.040   5.296
   25CHL1   H7A 2968   5.981   6.053   5.236
   25CHL1   H7B 2969   6.129   6.134   5.271
   25CHL1    C8 2970   6.151   5.914   5.253
   25CHL1    H8 2971   6.084   5.827   5.246
   25CHL1   C14 2972   6.216   5.934   5.110
   25CHL1   H14 2973   6.287   6.012   5.143
   25CHL1   C15 2974   6.129   5.998   5.000
   25CHL1  H15A 2975   6.030   5.950   5.013
   25CHL1  H15B 2976   6.114   6.107   5.014
   25CHL1   C16 2977   6.213   5.961   4.870
   25CHL1  H16A 2978   6.150   5.891   4.810
   25CHL1  H16B 2979   6.227   6.052   4.808
   25CHL1   C17 2980   6.341   5.885   4.915
   25CHL1   H17 2981   6.405   5.971   4.941
   25CHL1   C13 2982   6.304   5.815   5.046
   25CHL1   C18 2983   6.214   5.695   5.008
   25CHL1  H18A 2984   6.172   5.701   4.906
   25CHL1  H18B 2985   6.267   5.598   5.022
   25CHL1  H18C 2986   6.137   5.714   5.086
   25CHL1   C12 2987   6.403   5.787   5.153
   25CHL1  H12A 2988   6.452   5.692   5.123
   25CHL1  H12B 2989   6.479   5.868   5.161
   25CHL1   C11 2990   6.340   5.755   5.292
   25CHL1  H11A 2991   6.274   5.667   5.279
   25CHL1  H11B 2992   6.423   5.730   5.361
   25CHL1    C9 2993   6.259   5.866   5.352
   25CHL1    H9 2994   6.325   5.952   5.375
   25CHL1   C10 2995   6.202   5.842   5.494
   25CHL1   C19 2996   6.130   5.703   5.490
   25CHL1  H19A 2997   6.077   5.681   5.585
   25CHL1  H19B 2998   6.050   5.707   5.413
   25CHL1  H19C 2999   6.199   5.618   5.475
   25CHL1    C1 3000   6.314   5.839   5.603
   25CHL1   H1A 3001   6.382   5.751   5.602
   25CHL1   H1B 3002   6.385   5.925   5.595
   25CHL1    C2 3003   6.261   5.839   5.749
   25CHL1   H2A 3004   6.349   5.835   5.816
   25CHL1   H2B 3005   6.205   5.743   5.750
   25CHL1   C20 3006   6.415   5.798   4.810
   25CHL1   H20 3007   6.368   5.699   4.792
   25CHL1   C21 3008   6.561   5.780   4.853
   25CHL1  H21A 3009   6.632   5.769   4.768
   25CHL1  H21B 3010   6.577   5.707   4.935
   25CHL1  H21C 3011   6.600   5.876   4.893
   25CHL1   C22 3012   6.418   5.871   4.671
   25CHL1  H22A 3013   6.476   5.804   4.605
   25CHL1  H22B 3014   6.314   5.878   4.631
   25CHL1   C23 3015   6.479   6.014   4.657
   25CHL1  H23A 3016   6.447   6.085   4.736
   25CHL1  H23B 3017   6.590   6.016   4.660
   25CHL1   C24 3018   6.444   6.066   4.521
   25CHL1  H24A 3019   6.475   5.991   4.445
   25CHL1  H24B 3020   6.337   6.095   4.516
   25CHL1   C25 3021   6.516   6.196   4.482
   25CHL1   H25 3022   6.523   6.259   4.573
   25CHL1   C26 3023   6.654   6.174   4.425
   25CHL1  H26A 3024   6.697   6.264   4.376
   25CHL1  H26B 3025   6.723   6.124   4.497
   25CHL1  H26C 3026   6.645   6.101   4.342
   25CHL1   C27 3027   6.431   6.264   4.376
   25CHL1  H27A 3028   6.436   6.207   4.281
   25CHL1  H27B 3029   6.328   6.279   4.416
   25CHL1  H27C 3030   6.464   6.368   4.355
   26CHL1    C3 3031   3.617   3.219   5.617
   26CHL1    H3 3032   3.565   3.314   5.591
   26CHL1    O3 3033   3.581   3.205   5.751
   26CHL1   H3' 3034   3.663   3.165   5.783
   26CHL1    C4 3035   3.560   3.103   5.536
   26CHL1   H4A 3036   3.596   3.005   5.573
   26CHL1   H4B 3037   3.451   3.100   5.556
   26CHL1    C5 3038   3.596   3.120   5.393
   26CHL1    C6 3039   3.501   3.115   5.297
   26CHL1    H6 3040   3.395   3.102   5.320
   26CHL1    C7 3041   3.530   3.126   5.151
   26CHL1   H7A 3042   3.487   3.034   5.106
   26CHL1   H7B 3043   3.483   3.222   5.120
   26CHL1    C8 3044   3.682   3.116   5.118
   26CHL1    H8 3045   3.708   3.008   5.126
   26CHL1   C14 3046   3.706   3.160   4.977
   26CHL1   H14 3047   3.695   3.271   4.979
   26CHL1   C15 3048   3.614   3.098   4.871
   26CHL1  H15A 3049   3.600   2.990   4.893
   26CHL1  H15B 3050   3.512   3.141   4.857
   26CHL1   C16 3051   3.698   3.122   4.745
   26CHL1  H16A 3052   3.725   3.031   4.688
   26CHL1  H16B 3053   3.642   3.187   4.675
   26CHL1   C17 3054   3.834   3.189   4.787
   26CHL1   H17 3055   3.805   3.297   4.783
   26CHL1   C13 3056   3.848   3.138   4.933
   26CHL1   C18 3057   3.885   2.989   4.943
   26CHL1  H18A 3058   3.972   2.962   4.881
   26CHL1  H18B 3059   3.904   2.953   5.046
   26CHL1  H18C 3060   3.809   2.924   4.894
   26CHL1   C12 3061   3.928   3.226   5.029
   26CHL1  H12A 3062   4.038   3.213   5.013
   26CHL1  H12B 3063   3.905   3.333   5.013
   26CHL1   C11 3064   3.910   3.193   5.168
   26CHL1  H11A 3065   3.956   3.093   5.186
   26CHL1  H11B 3066   3.973   3.263   5.227
   26CHL1    C9 3067   3.764   3.189   5.214
   26CHL1    H9 3068   3.720   3.291   5.213
   26CHL1   C10 3069   3.743   3.146   5.365
   26CHL1   C19 3070   3.828   3.024   5.395
   26CHL1  H19A 3071   3.936   3.049   5.384
   26CHL1  H19B 3072   3.811   2.993   5.500
   26CHL1  H19C 3073   3.807   2.938   5.328
   26CHL1    C1 3074   3.793   3.269   5.452
   26CHL1   H1A 3075   3.902   3.286   5.438
   26CHL1   H1B 3076   3.737   3.359   5.419
   26CHL1    C2 3077   3.765   3.246   5.599
   26CHL1   H2A 3078   3.799   3.329   5.665
   26CHL1   H2B 3079   3.831   3.160   5.622
   26CHL1   C20 3080   3.948   3.160   4.684
   26CHL1   H20 3081   3.959   3.051   4.666
   26CHL1   C21 3082   4.086   3.208   4.742
   26CHL1  H21A 3083   4.094   3.317   4.765
   26CHL1  H21B 3084   4.160   3.186   4.662
   26CHL1  H21C 3085   4.122   3.155   4.832
   26CHL1   C22 3086   3.930   3.226   4.542
   26CHL1  H22A 3087   3.822   3.222   4.519
   26CHL1  H22B 3088   3.968   3.330   4.538
   26CHL1   C23 3089   3.993   3.134   4.442
   26CHL1  H23A 3090   4.086   3.093   4.487
   26CHL1  H23B 3091   3.921   3.056   4.408
   26CHL1   C24 3092   4.038   3.218   4.313
   26CHL1  H24A 3093   4.045   3.139   4.235
   26CHL1  H24B 3094   3.960   3.295   4.293
   26CHL1   C25 3095   4.176   3.283   4.331
   26CHL1   H25 3096   4.170   3.337   4.428
   26CHL1   C26 3097   4.294   3.183   4.333
   26CHL1  H26A 3098   4.322   3.157   4.228
   26CHL1  H26B 3099   4.389   3.219   4.378
   26CHL1  H26C 3100   4.269   3.083   4.375
   26CHL1   C27 3101   4.198   3.399   4.237
   26CHL1  H27A 3102   4.271   3.470   4.281
   26CHL1  H27B 3103   4.221   3.363   4.134
   26CHL1  H27C 3104   4.104   3.456   4.221
   27CHL1    C3 3105   0.161   2.600   6.066
   27CHL1    H3 3106   0.060   2.600   6.021
   27CHL1    O3 3107   0.154   2.598   6.211
   27CHL1   H3' 3108   0.159   2.510   6.249
   27CHL1    C4 3109   0.211   2.454   6.021
   27CHL1   H4A 3110   0.309   2.442   6.073
   27CHL1   H4B 3111   0.132   2.391   6.067
   27CHL1    C5 3112   0.233   2.452   5.872
   27CHL1    C6 3113   0.176   2.371   5.790
   27CHL1    H6 3114   0.112   2.292   5.832
   27CHL1    C7 3115   0.192   2.349   5.640
   27CHL1   H7A 3116   0.207   2.240   5.627
   27CHL1   H7B 3117   0.109   2.380   5.574
   27CHL1    C8 3118   0.317   2.432   5.594
   27CHL1    H8 3119   0.413   2.386   5.626
   27CHL1   C14 3120   0.326   2.445   5.442
   27CHL1   H14 3121   0.234   2.503   5.420
   27CHL1   C15 3122   0.313   2.312   5.362
   27CHL1  H15A 3123   0.393   2.244   5.398
   27CHL1  H15B 3124   0.211   2.269   5.369
   27CHL1   C16 3125   0.361   2.350   5.227
   27CHL1  H16A 3126   0.444   2.284   5.192
   27CHL1  H16B 3127   0.278   2.332   5.156
   27CHL1   C17 3128   0.418   2.497   5.237
   27CHL1   H17 3129   0.331   2.563   5.217
   27CHL1   C13 3130   0.442   2.522   5.388
   27CHL1   C18 3131   0.576   2.456   5.419
   27CHL1  H18A 3132   0.597   2.459   5.528
   27CHL1  H18B 3133   0.583   2.351   5.384
   27CHL1  H18C 3134   0.665   2.515   5.387
   27CHL1   C12 3135   0.435   2.663   5.448
   27CHL1  H12A 3136   0.514   2.728   5.405
   27CHL1  H12B 3137   0.338   2.704   5.411
   27CHL1   C11 3138   0.429   2.662   5.601
   27CHL1  H11A 3139   0.527   2.647   5.650
   27CHL1  H11B 3140   0.401   2.766   5.627
   27CHL1    C9 3141   0.325   2.570   5.664
   27CHL1    H9 3142   0.225   2.609   5.636
   27CHL1   C10 3143   0.327   2.559   5.818
   27CHL1   C19 3144   0.471   2.533   5.867
   27CHL1  H19A 3145   0.479   2.526   5.977
   27CHL1  H19B 3146   0.516   2.443   5.820
   27CHL1  H19C 3147   0.539   2.618   5.840
   27CHL1    C1 3148   0.284   2.696   5.865
   27CHL1   H1A 3149   0.339   2.787   5.834
   27CHL1   H1B 3150   0.186   2.723   5.821
   27CHL1    C2 3151   0.265   2.700   6.018
   27CHL1   H2A 3152   0.232   2.802   6.047
   27CHL1   H2B 3153   0.360   2.680   6.072
   27CHL1   C20 3154   0.530   2.527   5.131
   27CHL1   H20 3155   0.613   2.456   5.154
   27CHL1   C21 3156   0.591   2.669   5.160
   27CHL1  H21A 3157   0.647   2.657   5.255
   27CHL1  H21B 3158   0.504   2.737   5.157
   27CHL1  H21C 3159   0.663   2.706   5.084
   27CHL1   C22 3160   0.487   2.504   4.985
   27CHL1  H22A 3161   0.430   2.411   4.964
   27CHL1  H22B 3162   0.416   2.572   4.935
   27CHL1   C23 3163   0.614   2.499   4.905
   27CHL1  H23A 3164   0.676   2.591   4.908
   27CHL1  H23B 3165   0.670   2.412   4.947
   27CHL1   C24 3166   0.576   2.479   4.753
   27CHL1  H24A 3167   0.490   2.409   4.744
   27CHL1  H24B 3168   0.536   2.575   4.713
   27CHL1   C25 3169   0.694   2.437   4.665
   27CHL1   H25 3170   0.750   2.355   4.715
   27CHL1   C26 3171   0.635   2.394   4.525
   27CHL1  H26A 3172   0.580   2.298   4.536
   27CHL1  H26B 3173   0.578   2.472   4.471
   27CHL1  H26C 3174   0.723   2.372   4.460
   27CHL1   C27 3175   0.792   2.551   4.646
   27CHL1  H27A 3176   0.826   2.569   4.750
   27CHL1  H27B 3177   0.730   2.638   4.616
   27CHL1  H27C 3178   0.865   2.518   4.569
   28CHL1    C3 3179   5.086   1.902   5.985
   28CHL1    H3 3180   5.080   2.006   5.946
   28CHL1    O3 3181   5.059   1.890   6.124
   28CHL1   H3' 3182   5.089   1.804   6.156
   28CHL1    C4 3183   4.976   1.816   5.917
   28CHL1   H4A 3184   4.970   1.716   5.967
   28CHL1   H4B 3185   4.886   1.874   5.946
   28CHL1    C5 3186   4.999   1.804   5.767
   28CHL1    C6 3187   4.907   1.826   5.669
   28CHL1    H6 3188   4.805   1.856   5.696
   28CHL1    C7 3189   4.938   1.807   5.526
   28CHL1   H7A 3190   4.851   1.759   5.475
   28CHL1   H7B 3191   4.955   1.910   5.489
   28CHL1    C8 3192   5.070   1.725   5.497
   28CHL1    H8 3193   5.058   1.617   5.522
   28CHL1   C14 3194   5.116   1.738   5.353
   28CHL1   H14 3195   5.134   1.845   5.332
   28CHL1   C15 3196   5.010   1.688   5.245
   28CHL1  H15A 3197   4.965   1.591   5.272
   28CHL1  H15B 3198   4.927   1.761   5.232
   28CHL1   C16 3199   5.081   1.681   5.116
   28CHL1  H16A 3200   5.062   1.590   5.056
   28CHL1  H16B 3201   5.056   1.767   5.050
   28CHL1   C17 3202   5.235   1.681   5.159
   28CHL1   H17 3203   5.263   1.788   5.146
   28CHL1   C13 3204   5.243   1.666   5.313
   28CHL1   C18 3205   5.238   1.517   5.346
   28CHL1  H18A 3206   5.334   1.466   5.325
   28CHL1  H18B 3207   5.224   1.496   5.455
   28CHL1  H18C 3208   5.154   1.459   5.301
   28CHL1   C12 3209   5.353   1.740   5.383
   28CHL1  H12A 3210   5.458   1.712   5.360
   28CHL1  H12B 3211   5.348   1.848   5.355
   28CHL1   C11 3212   5.334   1.724   5.540
   28CHL1  H11A 3213   5.353   1.618   5.564
   28CHL1  H11B 3214   5.410   1.791   5.586
   28CHL1    C9 3215   5.181   1.781   5.588
   28CHL1    H9 3216   5.189   1.891   5.573
   28CHL1   C10 3217   5.145   1.756   5.741
   28CHL1   C19 3218   5.163   1.602   5.770
   28CHL1  H19A 3219   5.078   1.545   5.728
   28CHL1  H19B 3220   5.261   1.565   5.734
   28CHL1  H19C 3221   5.168   1.587   5.880
   28CHL1    C1 3222   5.251   1.831   5.817
   28CHL1   H1A 3223   5.340   1.766   5.803
   28CHL1   H1B 3224   5.263   1.933   5.775
   28CHL1    C2 3225   5.232   1.848   5.966
   28CHL1   H2A 3226   5.300   1.929   6.000
   28CHL1   H2B 3227   5.246   1.752   6.020
   28CHL1   C20 3228   5.329   1.591   5.083
   28CHL1   H20 3229   5.322   1.484   5.109
   28CHL1   C21 3230   5.479   1.631   5.108
   28CHL1  H21A 3231   5.507   1.737   5.119
   28CHL1  H21B 3232   5.532   1.594   5.017
   28CHL1  H21C 3233   5.521   1.574   5.193
   28CHL1   C22 3234   5.305   1.603   4.928
   28CHL1  H22A 3235   5.195   1.593   4.913
   28CHL1  H22B 3236   5.353   1.693   4.884
   28CHL1   C23 3237   5.357   1.483   4.847
   28CHL1  H23A 3238   5.468   1.474   4.851
   28CHL1  H23B 3239   5.303   1.400   4.898
   28CHL1   C24 3240   5.322   1.491   4.698
   28CHL1  H24A 3241   5.213   1.514   4.696
   28CHL1  H24B 3242   5.361   1.579   4.644
   28CHL1   C25 3243   5.345   1.358   4.623
   28CHL1   H25 3244   5.453   1.363   4.595
   28CHL1   C26 3245   5.297   1.235   4.688
   28CHL1  H26A 3246   5.192   1.237   4.724
   28CHL1  H26B 3247   5.309   1.156   4.611
   28CHL1  H26C 3248   5.359   1.212   4.777
   28CHL1   C27 3249   5.275   1.367   4.485
   28CHL1  H27A 3250   5.284   1.271   4.430
   28CHL1  H27B 3251   5.167   1.391   4.490
   28CHL1  H27C 3252   5.323   1.449   4.427
   29CHL1    C3 3253   2.313   3.805   5.886
   29CHL1    H3 3254   2.314   3.701   5.847
   29CHL1    O3 3255   2.290   3.793   6.026
   29CHL1   H3' 3256   2.195   3.807   6.038
   29CHL1    C4 3257   2.442   3.868   5.860
   29CHL1   H4A 3258   2.431   3.971   5.900
   29CHL1   H4B 3259   2.520   3.823   5.924
   29CHL1    C5 3260   2.477   3.866   5.718
   29CHL1    C6 3261   2.591   3.803   5.675
   29CHL1    H6 3262   2.656   3.767   5.756
   29CHL1    C7 3263   2.621   3.800   5.528
   29CHL1   H7A 3264   2.723   3.838   5.502
   29CHL1   H7B 3265   2.610   3.696   5.491
   29CHL1    C8 3266   2.538   3.893   5.430
   29CHL1    H8 3267   2.582   3.990   5.459
   29CHL1   C14 3268   2.548   3.864   5.287
   29CHL1   H14 3269   2.508   3.761   5.277
   29CHL1   C15 3270   2.691   3.875   5.222
   29CHL1  H15A 3271   2.745   3.969   5.248
   29CHL1  H15B 3272   2.752   3.784   5.243
   29CHL1   C16 3273   2.657   3.885   5.067
   29CHL1  H16A 3274   2.715   3.966   5.017
   29CHL1  H16B 3275   2.679   3.782   5.032
   29CHL1   C17 3276   2.503   3.896   5.056
   29CHL1   H17 3277   2.473   3.789   5.052
   29CHL1   C13 3278   2.456   3.949   5.200
   29CHL1   C18 3279   2.496   4.095   5.210
   29CHL1  H18A 3280   2.425   4.163   5.159
   29CHL1  H18B 3281   2.487   4.123   5.317
   29CHL1  H18C 3282   2.601   4.115   5.179
   29CHL1   C12 3283   2.307   3.921   5.235
   29CHL1  H12A 3284   2.253   3.992   5.167
   29CHL1  H12B 3285   2.295   3.814   5.209
   29CHL1   C11 3286   2.289   3.952   5.380
   29CHL1  H11A 3287   2.292   4.061   5.400
   29CHL1  H11B 3288   2.188   3.919   5.414
   29CHL1    C9 3289   2.400   3.884   5.477
   29CHL1    H9 3290   2.367   3.779   5.487
   29CHL1   C10 3291   2.381   3.933   5.622
   29CHL1   C19 3292   2.413   4.086   5.640
   29CHL1  H19A 3293   2.374   4.126   5.736
   29CHL1  H19B 3294   2.523   4.104   5.638
   29CHL1  H19C 3295   2.363   4.146   5.561
   29CHL1    C1 3296   2.239   3.900   5.668
   29CHL1   H1A 3297   2.171   3.977   5.627
   29CHL1   H1B 3298   2.200   3.805   5.627
   29CHL1    C2 3299   2.205   3.892   5.825
   29CHL1   H2A 3300   2.099   3.860   5.837
   29CHL1   H2B 3301   2.211   3.998   5.859
   29CHL1   C20 3302   2.437   3.945   4.927
   29CHL1   H20 3303   2.329   3.958   4.949
   29CHL1   C21 3304   2.457   3.838   4.815
   29CHL1  H21A 3305   2.564   3.828   4.786
   29CHL1  H21B 3306   2.422   3.879   4.718
   29CHL1  H21C 3307   2.408   3.740   4.834
   29CHL1   C22 3308   2.499   4.088   4.891
   29CHL1  H22A 3309   2.495   4.163   4.973
   29CHL1  H22B 3310   2.603   4.060   4.863
   29CHL1   C23 3311   2.428   4.171   4.786
   29CHL1  H23A 3312   2.428   4.121   4.687
   29CHL1  H23B 3313   2.325   4.198   4.818
   29CHL1   C24 3314   2.498   4.315   4.769
   29CHL1  H24A 3315   2.499   4.377   4.861
   29CHL1  H24B 3316   2.608   4.305   4.757
   29CHL1   C25 3317   2.446   4.400   4.650
   29CHL1   H25 3318   2.340   4.431   4.666
   29CHL1   C26 3319   2.517   4.537   4.645
   29CHL1  H26A 3320   2.485   4.585   4.550
   29CHL1  H26B 3321   2.500   4.584   4.744
   29CHL1  H26C 3322   2.624   4.510   4.634
   29CHL1   C27 3323   2.447   4.335   4.507
   29CHL1  H27A 3324   2.367   4.259   4.496
   29CHL1  H27B 3325   2.439   4.409   4.425
   29CHL1  H27C 3326   2.548   4.291   4.491
   30CHL1    C3 3327   3.010   3.354   5.929
   30CHL1    H3 3328   3.012   3.244   5.918
   30CHL1    O3 3329   3.020   3.379   6.068
   30CHL1   H3' 3330   3.096   3.327   6.095
   30CHL1    C4 3331   3.135   3.421   5.854
   30CHL1   H4A 3332   3.137   3.531   5.869
   30CHL1   H4B 3333   3.230   3.378   5.892
   30CHL1    C5 3334   3.117   3.390   5.707
   30CHL1    C6 3335   3.212   3.329   5.636
   30CHL1    H6 3336   3.309   3.314   5.686
   30CHL1    C7 3337   3.210   3.324   5.486
   30CHL1   H7A 3338   3.300   3.371   5.442
   30CHL1   H7B 3339   3.226   3.220   5.450
   30CHL1    C8 3340   3.093   3.403   5.410
   30CHL1    H8 3341   3.125   3.510   5.414
   30CHL1   C14 3342   3.066   3.361   5.267
   30CHL1   H14 3343   3.025   3.258   5.277
   30CHL1   C15 3344   3.191   3.338   5.176
   30CHL1  H15A 3345   3.254   3.429   5.167
   30CHL1  H15B 3346   3.253   3.254   5.213
   30CHL1   C16 3347   3.121   3.314   5.034
   30CHL1  H16A 3348   3.175   3.373   4.956
   30CHL1  H16B 3349   3.119   3.207   5.002
   30CHL1   C17 3350   2.972   3.353   5.055
   30CHL1   H17 3351   2.940   3.251   5.088
   30CHL1   C13 3352   2.960   3.434   5.189
   30CHL1   C18 3353   3.008   3.580   5.174
   30CHL1  H18A 3354   3.104   3.597   5.121
   30CHL1  H18B 3355   2.933   3.633   5.111
   30CHL1  H18C 3356   3.018   3.634   5.271
   30CHL1   C12 3357   2.823   3.423   5.262
   30CHL1  H12A 3358   2.744   3.478   5.208
   30CHL1  H12B 3359   2.795   3.316   5.260
   30CHL1   C11 3360   2.835   3.464   5.414
   30CHL1  H11A 3361   2.854   3.572   5.427
   30CHL1  H11B 3362   2.744   3.441   5.473
   30CHL1    C9 3363   2.961   3.397   5.489
   30CHL1    H9 3364   2.930   3.291   5.489
   30CHL1   C10 3365   2.979   3.440   5.640
   30CHL1   C19 3366   2.984   3.594   5.647
   30CHL1  H19A 3367   3.057   3.636   5.575
   30CHL1  H19B 3368   2.881   3.630   5.625
   30CHL1  H19C 3369   3.016   3.640   5.742
   30CHL1    C1 3370   2.865   3.387   5.730
   30CHL1   H1A 3371   2.770   3.427   5.690
   30CHL1   H1B 3372   2.863   3.278   5.706
   30CHL1    C2 3373   2.881   3.416   5.878
   30CHL1   H2A 3374   2.811   3.357   5.942
   30CHL1   H2B 3375   2.871   3.525   5.899
   30CHL1   C20 3376   2.892   3.400   4.935
   30CHL1   H20 3377   2.798   3.440   4.980
   30CHL1   C21 3378   2.846   3.278   4.852
   30CHL1  H21A 3379   2.933   3.211   4.838
   30CHL1  H21B 3380   2.792   3.307   4.759
   30CHL1  H21C 3381   2.768   3.220   4.906
   30CHL1   C22 3382   2.956   3.511   4.854
   30CHL1  H22A 3383   2.992   3.593   4.920
   30CHL1  H22B 3384   3.049   3.482   4.800
   30CHL1   C23 3385   2.854   3.569   4.751
   30CHL1  H23A 3386   2.838   3.514   4.656
   30CHL1  H23B 3387   2.751   3.579   4.790
   30CHL1   C24 3388   2.893   3.714   4.716
   30CHL1  H24A 3389   2.804   3.777   4.693
   30CHL1  H24B 3390   2.938   3.765   4.803
   30CHL1   C25 3391   3.005   3.725   4.618
   30CHL1   H25 3392   3.090   3.666   4.660
   30CHL1   C26 3393   2.973   3.667   4.479
   30CHL1  H26A 3394   2.963   3.557   4.473
   30CHL1  H26B 3395   2.873   3.702   4.446
   30CHL1  H26C 3396   3.044   3.696   4.398
   30CHL1   C27 3397   3.050   3.872   4.607
   30CHL1  H27A 3398   3.072   3.904   4.711
   30CHL1  H27B 3399   3.146   3.883   4.553
   30CHL1  H27C 3400   2.966   3.932   4.565
   31CHL1    C3 3401   1.835   4.229   5.747
   31CHL1    H3 3402   1.745   4.230   5.682
   31CHL1    O3 3403   1.804   4.178   5.879
   31CHL1   H3' 3404   1.886   4.155   5.924
   31CHL1    C4 3405   1.943   4.138   5.680
   31CHL1   H4A 3406   2.033   4.155   5.742
   31CHL1   H4B 3407   1.899   4.037   5.692
   31CHL1    C5 3408   1.970   4.187   5.535
   31CHL1    C6 3409   1.961   4.099   5.431
   31CHL1    H6 3410   1.936   3.994   5.452
   31CHL1    C7 3411   1.975   4.143   5.293
   31CHL1   H7A 3412   2.022   4.065   5.230
   31CHL1   H7B 3413   1.871   4.153   5.256
   31CHL1    C8 3414   2.033   4.287   5.281
   31CHL1    H8 3415   2.138   4.281   5.317
   31CHL1   C14 3416   2.020   4.334   5.136
   31CHL1   H14 3417   1.909   4.347   5.129
   31CHL1   C15 3418   2.047   4.243   5.015
   31CHL1  H15A 3419   2.151   4.207   5.023
   31CHL1  H15B 3420   1.986   4.150   5.010
   31CHL1   C16 3421   2.028   4.339   4.895
   31CHL1  H16A 3422   2.110   4.335   4.820
   31CHL1  H16B 3423   1.929   4.320   4.848
   31CHL1   C17 3424   2.040   4.481   4.951
   31CHL1   H17 3425   1.937   4.520   4.943
   31CHL1   C13 3426   2.075   4.479   5.098
   31CHL1   C18 3427   2.226   4.468   5.124
   31CHL1  H18A 3428   2.265   4.572   5.127
   31CHL1  H18B 3429   2.254   4.414   5.216
   31CHL1  H18C 3430   2.277   4.406   5.047
   31CHL1   C12 3431   2.006   4.580   5.190
   31CHL1  H12A 3432   2.046   4.682   5.172
   31CHL1  H12B 3433   1.898   4.583   5.162
   31CHL1   C11 3434   2.024   4.540   5.342
   31CHL1  H11A 3435   2.133   4.535   5.366
   31CHL1  H11B 3436   1.973   4.601   5.419
   31CHL1    C9 3437   1.975   4.389   5.379
   31CHL1    H9 3438   1.865   4.387   5.363
   31CHL1   C10 3439   2.005   4.346   5.523
   31CHL1   C19 3440   2.153   4.360   5.561
   31CHL1  H19A 3441   2.177   4.468   5.565
   31CHL1  H19B 3442   2.179   4.323   5.663
   31CHL1  H19C 3443   2.223   4.313   5.488
   31CHL1    C1 3444   1.925   4.439   5.619
   31CHL1   H1A 3445   1.979   4.535   5.634
   31CHL1   H1B 3446   1.825   4.462   5.577
   31CHL1    C2 3447   1.897   4.373   5.758
   31CHL1   H2A 3448   1.823   4.444   5.802
   31CHL1   H2B 3449   1.995   4.379   5.810
   31CHL1   C20 3450   2.119   4.575   4.867
   31CHL1   H20 3451   2.223   4.539   4.850
   31CHL1   C21 3452   2.133   4.722   4.929
   31CHL1  H21A 3453   2.030   4.757   4.953
   31CHL1  H21B 3454   2.186   4.792   4.862
   31CHL1  H21C 3455   2.194   4.728   5.022
   31CHL1   C22 3456   2.044   4.586   4.731
   31CHL1  H22A 3457   2.049   4.485   4.686
   31CHL1  H22B 3458   1.936   4.610   4.745
   31CHL1   C23 3459   2.095   4.692   4.629
   31CHL1  H23A 3460   2.081   4.796   4.665
   31CHL1  H23B 3461   2.206   4.694   4.623
   31CHL1   C24 3462   2.043   4.666   4.487
   31CHL1  H24A 3463   2.080   4.566   4.456
   31CHL1  H24B 3464   1.932   4.669   4.475
   31CHL1   C25 3465   2.102   4.768   4.392
   31CHL1   H25 3466   2.091   4.869   4.436
   31CHL1   C26 3467   2.251   4.731   4.353
   31CHL1  H26A 3468   2.333   4.755   4.424
   31CHL1  H26B 3469   2.254   4.623   4.330
   31CHL1  H26C 3470   2.279   4.788   4.262
   31CHL1   C27 3471   2.025   4.784   4.259
   31CHL1  H27A 3472   1.915   4.791   4.276
   31CHL1  H27B 3473   2.051   4.869   4.193
   31CHL1  H27C 3474   2.050   4.687   4.212
   32CHL1    C3 3475   2.151   2.356   6.039
   32CHL1    H3 3476   2.119   2.260   5.992
   32CHL1    O3 3477   2.179   2.324   6.173
   32CHL1   H3' 3478   2.126   2.248   6.196
   32CHL1    C4 3479   2.265   2.420   5.958
   32CHL1   H4A 3480   2.299   2.519   5.996
   32CHL1   H4B 3481   2.350   2.351   5.978
   32CHL1    C5 3482   2.232   2.443   5.814
   32CHL1    C6 3483   2.306   2.382   5.717
   32CHL1    H6 3484   2.397   2.324   5.738
   32CHL1    C7 3485   2.276   2.394   5.567
   32CHL1   H7A 3486   2.369   2.424   5.514
   32CHL1   H7B 3487   2.248   2.294   5.527
   32CHL1    C8 3488   2.163   2.493   5.538
   32CHL1    H8 3489   2.211   2.593   5.546
   32CHL1   C14 3490   2.106   2.476   5.399
   32CHL1   H14 3491   2.073   2.370   5.399
   32CHL1   C15 3492   2.206   2.457   5.280
   32CHL1  H15A 3493   2.277   2.542   5.272
   32CHL1  H15B 3494   2.249   2.355   5.282
   32CHL1   C16 3495   2.110   2.467   5.157
   32CHL1  H16A 3496   2.158   2.547   5.098
   32CHL1  H16B 3497   2.109   2.375   5.095
   32CHL1   C17 3498   1.970   2.507   5.203
   32CHL1   H17 3499   1.916   2.412   5.222
   32CHL1   C13 3500   1.993   2.565   5.344
   32CHL1   C18 3501   2.044   2.710   5.337
   32CHL1  H18A 3502   2.076   2.749   5.436
   32CHL1  H18B 3503   2.126   2.712   5.262
   32CHL1  H18C 3504   1.976   2.789   5.299
   32CHL1   C12 3505   1.883   2.554   5.448
   32CHL1  H12A 3506   1.789   2.609   5.426
   32CHL1  H12B 3507   1.856   2.447   5.447
   32CHL1   C11 3508   1.931   2.578   5.593
   32CHL1  H11A 3509   1.966   2.683   5.602
   32CHL1  H11B 3510   1.841   2.556   5.653
   32CHL1    C9 3511   2.046   2.492   5.636
   32CHL1    H9 3512   2.024   2.384   5.627
   32CHL1   C10 3513   2.099   2.512   5.785
   32CHL1   C19 3514   2.123   2.659   5.819
   32CHL1  H19A 3515   2.155   2.674   5.924
   32CHL1  H19B 3516   2.189   2.702   5.740
   32CHL1  H19C 3517   2.035   2.725   5.800
   32CHL1    C1 3518   1.989   2.457   5.883
   32CHL1   H1A 3519   1.899   2.522   5.879
   32CHL1   H1B 3520   1.953   2.357   5.852
   32CHL1    C2 3521   2.032   2.452   6.033
   32CHL1   H2A 3522   1.950   2.406   6.091
   32CHL1   H2B 3523   2.038   2.556   6.072
   32CHL1   C20 3524   1.897   2.589   5.106
   32CHL1   H20 3525   1.942   2.690   5.097
   32CHL1   C21 3526   1.751   2.602   5.132
   32CHL1  H21A 3527   1.700   2.504   5.122
   32CHL1  H21B 3528   1.695   2.659   5.054
   32CHL1  H21C 3529   1.721   2.629   5.235
   32CHL1   C22 3530   1.912   2.535   4.963
   32CHL1  H22A 3531   1.972   2.442   4.958
   32CHL1  H22B 3532   1.813   2.509   4.919
   32CHL1   C23 3533   1.977   2.632   4.859
   32CHL1  H23A 3534   1.933   2.734   4.861
   32CHL1  H23B 3535   2.073   2.661   4.907
   32CHL1   C24 3536   2.000   2.564   4.720
   32CHL1  H24A 3537   2.053   2.468   4.739
   32CHL1  H24B 3538   1.901   2.537   4.679
   32CHL1   C25 3539   2.060   2.646   4.602
   32CHL1   H25 3540   2.161   2.684   4.630
   32CHL1   C26 3541   2.066   2.561   4.477
   32CHL1  H26A 3542   1.967   2.528   4.440
   32CHL1  H26B 3543   2.101   2.626   4.394
   32CHL1  H26C 3544   2.136   2.474   4.480
   32CHL1   C27 3545   1.978   2.772   4.574
   32CHL1  H27A 3546   1.994   2.840   4.660
   32CHL1  H27B 3547   1.998   2.815   4.473
   32CHL1  H27C 3548   1.871   2.739   4.577
   33CHL1    C3 3549   0.614   1.638   6.099
   33CHL1    H3 3550   0.510   1.673   6.083
   33CHL1    O3 3551   0.635   1.629   6.239
   33CHL1   H3' 3552   0.721   1.588   6.234
   33CHL1    C4 3553   0.626   1.496   6.036
   33CHL1   H4A 3554   0.720   1.452   6.076
   33CHL1   H4B 3555   0.553   1.422   6.074
   33CHL1    C5 3556   0.620   1.502   5.885
   33CHL1    C6 3557   0.543   1.420   5.817
   33CHL1    H6 3558   0.489   1.339   5.868
   33CHL1    C7 3559   0.536   1.432   5.663
   33CHL1   H7A 3560   0.496   1.340   5.615
   33CHL1   H7B 3561   0.458   1.508   5.639
   33CHL1    C8 3562   0.658   1.490   5.600
   33CHL1    H8 3563   0.734   1.410   5.613
   33CHL1   C14 3564   0.633   1.516   5.450
   33CHL1   H14 3565   0.553   1.593   5.447
   33CHL1   C15 3566   0.571   1.409   5.364
   33CHL1  H15A 3567   0.623   1.313   5.384
   33CHL1  H15B 3568   0.463   1.400   5.387
   33CHL1   C16 3569   0.596   1.452   5.220
   33CHL1  H16A 3570   0.633   1.361   5.167
   33CHL1  H16B 3571   0.501   1.474   5.168
   33CHL1   C17 3572   0.687   1.574   5.228
   33CHL1   H17 3573   0.616   1.659   5.226
   33CHL1   C13 3574   0.749   1.566   5.367
   33CHL1   C18 3575   0.866   1.471   5.348
   33CHL1  H18A 3576   0.903   1.415   5.438
   33CHL1  H18B 3577   0.836   1.385   5.284
   33CHL1  H18C 3578   0.958   1.518   5.309
   33CHL1   C12 3579   0.798   1.704   5.434
   33CHL1  H12A 3580   0.886   1.744   5.378
   33CHL1  H12B 3581   0.714   1.776   5.424
   33CHL1   C11 3582   0.832   1.681   5.582
   33CHL1  H11A 3583   0.911   1.603   5.587
   33CHL1  H11B 3584   0.853   1.780   5.628
   33CHL1    C9 3585   0.710   1.615   5.665
   33CHL1    H9 3586   0.624   1.685   5.657
   33CHL1   C10 3587   0.718   1.606   5.821
   33CHL1   C19 3588   0.860   1.555   5.839
   33CHL1  H19A 3589   0.874   1.467   5.772
   33CHL1  H19B 3590   0.937   1.634   5.837
   33CHL1  H19C 3591   0.874   1.521   5.944
   33CHL1    C1 3592   0.702   1.743   5.889
   33CHL1   H1A 3593   0.779   1.814   5.851
   33CHL1   H1B 3594   0.607   1.792   5.858
   33CHL1    C2 3595   0.709   1.740   6.036
   33CHL1   H2A 3596   0.683   1.838   6.081
   33CHL1   H2B 3597   0.813   1.724   6.072
   33CHL1   C20 3598   0.776   1.585   5.101
   33CHL1   H20 3599   0.855   1.508   5.107
   33CHL1   C21 3600   0.826   1.732   5.096
   33CHL1  H21A 3601   0.740   1.803   5.102
   33CHL1  H21B 3602   0.884   1.758   5.005
   33CHL1  H21C 3603   0.898   1.757   5.177
   33CHL1   C22 3604   0.692   1.556   4.974
   33CHL1  H22A 3605   0.648   1.454   4.977
   33CHL1  H22B 3606   0.616   1.635   4.958
   33CHL1   C23 3607   0.765   1.567   4.844
   33CHL1  H23A 3608   0.787   1.673   4.820
   33CHL1  H23B 3609   0.861   1.516   4.865
   33CHL1   C24 3610   0.696   1.517   4.712
   33CHL1  H24A 3611   0.684   1.408   4.699
   33CHL1  H24B 3612   0.595   1.560   4.726
   33CHL1   C25 3613   0.758   1.571   4.589
   33CHL1   H25 3614   0.751   1.681   4.599
   33CHL1   C26 3615   0.906   1.523   4.579
   33CHL1  H26A 3616   0.911   1.413   4.594
   33CHL1  H26B 3617   0.952   1.541   4.480
   33CHL1  H26C 3618   0.969   1.567   4.659
   33CHL1   C27 3619   0.687   1.538   4.458
   33CHL1  H27A 3620   0.582   1.574   4.448
   33CHL1  H27B 3621   0.746   1.612   4.399
   33CHL1  H27C 3622   0.699   1.440   4.408
   34CHL1    C3 3623   2.928   2.783   6.224
   34CHL1    H3 3624   3.028   2.805   6.180
   34CHL1    O3 3625   2.949   2.765   6.363
   34CHL1   H3' 3626   2.879   2.708   6.394
   34CHL1    C4 3627   2.816   2.891   6.209
   34CHL1   H4A 3628   2.720   2.867   6.260
   34CHL1   H4B 3629   2.850   2.984   6.259
   34CHL1    C5 3630   2.779   2.907   6.063
   34CHL1    C6 3631   2.789   3.028   6.003
   34CHL1    H6 3632   2.824   3.116   6.059
   34CHL1    C7 3633   2.750   3.051   5.863
   34CHL1   H7A 3634   2.681   3.137   5.853
   34CHL1   H7B 3635   2.846   3.066   5.808
   34CHL1    C8 3636   2.678   2.931   5.796
   34CHL1    H8 3637   2.577   2.942   5.840
   34CHL1   C14 3638   2.677   2.940   5.643
   34CHL1   H14 3639   2.775   2.923   5.594
   34CHL1   C15 3640   2.615   3.066   5.585
   34CHL1  H15A 3641   2.518   3.085   5.636
   34CHL1  H15B 3642   2.677   3.157   5.578
   34CHL1   C16 3643   2.597   3.026   5.432
   34CHL1  H16A 3644   2.496   3.063   5.403
   34CHL1  H16B 3645   2.671   3.064   5.358
   34CHL1   C17 3646   2.590   2.862   5.433
   34CHL1   H17 3647   2.687   2.833   5.388
   34CHL1   C13 3648   2.592   2.824   5.579
   34CHL1   C18 3649   2.446   2.819   5.631
   34CHL1  H18A 3650   2.392   2.910   5.598
   34CHL1  H18B 3651   2.397   2.735   5.577
   34CHL1  H18C 3652   2.438   2.814   5.741
   34CHL1   C12 3653   2.667   2.686   5.611
   34CHL1  H12A 3654   2.622   2.593   5.571
   34CHL1  H12B 3655   2.768   2.682   5.565
   34CHL1   C11 3656   2.671   2.671   5.766
   34CHL1  H11A 3657   2.564   2.653   5.790
   34CHL1  H11B 3658   2.738   2.584   5.785
   34CHL1    C9 3659   2.738   2.791   5.842
   34CHL1    H9 3660   2.843   2.796   5.808
   34CHL1   C10 3661   2.742   2.773   5.986
   34CHL1   C19 3662   2.602   2.717   6.032
   34CHL1  H19A 3663   2.570   2.615   6.001
   34CHL1  H19B 3664   2.595   2.724   6.142
   34CHL1  H19C 3665   2.518   2.782   5.998
   34CHL1    C1 3666   2.853   2.670   6.023
   34CHL1   H1A 3667   2.825   2.574   5.975
   34CHL1   H1B 3668   2.947   2.710   5.979
   34CHL1    C2 3669   2.881   2.647   6.170
   34CHL1   H2A 3670   2.950   2.562   6.186
   34CHL1   H2B 3671   2.789   2.617   6.223
   34CHL1   C20 3672   2.495   2.804   5.329
   34CHL1   H20 3673   2.395   2.821   5.374
   34CHL1   C21 3674   2.527   2.655   5.312
   34CHL1  H21A 3675   2.489   2.605   5.403
   34CHL1  H21B 3676   2.637   2.649   5.302
   34CHL1  H21C 3677   2.471   2.611   5.226
   34CHL1   C22 3678   2.505   2.882   5.192
   34CHL1  H22A 3679   2.491   2.991   5.207
   34CHL1  H22B 3680   2.602   2.861   5.142
   34CHL1   C23 3681   2.391   2.841   5.089
   34CHL1  H23A 3682   2.409   2.743   5.040
   34CHL1  H23B 3683   2.301   2.851   5.154
   34CHL1   C24 3684   2.382   2.945   4.971
   34CHL1  H24A 3685   2.389   3.045   5.018
   34CHL1  H24B 3686   2.475   2.941   4.910
   34CHL1   C25 3687   2.266   2.928   4.864
   34CHL1   H25 3688   2.257   2.820   4.840
   34CHL1   C26 3689   2.128   2.965   4.928
   34CHL1  H26A 3690   2.097   2.898   5.011
   34CHL1  H26B 3691   2.119   3.073   4.954
   34CHL1  H26C 3692   2.050   2.947   4.850
   34CHL1   C27 3693   2.290   2.997   4.736
   34CHL1  H27A 3694   2.229   2.973   4.646
   34CHL1  H27B 3695   2.270   3.106   4.739
   34CHL1  H27C 3696   2.396   2.975   4.710
   35CHL1    C3 3697   4.205   5.322   5.961
   35CHL1    H3 3698   4.303   5.322   5.910
   35CHL1    O3 3699   4.231   5.285   6.099
   35CHL1   H3' 3700   4.141   5.274   6.131
   35CHL1    C4 3701   4.139   5.456   5.939
   35CHL1   H4A 3702   4.032   5.451   5.969
   35CHL1   H4B 3703   4.200   5.534   5.990
   35CHL1    C5 3704   4.131   5.481   5.791
   35CHL1    C6 3705   4.209   5.576   5.737
   35CHL1    H6 3706   4.285   5.627   5.799
   35CHL1    C7 3707   4.207   5.621   5.593
   35CHL1   H7A 3708   4.208   5.729   5.570
   35CHL1   H7B 3709   4.287   5.579   5.528
   35CHL1    C8 3710   4.078   5.564   5.518
   35CHL1    H8 3711   3.985   5.607   5.561
   35CHL1   C14 3712   4.086   5.594   5.370
   35CHL1   H14 3713   4.185   5.560   5.333
   35CHL1   C15 3714   4.095   5.743   5.318
   35CHL1  H15A 3715   4.010   5.791   5.371
   35CHL1  H15B 3716   4.196   5.784   5.337
   35CHL1   C16 3717   4.061   5.730   5.174
   35CHL1  H16A 3718   3.973   5.786   5.136
   35CHL1  H16B 3719   4.147   5.756   5.109
   35CHL1   C17 3720   4.035   5.577   5.147
   35CHL1   H17 3721   4.133   5.527   5.134
   35CHL1   C13 3722   3.981   5.521   5.281
   35CHL1   C18 3723   3.839   5.577   5.303
   35CHL1  H18A 3724   3.813   5.587   5.411
   35CHL1  H18B 3725   3.830   5.677   5.256
   35CHL1  H18C 3726   3.765   5.514   5.250
   35CHL1   C12 3727   3.994   5.372   5.304
   35CHL1  H12A 3728   3.915   5.324   5.243
   35CHL1  H12B 3729   4.093   5.328   5.277
   35CHL1   C11 3730   3.973   5.335   5.455
   35CHL1  H11A 3731   3.864   5.333   5.480
   35CHL1  H11B 3732   4.013   5.232   5.462
   35CHL1    C9 3733   4.064   5.417   5.550
   35CHL1    H9 3734   4.165   5.376   5.528
   35CHL1   C10 3735   4.045   5.395   5.708
   35CHL1   C19 3736   3.896   5.415   5.738
   35CHL1  H19A 3737   3.874   5.524   5.736
   35CHL1  H19B 3738   3.826   5.354   5.677
   35CHL1  H19C 3739   3.870   5.378   5.840
   35CHL1    C1 3740   4.090   5.248   5.741
   35CHL1   H1A 3741   4.005   5.183   5.709
   35CHL1   H1B 3742   4.175   5.217   5.677
   35CHL1    C2 3743   4.126   5.212   5.888
   35CHL1   H2A 3744   4.188   5.120   5.885
   35CHL1   H2B 3745   4.030   5.191   5.941
   35CHL1   C20 3746   3.960   5.547   5.007
   35CHL1   H20 3747   3.856   5.582   5.027
   35CHL1   C21 3748   3.950   5.398   4.985
   35CHL1  H21A 3749   4.047   5.347   5.002
   35CHL1  H21B 3750   3.924   5.386   4.878
   35CHL1  H21C 3751   3.873   5.353   5.050
   35CHL1   C22 3752   4.019   5.617   4.884
   35CHL1  H22A 3753   4.050   5.722   4.907
   35CHL1  H22B 3754   4.116   5.570   4.858
   35CHL1   C23 3755   3.915   5.635   4.767
   35CHL1  H23A 3756   3.879   5.533   4.739
   35CHL1  H23B 3757   3.837   5.707   4.798
   35CHL1   C24 3758   3.989   5.695   4.640
   35CHL1  H24A 3759   4.030   5.792   4.675
   35CHL1  H24B 3760   4.064   5.620   4.606
   35CHL1   C25 3761   3.898   5.730   4.523
   35CHL1   H25 3762   3.818   5.794   4.567
   35CHL1   C26 3763   3.967   5.810   4.411
   35CHL1  H26A 3764   3.988   5.914   4.443
   35CHL1  H26B 3765   4.060   5.765   4.370
   35CHL1  H26C 3766   3.899   5.823   4.325
   35CHL1   C27 3767   3.833   5.599   4.480
   35CHL1  H27A 3768   3.773   5.610   4.386
   35CHL1  H27B 3769   3.913   5.529   4.448
   35CHL1  H27C 3770   3.772   5.543   4.554
   36CHL1    C3 3771   6.776   3.868   5.932
   36CHL1    H3 3772   6.672   3.829   5.931
   36CHL1    O3 3773   6.800   3.879   6.073
   36CHL1   H3' 3774   0.069   3.911   6.089
   36CHL1    C4 3775   0.054   3.770   5.860
   36CHL1   H4A 3776   0.158   3.798   5.890
   36CHL1   H4B 3777   0.035   3.670   5.906
   36CHL1    C5 3778   0.043   3.763   5.712
   36CHL1    C6 3779   0.032   3.643   5.641
   36CHL1    H6 3780   0.043   3.549   5.698
   36CHL1    C7 3781   0.030   3.635   5.487
   36CHL1   H7A 3782   0.107   3.566   5.447
   36CHL1   H7B 3783   6.743   3.624   5.459
   36CHL1    C8 3784   0.066   3.770   5.428
   36CHL1    H8 3785   0.176   3.781   5.438
   36CHL1   C14 3786   0.047   3.772   5.275
   36CHL1   H14 3787   6.763   3.741   5.250
   36CHL1   C15 3788   0.141   3.684   5.190
   36CHL1  H15A 3789   0.246   3.704   5.220
   36CHL1  H15B 3790   0.130   3.574   5.204
   36CHL1   C16 3791   0.133   3.748   5.044
   36CHL1  H16A 3792   0.238   3.757   5.009
   36CHL1  H16B 3793   0.085   3.678   4.972
   36CHL1   C17 3794   0.051   3.882   5.059
   36CHL1   H17 3795   6.767   3.844   5.050
   36CHL1   C13 3796   0.066   3.918   5.208
   36CHL1   C18 3797   0.215   3.968   5.231
   36CHL1  H18A 3798   0.284   3.910   5.166
   36CHL1  H18B 3799   0.221   4.075   5.206
   36CHL1  H18C 3800   0.242   3.941   5.336
   36CHL1   C12 3801   6.783   4.018   5.271
   36CHL1  H12A 3802   6.813   4.119   5.237
   36CHL1  H12B 3803   6.683   3.984   5.235
   36CHL1   C11 3804   6.800   4.024   5.423
   36CHL1  H11A 3805   0.074   4.077   5.447
   36CHL1  H11B 3806   6.720   4.093   5.457
   36CHL1    C9 3807   6.802   3.884   5.500
   36CHL1    H9 3808   6.698   3.843   5.506
   36CHL1   C10 3809   0.035   3.898   5.647
   36CHL1   C19 3810   0.182   3.955   5.660
   36CHL1  H19A 3811   0.187   4.055   5.611
   36CHL1  H19B 3812   0.213   3.976   5.764
   36CHL1  H19C 3813   0.255   3.888   5.611
   36CHL1    C1 3814   6.753   3.989   5.721
   36CHL1   H1A 3815   6.755   4.090   5.673
   36CHL1   H1B 3816   6.651   3.950   5.704
   36CHL1    C2 3817   6.783   4.007   5.870
   36CHL1   H2A 3818   6.719   4.086   5.915
   36CHL1   H2B 3819   0.067   4.036   5.895
   36CHL1   C20 3820   0.088   3.990   4.955
   36CHL1   H20 3821   0.188   4.026   4.988
   36CHL1   C21 3822   6.814   4.111   4.956
   36CHL1  H21A 3823   0.037   4.176   4.877
   36CHL1  H21B 3824   6.815   4.172   5.050
   36CHL1  H21C 3825   6.714   4.098   4.910
   36CHL1   C22 3826   0.093   3.921   4.812
   36CHL1  H22A 3827   0.126   3.992   4.733
   36CHL1  H22B 3828   0.169   3.841   4.816
   36CHL1   C23 3829   6.782   3.864   4.768
   36CHL1  H23A 3830   6.734   3.812   4.854
   36CHL1  H23B 3831   6.707   3.942   4.741
   36CHL1   C24 3832   6.802   3.763   4.655
   36CHL1  H24A 3833   0.077   3.708   4.674
   36CHL1  H24B 3834   6.720   3.688   4.662
   36CHL1   C25 3835   6.810   3.822   4.521
   36CHL1   H25 3836   0.063   3.904   4.532
   36CHL1   C26 3837   0.034   3.723   4.418
   36CHL1  H26A 3838   6.767   3.654   4.405
   36CHL1  H26B 3839   0.065   3.759   4.318
   36CHL1  H26C 3840   0.113   3.656   4.456
   36CHL1   C27 3841   6.673   3.884   4.477
   36CHL1  H27A 3842   6.688   3.931   4.377
   36CHL1  H27B 3843   6.592   3.809   4.463
   36CHL1  H27C 3844   6.643   3.962   4.549
   37CHL1    C3 3845   0.923   0.247   6.348
   37CHL1    H3 3846   0.893   0.351   6.325
   37CHL1    O3 3847   0.898   0.240   6.490
   37CHL1   H3' 3848   0.873   0.149   6.508
   37CHL1    C4 3849   0.838   0.144   6.274
   37CHL1   H4A 3850   0.864   0.042   6.309
   37CHL1   H4B 3851   0.733   0.154   6.311
   37CHL1    C5 3852   0.851   0.159   6.121
   37CHL1    C6 3853   0.751   0.196   6.045
   37CHL1    H6 3854   0.649   0.206   6.086
   37CHL1    C7 3855   0.763   0.221   5.903
   37CHL1   H7A 3856   0.668   0.185   5.860
   37CHL1   H7B 3857   0.768   0.329   5.880
   37CHL1    C8 3858   0.882   0.134   5.851
   37CHL1    H8 3859   0.846   0.030   5.861
   37CHL1   C14 3860   0.897   0.172   5.704
   37CHL1   H14 3861   0.931   0.277   5.714
   37CHL1   C15 3862   0.777   0.174   5.613
   37CHL1  H15A 3863   0.726   0.078   5.635
   37CHL1  H15B 3864   0.706   0.255   5.641
   37CHL1   C16 3865   0.833   0.202   5.471
   37CHL1  H16A 3866   0.788   0.121   5.410
   37CHL1  H16B 3867   0.807   0.302   5.432
   37CHL1   C17 3868   0.987   0.173   5.495
   37CHL1   H17 3869   1.035   0.272   5.512
   37CHL1   C13 3870   1.014   0.107   5.631
   37CHL1   C18 3871   0.979   6.771   5.621
   37CHL1  H18A 3872   0.943   6.731   5.718
   37CHL1  H18B 3873   0.901   6.758   5.543
   37CHL1  H18C 3874   1.065   6.708   5.590
   37CHL1   C12 3875   1.144   0.149   5.702
   37CHL1  H12A 3876   1.227   0.104   5.643
   37CHL1  H12B 3877   1.153   0.259   5.691
   37CHL1   C11 3878   1.136   0.103   5.848
   37CHL1  H11A 3879   1.134   6.812   5.843
   37CHL1  H11B 3880   1.227   0.135   5.904
   37CHL1    C9 3881   1.012   0.156   5.922
   37CHL1    H9 3882   1.016   0.266   5.905
   37CHL1   C10 3883   1.003   0.138   6.077
   37CHL1   C19 3884   1.040   6.814   6.108
   37CHL1  H19A 3885   0.962   6.741   6.079
   37CHL1  H19B 3886   1.134   6.796   6.051
   37CHL1  H19C 3887   1.073   6.799   6.213
   37CHL1    C1 3888   1.095   0.241   6.162
   37CHL1   H1A 3889   1.196   0.214   6.125
   37CHL1   H1B 3890   1.068   0.341   6.121
   37CHL1    C2 3891   1.073   0.235   6.312
   37CHL1   H2A 3892   1.132   0.317   6.359
   37CHL1   H2B 3893   1.115   0.141   6.353
   37CHL1   C20 3894   1.044   0.119   5.362
   37CHL1   H20 3895   1.014   0.013   5.347
   37CHL1   C21 3896   1.193   0.097   5.374
   37CHL1  H21A 3897   1.228   0.037   5.288
   37CHL1  H21B 3898   1.190   0.025   5.459
   37CHL1  H21C 3899   1.254   0.184   5.407
   37CHL1   C22 3900   1.010   0.201   5.237
   37CHL1  H22A 3901   0.917   0.256   5.261
   37CHL1  H22B 3902   1.092   0.272   5.215
   37CHL1   C23 3903   0.987   0.113   5.111
   37CHL1  H23A 3904   1.084   0.062   5.091
   37CHL1  H23B 3905   0.923   0.031   5.150
   37CHL1   C24 3906   0.946   0.176   4.974
   37CHL1  H24A 3907   0.866   0.246   5.003
   37CHL1  H24B 3908   1.032   0.238   4.940
   37CHL1   C25 3909   0.912   0.079   4.866
   37CHL1   H25 3910   0.850   6.820   4.913
   37CHL1   C26 3911   0.831   0.151   4.753
   37CHL1  H26A 3912   0.732   0.177   4.797
   37CHL1  H26B 3913   0.886   0.243   4.725
   37CHL1  H26C 3914   0.818   0.081   4.667
   37CHL1   C27 3915   1.041   0.008   4.816
   37CHL1  H27A 3916   1.080   6.770   4.902
   37CHL1  H27B 3917   1.011   6.764   4.730
   37CHL1  H27C 3918   1.117   0.083   4.783
   38CHL1    C3 3919   1.608   0.862   6.271
   38CHL1    H3 3920   1.718   0.850   6.259
   38CHL1    O3 3921   1.560   0.847   6.404
   38CHL1   H3' 3922   1.594   0.925   6.448
   38CHL1    C4 3923   1.557   1.000   6.219
   38CHL1   H4A 3924   1.448   1.016   6.236
   38CHL1   H4B 3925   1.611   1.071   6.285
   38CHL1    C5 3926   1.587   1.021   6.070
   38CHL1    C6 3927   1.644   1.129   6.020
   38CHL1    H6 3928   1.682   1.206   6.089
   38CHL1    C7 3929   1.669   1.148   5.872
   38CHL1   H7A 3930   1.636   1.246   5.831
   38CHL1   H7B 3931   1.779   1.151   5.855
   38CHL1    C8 3932   1.589   1.052   5.782
   38CHL1    H8 3933   1.483   1.086   5.778
   38CHL1   C14 3934   1.643   1.053   5.633
   38CHL1   H14 3935   1.742   1.004   5.642
   38CHL1   C15 3936   1.668   1.191   5.561
   38CHL1  H15A 3937   1.589   1.265   5.584
   38CHL1  H15B 3938   1.764   1.245   5.577
   38CHL1   C16 3939   1.675   1.141   5.424
   38CHL1  H16A 3940   1.616   1.210   5.360
   38CHL1  H16B 3941   1.781   1.154   5.392
   38CHL1   C17 3942   1.627   0.990   5.405
   38CHL1   H17 3943   1.722   0.933   5.402
   38CHL1   C13 3944   1.554   0.962   5.539
   38CHL1   C18 3945   1.405   1.011   5.537
   38CHL1  H18A 3946   1.352   1.011   5.634
   38CHL1  H18B 3947   1.397   1.116   5.504
   38CHL1  H18C 3948   1.362   0.940   5.462
   38CHL1   C12 3949   1.567   0.816   5.594
   38CHL1  H12A 3950   1.512   0.749   5.525
   38CHL1  H12B 3951   1.675   0.789   5.602
   38CHL1   C11 3952   1.514   0.811   5.736
   38CHL1  H11A 3953   1.407   0.842   5.734
   38CHL1  H11B 3954   1.523   0.709   5.779
   38CHL1    C9 3955   1.590   0.906   5.828
   38CHL1    H9 3956   1.696   0.876   5.818
   38CHL1   C10 3957   1.537   0.905   5.971
   38CHL1   C19 3958   1.380   0.915   5.976
   38CHL1  H19A 3959   1.342   0.930   6.079
   38CHL1  H19B 3960   1.349   1.003   5.916
   38CHL1  H19C 3961   1.334   0.821   5.938
   38CHL1    C1 3962   1.586   0.766   6.040
   38CHL1   H1A 3963   1.536   0.680   5.990
   38CHL1   H1B 3964   1.695   0.751   6.033
   38CHL1    C2 3965   1.542   0.753   6.187
   38CHL1   H2A 3966   1.556   0.648   6.218
   38CHL1   H2B 3967   1.433   0.772   6.203
   38CHL1   C20 3968   1.557   0.957   5.272
   38CHL1   H20 3969   1.452   0.989   5.281
   38CHL1   C21 3970   1.574   0.806   5.246
   38CHL1  H21A 3971   1.540   0.786   5.142
   38CHL1  H21B 3972   1.497   0.748   5.301
   38CHL1  H21C 3973   1.675   0.772   5.278
   38CHL1   C22 3974   1.617   1.035   5.148
   38CHL1  H22A 3975   1.557   1.012   5.057
   38CHL1  H22B 3976   1.622   1.144   5.165
   38CHL1   C23 3977   1.762   0.989   5.113
   38CHL1  H23A 3978   1.837   1.008   5.193
   38CHL1  H23B 3979   1.767   0.880   5.092
   38CHL1   C24 3980   1.814   1.046   4.981
   38CHL1  H24A 3981   1.902   0.987   4.946
   38CHL1  H24B 3982   1.744   1.032   4.896
   38CHL1   C25 3983   1.842   1.200   4.975
   38CHL1   H25 3984   1.754   1.261   5.004
   38CHL1   C26 3985   1.946   1.240   5.076
   38CHL1  H26A 3986   1.967   1.349   5.072
   38CHL1  H26B 3987   1.912   1.209   5.178
   38CHL1  H26C 3988   2.040   1.182   5.059
   38CHL1   C27 3989   1.893   1.234   4.833
   38CHL1  H27A 3990   1.986   1.177   4.811
   38CHL1  H27B 3991   1.817   1.193   4.764
   38CHL1  H27C 3992   1.902   1.344   4.821
   39CHL1    C3 3993   3.555   1.539   6.593
   39CHL1    H3 3994   3.662   1.513   6.607
   39CHL1    O3 3995   3.488   1.552   6.723
   39CHL1   H3' 3996   3.411   1.605   6.699
   39CHL1    C4 3997   3.548   1.677   6.530
   39CHL1   H4A 3998   3.450   1.728   6.533
   39CHL1   H4B 3999   3.609   1.739   6.598
   39CHL1    C5 4000   3.609   1.671   6.390
   39CHL1    C6 4001   3.714   1.753   6.355
   39CHL1    H6 4002   3.758   1.828   6.423
   39CHL1    C7 4003   3.759   1.762   6.210
   39CHL1   H7A 4004   3.765   1.866   6.172
   39CHL1   H7B 4005   3.862   1.722   6.194
   39CHL1    C8 4006   3.666   1.692   6.111
   39CHL1    H8 4007   3.572   1.751   6.100
   39CHL1   C14 4008   3.721   1.678   5.967
   39CHL1   H14 4009   3.804   1.604   5.975
   39CHL1   C15 4010   3.762   1.801   5.899
   39CHL1  H15A 4011   3.684   1.876   5.922
   39CHL1  H15B 4012   3.858   1.841   5.937
   39CHL1   C16 4013   3.770   1.772   5.748
   39CHL1  H16A 4014   3.691   1.823   5.688
   39CHL1  H16B 4015   3.873   1.791   5.712
   39CHL1   C17 4016   3.718   1.623   5.739
   39CHL1   H17 4017   3.806   1.555   5.749
   39CHL1   C13 4018   3.628   1.606   5.864
   39CHL1   C18 4019   3.487   1.675   5.844
   39CHL1  H18A 4020   3.421   1.627   5.768
   39CHL1  H18B 4021   3.428   1.677   5.938
   39CHL1  H18C 4022   3.505   1.778   5.806
   39CHL1   C12 4023   3.625   1.466   5.916
   39CHL1  H12A 4024   3.560   1.398   5.856
   39CHL1  H12B 4025   3.726   1.422   5.931
   39CHL1   C11 4026   3.563   1.465   6.056
   39CHL1  H11A 4027   3.455   1.485   6.038
   39CHL1  H11B 4028   3.572   1.362   6.098
   39CHL1    C9 4029   3.626   1.558   6.162
   39CHL1    H9 4030   3.720   1.518   6.207
   39CHL1   C10 4031   3.541   1.571   6.298
   39CHL1   C19 4032   3.393   1.625   6.267
   39CHL1  H19A 4033   3.336   1.635   6.361
   39CHL1  H19B 4034   3.395   1.721   6.211
   39CHL1  H19C 4035   3.335   1.554   6.204
   39CHL1    C1 4036   3.533   1.426   6.369
   39CHL1   H1A 4037   3.465   1.364   6.307
   39CHL1   H1B 4038   3.634   1.381   6.361
   39CHL1    C2 4039   3.482   1.435   6.513
   39CHL1   H2A 4040   3.485   1.332   6.555
   39CHL1   H2B 4041   3.376   1.463   6.499
   39CHL1   C20 4042   3.653   1.596   5.608
   39CHL1   H20 4043   3.569   1.668   5.594
   39CHL1   C21 4044   3.588   1.455   5.585
   39CHL1  H21A 4045   3.670   1.382   5.575
   39CHL1  H21B 4046   3.528   1.452   5.491
   39CHL1  H21C 4047   3.516   1.428   5.666
   39CHL1   C22 4048   3.755   1.620   5.481
   39CHL1  H22A 4049   3.796   1.723   5.480
   39CHL1  H22B 4050   3.849   1.562   5.480
   39CHL1   C23 4051   3.692   1.618   5.345
   39CHL1  H23A 4052   3.633   1.527   5.321
   39CHL1  H23B 4053   3.617   1.699   5.349
   39CHL1   C24 4054   3.781   1.639   5.225
   39CHL1  H24A 4055   3.837   1.733   5.238
   39CHL1  H24B 4056   3.849   1.551   5.217
   39CHL1   C25 4057   3.717   1.639   5.087
   39CHL1   H25 4058   3.658   1.545   5.081
   39CHL1   C26 4059   3.621   1.750   5.058
   39CHL1  H26A 4060   3.526   1.751   5.116
   39CHL1  H26B 4061   3.671   1.847   5.080
   39CHL1  H26C 4062   3.585   1.750   4.953
   39CHL1   C27 4063   3.839   1.638   4.987
   39CHL1  H27A 4064   3.912   1.566   5.031
   39CHL1  H27B 4065   3.799   1.595   4.893
   39CHL1  H27C 4066   3.892   1.734   4.973
   40CHL1    C3 4067   3.702   3.953   6.150
   40CHL1    H3 4068   3.688   3.848   6.117
   40CHL1    O3 4069   3.714   3.952   6.294
   40CHL1   H3' 4070   3.800   3.911   6.307
   40CHL1    C4 4071   3.825   4.018   6.085
   40CHL1   H4A 4072   3.850   4.116   6.133
   40CHL1   H4B 4073   3.908   3.951   6.114
   40CHL1    C5 4074   3.813   4.042   5.938
   40CHL1    C6 4075   3.900   3.991   5.846
   40CHL1    H6 4076   3.988   3.941   5.887
   40CHL1    C7 4077   3.885   4.001   5.698
   40CHL1   H7A 4078   3.978   4.024   5.642
   40CHL1   H7B 4079   3.851   3.903   5.658
   40CHL1    C8 4080   3.777   4.105   5.650
   40CHL1    H8 4081   3.807   4.210   5.669
   40CHL1   C14 4082   3.753   4.086   5.496
   40CHL1   H14 4083   3.718   3.980   5.497
   40CHL1   C15 4084   3.864   4.099   5.392
   40CHL1  H15A 4085   3.915   4.197   5.400
   40CHL1  H15B 4086   3.938   4.015   5.393
   40CHL1   C16 4087   3.787   4.111   5.253
   40CHL1  H16A 4088   3.823   4.206   5.208
   40CHL1  H16B 4089   3.813   4.036   5.175
   40CHL1   C17 4090   3.635   4.123   5.288
   40CHL1   H17 4091   3.597   4.019   5.286
   40CHL1   C13 4092   3.627   4.167   5.439
   40CHL1   C18 4093   3.655   4.324   5.455
   40CHL1  H18A 4094   3.587   4.395   5.404
   40CHL1  H18B 4095   3.681   4.354   5.559
   40CHL1  H18C 4096   3.753   4.338   5.404
   40CHL1   C12 4097   3.506   4.131   5.522
   40CHL1  H12A 4098   3.413   4.186   5.494
   40CHL1  H12B 4099   3.477   4.026   5.500
   40CHL1   C11 4100   3.525   4.149   5.678
   40CHL1  H11A 4101   3.530   4.259   5.692
   40CHL1  H11B 4102   3.435   4.111   5.731
   40CHL1    C9 4103   3.653   4.077   5.736
   40CHL1    H9 4104   3.639   3.968   5.722
   40CHL1   C10 4105   3.675   4.098   5.887
   40CHL1   C19 4106   3.684   4.250   5.912
   40CHL1  H19A 4107   3.581   4.291   5.925
   40CHL1  H19B 4108   3.725   4.277   6.011
   40CHL1  H19C 4109   3.728   4.313   5.831
   40CHL1    C1 4110   3.560   4.024   5.960
   40CHL1   H1A 4111   3.464   4.075   5.938
   40CHL1   H1B 4112   3.562   3.914   5.944
   40CHL1    C2 4113   3.572   4.027   6.114
   40CHL1   H2A 4114   3.484   3.982   6.166
   40CHL1   H2B 4115   3.566   4.134   6.143
   40CHL1   C20 4116   3.555   4.203   5.183
   40CHL1   H20 4117   3.607   4.300   5.176
   40CHL1   C21 4118   3.404   4.214   5.219
   40CHL1  H21A 4119   3.352   4.281   5.147
   40CHL1  H21B 4120   3.388   4.262   5.318
   40CHL1  H21C 4121   3.355   4.114   5.218
   40CHL1   C22 4122   3.577   4.142   5.034
   40CHL1  H22A 4123   3.684   4.135   5.007
   40CHL1  H22B 4124   3.535   4.039   5.032
   40CHL1   C23 4125   3.498   4.228   4.924
   40CHL1  H23A 4126   3.391   4.255   4.941
   40CHL1  H23B 4127   3.551   4.323   4.899
   40CHL1   C24 4128   3.479   4.145   4.792
   40CHL1  H24A 4129   3.571   4.090   4.763
   40CHL1  H24B 4130   3.391   4.078   4.791
   40CHL1   C25 4131   3.462   4.251   4.668
   40CHL1   H25 4132   3.544   4.324   4.683
   40CHL1   C26 4133   3.498   4.187   4.530
   40CHL1  H26A 4134   3.607   4.172   4.517
   40CHL1  H26B 4135   3.449   4.090   4.511
   40CHL1  H26C 4136   3.454   4.249   4.449
   40CHL1   C27 4137   3.325   4.321   4.680
   40CHL1  H27A 4138   3.304   4.377   4.774
   40CHL1  H27B 4139   3.312   4.390   4.594
   40CHL1  H27C 4140   3.248   4.243   4.665
   41CHL1    C3 4141   0.450   4.724   6.096
   41CHL1    H3 4142   0.555   4.756   6.079
   41CHL1    O3 4143   0.420   4.703   6.235
   41CHL1   H3' 4144   0.353   4.768   6.258
   41CHL1    C4 4145   0.368   4.849   6.046
   41CHL1   H4A 4146   0.264   4.826   6.079
   41CHL1   H4B 4147   0.393   4.939   6.105
   41CHL1    C5 4148   0.383   4.872   5.887
   41CHL1    C6 4149   0.432   4.990   5.832
   41CHL1    H6 4150   0.459   5.076   5.895
   41CHL1    C7 4151   0.449   5.021   5.686
   41CHL1   H7A 4152   0.404   5.116   5.650
   41CHL1   H7B 4153   0.557   5.038   5.668
   41CHL1    C8 4154   0.392   4.912   5.587
   41CHL1    H8 4155   0.284   4.935   5.577
   41CHL1   C14 4156   0.464   4.918   5.453
   41CHL1   H14 4157   0.572   4.895   5.470
   41CHL1   C15 4158   0.459   5.045   5.368
   41CHL1  H15A 4159   0.362   5.099   5.370
   41CHL1  H15B 4160   0.528   5.111   5.424
   41CHL1   C16 4161   0.488   5.003   5.221
   41CHL1  H16A 4162   0.392   5.009   5.165
   41CHL1  H16B 4163   0.577   5.052   5.177
   41CHL1   C17 4164   0.513   4.843   5.234
   41CHL1   H17 4165   0.620   4.835   5.261
   41CHL1   C13 4166   0.427   4.804   5.355
   41CHL1   C18 4167   0.278   4.813   5.314
   41CHL1  H18A 4168   0.244   4.723   5.258
   41CHL1  H18B 4169   0.222   4.817   5.410
   41CHL1  H18C 4170   0.266   4.906   5.256
   41CHL1   C12 4171   0.457   4.668   5.420
   41CHL1  H12A 4172   0.418   4.587   5.355
   41CHL1  H12B 4173   0.566   4.659   5.434
   41CHL1   C11 4174   0.388   4.653   5.552
   41CHL1  H11A 4175   0.279   4.662   5.532
   41CHL1  H11B 4176   0.420   4.560   5.604
   41CHL1    C9 4177   0.426   4.773   5.651
   41CHL1    H9 4178   0.536   4.759   5.662
   41CHL1   C10 4179   0.370   4.753   5.796
   41CHL1   C19 4180   0.222   4.725   5.786
   41CHL1  H19A 4181   0.207   4.636   5.721
   41CHL1  H19B 4182   0.176   4.715   5.886
   41CHL1  H19C 4183   0.166   4.809   5.739
   41CHL1    C1 4184   0.435   4.624   5.865
   41CHL1   H1A 4185   0.404   4.536   5.806
   41CHL1   H1B 4186   0.543   4.626   5.838
   41CHL1    C2 4187   0.410   4.602   6.013
   41CHL1   H2A 4188   0.454   4.505   6.044
   41CHL1   H2B 4189   0.302   4.584   6.031
   41CHL1   C20 4190   0.503   4.770   5.097
   41CHL1   H20 4191   0.394   4.756   5.082
   41CHL1   C21 4192   0.597   4.646   5.106
   41CHL1  H21A 4193   0.703   4.671   5.131
   41CHL1  H21B 4194   0.595   4.593   5.009
   41CHL1  H21C 4195   0.566   4.568   5.179
   41CHL1   C22 4196   0.543   4.844   4.973
   41CHL1  H22A 4197   0.510   4.950   4.980
   41CHL1  H22B 4198   0.654   4.843   4.969
   41CHL1   C23 4199   0.475   4.801   4.838
   41CHL1  H23A 4200   0.483   4.691   4.818
   41CHL1  H23B 4201   0.367   4.809   4.862
   41CHL1   C24 4202   0.526   4.866   4.714
   41CHL1  H24A 4203   0.636   4.878   4.714
   41CHL1  H24B 4204   0.495   4.818   4.619
   41CHL1   C25 4205   0.471   5.012   4.692
   41CHL1   H25 4206   0.499   5.070   4.782
   41CHL1   C26 4207   0.523   5.059   4.554
   41CHL1  H26A 4208   0.490   5.004   4.463
   41CHL1  H26B 4209   0.486   5.162   4.534
   41CHL1  H26C 4210   0.634   5.065   4.544
   41CHL1   C27 4211   0.319   5.021   4.698
   41CHL1  H27A 4212   0.292   5.123   4.665
   41CHL1  H27B 4213   0.268   4.946   4.634
   41CHL1  H27C 4214   0.279   4.997   4.799
   42CHL1    C3 4215   5.535   3.478   6.287
   42CHL1    H3 4216   5.424   3.487   6.292
   42CHL1    O3 4217   5.595   3.469   6.419
   42CHL1   H3' 4218   5.689   3.480   6.401
   42CHL1    C4 4219   5.578   3.350   6.224
   42CHL1   H4A 4220   5.688   3.334   6.229
   42CHL1   H4B 4221   5.531   3.273   6.289
   42CHL1    C5 4222   5.529   3.341   6.078
   42CHL1    C6 4223   5.435   3.255   6.037
   42CHL1    H6 4224   5.400   3.169   6.096
   42CHL1    C7 4225   5.382   3.247   5.894
   42CHL1   H7A 4226   5.375   3.144   5.853
   42CHL1   H7B 4227   5.278   3.288   5.891
   42CHL1    C8 4228   5.452   3.334   5.787
   42CHL1    H8 4229   5.558   3.306   5.769
   42CHL1   C14 4230   5.362   3.353   5.664
   42CHL1   H14 4231   5.279   3.410   5.709
   42CHL1   C15 4232   5.312   3.235   5.586
   42CHL1  H15A 4233   5.398   3.171   5.559
   42CHL1  H15B 4234   5.244   3.164   5.637
   42CHL1   C16 4235   5.244   3.297   5.459
   42CHL1  H16A 4236   5.274   3.245   5.365
   42CHL1  H16B 4237   5.134   3.299   5.473
   42CHL1   C17 4238   5.309   3.440   5.455
   42CHL1   H17 4239   5.229   3.508   5.493
   42CHL1   C13 4240   5.424   3.442   5.556
   42CHL1   C18 4241   5.549   3.375   5.493
   42CHL1  H18A 4242   5.630   3.349   5.564
   42CHL1  H18B 4243   5.524   3.286   5.431
   42CHL1  H18C 4244   5.593   3.445   5.418
   42CHL1   C12 4245   5.458   3.576   5.617
   42CHL1  H12A 4246   5.516   3.646   5.553
   42CHL1  H12B 4247   5.359   3.622   5.639
   42CHL1   C11 4248   5.541   3.563   5.743
   42CHL1  H11A 4249   5.640   3.521   5.714
   42CHL1  H11B 4250   5.563   3.666   5.778
   42CHL1    C9 4251   5.481   3.473   5.850
   42CHL1    H9 4252   5.377   3.509   5.867
   42CHL1   C10 4253   5.561   3.468   5.987
   42CHL1   C19 4254   5.710   3.452   5.957
   42CHL1  H19A 4255   5.754   3.534   5.895
   42CHL1  H19B 4256   5.771   3.452   6.050
   42CHL1  H19C 4257   5.725   3.354   5.907
   42CHL1    C1 4258   5.535   3.596   6.070
   42CHL1   H1A 4259   5.578   3.685   6.018
   42CHL1   H1B 4260   5.425   3.605   6.073
   42CHL1    C2 4261   5.585   3.599   6.220
   42CHL1   H2A 4262   5.557   3.689   6.278
   42CHL1   H2B 4263   5.696   3.593   6.217
   42CHL1   C20 4264   5.334   3.487   5.307
   42CHL1   H20 4265   5.396   3.411   5.255
   42CHL1   C21 4266   5.393   3.628   5.306
   42CHL1  H21A 4267   5.414   3.665   5.203
   42CHL1  H21B 4268   5.490   3.631   5.361
   42CHL1  H21C 4269   5.333   3.706   5.357
   42CHL1   C22 4270   5.203   3.501   5.221
   42CHL1  H22A 4271   5.144   3.409   5.242
   42CHL1  H22B 4272   5.141   3.584   5.262
   42CHL1   C23 4273   5.209   3.525   5.070
   42CHL1  H23A 4274   5.104   3.520   5.034
   42CHL1  H23B 4275   5.252   3.626   5.051
   42CHL1   C24 4276   5.312   3.430   5.006
   42CHL1  H24A 4277   5.417   3.460   5.030
   42CHL1  H24B 4278   5.297   3.330   5.053
   42CHL1   C25 4279   5.303   3.397   4.855
   42CHL1   H25 4280   5.203   3.354   4.835
   42CHL1   C26 4281   5.303   3.531   4.772
   42CHL1  H26A 4282   5.209   3.586   4.793
   42CHL1  H26B 4283   5.392   3.593   4.795
   42CHL1  H26C 4284   5.311   3.510   4.663
   42CHL1   C27 4285   5.408   3.294   4.812
   42CHL1  H27A 4286   5.443   3.228   4.894
   42CHL1  H27B 4287   5.368   3.236   4.726
   42CHL1  H27C 4288   5.497   3.354   4.784
   43CHL1    C3 4289   6.456   1.819   6.073
   43CHL1    H3 4290   6.501   1.916   6.042
   43CHL1    O3 4291   6.446   1.826   6.212
   43CHL1   H3' 4292   6.447   1.735   6.243
   43CHL1    C4 4293   6.317   1.811   6.007
   43CHL1   H4A 4294   6.263   1.721   6.045
   43CHL1   H4B 4295   6.251   1.893   6.043
   43CHL1    C5 4296   6.318   1.802   5.854
   43CHL1    C6 4297   6.242   1.879   5.776
   43CHL1    H6 4298   6.179   1.953   5.827
   43CHL1    C7 4299   6.233   1.878   5.627
   43CHL1   H7A 4300   6.127   1.902   5.601
   43CHL1   H7B 4301   6.295   1.959   5.583
   43CHL1    C8 4302   6.279   1.745   5.576
   43CHL1    H8 4303   6.198   1.672   5.598
   43CHL1   C14 4304   6.304   1.754   5.426
   43CHL1   H14 4305   6.381   1.831   5.405
   43CHL1   C15 4306   6.179   1.790   5.336
   43CHL1  H15A 4307   6.093   1.728   5.368
   43CHL1  H15B 4308   6.160   1.899   5.343
   43CHL1   C16 4309   6.209   1.747   5.195
   43CHL1  H16A 4310   6.131   1.681   5.153
   43CHL1  H16B 4311   6.221   1.823   5.115
   43CHL1   C17 4312   6.348   1.672   5.208
   43CHL1   H17 4313   6.429   1.745   5.188
   43CHL1   C13 4314   6.359   1.626   5.366
   43CHL1   C18 4315   6.260   1.504   5.381
   43CHL1  H18A 4316   6.167   1.500   5.320
   43CHL1  H18B 4317   6.315   1.413   5.347
   43CHL1  H18C 4318   6.239   1.496   5.490
   43CHL1   C12 4319   6.496   1.608   5.416
   43CHL1  H12A 4320   6.547   1.516   5.379
   43CHL1  H12B 4321   6.551   1.702   5.392
   43CHL1   C11 4322   6.491   1.601   5.566
   43CHL1  H11A 4323   6.443   1.502   5.582
   43CHL1  H11B 4324   6.594   1.599   5.609
   43CHL1    C9 4325   6.420   1.714   5.644
   43CHL1    H9 4326   6.481   1.806   5.631
   43CHL1   C10 4327   6.404   1.691   5.794
   43CHL1   C19 4328   6.340   1.551   5.821
   43CHL1  H19A 4329   6.253   1.532   5.754
   43CHL1  H19B 4330   6.423   1.481   5.798
   43CHL1  H19C 4331   6.311   1.534   5.926
   43CHL1    C1 4332   6.547   1.696   5.861
   43CHL1   H1A 4333   6.593   1.599   5.833
   43CHL1   H1B 4334   6.610   1.774   5.812
   43CHL1    C2 4335   6.552   1.713   6.014
   43CHL1   H2A 4336   6.657   1.735   6.044
   43CHL1   H2B 4337   6.521   1.617   6.062
   43CHL1   C20 4338   6.347   1.558   5.097
   43CHL1   H20 4339   6.268   1.483   5.117
   43CHL1   C21 4340   6.467   1.465   5.120
   43CHL1  H21A 4341   6.563   1.516   5.095
   43CHL1  H21B 4342   6.456   1.381   5.048
   43CHL1  H21C 4343   6.475   1.429   5.225
   43CHL1   C22 4344   6.349   1.620   4.948
   43CHL1  H22A 4345   6.282   1.708   4.955
   43CHL1  H22B 4346   6.447   1.670   4.934
   43CHL1   C23 4347   6.304   1.525   4.832
   43CHL1  H23A 4348   6.375   1.440   4.842
   43CHL1  H23B 4349   6.205   1.478   4.850
   43CHL1   C24 4350   6.310   1.592   4.690
   43CHL1  H24A 4351   6.413   1.632   4.674
   43CHL1  H24B 4352   6.293   1.509   4.618
   43CHL1   C25 4353   6.204   1.704   4.654
   43CHL1   H25 4354   6.222   1.796   4.714
   43CHL1   C26 4355   6.212   1.738   4.502
   43CHL1  H26A 4356   6.188   1.646   4.446
   43CHL1  H26B 4357   6.141   1.821   4.481
   43CHL1  H26C 4358   6.313   1.770   4.466
   43CHL1   C27 4359   6.062   1.659   4.680
   43CHL1  H27A 4360   6.046   1.560   4.632
   43CHL1  H27B 4361   6.040   1.630   4.784
   43CHL1  H27C 4362   5.987   1.733   4.646
   44CHL1    C3 4363   0.047   3.205   5.982
   44CHL1    H3 4364   6.759   3.218   5.958
   44CHL1    O3 4365   0.094   3.212   6.114
   44CHL1   H3' 4366   0.187   3.194   6.101
   44CHL1    C4 4367   0.084   3.054   5.942
   44CHL1   H4A 4368   0.192   3.039   5.966
   44CHL1   H4B 4369   0.031   2.986   6.012
   44CHL1    C5 4370   0.072   3.021   5.794
   44CHL1    C6 4371   0.001   2.921   5.746
   44CHL1    H6 4372   6.773   2.846   5.811
   44CHL1    C7 4373   6.808   2.889   5.600
   44CHL1   H7A 4374   0.008   2.781   5.585
   44CHL1   H7B 4375   6.701   2.904   5.575
   44CHL1    C8 4376   0.087   2.968   5.506
   44CHL1    H8 4377   0.184   2.913   5.506
   44CHL1   C14 4378   0.042   2.971   5.359
   44CHL1   H14 4379   6.763   3.021   5.374
   44CHL1   C15 4380   0.020   2.837   5.295
   44CHL1  H15A 4381   0.110   2.772   5.302
   44CHL1  H15B 4382   6.754   2.776   5.331
   44CHL1   C16 4383   0.002   2.882   5.146
   44CHL1  H16A 4384   0.064   2.807   5.092
   44CHL1  H16B 4385   6.716   2.865   5.117
   44CHL1   C17 4386   0.051   3.028   5.127
   44CHL1   H17 4387   6.777   3.083   5.150
   44CHL1   C13 4388   0.133   3.046   5.261
   44CHL1   C18 4389   0.272   2.996   5.236
   44CHL1  H18A 4390   0.321   3.073   5.172
   44CHL1  H18B 4391   0.329   2.991   5.331
   44CHL1  H18C 4392   0.278   2.899   5.182
   44CHL1   C12 4393   0.131   3.193   5.314
   44CHL1  H12A 4394   0.196   3.252   5.246
   44CHL1  H12B 4395   0.031   3.241   5.312
   44CHL1   C11 4396   0.190   3.190   5.460
   44CHL1  H11A 4397   0.289   3.140   5.453
   44CHL1  H11B 4398   0.192   3.296   5.493
   44CHL1    C9 4399   0.104   3.110   5.559
   44CHL1    H9 4400   0.000   3.148   5.555
   44CHL1   C10 4401   0.151   3.127   5.708
   44CHL1   C19 4402   0.307   3.106   5.712
   44CHL1  H19A 4403   0.325   3.006   5.668
   44CHL1  H19B 4404   0.364   3.184   5.656
   44CHL1  H19C 4405   0.336   3.112   5.819
   44CHL1    C1 4406   0.119   3.272   5.752
   44CHL1   H1A 4407   0.189   3.342   5.702
   44CHL1   H1B 4408   0.020   3.296   5.706
   44CHL1    C2 4409   0.129   3.300   5.898
   44CHL1   H2A 4410   0.098   3.402   5.928
   44CHL1   H2B 4411   0.235   3.300   5.932
   44CHL1   C20 4412   0.113   3.061   4.992
   44CHL1   H20 4413   0.212   3.012   4.985
   44CHL1   C21 4414   0.139   3.211   4.983
   44CHL1  H21A 4415   0.048   3.255   5.030
   44CHL1  H21B 4416   0.139   3.255   4.881
   44CHL1  H21C 4417   0.231   3.249   5.031
   44CHL1   C22 4418   0.035   3.008   4.866
   44CHL1  H22A 4419   0.076   3.061   4.777
   44CHL1  H22B 4420   0.063   2.901   4.853
   44CHL1   C23 4421   6.711   3.034   4.866
   44CHL1  H23A 4422   6.655   2.958   4.924
   44CHL1  H23B 4423   6.697   3.132   4.917
   44CHL1   C24 4424   6.645   3.028   4.723
   44CHL1  H24A 4425   6.653   2.925   4.682
   44CHL1  H24B 4426   6.538   3.055   4.735
   44CHL1   C25 4427   6.691   3.140   4.620
   44CHL1   H25 4428   6.796   3.122   4.588
   44CHL1   C26 4429   6.609   3.117   4.487
   44CHL1  H26A 4430   6.633   3.013   4.454
   44CHL1  H26B 4431   6.500   3.126   4.505
   44CHL1  H26C 4432   6.642   3.190   4.410
   44CHL1   C27 4433   6.700   3.290   4.664
   44CHL1  H27A 4434   6.757   3.292   4.759
   44CHL1  H27B 4435   6.742   3.355   4.583
   44CHL1  H27C 4436   6.598   3.331   4.676
   45CHL1    C3 4437   6.363   4.367   6.007
   45CHL1    H3 4438   6.296   4.448   6.043
   45CHL1    O3 4439   6.388   4.291   6.131
   45CHL1   H3' 4440   6.459   4.338   6.176
   45CHL1    C4 4441   6.271   4.280   5.914
   45CHL1   H4A 4442   6.305   4.174   5.917
   45CHL1   H4B 4443   6.172   4.274   5.965
   45CHL1    C5 4444   6.262   4.320   5.770
   45CHL1    C6 4445   6.152   4.320   5.707
   45CHL1    H6 4446   6.064   4.296   5.768
   45CHL1    C7 4447   6.138   4.347   5.558
   45CHL1   H7A 4448   6.069   4.274   5.510
   45CHL1   H7B 4449   6.089   4.443   5.530
   45CHL1    C8 4450   6.278   4.334   5.483
   45CHL1    H8 4451   6.302   4.225   5.483
   45CHL1   C14 4452   6.271   4.381   5.338
   45CHL1   H14 4453   6.246   4.489   5.327
   45CHL1   C15 4454   6.162   4.310   5.266
   45CHL1  H15A 4455   6.170   4.205   5.303
   45CHL1  H15B 4456   6.058   4.344   5.284
   45CHL1   C16 4457   6.203   4.314   5.118
   45CHL1  H16A 4458   6.220   4.210   5.083
   45CHL1  H16B 4459   6.133   4.370   5.052
   45CHL1   C17 4460   6.342   4.385   5.122
   45CHL1   H17 4461   6.326   4.495   5.125
   45CHL1   C13 4462   6.404   4.362   5.259
   45CHL1   C18 4463   6.451   4.214   5.255
   45CHL1  H18A 4464   6.467   4.175   5.358
   45CHL1  H18B 4465   6.378   4.146   5.205
   45CHL1  H18C 4466   6.552   4.200   5.211
   45CHL1   C12 4467   6.500   4.459   5.329
   45CHL1  H12A 4468   6.596   4.456   5.273
   45CHL1  H12B 4469   6.445   4.555   5.340
   45CHL1   C11 4470   6.518   4.412   5.482
   45CHL1  H11A 4471   6.576   4.319   5.465
   45CHL1  H11B 4472   6.593   4.483   5.522
   45CHL1    C9 4473   6.387   4.403   5.564
   45CHL1    H9 4474   6.354   4.509   5.574
   45CHL1   C10 4475   6.398   4.354   5.711
   45CHL1   C19 4476   6.482   4.224   5.708
   45CHL1  H19A 4477   6.508   4.187   5.809
   45CHL1  H19B 4478   6.435   4.137   5.656
   45CHL1  H19C 4479   6.582   4.253   5.669
   45CHL1    C1 4480   6.472   4.458   5.804
   45CHL1   H1A 4481   6.574   4.471   5.760
   45CHL1   H1B 4482   6.426   4.559   5.805
   45CHL1    C2 4483   6.496   4.417   5.944
   45CHL1   H2A 4484   6.522   4.501   6.012
   45CHL1   H2B 4485   6.580   4.345   5.949
   45CHL1   C20 4486   6.419   4.358   4.993
   45CHL1   H20 4487   6.467   4.258   5.001
   45CHL1   C21 4488   6.528   4.457   4.963
   45CHL1  H21A 4489   6.581   4.484   5.057
   45CHL1  H21B 4490   6.496   4.557   4.926
   45CHL1  H21C 4491   6.607   4.412   4.900
   45CHL1   C22 4492   6.324   4.339   4.863
   45CHL1  H22A 4493   6.261   4.248   4.867
   45CHL1  H22B 4494   6.255   4.426   4.862
   45CHL1   C23 4495   6.401   4.314   4.725
   45CHL1  H23A 4496   6.467   4.403   4.714
   45CHL1  H23B 4497   6.453   4.217   4.719
   45CHL1   C24 4498   6.312   4.332   4.601
   45CHL1  H24A 4499   6.253   4.425   4.616
   45CHL1  H24B 4500   6.384   4.337   4.516
   45CHL1   C25 4501   6.207   4.220   4.575
   45CHL1   H25 4502   6.183   4.230   4.468
   45CHL1   C26 4503   6.257   4.072   4.597
   45CHL1  H26A 4504   6.176   4.009   4.553
   45CHL1  H26B 4505   6.357   4.056   4.552
   45CHL1  H26C 4506   6.268   4.038   4.702
   45CHL1   C27 4507   6.068   4.248   4.644
   45CHL1  H27A 4508   6.045   4.356   4.634
   45CHL1  H27B 4509   5.988   4.186   4.601
   45CHL1  H27C 4510   6.061   4.213   4.749
   46CHL1    C3 4511   2.159   5.820   6.053
   46CHL1    H3 4512   2.253   5.879   6.068
   46CHL1    O3 4513   2.138   5.731   6.163
   46CHL1   H3' 4514   2.082   5.663   6.125
   46CHL1    C4 4515   2.030   5.895   6.026
   46CHL1   H4A 4516   1.945   5.826   6.012
   46CHL1   H4B 4517   2.002   5.955   6.115
   46CHL1    C5 4518   2.069   5.976   5.904
   46CHL1    C6 4519   2.073   6.109   5.923
   46CHL1    H6 4520   2.059   6.143   6.027
   46CHL1    C7 4521   2.089   6.215   5.815
   46CHL1   H7A 4522   2.023   6.303   5.835
   46CHL1   H7B 4523   2.191   6.254   5.800
   46CHL1    C8 4524   2.060   6.139   5.682
   46CHL1    H8 4525   1.951   6.118   5.677
   46CHL1   C14 4526   2.113   6.223   5.571
   46CHL1   H14 4527   2.224   6.219   5.581
   46CHL1   C15 4528   2.077   6.379   5.566
   46CHL1  H15A 4529   1.977   6.393   5.613
   46CHL1  H15B 4530   2.158   6.425   5.627
   46CHL1   C16 4531   2.082   6.425   5.415
   46CHL1  H16A 4532   1.983   6.464   5.384
   46CHL1  H16B 4533   2.151   6.510   5.394
   46CHL1   C17 4534   2.132   6.297   5.338
   46CHL1   H17 4535   2.243   6.292   5.340
   46CHL1   C13 4536   2.087   6.175   5.429
   46CHL1   C18 4537   1.933   6.159   5.409
   46CHL1  H18A 4538   1.875   6.254   5.408
   46CHL1  H18B 4539   1.921   6.111   5.309
   46CHL1  H18C 4540   1.885   6.097   5.488
   46CHL1   C12 4541   2.165   6.044   5.406
   46CHL1  H12A 4542   2.134   6.002   5.308
   46CHL1  H12B 4543   2.272   6.074   5.411
   46CHL1   C11 4544   2.137   5.942   5.518
   46CHL1  H11A 4545   2.041   5.891   5.494
   46CHL1  H11B 4546   2.225   5.874   5.513
   46CHL1    C9 4547   2.133   6.003   5.664
   46CHL1    H9 4548   2.241   6.026   5.678
   46CHL1   C10 4549   2.095   5.904   5.772
   46CHL1   C19 4550   1.974   5.819   5.732
   46CHL1  H19A 4551   1.884   5.882   5.718
   46CHL1  H19B 4552   1.993   5.765   5.637
   46CHL1  H19C 4553   1.950   5.741   5.807
   46CHL1    C1 4554   2.213   5.808   5.802
   46CHL1   H1A 4555   2.226   5.740   5.715
   46CHL1   H1B 4556   2.307   5.867   5.804
   46CHL1    C2 4557   2.193   5.731   5.930
   46CHL1   H2A 4558   2.287   5.684   5.964
   46CHL1   H2B 4559   2.126   5.644   5.913
   46CHL1   C20 4560   2.105   6.299   5.190
   46CHL1   H20 4561   2.013   6.241   5.171
   46CHL1   C21 4562   2.216   6.218   5.115
   46CHL1  H21A 4563   2.321   6.248   5.137
   46CHL1  H21B 4564   2.209   6.225   5.004
   46CHL1  H21C 4565   2.205   6.111   5.141
   46CHL1   C22 4566   2.107   6.441   5.126
   46CHL1  H22A 4567   2.027   6.505   5.169
   46CHL1  H22B 4568   2.203   6.493   5.151
   46CHL1   C23 4569   2.086   6.463   4.977
   46CHL1  H23A 4570   2.108   6.570   4.958
   46CHL1  H23B 4571   2.163   6.402   4.924
   46CHL1   C24 4572   1.943   6.446   4.928
   46CHL1  H24A 4573   1.907   6.341   4.933
   46CHL1  H24B 4574   1.879   6.505   4.996
   46CHL1   C25 4575   1.929   6.504   4.788
   46CHL1   H25 4576   2.000   6.589   4.776
   46CHL1   C26 4577   1.990   6.396   4.692
   46CHL1  H26A 4578   2.004   6.427   4.587
   46CHL1  H26B 4579   2.092   6.365   4.723
   46CHL1  H26C 4580   1.925   6.306   4.703
   46CHL1   C27 4581   1.786   6.554   4.735
   46CHL1  H27A 4582   1.781   6.564   4.625
   46CHL1  H27B 4583   1.704   6.486   4.766
   46CHL1  H27C 4584   1.766   6.653   4.780
   47CHL1    C3 4585   3.750   4.717   6.143
   47CHL1    H3 4586   3.659   4.654   6.140
   47CHL1    O3 4587   3.810   4.698   6.265
   47CHL1   H3' 4588   3.830   4.604   6.264
   47CHL1    C4 4589   3.851   4.672   6.033
   47CHL1   H4A 4590   3.950   4.721   6.048
   47CHL1   H4B 4591   3.869   4.562   6.038
   47CHL1    C5 4592   3.808   4.713   5.889
   47CHL1    C6 4593   3.800   4.622   5.788
   47CHL1    H6 4594   3.840   4.521   5.803
   47CHL1    C7 4595   3.753   4.659   5.649
   47CHL1   H7A 4596   3.825   4.624   5.572
   47CHL1   H7B 4597   3.648   4.626   5.631
   47CHL1    C8 4598   3.737   4.816   5.626
   47CHL1    H8 4599   3.839   4.859   5.624
   47CHL1   C14 4600   3.667   4.835   5.498
   47CHL1   H14 4601   3.565   4.791   5.511
   47CHL1   C15 4602   3.707   4.770   5.364
   47CHL1  H15A 4603   3.816   4.777   5.343
   47CHL1  H15B 4604   3.687   4.661   5.371
   47CHL1   C16 4605   3.630   4.848   5.258
   47CHL1  H16A 4606   3.702   4.907   5.198
   47CHL1  H16B 4607   3.570   4.784   5.190
   47CHL1   C17 4608   3.545   4.959   5.332
   47CHL1   H17 4609   3.451   4.906   5.361
   47CHL1   C13 4610   3.622   4.978   5.462
   47CHL1   C18 4611   3.739   5.075   5.433
   47CHL1  H18A 4612   3.810   5.052   5.514
   47CHL1  H18B 4613   3.789   5.053   5.336
   47CHL1  H18C 4614   3.701   5.180   5.433
   47CHL1   C12 4615   3.538   5.032   5.578
   47CHL1  H12A 4616   3.519   5.141   5.574
   47CHL1  H12B 4617   3.437   4.986   5.581
   47CHL1   C11 4618   3.612   5.010   5.718
   47CHL1  H11A 4619   3.703   5.073   5.716
   47CHL1  H11B 4620   3.544   5.058   5.792
   47CHL1    C9 4621   3.659   4.872   5.742
   47CHL1    H9 4622   3.567   4.809   5.747
   47CHL1   C10 4623   3.753   4.857   5.873
   47CHL1   C19 4624   3.871   4.948   5.882
   47CHL1  H19A 4625   3.837   5.054   5.884
   47CHL1  H19B 4626   3.921   4.919   5.976
   47CHL1  H19C 4627   3.950   4.931   5.805
   47CHL1    C1 4628   3.668   4.889   5.996
   47CHL1   H1A 4629   3.648   4.999   5.997
   47CHL1   H1B 4630   3.567   4.845   5.983
   47CHL1    C2 4631   3.710   4.861   6.140
   47CHL1   H2A 4632   3.628   4.883   6.211
   47CHL1   H2B 4633   3.786   4.935   6.172
   47CHL1   C20 4634   3.502   5.085   5.260
   47CHL1   H20 4635   3.559   5.171   5.301
   47CHL1   C21 4636   3.355   5.107   5.307
   47CHL1  H21A 4637   3.318   5.211   5.303
   47CHL1  H21B 4638   3.354   5.083   5.415
   47CHL1  H21C 4639   3.282   5.034   5.267
   47CHL1   C22 4640   3.516   5.081   5.114
   47CHL1  H22A 4641   3.623   5.070   5.087
   47CHL1  H22B 4642   3.456   4.997   5.075
   47CHL1   C23 4643   3.471   5.209   5.034
   47CHL1  H23A 4644   3.360   5.219   5.031
   47CHL1  H23B 4645   3.503   5.294   5.099
   47CHL1   C24 4646   3.537   5.215   4.898
   47CHL1  H24A 4647   3.641   5.184   4.920
   47CHL1  H24B 4648   3.480   5.161   4.820
   47CHL1   C25 4649   3.537   5.358   4.846
   47CHL1   H25 4650   3.573   5.421   4.931
   47CHL1   C26 4651   3.643   5.383   4.745
   47CHL1  H26A 4652   3.630   5.325   4.651
   47CHL1  H26B 4653   3.644   5.492   4.725
   47CHL1  H26C 4654   3.745   5.362   4.784
   47CHL1   C27 4655   3.401   5.414   4.813
   47CHL1  H27A 4656   3.345   5.405   4.908
   47CHL1  H27B 4657   3.404   5.520   4.780
   47CHL1  H27C 4658   3.353   5.356   4.731
   48CHL1    C3 4659   1.003   5.831   6.224
   48CHL1    H3 4660   0.928   5.912   6.212
   48CHL1    O3 4661   1.017   5.815   6.365
   48CHL1   H3' 4662   1.057   5.898   6.392
   48CHL1    C4 4663   0.958   5.693   6.161
   48CHL1   H4A 4664   1.036   5.617   6.180
   48CHL1   H4B 4665   0.864   5.658   6.209
   48CHL1    C5 4666   0.939   5.710   6.011
   48CHL1    C6 4667   0.820   5.687   5.945
   48CHL1    H6 4668   0.731   5.653   6.001
   48CHL1    C7 4669   0.799   5.694   5.792
   48CHL1   H7A 4670   0.761   5.599   5.749
   48CHL1   H7B 4671   0.716   5.764   5.767
   48CHL1    C8 4672   0.929   5.736   5.722
   48CHL1    H8 4673   0.996   5.647   5.717
   48CHL1   C14 4674   0.910   5.780   5.581
   48CHL1   H14 4675   0.846   5.870   5.594
   48CHL1   C15 4676   0.825   5.680   5.493
   48CHL1  H15A 4677   0.851   5.572   5.496
   48CHL1  H15B 4678   0.718   5.686   5.523
   48CHL1   C16 4679   0.850   5.730   5.352
   48CHL1  H16A 4680   0.893   5.647   5.292
   48CHL1  H16B 4681   0.756   5.769   5.308
   48CHL1   C17 4682   0.967   5.839   5.361
   48CHL1   H17 4683   0.913   5.936   5.360
   48CHL1   C13 4684   1.029   5.823   5.503
   48CHL1   C18 4685   1.135   5.711   5.500
   48CHL1  H18A 4686   1.103   5.616   5.454
   48CHL1  H18B 4687   1.219   5.740   5.433
   48CHL1  H18C 4688   1.181   5.686   5.598
   48CHL1   C12 4689   1.088   5.944   5.579
   48CHL1  H12A 4690   1.178   5.987   5.530
   48CHL1  H12B 4691   1.010   6.022   5.594
   48CHL1   C11 4692   1.124   5.915   5.721
   48CHL1  H11A 4693   1.223   5.869   5.738
   48CHL1  H11B 4694   1.139   6.018   5.761
   48CHL1    C9 4695   1.018   5.838   5.807
   48CHL1    H9 4696   0.948   5.918   5.840
   48CHL1   C10 4697   1.060   5.772   5.941
   48CHL1   C19 4698   1.170   5.661   5.919
   48CHL1  H19A 4699   1.202   5.612   6.014
   48CHL1  H19B 4700   1.146   5.582   5.845
   48CHL1  H19C 4701   1.268   5.698   5.881
   48CHL1    C1 4702   1.119   5.890   6.020
   48CHL1   H1A 4703   1.219   5.909   5.975
   48CHL1   H1B 4704   1.063   5.982   5.994
   48CHL1    C2 4705   1.138   5.872   6.164
   48CHL1   H2A 4706   1.178   5.961   6.216
   48CHL1   H2B 4707   1.207   5.788   6.189
   48CHL1   C20 4708   1.052   5.834   5.236
   48CHL1   H20 4709   1.095   5.732   5.225
   48CHL1   C21 4710   1.156   5.944   5.252
   48CHL1  H21A 4711   1.236   5.913   5.323
   48CHL1  H21B 4712   1.218   5.952   5.161
   48CHL1  H21C 4713   1.104   6.042   5.258
   48CHL1   C22 4714   0.970   5.847   5.104
   48CHL1  H22A 4715   0.895   5.765   5.102
   48CHL1  H22B 4716   0.925   5.949   5.108
   48CHL1   C23 4717   1.060   5.823   4.981
   48CHL1  H23A 4718   1.137   5.901   4.968
   48CHL1  H23B 4719   1.115   5.726   4.980
   48CHL1   C24 4720   0.985   5.832   4.850
   48CHL1  H24A 4721   0.888   5.777   4.846
   48CHL1  H24B 4722   0.953   5.938   4.839
   48CHL1   C25 4723   1.062   5.773   4.729
   48CHL1   H25 4724   1.170   5.798   4.740
   48CHL1   C26 4725   1.042   5.622   4.700
   48CHL1  H26A 4726   1.090   5.552   4.772
   48CHL1  H26B 4727   0.932   5.611   4.695
   48CHL1  H26C 4728   1.078   5.598   4.597
   48CHL1   C27 4729   1.022   5.847   4.595
   48CHL1  H27A 4730   1.089   5.808   4.515
   48CHL1  H27B 4731   0.913   5.842   4.573
   48CHL1  H27C 4732   1.051   5.953   4.609
   49CHL1    C3 4733   4.243   4.065   2.593
   49CHL1    H3 4734   4.143   4.054   2.639
   49CHL1    O3 4735   4.214   4.030   2.456
   49CHL1   H3' 4736   4.295   4.052   2.410
   49CHL1    C4 4737   4.305   4.208   2.613
   49CHL1   H4A 4738   4.399   4.214   2.555
   49CHL1   H4B 4739   4.239   4.279   2.558
   49CHL1    C5 4740   4.321   4.241   2.761
   49CHL1    C6 4741   4.252   4.347   2.823
   49CHL1    H6 4742   4.199   4.412   2.751
   49CHL1    C7 4743   4.263   4.391   2.966
   49CHL1   H7A 4744   4.302   4.494   2.976
   49CHL1   H7B 4745   4.161   4.388   3.010
   49CHL1    C8 4746   4.361   4.305   3.043
   49CHL1    H8 4747   4.459   4.353   3.020
   49CHL1   C14 4748   4.328   4.317   3.189
   49CHL1   H14 4749   4.230   4.265   3.192
   49CHL1   C15 4750   4.298   4.450   3.255
   49CHL1  H15A 4751   4.352   4.537   3.212
   49CHL1  H15B 4752   4.192   4.481   3.246
   49CHL1   C16 4753   4.327   4.426   3.403
   49CHL1  H16A 4754   4.405   4.496   3.439
   49CHL1  H16B 4755   4.236   4.436   3.467
   49CHL1   C17 4756   4.362   4.272   3.414
   49CHL1   H17 4757   4.261   4.227   3.427
   49CHL1   C13 4758   4.416   4.229   3.290
   49CHL1   C18 4759   4.564   4.283   3.275
   49CHL1  H18A 4760   4.576   4.386   3.316
   49CHL1  H18B 4761   4.641   4.219   3.323
   49CHL1  H18C 4762   4.592   4.290   3.168
   49CHL1   C12 4763   4.405   4.076   3.240
   49CHL1  H12A 4764   4.477   4.009   3.294
   49CHL1  H12B 4765   4.302   4.034   3.241
   49CHL1   C11 4766   4.451   4.066   3.094
   49CHL1  H11A 4767   4.558   4.096   3.087
   49CHL1  H11B 4768   4.453   3.961   3.058
   49CHL1    C9 4769   4.359   4.154   2.998
   49CHL1    H9 4770   4.257   4.112   3.000
   49CHL1   C10 4771   4.398   4.143   2.842
   49CHL1   C19 4772   4.557   4.165   2.829
   49CHL1  H19A 4773   4.583   4.260   2.883
   49CHL1  H19B 4774   4.610   4.077   2.870
   49CHL1  H19C 4775   4.587   4.163   2.722
   49CHL1    C1 4776   4.371   4.002   2.800
   49CHL1   H1A 4777   4.462   3.950   2.838
   49CHL1   H1B 4778   4.286   3.961   2.859
   49CHL1    C2 4779   4.348   3.973   2.650
   49CHL1   H2A 4780   4.316   3.866   2.651
   49CHL1   H2B 4781   4.442   3.976   2.591
   49CHL1   C20 4782   4.432   4.235   3.549
   49CHL1   H20 4783   4.541   4.255   3.539
   49CHL1   C21 4784   4.417   4.088   3.561
   49CHL1  H21A 4785   4.329   4.036   3.518
   49CHL1  H21B 4786   4.427   4.055   3.667
   49CHL1  H21C 4787   4.506   4.040   3.514
   49CHL1   C22 4788   4.385   4.320   3.677
   49CHL1  H22A 4789   4.398   4.428   3.656
   49CHL1  H22B 4790   4.276   4.307   3.690
   49CHL1   C23 4791   4.463   4.304   3.808
   49CHL1  H23A 4792   4.453   4.200   3.846
   49CHL1  H23B 4793   4.569   4.324   3.780
   49CHL1   C24 4794   4.426   4.413   3.915
   49CHL1  H24A 4795   4.440   4.517   3.879
   49CHL1  H24B 4796   4.319   4.395   3.940
   49CHL1   C25 4797   4.512   4.401   4.042
   49CHL1   H25 4798   4.614   4.417   4.001
   49CHL1   C26 4799   4.487   4.510   4.144
   49CHL1  H26A 4800   4.554   4.484   4.228
   49CHL1  H26B 4801   4.507   4.609   4.099
   49CHL1  H26C 4802   4.381   4.502   4.176
   49CHL1   C27 4803   4.497   4.267   4.121
   49CHL1  H27A 4804   4.538   4.280   4.223
   49CHL1  H27B 4805   4.387   4.252   4.120
   49CHL1  H27C 4806   4.548   4.186   4.065
   50CHL1    C3 4807   4.105   1.583   2.971
   50CHL1    H3 4808   4.032   1.656   3.013
   50CHL1    O3 4809   4.130   1.631   2.843
   50CHL1   H3' 4810   4.058   1.600   2.787
   50CHL1    C4 4811   4.237   1.581   3.046
   50CHL1   H4A 4812   4.315   1.519   2.997
   50CHL1   H4B 4813   4.266   1.688   3.036
   50CHL1    C5 4814   4.218   1.541   3.189
   50CHL1    C6 4815   4.254   1.624   3.287
   50CHL1    H6 4816   4.302   1.718   3.256
   50CHL1    C7 4817   4.239   1.593   3.435
   50CHL1   H7A 4818   4.329   1.617   3.494
   50CHL1   H7B 4819   4.152   1.656   3.464
   50CHL1    C8 4820   4.202   1.445   3.460
   50CHL1    H8 4821   4.296   1.385   3.464
   50CHL1   C14 4822   4.130   1.439   3.592
   50CHL1   H14 4823   4.036   1.495   3.570
   50CHL1   C15 4824   4.196   1.513   3.707
   50CHL1  H15A 4825   4.304   1.490   3.702
   50CHL1  H15B 4826   4.180   1.623   3.707
   50CHL1   C16 4827   4.121   1.463   3.830
   50CHL1  H16A 4828   4.181   1.422   3.913
   50CHL1  H16B 4829   4.050   1.538   3.870
   50CHL1   C17 4830   4.028   1.345   3.782
   50CHL1   H17 4831   3.933   1.394   3.751
   50CHL1   C13 4832   4.085   1.300   3.649
   50CHL1   C18 4833   4.206   1.202   3.668
   50CHL1  H18A 4834   4.175   1.099   3.696
   50CHL1  H18B 4835   4.269   1.196   3.576
   50CHL1  H18C 4836   4.274   1.243   3.744
   50CHL1   C12 4837   3.990   1.232   3.547
   50CHL1  H12A 4838   3.981   1.122   3.563
   50CHL1  H12B 4839   3.883   1.262   3.552
   50CHL1   C11 4840   4.037   1.251   3.401
   50CHL1  H11A 4841   4.124   1.185   3.381
   50CHL1  H11B 4842   3.955   1.215   3.335
   50CHL1    C9 4843   4.101   1.395   3.362
   50CHL1    H9 4844   4.011   1.458   3.380
   50CHL1   C10 4845   4.151   1.410   3.218
   50CHL1   C19 4846   4.253   1.301   3.183
   50CHL1  H19A 4847   4.323   1.293   3.269
   50CHL1  H19B 4848   4.200   1.203   3.175
   50CHL1  H19C 4849   4.309   1.326   3.091
   50CHL1    C1 4850   4.020   1.403   3.122
   50CHL1   H1A 4851   3.986   1.297   3.123
   50CHL1   H1B 4852   3.944   1.470   3.168
   50CHL1    C2 4853   4.053   1.445   2.971
   50CHL1   H2A 4854   3.967   1.424   2.903
   50CHL1   H2B 4855   4.138   1.383   2.936
   50CHL1   C20 4856   3.993   1.239   3.895
   50CHL1   H20 4857   4.084   1.200   3.945
   50CHL1   C21 4858   3.912   1.122   3.844
   50CHL1  H21A 4859   3.826   1.154   3.780
   50CHL1  H21B 4860   3.880   1.059   3.929
   50CHL1  H21C 4861   3.974   1.051   3.786
   50CHL1   C22 4862   3.921   1.310   4.005
   50CHL1  H22A 4863   3.986   1.389   4.047
   50CHL1  H22B 4864   3.825   1.360   3.980
   50CHL1   C23 4865   3.879   1.219   4.124
   50CHL1  H23A 4866   3.794   1.153   4.095
   50CHL1  H23B 4867   3.954   1.145   4.158
   50CHL1   C24 4868   3.824   1.305   4.235
   50CHL1  H24A 4869   3.906   1.364   4.281
   50CHL1  H24B 4870   3.744   1.373   4.197
   50CHL1   C25 4871   3.761   1.226   4.353
   50CHL1   H25 4872   3.841   1.159   4.391
   50CHL1   C26 4873   3.725   1.320   4.467
   50CHL1  H26A 4874   3.683   1.256   4.547
   50CHL1  H26B 4875   3.810   1.386   4.492
   50CHL1  H26C 4876   3.637   1.382   4.440
   50CHL1   C27 4877   3.644   1.140   4.308
   50CHL1  H27A 4878   3.685   1.047   4.264
   50CHL1  H27B 4879   3.579   1.108   4.392
   50CHL1  H27C 4880   3.577   1.185   4.231
   51CHL1    C3 4881   3.821   2.878   2.875
   51CHL1    H3 4882   3.921   2.923   2.893
   51CHL1    O3 4883   3.821   2.857   2.740
   51CHL1   H3' 4884   3.796   2.934   2.688
   51CHL1    C4 4885   3.821   2.747   2.955
   51CHL1   H4A 4886   3.725   2.698   2.928
   51CHL1   H4B 4887   3.902   2.683   2.913
   51CHL1    C5 4888   3.828   2.774   3.100
   51CHL1    C6 4889   3.924   2.726   3.169
   51CHL1    H6 4890   3.994   2.657   3.118
   51CHL1    C7 4891   3.952   2.758   3.314
   51CHL1   H7A 4892   3.970   2.663   3.369
   51CHL1   H7B 4893   4.040   2.824   3.327
   51CHL1    C8 4894   3.828   2.830   3.378
   51CHL1    H8 4895   3.759   2.745   3.398
   51CHL1   C14 4896   3.867   2.889   3.510
   51CHL1   H14 4897   3.925   2.979   3.484
   51CHL1   C15 4898   3.944   2.798   3.611
   51CHL1  H15A 4899   3.895   2.699   3.610
   51CHL1  H15B 4900   4.053   2.780   3.594
   51CHL1   C16 4901   3.917   2.872   3.745
   51CHL1  H16A 4902   3.880   2.784   3.802
   51CHL1  H16B 4903   4.001   2.905   3.809
   51CHL1   C17 4904   3.823   2.988   3.715
   51CHL1   H17 4905   3.887   3.073   3.685
   51CHL1   C13 4906   3.751   2.944   3.584
   51CHL1   C18 4907   3.646   2.835   3.627
   51CHL1  H18A 4908   3.701   2.745   3.661
   51CHL1  H18B 4909   3.573   2.875   3.701
   51CHL1  H18C 4910   3.588   2.816   3.534
   51CHL1   C12 4911   3.680   3.062   3.503
   51CHL1  H12A 4912   3.587   3.098   3.553
   51CHL1  H12B 4913   3.757   3.142   3.495
   51CHL1   C11 4914   3.653   3.023   3.356
   51CHL1  H11A 4915   3.549   2.984   3.352
   51CHL1  H11B 4916   3.633   3.117   3.299
   51CHL1    C9 4917   3.759   2.931   3.289
   51CHL1    H9 4918   3.838   3.005   3.265
   51CHL1   C10 4919   3.713   2.875   3.155
   51CHL1   C19 4920   3.581   2.802   3.177
   51CHL1  H19A 4921   3.575   2.722   3.101
   51CHL1  H19B 4922   3.579   2.742   3.270
   51CHL1  H19C 4923   3.496   2.873   3.165
   51CHL1    C1 4924   3.687   2.998   3.063
   51CHL1   H1A 4925   3.590   3.049   3.082
   51CHL1   H1B 4926   3.765   3.075   3.078
   51CHL1    C2 4927   3.700   2.971   2.908
   51CHL1   H2A 4928   3.712   3.067   2.854
   51CHL1   H2B 4929   3.607   2.914   2.884
   51CHL1   C20 4930   3.733   3.038   3.834
   51CHL1   H20 4931   3.629   3.058   3.800
   51CHL1   C21 4932   3.802   3.168   3.883
   51CHL1  H21A 4933   3.913   3.179   3.879
   51CHL1  H21B 4934   3.778   3.187   3.990
   51CHL1  H21C 4935   3.759   3.245   3.816
   51CHL1   C22 4936   3.726   2.938   3.959
   51CHL1  H22A 4937   3.718   2.832   3.927
   51CHL1  H22B 4938   3.818   2.938   4.021
   51CHL1   C23 4939   3.603   2.948   4.056
   51CHL1  H23A 4940   3.600   3.050   4.099
   51CHL1  H23B 4941   3.514   2.931   3.991
   51CHL1   C24 4942   3.613   2.846   4.165
   51CHL1  H24A 4943   3.636   2.746   4.124
   51CHL1  H24B 4944   3.699   2.871   4.231
   51CHL1   C25 4945   3.487   2.828   4.256
   51CHL1   H25 4946   3.405   2.795   4.189
   51CHL1   C26 4947   3.505   2.715   4.357
   51CHL1  H26A 4948   3.406   2.682   4.395
   51CHL1  H26B 4949   3.558   2.634   4.302
   51CHL1  H26C 4950   3.563   2.753   4.444
   51CHL1   C27 4951   3.460   2.963   4.322
   51CHL1  H27A 4952   3.555   3.017   4.342
   51CHL1  H27B 4953   3.395   3.018   4.250
   51CHL1  H27C 4954   3.395   2.948   4.410
   52CHL1    C3 4955   3.179   4.210   2.412
   52CHL1    H3 4956   3.186   4.320   2.426
   52CHL1    O3 4957   3.198   4.176   2.278
   52CHL1   H3' 4958   3.206   4.080   2.276
   52CHL1    C4 4959   3.289   4.137   2.495
   52CHL1   H4A 4960   3.278   4.031   2.462
   52CHL1   H4B 4961   3.394   4.159   2.464
   52CHL1    C5 4962   3.256   4.152   2.644
   52CHL1    C6 4963   3.352   4.201   2.729
   52CHL1    H6 4964   3.451   4.233   2.692
   52CHL1    C7 4965   3.323   4.227   2.873
   52CHL1   H7A 4966   3.413   4.192   2.927
   52CHL1   H7B 4967   3.312   4.337   2.886
   52CHL1    C8 4968   3.202   4.151   2.932
   52CHL1    H8 4969   3.226   4.045   2.956
   52CHL1   C14 4970   3.168   4.208   3.065
   52CHL1   H14 4971   3.144   4.314   3.043
   52CHL1   C15 4972   3.276   4.214   3.174
   52CHL1  H15A 4973   3.324   4.116   3.191
   52CHL1  H15B 4974   3.356   4.289   3.155
   52CHL1   C16 4975   3.191   4.252   3.305
   52CHL1  H16A 4976   3.218   4.196   3.398
   52CHL1  H16B 4977   3.210   4.359   3.326
   52CHL1   C17 4978   3.037   4.247   3.261
   52CHL1   H17 4979   3.013   4.350   3.227
   52CHL1   C13 4980   3.040   4.152   3.135
   52CHL1   C18 4981   3.054   4.002   3.178
   52CHL1  H18A 4982   3.146   3.988   3.239
   52CHL1  H18B 4983   2.963   3.972   3.233
   52CHL1  H18C 4984   3.068   3.932   3.093
   52CHL1   C12 4985   2.924   4.171   3.039
   52CHL1  H12A 4986   2.830   4.126   3.076
   52CHL1  H12B 4987   2.902   4.279   3.027
   52CHL1   C11 4988   2.953   4.115   2.898
   52CHL1  H11A 4989   2.959   4.004   2.898
   52CHL1  H11B 4990   2.873   4.137   2.823
   52CHL1    C9 4991   3.083   4.167   2.837
   52CHL1    H9 4992   3.068   4.276   2.820
   52CHL1   C10 4993   3.110   4.117   2.691
   52CHL1   C19 4994   3.080   3.969   2.669
   52CHL1  H19A 4995   3.106   3.935   2.566
   52CHL1  H19B 4996   3.150   3.913   2.734
   52CHL1  H19C 4997   2.978   3.939   2.700
   52CHL1    C1 4998   3.020   4.198   2.597
   52CHL1   H1A 4999   2.918   4.175   2.634
   52CHL1   H1B 5000   3.042   4.306   2.614
   52CHL1    C2 5001   3.035   4.164   2.448
   52CHL1   H2A 5002   2.973   4.240   2.395
   52CHL1   H2B 5003   3.020   4.060   2.412
   52CHL1   C20 5004   2.944   4.226   3.371
   52CHL1   H20 5005   2.956   4.121   3.404
   52CHL1   C21 5006   2.797   4.239   3.317
   52CHL1  H21A 5007   2.720   4.262   3.393
   52CHL1  H21B 5008   2.778   4.148   3.257
   52CHL1  H21C 5009   2.787   4.323   3.245
   52CHL1   C22 5010   2.964   4.307   3.502
   52CHL1  H22A 5011   3.071   4.321   3.528
   52CHL1  H22B 5012   2.921   4.407   3.481
   52CHL1   C23 5013   2.891   4.231   3.613
   52CHL1  H23A 5014   2.795   4.189   3.575
   52CHL1  H23B 5015   2.948   4.139   3.639
   52CHL1   C24 5016   2.884   4.328   3.738
   52CHL1  H24A 5017   2.989   4.354   3.763
   52CHL1  H24B 5018   2.836   4.419   3.696
   52CHL1   C25 5019   2.819   4.266   3.860
   52CHL1   H25 5020   2.829   4.156   3.869
   52CHL1   C26 5021   2.878   4.332   3.981
   52CHL1  H26A 5022   2.838   4.435   3.988
   52CHL1  H26B 5023   2.864   4.277   4.076
   52CHL1  H26C 5024   2.989   4.343   3.979
   52CHL1   C27 5025   2.668   4.273   3.858
   52CHL1  H27A 5026   2.621   4.251   3.956
   52CHL1  H27B 5027   2.634   4.375   3.830
   52CHL1  H27C 5028   2.624   4.199   3.788
   53CHL1    C3 5029   3.159   3.145   2.956
   53CHL1    H3 5030   3.133   3.251   2.979
   53CHL1    O3 5031   3.200   3.127   2.825
   53CHL1   H3' 5032   3.253   3.047   2.834
   53CHL1    C4 5033   3.280   3.110   3.051
   53CHL1   H4A 5034   3.313   3.010   3.015
   53CHL1   H4B 5035   3.367   3.175   3.028
   53CHL1    C5 5036   3.252   3.119   3.203
   53CHL1    C6 5037   3.326   3.194   3.284
   53CHL1    H6 5038   3.407   3.258   3.246
   53CHL1    C7 5039   3.311   3.187   3.437
   53CHL1   H7A 5040   3.404   3.177   3.498
   53CHL1   H7B 5041   3.274   3.286   3.469
   53CHL1    C8 5042   3.218   3.074   3.481
   53CHL1    H8 5043   3.279   2.982   3.474
   53CHL1   C14 5044   3.176   3.091   3.628
   53CHL1   H14 5045   3.112   3.182   3.622
   53CHL1   C15 5046   3.280   3.109   3.739
   53CHL1  H15A 5047   3.369   3.045   3.724
   53CHL1  H15B 5048   3.297   3.219   3.746
   53CHL1   C16 5049   3.213   3.059   3.863
   53CHL1  H16A 5050   3.272   2.975   3.906
   53CHL1  H16B 5051   3.220   3.141   3.937
   53CHL1   C17 5052   3.072   3.007   3.826
   53CHL1   H17 5053   3.006   3.096   3.827
   53CHL1   C13 5054   3.090   2.970   3.677
   53CHL1   C18 5055   3.172   2.839   3.671
   53CHL1  H18A 5056   3.192   2.813   3.565
   53CHL1  H18B 5057   3.275   2.855   3.711
   53CHL1  H18C 5058   3.122   2.751   3.717
   53CHL1   C12 5059   2.955   2.975   3.594
   53CHL1  H12A 5060   2.883   2.899   3.630
   53CHL1  H12B 5061   2.918   3.076   3.621
   53CHL1   C11 5062   2.983   2.957   3.442
   53CHL1  H11A 5063   3.009   2.849   3.446
   53CHL1  H11B 5064   2.883   2.973   3.395
   53CHL1    C9 5065   3.092   3.056   3.388
   53CHL1    H9 5066   3.040   3.153   3.400
   53CHL1   C10 5067   3.135   3.034   3.241
   53CHL1   C19 5068   3.180   2.884   3.225
   53CHL1  H19A 5069   3.207   2.868   3.118
   53CHL1  H19B 5070   3.269   2.856   3.286
   53CHL1  H19C 5071   3.096   2.814   3.245
   53CHL1    C1 5072   3.010   3.060   3.136
   53CHL1   H1A 5073   2.930   2.987   3.162
   53CHL1   H1B 5074   2.974   3.164   3.150
   53CHL1    C2 5075   3.036   3.051   2.987
   53CHL1   H2A 5076   2.952   3.074   2.917
   53CHL1   H2B 5077   3.058   2.945   2.960
   53CHL1   C20 5078   3.004   2.906   3.920
   53CHL1   H20 5079   2.978   2.811   3.868
   53CHL1   C21 5080   2.868   2.974   3.962
   53CHL1  H21A 5081   2.810   2.912   4.033
   53CHL1  H21B 5082   2.808   2.989   3.869
   53CHL1  H21C 5083   2.884   3.065   4.024
   53CHL1   C22 5084   3.090   2.870   4.048
   53CHL1  H22A 5085   3.179   2.814   4.012
   53CHL1  H22B 5086   3.127   2.960   4.100
   53CHL1   C23 5087   3.020   2.774   4.143
   53CHL1  H23A 5088   2.941   2.824   4.203
   53CHL1  H23B 5089   2.984   2.685   4.086
   53CHL1   C24 5090   3.123   2.726   4.248
   53CHL1  H24A 5091   3.208   2.697   4.183
   53CHL1  H24B 5092   3.149   2.807   4.319
   53CHL1   C25 5093   3.078   2.606   4.328
   53CHL1   H25 5094   3.031   2.540   4.252
   53CHL1   C26 5095   3.189   2.534   4.407
   53CHL1  H26A 5096   3.228   2.597   4.490
   53CHL1  H26B 5097   3.141   2.451   4.463
   53CHL1  H26C 5098   3.275   2.496   4.349
   53CHL1   C27 5099   2.977   2.653   4.429
   53CHL1  H27A 5100   2.891   2.702   4.379
   53CHL1  H27B 5101   2.922   2.562   4.462
   53CHL1  H27C 5102   3.024   2.707   4.513
   54CHL1    C3 5103   2.458   3.344   2.760
   54CHL1    H3 5104   2.438   3.434   2.823
   54CHL1    O3 5105   2.483   3.377   2.629
   54CHL1   H3' 5106   2.506   3.289   2.597
   54CHL1    C4 5107   2.581   3.263   2.811
   54CHL1   H4A 5108   2.594   3.179   2.739
   54CHL1   H4B 5109   2.667   3.334   2.806
   54CHL1    C5 5110   2.564   3.218   2.959
   54CHL1    C6 5111   2.661   3.248   3.053
   54CHL1    H6 5112   2.754   3.300   3.026
   54CHL1    C7 5113   2.653   3.197   3.192
   54CHL1   H7A 5114   2.745   3.144   3.221
   54CHL1   H7B 5115   2.647   3.287   3.257
   54CHL1    C8 5116   2.539   3.095   3.228
   54CHL1    H8 5117   2.556   2.989   3.200
   54CHL1   C14 5118   2.513   3.099   3.379
   54CHL1   H14 5119   2.488   3.207   3.391
   54CHL1   C15 5120   2.630   3.071   3.479
   54CHL1  H15A 5121   2.668   2.973   3.445
   54CHL1  H15B 5122   2.712   3.144   3.465
   54CHL1   C16 5123   2.563   3.076   3.618
   54CHL1  H16A 5124   2.596   2.988   3.677
   54CHL1  H16B 5125   2.593   3.164   3.679
   54CHL1   C17 5126   2.409   3.076   3.594
   54CHL1   H17 5127   2.368   3.179   3.597
   54CHL1   C13 5128   2.391   3.036   3.444
   54CHL1   C18 5129   2.411   2.884   3.438
   54CHL1  H18A 5130   2.327   2.824   3.479
   54CHL1  H18B 5131   2.409   2.845   3.334
   54CHL1  H18C 5132   2.503   2.847   3.489
   54CHL1   C12 5133   2.265   3.085   3.369
   54CHL1  H12A 5134   2.178   3.019   3.394
   54CHL1  H12B 5135   2.238   3.188   3.402
   54CHL1   C11 5136   2.282   3.082   3.213
   54CHL1  H11A 5137   2.286   2.976   3.180
   54CHL1  H11B 5138   2.188   3.124   3.169
   54CHL1    C9 5139   2.411   3.146   3.154
   54CHL1    H9 5140   2.400   3.251   3.189
   54CHL1   C10 5141   2.434   3.148   2.997
   54CHL1   C19 5142   2.436   2.993   2.951
   54CHL1  H19A 5143   2.340   2.941   2.971
   54CHL1  H19B 5144   2.473   2.989   2.846
   54CHL1  H19C 5145   2.521   2.950   3.008
   54CHL1    C1 5146   2.314   3.223   2.931
   54CHL1   H1A 5147   2.228   3.152   2.935
   54CHL1   H1B 5148   2.279   3.315   2.983
   54CHL1    C2 5149   2.330   3.256   2.786
   54CHL1   H2A 5150   2.245   3.319   2.751
   54CHL1   H2B 5151   2.338   3.167   2.720
   54CHL1   C20 5152   2.322   2.996   3.696
   54CHL1   H20 5153   2.345   2.889   3.675
   54CHL1   C21 5154   2.169   3.019   3.684
   54CHL1  H21A 5155   2.122   2.967   3.599
   54CHL1  H21B 5156   2.148   3.127   3.701
   54CHL1  H21C 5157   2.121   2.965   3.768
   54CHL1   C22 5158   2.374   3.017   3.842
   54CHL1  H22A 5159   2.321   2.945   3.908
   54CHL1  H22B 5160   2.479   2.989   3.865
   54CHL1   C23 5161   2.351   3.156   3.899
   54CHL1  H23A 5162   2.381   3.246   3.842
   54CHL1  H23B 5163   2.243   3.177   3.911
   54CHL1   C24 5164   2.414   3.182   4.038
   54CHL1  H24A 5165   2.518   3.152   4.014
   54CHL1  H24B 5166   2.415   3.290   4.065
   54CHL1   C25 5167   2.372   3.089   4.152
   54CHL1   H25 5168   2.284   3.031   4.118
   54CHL1   C26 5169   2.471   2.974   4.192
   54CHL1  H26A 5170   2.461   2.892   4.117
   54CHL1  H26B 5171   2.573   3.009   4.219
   54CHL1  H26C 5172   2.433   2.919   4.281
   54CHL1   C27 5173   2.343   3.177   4.276
   54CHL1  H27A 5174   2.303   3.276   4.249
   54CHL1  H27B 5175   2.266   3.134   4.343
   54CHL1  H27C 5176   2.436   3.196   4.334
   55CHL1    C3 5177   3.855   6.231   2.482
   55CHL1    H3 5178   3.813   6.325   2.522
   55CHL1    O3 5179   3.857   6.235   2.340
   55CHL1   H3' 5180   3.914   6.164   2.312
   55CHL1    C4 5181   4.002   6.214   2.541
   55CHL1   H4A 5182   4.044   6.130   2.481
   55CHL1   H4B 5183   4.056   6.304   2.506
   55CHL1    C5 5184   4.015   6.185   2.692
   55CHL1    C6 5185   4.077   6.277   2.774
   55CHL1    H6 5186   4.131   6.358   2.724
   55CHL1    C7 5187   4.081   6.267   2.927
   55CHL1   H7A 5188   4.187   6.276   2.956
   55CHL1   H7B 5189   4.030   6.355   2.970
   55CHL1    C8 5190   4.028   6.123   2.969
   55CHL1    H8 5191   4.114   6.055   2.953
   55CHL1   C14 5192   4.005   6.130   3.122
   55CHL1   H14 5193   3.933   6.215   3.127
   55CHL1   C15 5194   4.114   6.176   3.226
   55CHL1  H15A 5195   4.205   6.113   3.220
   55CHL1  H15B 5196   4.154   6.278   3.209
   55CHL1   C16 5197   4.046   6.157   3.353
   55CHL1  H16A 5198   4.113   6.112   3.429
   55CHL1  H16B 5199   4.000   6.247   3.398
   55CHL1   C17 5200   3.916   6.064   3.327
   55CHL1   H17 5201   3.829   6.134   3.328
   55CHL1   C13 5202   3.926   6.011   3.186
   55CHL1   C18 5203   4.018   5.884   3.183
   55CHL1  H18A 5204   3.961   5.800   3.227
   55CHL1  H18B 5205   4.049   5.855   3.080
   55CHL1  H18C 5206   4.109   5.895   3.246
   55CHL1   C12 5207   3.795   5.982   3.109
   55CHL1  H12A 5208   3.749   5.887   3.144
   55CHL1  H12B 5209   3.715   6.058   3.123
   55CHL1   C11 5210   3.814   5.972   2.957
   55CHL1  H11A 5211   3.856   5.870   2.943
   55CHL1  H11B 5212   3.716   5.972   2.904
   55CHL1    C9 5213   3.895   6.088   2.892
   55CHL1    H9 5214   3.831   6.176   2.913
   55CHL1   C10 5215   3.921   6.077   2.742
   55CHL1   C19 5216   3.986   5.940   2.707
   55CHL1  H19A 5217   4.014   5.925   2.600
   55CHL1  H19B 5218   4.079   5.943   2.767
   55CHL1  H19C 5219   3.929   5.849   2.735
   55CHL1    C1 5220   3.775   6.098   2.680
   55CHL1   H1A 5221   3.713   6.010   2.706
   55CHL1   H1B 5222   3.728   6.189   2.724
   55CHL1    C2 5223   3.764   6.109   2.524
   55CHL1   H2A 5224   3.659   6.119   2.489
   55CHL1   H2B 5225   3.797   6.011   2.484
   55CHL1   C20 5226   3.896   5.962   3.439
   55CHL1   H20 5227   3.994   5.909   3.440
   55CHL1   C21 5228   3.777   5.870   3.413
   55CHL1  H21A 5229   3.799   5.775   3.361
   55CHL1  H21B 5230   3.692   5.912   3.355
   55CHL1  H21C 5231   3.733   5.844   3.511
   55CHL1   C22 5232   3.886   6.023   3.583
   55CHL1  H22A 5233   3.962   6.103   3.589
   55CHL1  H22B 5234   3.787   6.062   3.615
   55CHL1   C23 5235   3.925   5.915   3.678
   55CHL1  H23A 5236   3.840   5.844   3.687
   55CHL1  H23B 5237   4.015   5.862   3.639
   55CHL1   C24 5238   3.958   5.970   3.818
   55CHL1  H24A 5239   4.027   6.057   3.812
   55CHL1  H24B 5240   3.865   6.009   3.865
   55CHL1   C25 5241   3.999   5.871   3.933
   55CHL1   H25 5242   4.098   5.823   3.918
   55CHL1   C26 5243   4.001   5.961   4.060
   55CHL1  H26A 5244   3.903   6.014   4.064
   55CHL1  H26B 5245   4.019   5.892   4.145
   55CHL1  H26C 5246   4.088   6.030   4.064
   55CHL1   C27 5247   3.891   5.763   3.961
   55CHL1  H27A 5248   3.789   5.799   3.984
   55CHL1  H27B 5249   3.889   5.693   3.875
   55CHL1  H27C 5250   3.928   5.701   4.045
   56CHL1    C3 5251   5.776   1.769   2.946
   56CHL1    H3 5252   5.758   1.661   2.967
   56CHL1    O3 5253   5.763   1.796   2.805
   56CHL1   H3' 5254   5.767   1.715   2.754
   56CHL1    C4 5255   5.666   1.852   3.011
   56CHL1   H4A 5256   5.680   1.961   2.990
   56CHL1   H4B 5257   5.567   1.825   2.970
   56CHL1    C5 5258   5.665   1.838   3.160
   56CHL1    C6 5259   5.557   1.807   3.237
   56CHL1    H6 5260   5.460   1.776   3.194
   56CHL1    C7 5261   5.560   1.799   3.390
   56CHL1   H7A 5262   5.463   1.845   3.420
   56CHL1   H7B 5263   5.549   1.691   3.414
   56CHL1    C8 5264   5.676   1.863   3.460
   56CHL1    H8 5265   5.665   1.973   3.449
   56CHL1   C14 5266   5.685   1.813   3.603
   56CHL1   H14 5267   5.705   1.704   3.591
   56CHL1   C15 5268   5.562   1.840   3.686
   56CHL1  H15A 5269   5.524   1.943   3.672
   56CHL1  H15B 5270   5.481   1.764   3.674
   56CHL1   C16 5271   5.614   1.810   3.826
   56CHL1  H16A 5272   5.583   1.895   3.891
   56CHL1  H16B 5273   5.557   1.721   3.860
   56CHL1   C17 5274   5.767   1.785   3.816
   56CHL1   H17 5275   5.780   1.676   3.799
   56CHL1   C13 5276   5.802   1.862   3.690
   56CHL1   C18 5277   5.798   2.015   3.715
   56CHL1  H18A 5278   5.884   2.048   3.777
   56CHL1  H18B 5279   5.798   2.073   3.621
   56CHL1  H18C 5280   5.717   2.061   3.776
   56CHL1   C12 5281   5.935   1.837   3.613
   56CHL1  H12A 5282   6.023   1.880   3.666
   56CHL1  H12B 5283   5.960   1.729   3.609
   56CHL1   C11 5284   5.928   1.882   3.466
   56CHL1  H11A 5285   5.944   1.992   3.460
   56CHL1  H11B 5286   6.018   1.850   3.409
   56CHL1    C9 5287   5.800   1.832   3.384
   56CHL1    H9 5288   5.811   1.721   3.380
   56CHL1   C10 5289   5.799   1.871   3.232
   56CHL1   C19 5290   5.803   2.025   3.232
   56CHL1  H19A 5291   5.710   2.058   3.282
   56CHL1  H19B 5292   5.896   2.064   3.279
   56CHL1  H19C 5293   5.798   2.070   3.131
   56CHL1    C1 5294   5.927   1.808   3.156
   56CHL1   H1A 5295   6.023   1.849   3.191
   56CHL1   H1B 5296   5.943   1.701   3.181
   56CHL1    C2 5297   5.914   1.820   3.003
   56CHL1   H2A 5298   5.997   1.769   2.949
   56CHL1   H2B 5299   5.922   1.926   2.970
   56CHL1   C20 5300   5.831   1.821   3.950
   56CHL1   H20 5301   5.810   1.925   3.983
   56CHL1   C21 5302   5.985   1.804   3.948
   56CHL1  H21A 5303   6.010   1.699   3.920
   56CHL1  H21B 5304   6.029   1.828   4.048
   56CHL1  H21C 5305   6.036   1.874   3.879
   56CHL1   C22 5306   5.778   1.731   4.066
   56CHL1  H22A 5307   5.673   1.702   4.045
   56CHL1  H22B 5308   5.832   1.636   4.048
   56CHL1   C23 5309   5.813   1.779   4.208
   56CHL1  H23A 5310   5.923   1.778   4.225
   56CHL1  H23B 5311   5.777   1.881   4.229
   56CHL1   C24 5312   5.737   1.695   4.309
   56CHL1  H24A 5313   5.629   1.698   4.284
   56CHL1  H24B 5314   5.773   1.590   4.305
   56CHL1   C25 5315   5.746   1.737   4.457
   56CHL1   H25 5316   5.854   1.753   4.476
   56CHL1   C26 5317   5.667   1.869   4.495
   56CHL1  H26A 5318   5.636   1.871   4.602
   56CHL1  H26B 5319   5.737   1.953   4.477
   56CHL1  H26C 5320   5.577   1.876   4.431
   56CHL1   C27 5321   5.676   1.633   4.549
   56CHL1  H27A 5322   5.725   1.534   4.541
   56CHL1  H27B 5323   5.680   1.659   4.657
   56CHL1  H27C 5324   5.570   1.610   4.526
   57CHL1    C3 5325   4.587   6.791   2.794
   57CHL1    H3 5326   4.628   0.065   2.837
   57CHL1    O3 5327   4.608   6.798   2.654
   57CHL1   H3' 5328   4.515   6.786   2.632
   57CHL1    C4 5329   4.650   6.668   2.861
   57CHL1   H4A 5330   4.623   6.576   2.804
   57CHL1   H4B 5331   4.759   6.663   2.841
   57CHL1    C5 5332   4.622   6.666   3.010
   57CHL1    C6 5333   4.720   6.664   3.107
   57CHL1    H6 5334   4.828   6.663   3.087
   57CHL1    C7 5335   4.692   6.669   3.256
   57CHL1   H7A 5336   4.771   6.613   3.311
   57CHL1   H7B 5337   4.680   6.773   3.293
   57CHL1    C8 5338   4.552   6.611   3.286
   57CHL1    H8 5339   4.544   6.503   3.262
   57CHL1   C14 5340   4.519   6.631   3.437
   57CHL1   H14 5341   4.517   6.739   3.462
   57CHL1   C15 5342   4.621   6.572   3.532
   57CHL1  H15A 5343   4.648   6.469   3.499
   57CHL1  H15B 5344   4.714   6.632   3.539
   57CHL1   C16 5345   4.547   6.552   3.665
   57CHL1  H16A 5346   4.562   6.445   3.691
   57CHL1  H16B 5347   4.599   6.608   3.745
   57CHL1   C17 5348   4.398   6.589   3.637
   57CHL1   H17 5349   4.386   6.699   3.649
   57CHL1   C13 5350   4.384   6.574   3.482
   57CHL1   C18 5351   4.370   6.422   3.448
   57CHL1  H18A 5352   4.376   6.403   3.338
   57CHL1  H18B 5353   4.447   6.360   3.497
   57CHL1  H18C 5354   4.274   6.386   3.490
   57CHL1   C12 5355   4.277   6.661   3.413
   57CHL1  H12A 5356   4.176   6.615   3.426
   57CHL1  H12B 5357   4.270   6.764   3.453
   57CHL1   C11 5358   4.305   6.672   3.256
   57CHL1  H11A 5359   4.275   6.571   3.219
   57CHL1  H11B 5360   4.242   6.753   3.214
   57CHL1    C9 5361   4.451   6.692   3.207
   57CHL1    H9 5362   4.478   6.797   3.234
   57CHL1   C10 5363   4.472   6.672   3.057
   57CHL1   C19 5364   4.412   6.538   3.014
   57CHL1  H19A 5365   4.304   6.525   3.039
   57CHL1  H19B 5366   4.419   6.520   2.905
   57CHL1  H19C 5367   4.467   6.455   3.065
   57CHL1    C1 5368   4.402   6.786   2.970
   57CHL1   H1A 5369   4.294   6.773   2.992
   57CHL1   H1B 5370   4.434   0.064   3.014
   57CHL1    C2 5371   4.436   6.792   2.818
   57CHL1   H2A 5372   4.389   0.056   2.761
   57CHL1   H2B 5373   4.396   6.695   2.781
   57CHL1   C20 5374   4.299   6.540   3.734
   57CHL1   H20 5375   4.304   6.430   3.722
   57CHL1   C21 5376   4.161   6.602   3.695
   57CHL1  H21A 5377   4.166   6.711   3.677
   57CHL1  H21B 5378   4.090   6.585   3.779
   57CHL1  H21C 5379   4.127   6.553   3.601
   57CHL1   C22 5380   4.345   6.574   3.878
   57CHL1  H22A 5381   4.276   6.528   3.952
   57CHL1  H22B 5382   4.444   6.524   3.892
   57CHL1   C23 5383   4.352   6.722   3.906
   57CHL1  H23A 5384   4.440   6.775   3.863
   57CHL1  H23B 5385   4.261   6.772   3.868
   57CHL1   C24 5386   4.352   6.766   4.055
   57CHL1  H24A 5387   4.353   0.057   4.060
   57CHL1  H24B 5388   4.253   6.730   4.092
   57CHL1   C25 5389   4.471   6.720   4.141
   57CHL1   H25 5390   4.495   6.614   4.119
   57CHL1   C26 5391   4.598   6.797   4.106
   57CHL1  H26A 5392   4.642   6.769   4.008
   57CHL1  H26B 5393   4.581   0.087   4.116
   57CHL1  H26C 5394   4.673   6.781   4.186
   57CHL1   C27 5395   4.445   6.745   4.296
   57CHL1  H27A 5396   4.351   6.694   4.327
   57CHL1  H27B 5397   4.532   6.702   4.350
   57CHL1  H27C 5398   4.445   0.036   4.305
   58CHL1    C3 5399   4.486   0.482   2.938
   58CHL1    H3 5400   4.573   0.544   2.969
   58CHL1    O3 5401   4.487   0.473   2.796
   58CHL1   H3' 5402   4.544   0.398   2.776
   58CHL1    C4 5403   4.512   0.342   2.993
   58CHL1   H4A 5404   4.447   0.272   2.936
   58CHL1   H4B 5405   4.615   0.317   2.960
   58CHL1    C5 5406   4.504   0.321   3.143
   58CHL1    C6 5407   4.602   0.268   3.211
   58CHL1    H6 5408   4.698   0.245   3.162
   58CHL1    C7 5409   4.607   0.258   3.360
   58CHL1   H7A 5410   4.630   0.155   3.397
   58CHL1   H7B 5411   4.673   0.334   3.407
   58CHL1    C8 5412   4.467   0.279   3.423
   58CHL1    H8 5413   4.408   0.185   3.421
   58CHL1   C14 5414   4.484   0.315   3.576
   58CHL1   H14 5415   4.526   0.417   3.570
   58CHL1   C15 5416   4.575   0.240   3.674
   58CHL1  H15A 5417   4.570   0.135   3.636
   58CHL1  H15B 5418   4.685   0.258   3.674
   58CHL1   C16 5419   4.518   0.270   3.816
   58CHL1  H16A 5420   4.492   0.181   3.877
   58CHL1  H16B 5421   4.584   0.328   3.884
   58CHL1   C17 5422   4.385   0.350   3.791
   58CHL1   H17 5423   4.410   0.458   3.790
   58CHL1   C13 5424   4.344   0.317   3.649
   58CHL1   C18 5425   4.278   0.182   3.652
   58CHL1  H18A 5426   4.248   0.150   3.550
   58CHL1  H18B 5427   4.338   0.101   3.701
   58CHL1  H18C 5428   4.184   0.188   3.710
   58CHL1   C12 5429   4.263   0.423   3.580
   58CHL1  H12A 5430   4.161   0.419   3.622
   58CHL1  H12B 5431   4.310   0.520   3.605
   58CHL1   C11 5432   4.256   0.402   3.428
   58CHL1  H11A 5433   4.198   0.307   3.420
   58CHL1  H11B 5434   4.192   0.479   3.380
   58CHL1    C9 5435   4.389   0.394   3.356
   58CHL1    H9 5436   4.442   0.486   3.387
   58CHL1   C10 5437   4.376   0.388   3.203
   58CHL1   C19 5438   4.261   0.294   3.158
   58CHL1  H19A 5439   4.272   0.261   3.053
   58CHL1  H19B 5440   4.265   0.204   3.223
   58CHL1  H19C 5441   4.159   0.330   3.185
   58CHL1    C1 5442   4.352   0.531   3.146
   58CHL1   H1A 5443   4.256   0.578   3.176
   58CHL1   H1B 5444   4.434   0.603   3.172
   58CHL1    C2 5445   4.359   0.542   2.988
   58CHL1   H2A 5446   4.345   0.645   2.950
   58CHL1   H2B 5447   4.273   0.486   2.946
   58CHL1   C20 5448   4.294   0.335   3.914
   58CHL1   H20 5449   4.257   0.230   3.914
   58CHL1   C21 5450   4.177   0.433   3.913
   58CHL1  H21A 5451   4.219   0.534   3.934
   58CHL1  H21B 5452   4.109   0.407   3.997
   58CHL1  H21C 5453   4.124   0.419   3.816
   58CHL1   C22 5454   4.369   0.355   4.052
   58CHL1  H22A 5455   4.471   0.310   4.055
   58CHL1  H22B 5456   4.385   0.464   4.066
   58CHL1   C23 5457   4.296   0.303   4.174
   58CHL1  H23A 5458   4.192   0.343   4.173
   58CHL1  H23B 5459   4.287   0.192   4.172
   58CHL1   C24 5460   4.349   0.367   4.308
   58CHL1  H24A 5461   4.447   0.319   4.330
   58CHL1  H24B 5462   4.359   0.476   4.291
   58CHL1   C25 5463   4.259   0.355   4.432
   58CHL1   H25 5464   4.157   0.389   4.406
   58CHL1   C26 5465   4.233   0.211   4.478
   58CHL1  H26A 5466   4.196   0.152   4.392
   58CHL1  H26B 5467   4.327   0.169   4.520
   58CHL1  H26C 5468   4.149   0.209   4.550
   58CHL1   C27 5469   4.307   0.442   4.554
   58CHL1  H27A 5470   4.323   0.547   4.520
   58CHL1  H27B 5471   4.223   0.449   4.626
   58CHL1  H27C 5472   4.399   0.396   4.596
   59CHL1    C3 5473   2.697   5.038   2.638
   59CHL1    H3 5474   2.649   4.947   2.679
   59CHL1    O3 5475   2.724   5.032   2.498
   59CHL1   H3' 5476   2.761   5.120   2.488
   59CHL1    C4 5477   2.603   5.152   2.669
   59CHL1   H4A 5478   2.640   5.254   2.649
   59CHL1   H4B 5479   2.513   5.133   2.607
   59CHL1    C5 5480   2.559   5.149   2.814
   59CHL1    C6 5481   2.432   5.121   2.845
   59CHL1    H6 5482   2.364   5.113   2.759
   59CHL1    C7 5483   2.386   5.104   2.985
   59CHL1   H7A 5484   2.291   5.160   2.998
   59CHL1   H7B 5485   2.369   4.998   3.010
   59CHL1    C8 5486   2.498   5.150   3.085
   59CHL1    H8 5487   2.494   5.261   3.087
   59CHL1   C14 5488   2.475   5.090   3.226
   59CHL1   H14 5489   2.486   4.980   3.217
   59CHL1   C15 5490   2.332   5.112   3.272
   59CHL1  H15A 5491   2.316   5.221   3.258
   59CHL1  H15B 5492   2.245   5.066   3.220
   59CHL1   C16 5493   2.346   5.083   3.424
   59CHL1  H16A 5494   2.292   5.162   3.481
   59CHL1  H16B 5495   2.290   4.991   3.452
   59CHL1   C17 5496   2.492   5.079   3.459
   59CHL1   H17 5497   2.521   4.973   3.445
   59CHL1   C13 5498   2.566   5.145   3.336
   59CHL1   C18 5499   2.550   5.298   3.352
   59CHL1  H18A 5500   2.616   5.329   3.436
   59CHL1  H18B 5501   2.567   5.351   3.256
   59CHL1  H18C 5502   2.446   5.328   3.377
   59CHL1   C12 5503   2.712   5.090   3.298
   59CHL1  H12A 5504   2.781   5.138   3.371
   59CHL1  H12B 5505   2.700   4.980   3.309
   59CHL1   C11 5506   2.743   5.127   3.156
   59CHL1  H11A 5507   2.765   5.235   3.167
   59CHL1  H11B 5508   2.837   5.078   3.121
   59CHL1    C9 5509   2.640   5.107   3.043
   59CHL1    H9 5510   2.618   4.999   3.038
   59CHL1   C10 5511   2.682   5.156   2.905
   59CHL1   C19 5512   2.726   5.306   2.909
   59CHL1  H19A 5513   2.831   5.323   2.942
   59CHL1  H19B 5514   2.716   5.350   2.808
   59CHL1  H19C 5515   2.655   5.351   2.981
   59CHL1    C1 5516   2.802   5.068   2.865
   59CHL1   H1A 5517   2.891   5.107   2.920
   59CHL1   H1B 5518   2.795   4.961   2.897
   59CHL1    C2 5519   2.829   5.056   2.714
   59CHL1   H2A 5520   2.905   4.978   2.692
   59CHL1   H2B 5521   2.877   5.148   2.674
   59CHL1   C20 5522   2.533   5.122   3.596
   59CHL1   H20 5523   2.511   5.231   3.601
   59CHL1   C21 5524   2.676   5.091   3.633
   59CHL1  H21A 5525   2.684   5.116   3.741
   59CHL1  H21B 5526   2.747   5.158   3.581
   59CHL1  H21C 5527   2.708   4.988   3.611
   59CHL1   C22 5528   2.452   5.060   3.711
   59CHL1  H22A 5529   2.479   5.098   3.813
   59CHL1  H22B 5530   2.346   5.088   3.693
   59CHL1   C23 5531   2.461   4.908   3.724
   59CHL1  H23A 5532   2.443   4.859   3.625
   59CHL1  H23B 5533   2.564   4.879   3.750
   59CHL1   C24 5534   2.359   4.848   3.825
   59CHL1  H24A 5535   2.366   4.904   3.920
   59CHL1  H24B 5536   2.259   4.884   3.794
   59CHL1   C25 5537   2.380   4.700   3.847
   59CHL1   H25 5538   2.407   4.647   3.753
   59CHL1   C26 5539   2.501   4.677   3.941
   59CHL1  H26A 5540   2.484   4.743   4.029
   59CHL1  H26B 5541   2.501   4.570   3.973
   59CHL1  H26C 5542   2.594   4.700   3.885
   59CHL1   C27 5543   2.258   4.637   3.917
   59CHL1  H27A 5544   2.273   4.535   3.958
   59CHL1  H27B 5545   2.228   4.703   4.002
   59CHL1  H27C 5546   2.177   4.627   3.841
   60CHL1    C3 5547   5.366   5.506   2.796
   60CHL1    H3 5548   5.386   5.397   2.798
   60CHL1    O3 5549   5.312   5.543   2.670
   60CHL1   H3' 5550   5.364   5.614   2.632
   60CHL1    C4 5551   5.258   5.543   2.898
   60CHL1   H4A 5552   5.227   5.648   2.883
   60CHL1   H4B 5553   5.170   5.484   2.864
   60CHL1    C5 5554   5.307   5.527   3.043
   60CHL1    C6 5555   5.238   5.454   3.131
   60CHL1    H6 5556   5.149   5.402   3.095
   60CHL1    C7 5557   5.271   5.458   3.279
   60CHL1   H7A 5558   5.177   5.467   3.337
   60CHL1   H7B 5559   5.325   5.365   3.309
   60CHL1    C8 5560   5.371   5.574   3.311
   60CHL1    H8 5561   5.316   5.670   3.313
   60CHL1   C14 5562   5.423   5.557   3.450
   60CHL1   H14 5563   5.473   5.458   3.457
   60CHL1   C15 5564   5.309   5.530   3.550
   60CHL1  H15A 5565   5.224   5.599   3.532
   60CHL1  H15B 5566   5.266   5.428   3.541
   60CHL1   C16 5567   5.378   5.558   3.685
   60CHL1  H16A 5568   5.314   5.616   3.755
   60CHL1  H16B 5569   5.382   5.460   3.737
   60CHL1   C17 5570   5.519   5.621   3.653
   60CHL1   H17 5571   5.601   5.547   3.655
   60CHL1   C13 5572   5.513   5.664   3.508
   60CHL1   C18 5573   5.452   5.809   3.503
   60CHL1  H18A 5574   5.527   5.887   3.528
   60CHL1  H18B 5575   5.409   5.841   3.406
   60CHL1  H18C 5576   5.370   5.832   3.575
   60CHL1   C12 5577   5.635   5.661   3.417
   60CHL1  H12A 5578   5.695   5.752   3.440
   60CHL1  H12B 5579   5.710   5.582   3.440
   60CHL1   C11 5580   5.611   5.671   3.260
   60CHL1  H11A 5581   5.585   5.776   3.233
   60CHL1  H11B 5582   5.703   5.644   3.205
   60CHL1    C9 5583   5.490   5.576   3.212
   60CHL1    H9 5584   5.543   5.479   3.216
   60CHL1   C10 5585   5.434   5.610   3.074
   60CHL1   C19 5586   5.406   5.759   3.069
   60CHL1  H19A 5587   5.491   5.824   3.038
   60CHL1  H19B 5588   5.333   5.785   2.989
   60CHL1  H19C 5589   5.355   5.802   3.158
   60CHL1    C1 5590   5.539   5.573   2.966
   60CHL1   H1A 5591   5.626   5.639   2.986
   60CHL1   H1B 5592   5.548   5.464   2.985
   60CHL1    C2 5593   5.495   5.588   2.820
   60CHL1   H2A 5594   5.582   5.561   2.756
   60CHL1   H2B 5595   5.478   5.696   2.804
   60CHL1   C20 5596   5.561   5.714   3.758
   60CHL1   H20 5597   5.516   5.816   3.756
   60CHL1   C21 5598   5.714   5.735   3.739
   60CHL1  H21A 5599   5.772   5.640   3.736
   60CHL1  H21B 5600   5.747   5.810   3.814
   60CHL1  H21C 5601   5.732   5.788   3.643
   60CHL1   C22 5602   5.520   5.668   3.900
   60CHL1  H22A 5603   5.411   5.685   3.916
   60CHL1  H22B 5604   5.538   5.561   3.923
   60CHL1   C23 5605   5.595   5.732   4.014
   60CHL1  H23A 5606   5.696   5.690   4.034
   60CHL1  H23B 5607   5.607   5.842   4.007
   60CHL1   C24 5608   5.514   5.695   4.138
   60CHL1  H24A 5609   5.407   5.724   4.129
   60CHL1  H24B 5610   5.518   5.584   4.134
   60CHL1   C25 5611   5.574   5.727   4.272
   60CHL1   H25 5612   5.667   5.666   4.277
   60CHL1   C26 5613   5.609   5.882   4.289
   60CHL1  H26A 5614   5.692   5.903   4.220
   60CHL1  H26B 5615   5.522   5.943   4.256
   60CHL1  H26C 5616   5.636   5.909   4.393
   60CHL1   C27 5617   5.474   5.706   4.382
   60CHL1  H27A 5618   5.430   5.604   4.383
   60CHL1  H27B 5619   5.517   5.723   4.483
   60CHL1  H27C 5620   5.390   5.778   4.390
   61CHL1    C3 5621   5.365   2.383   3.260
   61CHL1    H3 5622   5.255   2.376   3.267
   61CHL1    O3 5623   5.404   2.401   3.120
   61CHL1   H3' 5624   5.498   2.384   3.112
   61CHL1    C4 5625   5.405   2.511   3.333
   61CHL1   H4A 5626   5.511   2.528   3.307
   61CHL1   H4B 5627   5.352   2.603   3.303
   61CHL1    C5 5628   5.411   2.507   3.481
   61CHL1    C6 5629   5.360   2.601   3.563
   61CHL1    H6 5630   5.299   2.683   3.522
   61CHL1    C7 5631   5.386   2.611   3.708
   61CHL1   H7A 5632   5.429   2.708   3.741
   61CHL1   H7B 5633   5.289   2.591   3.759
   61CHL1    C8 5634   5.484   2.513   3.762
   61CHL1    H8 5635   5.586   2.543   3.728
   61CHL1   C14 5636   5.479   2.497   3.914
   61CHL1   H14 5637   5.375   2.463   3.933
   61CHL1   C15 5638   5.496   2.626   4.002
   61CHL1  H15A 5639   5.564   2.701   3.956
   61CHL1  H15B 5640   5.400   2.680   4.010
   61CHL1   C16 5641   5.548   2.580   4.143
   61CHL1  H16A 5642   5.651   2.607   4.173
   61CHL1  H16B 5643   5.490   2.615   4.231
   61CHL1   C17 5644   5.538   2.421   4.131
   61CHL1   H17 5645   5.431   2.398   4.149
   61CHL1   C13 5646   5.570   2.398   3.981
   61CHL1   C18 5647   5.719   2.432   3.948
   61CHL1  H18A 5648   5.754   2.522   4.003
   61CHL1  H18B 5649   5.775   2.341   3.980
   61CHL1  H18C 5650   5.731   2.450   3.839
   61CHL1   C12 5651   5.539   2.262   3.915
   61CHL1  H12A 5652   5.612   2.186   3.949
   61CHL1  H12B 5653   5.440   2.222   3.947
   61CHL1   C11 5654   5.546   2.263   3.761
   61CHL1  H11A 5655   5.654   2.271   3.737
   61CHL1  H11B 5656   5.502   2.168   3.723
   61CHL1    C9 5657   5.469   2.378   3.693
   61CHL1    H9 5658   5.362   2.349   3.698
   61CHL1   C10 5659   5.487   2.383   3.537
   61CHL1   C19 5660   5.634   2.401   3.492
   61CHL1  H19A 5661   5.668   2.501   3.525
   61CHL1  H19B 5662   5.708   2.329   3.535
   61CHL1  H19C 5663   5.649   2.395   3.382
   61CHL1    C1 5664   5.429   2.253   3.472
   61CHL1   H1A 5665   5.492   2.167   3.504
   61CHL1   H1B 5666   5.329   2.220   3.508
   61CHL1    C2 5667   5.419   2.258   3.320
   61CHL1   H2A 5668   5.361   2.171   3.283
   61CHL1   H2B 5669   5.520   2.240   3.277
   61CHL1   C20 5670   5.613   2.348   4.240
   61CHL1   H20 5671   5.721   2.354   4.213
   61CHL1   C21 5672   5.565   2.201   4.239
   61CHL1  H21A 5673   5.580   2.145   4.334
   61CHL1  H21B 5674   5.618   2.151   4.155
   61CHL1  H21C 5675   5.457   2.196   4.213
   61CHL1   C22 5676   5.601   2.406   4.379
   61CHL1  H22A 5677   5.625   2.514   4.371
   61CHL1  H22B 5678   5.498   2.396   4.419
   61CHL1   C23 5679   5.710   2.355   4.467
   61CHL1  H23A 5680   5.717   2.246   4.488
   61CHL1  H23B 5681   5.801   2.394   4.417
   61CHL1   C24 5682   5.718   2.415   4.613
   61CHL1  H24A 5683   5.811   2.407   4.673
   61CHL1  H24B 5684   5.727   2.520   4.579
   61CHL1   C25 5685   5.591   2.379   4.695
   61CHL1   H25 5686   5.504   2.403   4.630
   61CHL1   C26 5687   5.582   2.235   4.739
   61CHL1  H26A 5688   5.680   2.221   4.788
   61CHL1  H26B 5689   5.487   2.218   4.795
   61CHL1  H26C 5690   5.567   2.166   4.653
   61CHL1   C27 5691   5.588   2.474   4.822
   61CHL1  H27A 5692   5.679   2.447   4.879
   61CHL1  H27B 5693   5.596   2.580   4.788
   61CHL1  H27C 5694   5.506   2.458   4.895
   62CHL1    C3 5695   1.661   0.745   2.904
   62CHL1    H3 5696   1.580   0.821   2.905
   62CHL1    O3 5697   1.653   0.686   2.771
   62CHL1   H3' 5698   1.742   0.651   2.761
   62CHL1    C4 5699   1.798   0.811   2.943
   62CHL1   H4A 5700   1.877   0.744   2.905
   62CHL1   H4B 5701   1.817   0.895   2.873
   62CHL1    C5 5702   1.817   0.868   3.082
   62CHL1    C6 5703   1.848   0.996   3.108
   62CHL1    H6 5704   1.886   1.059   3.026
   62CHL1    C7 5705   1.868   1.055   3.248
   62CHL1   H7A 5706   1.954   1.125   3.249
   62CHL1   H7B 5707   1.784   1.125   3.267
   62CHL1    C8 5708   1.856   0.952   3.362
   62CHL1    H8 5709   1.956   0.902   3.359
   62CHL1   C14 5710   1.827   1.034   3.489
   62CHL1   H14 5711   1.724   1.075   3.478
   62CHL1   C15 5712   1.920   1.151   3.525
   62CHL1  H15A 5713   2.029   1.127   3.527
   62CHL1  H15B 5714   1.910   1.246   3.469
   62CHL1   C16 5715   1.875   1.172   3.679
   62CHL1  H16A 5716   1.972   1.184   3.732
   62CHL1  H16B 5717   1.823   1.271   3.681
   62CHL1   C17 5718   1.802   1.046   3.727
   62CHL1   H17 5719   1.693   1.067   3.721
   62CHL1   C13 5720   1.821   0.939   3.614
   62CHL1   C18 5721   1.959   0.864   3.639
   62CHL1  H18A 5722   2.037   0.941   3.661
   62CHL1  H18B 5723   1.954   0.806   3.733
   62CHL1  H18C 5724   1.987   0.810   3.545
   62CHL1   C12 5725   1.709   0.831   3.593
   62CHL1  H12A 5726   1.710   0.761   3.679
   62CHL1  H12B 5727   1.607   0.872   3.605
   62CHL1   C11 5728   1.734   0.761   3.460
   62CHL1  H11A 5729   1.835   0.715   3.467
   62CHL1  H11B 5730   1.661   0.681   3.434
   62CHL1    C9 5731   1.745   0.853   3.336
   62CHL1    H9 5732   1.651   0.910   3.326
   62CHL1   C10 5733   1.763   0.774   3.201
   62CHL1   C19 5734   1.871   0.666   3.225
   62CHL1  H19A 5735   1.842   0.587   3.297
   62CHL1  H19B 5736   1.879   0.605   3.132
   62CHL1  H19C 5737   1.971   0.709   3.246
   62CHL1    C1 5738   1.626   0.714   3.151
   62CHL1   H1A 5739   1.582   0.638   3.219
   62CHL1   H1B 5740   1.557   0.801   3.143
   62CHL1    C2 5741   1.625   0.638   3.016
   62CHL1   H2A 5742   1.525   0.605   2.981
   62CHL1   H2B 5743   1.707   0.563   3.025
   62CHL1   C20 5744   1.832   1.006   3.873
   62CHL1   H20 5745   1.940   0.982   3.877
   62CHL1   C21 5746   1.750   0.887   3.919
   62CHL1  H21A 5747   1.644   0.903   3.889
   62CHL1  H21B 5748   1.747   0.885   4.030
   62CHL1  H21C 5749   1.788   0.794   3.872
   62CHL1   C22 5750   1.821   1.120   3.975
   62CHL1  H22A 5751   1.896   1.194   3.940
   62CHL1  H22B 5752   1.721   1.168   3.965
   62CHL1   C23 5753   1.850   1.091   4.120
   62CHL1  H23A 5754   1.756   1.047   4.161
   62CHL1  H23B 5755   1.934   1.022   4.144
   62CHL1   C24 5756   1.878   1.224   4.189
   62CHL1  H24A 5757   1.961   1.280   4.141
   62CHL1  H24B 5758   1.788   1.289   4.192
   62CHL1   C25 5759   1.931   1.214   4.337
   62CHL1   H25 5760   1.940   1.317   4.377
   62CHL1   C26 5761   1.824   1.149   4.424
   62CHL1  H26A 5762   1.807   1.043   4.397
   62CHL1  H26B 5763   1.840   1.173   4.531
   62CHL1  H26C 5764   1.729   1.206   4.412
   62CHL1   C27 5765   2.065   1.142   4.349
   62CHL1  H27A 5766   2.094   1.134   4.455
   62CHL1  H27B 5767   2.055   1.037   4.315
   62CHL1  H27C 5768   2.149   1.195   4.299
   63CHL1    C3 5769   4.494   5.004   2.663
   63CHL1    H3 5770   4.535   4.902   2.682
   63CHL1    O3 5771   4.495   5.027   2.522
   63CHL1   H3' 5772   4.439   4.957   2.486
   63CHL1    C4 5773   4.352   5.003   2.717
   63CHL1   H4A 5774   4.309   5.104   2.704
   63CHL1   H4B 5775   4.296   4.930   2.655
   63CHL1    C5 5776   4.353   4.964   2.870
   63CHL1    C6 5777   4.288   4.859   2.918
   63CHL1    H6 5778   4.255   4.789   2.840
   63CHL1    C7 5779   4.271   4.823   3.060
   63CHL1   H7A 5780   4.164   4.800   3.076
   63CHL1   H7B 5781   4.332   4.733   3.084
   63CHL1    C8 5782   4.312   4.939   3.159
   63CHL1    H8 5783   4.222   5.003   3.165
   63CHL1   C14 5784   4.341   4.894   3.303
   63CHL1   H14 5785   4.424   4.819   3.306
   63CHL1   C15 5786   4.226   4.829   3.381
   63CHL1  H15A 5787   4.124   4.870   3.365
   63CHL1  H15B 5788   4.218   4.722   3.352
   63CHL1   C16 5789   4.262   4.855   3.530
   63CHL1  H16A 5790   4.182   4.904   3.590
   63CHL1  H16B 5791   4.292   4.757   3.572
   63CHL1   C17 5792   4.396   4.940   3.526
   63CHL1   H17 5793   4.481   4.870   3.509
   63CHL1   C13 5794   4.378   5.011   3.388
   63CHL1   C18 5795   4.262   5.115   3.407
   63CHL1  H18A 5796   4.303   5.216   3.429
   63CHL1  H18B 5797   4.216   5.138   3.309
   63CHL1  H18C 5798   4.174   5.078   3.463
   63CHL1   C12 5799   4.499   5.090   3.338
   63CHL1  H12A 5800   4.527   5.170   3.410
   63CHL1  H12B 5801   4.587   5.022   3.340
   63CHL1   C11 5802   4.473   5.143   3.197
   63CHL1  H11A 5803   4.386   5.212   3.193
   63CHL1  H11B 5804   4.554   5.207   3.157
   63CHL1    C9 5805   4.430   5.028   3.107
   63CHL1    H9 5806   4.518   4.961   3.114
   63CHL1   C10 5807   4.428   5.066   2.954
   63CHL1   C19 5808   4.355   5.203   2.935
   63CHL1  H19A 5809   4.351   5.237   2.829
   63CHL1  H19B 5810   4.253   5.186   2.976
   63CHL1  H19C 5811   4.409   5.283   2.990
   63CHL1    C1 5812   4.570   5.092   2.897
   63CHL1   H1A 5813   4.622   5.177   2.946
   63CHL1   H1B 5814   4.626   5.000   2.925
   63CHL1    C2 5815   4.580   5.107   2.741
   63CHL1   H2A 5816   4.685   5.096   2.706
   63CHL1   H2B 5817   4.547   5.209   2.714
   63CHL1   C20 5818   4.424   5.026   3.650
   63CHL1   H20 5819   4.356   5.114   3.643
   63CHL1   C21 5820   4.569   5.064   3.668
   63CHL1  H21A 5821   4.564   5.143   3.746
   63CHL1  H21B 5822   4.616   5.115   3.581
   63CHL1  H21C 5823   4.623   4.976   3.707
   63CHL1   C22 5824   4.386   4.952   3.779
   63CHL1  H22A 5825   4.279   4.925   3.768
   63CHL1  H22B 5826   4.440   4.855   3.780
   63CHL1   C23 5827   4.408   5.016   3.913
   63CHL1  H23A 5828   4.519   5.019   3.922
   63CHL1  H23B 5829   4.369   5.120   3.909
   63CHL1   C24 5830   4.346   4.939   4.032
   63CHL1  H24A 5831   4.237   4.921   4.021
   63CHL1  H24B 5832   4.398   4.845   4.062
   63CHL1   C25 5833   4.359   5.020   4.161
   63CHL1   H25 5834   4.340   5.125   4.132
   63CHL1   C26 5835   4.255   4.992   4.273
   63CHL1  H26A 5836   4.290   5.048   4.363
   63CHL1  H26B 5837   4.149   5.019   4.254
   63CHL1  H26C 5838   4.273   4.887   4.306
   63CHL1   C27 5839   4.501   5.000   4.212
   63CHL1  H27A 5840   4.575   5.046   4.144
   63CHL1  H27B 5841   4.527   5.053   4.306
   63CHL1  H27C 5842   4.537   4.895   4.222
   64CHL1    C3 5843   2.600   2.747   2.563
   64CHL1    H3 5844   2.589   2.845   2.614
   64CHL1    O3 5845   2.601   2.758   2.417
   64CHL1   H3' 5846   2.619   2.851   2.401
   64CHL1    C4 5847   2.727   2.685   2.610
   64CHL1   H4A 5848   2.732   2.581   2.571
   64CHL1   H4B 5849   2.812   2.749   2.577
   64CHL1    C5 5850   2.735   2.676   2.761
   64CHL1    C6 5851   2.827   2.734   2.834
   64CHL1    H6 5852   2.906   2.794   2.787
   64CHL1    C7 5853   2.839   2.725   2.985
   64CHL1   H7A 5854   2.944   2.697   3.006
   64CHL1   H7B 5855   2.825   2.821   3.039
   64CHL1    C8 5856   2.745   2.618   3.048
   64CHL1    H8 5857   2.797   2.524   3.022
   64CHL1   C14 5858   2.734   2.636   3.198
   64CHL1   H14 5859   2.679   2.732   3.207
   64CHL1   C15 5860   2.864   2.641   3.281
   64CHL1  H15A 5861   2.946   2.575   3.246
   64CHL1  H15B 5862   2.893   2.747   3.261
   64CHL1   C16 5863   2.819   2.614   3.424
   64CHL1  H16A 5864   2.883   2.533   3.466
   64CHL1  H16B 5865   2.841   2.700   3.492
   64CHL1   C17 5866   2.666   2.575   3.411
   64CHL1   H17 5867   2.615   2.673   3.424
   64CHL1   C13 5868   2.646   2.535   3.270
   64CHL1   C18 5869   2.711   2.388   3.245
   64CHL1  H18A 5870   2.723   2.375   3.135
   64CHL1  H18B 5871   2.811   2.380   3.292
   64CHL1  H18C 5872   2.652   2.300   3.280
   64CHL1   C12 5873   2.508   2.549   3.205
   64CHL1  H12A 5874   2.425   2.482   3.239
   64CHL1  H12B 5875   2.471   2.650   3.230
   64CHL1   C11 5876   2.505   2.537   3.053
   64CHL1  H11A 5877   2.519   2.428   3.033
   64CHL1  H11B 5878   2.399   2.554   3.025
   64CHL1    C9 5879   2.607   2.626   2.978
   64CHL1    H9 5880   2.577   2.732   2.985
   64CHL1   C10 5881   2.614   2.603   2.822
   64CHL1   C19 5882   2.632   2.451   2.790
   64CHL1  H19A 5883   2.633   2.429   2.682
   64CHL1  H19B 5884   2.720   2.413   2.847
   64CHL1  H19C 5885   2.545   2.398   2.834
   64CHL1    C1 5886   2.480   2.648   2.757
   64CHL1   H1A 5887   2.394   2.594   2.801
   64CHL1   H1B 5888   2.480   2.750   2.801
   64CHL1    C2 5889   2.481   2.663   2.602
   64CHL1   H2A 5890   2.392   2.722   2.571
   64CHL1   H2B 5891   2.475   2.566   2.548
   64CHL1   C20 5892   2.610   2.483   3.525
   64CHL1   H20 5893   2.660   2.384   3.516
   64CHL1   C21 5894   2.459   2.476   3.516
   64CHL1  H21A 5895   2.420   2.425   3.607
   64CHL1  H21B 5896   2.427   2.413   3.430
   64CHL1  H21C 5897   2.423   2.580   3.505
   64CHL1   C22 5898   2.651   2.540   3.662
   64CHL1  H22A 5899   2.760   2.561   3.664
   64CHL1  H22B 5900   2.608   2.640   3.682
   64CHL1   C23 5901   2.618   2.454   3.783
   64CHL1  H23A 5902   2.510   2.430   3.793
   64CHL1  H23B 5903   2.670   2.355   3.781
   64CHL1   C24 5904   2.647   2.530   3.914
   64CHL1  H24A 5905   2.749   2.573   3.917
   64CHL1  H24B 5906   2.569   2.609   3.920
   64CHL1   C25 5907   2.624   2.450   4.047
   64CHL1   H25 5908   2.525   2.402   4.033
   64CHL1   C26 5909   2.728   2.333   4.061
   64CHL1  H26A 5910   2.712   2.246   3.994
   64CHL1  H26B 5911   2.835   2.363   4.069
   64CHL1  H26C 5912   2.709   2.289   4.161
   64CHL1   C27 5913   2.614   2.548   4.171
   64CHL1  H27A 5914   2.559   2.643   4.158
   64CHL1  H27B 5915   2.552   2.506   4.253
   64CHL1  H27C 5916   2.716   2.572   4.209
   65CHL1    C3 5917   0.855   0.238   2.500
   65CHL1    H3 5918   0.815   0.341   2.508
   65CHL1    O3 5919   0.823   0.189   2.373
   65CHL1   H3' 5920   0.810   0.268   2.320
   65CHL1    C4 5921   1.011   0.250   2.521
   65CHL1   H4A 5922   1.053   0.148   2.506
   65CHL1   H4B 5923   1.040   0.309   2.432
   65CHL1    C5 5924   1.029   0.310   2.659
   65CHL1    C6 5925   1.089   0.428   2.668
   65CHL1    H6 5926   1.137   0.472   2.580
   65CHL1    C7 5927   1.118   0.492   2.801
   65CHL1   H7A 5928   1.224   0.526   2.807
   65CHL1   H7B 5929   1.056   0.584   2.816
   65CHL1    C8 5930   1.109   0.401   2.927
   65CHL1    H8 5931   1.197   0.333   2.926
   65CHL1   C14 5932   1.119   0.473   3.058
   65CHL1   H14 5933   1.051   0.560   3.045
   65CHL1   C15 5934   1.258   0.533   3.089
   65CHL1  H15A 5935   1.341   0.464   3.064
   65CHL1  H15B 5936   1.275   0.628   3.035
   65CHL1   C16 5937   1.240   0.570   3.239
   65CHL1  H16A 5938   1.320   0.524   3.299
   65CHL1  H16B 5939   1.251   0.680   3.255
   65CHL1   C17 5940   1.113   0.496   3.286
   65CHL1   H17 5941   1.040   0.579   3.276
   65CHL1   C13 5942   1.081   0.396   3.179
   65CHL1   C18 5943   1.184   0.277   3.211
   65CHL1  H18A 5944   1.246   0.289   3.302
   65CHL1  H18B 5945   1.130   0.180   3.212
   65CHL1  H18C 5946   1.254   0.267   3.125
   65CHL1   C12 5947   0.940   0.348   3.168
   65CHL1  H12A 5948   0.907   0.292   3.259
   65CHL1  H12B 5949   0.865   0.428   3.152
   65CHL1   C11 5950   0.919   0.265   3.040
   65CHL1  H11A 5951   0.974   0.171   3.063
   65CHL1  H11B 5952   0.812   0.255   3.014
   65CHL1    C9 5953   0.973   0.331   2.914
   65CHL1    H9 5954   0.905   0.417   2.894
   65CHL1   C10 5955   0.965   0.249   2.783
   65CHL1   C19 5956   1.049   0.121   2.801
   65CHL1  H19A 5957   1.151   0.141   2.840
   65CHL1  H19B 5958   1.004   0.044   2.867
   65CHL1  H19C 5959   1.054   0.068   2.703
   65CHL1    C1 5960   0.820   0.205   2.751
   65CHL1   H1A 5961   0.796   0.123   2.822
   65CHL1   H1B 5962   0.755   0.293   2.773
   65CHL1    C2 5963   0.789   0.150   2.608
   65CHL1   H2A 5964   0.680   0.146   2.587
   65CHL1   H2B 5965   0.824   0.046   2.596
   65CHL1   C20 5966   1.119   0.471   3.441
   65CHL1   H20 5967   1.215   0.418   3.462
   65CHL1   C21 5968   1.011   0.383   3.486
   65CHL1  H21A 5969   1.017   0.281   3.442
   65CHL1  H21B 5970   0.907   0.422   3.472
   65CHL1  H21C 5971   1.009   0.376   3.596
   65CHL1   C22 5972   1.137   0.599   3.522
   65CHL1  H22A 5973   1.178   0.682   3.459
   65CHL1  H22B 5974   1.041   0.639   3.560
   65CHL1   C23 5975   1.244   0.589   3.638
   65CHL1  H23A 5976   1.337   0.536   3.609
   65CHL1  H23B 5977   1.279   0.691   3.666
   65CHL1   C24 5978   1.196   0.532   3.773
   65CHL1  H24A 5979   1.128   0.609   3.814
   65CHL1  H24B 5980   1.162   0.427   3.755
   65CHL1   C25 5981   1.309   0.529   3.879
   65CHL1   H25 5982   1.360   0.628   3.878
   65CHL1   C26 5983   1.262   0.509   4.025
   65CHL1  H26A 5984   1.230   0.404   4.039
   65CHL1  H26B 5985   1.335   0.523   4.107
   65CHL1  H26C 5986   1.176   0.575   4.048
   65CHL1   C27 5987   1.410   0.415   3.847
   65CHL1  H27A 5988   1.347   0.325   3.827
   65CHL1  H27B 5989   1.475   0.446   3.763
   65CHL1  H27C 5990   1.477   0.402   3.935
   66CHL1    C3 5991   4.570   2.178   3.112
   66CHL1    H3 5992   4.681   2.176   3.106
   66CHL1    O3 5993   4.521   2.236   2.994
   66CHL1   H3' 5994   4.431   2.267   3.002
   66CHL1    C4 5995   4.498   2.043   3.144
   66CHL1   H4A 5996   4.390   2.056   3.125
   66CHL1   H4B 5997   4.534   1.965   3.074
   66CHL1    C5 5998   4.536   1.993   3.285
   66CHL1    C6 5999   4.606   1.878   3.301
   66CHL1    H6 6000   4.617   1.810   3.215
   66CHL1    C7 6001   4.643   1.810   3.430
   66CHL1   H7A 6002   4.588   1.714   3.430
   66CHL1   H7B 6003   4.754   1.801   3.431
   66CHL1    C8 6004   4.580   1.886   3.554
   66CHL1    H8 6005   4.473   1.855   3.563
   66CHL1   C14 6006   4.653   1.852   3.684
   66CHL1   H14 6007   4.760   1.883   3.680
   66CHL1   C15 6008   4.665   1.704   3.726
   66CHL1  H15A 6009   4.572   1.645   3.712
   66CHL1  H15B 6010   4.753   1.667   3.669
   66CHL1   C16 6011   4.688   1.710   3.881
   66CHL1  H16A 6012   4.599   1.660   3.925
   66CHL1  H16B 6013   4.785   1.660   3.904
   66CHL1   C17 6014   4.676   1.869   3.921
   66CHL1   H17 6015   4.775   1.918   3.913
   66CHL1   C13 6016   4.594   1.930   3.805
   66CHL1   C18 6017   4.442   1.897   3.832
   66CHL1  H18A 6018   4.430   1.789   3.851
   66CHL1  H18B 6019   4.401   1.964   3.911
   66CHL1  H18C 6020   4.391   1.913   3.734
   66CHL1   C12 6021   4.627   2.078   3.779
   66CHL1  H12A 6022   4.601   2.148   3.861
   66CHL1  H12B 6023   4.735   2.099   3.765
   66CHL1   C11 6024   4.561   2.133   3.654
   66CHL1  H11A 6025   4.453   2.130   3.682
   66CHL1  H11B 6026   4.593   2.236   3.630
   66CHL1    C9 6027   4.590   2.041   3.525
   66CHL1    H9 6028   4.697   2.064   3.506
   66CHL1   C10 6029   4.506   2.086   3.410
   66CHL1   C19 6030   4.354   2.084   3.439
   66CHL1  H19A 6031   4.339   1.986   3.489
   66CHL1  H19B 6032   4.328   2.167   3.508
   66CHL1  H19C 6033   4.288   2.092   3.350
   66CHL1    C1 6034   4.552   2.233   3.377
   66CHL1   H1A 6035   4.491   2.296   3.446
   66CHL1   H1B 6036   4.659   2.250   3.402
   66CHL1    C2 6037   4.531   2.271   3.227
   66CHL1   H2A 6038   4.586   2.365   3.207
   66CHL1   H2B 6039   4.422   2.289   3.210
   66CHL1   C20 6040   4.628   1.877   4.067
   66CHL1   H20 6041   4.525   1.837   4.067
   66CHL1   C21 6042   4.619   2.021   4.109
   66CHL1  H21A 6043   4.719   2.067   4.104
   66CHL1  H21B 6044   4.590   2.034   4.215
   66CHL1  H21C 6045   4.538   2.078   4.058
   66CHL1   C22 6046   4.721   1.794   4.165
   66CHL1  H22A 6047   4.675   1.794   4.266
   66CHL1  H22B 6048   4.724   1.689   4.130
   66CHL1   C23 6049   4.865   1.851   4.184
   66CHL1  H23A 6050   4.913   1.862   4.085
   66CHL1  H23B 6051   4.865   1.947   4.240
   66CHL1   C24 6052   4.945   1.754   4.273
   66CHL1  H24A 6053   4.885   1.735   4.365
   66CHL1  H24B 6054   4.957   1.658   4.218
   66CHL1   C25 6055   5.073   1.808   4.332
   66CHL1   H25 6056   5.049   1.893   4.400
   66CHL1   C26 6057   5.143   1.696   4.410
   66CHL1  H26A 6058   5.085   1.661   4.498
   66CHL1  H26B 6059   5.162   1.602   4.354
   66CHL1  H26C 6060   5.242   1.733   4.446
   66CHL1   C27 6061   5.165   1.850   4.210
   66CHL1  H27A 6062   5.116   1.928   4.148
   66CHL1  H27B 6063   5.186   1.762   4.145
   66CHL1  H27C 6064   5.268   1.884   4.233
   67CHL1    C3 6065   4.502   6.164   2.823
   67CHL1    H3 6066   4.461   6.264   2.850
   67CHL1    O3 6067   4.511   6.141   2.681
   67CHL1   H3' 6068   4.551   6.054   2.685
   67CHL1    C4 6069   4.646   6.149   2.895
   67CHL1   H4A 6070   4.692   6.055   2.859
   67CHL1   H4B 6071   4.711   6.234   2.866
   67CHL1    C5 6072   4.640   6.148   3.048
   67CHL1    C6 6073   4.716   6.226   3.125
   67CHL1    H6 6074   4.779   6.304   3.080
   67CHL1    C7 6075   4.727   6.221   3.277
   67CHL1   H7A 6076   4.834   6.209   3.305
   67CHL1   H7B 6077   4.696   6.317   3.324
   67CHL1    C8 6078   4.650   6.100   3.336
   67CHL1    H8 6079   4.729   6.023   3.324
   67CHL1   C14 6080   4.612   6.123   3.484
   67CHL1   H14 6081   4.531   6.199   3.481
   67CHL1   C15 6082   4.716   6.167   3.589
   67CHL1  H15A 6083   4.813   6.114   3.576
   67CHL1  H15B 6084   4.727   6.277   3.578
   67CHL1   C16 6085   4.649   6.130   3.723
   67CHL1  H16A 6086   4.730   6.081   3.781
   67CHL1  H16B 6087   4.617   6.218   3.783
   67CHL1   C17 6088   4.526   6.045   3.697
   67CHL1   H17 6089   4.446   6.120   3.681
   67CHL1   C13 6090   4.544   5.996   3.549
   67CHL1   C18 6091   4.635   5.869   3.543
   67CHL1  H18A 6092   4.728   5.885   3.601
   67CHL1  H18B 6093   4.584   5.771   3.557
   67CHL1  H18C 6094   4.679   5.859   3.441
   67CHL1   C12 6095   4.410   5.968   3.477
   67CHL1  H12A 6096   4.369   5.871   3.514
   67CHL1  H12B 6097   4.340   6.053   3.488
   67CHL1   C11 6098   4.435   5.947   3.330
   67CHL1  H11A 6099   4.480   5.846   3.320
   67CHL1  H11B 6100   4.337   5.938   3.278
   67CHL1    C9 6101   4.518   6.063   3.257
   67CHL1    H9 6102   4.463   6.159   3.266
   67CHL1   C10 6103   4.539   6.041   3.109
   67CHL1   C19 6104   4.584   5.893   3.085
   67CHL1  H19A 6105   4.502   5.819   3.099
   67CHL1  H19B 6106   4.643   5.882   2.991
   67CHL1  H19C 6107   4.640   5.873   3.178
   67CHL1    C1 6108   4.402   6.070   3.035
   67CHL1   H1A 6109   4.333   5.998   3.084
   67CHL1   H1B 6110   4.379   6.177   3.054
   67CHL1    C2 6111   4.410   6.058   2.884
   67CHL1   H2A 6112   4.309   6.061   2.839
   67CHL1   H2B 6113   4.445   5.958   2.850
   67CHL1   C20 6114   4.489   5.954   3.815
   67CHL1   H20 6115   4.564   5.875   3.833
   67CHL1   C21 6116   4.350   5.886   3.783
   67CHL1  H21A 6117   4.272   5.962   3.758
   67CHL1  H21B 6118   4.316   5.828   3.871
   67CHL1  H21C 6119   4.353   5.813   3.699
   67CHL1   C22 6120   4.489   6.024   3.955
   67CHL1  H22A 6121   4.447   5.943   4.019
   67CHL1  H22B 6122   4.587   6.050   3.999
   67CHL1   C23 6123   4.392   6.143   3.968
   67CHL1  H23A 6124   4.415   6.225   3.897
   67CHL1  H23B 6125   4.289   6.103   3.954
   67CHL1   C24 6126   4.382   6.196   4.116
   67CHL1  H24A 6127   4.338   6.114   4.177
   67CHL1  H24B 6128   4.484   6.222   4.152
   67CHL1   C25 6129   4.290   6.319   4.133
   67CHL1   H25 6130   4.331   6.409   4.083
   67CHL1   C26 6131   4.146   6.290   4.078
   67CHL1  H26A 6132   4.144   6.270   3.969
   67CHL1  H26B 6133   4.085   6.222   4.141
   67CHL1  H26C 6134   4.094   6.389   4.079
   67CHL1   C27 6135   4.277   6.351   4.281
   67CHL1  H27A 6136   4.370   6.390   4.328
   67CHL1  H27B 6137   4.202   6.431   4.297
   67CHL1  H27C 6138   4.241   6.260   4.333
   68CHL1    C3 6139   1.872   5.331   2.578
   68CHL1    H3 6140   1.953   5.402   2.604
   68CHL1    O3 6141   1.884   5.318   2.433
   68CHL1   H3' 6142   1.978   5.336   2.421
   68CHL1    C4 6143   1.897   5.194   2.647
   68CHL1   H4A 6144   1.812   5.144   2.596
   68CHL1   H4B 6145   1.991   5.156   2.602
   68CHL1    C5 6146   1.905   5.217   2.795
   68CHL1    C6 6147   2.014   5.188   2.867
   68CHL1    H6 6148   2.101   5.136   2.824
   68CHL1    C7 6149   2.014   5.206   3.019
   68CHL1   H7A 6150   2.071   5.124   3.067
   68CHL1   H7B 6151   2.071   5.300   3.035
   68CHL1    C8 6152   1.875   5.218   3.091
   68CHL1    H8 6153   1.825   5.119   3.093
   68CHL1   C14 6154   1.893   5.272   3.230
   68CHL1   H14 6155   1.953   5.365   3.216
   68CHL1   C15 6156   1.971   5.186   3.332
   68CHL1  H15A 6157   1.937   5.082   3.315
   68CHL1  H15B 6158   2.079   5.200   3.309
   68CHL1   C16 6159   1.923   5.234   3.472
   68CHL1  H16A 6160   1.868   5.152   3.524
   68CHL1  H16B 6161   2.002   5.285   3.532
   68CHL1   C17 6162   1.817   5.339   3.442
   68CHL1   H17 6163   1.870   5.433   3.414
   68CHL1   C13 6164   1.760   5.310   3.301
   68CHL1   C18 6165   1.663   5.188   3.317
   68CHL1  H18A 6166   1.708   5.121   3.393
   68CHL1  H18B 6167   1.562   5.223   3.349
   68CHL1  H18C 6168   1.657   5.141   3.217
   68CHL1   C12 6169   1.687   5.419   3.220
   68CHL1  H12A 6170   1.588   5.435   3.267
   68CHL1  H12B 6171   1.747   5.513   3.214
   68CHL1   C11 6172   1.667   5.369   3.073
   68CHL1  H11A 6173   1.590   5.290   3.083
   68CHL1  H11B 6174   1.623   5.454   3.016
   68CHL1    C9 6175   1.797   5.320   2.999
   68CHL1    H9 6176   1.860   5.412   2.996
   68CHL1   C10 6177   1.775   5.279   2.855
   68CHL1   C19 6178   1.648   5.192   2.852
   68CHL1  H19A 6179   1.634   5.139   2.756
   68CHL1  H19B 6180   1.635   5.131   2.945
   68CHL1  H19C 6181   1.561   5.260   2.861
   68CHL1    C1 6182   1.736   5.409   2.777
   68CHL1   H1A 6183   1.641   5.457   2.809
   68CHL1   H1B 6184   1.804   5.490   2.811
   68CHL1    C2 6185   1.741   5.390   2.624
   68CHL1   H2A 6186   1.724   5.486   2.570
   68CHL1   H2B 6187   1.666   5.315   2.591
   68CHL1   C20 6188   1.721   5.367   3.560
   68CHL1   H20 6189   1.649   5.284   3.575
   68CHL1   C21 6190   1.639   5.499   3.538
   68CHL1  H21A 6191   1.578   5.503   3.445
   68CHL1  H21B 6192   1.708   5.586   3.542
   68CHL1  H21C 6193   1.569   5.510   3.624
   68CHL1   C22 6194   1.796   5.368   3.695
   68CHL1  H22A 6195   1.852   5.275   3.717
   68CHL1  H22B 6196   1.855   5.462   3.694
   68CHL1   C23 6197   1.694   5.372   3.814
   68CHL1  H23A 6198   1.623   5.457   3.808
   68CHL1  H23B 6199   1.642   5.274   3.815
   68CHL1   C24 6200   1.772   5.389   3.951
   68CHL1  H24A 6201   1.783   5.286   3.992
   68CHL1  H24B 6202   1.874   5.429   3.935
   68CHL1   C25 6203   1.697   5.487   4.049
   68CHL1   H25 6204   1.593   5.454   4.069
   68CHL1   C26 6205   1.769   5.492   4.184
   68CHL1  H26A 6206   1.716   5.553   4.260
   68CHL1  H26B 6207   1.771   5.387   4.219
   68CHL1  H26C 6208   1.873   5.530   4.178
   68CHL1   C27 6209   1.709   5.630   3.990
   68CHL1  H27A 6210   1.677   5.650   3.885
   68CHL1  H27B 6211   1.678   5.703   4.067
   68CHL1  H27C 6212   1.819   5.643   3.988
   69CHL1    C3 6213   0.530   2.736   2.615
   69CHL1    H3 6214   0.426   2.743   2.653
   69CHL1    O3 6215   0.543   2.746   2.475
   69CHL1   H3' 6216   0.527   2.658   2.440
   69CHL1    C4 6217   0.602   2.860   2.669
   69CHL1   H4A 6218   0.699   2.876   2.617
   69CHL1   H4B 6219   0.539   2.940   2.625
   69CHL1    C5 6220   0.613   2.859   2.820
   69CHL1    C6 6221   0.559   2.961   2.886
   69CHL1    H6 6222   0.519   3.048   2.831
   69CHL1    C7 6223   0.561   2.966   3.038
   69CHL1   H7A 6224   0.572   3.068   3.080
   69CHL1   H7B 6225   0.459   2.939   3.072
   69CHL1    C8 6226   0.665   2.863   3.099
   69CHL1    H8 6227   0.768   2.900   3.080
   69CHL1   C14 6228   0.632   2.832   3.249
   69CHL1   H14 6229   0.539   2.771   3.244
   69CHL1   C15 6230   0.613   2.957   3.343
   69CHL1  H15A 6231   0.689   3.035   3.322
   69CHL1  H15B 6232   0.514   3.008   3.333
   69CHL1   C16 6233   0.635   2.897   3.482
   69CHL1  H16A 6234   0.720   2.955   3.525
   69CHL1  H16B 6235   0.542   2.918   3.539
   69CHL1   C17 6236   0.669   2.742   3.463
   69CHL1   H17 6237   0.572   2.689   3.459
   69CHL1   C13 6238   0.722   2.734   3.318
   69CHL1   C18 6239   0.866   2.789   3.324
   69CHL1  H18A 6240   0.899   2.826   3.225
   69CHL1  H18B 6241   0.882   2.875   3.392
   69CHL1  H18C 6242   0.936   2.706   3.346
   69CHL1   C12 6243   0.719   2.597   3.244
   69CHL1  H12A 6244   0.782   2.516   3.288
   69CHL1  H12B 6245   0.614   2.562   3.243
   69CHL1   C11 6246   0.754   2.620   3.098
   69CHL1  H11A 6247   0.864   2.633   3.088
   69CHL1  H11B 6248   0.733   2.526   3.042
   69CHL1    C9 6249   0.670   2.727   3.034
   69CHL1    H9 6250   0.570   2.681   3.048
   69CHL1   C10 6251   0.677   2.726   2.875
   69CHL1   C19 6252   0.824   2.727   2.833
   69CHL1  H19A 6253   0.879   2.636   2.865
   69CHL1  H19B 6254   0.834   2.726   2.722
   69CHL1  H19C 6255   0.877   2.816   2.872
   69CHL1    C1 6256   0.605   2.603   2.824
   69CHL1   H1A 6257   0.661   2.516   2.865
   69CHL1   H1B 6258   0.504   2.582   2.865
   69CHL1    C2 6259   0.593   2.603   2.669
   69CHL1   H2A 6260   0.536   2.510   2.646
   69CHL1   H2B 6261   0.688   2.603   2.612
   69CHL1   C20 6262   0.732   2.689   3.593
   69CHL1   H20 6263   0.822   2.749   3.619
   69CHL1   C21 6264   0.787   2.544   3.564
   69CHL1  H21A 6265   0.853   2.509   3.646
   69CHL1  H21B 6266   0.854   2.546   3.476
   69CHL1  H21C 6267   0.713   2.463   3.548
   69CHL1   C22 6268   0.627   2.696   3.705
   69CHL1  H22A 6269   0.575   2.793   3.719
   69CHL1  H22B 6270   0.549   2.620   3.683
   69CHL1   C23 6271   0.686   2.683   3.849
   69CHL1  H23A 6272   0.756   2.597   3.858
   69CHL1  H23B 6273   0.759   2.767   3.859
   69CHL1   C24 6274   0.580   2.690   3.967
   69CHL1  H24A 6275   0.557   2.798   3.965
   69CHL1  H24B 6276   0.489   2.630   3.946
   69CHL1   C25 6277   0.638   2.656   4.107
   69CHL1   H25 6278   0.743   2.693   4.110
   69CHL1   C26 6279   0.580   2.730   4.225
   69CHL1  H26A 6280   0.618   2.834   4.238
   69CHL1  H26B 6281   0.471   2.738   4.204
   69CHL1  H26C 6282   0.596   2.676   4.321
   69CHL1   C27 6283   0.639   2.506   4.140
   69CHL1  H27A 6284   0.699   2.482   4.229
   69CHL1  H27B 6285   0.535   2.477   4.166
   69CHL1  H27C 6286   0.682   2.443   4.059
   70CHL1    C3 6287   2.612   0.585   2.467
   70CHL1    H3 6288   2.606   0.475   2.488
   70CHL1    O3 6289   2.553   0.594   2.337
   70CHL1   H3' 6290   2.595   0.669   2.295
   70CHL1    C4 6291   2.522   0.663   2.560
   70CHL1   H4A 6292   2.514   0.773   2.548
   70CHL1   H4B 6293   2.417   0.628   2.546
   70CHL1    C5 6294   2.572   0.635   2.703
   70CHL1    C6 6295   2.493   0.575   2.794
   70CHL1    H6 6296   2.391   0.545   2.767
   70CHL1    C7 6297   2.532   0.552   2.935
   70CHL1   H7A 6298   2.448   0.559   3.007
   70CHL1   H7B 6299   2.565   0.446   2.935
   70CHL1    C8 6300   2.657   0.642   2.967
   70CHL1    H8 6301   2.614   0.744   2.963
   70CHL1   C14 6302   2.703   0.622   3.106
   70CHL1   H14 6303   2.729   0.514   3.109
   70CHL1   C15 6304   2.604   0.642   3.220
   70CHL1  H15A 6305   2.544   0.734   3.200
   70CHL1  H15B 6306   2.529   0.561   3.228
   70CHL1   C16 6307   2.687   0.651   3.349
   70CHL1  H16A 6308   2.650   0.741   3.403
   70CHL1  H16B 6309   2.675   0.565   3.418
   70CHL1   C17 6310   2.832   0.671   3.300
   70CHL1   H17 6311   2.886   0.574   3.311
   70CHL1   C13 6312   2.823   0.706   3.149
   70CHL1   C18 6313   2.789   0.855   3.139
   70CHL1  H18A 6314   2.888   0.905   3.130
   70CHL1  H18B 6315   2.734   0.888   3.048
   70CHL1  H18C 6316   2.735   0.896   3.227
   70CHL1   C12 6317   2.938   0.655   3.050
   70CHL1  H12A 6318   3.029   0.719   3.063
   70CHL1  H12B 6319   2.947   0.546   3.070
   70CHL1   C11 6320   2.908   0.674   2.906
   70CHL1  H11A 6321   2.914   0.781   2.877
   70CHL1  H11B 6322   2.982   0.628   2.838
   70CHL1    C9 6323   2.769   0.625   2.860
   70CHL1    H9 6324   2.786   0.516   2.845
   70CHL1   C10 6325   2.715   0.683   2.727
   70CHL1   C19 6326   2.705   0.841   2.721
   70CHL1  H19A 6327   2.637   0.880   2.800
   70CHL1  H19B 6328   2.800   0.899   2.725
   70CHL1  H19C 6329   2.670   0.867   2.619
   70CHL1    C1 6330   2.807   0.626   2.613
   70CHL1   H1A 6331   2.902   0.683   2.609
   70CHL1   H1B 6332   2.828   0.521   2.642
   70CHL1    C2 6333   2.750   0.640   2.466
   70CHL1   H2A 6334   2.812   0.583   2.393
   70CHL1   H2B 6335   2.752   0.746   2.433
   70CHL1   C20 6336   2.920   0.768   3.392
   70CHL1   H20 6337   2.883   0.871   3.375
   70CHL1   C21 6338   3.063   0.750   3.354
   70CHL1  H21A 6339   3.128   0.829   3.397
   70CHL1  H21B 6340   3.100   0.747   3.249
   70CHL1  H21C 6341   3.105   0.659   3.400
   70CHL1   C22 6342   2.903   0.744   3.547
   70CHL1  H22A 6343   2.795   0.735   3.572
   70CHL1  H22B 6344   2.957   0.651   3.576
   70CHL1   C23 6345   2.971   0.856   3.631
   70CHL1  H23A 6346   3.078   0.867   3.603
   70CHL1  H23B 6347   2.917   0.948   3.599
   70CHL1   C24 6348   2.947   0.851   3.783
   70CHL1  H24A 6349   2.985   0.753   3.818
   70CHL1  H24B 6350   3.017   0.925   3.828
   70CHL1   C25 6351   2.804   0.871   3.826
   70CHL1   H25 6352   2.737   0.815   3.758
   70CHL1   C26 6353   2.773   0.804   3.966
   70CHL1  H26A 6354   2.663   0.787   3.973
   70CHL1  H26B 6355   2.823   0.706   3.977
   70CHL1  H26C 6356   2.810   0.873   4.045
   70CHL1   C27 6357   2.759   1.018   3.812
   70CHL1  H27A 6358   2.824   1.078   3.880
   70CHL1  H27B 6359   2.759   1.056   3.708
   70CHL1  H27C 6360   2.651   1.021   3.837
   71CHL1    C3 6361   5.924   5.758   2.613
   71CHL1    H3 6362   5.904   5.659   2.661
   71CHL1    O3 6363   5.905   5.740   2.470
   71CHL1   H3' 6364   5.926   5.822   2.424
   71CHL1    C4 6365   5.835   5.874   2.669
   71CHL1   H4A 6366   5.844   5.963   2.602
   71CHL1   H4B 6367   5.732   5.835   2.657
   71CHL1    C5 6368   5.871   5.901   2.817
   71CHL1    C6 6369   5.780   5.887   2.917
   71CHL1    H6 6370   5.673   5.869   2.896
   71CHL1    C7 6371   5.803   5.921   3.059
   71CHL1   H7A 6372   5.712   5.966   3.102
   71CHL1   H7B 6373   5.826   5.828   3.114
   71CHL1    C8 6374   5.927   6.013   3.071
   71CHL1    H8 6375   5.894   6.110   3.028
   71CHL1   C14 6376   5.971   6.031   3.212
   71CHL1   H14 6377   5.995   5.927   3.244
   71CHL1   C15 6378   5.867   6.068   3.322
   71CHL1  H15A 6379   5.810   6.160   3.300
   71CHL1  H15B 6380   5.789   5.997   3.356
   71CHL1   C16 6381   5.961   6.109   3.440
   71CHL1  H16A 6382   5.936   6.211   3.478
   71CHL1  H16B 6383   5.934   6.043   3.525
   71CHL1   C17 6384   6.106   6.081   3.396
   71CHL1   H17 6385   6.127   5.972   3.406
   71CHL1   C13 6386   6.098   6.113   3.242
   71CHL1   C18 6387   6.072   6.264   3.211
   71CHL1  H18A 6388   5.977   6.310   3.244
   71CHL1  H18B 6389   6.149   6.331   3.256
   71CHL1  H18C 6390   6.091   6.283   3.103
   71CHL1   C12 6391   6.215   6.048   3.166
   71CHL1  H12A 6392   6.310   6.101   3.190
   71CHL1  H12B 6393   6.229   5.943   3.199
   71CHL1   C11 6394   6.185   6.044   3.013
   71CHL1  H11A 6395   6.174   6.149   2.980
   71CHL1  H11B 6396   6.268   5.996   2.957
   71CHL1    C9 6397   6.052   5.964   2.987
   71CHL1    H9 6398   6.068   5.860   3.023
   71CHL1   C10 6399   6.019   5.944   2.839
   71CHL1   C19 6400   6.047   6.074   2.763
   71CHL1  H19A 6401   6.009   6.076   2.659
   71CHL1  H19B 6402   6.008   6.158   2.824
   71CHL1  H19C 6403   6.157   6.086   2.761
   71CHL1    C1 6404   6.113   5.833   2.775
   71CHL1   H1A 6405   6.221   5.859   2.769
   71CHL1   H1B 6406   6.101   5.736   2.828
   71CHL1    C2 6407   6.076   5.802   2.629
   71CHL1   H2A 6408   6.132   5.717   2.586
   71CHL1   H2B 6409   6.092   5.891   2.564
   71CHL1   C20 6410   6.207   6.154   3.487
   71CHL1   H20 6411   6.236   6.243   3.426
   71CHL1   C21 6412   6.336   6.078   3.494
   71CHL1  H21A 6413   6.374   6.042   3.396
   71CHL1  H21B 6414   6.335   5.979   3.546
   71CHL1  H21C 6415   6.416   6.140   3.541
   71CHL1   C22 6416   6.157   6.213   3.626
   71CHL1  H22A 6417   6.090   6.298   3.601
   71CHL1  H22B 6418   6.100   6.138   3.685
   71CHL1   C23 6419   6.269   6.275   3.708
   71CHL1  H23A 6420   6.341   6.195   3.736
   71CHL1  H23B 6421   6.332   6.337   3.642
   71CHL1   C24 6422   6.219   6.362   3.824
   71CHL1  H24A 6423   6.153   6.441   3.784
   71CHL1  H24B 6424   6.154   6.295   3.884
   71CHL1   C25 6425   6.327   6.429   3.914
   71CHL1   H25 6426   6.384   6.500   3.850
   71CHL1   C26 6427   6.264   6.512   4.022
   71CHL1  H26A 6428   6.200   6.457   4.094
   71CHL1  H26B 6429   6.345   6.559   4.082
   71CHL1  H26C 6430   6.195   6.590   3.981
   71CHL1   C27 6431   6.438   6.325   3.963
   71CHL1  H27A 6432   6.508   6.388   4.022
   71CHL1  H27B 6433   6.404   6.241   4.026
   71CHL1  H27C 6434   6.491   6.286   3.873
   72CHL1    C3 6435   0.185   4.826   2.732
   72CHL1    H3 6436   0.205   4.934   2.745
   72CHL1    O3 6437   0.168   4.790   2.596
   72CHL1   H3' 6438   0.150   4.696   2.592
   72CHL1    C4 6439   0.301   4.740   2.777
   72CHL1   H4A 6440   0.270   4.635   2.762
   72CHL1   H4B 6441   0.389   4.764   2.713
   72CHL1    C5 6442   0.328   4.780   2.924
   72CHL1    C6 6443   0.432   4.845   2.963
   72CHL1    H6 6444   0.506   4.874   2.887
   72CHL1    C7 6445   0.471   4.869   3.105
   72CHL1   H7A 6446   0.569   4.823   3.128
   72CHL1   H7B 6447   0.473   4.978   3.125
   72CHL1    C8 6448   0.379   4.793   3.198
   72CHL1    H8 6449   0.412   4.687   3.198
   72CHL1   C14 6450   0.395   4.851   3.341
   72CHL1   H14 6451   0.387   4.962   3.337
   72CHL1   C15 6452   0.537   4.830   3.405
   72CHL1  H15A 6453   0.572   4.726   3.387
   72CHL1  H15B 6454   0.611   4.906   3.371
   72CHL1   C16 6455   0.507   4.853   3.560
   72CHL1  H16A 6456   0.534   4.761   3.616
   72CHL1  H16B 6457   0.567   4.942   3.590
   72CHL1   C17 6458   0.354   4.880   3.570
   72CHL1   H17 6459   0.348   4.990   3.551
   72CHL1   C13 6460   0.296   4.805   3.448
   72CHL1   C18 6461   0.305   4.654   3.474
   72CHL1  H18A 6462   0.295   4.600   3.377
   72CHL1  H18B 6463   0.400   4.615   3.517
   72CHL1  H18C 6464   0.217   4.618   3.530
   72CHL1   C12 6465   0.152   4.842   3.400
   72CHL1  H12A 6466   0.076   4.812   3.475
   72CHL1  H12B 6467   0.148   4.953   3.394
   72CHL1   C11 6468   0.126   4.777   3.263
   72CHL1  H11A 6469   0.126   4.666   3.278
   72CHL1  H11B 6470   0.029   4.806   3.217
   72CHL1    C9 6471   0.237   4.808   3.164
   72CHL1    H9 6472   0.228   4.918   3.150
   72CHL1   C10 6473   0.208   4.750   3.020
   72CHL1   C19 6474   0.186   4.594   3.023
   72CHL1  H19A 6475   0.156   4.548   2.927
   72CHL1  H19B 6476   0.284   4.547   3.048
   72CHL1  H19C 6477   0.118   4.559   3.104
   72CHL1    C1 6478   0.082   4.818   2.963
   72CHL1   H1A 6479   6.817   4.766   3.013
   72CHL1   H1B 6480   0.073   4.929   2.971
   72CHL1    C2 6481   0.059   4.786   2.810
   72CHL1   H2A 6482   6.802   4.847   2.758
   72CHL1   H2B 6483   0.030   4.679   2.803
   72CHL1   C20 6484   0.296   4.849   3.705
   72CHL1   H20 6485   0.248   4.750   3.692
   72CHL1   C21 6486   0.175   4.939   3.738
   72CHL1  H21A 6487   0.108   4.947   3.650
   72CHL1  H21B 6488   0.200   5.046   3.759
   72CHL1  H21C 6489   0.106   4.898   3.814
   72CHL1   C22 6490   0.383   4.853   3.830
   72CHL1  H22A 6491   0.462   4.777   3.814
   72CHL1  H22B 6492   0.432   4.951   3.851
   72CHL1   C23 6493   0.307   4.822   3.965
   72CHL1  H23A 6494   0.252   4.915   3.988
   72CHL1  H23B 6495   0.237   4.737   3.951
   72CHL1   C24 6496   0.401   4.786   4.079
   72CHL1  H24A 6497   0.475   4.706   4.056
   72CHL1  H24B 6498   0.469   4.872   4.097
   72CHL1   C25 6499   0.335   4.771   4.220
   72CHL1   H25 6500   0.292   4.869   4.245
   72CHL1   C26 6501   0.220   4.667   4.222
   72CHL1  H26A 6502   0.175   4.667   4.324
   72CHL1  H26B 6503   0.142   4.699   4.150
   72CHL1  H26C 6504   0.264   4.574   4.181
   72CHL1   C27 6505   0.442   4.736   4.325
   72CHL1  H27A 6506   0.523   4.812   4.322
   72CHL1  H27B 6507   0.392   4.743   4.423
   72CHL1  H27C 6508   0.488   4.635   4.318
   73CHL1    C3 6509   1.303   5.111   2.599
   73CHL1    H3 6510   1.413   5.121   2.606
   73CHL1    O3 6511   1.289   5.074   2.459
   73CHL1   H3' 6512   1.203   5.104   2.431
   73CHL1    C4 6513   1.268   4.997   2.692
   73CHL1   H4A 6514   1.163   4.973   2.665
   73CHL1   H4B 6515   1.330   4.907   2.670
   73CHL1    C5 6516   1.272   5.042   2.835
   73CHL1    C6 6517   1.349   4.968   2.921
   73CHL1    H6 6518   1.404   4.881   2.885
   73CHL1    C7 6519   1.363   5.008   3.068
   73CHL1   H7A 6520   1.370   4.921   3.136
   73CHL1   H7B 6521   1.461   5.059   3.077
   73CHL1    C8 6522   1.251   5.109   3.113
   73CHL1    H8 6523   1.157   5.053   3.132
   73CHL1   C14 6524   1.295   5.162   3.253
   73CHL1   H14 6525   1.392   5.211   3.228
   73CHL1   C15 6526   1.327   5.062   3.365
   73CHL1  H15A 6527   1.259   4.975   3.375
   73CHL1  H15B 6528   1.430   5.022   3.351
   73CHL1   C16 6529   1.321   5.151   3.492
   73CHL1  H16A 6530   1.248   5.110   3.564
   73CHL1  H16B 6531   1.424   5.163   3.532
   73CHL1   C17 6532   1.282   5.294   3.446
   73CHL1   H17 6533   1.367   5.352   3.405
   73CHL1   C13 6534   1.201   5.263   3.318
   73CHL1   C18 6535   1.055   5.212   3.352
   73CHL1  H18A 6536   1.075   5.142   3.436
   73CHL1  H18B 6537   0.993   5.300   3.382
   73CHL1  H18C 6538   1.003   5.172   3.263
   73CHL1   C12 6539   1.185   5.384   3.217
   73CHL1  H12A 6540   1.105   5.445   3.264
   73CHL1  H12B 6541   1.277   5.445   3.214
   73CHL1   C11 6542   1.143   5.339   3.074
   73CHL1  H11A 6543   1.039   5.299   3.078
   73CHL1  H11B 6544   1.142   5.424   3.003
   73CHL1    C9 6545   1.235   5.223   3.014
   73CHL1    H9 6546   1.337   5.263   2.995
   73CHL1   C10 6547   1.201   5.171   2.869
   73CHL1   C19 6548   1.059   5.126   2.873
   73CHL1  H19A 6549   1.027   5.105   2.769
   73CHL1  H19B 6550   1.033   5.044   2.944
   73CHL1  H19C 6551   1.000   5.216   2.903
   73CHL1    C1 6552   1.229   5.280   2.769
   73CHL1   H1A 6553   1.157   5.362   2.787
   73CHL1   H1B 6554   1.329   5.320   2.796
   73CHL1    C2 6555   1.223   5.244   2.625
   73CHL1   H2A 6556   1.274   5.320   2.562
   73CHL1   H2B 6557   1.114   5.241   2.605
   73CHL1   C20 6558   1.221   5.389   3.555
   73CHL1   H20 6559   1.110   5.391   3.553
   73CHL1   C21 6560   1.268   5.539   3.510
   73CHL1  H21A 6561   1.372   5.565   3.539
   73CHL1  H21B 6562   1.199   5.609   3.563
   73CHL1  H21C 6563   1.257   5.557   3.401
   73CHL1   C22 6564   1.265   5.356   3.703
   73CHL1  H22A 6565   1.216   5.262   3.736
   73CHL1  H22B 6566   1.372   5.330   3.711
   73CHL1   C23 6567   1.223   5.458   3.814
   73CHL1  H23A 6568   1.266   5.556   3.786
   73CHL1  H23B 6569   1.113   5.475   3.809
   73CHL1   C24 6570   1.262   5.402   3.959
   73CHL1  H24A 6571   1.223   5.298   3.960
   73CHL1  H24B 6572   1.371   5.396   3.981
   73CHL1   C25 6573   1.205   5.473   4.081
   73CHL1   H25 6574   1.098   5.478   4.051
   73CHL1   C26 6575   1.227   5.395   4.211
   73CHL1  H26A 6576   1.333   5.363   4.207
   73CHL1  H26B 6577   1.203   5.453   4.303
   73CHL1  H26C 6578   1.168   5.301   4.216
   73CHL1   C27 6579   1.251   5.613   4.086
   73CHL1  H27A 6580   1.248   5.662   3.987
   73CHL1  H27B 6581   1.191   5.677   4.153
   73CHL1  H27C 6582   1.350   5.631   4.133
   74CHL1    C3 6583   0.895   4.324   2.548
   74CHL1    H3 6584   0.874   4.430   2.576
   74CHL1    O3 6585   0.848   4.306   2.417
   74CHL1   H3' 6586   0.849   4.213   2.395
   74CHL1    C4 6587   1.047   4.299   2.559
   74CHL1   H4A 6588   1.062   4.190   2.543
   74CHL1   H4B 6589   1.089   4.344   2.467
   74CHL1    C5 6590   1.097   4.349   2.694
   74CHL1    C6 6591   1.174   4.459   2.696
   74CHL1    H6 6592   1.199   4.503   2.599
   74CHL1    C7 6593   1.227   4.522   2.820
   74CHL1   H7A 6594   1.331   4.553   2.798
   74CHL1   H7B 6595   1.171   4.613   2.850
   74CHL1    C8 6596   1.215   4.415   2.933
   74CHL1    H8 6597   1.297   4.342   2.919
   74CHL1   C14 6598   1.235   4.489   3.063
   74CHL1   H14 6599   1.156   4.567   3.074
   74CHL1   C15 6600   1.365   4.573   3.092
   74CHL1  H15A 6601   1.463   4.529   3.065
   74CHL1  H15B 6602   1.368   4.666   3.032
   74CHL1   C16 6603   1.361   4.586   3.245
   74CHL1  H16A 6604   1.458   4.558   3.292
   74CHL1  H16B 6605   1.339   4.687   3.285
   74CHL1   C17 6606   1.258   4.485   3.302
   74CHL1   H17 6607   1.164   4.542   3.322
   74CHL1   C13 6608   1.223   4.391   3.181
   74CHL1   C18 6609   1.335   4.285   3.180
   74CHL1  H18A 6610   1.338   4.223   3.087
   74CHL1  H18B 6611   1.434   4.334   3.195
   74CHL1  H18C 6612   1.315   4.210   3.260
   74CHL1   C12 6613   1.087   4.328   3.191
   74CHL1  H12A 6614   1.087   4.243   3.263
   74CHL1  H12B 6615   1.024   4.408   3.235
   74CHL1   C11 6616   1.042   4.271   3.061
   74CHL1  H11A 6617   1.090   4.171   3.064
   74CHL1  H11B 6618   0.933   4.251   3.051
   74CHL1    C9 6619   1.076   4.348   2.929
   74CHL1    H9 6620   1.001   4.429   2.929
   74CHL1   C10 6621   1.037   4.267   2.807
   74CHL1   C19 6622   1.102   4.123   2.801
   74CHL1  H19A 6623   1.050   4.056   2.873
   74CHL1  H19B 6624   1.101   4.072   2.703
   74CHL1  H19C 6625   1.210   4.130   2.825
   74CHL1    C1 6626   0.878   4.263   2.795
   74CHL1   H1A 6627   0.841   4.190   2.870
   74CHL1   H1B 6628   0.834   4.361   2.826
   74CHL1    C2 6629   0.828   4.237   2.651
   74CHL1   H2A 6630   0.719   4.258   2.644
   74CHL1   H2B 6631   0.846   4.131   2.626
   74CHL1   C20 6632   1.291   4.421   3.440
   74CHL1   H20 6633   1.371   4.344   3.440
   74CHL1   C21 6634   1.179   4.341   3.498
   74CHL1  H21A 6635   1.167   4.244   3.445
   74CHL1  H21B 6636   1.087   4.403   3.503
   74CHL1  H21C 6637   1.215   4.319   3.601
   74CHL1   C22 6638   1.347   4.524   3.541
   74CHL1  H22A 6639   1.358   4.469   3.637
   74CHL1  H22B 6640   1.452   4.556   3.525
   74CHL1   C23 6641   1.249   4.651   3.561
   74CHL1  H23A 6642   1.274   4.729   3.486
   74CHL1  H23B 6643   1.142   4.624   3.547
   74CHL1   C24 6644   1.275   4.715   3.703
   74CHL1  H24A 6645   1.201   4.798   3.707
   74CHL1  H24B 6646   1.240   4.642   3.779
   74CHL1   C25 6647   1.419   4.755   3.737
   74CHL1   H25 6648   1.484   4.667   3.717
   74CHL1   C26 6649   1.464   4.875   3.658
   74CHL1  H26A 6650   1.472   4.849   3.550
   74CHL1  H26B 6651   1.386   4.952   3.678
   74CHL1  H26C 6652   1.561   4.920   3.691
   74CHL1   C27 6653   1.427   4.779   3.887
   74CHL1  H27A 6654   1.527   4.820   3.910
   74CHL1  H27B 6655   1.354   4.854   3.924
   74CHL1  H27C 6656   1.424   4.684   3.946
   75CHL1    C3 6657   0.893   3.202   2.773
   75CHL1    H3 6658   0.813   3.133   2.808
   75CHL1    O3 6659   0.921   3.184   2.636
   75CHL1   H3' 6660   0.847   3.196   2.577
   75CHL1    C4 6661   0.831   3.341   2.795
   75CHL1   H4A 6662   0.910   3.412   2.763
   75CHL1   H4B 6663   0.741   3.362   2.733
   75CHL1    C5 6664   0.809   3.375   2.936
   75CHL1    C6 6665   0.686   3.413   2.983
   75CHL1    H6 6666   0.614   3.429   2.902
   75CHL1    C7 6667   0.649   3.435   3.128
   75CHL1   H7A 6668   0.569   3.512   3.126
   75CHL1   H7B 6669   0.594   3.349   3.172
   75CHL1    C8 6670   0.774   3.448   3.222
   75CHL1    H8 6671   0.813   3.550   3.202
   75CHL1   C14 6672   0.726   3.436   3.368
   75CHL1   H14 6673   0.690   3.332   3.380
   75CHL1   C15 6674   0.603   3.509   3.412
   75CHL1  H15A 6675   0.615   3.614   3.377
   75CHL1  H15B 6676   0.508   3.464   3.377
   75CHL1   C16 6677   0.608   3.501   3.564
   75CHL1  H16A 6678   0.589   3.602   3.605
   75CHL1  H16B 6679   0.537   3.425   3.603
   75CHL1   C17 6680   0.748   3.436   3.596
   75CHL1   H17 6681   0.726   3.327   3.599
   75CHL1   C13 6682   0.838   3.452   3.473
   75CHL1   C18 6683   0.901   3.597   3.465
   75CHL1  H18A 6684   0.966   3.603   3.375
   75CHL1  H18B 6685   0.826   3.678   3.450
   75CHL1  H18C 6686   0.956   3.627   3.556
   75CHL1   C12 6687   0.933   3.340   3.438
   75CHL1  H12A 6688   1.024   3.333   3.502
   75CHL1  H12B 6689   0.879   3.245   3.459
   75CHL1   C11 6690   0.986   3.343   3.291
   75CHL1  H11A 6691   1.039   3.438   3.266
   75CHL1  H11B 6692   1.054   3.255   3.281
   75CHL1    C9 6693   0.880   3.342   3.186
   75CHL1    H9 6694   0.826   3.246   3.199
   75CHL1   C10 6695   0.927   3.342   3.034
   75CHL1   C19 6696   1.025   3.455   3.010
   75CHL1  H19A 6697   0.989   3.551   3.053
   75CHL1  H19B 6698   1.121   3.441   3.065
   75CHL1  H19C 6699   1.054   3.463   2.903
   75CHL1    C1 6700   1.001   3.209   3.009
   75CHL1   H1A 6701   1.097   3.202   3.065
   75CHL1   H1B 6702   0.934   3.135   3.058
   75CHL1    C2 6703   1.016   3.171   2.859
   75CHL1   H2A 6704   1.039   3.063   2.851
   75CHL1   H2B 6705   1.099   3.226   2.811
   75CHL1   C20 6706   0.806   3.479   3.732
   75CHL1   H20 6707   0.845   3.583   3.728
   75CHL1   C21 6708   0.930   3.399   3.778
   75CHL1  H21A 6709   0.900   3.293   3.791
   75CHL1  H21B 6710   0.977   3.433   3.872
   75CHL1  H21C 6711   0.996   3.396   3.689
   75CHL1   C22 6712   0.697   3.482   3.841
   75CHL1  H22A 6713   0.611   3.542   3.804
   75CHL1  H22B 6714   0.665   3.381   3.872
   75CHL1   C23 6715   0.743   3.554   3.972
   75CHL1  H23A 6716   0.817   3.496   4.031
   75CHL1  H23B 6717   0.799   3.648   3.953
   75CHL1   C24 6718   0.623   3.584   4.067
   75CHL1  H24A 6719   0.585   3.676   4.017
   75CHL1  H24B 6720   0.537   3.513   4.064
   75CHL1   C25 6721   0.655   3.607   4.212
   75CHL1   H25 6722   0.574   3.666   4.260
   75CHL1   C26 6723   0.671   3.466   4.280
   75CHL1  H26A 6724   0.566   3.428   4.283
   75CHL1  H26B 6725   0.740   3.394   4.232
   75CHL1  H26C 6726   0.702   3.478   4.386
   75CHL1   C27 6727   0.778   3.699   4.237
   75CHL1  H27A 6728   0.750   3.805   4.221
   75CHL1  H27B 6729   0.814   3.703   4.343
   75CHL1  H27C 6730   0.869   3.676   4.178
   76CHL1    C3 6731   6.397   5.070   2.921
   76CHL1    H3 6732   6.507   5.082   2.922
   76CHL1    O3 6733   6.362   5.041   2.789
   76CHL1   H3' 6734   6.267   5.029   2.791
   76CHL1    C4 6735   6.365   4.946   3.010
   76CHL1   H4A 6736   6.259   4.914   3.006
   76CHL1   H4B 6737   6.419   4.860   2.964
   76CHL1    C5 6738   6.408   4.968   3.153
   76CHL1    C6 6739   6.506   4.900   3.206
   76CHL1    H6 6740   6.558   4.820   3.153
   76CHL1    C7 6741   6.541   4.914   3.345
   76CHL1   H7A 6742   6.555   4.812   3.389
   76CHL1   H7B 6743   6.638   4.967   3.354
   76CHL1    C8 6744   6.437   4.992   3.434
   76CHL1    H8 6745   6.347   4.927   3.443
   76CHL1   C14 6746   6.496   5.028   3.565
   76CHL1   H14 6747   6.585   5.091   3.543
   76CHL1   C15 6748   6.558   4.915   3.655
   76CHL1  H15A 6749   6.482   4.835   3.646
   76CHL1  H15B 6750   6.659   4.885   3.619
   76CHL1   C16 6751   6.560   4.983   3.796
   76CHL1  H16A 6752   6.503   4.908   3.856
   76CHL1  H16B 6753   6.664   4.994   3.831
   76CHL1   C17 6754   6.497   5.126   3.783
   76CHL1   H17 6755   6.588   5.180   3.750
   76CHL1   C13 6756   6.412   5.109   3.659
   76CHL1   C18 6757   6.276   5.037   3.700
   76CHL1  H18A 6758   6.224   5.091   3.783
   76CHL1  H18B 6759   6.213   5.020   3.609
   76CHL1  H18C 6760   6.293   4.936   3.742
   76CHL1   C12 6761   6.374   5.241   3.581
   76CHL1  H12A 6762   6.305   5.301   3.644
   76CHL1  H12B 6763   6.469   5.296   3.570
   76CHL1   C11 6764   6.318   5.227   3.437
   76CHL1  H11A 6765   6.213   5.192   3.433
   76CHL1  H11B 6766   6.332   5.326   3.388
   76CHL1    C9 6767   6.391   5.114   3.355
   76CHL1    H9 6768   6.488   5.159   3.324
   76CHL1   C10 6769   6.331   5.088   3.214
   76CHL1   C19 6770   6.177   5.051   3.226
   76CHL1  H19A 6771   6.110   5.120   3.281
   76CHL1  H19B 6772   6.138   5.019   3.127
   76CHL1  H19C 6773   6.160   4.957   3.282
   76CHL1    C1 6774   6.340   5.214   3.121
   76CHL1   H1A 6775   6.266   5.289   3.159
   76CHL1   H1B 6776   6.445   5.249   3.129
   76CHL1    C2 6777   6.311   5.183   2.971
   76CHL1   H2A 6778   6.336   5.270   2.906
   76CHL1   H2B 6779   6.204   5.156   2.967
   76CHL1   C20 6780   6.449   5.190   3.914
   76CHL1   H20 6781   6.352   5.146   3.942
   76CHL1   C21 6782   6.431   5.344   3.896
   76CHL1  H21A 6783   6.527   5.391   3.863
   76CHL1  H21B 6784   6.397   5.386   3.993
   76CHL1  H21C 6785   6.352   5.356   3.819
   76CHL1   C22 6786   6.535   5.163   4.041
   76CHL1  H22A 6787   6.644   5.180   4.034
   76CHL1  H22B 6788   6.502   5.243   4.111
   76CHL1   C23 6789   6.490   5.037   4.113
   76CHL1  H23A 6790   6.380   5.027   4.122
   76CHL1  H23B 6791   6.540   4.947   4.071
   76CHL1   C24 6792   6.550   5.035   4.263
   76CHL1  H24A 6793   6.654   5.009   4.232
   76CHL1  H24B 6794   6.547   5.132   4.315
   76CHL1   C25 6795   6.468   4.936   4.344
   76CHL1   H25 6796   6.369   4.985   4.357
   76CHL1   C26 6797   6.437   4.807   4.277
   76CHL1  H26A 6798   6.531   4.753   4.252
   76CHL1  H26B 6799   6.392   4.747   4.359
   76CHL1  H26C 6800   6.359   4.819   4.199
   76CHL1   C27 6801   6.522   4.913   4.484
   76CHL1  H27A 6802   6.621   4.863   4.477
   76CHL1  H27B 6803   6.551   5.003   4.542
   76CHL1  H27C 6804   6.452   4.850   4.541
   77SOPE     N 6805   3.654   3.132   6.581
   77SOPE   HN1 6806   3.733   3.101   6.520
   77SOPE   HN2 6807   3.664   3.103   6.680
   77SOPE   HN3 6808   3.561   3.096   6.552
   77SOPE   C12 6809   3.664   3.278   6.579
   77SOPE  H12A 6810   3.646   3.308   6.473
   77SOPE  H12B 6811   3.770   3.308   6.599
   77SOPE   C11 6812   3.561   3.353   6.667
   77SOPE  H11A 6813   3.569   3.463   6.663
   77SOPE  H11B 6814   3.587   3.323   6.771
   77SOPE     P 6815   3.327   3.387   6.559
   77SOPE   O13 6816   3.307   3.516   6.625
   77SOPE   O14 6817   3.205   3.299   6.519
   77SOPE   O12 6818   3.428   3.307   6.651
   77SOPE   O11 6819   3.413   3.408   6.426
   77SOPE    C1 6820   3.346   3.473   6.325
   77SOPE    HA 6821   3.339   3.582   6.342
   77SOPE    HB 6822   3.244   3.435   6.303
   77SOPE    C2 6823   3.422   3.445   6.192
   77SOPE    HS 6824   3.360   3.489   6.111
   77SOPE   O21 6825   3.450   3.307   6.170
   77SOPE   C21 6826   3.350   3.222   6.149
   77SOPE   O22 6827   3.230   3.247   6.156
   77SOPE   C22 6828   3.409   3.086   6.110
   77SOPE   H2R 6829   3.434   3.034   6.205
   77SOPE   H2S 6830   3.493   3.099   6.038
   77SOPE    C3 6831   3.559   3.516   6.188
   77SOPE    HX 6832   3.616   3.468   6.271
   77SOPE    HY 6833   3.547   3.619   6.226
   77SOPE   O31 6834   3.624   3.504   6.065
   77SOPE   C31 6835   3.581   3.588   5.973
   77SOPE   O32 6836   3.500   3.675   5.996
   77SOPE   C32 6837   3.644   3.551   5.844
   77SOPE   H2X 6838   3.646   3.440   5.837
   77SOPE   H2Y 6839   3.749   3.583   5.864
   77SOPE   C23 6840   3.311   2.984   6.041
   77SOPE   H3R 6841   3.221   2.974   6.105
   77SOPE   H3S 6842   3.360   2.885   6.029
   77SOPE   C24 6843   3.281   3.025   5.896
   77SOPE   H4R 6844   3.225   3.121   5.899
   77SOPE   H4S 6845   3.385   3.037   5.857
   77SOPE   C25 6846   3.195   2.917   5.832
   77SOPE   H5R 6847   3.239   2.815   5.835
   77SOPE   H5S 6848   3.101   2.910   5.891
   77SOPE   C26 6849   3.174   2.953   5.689
   77SOPE   H6R 6850   3.093   3.029   5.686
   77SOPE   H6S 6851   3.271   2.996   5.657
   77SOPE   C27 6852   3.128   2.838   5.593
   77SOPE   H7R 6853   3.204   2.757   5.598
   77SOPE   H7S 6854   3.030   2.801   5.629
   77SOPE   C28 6855   3.110   2.890   5.449
   77SOPE   H8R 6856   3.206   2.932   5.411
   77SOPE   H8S 6857   3.093   2.794   5.395
   77SOPE   C29 6858   3.003   2.995   5.420
   77SOPE   H91 6859   2.997   3.074   5.495
   77SOPE  C210 6860   2.922   2.996   5.307
   77SOPE  H101 6861   2.859   3.084   5.286
   77SOPE  C211 6862   2.916   2.883   5.203
   77SOPE  H11R 6863   2.840   2.814   5.245
   77SOPE  H11S 6864   3.013   2.829   5.196
   77SOPE  C212 6865   2.889   2.927   5.059
   77SOPE  H12R 6866   2.967   2.994   5.017
   77SOPE  H12S 6867   2.793   2.983   5.057
   77SOPE  C213 6868   2.865   2.804   4.965
   77SOPE  H13R 6869   2.772   2.745   4.980
   77SOPE  H13S 6870   2.951   2.735   4.973
   77SOPE  C214 6871   2.860   2.840   4.805
   77SOPE  H14R 6872   2.860   2.748   4.743
   77SOPE  H14S 6873   2.952   2.901   4.801
   77SOPE  C215 6874   2.737   2.923   4.765
   77SOPE  H15R 6875   2.724   2.999   4.844
   77SOPE  H15S 6876   2.649   2.856   4.763
   77SOPE  C216 6877   2.759   2.994   4.631
   77SOPE  H16R 6878   2.761   2.914   4.555
   77SOPE  H16S 6879   2.861   3.035   4.643
   77SOPE  C217 6880   2.647   3.096   4.590
   77SOPE  H17R 6881   2.606   3.149   4.678
   77SOPE  H17S 6882   2.562   3.041   4.544
   77SOPE  C218 6883   2.703   3.209   4.495
   77SOPE  H18R 6884   2.728   3.162   4.398
   77SOPE  H18S 6885   2.801   3.241   4.537
   77SOPE  H18T 6886   2.634   3.296   4.492
   77SOPE   C33 6887   3.594   3.632   5.724
   77SOPE   H3X 6888   3.674   3.628   5.646
   77SOPE   H3Y 6889   3.589   3.736   5.761
   77SOPE   C34 6890   3.462   3.585   5.667
   77SOPE   H4X 6891   3.383   3.574   5.745
   77SOPE   H4Y 6892   3.463   3.482   5.627
   77SOPE   C35 6893   3.412   3.669   5.550
   77SOPE   H5X 6894   3.385   3.769   5.588
   77SOPE   H5Y 6895   3.325   3.613   5.509
   77SOPE   C36 6896   3.510   3.673   5.425
   77SOPE   H6X 6897   3.551   3.577   5.387
   77SOPE   H6Y 6898   3.598   3.728   5.464
   77SOPE   C37 6899   3.453   3.735   5.303
   77SOPE   H7X 6900   3.436   3.841   5.333
   77SOPE   H7Y 6901   3.349   3.703   5.279
   77SOPE   C38 6902   3.533   3.725   5.171
   77SOPE   H8X 6903   3.564   3.619   5.155
   77SOPE   H8Y 6904   3.626   3.784   5.184
   77SOPE   C39 6905   3.454   3.760   5.049
   77SOPE   H9X 6906   3.431   3.869   5.046
   77SOPE   H9Y 6907   3.366   3.694   5.054
   77SOPE  C310 6908   3.514   3.705   4.922
   77SOPE  H10X 6909   3.544   3.599   4.936
   77SOPE  H10Y 6910   3.600   3.767   4.890
   77SOPE  C311 6911   3.410   3.717   4.809
   77SOPE  H11X 6912   3.380   3.824   4.808
   77SOPE  H11Y 6913   3.318   3.661   4.837
   77SOPE  C312 6914   3.458   3.672   4.665
   77SOPE  H12X 6915   3.542   3.734   4.625
   77SOPE  H12Y 6916   3.372   3.689   4.597
   77SOPE  C313 6917   3.491   3.522   4.664
   77SOPE  H13X 6918   3.495   3.468   4.760
   77SOPE  H13Y 6919   3.599   3.513   4.640
   77SOPE  C314 6920   3.399   3.433   4.581
   77SOPE  H14X 6921   3.452   3.339   4.554
   77SOPE  H14Y 6922   3.386   3.494   4.489
   77SOPE  C315 6923   3.259   3.389   4.636
   77SOPE  H15X 6924   3.211   3.486   4.661
   77SOPE  H15Y 6925   3.260   3.342   4.736
   77SOPE  C316 6926   3.182   3.311   4.530
   77SOPE  H16X 6927   3.179   3.374   4.439
   77SOPE  H16Y 6928   3.076   3.306   4.562
   77SOPE  C317 6929   3.237   3.172   4.485
   77SOPE  H17X 6930   3.294   3.119   4.565
   77SOPE  H17Y 6931   3.314   3.195   4.409
   77SOPE  C318 6932   3.129   3.095   4.422
   77SOPE  H18X 6933   3.143   3.100   4.312
   77SOPE  H18Y 6934   3.023   3.120   4.445
   77SOPE  H18Z 6935   3.141   2.986   4.442
   78SOPE     N 6936   2.406   3.068   6.911
   78SOPE   HN1 6937   2.378   2.969   6.920
   78SOPE   HN2 6938   2.439   3.101   7.004
   78SOPE   HN3 6939   2.316   3.113   6.886
   78SOPE   C12 6940   2.511   3.089   6.811
   78SOPE  H12A 6941   2.569   2.995   6.808
   78SOPE  H12B 6942   2.579   3.169   6.847
   78SOPE   C11 6943   2.453   3.110   6.667
   78SOPE  H11A 6944   2.530   3.142   6.593
   78SOPE  H11B 6945   2.378   3.191   6.662
   78SOPE     P 6946   2.257   2.971   6.561
   78SOPE   O13 6947   2.168   3.060   6.639
   78SOPE   O14 6948   2.228   2.826   6.552
   78SOPE   O12 6949   2.401   2.983   6.623
   78SOPE   O11 6950   2.274   3.020   6.415
   78SOPE    C1 6951   2.401   2.999   6.345
   78SOPE    HA 6952   2.433   2.893   6.349
   78SOPE    HB 6953   2.489   3.058   6.381
   78SOPE    C2 6954   2.383   3.029   6.196
   78SOPE    HS 6955   2.470   2.996   6.135
   78SOPE   O21 6956   2.359   3.169   6.174
   78SOPE   C21 6957   2.461   3.251   6.167
   78SOPE   O22 6958   2.581   3.225   6.202
   78SOPE   C22 6959   2.415   3.388   6.116
   78SOPE   H2R 6960   2.499   3.461   6.105
   78SOPE   H2S 6961   2.344   3.417   6.196
   78SOPE    C3 6962   2.268   2.949   6.129
   78SOPE    HX 6963   2.172   2.977   6.176
   78SOPE    HY 6964   2.299   2.847   6.163
   78SOPE   O31 6965   2.266   2.945   5.981
   78SOPE   C31 6966   2.191   3.040   5.936
   78SOPE   O32 6967   2.120   3.119   5.999
   78SOPE   C32 6968   2.203   3.043   5.784
   78SOPE   H2X 6969   2.226   2.940   5.751
   78SOPE   H2Y 6970   2.283   3.111   5.748
   78SOPE   C23 6971   2.333   3.390   5.983
   78SOPE   H3R 6972   2.273   3.483   5.970
   78SOPE   H3S 6973   2.254   3.312   5.984
   78SOPE   C24 6974   2.424   3.368   5.858
   78SOPE   H4R 6975   2.507   3.441   5.848
   78SOPE   H4S 6976   2.456   3.262   5.867
   78SOPE   C25 6977   2.346   3.395   5.727
   78SOPE   H5R 6978   2.267   3.325   5.693
   78SOPE   H5S 6979   2.304   3.498   5.734
   78SOPE   C26 6980   2.440   3.400   5.606
   78SOPE   H6R 6981   2.534   3.458   5.621
   78SOPE   H6S 6982   2.476   3.296   5.590
   78SOPE   C27 6983   2.369   3.457   5.480
   78SOPE   H7R 6984   2.266   3.416   5.472
   78SOPE   H7S 6985   2.343   3.563   5.499
   78SOPE   C28 6986   2.442   3.446   5.351
   78SOPE   H8R 6987   2.539   3.498   5.361
   78SOPE   H8S 6988   2.461   3.338   5.330
   78SOPE   C29 6989   2.362   3.506   5.236
   78SOPE   H91 6990   2.323   3.606   5.263
   78SOPE  C210 6991   2.327   3.450   5.121
   78SOPE  H101 6992   2.260   3.513   5.060
   78SOPE  C211 6993   2.358   3.319   5.064
   78SOPE  H11R 6994   2.264   3.262   5.046
   78SOPE  H11S 6995   2.419   3.252   5.128
   78SOPE  C212 6996   2.444   3.327   4.940
   78SOPE  H12R 6997   2.468   3.222   4.911
   78SOPE  H12S 6998   2.540   3.380   4.953
   78SOPE  C213 6999   2.381   3.408   4.826
   78SOPE  H13R 7000   2.379   3.516   4.851
   78SOPE  H13S 7001   2.277   3.371   4.812
   78SOPE  C214 7002   2.452   3.408   4.691
   78SOPE  H14R 7003   2.436   3.309   4.645
   78SOPE  H14S 7004   2.563   3.418   4.694
   78SOPE  C215 7005   2.407   3.524   4.597
   78SOPE  H15R 7006   2.485   3.602   4.606
   78SOPE  H15S 7007   2.308   3.564   4.629
   78SOPE  C216 7008   2.404   3.479   4.447
   78SOPE  H16R 7009   2.316   3.414   4.428
   78SOPE  H16S 7010   2.486   3.410   4.417
   78SOPE  C217 7011   2.399   3.589   4.341
   78SOPE  H17R 7012   2.420   3.543   4.242
   78SOPE  H17S 7013   2.478   3.668   4.341
   78SOPE  C218 7014   2.271   3.660   4.341
   78SOPE  H18R 7015   2.181   3.599   4.366
   78SOPE  H18S 7016   2.260   3.711   4.243
   78SOPE  H18T 7017   2.254   3.742   4.414
   78SOPE   C33 7018   2.075   3.058   5.698
   78SOPE   H3X 7019   2.021   3.150   5.728
   78SOPE   H3Y 7020   1.999   2.983   5.729
   78SOPE   C34 7021   2.102   3.056   5.554
   78SOPE   H4X 7022   2.127   2.953   5.524
   78SOPE   H4Y 7023   2.188   3.121   5.525
   78SOPE   C35 7024   1.975   3.095   5.478
   78SOPE   H5X 7025   1.938   3.182   5.536
   78SOPE   H5Y 7026   1.905   3.009   5.482
   78SOPE   C36 7027   2.006   3.135   5.341
   78SOPE   H6X 7028   2.069   3.055   5.298
   78SOPE   H6Y 7029   2.060   3.232   5.340
   78SOPE   C37 7030   1.884   3.162   5.257
   78SOPE   H7X 7031   1.909   3.251   5.196
   78SOPE   H7Y 7032   1.796   3.184   5.322
   78SOPE   C38 7033   1.844   3.053   5.156
   78SOPE   H8X 7034   1.816   2.970   5.224
   78SOPE   H8Y 7035   1.930   3.023   5.092
   78SOPE   C39 7036   1.716   3.087   5.073
   78SOPE   H9X 7037   1.626   3.101   5.135
   78SOPE   H9Y 7038   1.702   2.997   5.008
   78SOPE  C310 7039   1.740   3.198   4.969
   78SOPE  H10X 7040   1.836   3.171   4.918
   78SOPE  H10Y 7041   1.748   3.300   5.012
   78SOPE  C311 7042   1.621   3.208   4.867
   78SOPE  H11X 7043   1.632   3.311   4.826
   78SOPE  H11Y 7044   1.532   3.196   4.931
   78SOPE  C312 7045   1.607   3.088   4.776
   78SOPE  H12X 7046   1.510   3.115   4.730
   78SOPE  H12Y 7047   1.602   2.998   4.841
   78SOPE  C313 7048   1.722   3.079   4.678
   78SOPE  H13X 7049   1.815   3.054   4.735
   78SOPE  H13Y 7050   1.743   3.182   4.642
   78SOPE  C314 7051   1.701   2.990   4.554
   78SOPE  H14X 7052   1.640   2.902   4.580
   78SOPE  H14Y 7053   1.789   2.958   4.495
   78SOPE  C315 7054   1.622   3.063   4.439
   78SOPE  H15X 7055   1.681   3.142   4.388
   78SOPE  H15Y 7056   1.529   3.110   4.478
   78SOPE  C316 7057   1.566   2.964   4.329
   78SOPE  H16X 7058   1.524   2.878   4.384
   78SOPE  H16Y 7059   1.653   2.930   4.268
   78SOPE  C317 7060   1.465   3.026   4.230
   78SOPE  H17X 7061   1.517   3.100   4.166
   78SOPE  H17Y 7062   1.389   3.089   4.280
   78SOPE  C318 7063   1.403   2.921   4.134
   78SOPE  H18X 7064   1.349   2.840   4.187
   78SOPE  H18Y 7065   1.478   2.874   4.067
   78SOPE  H18Z 7066   1.332   2.967   4.062
   79SOPE     N 7067   4.551   0.555   7.014
   79SOPE   HN1 7068   4.485   0.559   7.095
   79SOPE   HN2 7069   4.512   0.537   6.919
   79SOPE   HN3 7070   4.620   0.480   7.032
   79SOPE   C12 7071   4.632   0.681   7.010
   79SOPE  H12A 7072   4.727   0.652   6.960
   79SOPE  H12B 7073   4.657   0.714   7.113
   79SOPE   C11 7074   4.568   0.800   6.932
   79SOPE  H11A 7075   4.567   0.779   6.823
   79SOPE  H11B 7076   4.645   0.878   6.950
   79SOPE     P 7077   4.361   0.961   6.951
   79SOPE   O13 7078   4.431   1.070   7.024
   79SOPE   O14 7079   4.217   0.935   6.977
   79SOPE   O12 7080   4.442   0.828   6.985
   79SOPE   O11 7081   4.381   0.968   6.795
   79SOPE    C1 7082   4.479   1.057   6.741
   79SOPE    HA 7083   4.581   1.047   6.784
   79SOPE    HB 7084   4.449   1.163   6.748
   79SOPE    C2 7085   4.519   1.020   6.591
   79SOPE    HS 7086   4.422   1.005   6.539
   79SOPE   O21 7087   4.600   0.904   6.598
   79SOPE   C21 7088   4.555   0.804   6.520
   79SOPE   O22 7089   4.440   0.802   6.470
   79SOPE   C22 7090   4.650   0.689   6.515
   79SOPE   H2R 7091   4.613   0.611   6.585
   79SOPE   H2S 7092   4.754   0.723   6.539
   79SOPE    C3 7093   4.588   1.136   6.520
   79SOPE    HX 7094   4.683   1.161   6.573
   79SOPE    HY 7095   4.520   1.223   6.523
   79SOPE   O31 7096   4.627   1.100   6.385
   79SOPE   C31 7097   4.550   1.155   6.287
   79SOPE   O32 7098   4.447   1.218   6.314
   79SOPE   C32 7099   4.604   1.116   6.153
   79SOPE   H2X 7100   4.619   1.006   6.150
   79SOPE   H2Y 7101   4.704   1.164   6.155
   79SOPE   C23 7102   4.657   0.621   6.373
   79SOPE   H3R 7103   4.557   0.576   6.356
   79SOPE   H3S 7104   4.739   0.546   6.379
   79SOPE   C24 7105   4.698   0.708   6.253
   79SOPE   H4R 7106   4.653   0.809   6.248
   79SOPE   H4S 7107   4.802   0.743   6.268
   79SOPE   C25 7108   4.676   0.638   6.120
   79SOPE   H5R 7109   4.761   0.569   6.108
   79SOPE   H5S 7110   4.574   0.594   6.121
   79SOPE   C26 7111   4.667   0.731   6.001
   79SOPE   H6R 7112   4.586   0.806   6.015
   79SOPE   H6S 7113   4.763   0.787   6.003
   79SOPE   C27 7114   4.665   0.652   5.872
   79SOPE   H7R 7115   4.765   0.602   5.869
   79SOPE   H7S 7116   4.590   0.570   5.879
   79SOPE   C28 7117   4.637   0.726   5.738
   79SOPE   H8R 7118   4.531   0.761   5.744
   79SOPE   H8S 7119   4.712   0.808   5.739
   79SOPE   C29 7120   4.661   0.638   5.622
   79SOPE   H91 7121   4.624   0.534   5.628
   79SOPE  C210 7122   4.739   0.666   5.521
   79SOPE  H101 7123   4.751   0.599   5.434
   79SOPE  C211 7124   4.769   0.810   5.484
   79SOPE  H11R 7125   4.880   0.811   5.479
   79SOPE  H11S 7126   4.726   0.876   5.561
   79SOPE  C212 7127   4.730   0.849   5.342
   79SOPE  H12R 7128   4.757   0.957   5.333
   79SOPE  H12S 7129   4.621   0.837   5.328
   79SOPE  C213 7130   4.802   0.769   5.232
   79SOPE  H13R 7131   4.777   0.661   5.238
   79SOPE  H13S 7132   4.910   0.774   5.255
   79SOPE  C214 7133   4.771   0.824   5.091
   79SOPE  H14R 7134   4.807   0.928   5.076
   79SOPE  H14S 7135   4.660   0.824   5.082
   79SOPE  C215 7136   4.838   0.733   4.983
   79SOPE  H15R 7137   4.777   0.641   4.992
   79SOPE  H15S 7138   4.941   0.705   5.014
   79SOPE  C216 7139   4.835   0.799   4.838
   79SOPE  H16R 7140   4.898   0.891   4.834
   79SOPE  H16S 7141   4.731   0.820   4.807
   79SOPE  C217 7142   4.885   0.699   4.740
   79SOPE  H17R 7143   4.870   0.743   4.639
   79SOPE  H17S 7144   4.829   0.603   4.750
   79SOPE  C218 7145   5.038   0.682   4.737
   79SOPE  H18R 7146   5.050   0.595   4.805
   79SOPE  H18S 7147   5.095   0.769   4.776
   79SOPE  H18T 7148   5.070   0.647   4.637
   79SOPE   C33 7149   4.501   1.161   6.040
   79SOPE   H3X 7150   4.500   1.269   6.064
   79SOPE   H3Y 7151   4.399   1.123   6.064
   79SOPE   C34 7152   4.543   1.138   5.898
   79SOPE   H4X 7153   4.564   1.029   5.896
   79SOPE   H4Y 7154   4.639   1.193   5.892
   79SOPE   C35 7155   4.438   1.184   5.806
   79SOPE   H5X 7156   4.428   1.295   5.807
   79SOPE   H5Y 7157   4.334   1.152   5.830
   79SOPE   C36 7158   4.469   1.134   5.657
   79SOPE   H6X 7159   4.498   1.027   5.655
   79SOPE   H6Y 7160   4.556   1.196   5.626
   79SOPE   C37 7161   4.344   1.153   5.570
   79SOPE   H7X 7162   4.313   1.259   5.584
   79SOPE   H7Y 7163   4.264   1.088   5.609
   79SOPE   C38 7164   4.395   1.143   5.424
   79SOPE   H8X 7165   4.435   1.041   5.406
   79SOPE   H8Y 7166   4.478   1.215   5.419
   79SOPE   C39 7167   4.295   1.166   5.317
   79SOPE   H9X 7168   4.213   1.234   5.348
   79SOPE   H9Y 7169   4.238   1.072   5.303
   79SOPE  C310 7170   4.348   1.213   5.180
   79SOPE  H10X 7171   4.393   1.312   5.202
   79SOPE  H10Y 7172   4.263   1.227   5.110
   79SOPE  C311 7173   4.447   1.117   5.100
   79SOPE  H11X 7174   4.403   1.029   5.050
   79SOPE  H11Y 7175   4.511   1.077   5.181
   79SOPE  C312 7176   4.531   1.203   5.000
   79SOPE  H12X 7177   4.588   1.281   5.055
   79SOPE  H12Y 7178   4.467   1.253   4.924
   79SOPE  C313 7179   4.627   1.126   4.923
   79SOPE  H13X 7180   4.565   1.050   4.872
   79SOPE  H13Y 7181   4.687   1.065   4.994
   79SOPE  C314 7182   4.721   1.198   4.832
   79SOPE  H14X 7183   4.798   1.130   4.791
   79SOPE  H14Y 7184   4.772   1.276   4.893
   79SOPE  C315 7185   4.649   1.271   4.714
   79SOPE  H15X 7186   4.592   1.356   4.759
   79SOPE  H15Y 7187   4.582   1.199   4.663
   79SOPE  C316 7188   4.755   1.318   4.615
   79SOPE  H16X 7189   4.780   1.227   4.557
   79SOPE  H16Y 7190   4.839   1.370   4.665
   79SOPE  C317 7191   4.703   1.418   4.510
   79SOPE  H17X 7192   4.676   1.510   4.564
   79SOPE  H17Y 7193   4.616   1.367   4.463
   79SOPE  C318 7194   4.802   1.463   4.405
   79SOPE  H18X 7195   4.755   1.516   4.319
   79SOPE  H18Y 7196   4.832   1.369   4.354
   79SOPE  H18Z 7197   4.894   1.508   4.447
   80SOPE     N 7198   1.989   3.263   6.553
   80SOPE   HN1 7199   2.044   3.179   6.580
   80SOPE   HN2 7200   2.001   3.261   6.450
   80SOPE   HN3 7201   2.026   3.352   6.594
   80SOPE   C12 7202   1.842   3.230   6.591
   80SOPE  H12A 7203   1.837   3.160   6.678
   80SOPE  H12B 7204   1.808   3.166   6.507
   80SOPE   C11 7205   1.737   3.341   6.586
   80SOPE  H11A 7206   1.755   3.389   6.685
   80SOPE  H11B 7207   1.635   3.298   6.594
   80SOPE     P 7208   1.649   3.530   6.418
   80SOPE   O13 7209   1.716   3.635   6.345
   80SOPE   O14 7210   1.558   3.572   6.527
   80SOPE   O12 7211   1.759   3.432   6.480
   80SOPE   O11 7212   1.578   3.428   6.318
   80SOPE    C1 7213   1.656   3.322   6.248
   80SOPE    HA 7214   1.591   3.233   6.235
   80SOPE    HB 7215   1.758   3.295   6.284
   80SOPE    C2 7216   1.690   3.366   6.104
   80SOPE    HS 7217   1.724   3.471   6.115
   80SOPE   O21 7218   1.566   3.369   6.032
   80SOPE   C21 7219   1.552   3.469   5.946
   80SOPE   O22 7220   1.640   3.550   5.922
   80SOPE   C22 7221   1.444   3.432   5.853
   80SOPE   H2R 7222   1.345   3.459   5.893
   80SOPE   H2S 7223   1.446   3.323   5.831
   80SOPE    C3 7224   1.789   3.271   6.031
   80SOPE    HX 7225   1.737   3.172   6.034
   80SOPE    HY 7226   1.881   3.260   6.092
   80SOPE   O31 7227   1.820   3.312   5.892
   80SOPE   C31 7228   1.918   3.403   5.874
   80SOPE   O32 7229   1.985   3.457   5.961
   80SOPE   C32 7230   1.926   3.439   5.730
   80SOPE   H2X 7231   1.825   3.444   5.685
   80SOPE   H2Y 7232   1.979   3.352   5.685
   80SOPE   C23 7233   1.466   3.495   5.711
   80SOPE   H3R 7234   1.565   3.471   5.666
   80SOPE   H3S 7235   1.463   3.605   5.727
   80SOPE   C24 7236   1.342   3.456   5.618
   80SOPE   H4R 7237   1.369   3.355   5.581
   80SOPE   H4S 7238   1.250   3.461   5.679
   80SOPE   C25 7239   1.347   3.537   5.490
   80SOPE   H5R 7240   1.255   3.513   5.432
   80SOPE   H5S 7241   1.332   3.641   5.527
   80SOPE   C26 7242   1.466   3.522   5.401
   80SOPE   H6R 7243   1.552   3.585   5.433
   80SOPE   H6S 7244   1.507   3.419   5.407
   80SOPE   C27 7245   1.426   3.559   5.254
   80SOPE   H7R 7246   1.347   3.486   5.225
   80SOPE   H7S 7247   1.395   3.666   5.249
   80SOPE   C28 7248   1.544   3.543   5.162
   80SOPE   H8R 7249   1.618   3.622   5.181
   80SOPE   H8S 7250   1.587   3.441   5.169
   80SOPE   C29 7251   1.498   3.533   5.016
   80SOPE   H91 7252   1.472   3.430   4.986
   80SOPE  C210 7253   1.456   3.636   4.944
   80SOPE  H101 7254   1.436   3.615   4.837
   80SOPE  C211 7255   1.467   3.780   4.977
   80SOPE  H11R 7256   1.554   3.795   5.044
   80SOPE  H11S 7257   1.377   3.813   5.033
   80SOPE  C212 7258   1.488   3.875   4.851
   80SOPE  H12R 7259   1.470   3.977   4.890
   80SOPE  H12S 7260   1.427   3.852   4.761
   80SOPE  C213 7261   1.636   3.874   4.796
   80SOPE  H13R 7262   1.671   3.771   4.773
   80SOPE  H13S 7263   1.698   3.906   4.883
   80SOPE  C214 7264   1.660   3.983   4.685
   80SOPE  H14R 7265   1.616   4.079   4.721
   80SOPE  H14S 7266   1.607   3.951   4.592
   80SOPE  C215 7267   1.814   4.003   4.646
   80SOPE  H15R 7268   1.856   3.906   4.614
   80SOPE  H15S 7269   1.872   4.035   4.736
   80SOPE  C216 7270   1.831   4.100   4.529
   80SOPE  H16R 7271   1.767   4.189   4.544
   80SOPE  H16S 7272   1.787   4.040   4.446
   80SOPE  C217 7273   1.977   4.139   4.496
   80SOPE  H17R 7274   2.021   4.207   4.572
   80SOPE  H17S 7275   1.983   4.190   4.397
   80SOPE  C218 7276   2.076   4.017   4.481
   80SOPE  H18R 7277   2.144   4.045   4.398
   80SOPE  H18S 7278   2.018   3.928   4.451
   80SOPE  H18T 7279   2.135   3.995   4.573
   80SOPE   C33 7280   1.999   3.564   5.709
   80SOPE   H3X 7281   2.107   3.544   5.692
   80SOPE   H3Y 7282   2.006   3.632   5.796
   80SOPE   C34 7283   1.961   3.651   5.586
   80SOPE   H4X 7284   2.011   3.749   5.574
   80SOPE   H4Y 7285   1.854   3.679   5.598
   80SOPE   C35 7286   1.969   3.576   5.454
   80SOPE   H5X 7287   1.903   3.487   5.456
   80SOPE   H5Y 7288   2.073   3.540   5.441
   80SOPE   C36 7289   1.931   3.666   5.331
   80SOPE   H6X 7290   2.005   3.749   5.326
   80SOPE   H6Y 7291   1.830   3.709   5.346
   80SOPE   C37 7292   1.927   3.583   5.194
   80SOPE   H7X 7293   1.851   3.502   5.204
   80SOPE   H7Y 7294   2.025   3.536   5.172
   80SOPE   C38 7295   1.889   3.677   5.080
   80SOPE   H8X 7296   1.974   3.747   5.068
   80SOPE   H8Y 7297   1.798   3.734   5.109
   80SOPE   C39 7298   1.858   3.603   4.953
   80SOPE   H9X 7299   1.832   3.686   4.883
   80SOPE   H9Y 7300   1.775   3.529   4.953
   80SOPE  C310 7301   1.974   3.528   4.891
   80SOPE  H10X 7302   2.003   3.453   4.967
   80SOPE  H10Y 7303   2.054   3.603   4.872
   80SOPE  C311 7304   1.946   3.450   4.761
   80SOPE  H11X 7305   1.867   3.376   4.784
   80SOPE  H11Y 7306   2.041   3.401   4.729
   80SOPE  C312 7307   1.887   3.535   4.650
   80SOPE  H12X 7308   1.914   3.639   4.680
   80SOPE  H12Y 7309   1.776   3.524   4.655
   80SOPE  C313 7310   1.950   3.503   4.507
   80SOPE  H13X 7311   2.058   3.526   4.516
   80SOPE  H13Y 7312   1.893   3.574   4.443
   80SOPE  C314 7313   1.923   3.357   4.455
   80SOPE  H14X 7314   1.840   3.312   4.513
   80SOPE  H14Y 7315   2.020   3.303   4.468
   80SOPE  C315 7316   1.892   3.328   4.310
   80SOPE  H15X 7317   1.881   3.218   4.296
   80SOPE  H15Y 7318   1.976   3.362   4.246
   80SOPE  C316 7319   1.763   3.397   4.248
   80SOPE  H16X 7320   1.759   3.494   4.301
   80SOPE  H16Y 7321   1.679   3.329   4.273
   80SOPE  C317 7322   1.769   3.427   4.098
   80SOPE  H17X 7323   1.786   3.332   4.043
   80SOPE  H17Y 7324   1.855   3.495   4.083
   80SOPE  C318 7325   1.648   3.497   4.031
   80SOPE  H18X 7326   1.551   3.449   4.055
   80SOPE  H18Y 7327   1.651   3.499   3.920
   80SOPE  H18Z 7328   1.636   3.596   4.081
   81SOPE     N 7329   5.281   0.125   6.980
   81SOPE   HN1 7330   5.311   0.048   7.042
   81SOPE   HN2 7331   5.185   0.088   6.960
   81SOPE   HN3 7332   5.335   0.119   6.891
   81SOPE   C12 7333   5.255   0.262   7.034
   81SOPE  H12A 7334   5.353   0.310   7.054
   81SOPE  H12B 7335   5.192   0.260   7.125
   81SOPE   C11 7336   5.188   0.346   6.931
   81SOPE  H11A 7337   5.096   0.298   6.891
   81SOPE  H11B 7338   5.253   0.356   6.842
   81SOPE     P 7339   5.028   0.527   7.046
   81SOPE   O13 7340   5.019   0.671   7.014
   81SOPE   O14 7341   5.021   0.491   7.193
   81SOPE   O12 7342   5.162   0.479   6.982
   81SOPE   O11 7343   4.908   0.451   6.977
   81SOPE    C1 7344   4.861   0.434   6.844
   81SOPE    HA 7345   4.756   0.463   6.824
   81SOPE    HB 7346   4.854   0.327   6.816
   81SOPE    C2 7347   4.939   0.504   6.728
   81SOPE    HS 7348   5.045   0.481   6.750
   81SOPE   O21 7349   4.895   0.639   6.738
   81SOPE   C21 7350   4.993   0.725   6.698
   81SOPE   O22 7351   5.106   0.696   6.663
   81SOPE   C22 7352   4.952   0.870   6.718
   81SOPE   H2R 7353   5.000   0.907   6.811
   81SOPE   H2S 7354   4.842   0.875   6.737
   81SOPE    C3 7355   4.899   0.442   6.597
   81SOPE    HX 7356   4.789   0.449   6.584
   81SOPE    HY 7357   4.928   0.335   6.606
   81SOPE   O31 7358   4.962   0.522   6.496
   81SOPE   C31 7359   5.088   0.499   6.456
   81SOPE   O32 7360   5.160   0.414   6.505
   81SOPE   C32 7361   5.112   0.598   6.345
   81SOPE   H2X 7362   5.219   0.621   6.363
   81SOPE   H2Y 7363   5.056   0.690   6.373
   81SOPE   C23 7364   4.999   0.967   6.611
   81SOPE   H3R 7365   5.108   0.946   6.606
   81SOPE   H3S 7366   4.989   1.069   6.654
   81SOPE   C24 7367   4.930   0.954   6.479
   81SOPE   H4R 7368   4.918   0.849   6.446
   81SOPE   H4S 7369   4.823   0.970   6.503
   81SOPE   C25 7370   4.969   1.043   6.357
   81SOPE   H5R 7371   4.896   1.032   6.274
   81SOPE   H5S 7372   4.973   1.147   6.396
   81SOPE   C26 7373   5.107   1.011   6.306
   81SOPE   H6R 7374   5.168   1.009   6.399
   81SOPE   H6S 7375   5.102   0.907   6.265
   81SOPE   C27 7376   5.146   1.100   6.197
   81SOPE   H7R 7377   5.166   1.200   6.241
   81SOPE   H7S 7378   5.248   1.073   6.163
   81SOPE   C28 7379   5.049   1.104   6.076
   81SOPE   H8R 7380   5.052   1.000   6.037
   81SOPE   H8S 7381   4.944   1.127   6.106
   81SOPE   C29 7382   5.087   1.210   5.983
   81SOPE   H91 7383   5.077   1.312   6.024
   81SOPE  C210 7384   5.114   1.190   5.851
   81SOPE  H101 7385   5.156   1.272   5.792
   81SOPE  C211 7386   5.105   1.063   5.781
   81SOPE  H11R 7387   5.148   0.978   5.838
   81SOPE  H11S 7388   5.174   1.065   5.693
   81SOPE  C212 7389   4.963   1.037   5.725
   81SOPE  H12R 7390   4.896   1.048   5.812
   81SOPE  H12S 7391   4.949   0.933   5.690
   81SOPE  C213 7392   4.927   1.140   5.612
   81SOPE  H13R 7393   4.933   1.244   5.650
   81SOPE  H13S 7394   4.821   1.119   5.586
   81SOPE  C214 7395   5.009   1.121   5.484
   81SOPE  H14R 7396   5.009   1.012   5.463
   81SOPE  H14S 7397   5.112   1.158   5.501
   81SOPE  C215 7398   4.960   1.207   5.354
   81SOPE  H15R 7399   4.967   1.317   5.373
   81SOPE  H15S 7400   4.849   1.195   5.346
   81SOPE  C216 7401   5.035   1.162   5.233
   81SOPE  H16R 7402   5.036   1.051   5.227
   81SOPE  H16S 7403   5.142   1.190   5.239
   81SOPE  C217 7404   4.984   1.230   5.098
   81SOPE  H17R 7405   5.009   1.338   5.094
   81SOPE  H17S 7406   4.874   1.216   5.099
   81SOPE  C218 7407   5.042   1.163   4.979
   81SOPE  H18R 7408   5.153   1.165   4.983
   81SOPE  H18S 7409   5.014   1.217   4.886
   81SOPE  H18T 7410   5.005   1.058   4.977
   81SOPE   C33 7411   5.095   0.542   6.202
   81SOPE   H3X 7412   4.990   0.507   6.188
   81SOPE   H3Y 7413   5.172   0.463   6.189
   81SOPE   C34 7414   5.120   0.652   6.088
   81SOPE   H4X 7415   5.216   0.705   6.100
   81SOPE   H4Y 7416   5.045   0.733   6.103
   81SOPE   C35 7417   5.113   0.594   5.941
   81SOPE   H5X 7418   5.012   0.549   5.930
   81SOPE   H5Y 7419   5.196   0.520   5.933
   81SOPE   C36 7420   5.137   0.702   5.835
   81SOPE   H6X 7421   5.242   0.733   5.854
   81SOPE   H6Y 7422   5.071   0.790   5.850
   81SOPE   C37 7423   5.122   0.644   5.693
   81SOPE   H7X 7424   5.020   0.603   5.679
   81SOPE   H7Y 7425   5.182   0.550   5.690
   81SOPE   C38 7426   5.164   0.738   5.586
   81SOPE   H8X 7427   5.251   0.802   5.612
   81SOPE   H8Y 7428   5.075   0.803   5.574
   81SOPE   C39 7429   5.195   0.665   5.455
   81SOPE   H9X 7430   5.115   0.594   5.423
   81SOPE   H9Y 7431   5.282   0.605   5.489
   81SOPE  C310 7432   5.239   0.772   5.351
   81SOPE  H10X 7433   5.338   0.821   5.365
   81SOPE  H10Y 7434   5.162   0.852   5.354
   81SOPE  C311 7435   5.252   0.705   5.203
   81SOPE  H11X 7436   5.151   0.699   5.157
   81SOPE  H11Y 7437   5.299   0.607   5.228
   81SOPE  C312 7438   5.350   0.792   5.124
   81SOPE  H12X 7439   5.452   0.811   5.164
   81SOPE  H12Y 7440   5.309   0.896   5.121
   81SOPE  C313 7441   5.365   0.738   4.982
   81SOPE  H13X 7442   5.261   0.727   4.946
   81SOPE  H13Y 7443   5.414   0.639   4.988
   81SOPE  C314 7444   5.454   0.835   4.897
   81SOPE  H14X 7445   5.561   0.824   4.925
   81SOPE  H14Y 7446   5.423   0.938   4.925
   81SOPE  C315 7447   5.447   0.836   4.745
   81SOPE  H15X 7448   5.346   0.879   4.726
   81SOPE  H15Y 7449   5.430   0.729   4.720
   81SOPE  C316 7450   5.562   0.883   4.661
   81SOPE  H16X 7451   5.647   0.823   4.699
   81SOPE  H16Y 7452   5.593   0.987   4.683
   81SOPE  C317 7453   5.541   0.862   4.507
   81SOPE  H17X 7454   5.476   0.941   4.463
   81SOPE  H17Y 7455   5.479   0.773   4.486
   81SOPE  C318 7456   5.675   0.847   4.445
   81SOPE  H18X 7457   5.683   0.848   4.334
   81SOPE  H18Y 7458   5.721   0.757   4.491
   81SOPE  H18Z 7459   5.742   0.931   4.474
   82SOPE     N 7460   2.095   0.660   6.986
   82SOPE   HN1 7461   2.064   0.565   7.017
   82SOPE   HN2 7462   2.178   0.645   6.925
   82SOPE   HN3 7463   2.129   0.707   7.072
   82SOPE   C12 7464   1.982   0.732   6.920
   82SOPE  H12A 7465   2.011   0.835   6.891
   82SOPE  H12B 7466   1.898   0.737   6.992
   82SOPE   C11 7467   1.948   0.648   6.796
   82SOPE  H11A 7468   1.877   0.710   6.737
   82SOPE  H11B 7469   1.894   0.558   6.832
   82SOPE     P 7470   2.136   0.731   6.623
   82SOPE   O13 7471   2.226   0.670   6.521
   82SOPE   O14 7472   2.188   0.843   6.706
   82SOPE   O12 7473   2.067   0.616   6.715
   82SOPE   O11 7474   2.023   0.797   6.538
   82SOPE    C1 7475   1.924   0.707   6.479
   82SOPE    HA 7476   1.826   0.756   6.462
   82SOPE    HB 7477   1.905   0.608   6.524
   82SOPE    C2 7478   1.965   0.668   6.334
   82SOPE    HS 7479   2.066   0.624   6.320
   82SOPE   O21 7480   1.953   0.790   6.263
   82SOPE   C21 7481   2.006   0.796   6.150
   82SOPE   O22 7482   2.090   0.715   6.106
   82SOPE   C22 7483   1.950   0.920   6.081
   82SOPE   H2R 7484   1.939   0.997   6.160
   82SOPE   H2S 7485   1.845   0.900   6.052
   82SOPE    C3 7486   1.864   0.566   6.284
   82SOPE    HX 7487   1.763   0.608   6.307
   82SOPE    HY 7488   1.876   0.480   6.353
   82SOPE   O31 7489   1.884   0.521   6.148
   82SOPE   C31 7490   1.775   0.477   6.093
   82SOPE   O32 7491   1.666   0.447   6.135
   82SOPE   C32 7492   1.807   0.470   5.946
   82SOPE   H2X 7493   1.902   0.414   5.927
   82SOPE   H2Y 7494   1.809   0.577   5.917
   82SOPE   C23 7495   2.038   0.962   5.967
   82SOPE   H3R 7496   2.144   0.955   5.998
   82SOPE   H3S 7497   2.005   1.063   5.934
   82SOPE   C24 7498   2.015   0.876   5.838
   82SOPE   H4R 7499   2.068   0.780   5.857
   82SOPE   H4S 7500   1.907   0.854   5.835
   82SOPE   C25 7501   2.063   0.937   5.709
   82SOPE   H5R 7502   2.016   1.038   5.706
   82SOPE   H5S 7503   2.173   0.957   5.706
   82SOPE   C26 7504   2.025   0.855   5.586
   82SOPE   H6R 7505   2.095   0.769   5.590
   82SOPE   H6S 7506   1.923   0.813   5.596
   82SOPE   C27 7507   2.036   0.930   5.445
   82SOPE   H7R 7508   1.964   1.015   5.440
   82SOPE   H7S 7509   2.140   0.969   5.441
   82SOPE   C28 7510   2.017   0.835   5.321
   82SOPE   H8R 7511   1.910   0.806   5.309
   82SOPE   H8S 7512   2.030   0.913   5.243
   82SOPE   C29 7513   2.111   0.722   5.288
   82SOPE   H91 7514   2.159   0.684   5.379
   82SOPE  C210 7515   2.135   0.684   5.166
   82SOPE  H101 7516   2.206   0.602   5.149
   82SOPE  C211 7517   2.088   0.732   5.034
   82SOPE  H11R 7518   2.171   0.792   4.992
   82SOPE  H11S 7519   1.998   0.796   5.041
   82SOPE  C212 7520   2.051   0.610   4.941
   82SOPE  H12R 7521   1.944   0.582   4.933
   82SOPE  H12S 7522   2.108   0.522   4.979
   82SOPE  C213 7523   2.099   0.633   4.796
   82SOPE  H13R 7524   2.206   0.665   4.789
   82SOPE  H13S 7525   2.029   0.709   4.755
   82SOPE  C214 7526   2.083   0.506   4.716
   82SOPE  H14R 7527   1.985   0.454   4.713
   82SOPE  H14S 7528   2.162   0.437   4.752
   82SOPE  C215 7529   2.120   0.536   4.567
   82SOPE  H15R 7530   2.143   0.439   4.517
   82SOPE  H15S 7531   2.197   0.616   4.567
   82SOPE  C216 7532   2.001   0.590   4.489
   82SOPE  H16R 7533   1.964   0.677   4.547
   82SOPE  H16S 7534   1.923   0.510   4.487
   82SOPE  C217 7535   2.021   0.623   4.338
   82SOPE  H17R 7536   1.924   0.664   4.302
   82SOPE  H17S 7537   2.047   0.526   4.292
   82SOPE  C218 7538   2.135   0.723   4.304
   82SOPE  H18R 7539   2.130   0.752   4.196
   82SOPE  H18S 7540   2.237   0.681   4.315
   82SOPE  H18T 7541   2.112   0.815   4.363
   82SOPE   C33 7542   1.692   0.407   5.859
   82SOPE   H3X 7543   1.599   0.450   5.904
   82SOPE   H3Y 7544   1.687   0.297   5.873
   82SOPE   C34 7545   1.693   0.446   5.709
   82SOPE   H4X 7546   1.699   0.557   5.709
   82SOPE   H4Y 7547   1.598   0.433   5.652
   82SOPE   C35 7548   1.799   0.364   5.631
   82SOPE   H5X 7549   1.774   0.256   5.627
   82SOPE   H5Y 7550   1.893   0.363   5.690
   82SOPE   C36 7551   1.832   0.423   5.490
   82SOPE   H6X 7552   1.938   0.414   5.459
   82SOPE   H6Y 7553   1.826   0.534   5.499
   82SOPE   C37 7554   1.727   0.387   5.380
   82SOPE   H7X 7555   1.627   0.405   5.424
   82SOPE   H7Y 7556   1.746   0.282   5.351
   82SOPE   C38 7557   1.749   0.469   5.257
   82SOPE   H8X 7558   1.850   0.448   5.214
   82SOPE   H8Y 7559   1.751   0.574   5.292
   82SOPE   C39 7560   1.649   0.440   5.149
   82SOPE   H9X 7561   1.651   0.530   5.084
   82SOPE   H9Y 7562   1.547   0.448   5.192
   82SOPE  C310 7563   1.678   0.315   5.069
   82SOPE  H10X 7564   1.590   0.288   5.008
   82SOPE  H10Y 7565   1.693   0.235   5.145
   82SOPE  C311 7566   1.788   0.328   4.957
   82SOPE  H11X 7567   1.884   0.352   5.006
   82SOPE  H11Y 7568   1.760   0.412   4.890
   82SOPE  C312 7569   1.793   0.197   4.871
   82SOPE  H12X 7570   1.692   0.178   4.830
   82SOPE  H12Y 7571   1.832   0.113   4.932
   82SOPE  C313 7572   1.887   0.209   4.761
   82SOPE  H13X 7573   1.985   0.257   4.784
   82SOPE  H13Y 7574   1.830   0.272   4.690
   82SOPE  C314 7575   1.909   0.071   4.694
   82SOPE  H14X 7576   1.827   0.041   4.626
   82SOPE  H14Y 7577   1.929   6.808   4.766
   82SOPE  C315 7578   2.033   0.071   4.601
   82SOPE  H15X 7579   2.105   0.144   4.643
   82SOPE  H15Y 7580   1.992   0.112   4.506
   82SOPE  C316 7581   2.101   6.749   4.581
   82SOPE  H16X 7582   2.023   6.671   4.568
   82SOPE  H16Y 7583   2.159   6.731   4.674
   82SOPE  C317 7584   2.185   6.749   4.452
   82SOPE  H17X 7585   2.262   0.009   4.454
   82SOPE  H17Y 7586   2.120   6.771   4.365
   82SOPE  C318 7587   2.244   6.608   4.423
   82SOPE  H18X 7588   2.171   6.529   4.396
   82SOPE  H18Y 7589   2.301   6.563   4.507
   82SOPE  H18Z 7590   2.311   6.617   4.335
   83SOPE     N 7591   1.714   2.511   1.812
   83SOPE   HN1 7592   1.818   2.516   1.807
   83SOPE   HN2 7593   1.692   2.560   1.901
   83SOPE   HN3 7594   1.691   2.413   1.839
   83SOPE   C12 7595   1.619   2.569   1.707
   83SOPE  H12A 7596   1.657   2.559   1.603
   83SOPE  H12B 7597   1.609   2.678   1.728
   83SOPE   C11 7598   1.474   2.516   1.716
   83SOPE  H11A 7599   1.468   2.417   1.666
   83SOPE  H11B 7600   1.404   2.584   1.663
   83SOPE     P 7601   1.305   2.443   1.903
   83SOPE   O13 7602   1.313   2.309   1.850
   83SOPE   O14 7603   1.189   2.522   1.851
   83SOPE   O12 7604   1.432   2.521   1.857
   83SOPE   O11 7605   1.323   2.445   2.066
   83SOPE    C1 7606   1.453   2.439   2.122
   83SOPE    HA 7607   1.513   2.520   2.076
   83SOPE    HB 7608   1.513   2.348   2.096
   83SOPE    C2 7609   1.471   2.462   2.274
   83SOPE    HS 7610   1.578   2.442   2.296
   83SOPE   O21 7611   1.373   2.393   2.354
   83SOPE   C21 7612   1.387   2.261   2.361
   83SOPE   O22 7613   1.483   2.202   2.315
   83SOPE   C22 7614   1.274   2.199   2.436
   83SOPE   H2R 7615   1.272   2.088   2.426
   83SOPE   H2S 7616   1.181   2.222   2.379
   83SOPE    C3 7617   1.448   2.615   2.301
   83SOPE    HX 7618   1.351   2.644   2.255
   83SOPE    HY 7619   1.520   2.676   2.244
   83SOPE   O31 7620   1.441   2.647   2.445
   83SOPE   C31 7621   1.321   2.650   2.503
   83SOPE   O32 7622   1.216   2.628   2.442
   83SOPE   C32 7623   1.351   2.665   2.649
   83SOPE   H2X 7624   1.415   2.756   2.649
   83SOPE   H2Y 7625   1.412   2.580   2.685
   83SOPE   C23 7626   1.288   2.225   2.592
   83SOPE   H3R 7627   1.185   2.222   2.633
   83SOPE   H3S 7628   1.315   2.328   2.623
   83SOPE   C24 7629   1.372   2.122   2.673
   83SOPE   H4R 7630   1.323   2.027   2.641
   83SOPE   H4S 7631   1.471   2.121   2.624
   83SOPE   C25 7632   1.370   2.149   2.821
   83SOPE   H5R 7633   1.456   2.219   2.830
   83SOPE   H5S 7634   1.272   2.197   2.845
   83SOPE   C26 7635   1.389   2.033   2.911
   83SOPE   H6R 7636   1.403   2.087   3.007
   83SOPE   H6S 7637   1.295   1.974   2.920
   83SOPE   C27 7638   1.512   1.949   2.870
   83SOPE   H7R 7639   1.487   1.884   2.783
   83SOPE   H7S 7640   1.596   2.016   2.841
   83SOPE   C28 7641   1.575   1.859   2.981
   83SOPE   H8R 7642   1.499   1.779   2.993
   83SOPE   H8S 7643   1.674   1.820   2.949
   83SOPE   C29 7644   1.597   1.926   3.113
   83SOPE   H91 7645   1.697   1.961   3.142
   83SOPE  C210 7646   1.500   1.933   3.205
   83SOPE  H101 7647   1.527   1.974   3.303
   83SOPE  C211 7648   1.351   1.897   3.202
   83SOPE  H11R 7649   1.321   1.805   3.148
   83SOPE  H11S 7650   1.302   1.987   3.159
   83SOPE  C212 7651   1.285   1.891   3.331
   83SOPE  H12R 7652   1.176   1.903   3.310
   83SOPE  H12S 7653   1.293   1.991   3.379
   83SOPE  C213 7654   1.321   1.765   3.416
   83SOPE  H13R 7655   1.432   1.776   3.424
   83SOPE  H13S 7656   1.297   1.667   3.369
   83SOPE  C214 7657   1.255   1.770   3.554
   83SOPE  H14R 7658   1.256   1.664   3.590
   83SOPE  H14S 7659   1.149   1.798   3.536
   83SOPE  C215 7660   1.325   1.867   3.652
   83SOPE  H15R 7661   1.309   1.969   3.611
   83SOPE  H15S 7662   1.435   1.857   3.654
   83SOPE  C216 7663   1.271   1.847   3.795
   83SOPE  H16R 7664   1.240   1.741   3.809
   83SOPE  H16S 7665   1.191   1.924   3.812
   83SOPE  C217 7666   1.383   1.880   3.891
   83SOPE  H17R 7667   1.442   1.964   3.849
   83SOPE  H17S 7668   1.456   1.798   3.906
   83SOPE  C218 7669   1.330   1.922   4.028
   83SOPE  H18R 7670   1.273   2.015   4.007
   83SOPE  H18S 7671   1.419   1.941   4.092
   83SOPE  H18T 7672   1.266   1.844   4.074
   83SOPE   C33 7673   1.222   2.686   2.723
   83SOPE   H3X 7674   1.154   2.599   2.712
   83SOPE   H3Y 7675   1.165   2.770   2.677
   83SOPE   C34 7676   1.262   2.708   2.867
   83SOPE   H4X 7677   1.348   2.778   2.871
   83SOPE   H4Y 7678   1.298   2.611   2.908
   83SOPE   C35 7679   1.143   2.749   2.952
   83SOPE   H5X 7680   1.078   2.659   2.954
   83SOPE   H5Y 7681   1.089   2.835   2.907
   83SOPE   C36 7682   1.181   2.785   3.098
   83SOPE   H6X 7683   1.247   2.699   3.122
   83SOPE   H6Y 7684   1.091   2.784   3.163
   83SOPE   C37 7685   1.259   2.912   3.112
   83SOPE   H7X 7686   1.200   3.002   3.087
   83SOPE   H7Y 7687   1.346   2.906   3.042
   83SOPE   C38 7688   1.320   2.924   3.253
   83SOPE   H8X 7689   1.384   3.011   3.277
   83SOPE   H8Y 7690   1.385   2.836   3.269
   83SOPE   C39 7691   1.213   2.924   3.363
   83SOPE   H9X 7692   1.177   2.820   3.369
   83SOPE   H9Y 7693   1.133   2.991   3.324
   83SOPE  C310 7694   1.276   2.970   3.494
   83SOPE  H10X 7695   1.302   3.078   3.500
   83SOPE  H10Y 7696   1.375   2.922   3.510
   83SOPE  C311 7697   1.178   2.960   3.613
   83SOPE  H11X 7698   1.092   3.030   3.612
   83SOPE  H11Y 7699   1.248   2.994   3.693
   83SOPE  C312 7700   1.137   2.821   3.666
   83SOPE  H12X 7701   1.229   2.759   3.658
   83SOPE  H12Y 7702   1.068   2.777   3.591
   83SOPE  C313 7703   1.090   2.814   3.814
   83SOPE  H13X 7704   0.987   2.858   3.820
   83SOPE  H13Y 7705   1.156   2.879   3.875
   83SOPE  C314 7706   1.094   2.674   3.872
   83SOPE  H14X 7707   1.189   2.621   3.851
   83SOPE  H14Y 7708   1.018   2.623   3.809
   83SOPE  C315 7709   1.077   2.662   4.024
   83SOPE  H15X 7710   0.990   2.725   4.052
   83SOPE  H15Y 7711   1.165   2.719   4.061
   83SOPE  C316 7712   1.073   2.522   4.092
   83SOPE  H16X 7713   0.977   2.479   4.057
   83SOPE  H16Y 7714   1.069   2.540   4.202
   83SOPE  C317 7715   1.202   2.446   4.062
   83SOPE  H17X 7716   1.295   2.505   4.076
   83SOPE  H17Y 7717   1.201   2.418   3.955
   83SOPE  C318 7718   1.209   2.302   4.128
   83SOPE  H18X 7719   1.231   2.310   4.237
   83SOPE  H18Y 7720   1.288   2.232   4.091
   83SOPE  H18Z 7721   1.118   2.241   4.108
   84SOPE     N 7722   1.116   0.810   2.234
   84SOPE   HN1 7723   1.107   0.776   2.136
   84SOPE   HN2 7724   1.173   0.897   2.243
   84SOPE   HN3 7725   1.171   0.745   2.293
   84SOPE   C12 7726   0.976   0.809   2.299
   84SOPE  H12A 7727   0.899   0.831   2.222
   84SOPE  H12B 7728   0.962   0.885   2.378
   84SOPE   C11 7729   0.947   0.672   2.367
   84SOPE  H11A 7730   0.862   0.681   2.438
   84SOPE  H11B 7731   1.029   0.644   2.437
   84SOPE     P 7732   0.775   0.518   2.234
   84SOPE   O13 7733   0.780   0.370   2.203
   84SOPE   O14 7734   0.712   0.607   2.136
   84SOPE   O12 7735   0.918   0.566   2.274
   84SOPE   O11 7736   0.700   0.536   2.374
   84SOPE    C1 7737   0.576   0.469   2.381
   84SOPE    HA 7738   0.588   0.358   2.379
   84SOPE    HB 7739   0.506   0.498   2.300
   84SOPE    C2 7740   0.492   0.490   2.516
   84SOPE    HS 7741   0.441   0.584   2.489
   84SOPE   O21 7742   0.587   0.500   2.633
   84SOPE   C21 7743   0.625   0.629   2.656
   84SOPE   O22 7744   0.584   0.721   2.591
   84SOPE   C22 7745   0.729   0.638   2.767
   84SOPE   H2R 7746   0.771   0.740   2.759
   84SOPE   H2S 7747   0.813   0.569   2.743
   84SOPE    C3 7748   0.389   0.381   2.539
   84SOPE    HX 7749   0.440   0.283   2.538
   84SOPE    HY 7750   0.312   0.381   2.458
   84SOPE   O31 7751   0.326   0.412   2.663
   84SOPE   C31 7752   0.268   0.312   2.716
   84SOPE   O32 7753   0.245   0.202   2.672
   84SOPE   C32 7754   0.249   0.363   2.861
   84SOPE   H2X 7755   0.152   0.325   2.899
   84SOPE   H2Y 7756   0.248   0.474   2.865
   84SOPE   C23 7757   0.676   0.607   2.909
   84SOPE   H3R 7758   0.760   0.554   2.958
   84SOPE   H3S 7759   0.587   0.541   2.912
   84SOPE   C24 7760   0.631   0.732   2.990
   84SOPE   H4R 7761   0.708   0.809   3.009
   84SOPE   H4S 7762   0.559   0.790   2.929
   84SOPE   C25 7763   0.559   0.704   3.122
   84SOPE   H5R 7764   0.489   0.785   3.150
   84SOPE   H5S 7765   0.490   0.617   3.118
   84SOPE   C26 7766   0.654   0.680   3.238
   84SOPE   H6R 7767   0.591   0.706   3.327
   84SOPE   H6S 7768   0.692   0.576   3.243
   84SOPE   C27 7769   0.785   0.758   3.266
   84SOPE   H7R 7770   0.851   0.708   3.341
   84SOPE   H7S 7771   0.853   0.762   3.178
   84SOPE   C28 7772   0.763   0.901   3.322
   84SOPE   H8R 7773   0.677   0.951   3.272
   84SOPE   H8S 7774   0.721   0.903   3.425
   84SOPE   C29 7775   0.887   0.982   3.305
   84SOPE   H91 7776   0.894   1.027   3.204
   84SOPE  C210 7777   0.966   1.027   3.405
   84SOPE  H101 7778   1.055   1.085   3.378
   84SOPE  C211 7779   0.954   0.994   3.551
   84SOPE  H11R 7780   0.891   0.904   3.568
   84SOPE  H11S 7781   0.903   1.078   3.603
   84SOPE  C212 7782   1.076   0.976   3.638
   84SOPE  H12R 7783   1.112   1.081   3.638
   84SOPE  H12S 7784   1.147   0.909   3.586
   84SOPE  C213 7785   1.065   0.943   3.782
   84SOPE  H13R 7786   1.004   0.851   3.786
   84SOPE  H13S 7787   0.995   1.015   3.829
   84SOPE  C214 7788   1.204   0.934   3.846
   84SOPE  H14R 7789   1.270   1.013   3.806
   84SOPE  H14S 7790   1.260   0.843   3.815
   84SOPE  C215 7791   1.207   0.925   4.005
   84SOPE  H15R 7792   1.151   0.830   4.017
   84SOPE  H15S 7793   1.159   1.018   4.045
   84SOPE  C216 7794   1.340   0.902   4.077
   84SOPE  H16R 7795   1.400   0.995   4.064
   84SOPE  H16S 7796   1.400   0.821   4.030
   84SOPE  C217 7797   1.335   0.868   4.228
   84SOPE  H17R 7798   1.247   0.803   4.247
   84SOPE  H17S 7799   1.321   0.958   4.291
   84SOPE  C218 7800   1.459   0.800   4.276
   84SOPE  H18R 7801   1.478   0.818   4.384
   84SOPE  H18S 7802   1.548   0.839   4.222
   84SOPE  H18T 7803   1.456   0.692   4.251
   84SOPE   C33 7804   0.350   0.288   2.951
   84SOPE   H3X 7805   0.448   0.312   2.904
   84SOPE   H3Y 7806   0.342   0.177   2.948
   84SOPE   C34 7807   0.333   0.336   3.099
   84SOPE   H4X 7808   0.241   0.285   3.134
   84SOPE   H4Y 7809   0.308   0.444   3.111
   84SOPE   C35 7810   0.447   0.292   3.191
   84SOPE   H5X 7811   0.539   0.346   3.162
   84SOPE   H5Y 7812   0.467   0.182   3.188
   84SOPE   C36 7813   0.424   0.325   3.335
   84SOPE   H6X 7814   0.338   0.261   3.365
   84SOPE   H6Y 7815   0.408   0.433   3.354
   84SOPE   C37 7816   0.540   0.266   3.408
   84SOPE   H7X 7817   0.631   0.300   3.353
   84SOPE   H7Y 7818   0.546   0.155   3.410
   84SOPE   C38 7819   0.553   0.323   3.551
   84SOPE   H8X 7820   0.652   0.288   3.586
   84SOPE   H8Y 7821   0.473   0.290   3.621
   84SOPE   C39 7822   0.572   0.477   3.559
   84SOPE   H9X 7823   0.470   0.521   3.555
   84SOPE   H9Y 7824   0.631   0.529   3.480
   84SOPE  C310 7825   0.617   0.524   3.692
   84SOPE  H10X 7826   0.700   0.452   3.711
   84SOPE  H10Y 7827   0.541   0.521   3.774
   84SOPE  C311 7828   0.684   0.653   3.679
   84SOPE  H11X 7829   0.617   0.731   3.635
   84SOPE  H11Y 7830   0.767   0.648   3.606
   84SOPE  C312 7831   0.758   0.702   3.810
   84SOPE  H12X 7832   0.801   0.805   3.807
   84SOPE  H12Y 7833   0.842   0.634   3.837
   84SOPE  C313 7834   0.674   0.694   3.938
   84SOPE  H13X 7835   0.663   0.588   3.967
   84SOPE  H13Y 7836   0.569   0.727   3.921
   84SOPE  C314 7837   0.733   0.770   4.060
   84SOPE  H14X 7838   0.726   0.875   4.024
   84SOPE  H14Y 7839   0.839   0.736   4.067
   84SOPE  C315 7840   0.650   0.765   4.190
   84SOPE  H15X 7841   0.643   0.658   4.218
   84SOPE  H15Y 7842   0.546   0.800   4.173
   84SOPE  C316 7843   0.707   0.839   4.313
   84SOPE  H16X 7844   0.724   0.944   4.281
   84SOPE  H16Y 7845   0.807   0.794   4.331
   84SOPE  C317 7846   0.624   0.830   4.443
   84SOPE  H17X 7847   0.616   0.721   4.466
   84SOPE  H17Y 7848   0.519   0.853   4.416
   84SOPE  C318 7849   0.674   0.903   4.568
   84SOPE  H18X 7850   0.610   0.862   4.649
   84SOPE  H18Y 7851   0.660   1.012   4.556
   84SOPE  H18Z 7852   0.781   0.876   4.577
   85SOPE     N 7853   5.603   3.724   1.874
   85SOPE   HN1 7854   5.625   3.658   1.952
   85SOPE   HN2 7855   5.550   3.672   1.801
   85SOPE   HN3 7856   5.699   3.745   1.841
   85SOPE   C12 7857   5.532   3.837   1.930
   85SOPE  H12A 7858   5.534   3.921   1.857
   85SOPE  H12B 7859   5.583   3.866   2.024
   85SOPE   C11 7860   5.383   3.792   1.945
   85SOPE  H11A 7861   5.386   3.717   2.027
   85SOPE  H11B 7862   5.340   3.736   1.858
   85SOPE     P 7863   5.253   3.997   1.860
   85SOPE   O13 7864   5.105   3.993   1.835
   85SOPE   O14 7865   5.341   3.974   1.745
   85SOPE   O12 7866   5.293   3.899   1.975
   85SOPE   O11 7867   5.285   4.135   1.914
   85SOPE    C1 7868   5.189   4.217   1.995
   85SOPE    HA 7869   5.082   4.198   1.969
   85SOPE    HB 7870   5.215   4.324   1.980
   85SOPE    C2 7871   5.197   4.175   2.139
   85SOPE    HS 7872   5.154   4.073   2.147
   85SOPE   O21 7873   5.129   4.272   2.216
   85SOPE   C21 7874   4.997   4.256   2.228
   85SOPE   O22 7875   4.932   4.162   2.179
   85SOPE   C22 7876   4.946   4.364   2.324
   85SOPE   H2R 7877   4.839   4.387   2.308
   85SOPE   H2S 7878   5.009   4.453   2.301
   85SOPE    C3 7879   5.342   4.159   2.194
   85SOPE    HX 7880   5.409   4.230   2.142
   85SOPE    HY 7881   5.384   4.057   2.177
   85SOPE   O31 7882   5.338   4.197   2.336
   85SOPE   C31 7883   5.312   4.097   2.419
   85SOPE   O32 7884   5.277   3.985   2.392
   85SOPE   C32 7885   5.345   4.143   2.557
   85SOPE   H2X 7886   5.300   4.240   2.585
   85SOPE   H2Y 7887   5.453   4.171   2.557
   85SOPE   C23 7888   4.958   4.301   2.461
   85SOPE   H3R 7889   5.067   4.277   2.464
   85SOPE   H3S 7890   4.902   4.206   2.471
   85SOPE   C24 7891   4.927   4.405   2.572
   85SOPE   H4R 7892   5.017   4.471   2.568
   85SOPE   H4S 7893   4.838   4.469   2.551
   85SOPE   C25 7894   4.909   4.360   2.714
   85SOPE   H5R 7895   4.929   4.449   2.778
   85SOPE   H5S 7896   4.805   4.328   2.735
   85SOPE   C26 7897   5.009   4.253   2.760
   85SOPE   H6R 7898   4.995   4.164   2.695
   85SOPE   H6S 7899   5.111   4.293   2.745
   85SOPE   C27 7900   4.989   4.204   2.905
   85SOPE   H7R 7901   4.893   4.150   2.912
   85SOPE   H7S 7902   5.066   4.129   2.934
   85SOPE   C28 7903   4.988   4.319   3.014
   85SOPE   H8R 7904   4.902   4.382   2.980
   85SOPE   H8S 7905   4.952   4.272   3.107
   85SOPE   C29 7906   5.117   4.393   3.019
   85SOPE   H91 7907   5.150   4.450   2.931
   85SOPE  C210 7908   5.192   4.419   3.129
   85SOPE  H101 7909   5.279   4.485   3.125
   85SOPE  C211 7910   5.158   4.375   3.268
   85SOPE  H11R 7911   5.204   4.277   3.293
   85SOPE  H11S 7912   5.049   4.366   3.288
   85SOPE  C212 7913   5.208   4.485   3.367
   85SOPE  H12R 7914   5.141   4.571   3.344
   85SOPE  H12S 7915   5.316   4.503   3.353
   85SOPE  C213 7916   5.208   4.447   3.516
   85SOPE  H13R 7917   5.253   4.348   3.538
   85SOPE  H13S 7918   5.104   4.439   3.555
   85SOPE  C214 7919   5.279   4.544   3.608
   85SOPE  H14R 7920   5.217   4.636   3.600
   85SOPE  H14S 7921   5.373   4.576   3.559
   85SOPE  C215 7922   5.292   4.507   3.757
   85SOPE  H15R 7923   5.321   4.400   3.753
   85SOPE  H15S 7924   5.193   4.507   3.809
   85SOPE  C216 7925   5.387   4.586   3.847
   85SOPE  H16R 7926   5.372   4.696   3.847
   85SOPE  H16S 7927   5.488   4.564   3.805
   85SOPE  C217 7928   5.373   4.533   3.991
   85SOPE  H17R 7929   5.470   4.570   4.032
   85SOPE  H17S 7930   5.380   4.422   3.997
   85SOPE  C218 7931   5.264   4.591   4.077
   85SOPE  H18R 7932   5.165   4.548   4.050
   85SOPE  H18S 7933   5.255   4.701   4.058
   85SOPE  H18T 7934   5.275   4.571   4.186
   85SOPE   C33 7935   5.318   4.045   2.672
   85SOPE   H3X 7936   5.367   3.948   2.650
   85SOPE   H3Y 7937   5.209   4.035   2.692
   85SOPE   C34 7938   5.380   4.091   2.803
   85SOPE   H4X 7939   5.345   4.193   2.830
   85SOPE   H4Y 7940   5.491   4.095   2.791
   85SOPE   C35 7941   5.350   3.984   2.906
   85SOPE   H5X 7942   5.389   3.887   2.867
   85SOPE   H5Y 7943   5.240   3.969   2.910
   85SOPE   C36 7944   5.394   4.019   3.049
   85SOPE   H6X 7945   5.378   4.129   3.052
   85SOPE   H6Y 7946   5.502   4.011   3.074
   85SOPE   C37 7947   5.327   3.938   3.167
   85SOPE   H7X 7948   5.342   3.828   3.158
   85SOPE   H7Y 7949   5.218   3.958   3.155
   85SOPE   C38 7950   5.368   3.999   3.307
   85SOPE   H8X 7951   5.323   4.100   3.314
   85SOPE   H8Y 7952   5.478   4.007   3.323
   85SOPE   C39 7953   5.308   3.919   3.417
   85SOPE   H9X 7954   5.339   3.812   3.410
   85SOPE   H9Y 7955   5.200   3.900   3.402
   85SOPE  C310 7956   5.345   3.970   3.556
   85SOPE  H10X 7957   5.313   4.075   3.576
   85SOPE  H10Y 7958   5.456   3.965   3.553
   85SOPE  C311 7959   5.298   3.869   3.662
   85SOPE  H11X 7960   5.339   3.767   3.644
   85SOPE  H11Y 7961   5.189   3.865   3.637
   85SOPE  C312 7962   5.326   3.902   3.803
   85SOPE  H12X 7963   5.297   4.009   3.811
   85SOPE  H12Y 7964   5.436   3.909   3.817
   85SOPE  C313 7965   5.266   3.815   3.911
   85SOPE  H13X 7966   5.265   3.710   3.876
   85SOPE  H13Y 7967   5.162   3.850   3.928
   85SOPE  C314 7968   5.330   3.824   4.049
   85SOPE  H14X 7969   5.427   3.770   4.059
   85SOPE  H14Y 7970   5.263   3.773   4.121
   85SOPE  C315 7971   5.351   3.968   4.103
   85SOPE  H15X 7972   5.261   4.032   4.085
   85SOPE  H15Y 7973   5.431   4.014   4.041
   85SOPE  C316 7974   5.392   3.976   4.252
   85SOPE  H16X 7975   5.317   3.941   4.326
   85SOPE  H16Y 7976   5.430   4.077   4.280
   85SOPE  C317 7977   5.520   3.893   4.293
   85SOPE  H17X 7978   5.617   3.930   4.253
   85SOPE  H17Y 7979   5.511   3.786   4.265
   85SOPE  C318 7980   5.543   3.894   4.449
   85SOPE  H18X 7981   5.479   3.820   4.503
   85SOPE  H18Y 7982   5.518   3.993   4.492
   85SOPE  H18Z 7983   5.647   3.855   4.464
   86SOPE     N 7984   5.278   1.900   2.385
   86SOPE   HN1 7985   5.348   1.881   2.311
   86SOPE   HN2 7986   5.214   1.977   2.354
   86SOPE   HN3 7987   5.340   1.921   2.466
   86SOPE   C12 7988   5.197   1.782   2.411
   86SOPE  H12A 7989   5.138   1.767   2.318
   86SOPE  H12B 7990   5.129   1.794   2.498
   86SOPE   C11 7991   5.286   1.655   2.435
   86SOPE  H11A 7992   5.213   1.572   2.448
   86SOPE  H11B 7993   5.337   1.672   2.532
   86SOPE     P 7994   5.525   1.644   2.333
   86SOPE   O13 7995   5.539   1.777   2.386
   86SOPE   O14 7996   5.585   1.622   2.200
   86SOPE   O12 7997   5.374   1.612   2.328
   86SOPE   O11 7998   5.594   1.544   2.433
   86SOPE    C1 7999   5.567   1.401   2.435
   86SOPE    HA 8000   5.669   1.358   2.443
   86SOPE    HB 8001   5.532   1.352   2.342
   86SOPE    C2 8002   5.474   1.354   2.548
   86SOPE    HS 8003   5.365   1.360   2.524
   86SOPE   O21 8004   5.509   1.424   2.670
   86SOPE   C21 8005   5.418   1.476   2.740
   86SOPE   O22 8006   5.299   1.472   2.718
   86SOPE   C22 8007   5.479   1.517   2.872
   86SOPE   H2R 8008   5.399   1.584   2.912
   86SOPE   H2S 8009   5.570   1.572   2.840
   86SOPE    C3 8010   5.499   1.205   2.587
   86SOPE    HX 8011   5.604   1.183   2.612
   86SOPE    HY 8012   5.456   1.143   2.505
   86SOPE   O31 8013   5.418   1.177   2.708
   86SOPE   C31 8014   5.464   1.064   2.767
   86SOPE   O32 8015   5.537   0.985   2.712
   86SOPE   C32 8016   5.409   1.049   2.914
   86SOPE   H2X 8017   5.299   1.064   2.916
   86SOPE   H2Y 8018   5.459   1.123   2.980
   86SOPE   C23 8019   5.527   1.396   2.953
   86SOPE   H3R 8020   5.591   1.320   2.904
   86SOPE   H3S 8021   5.430   1.345   2.973
   86SOPE   C24 8022   5.600   1.431   3.085
   86SOPE   H4R 8023   5.701   1.474   3.064
   86SOPE   H4S 8024   5.535   1.501   3.142
   86SOPE   C25 8025   5.621   1.309   3.173
   86SOPE   H5R 8026   5.525   1.254   3.166
   86SOPE   H5S 8027   5.698   1.245   3.124
   86SOPE   C26 8028   5.670   1.332   3.314
   86SOPE   H6R 8029   5.602   1.410   3.355
   86SOPE   H6S 8030   5.654   1.248   3.385
   86SOPE   C27 8031   5.811   1.389   3.318
   86SOPE   H7R 8032   5.884   1.318   3.274
   86SOPE   H7S 8033   5.814   1.479   3.255
   86SOPE   C28 8034   5.861   1.429   3.461
   86SOPE   H8R 8035   5.943   1.502   3.448
   86SOPE   H8S 8036   5.778   1.488   3.506
   86SOPE   C29 8037   5.930   1.319   3.537
   86SOPE   H91 8038   6.003   1.274   3.468
   86SOPE  C210 8039   5.915   1.280   3.668
   86SOPE  H101 8040   5.984   1.204   3.709
   86SOPE  C211 8041   5.821   1.351   3.762
   86SOPE  H11R 8042   5.742   1.285   3.804
   86SOPE  H11S 8043   5.764   1.429   3.707
   86SOPE  C212 8044   5.884   1.421   3.883
   86SOPE  H12R 8045   5.801   1.479   3.928
   86SOPE  H12S 8046   5.953   1.497   3.839
   86SOPE  C213 8047   5.935   1.330   3.998
   86SOPE  H13R 8048   5.999   1.242   3.979
   86SOPE  H13S 8049   5.846   1.283   4.045
   86SOPE  C214 8050   6.007   1.406   4.118
   86SOPE  H14R 8051   5.938   1.482   4.160
   86SOPE  H14S 8052   6.098   1.462   4.087
   86SOPE  C215 8053   6.048   1.299   4.225
   86SOPE  H15R 8054   6.114   1.226   4.174
   86SOPE  H15S 8055   5.957   1.246   4.260
   86SOPE  C216 8056   6.114   1.372   4.340
   86SOPE  H16R 8057   6.035   1.430   4.393
   86SOPE  H16S 8058   6.196   1.431   4.294
   86SOPE  C217 8059   6.173   1.282   4.452
   86SOPE  H17R 8060   6.241   1.342   4.518
   86SOPE  H17S 8061   6.233   1.201   4.406
   86SOPE  C218 8062   6.074   1.207   4.544
   86SOPE  H18R 8063   6.138   1.143   4.609
   86SOPE  H18S 8064   5.992   1.152   4.493
   86SOPE  H18T 8065   6.027   1.284   4.609
   86SOPE   C33 8066   5.444   0.910   2.975
   86SOPE   H3X 8067   5.553   0.895   2.985
   86SOPE   H3Y 8068   5.407   0.815   2.931
   86SOPE   C34 8069   5.382   0.928   3.118
   86SOPE   H4X 8070   5.274   0.950   3.109
   86SOPE   H4Y 8071   5.438   1.009   3.170
   86SOPE   C35 8072   5.404   0.805   3.203
   86SOPE   H5X 8073   5.514   0.806   3.215
   86SOPE   H5Y 8074   5.372   0.715   3.145
   86SOPE   C36 8075   5.343   0.807   3.341
   86SOPE   H6X 8076   5.233   0.817   3.336
   86SOPE   H6Y 8077   5.371   0.896   3.401
   86SOPE   C37 8078   5.378   0.674   3.406
   86SOPE   H7X 8079   5.489   0.668   3.406
   86SOPE   H7Y 8080   5.335   0.598   3.337
   86SOPE   C38 8081   5.318   0.662   3.553
   86SOPE   H8X 8082   5.218   0.615   3.551
   86SOPE   H8Y 8083   5.321   0.762   3.602
   86SOPE   C39 8084   5.414   0.584   3.644
   86SOPE   H9X 8085   5.512   0.636   3.634
   86SOPE   H9Y 8086   5.432   0.482   3.604
   86SOPE  C310 8087   5.370   0.560   3.787
   86SOPE  H10X 8088   5.276   0.501   3.787
   86SOPE  H10Y 8089   5.352   0.651   3.848
   86SOPE  C311 8090   5.467   0.477   3.870
   86SOPE  H11X 8091   5.551   0.542   3.900
   86SOPE  H11Y 8092   5.504   0.387   3.816
   86SOPE  C312 8093   5.416   0.416   3.997
   86SOPE  H12X 8094   5.358   0.322   3.982
   86SOPE  H12Y 8095   5.350   0.488   4.050
   86SOPE  C313 8096   5.522   0.394   4.108
   86SOPE  H13X 8097   5.583   0.487   4.117
   86SOPE  H13Y 8098   5.592   0.313   4.080
   86SOPE  C314 8099   5.457   0.359   4.242
   86SOPE  H14X 8100   5.389   0.275   4.220
   86SOPE  H14Y 8101   5.389   0.438   4.281
   86SOPE  C315 8102   5.564   0.317   4.344
   86SOPE  H15X 8103   5.637   0.237   4.317
   86SOPE  H15Y 8104   5.511   0.282   4.436
   86SOPE  C316 8105   5.657   0.434   4.390
   86SOPE  H16X 8106   5.591   0.519   4.418
   86SOPE  H16Y 8107   5.716   0.452   4.297
   86SOPE  C317 8108   5.737   0.395   4.516
   86SOPE  H17X 8109   5.819   0.469   4.520
   86SOPE  H17Y 8110   5.776   0.296   4.486
   86SOPE  C318 8111   5.650   0.401   4.640
   86SOPE  H18X 8112   5.616   0.501   4.674
   86SOPE  H18Y 8113   5.708   0.355   4.723
   86SOPE  H18Z 8114   5.560   0.336   4.629
   87SOPE     N 8115   6.531   0.608   2.180
   87SOPE   HN1 8116   6.481   0.674   2.243
   87SOPE   HN2 8117   6.549   0.529   2.244
   87SOPE   HN3 8118   6.617   0.655   2.145
   87SOPE   C12 8119   6.461   0.546   2.060
   87SOPE  H12A 8120   6.539   0.489   2.006
   87SOPE  H12B 8121   6.411   0.628   2.004
   87SOPE   C11 8122   6.343   0.456   2.105
   87SOPE  H11A 8123   6.271   0.521   2.160
   87SOPE  H11B 8124   6.390   0.395   2.185
   87SOPE     P 8125   6.146   0.310   2.016
   87SOPE   O13 8126   6.148   0.194   1.923
   87SOPE   O14 8127   6.038   0.413   2.004
   87SOPE   O12 8128   6.289   0.371   2.006
   87SOPE   O11 8129   6.125   0.248   2.166
   87SOPE    C1 8130   6.232   0.172   2.224
   87SOPE    HA 8131   6.334   0.198   2.189
   87SOPE    HB 8132   6.219   0.064   2.205
   87SOPE    C2 8133   6.236   0.197   2.382
   87SOPE    HS 8134   6.147   0.145   2.425
   87SOPE   O21 8135   6.269   0.332   2.419
   87SOPE   C21 8136   6.191   0.372   2.515
   87SOPE   O22 8137   6.116   0.304   2.574
   87SOPE   C22 8138   6.207   0.525   2.524
   87SOPE   H2R 8139   6.110   0.577   2.534
   87SOPE   H2S 8140   6.260   0.555   2.431
   87SOPE    C3 8141   6.356   0.104   2.426
   87SOPE    HX 8142   6.449   0.150   2.384
   87SOPE    HY 8143   6.341   0.002   2.386
   87SOPE   O31 8144   6.365   0.086   2.569
   87SOPE   C31 8145   6.434   0.178   2.639
   87SOPE   O32 8146   6.487   0.277   2.591
   87SOPE   C32 8147   6.439   0.146   2.788
   87SOPE   H2X 8148   6.495   0.051   2.800
   87SOPE   H2Y 8149   6.335   0.129   2.825
   87SOPE   C23 8150   6.300   0.547   2.651
   87SOPE   H3R 8151   6.326   0.655   2.641
   87SOPE   H3S 8152   6.396   0.494   2.636
   87SOPE   C24 8153   6.228   0.508   2.778
   87SOPE   H4R 8154   6.118   0.520   2.772
   87SOPE   H4S 8155   6.230   0.399   2.800
   87SOPE   C25 8156   6.260   0.582   2.905
   87SOPE   H5R 8157   6.364   0.570   2.942
   87SOPE   H5S 8158   6.244   0.690   2.885
   87SOPE   C26 8159   6.175   0.543   3.024
   87SOPE   H6R 8160   6.065   0.551   3.005
   87SOPE   H6S 8161   6.194   0.435   3.043
   87SOPE   C27 8162   6.210   0.637   3.144
   87SOPE   H7R 8163   6.321   0.640   3.146
   87SOPE   H7S 8164   6.171   0.736   3.114
   87SOPE   C28 8165   6.146   0.603   3.284
   87SOPE   H8R 8166   6.182   0.682   3.352
   87SOPE   H8S 8167   6.035   0.604   3.279
   87SOPE   C29 8168   6.191   0.460   3.323
   87SOPE   H91 8169   6.120   0.377   3.305
   87SOPE  C210 8170   6.306   0.434   3.382
   87SOPE  H101 8171   6.337   0.329   3.375
   87SOPE  C211 8172   6.413   0.525   3.427
   87SOPE  H11R 8173   6.399   0.626   3.383
   87SOPE  H11S 8174   6.509   0.492   3.382
   87SOPE  C212 8175   6.429   0.532   3.580
   87SOPE  H12R 8176   6.521   0.593   3.593
   87SOPE  H12S 8177   6.464   0.435   3.621
   87SOPE  C213 8178   6.307   0.585   3.652
   87SOPE  H13R 8179   6.233   0.502   3.653
   87SOPE  H13S 8180   6.265   0.678   3.608
   87SOPE  C214 8181   6.333   0.622   3.807
   87SOPE  H14R 8182   6.247   0.673   3.856
   87SOPE  H14S 8183   6.415   0.695   3.793
   87SOPE  C215 8184   6.376   0.491   3.880
   87SOPE  H15R 8185   6.457   0.439   3.825
   87SOPE  H15S 8186   6.286   0.426   3.885
   87SOPE  C216 8187   6.421   0.516   4.027
   87SOPE  H16R 8188   6.465   0.430   4.082
   87SOPE  H16S 8189   6.335   0.557   4.084
   87SOPE  C217 8190   6.528   0.620   4.057
   87SOPE  H17R 8191   6.494   0.715   4.009
   87SOPE  H17S 8192   6.625   0.594   4.008
   87SOPE  C218 8193   6.536   0.655   4.212
   87SOPE  H18R 8194   6.443   0.690   4.261
   87SOPE  H18S 8195   6.615   0.732   4.227
   87SOPE  H18T 8196   6.570   0.560   4.257
   87SOPE   C33 8197   6.529   0.250   2.861
   87SOPE   H3X 8198   6.487   0.351   2.841
   87SOPE   H3Y 8199   6.636   0.236   2.835
   87SOPE   C34 8200   6.526   0.231   3.015
   87SOPE   H4X 8201   6.417   0.231   3.040
   87SOPE   H4Y 8202   6.575   0.315   3.067
   87SOPE   C35 8203   6.574   0.099   3.071
   87SOPE   H5X 8204   6.678   0.079   3.037
   87SOPE   H5Y 8205   6.517   0.011   3.032
   87SOPE   C36 8206   6.584   0.086   3.225
   87SOPE   H6X 8207   6.629   6.805   3.235
   87SOPE   H6Y 8208   6.486   0.070   3.277
   87SOPE   C37 8209   6.670   0.187   3.300
   87SOPE   H7X 8210   6.649   0.295   3.281
   87SOPE   H7Y 8211   6.775   0.179   3.264
   87SOPE   C38 8212   6.677   0.153   3.447
   87SOPE   H8X 8213   6.745   0.066   3.464
   87SOPE   H8Y 8214   6.571   0.134   3.476
   87SOPE   C39 8215   6.719   0.276   3.530
   87SOPE   H9X 8216   6.645   0.358   3.520
   87SOPE   H9Y 8217   6.814   0.322   3.495
   87SOPE  C310 8218   6.736   0.241   3.679
   87SOPE  H10X 8219   6.778   0.139   3.692
   87SOPE  H10Y 8220   6.635   0.237   3.725
   87SOPE  C311 8221   0.002   0.342   3.755
   87SOPE  H11X 8222   6.776   0.441   3.734
   87SOPE  H11Y 8223   0.109   0.338   3.724
   87SOPE  C312 8224   6.812   0.333   3.902
   87SOPE  H12X 8225   0.052   0.243   3.930
   87SOPE  H12Y 8226   6.706   0.330   3.936
   87SOPE  C313 8227   0.066   0.447   3.978
   87SOPE  H13X 8228   0.030   0.547   3.948
   87SOPE  H13Y 8229   0.171   0.447   3.941
   87SOPE  C314 8230   0.053   0.440   4.131
   87SOPE  H14X 8231   0.080   0.338   4.165
   87SOPE  H14Y 8232   6.769   0.457   4.169
   87SOPE  C315 8233   0.154   0.522   4.214
   87SOPE  H15X 8234   0.148   0.630   4.189
   87SOPE  H15Y 8235   0.257   0.486   4.197
   87SOPE  C316 8236   0.135   0.503   4.366
   87SOPE  H16X 8237   0.113   0.397   4.388
   87SOPE  H16Y 8238   0.041   0.558   4.389
   87SOPE  C317 8239   0.252   0.556   4.446
   87SOPE  H17X 8240   0.340   0.488   4.452
   87SOPE  H17Y 8241   0.219   0.561   4.552
   87SOPE  C318 8242   0.305   0.690   4.395
   87SOPE  H18X 8243   0.357   0.731   4.485
   87SOPE  H18Y 8244   0.231   0.766   4.364
   87SOPE  H18Z 8245   0.371   0.675   4.307
   88SOPE     N 8246   1.380   5.635   1.752
   88SOPE   HN1 8247   1.349   5.620   1.654
   88SOPE   HN2 8248   1.456   5.567   1.773
   88SOPE   HN3 8249   1.307   5.604   1.819
   88SOPE   C12 8250   1.434   5.769   1.785
   88SOPE  H12A 8251   1.372   5.841   1.727
   88SOPE  H12B 8252   1.538   5.762   1.747
   88SOPE   C11 8253   1.431   5.798   1.935
   88SOPE  H11A 8254   1.468   5.900   1.959
   88SOPE  H11B 8255   1.514   5.746   1.987
   88SOPE     P 8256   1.222   5.879   2.050
   88SOPE   O13 8257   1.141   5.821   2.163
   88SOPE   O14 8258   1.147   5.939   1.935
   88SOPE   O12 8259   1.314   5.762   1.995
   88SOPE   O11 8260   1.319   5.994   2.112
   88SOPE    C1 8261   1.417   5.965   2.215
   88SOPE    HA 8262   1.495   6.043   2.204
   88SOPE    HB 8263   1.463   5.864   2.202
   88SOPE    C2 8264   1.370   5.982   2.355
   88SOPE    HS 8265   1.277   5.922   2.364
   88SOPE   O21 8266   1.348   6.129   2.374
   88SOPE   C21 8267   1.238   6.142   2.452
   88SOPE   O22 8268   1.161   6.058   2.490
   88SOPE   C22 8269   1.246   6.278   2.529
   88SOPE   H2R 8270   1.187   6.357   2.476
   88SOPE   H2S 8271   1.352   6.305   2.543
   88SOPE    C3 8272   1.454   5.924   2.465
   88SOPE    HX 8273   1.535   5.862   2.422
   88SOPE    HY 8274   1.390   5.861   2.532
   88SOPE   O31 8275   1.520   6.029   2.548
   88SOPE   C31 8276   1.592   5.970   2.655
   88SOPE   O32 8277   1.596   5.850   2.669
   88SOPE   C32 8278   1.649   6.081   2.743
   88SOPE   H2X 8279   1.617   6.180   2.706
   88SOPE   H2Y 8280   1.759   6.067   2.734
   88SOPE   C23 8281   1.177   6.268   2.666
   88SOPE   H3R 8282   1.104   6.184   2.666
   88SOPE   H3S 8283   1.129   6.361   2.702
   88SOPE   C24 8284   1.286   6.250   2.769
   88SOPE   H4R 8285   1.355   6.169   2.739
   88SOPE   H4S 8286   1.346   6.343   2.772
   88SOPE   C25 8287   1.223   6.221   2.906
   88SOPE   H5R 8288   1.149   6.141   2.888
   88SOPE   H5S 8289   1.299   6.171   2.970
   88SOPE   C26 8290   1.174   6.330   2.990
   88SOPE   H6R 8291   1.253   6.384   3.045
   88SOPE   H6S 8292   1.122   6.391   2.913
   88SOPE   C27 8293   1.063   6.294   3.095
   88SOPE   H7R 8294   1.025   6.387   3.141
   88SOPE   H7S 8295   0.981   6.233   3.050
   88SOPE   C28 8296   1.122   6.222   3.221
   88SOPE   H8R 8297   1.036   6.201   3.288
   88SOPE   H8S 8298   1.156   6.119   3.198
   88SOPE   C29 8299   1.229   6.288   3.308
   88SOPE   H91 8300   1.329   6.280   3.263
   88SOPE  C210 8301   1.219   6.339   3.433
   88SOPE  H101 8302   1.310   6.380   3.479
   88SOPE  C211 8303   1.089   6.339   3.509
   88SOPE  H11R 8304   1.051   6.235   3.501
   88SOPE  H11S 8305   1.012   6.394   3.452
   88SOPE  C212 8306   1.104   6.393   3.648
   88SOPE  H12R 8307   1.137   6.499   3.645
   88SOPE  H12S 8308   1.174   6.336   3.712
   88SOPE  C213 8309   0.968   6.389   3.729
   88SOPE  H13R 8310   0.924   6.288   3.742
   88SOPE  H13S 8311   0.892   6.443   3.669
   88SOPE  C214 8312   0.981   6.450   3.869
   88SOPE  H14R 8313   1.003   6.558   3.864
   88SOPE  H14S 8314   1.056   6.398   3.933
   88SOPE  C215 8315   0.851   6.455   3.948
   88SOPE  H15R 8316   0.847   6.368   4.017
   88SOPE  H15S 8317   0.771   6.452   3.872
   88SOPE  C216 8318   0.852   6.587   4.028
   88SOPE  H16R 8319   0.859   6.673   3.958
   88SOPE  H16S 8320   0.938   6.591   4.098
   88SOPE  C217 8321   0.731   6.596   4.113
   88SOPE  H17R 8322   0.712   6.498   4.161
   88SOPE  H17S 8323   0.646   6.617   4.045
   88SOPE  C218 8324   0.750   6.706   4.226
   88SOPE  H18R 8325   0.733   6.807   4.185
   88SOPE  H18S 8326   0.849   6.687   4.273
   88SOPE  H18T 8327   0.669   6.690   4.301
   88SOPE   C33 8328   1.596   6.078   2.889
   88SOPE   H3X 8329   1.632   5.983   2.934
   88SOPE   H3Y 8330   1.485   6.066   2.884
   88SOPE   C34 8331   1.645   6.206   2.967
   88SOPE   H4X 8332   1.618   6.296   2.908
   88SOPE   H4Y 8333   1.755   6.187   2.964
   88SOPE   C35 8334   1.590   6.211   3.112
   88SOPE   H5X 8335   1.643   6.131   3.169
   88SOPE   H5Y 8336   1.481   6.194   3.112
   88SOPE   C36 8337   1.609   6.340   3.179
   88SOPE   H6X 8338   1.530   6.416   3.157
   88SOPE   H6Y 8339   1.711   6.378   3.155
   88SOPE   C37 8340   1.623   6.325   3.328
   88SOPE   H7X 8341   1.689   6.241   3.360
   88SOPE   H7Y 8342   1.526   6.299   3.376
   88SOPE   C38 8343   1.658   6.456   3.408
   88SOPE   H8X 8344   1.596   6.538   3.368
   88SOPE   H8Y 8345   1.765   6.481   3.396
   88SOPE   C39 8346   1.623   6.441   3.558
   88SOPE   H9X 8347   1.663   6.345   3.597
   88SOPE   H9Y 8348   1.514   6.452   3.573
   88SOPE  C310 8349   1.686   6.558   3.628
   88SOPE  H10X 8350   1.637   6.648   3.583
   88SOPE  H10Y 8351   1.794   6.573   3.607
   88SOPE  C311 8352   1.667   6.557   3.780
   88SOPE  H11X 8353   1.731   6.477   3.823
   88SOPE  H11Y 8354   1.561   6.528   3.797
   88SOPE  C312 8355   1.695   6.685   3.852
   88SOPE  H12X 8356   1.594   6.731   3.856
   88SOPE  H12Y 8357   1.766   6.753   3.801
   88SOPE  C313 8358   1.747   6.659   3.996
   88SOPE  H13X 8359   1.737   6.756   4.049
   88SOPE  H13Y 8360   1.850   6.619   3.982
   88SOPE  C314 8361   1.656   6.562   4.068
   88SOPE  H14X 8362   1.660   6.461   4.021
   88SOPE  H14Y 8363   1.553   6.600   4.049
   88SOPE  C315 8364   1.692   6.545   4.222
   88SOPE  H15X 8365   1.602   6.507   4.275
   88SOPE  H15Y 8366   1.728   6.640   4.266
   88SOPE  C316 8367   1.804   6.432   4.230
   88SOPE  H16X 8368   1.892   6.491   4.199
   88SOPE  H16Y 8369   1.771   6.353   4.159
   88SOPE  C317 8370   1.829   6.381   4.378
   88SOPE  H17X 8371   1.839   6.465   4.450
   88SOPE  H17Y 8372   1.930   6.338   4.395
   88SOPE  C318 8373   1.717   6.293   4.423
   88SOPE  H18X 8374   1.622   6.350   4.433
   88SOPE  H18Y 8375   1.740   6.240   4.517
   88SOPE  H18Z 8376   1.686   6.219   4.346
   89SAPC     N 8377   4.934   3.024   6.788
   89SAPC   C12 8378   4.962   2.976   6.656
   89SAPC  H12A 8379   4.873   2.927   6.620
   89SAPC  H12B 8380   5.031   2.894   6.667
   89SAPC   C13 8381   4.839   3.141   6.793
   89SAPC  H13A 8382   4.886   3.226   6.747
   89SAPC  H13B 8383   4.742   3.126   6.748
   89SAPC  H13C 8384   4.829   3.171   6.897
   89SAPC   C14 8385   4.867   2.922   6.868
   89SAPC  H14A 8386   4.778   2.881   6.822
   89SAPC  H14B 8387   4.928   2.833   6.871
   89SAPC  H14C 8388   4.846   2.965   6.965
   89SAPC   C15 8389   5.052   3.079   6.868
   89SAPC  H15A 8390   5.102   3.165   6.825
   89SAPC  H15B 8391   5.026   3.113   6.967
   89SAPC  H15C 8392   5.131   3.007   6.877
   89SAPC   C11 8393   5.006   3.078   6.557
   89SAPC  H11A 8394   5.063   3.010   6.491
   89SAPC  H11B 8395   5.074   3.145   6.614
   89SAPC     P 8396   4.895   3.295   6.475
   89SAPC   O13 8397   4.787   3.325   6.385
   89SAPC   O14 8398   4.903   3.371   6.599
   89SAPC   O12 8399   4.882   3.135   6.508
   89SAPC   O11 8400   5.030   3.304   6.389
   89SAPC    C1 8401   5.051   3.219   6.275
   89SAPC    HA 8402   5.161   3.201   6.277
   89SAPC    HB 8403   5.001   3.119   6.278
   89SAPC    C2 8404   5.011   3.295   6.148
   89SAPC    HS 8405   4.904   3.322   6.163
   89SAPC   O21 8406   5.027   3.207   6.031
   89SAPC   C21 8407   4.927   3.122   6.015
   89SAPC   O22 8408   4.825   3.117   6.083
   89SAPC   C22 8409   4.970   3.024   5.906
   89SAPC   H2R 8410   5.068   2.974   5.925
   89SAPC   H2S 8411   4.884   2.954   5.907
   89SAPC    C3 8412   5.087   3.430   6.121
   89SAPC    HX 8413   5.193   3.408   6.101
   89SAPC    HY 8414   5.085   3.487   6.216
   89SAPC   O31 8415   5.022   3.497   6.008
   89SAPC   C31 8416   4.914   3.577   6.042
   89SAPC   O32 8417   4.885   3.618   6.150
   89SAPC   C32 8418   4.828   3.611   5.913
   89SAPC   H2X 8419   4.902   3.661   5.847
   89SAPC   H2Y 8420   4.751   3.685   5.944
   89SAPC   C23 8421   4.986   3.086   5.767
   89SAPC   H3R 8422   5.058   3.033   5.700
   89SAPC   H3S 8423   5.034   3.183   5.791
   89SAPC   C24 8424   4.860   3.106   5.685
   89SAPC   H4R 8425   4.882   3.185   5.610
   89SAPC   H4S 8426   4.791   3.151   5.759
   89SAPC   C25 8427   4.808   2.988   5.615
   89SAPC   H5R 8428   4.776   2.909   5.685
   89SAPC   C26 8429   4.797   2.962   5.480
   89SAPC   H6R 8430   4.733   2.878   5.449
   89SAPC   C27 8431   4.839   3.050   5.368
   89SAPC   H7R 8432   4.880   2.986   5.287
   89SAPC   H7S 8433   4.916   3.124   5.397
   89SAPC   C28 8434   4.716   3.125   5.320
   89SAPC   H8R 8435   4.628   3.146   5.383
   89SAPC   C29 8436   4.695   3.179   5.197
   89SAPC   H9R 8437   4.597   3.219   5.167
   89SAPC  C210 8438   4.805   3.203   5.095
   89SAPC  H10R 8439   4.831   3.100   5.062
   89SAPC  H10S 8440   4.903   3.239   5.133
   89SAPC  C211 8441   4.761   3.282   4.977
   89SAPC  H11R 8442   4.743   3.239   4.877
   89SAPC  C212 8443   4.745   3.415   4.983
   89SAPC  H12R 8444   4.697   3.481   4.910
   89SAPC  C213 8445   4.783   3.510   5.095
   89SAPC  H13R 8446   4.892   3.507   5.113
   89SAPC  H13S 8447   4.734   3.480   5.190
   89SAPC  C214 8448   4.736   3.653   5.076
   89SAPC  H14R 8449   4.694   3.686   4.979
   89SAPC  C215 8450   4.757   3.763   5.149
   89SAPC  H15R 8451   4.717   3.858   5.112
   89SAPC  C216 8452   4.839   3.760   5.282
   89SAPC  H16R 8453   4.936   3.808   5.262
   89SAPC  H16S 8454   4.849   3.658   5.326
   89SAPC  C217 8455   4.764   3.846   5.376
   89SAPC  H17R 8456   4.671   3.794   5.406
   89SAPC  H17S 8457   4.733   3.948   5.343
   89SAPC  C218 8458   4.836   3.872   5.510
   89SAPC  H18R 8459   4.921   3.942   5.494
   89SAPC  H18S 8460   4.883   3.781   5.556
   89SAPC  C219 8461   4.751   3.938   5.617
   89SAPC  H19R 8462   4.676   3.860   5.641
   89SAPC  H19S 8463   4.694   4.027   5.582
   89SAPC  C220 8464   4.825   3.975   5.743
   89SAPC  H20R 8465   4.753   4.021   5.813
   89SAPC  H20S 8466   4.901   4.053   5.723
   89SAPC  H20T 8467   4.863   3.878   5.782
   89SAPC   C33 8468   4.781   3.490   5.834
   89SAPC   H3X 8469   4.698   3.448   5.895
   89SAPC   H3Y 8470   4.865   3.417   5.832
   89SAPC   C34 8471   4.729   3.526   5.698
   89SAPC   H4X 8472   4.813   3.534   5.625
   89SAPC   H4Y 8473   4.684   3.627   5.698
   89SAPC   C35 8474   4.619   3.433   5.642
   89SAPC   H5X 8475   4.545   3.428   5.726
   89SAPC   H5Y 8476   4.667   3.334   5.626
   89SAPC   C36 8477   4.552   3.485   5.512
   89SAPC   H6X 8478   4.624   3.477   5.428
   89SAPC   H6Y 8479   4.519   3.589   5.532
   89SAPC   C37 8480   4.425   3.411   5.453
   89SAPC   H7X 8481   4.346   3.406   5.531
   89SAPC   H7Y 8482   4.457   3.307   5.436
   89SAPC   C38 8483   4.374   3.472   5.322
   89SAPC   H8X 8484   4.458   3.521   5.269
   89SAPC   H8Y 8485   4.297   3.550   5.333
   89SAPC   C39 8486   4.332   3.372   5.212
   89SAPC   H9X 8487   4.221   3.375   5.206
   89SAPC   H9Y 8488   4.368   3.278   5.257
   89SAPC  C310 8489   4.390   3.386   5.073
   89SAPC  H10X 8490   4.427   3.298   5.015
   89SAPC  H10Y 8491   4.488   3.438   5.072
   89SAPC  C311 8492   4.316   3.483   4.983
   89SAPC  H11X 8493   4.274   3.558   5.054
   89SAPC  H11Y 8494   4.226   3.440   4.935
   89SAPC  C312 8495   4.394   3.559   4.879
   89SAPC  H12X 8496   4.473   3.622   4.925
   89SAPC  H12Y 8497   4.322   3.627   4.828
   89SAPC  C313 8498   4.431   3.449   4.774
   89SAPC  H13X 8499   4.346   3.387   4.738
   89SAPC  H13Y 8500   4.483   3.378   4.842
   89SAPC  C314 8501   4.513   3.499   4.653
   89SAPC  H14X 8502   4.588   3.419   4.635
   89SAPC  H14Y 8503   4.577   3.584   4.685
   89SAPC  C315 8504   4.431   3.532   4.530
   89SAPC  H15X 8505   4.350   3.606   4.548
   89SAPC  H15Y 8506   4.384   3.437   4.498
   89SAPC  C316 8507   4.516   3.584   4.414
   89SAPC  H16X 8508   4.554   3.682   4.448
   89SAPC  H16Y 8509   4.454   3.585   4.322
   89SAPC  C317 8510   4.640   3.497   4.373
   89SAPC  H17X 8511   4.607   3.394   4.346
   89SAPC  H17Y 8512   4.712   3.481   4.456
   89SAPC  C318 8513   4.707   3.561   4.247
   89SAPC  H18X 8514   4.803   3.510   4.221
   89SAPC  H18Y 8515   4.727   3.667   4.271
   89SAPC  H18Z 8516   4.646   3.548   4.155
   90SAPC     N 8517   2.878   6.487   6.640
   90SAPC   C12 8518   2.911   6.488   6.487
   90SAPC  H12A 8519   2.892   6.585   6.444
   90SAPC  H12B 8520   2.841   6.422   6.438
   90SAPC   C13 8521   2.993   6.558   6.713
   90SAPC  H13A 8522   2.978   6.559   6.820
   90SAPC  H13B 8523   3.077   6.491   6.699
   90SAPC  H13C 8524   3.010   6.661   6.685
   90SAPC   C14 8525   2.757   6.572   6.675
   90SAPC  H14A 8526   2.776   6.674   6.645
   90SAPC  H14B 8527   2.670   6.538   6.621
   90SAPC  H14C 8528   2.736   6.567   6.781
   90SAPC   C15 8529   2.855   6.352   6.699
   90SAPC  H15A 8530   2.858   6.350   6.807
   90SAPC  H15B 8531   2.757   6.323   6.664
   90SAPC  H15C 8532   2.923   6.282   6.654
   90SAPC   C11 8533   3.048   6.425   6.440
   90SAPC  H11A 8534   3.133   6.492   6.463
   90SAPC  H11B 8535   3.056   6.408   6.331
   90SAPC     P 8536   3.180   6.210   6.523
   90SAPC   O13 8537   3.278   6.276   6.614
   90SAPC   O14 8538   3.140   6.074   6.566
   90SAPC   O12 8539   3.056   6.301   6.504
   90SAPC   O11 8540   3.247   6.208   6.384
   90SAPC    C1 8541   3.351   6.108   6.373
   90SAPC    HA 8542   3.421   6.102   6.459
   90SAPC    HB 8543   3.310   6.008   6.348
   90SAPC    C2 8544   3.447   6.147   6.257
   90SAPC    HS 8545   3.494   6.243   6.287
   90SAPC   O21 8546   3.372   6.176   6.133
   90SAPC   C21 8547   3.443   6.259   6.057
   90SAPC   O22 8548   3.554   6.304   6.086
   90SAPC   C22 8549   3.381   6.281   5.919
   90SAPC   H2R 8550   3.297   6.210   5.903
   90SAPC   H2S 8551   3.342   6.385   5.928
   90SAPC    C3 8552   3.569   6.050   6.234
   90SAPC    HX 8553   3.628   6.049   6.328
   90SAPC    HY 8554   3.641   6.086   6.158
   90SAPC   O31 8555   3.526   5.919   6.209
   90SAPC   C31 8556   3.516   5.884   6.077
   90SAPC   O32 8557   3.551   5.966   5.987
   90SAPC   C32 8558   3.452   5.753   6.067
   90SAPC   H2X 8559   3.459   5.702   6.166
   90SAPC   H2Y 8560   3.518   5.703   5.993
   90SAPC   C23 8561   3.483   6.280   5.800
   90SAPC   H3R 8562   3.548   6.190   5.802
   90SAPC   H3S 8563   3.552   6.365   5.820
   90SAPC   C24 8564   3.409   6.298   5.662
   90SAPC   H4R 8565   3.485   6.353   5.601
   90SAPC   H4S 8566   3.322   6.362   5.688
   90SAPC   C25 8567   3.360   6.168   5.596
   90SAPC   H5R 8568   3.397   6.080   5.651
   90SAPC   C26 8569   3.294   6.151   5.478
   90SAPC   H6R 8570   3.257   6.052   5.445
   90SAPC   C27 8571   3.252   6.266   5.391
   90SAPC   H7R 8572   3.334   6.300   5.324
   90SAPC   H7S 8573   3.240   6.348   5.464
   90SAPC   C28 8574   3.121   6.241   5.321
   90SAPC   H8R 8575   3.039   6.245   5.395
   90SAPC   C29 8576   3.102   6.222   5.188
   90SAPC   H9R 8577   2.998   6.201   5.159
   90SAPC  C210 8578   3.208   6.220   5.081
   90SAPC  H10R 8579   3.290   6.148   5.100
   90SAPC  H10S 8580   3.261   6.318   5.082
   90SAPC  C211 8581   3.152   6.196   4.944
   90SAPC  H11R 8582   3.096   6.102   4.936
   90SAPC  C212 8583   3.166   6.275   4.838
   90SAPC  H12R 8584   3.123   6.245   4.741
   90SAPC  C213 8585   3.241   6.406   4.829
   90SAPC  H13R 8586   3.283   6.404   4.726
   90SAPC  H13S 8587   3.327   6.415   4.899
   90SAPC  C214 8588   3.152   6.527   4.862
   90SAPC  H14R 8589   3.130   6.542   4.969
   90SAPC  C215 8590   3.088   6.599   4.762
   90SAPC  H15R 8591   3.015   6.675   4.795
   90SAPC  C216 8592   3.103   6.582   4.613
   90SAPC  H16R 8593   3.193   6.521   4.588
   90SAPC  H16S 8594   3.114   6.678   4.558
   90SAPC  C217 8595   2.988   6.511   4.538
   90SAPC  H17R 8596   2.975   6.416   4.593
   90SAPC  H17S 8597   3.017   6.478   4.436
   90SAPC  C218 8598   2.858   6.594   4.543
   90SAPC  H18R 8599   2.881   6.693   4.497
   90SAPC  H18S 8600   2.830   6.614   4.648
   90SAPC  C219 8601   2.742   6.541   4.465
   90SAPC  H19R 8602   2.713   6.439   4.496
   90SAPC  H19S 8603   2.751   6.532   4.354
   90SAPC  C220 8604   2.618   6.626   4.492
   90SAPC  H20R 8605   2.534   6.615   4.420
   90SAPC  H20S 8606   2.649   6.732   4.496
   90SAPC  H20T 8607   2.583   6.584   4.588
   90SAPC   C33 8608   3.303   5.760   6.039
   90SAPC   H3X 8609   3.240   5.833   6.093
   90SAPC   H3Y 8610   3.264   5.658   6.056
   90SAPC   C34 8611   3.270   5.790   5.890
   90SAPC   H4X 8612   3.324   5.717   5.827
   90SAPC   H4Y 8613   3.314   5.891   5.875
   90SAPC   C35 8614   3.121   5.794   5.867
   90SAPC   H5X 8615   3.083   5.870   5.938
   90SAPC   H5Y 8616   3.073   5.697   5.892
   90SAPC   C36 8617   3.067   5.844   5.727
   90SAPC   H6X 8618   3.118   5.940   5.702
   90SAPC   H6Y 8619   2.957   5.860   5.738
   90SAPC   C37 8620   3.077   5.731   5.623
   90SAPC   H7X 8621   2.982   5.674   5.628
   90SAPC   H7Y 8622   3.163   5.661   5.629
   90SAPC   C38 8623   3.098   5.784   5.481
   90SAPC   H8X 8624   3.111   5.689   5.426
   90SAPC   H8Y 8625   3.196   5.836   5.478
   90SAPC   C39 8626   2.986   5.855   5.413
   90SAPC   H9X 8627   2.971   5.935   5.489
   90SAPC   H9Y 8628   2.901   5.784   5.420
   90SAPC  C310 8629   3.006   5.894   5.271
   90SAPC  H10X 8630   3.102   5.951   5.273
   90SAPC  H10Y 8631   2.921   5.956   5.234
   90SAPC  C311 8632   3.015   5.764   5.173
   90SAPC  H11X 8633   2.923   5.703   5.185
   90SAPC  H11Y 8634   3.104   5.708   5.205
   90SAPC  C312 8635   3.048   5.791   5.024
   90SAPC  H12X 8636   3.061   5.699   4.963
   90SAPC  H12Y 8637   3.144   5.843   5.004
   90SAPC  C313 8638   2.936   5.862   4.956
   90SAPC  H13X 8639   2.904   5.960   4.997
   90SAPC  H13Y 8640   2.849   5.793   4.967
   90SAPC  C314 8641   2.953   5.882   4.804
   90SAPC  H14X 8642   2.963   5.783   4.756
   90SAPC  H14Y 8643   3.046   5.936   4.776
   90SAPC  C315 8644   2.836   5.960   4.742
   90SAPC  H15X 8645   2.841   6.059   4.792
   90SAPC  H15Y 8646   2.734   5.918   4.748
   90SAPC  C316 8647   2.854   5.995   4.592
   90SAPC  H16X 8648   2.872   5.911   4.522
   90SAPC  H16Y 8649   2.951   6.050   4.592
   90SAPC  C317 8650   2.746   6.089   4.547
   90SAPC  H17X 8651   2.720   6.163   4.626
   90SAPC  H17Y 8652   2.654   6.030   4.527
   90SAPC  C318 8653   2.777   6.166   4.427
   90SAPC  H18X 8654   2.700   6.239   4.392
   90SAPC  H18Y 8655   2.801   6.107   4.336
   90SAPC  H18Z 8656   2.863   6.229   4.458
   91SAPC     N 8657   0.856   5.614   6.839
   91SAPC   C12 8658   0.770   5.737   6.822
   91SAPC  H12A 8659   0.700   5.716   6.742
   91SAPC  H12B 8660   0.822   5.817   6.771
   91SAPC   C13 8661   0.771   5.491   6.866
   91SAPC  H13A 8662   0.700   5.459   6.792
   91SAPC  H13B 8663   0.832   5.406   6.891
   91SAPC  H13C 8664   0.707   5.511   6.951
   91SAPC   C14 8665   0.924   5.582   6.714
   91SAPC  H14A 8666   0.852   5.587   6.633
   91SAPC  H14B 8667   0.988   5.666   6.695
   91SAPC  H14C 8668   0.979   5.489   6.706
   91SAPC   C15 8669   0.947   5.629   6.956
   91SAPC  H15A 8670   1.018   5.547   6.949
   91SAPC  H15B 8671   0.998   5.723   6.946
   91SAPC  H15C 8672   0.889   5.633   7.047
   91SAPC   C11 8673   0.693   5.803   6.945
   91SAPC  H11A 8674   0.679   5.907   6.908
   91SAPC  H11B 8675   0.755   5.807   7.037
   91SAPC     P 8676   0.433   5.795   6.897
   91SAPC   O13 8677   0.323   5.729   6.974
   91SAPC   O14 8678   0.434   5.942   6.901
   91SAPC   O12 8679   0.564   5.739   6.959
   91SAPC   O11 8680   0.424   5.750   6.749
   91SAPC    C1 8681   0.429   5.615   6.712
   91SAPC    HA 8682   0.534   5.580   6.718
   91SAPC    HB 8683   0.377   5.551   6.786
   91SAPC    C2 8684   0.380   5.593   6.564
   91SAPC    HS 8685   0.440   5.506   6.530
   91SAPC   O21 8686   0.393   5.713   6.484
   91SAPC   C21 8687   0.490   5.710   6.391
   91SAPC   O22 8688   0.545   5.613   6.347
   91SAPC   C22 8689   0.488   5.852   6.331
   91SAPC   H2R 8690   0.381   5.867   6.308
   91SAPC   H2S 8691   0.533   5.914   6.412
   91SAPC    C3 8692   0.229   5.540   6.556
   91SAPC    HX 8693   0.169   5.609   6.619
   91SAPC    HY 8694   0.221   5.443   6.611
   91SAPC   O31 8695   0.183   5.519   6.424
   91SAPC   C31 8696   0.094   5.611   6.378
   91SAPC   O32 8697   0.036   5.691   6.449
   91SAPC   C32 8698   0.085   5.598   6.221
   91SAPC   H2X 8699   0.034   5.503   6.194
   91SAPC   H2Y 8700   0.190   5.608   6.187
   91SAPC   C23 8701   0.561   5.862   6.202
   91SAPC   H3R 8702   0.504   5.798   6.131
   91SAPC   H3S 8703   0.661   5.814   6.217
   91SAPC   C24 8704   0.568   6.001   6.143
   91SAPC   H4R 8705   0.470   6.044   6.174
   91SAPC   H4S 8706   0.571   6.005   6.032
   91SAPC   C25 8707   0.682   6.087   6.193
   91SAPC   H5R 8708   0.713   6.056   6.294
   91SAPC   C26 8709   0.728   6.198   6.131
   91SAPC   H6R 8710   0.799   6.261   6.187
   91SAPC   C27 8711   0.690   6.255   5.994
   91SAPC   H7R 8712   0.740   6.355   5.993
   91SAPC   H7S 8713   0.582   6.266   5.971
   91SAPC   C28 8714   0.764   6.172   5.888
   91SAPC   H8R 8715   0.868   6.140   5.898
   91SAPC   C29 8716   0.709   6.109   5.786
   91SAPC   H9R 8717   0.779   6.058   5.718
   91SAPC  C210 8718   0.569   6.121   5.743
   91SAPC  H10R 8719   0.566   6.202   5.668
   91SAPC  H10S 8720   0.502   6.143   5.829
   91SAPC  C211 8721   0.504   6.004   5.667
   91SAPC  H11R 8722   0.442   5.949   5.740
   91SAPC  C212 8723   0.525   5.952   5.541
   91SAPC  H12R 8724   0.457   5.875   5.501
   91SAPC  C213 8725   0.620   5.995   5.421
   91SAPC  H13R 8726   0.584   5.934   5.335
   91SAPC  H13S 8727   0.721   5.958   5.447
   91SAPC  C214 8728   0.617   6.141   5.390
   91SAPC  H14R 8729   0.581   6.213   5.466
   91SAPC  C215 8730   0.652   6.202   5.272
   91SAPC  H15R 8731   0.653   6.312   5.259
   91SAPC  C216 8732   0.699   6.129   5.148
   91SAPC  H16R 8733   0.721   6.022   5.169
   91SAPC  H16S 8734   0.796   6.179   5.127
   91SAPC  C217 8735   0.597   6.129   5.036
   91SAPC  H17R 8736   0.565   6.235   5.024
   91SAPC  H17S 8737   0.513   6.068   5.075
   91SAPC  C218 8738   0.663   6.082   4.907
   91SAPC  H18R 8739   0.684   5.973   4.909
   91SAPC  H18S 8740   0.764   6.128   4.902
   91SAPC  C219 8741   0.593   6.132   4.776
   91SAPC  H19R 8742   0.597   6.243   4.778
   91SAPC  H19S 8743   0.491   6.090   4.789
   91SAPC  C220 8744   0.651   6.080   4.647
   91SAPC  H20R 8745   0.760   6.101   4.650
   91SAPC  H20S 8746   0.611   6.129   4.556
   91SAPC  H20T 8747   0.643   5.969   4.648
   91SAPC   C33 8748   6.813   5.711   6.174
   91SAPC   H3X 8749   0.045   5.807   6.191
   91SAPC   H3Y 8750   6.721   5.708   6.236
   91SAPC   C34 8751   6.783   5.712   6.026
   91SAPC   H4X 8752   6.743   5.612   6.001
   91SAPC   H4Y 8753   0.058   5.724   5.968
   91SAPC   C35 8754   6.698   5.830   5.990
   91SAPC   H5X 8755   6.725   5.920   6.049
   91SAPC   H5Y 8756   6.597   5.812   6.033
   91SAPC   C36 8757   6.705   5.863   5.848
   91SAPC   H6X 8758   6.806   5.897   5.818
   91SAPC   H6Y 8759   6.626   5.936   5.822
   91SAPC   C37 8760   6.672   5.741   5.759
   91SAPC   H7X 8761   6.573   5.704   5.793
   91SAPC   H7Y 8762   6.744   5.657   5.767
   91SAPC   C38 8763   6.671   5.767   5.610
   91SAPC   H8X 8764   6.609   5.859   5.601
   91SAPC   H8Y 8765   6.630   5.678   5.558
   91SAPC   C39 8766   6.812   5.772   5.556
   91SAPC   H9X 8767   0.053   5.687   5.593
   91SAPC   H9Y 8768   0.046   5.867   5.575
   91SAPC  C310 8769   6.811   5.759   5.401
   91SAPC  H10X 8770   6.752   5.841   5.355
   91SAPC  H10Y 8771   6.752   5.667   5.380
   91SAPC  C311 8772   0.128   5.749   5.346
   91SAPC  H11X 8773   0.171   5.652   5.381
   91SAPC  H11Y 8774   0.194   5.823   5.395
   91SAPC  C312 8775   0.137   5.774   5.196
   91SAPC  H12X 8776   0.055   5.713   5.154
   91SAPC  H12Y 8777   0.231   5.744   5.145
   91SAPC  C313 8778   0.111   5.918   5.157
   91SAPC  H13X 8779   0.207   5.969   5.177
   91SAPC  H13Y 8780   0.021   5.954   5.211
   91SAPC  C314 8781   0.078   5.917   5.010
   91SAPC  H14X 8782   6.801   5.868   4.985
   91SAPC  H14Y 8783   0.165   5.880   4.953
   91SAPC  C315 8784   0.064   6.068   4.965
   91SAPC  H15X 8785   0.163   6.118   4.974
   91SAPC  H15Y 8786   6.808   6.116   5.029
   91SAPC  C316 8787   0.037   6.088   4.818
   91SAPC  H16X 8788   6.818   6.191   4.806
   91SAPC  H16Y 8789   6.772   6.022   4.789
   91SAPC  C317 8790   0.150   6.069   4.717
   91SAPC  H17X 8791   0.243   6.099   4.769
   91SAPC  H17Y 8792   0.117   6.134   4.633
   91SAPC  C318 8793   0.178   5.923   4.661
   91SAPC  H18X 8794   0.213   5.849   4.736
   91SAPC  H18Y 8795   0.251   5.920   4.577
   91SAPC  H18Z 8796   0.087   5.882   4.614
   92SAPC     N 8797   5.970   5.468   6.718
   92SAPC   C12 8798   6.038   5.396   6.841
   92SAPC  H12A 8799   5.965   5.334   6.890
   92SAPC  H12B 8800   6.051   5.472   6.918
   92SAPC   C13 8801   5.912   5.351   6.641
   92SAPC  H13A 8802   5.875   5.390   6.547
   92SAPC  H13B 8803   5.989   5.287   6.600
   92SAPC  H13C 8804   5.838   5.300   6.701
   92SAPC   C14 8805   5.867   5.562   6.763
   92SAPC  H14A 8806   5.795   5.507   6.821
   92SAPC  H14B 8807   5.910   5.638   6.826
   92SAPC  H14C 8808   5.808   5.605   6.684
   92SAPC   C15 8809   6.065   5.541   6.628
   92SAPC  H15A 8810   6.006   5.588   6.550
   92SAPC  H15B 8811   6.114   5.623   6.679
   92SAPC  H15C 8812   6.142   5.475   6.590
   92SAPC   C11 8813   6.158   5.318   6.810
   92SAPC  H11A 8814   6.133   5.229   6.748
   92SAPC  H11B 8815   6.191   5.279   6.909
   92SAPC     P 8816   6.409   5.352   6.728
   92SAPC   O13 8817   6.492   5.445   6.648
   92SAPC   O14 8818   6.475   5.311   6.858
   92SAPC   O12 8819   6.259   5.399   6.750
   92SAPC   O11 8820   6.402   5.219   6.647
   92SAPC    C1 8821   6.326   5.228   6.521
   92SAPC    HA 8822   6.276   5.128   6.523
   92SAPC    HB 8823   6.248   5.307   6.515
   92SAPC    C2 8824   6.413   5.222   6.386
   92SAPC    HS 8825   6.404   5.318   6.331
   92SAPC   O21 8826   6.357   5.116   6.305
   92SAPC   C21 8827   6.236   5.130   6.257
   92SAPC   O22 8828   6.163   5.225   6.252
   92SAPC   C22 8829   6.191   4.996   6.201
   92SAPC   H2R 8830   6.081   4.997   6.183
   92SAPC   H2S 8831   6.240   4.985   6.102
   92SAPC    C3 8832   6.563   5.203   6.403
   92SAPC    HX 8833   6.576   5.106   6.457
   92SAPC    HY 8834   6.607   5.285   6.464
   92SAPC   O31 8835   6.636   5.185   6.281
   92SAPC   C31 8836   6.655   5.287   6.197
   92SAPC   O32 8837   6.638   5.404   6.226
   92SAPC   C32 8838   6.705   5.242   6.062
   92SAPC   H2X 8839   6.677   5.330   6.000
   92SAPC   H2Y 8840   6.651   5.151   6.026
   92SAPC   C23 8841   6.229   4.871   6.286
   92SAPC   H3R 8842   6.188   4.877   6.389
   92SAPC   H3S 8843   6.340   4.868   6.276
   92SAPC   C24 8844   6.178   4.741   6.229
   92SAPC   H4R 8845   6.227   4.659   6.286
   92SAPC   H4S 8846   6.226   4.738   6.128
   92SAPC   C25 8847   6.022   4.735   6.220
   92SAPC   H5R 8848   5.965   4.738   6.314
   92SAPC   C26 8849   5.951   4.714   6.106
   92SAPC   H6R 8850   5.843   4.694   6.112
   92SAPC   C27 8851   6.012   4.694   5.970
   92SAPC   H7R 8852   5.941   4.631   5.912
   92SAPC   H7S 8853   6.106   4.635   5.967
   92SAPC   C28 8854   6.030   4.835   5.906
   92SAPC   H8R 8855   5.977   4.920   5.951
   92SAPC   C29 8856   6.099   4.854   5.798
   92SAPC   H9R 8857   6.112   4.953   5.753
   92SAPC  C210 8858   6.155   4.738   5.719
   92SAPC  H10R 8859   6.071   4.675   5.683
   92SAPC  H10S 8860   6.215   4.670   5.783
   92SAPC  C211 8861   6.238   4.791   5.602
   92SAPC  H11R 8862   6.334   4.836   5.631
   92SAPC  C212 8863   6.193   4.793   5.472
   92SAPC  H12R 8864   6.253   4.828   5.387
   92SAPC  C213 8865   6.064   4.742   5.427
   92SAPC  H13R 8866   5.983   4.812   5.458
   92SAPC  H13S 8867   6.037   4.647   5.478
   92SAPC  C214 8868   6.063   4.710   5.283
   92SAPC  H14R 8869   6.135   4.631   5.255
   92SAPC  C215 8870   5.988   4.772   5.188
   92SAPC  H15R 8871   5.998   4.733   5.086
   92SAPC  C216 8872   5.879   4.869   5.216
   92SAPC  H16R 8873   5.905   4.935   5.302
   92SAPC  H16S 8874   5.796   4.807   5.255
   92SAPC  C217 8875   5.832   4.942   5.086
   92SAPC  H17R 8876   5.916   4.977   5.022
   92SAPC  H17S 8877   5.790   5.035   5.130
   92SAPC  C218 8878   5.721   4.870   5.011
   92SAPC  H18R 8879   5.641   4.837   5.081
   92SAPC  H18S 8880   5.785   4.784   4.979
   92SAPC  C219 8881   5.659   4.948   4.891
   92SAPC  H19R 8882   5.640   5.048   4.937
   92SAPC  H19S 8883   5.564   4.899   4.860
   92SAPC  C220 8884   5.758   4.968   4.772
   92SAPC  H20R 8885   5.856   5.015   4.795
   92SAPC  H20S 8886   5.714   5.041   4.701
   92SAPC  H20T 8887   5.773   4.869   4.724
   92SAPC   C33 8888   0.038   5.223   6.069
   92SAPC   H3X 8889   0.073   5.164   6.156
   92SAPC   H3Y 8890   0.088   5.321   6.081
   92SAPC   C34 8891   0.085   5.159   5.938
   92SAPC   H4X 8892   0.037   5.061   5.921
   92SAPC   H4Y 8893   0.196   5.154   5.948
   92SAPC   C35 8894   0.047   5.249   5.821
   92SAPC   H5X 8895   0.061   5.356   5.848
   92SAPC   H5Y 8896   6.759   5.242   5.797
   92SAPC   C36 8897   0.122   5.226   5.687
   92SAPC   H6X 8898   0.138   5.120   5.659
   92SAPC   H6Y 8899   0.227   5.258   5.705
   92SAPC   C37 8900   0.055   5.299   5.559
   92SAPC   H7X 8901   0.046   5.406   5.586
   92SAPC   H7Y 8902   6.772   5.263   5.537
   92SAPC   C38 8903   0.147   5.279   5.441
   92SAPC   H8X 8904   0.167   5.170   5.428
   92SAPC   H8Y 8905   0.245   5.320   5.472
   92SAPC   C39 8906   0.125   5.345   5.306
   92SAPC   H9X 8907   0.215   5.368   5.244
   92SAPC   H9Y 8908   0.072   5.443   5.306
   92SAPC  C310 8909   0.037   5.254   5.219
   92SAPC  H10X 8910   6.761   5.241   5.275
   92SAPC  H10Y 8911   0.076   5.151   5.222
   92SAPC  C311 8912   0.008   5.315   5.080
   92SAPC  H11X 8913   6.784   5.417   5.086
   92SAPC  H11Y 8914   6.754   5.247   5.033
   92SAPC  C312 8915   0.141   5.347   4.999
   92SAPC  H12X 8916   0.210   5.260   5.001
   92SAPC  H12Y 8917   0.200   5.428   5.049
   92SAPC  C313 8918   0.128   5.383   4.853
   92SAPC  H13X 8919   0.072   5.296   4.814
   92SAPC  H13Y 8920   0.230   5.392   4.810
   92SAPC  C314 8921   0.049   5.505   4.832
   92SAPC  H14X 8922   0.076   5.579   4.911
   92SAPC  H14Y 8923   6.763   5.477   4.850
   92SAPC  C315 8924   0.066   5.562   4.691
   92SAPC  H15X 8925   0.167   5.608   4.694
   92SAPC  H15Y 8926   6.818   5.648   4.670
   92SAPC  C316 8927   0.047   5.464   4.577
   92SAPC  H16X 8928   0.135   5.397   4.577
   92SAPC  H16Y 8929   0.052   5.517   4.480
   92SAPC  C317 8930   6.737   5.391   4.591
   92SAPC  H17X 8931   6.655   5.461   4.618
   92SAPC  H17Y 8932   6.741   5.323   4.679
   92SAPC  C318 8933   6.676   5.328   4.471
   92SAPC  H18X 8934   6.577   5.281   4.490
   92SAPC  H18Y 8935   6.749   5.255   4.428
   92SAPC  H18Z 8936   6.665   5.398   4.386
   93SAPC     N 8937   1.376   6.200   6.708
   93SAPC   C12 8938   1.499   6.282   6.675
   93SAPC  H12A 8939   1.501   6.331   6.579
   93SAPC  H12B 8940   1.577   6.207   6.665
   93SAPC   C13 8941   1.254   6.289   6.704
   93SAPC  H13A 8942   1.257   6.360   6.623
   93SAPC  H13B 8943   1.159   6.238   6.706
   93SAPC  H13C 8944   1.255   6.341   6.799
   93SAPC   C14 8945   1.362   6.110   6.595
   93SAPC  H14A 8946   1.371   6.152   6.496
   93SAPC  H14B 8947   1.448   6.044   6.590
   93SAPC  H14C 8948   1.267   6.059   6.603
   93SAPC   C15 8949   1.377   6.128   6.836
   93SAPC  H15A 8950   1.302   6.050   6.835
   93SAPC  H15B 8951   1.476   6.085   6.841
   93SAPC  H15C 8952   1.352   6.201   6.912
   93SAPC   C11 8953   1.523   6.400   6.780
   93SAPC  H11A 8954   1.622   6.446   6.760
   93SAPC  H11B 8955   1.549   6.360   6.881
   93SAPC     P 8956   1.459   6.642   6.810
   93SAPC   O13 8957   1.504   6.659   6.953
   93SAPC   O14 8958   1.558   6.681   6.711
   93SAPC   O12 8959   1.415   6.498   6.785
   93SAPC   O11 8960   1.330   6.730   6.791
   93SAPC    C1 8961   1.215   6.674   6.739
   93SAPC    HA 8962   1.188   6.580   6.792
   93SAPC    HB 8963   1.138   6.754   6.749
   93SAPC    C2 8964   1.225   6.646   6.582
   93SAPC    HS 8965   1.292   6.558   6.576
   93SAPC   O21 8966   1.296   6.758   6.531
   93SAPC   C21 8967   1.376   6.731   6.432
   93SAPC   O22 8968   1.386   6.622   6.374
   93SAPC   C22 8969   1.449   0.042   6.395
   93SAPC   H2R 8970   1.420   0.125   6.463
   93SAPC   H2S 8971   1.558   0.029   6.412
   93SAPC    C3 8972   1.089   6.615   6.512
   93SAPC    HX 8973   1.025   6.706   6.514
   93SAPC    HY 8974   1.018   6.548   6.566
   93SAPC   O31 8975   1.109   6.578   6.376
   93SAPC   C31 8976   1.109   6.455   6.339
   93SAPC   O32 8977   1.102   6.357   6.411
   93SAPC   C32 8978   1.135   6.447   6.191
   93SAPC   H2X 8979   1.229   6.500   6.166
   93SAPC   H2Y 8980   1.047   6.501   6.150
   93SAPC   C23 8981   1.422   0.099   6.252
   93SAPC   H3R 8982   1.458   0.203   6.265
   93SAPC   H3S 8983   1.312   0.094   6.246
   93SAPC   C24 8984   1.488   0.027   6.137
   93SAPC   H4R 8985   1.429   6.753   6.131
   93SAPC   H4S 8986   1.589   6.811   6.164
   93SAPC   C25 8987   1.487   0.101   6.006
   93SAPC   H5R 8988   1.494   0.210   6.020
   93SAPC   C26 8989   1.496   0.041   5.889
   93SAPC   H6R 8990   1.498   0.116   5.809
   93SAPC   C27 8991   1.494   6.718   5.848
   93SAPC   H7R 8992   1.421   6.712   5.765
   93SAPC   H7S 8993   1.451   6.662   5.934
   93SAPC   C28 8994   1.641   6.678   5.823
   93SAPC   H8R 8995   1.699   6.630   5.903
   93SAPC   C29 8996   1.699   6.674   5.704
   93SAPC   H9R 8997   1.803   6.639   5.707
   93SAPC  C210 8998   1.647   6.719   5.571
   93SAPC  H10R 8999   1.667   0.008   5.566
   93SAPC  H10S 9000   1.537   6.712   5.555
   93SAPC  C211 9001   1.716   6.646   5.453
   93SAPC  H11R 9002   1.780   6.559   5.479
   93SAPC  C212 9003   1.694   6.655   5.320
   93SAPC  H12R 9004   1.766   6.605   5.255
   93SAPC  C213 9005   1.603   6.748   5.251
   93SAPC  H13R 9006   1.658   6.780   5.160
   93SAPC  H13S 9007   1.609   0.023   5.310
   93SAPC  C214 9008   1.458   6.709   5.236
   93SAPC  H14R 9009   1.413   6.672   5.329
   93SAPC  C215 9010   1.386   6.708   5.124
   93SAPC  H15R 9011   1.281   6.678   5.137
   93SAPC  C216 9012   1.422   6.747   4.986
   93SAPC  H16R 9013   1.532   6.761   4.977
   93SAPC  H16S 9014   1.383   0.028   4.961
   93SAPC  C217 9015   1.400   6.648   4.873
   93SAPC  H17R 9016   1.290   6.630   4.875
   93SAPC  H17S 9017   1.452   6.553   4.897
   93SAPC  C218 9018   1.432   6.698   4.735
   93SAPC  H18R 9019   1.542   6.686   4.719
   93SAPC  H18S 9020   1.407   6.806   4.730
   93SAPC  C219 9021   1.357   6.616   4.620
   93SAPC  H19R 9022   1.252   6.652   4.615
   93SAPC  H19S 9023   1.360   6.517   4.670
   93SAPC  C220 9024   1.437   6.604   4.491
   93SAPC  H20R 9025   1.545   6.578   4.504
   93SAPC  H20S 9026   1.439   6.709   4.455
   93SAPC  H20T 9027   1.405   6.533   4.412
   93SAPC   C33 9028   1.140   6.300   6.128
   93SAPC   H3X 9029   1.077   6.228   6.183
   93SAPC   H3Y 9030   1.244   6.259   6.135
   93SAPC   C34 9031   1.105   6.305   5.977
   93SAPC   H4X 9032   1.000   6.341   5.970
   93SAPC   H4Y 9033   1.098   6.201   5.938
   93SAPC   C35 9034   1.209   6.391   5.902
   93SAPC   H5X 9035   1.296   6.322   5.896
   93SAPC   H5Y 9036   1.234   6.476   5.969
   93SAPC   C36 9037   1.168   6.436   5.763
   93SAPC   H6X 9038   1.254   6.489   5.716
   93SAPC   H6Y 9039   1.104   6.524   5.785
   93SAPC   C37 9040   1.099   6.329   5.680
   93SAPC   H7X 9041   1.006   6.306   5.737
   93SAPC   H7Y 9042   1.145   6.228   5.674
   93SAPC   C38 9043   1.040   6.370   5.539
   93SAPC   H8X 9044   0.994   6.471   5.535
   93SAPC   H8Y 9045   0.971   6.288   5.509
   93SAPC   C39 9046   1.146   6.356   5.427
   93SAPC   H9X 9047   1.152   6.250   5.396
   93SAPC   H9Y 9048   1.240   6.390   5.476
   93SAPC  C310 9049   1.122   6.443   5.303
   93SAPC  H10X 9050   1.213   6.436   5.240
   93SAPC  H10Y 9051   1.127   6.546   5.345
   93SAPC  C311 9052   1.006   6.415   5.205
   93SAPC  H11X 9053   0.906   6.421   5.252
   93SAPC  H11Y 9054   1.009   6.313   5.163
   93SAPC  C312 9055   1.022   6.515   5.085
   93SAPC  H12X 9056   1.130   6.511   5.058
   93SAPC  H12Y 9057   1.007   6.618   5.121
   93SAPC  C313 9058   0.937   6.481   4.963
   93SAPC  H13X 9059   0.927   6.570   4.897
   93SAPC  H13Y 9060   0.835   6.472   5.005
   93SAPC  C314 9061   0.989   6.369   4.879
   93SAPC  H14X 9062   0.985   6.279   4.944
   93SAPC  H14Y 9063   1.096   6.393   4.858
   93SAPC  C315 9064   0.915   6.333   4.744
   93SAPC  H15X 9065   0.813   6.304   4.778
   93SAPC  H15Y 9066   0.982   6.258   4.695
   93SAPC  C316 9067   0.887   6.441   4.643
   93SAPC  H16X 9068   0.974   6.510   4.645
   93SAPC  H16Y 9069   0.798   6.503   4.669
   93SAPC  C317 9070   0.860   6.383   4.506
   93SAPC  H17X 9071   0.824   6.465   4.440
   93SAPC  H17Y 9072   0.782   6.305   4.515
   93SAPC  C318 9073   0.987   6.336   4.434
   93SAPC  H18X 9074   0.959   6.304   4.332
   93SAPC  H18Y 9075   1.029   6.254   4.496
   93SAPC  H18Z 9076   1.064   6.416   4.429
   94SAPC     N 9077   0.164   5.198   7.146
   94SAPC   C12 9078   0.305   5.159   7.113
   94SAPC  H12A 9079   0.347   5.119   7.204
   94SAPC  H12B 9080   0.366   5.247   7.099
   94SAPC   C13 9081   0.161   5.300   7.246
   94SAPC  H13A 9082   0.062   5.335   7.273
   94SAPC  H13B 9083   0.216   5.278   7.336
   94SAPC  H13C 9084   0.213   5.389   7.213
   94SAPC   C14 9085   0.085   5.236   7.020
   94SAPC  H14A 9086   0.112   5.324   6.963
   94SAPC  H14B 9087   0.081   5.155   6.949
   94SAPC  H14C 9088   6.800   5.247   7.045
   94SAPC   C15 9089   0.088   5.080   7.200
   94SAPC  H15A 9090   0.083   5.015   7.114
   94SAPC  H15B 9091   0.123   5.030   7.289
   94SAPC  H15C 9092   6.807   5.118   7.209
   94SAPC   C11 9093   0.329   5.068   6.996
   94SAPC  H11A 9094   0.440   5.064   6.990
   94SAPC  H11B 9095   0.301   5.108   6.897
   94SAPC     P 9096   0.343   4.818   6.950
   94SAPC   O13 9097   0.489   4.816   6.961
   94SAPC   O14 9098   0.277   4.690   6.984
   94SAPC   O12 9099   0.282   4.940   7.027
   94SAPC   O11 9100   0.314   4.855   6.804
   94SAPC    C1 9101   0.188   4.896   6.754
   94SAPC    HA 9102   0.114   4.821   6.789
   94SAPC    HB 9103   0.150   4.994   6.790
   94SAPC    C2 9104   0.188   4.898   6.600
   94SAPC    HS 9105   0.219   4.798   6.563
   94SAPC   O21 9106   0.277   5.003   6.553
   94SAPC   C21 9107   0.305   5.003   6.431
   94SAPC   O22 9108   0.298   4.906   6.353
   94SAPC   C22 9109   0.338   5.145   6.399
   94SAPC   H2R 9110   0.246   5.207   6.411
   94SAPC   H2S 9111   0.405   5.186   6.477
   94SAPC    C3 9112   0.039   4.933   6.552
   94SAPC    HX 9113   0.005   5.026   6.602
   94SAPC    HY 9114   6.791   4.857   6.598
   94SAPC   O31 9115   0.017   4.945   6.409
   94SAPC   C31 9116   6.810   4.825   6.347
   94SAPC   O32 9117   0.007   4.715   6.403
   94SAPC   C32 9118   6.767   4.854   6.206
   94SAPC   H2X 9119   0.025   4.913   6.152
   94SAPC   H2Y 9120   6.677   4.920   6.208
   94SAPC   C23 9121   0.395   5.174   6.256
   94SAPC   H3R 9122   0.318   5.141   6.183
   94SAPC   H3S 9123   0.480   5.103   6.243
   94SAPC   C24 9124   0.442   5.312   6.238
   94SAPC   H4R 9125   0.501   5.361   6.318
   94SAPC   H4S 9126   0.353   5.379   6.234
   94SAPC   C25 9127   0.514   5.302   6.109
   94SAPC   H5R 9128   0.594   5.227   6.121
   94SAPC   C26 9129   0.478   5.360   5.990
   94SAPC   H6R 9130   0.540   5.349   5.899
   94SAPC   C27 9131   0.367   5.462   5.962
   94SAPC   H7R 9132   0.321   5.484   6.061
   94SAPC   H7S 9133   0.293   5.401   5.905
   94SAPC   C28 9134   0.418   5.584   5.889
   94SAPC   H8R 9135   0.457   5.664   5.954
   94SAPC   C29 9136   0.433   5.601   5.752
   94SAPC   H9R 9137   0.489   5.689   5.718
   94SAPC  C210 9138   0.390   5.502   5.648
   94SAPC  H10R 9139   0.327   5.553   5.572
   94SAPC  H10S 9140   0.325   5.422   5.691
   94SAPC  C211 9141   0.511   5.445   5.586
   94SAPC  H11R 9142   0.568   5.383   5.656
   94SAPC  C212 9143   0.543   5.435   5.458
   94SAPC  H12R 9144   0.635   5.377   5.441
   94SAPC  C213 9145   0.478   5.505   5.341
   94SAPC  H13R 9146   0.515   5.608   5.320
   94SAPC  H13S 9147   0.370   5.524   5.354
   94SAPC  C214 9148   0.493   5.429   5.213
   94SAPC  H14R 9149   0.512   5.322   5.229
   94SAPC  C215 9150   0.484   5.467   5.085
   94SAPC  H15R 9151   0.504   5.391   5.008
   94SAPC  C216 9152   0.473   5.614   5.047
   94SAPC  H16R 9153   0.472   5.686   5.132
   94SAPC  H16S 9154   0.377   5.637   4.997
   94SAPC  C217 9155   0.595   5.671   4.961
   94SAPC  H17R 9156   0.691   5.658   5.015
   94SAPC  H17S 9157   0.584   5.781   4.948
   94SAPC  C218 9158   0.610   5.613   4.809
   94SAPC  H18R 9159   0.685   5.533   4.826
   94SAPC  H18S 9160   0.655   5.693   4.747
   94SAPC  C219 9161   0.481   5.580   4.734
   94SAPC  H19R 9162   0.407   5.660   4.753
   94SAPC  H19S 9163   0.429   5.487   4.763
   94SAPC  C220 9164   0.504   5.584   4.584
   94SAPC  H20R 9165   0.526   5.682   4.536
   94SAPC  H20S 9166   0.412   5.557   4.527
   94SAPC  H20T 9167   0.589   5.516   4.562
   94SAPC   C33 9168   6.746   4.726   6.126
   94SAPC   H3X 9169   6.663   4.659   6.159
   94SAPC   H3Y 9170   0.023   4.672   6.125
   94SAPC   C34 9171   6.720   4.743   5.977
   94SAPC   H4X 9172   6.714   4.643   5.929
   94SAPC   H4Y 9173   6.808   4.796   5.934
   94SAPC   C35 9174   6.588   4.814   5.951
   94SAPC   H5X 9175   6.578   4.894   6.028
   94SAPC   H5Y 9176   6.514   4.736   5.978
   94SAPC   C36 9177   6.568   4.842   5.800
   94SAPC   H6X 9178   6.469   4.891   5.800
   94SAPC   H6Y 9179   6.544   4.750   5.742
   94SAPC   C37 9180   6.672   4.932   5.725
   94SAPC   H7X 9181   6.771   4.882   5.713
   94SAPC   H7Y 9182   6.676   5.022   5.791
   94SAPC   C38 9183   6.642   4.957   5.582
   94SAPC   H8X 9184   6.723   5.021   5.540
   94SAPC   H8Y 9185   6.548   5.017   5.579
   94SAPC   C39 9186   6.643   4.836   5.484
   94SAPC   H9X 9187   6.558   4.767   5.502
   94SAPC   H9Y 9188   6.737   4.777   5.497
   94SAPC  C310 9189   6.633   4.879   5.336
   94SAPC  H10X 9190   6.700   4.810   5.280
   94SAPC  H10Y 9191   6.665   4.983   5.313
   94SAPC  C311 9192   6.494   4.871   5.283
   94SAPC  H11X 9193   6.428   4.949   5.327
   94SAPC  H11Y 9194   6.450   4.770   5.302
   94SAPC  C312 9195   6.486   4.887   5.129
   94SAPC  H12X 9196   6.553   4.814   5.079
   94SAPC  H12Y 9197   6.511   4.991   5.101
   94SAPC  C313 9198   6.348   4.857   5.071
   94SAPC  H13X 9199   6.278   4.937   5.103
   94SAPC  H13Y 9200   6.311   4.757   5.103
   94SAPC  C314 9201   6.345   4.851   4.920
   94SAPC  H14X 9202   6.430   4.789   4.885
   94SAPC  H14Y 9203   6.365   4.950   4.873
   94SAPC  C315 9204   6.215   4.806   4.857
   94SAPC  H15X 9205   6.130   4.841   4.920
   94SAPC  H15Y 9206   6.208   4.695   4.848
   94SAPC  C316 9207   6.190   4.853   4.715
   94SAPC  H16X 9208   6.277   4.830   4.649
   94SAPC  H16Y 9209   6.186   4.964   4.721
   94SAPC  C317 9210   6.060   4.795   4.668
   94SAPC  H17X 9211   5.981   4.825   4.740
   94SAPC  H17Y 9212   6.061   4.685   4.654
   94SAPC  C318 9213   6.023   4.855   4.532
   94SAPC  H18X 9214   5.937   4.808   4.480
   94SAPC  H18Y 9215   6.107   4.835   4.461
   94SAPC  H18Z 9216   5.997   4.962   4.530
   95SAPC     N 9217   4.467   6.158   2.023
   95SAPC   C12 9218   4.416   6.025   2.060
   95SAPC  H12A 9219   4.486   5.949   2.029
   95SAPC  H12B 9220   4.334   5.997   1.996
   95SAPC   C13 9221   4.574   6.207   2.116
   95SAPC  H13A 9222   4.660   6.142   2.128
   95SAPC  H13B 9223   4.618   6.303   2.094
   95SAPC  H13C 9224   4.533   6.230   2.213
   95SAPC   C14 9225   4.525   6.151   1.891
   95SAPC  H14A 9226   4.565   6.053   1.868
   95SAPC  H14B 9227   4.452   6.166   1.813
   95SAPC  H14C 9228   4.600   6.227   1.874
   95SAPC   C15 9229   4.358   6.262   2.022
   95SAPC  H15A 9230   4.389   6.358   1.983
   95SAPC  H15B 9231   4.274   6.234   1.961
   95SAPC  H15C 9232   4.318   6.270   2.122
   95SAPC   C11 9233   4.355   5.995   2.195
   95SAPC  H11A 9234   4.410   6.046   2.277
   95SAPC  H11B 9235   4.350   5.886   2.215
   95SAPC     P 9236   4.107   5.981   2.129
   95SAPC   O13 9237   3.979   6.041   2.173
   95SAPC   O14 9238   4.137   5.970   1.986
   95SAPC   O12 9239   4.224   6.058   2.197
   95SAPC   O11 9240   4.116   5.842   2.203
   95SAPC    C1 9241   4.063   5.823   2.333
   95SAPC    HA 9242   4.137   5.767   2.393
   95SAPC    HB 9243   4.060   5.919   2.388
   95SAPC    C2 9244   3.917   5.759   2.323
   95SAPC    HS 9245   3.855   5.840   2.279
   95SAPC   O21 9246   3.869   5.732   2.455
   95SAPC   C21 9247   3.744   5.721   2.478
   95SAPC   O22 9248   3.658   5.750   2.399
   95SAPC   C22 9249   3.731   5.665   2.619
   95SAPC   H2R 9250   3.786   5.570   2.631
   95SAPC   H2S 9251   3.754   5.747   2.691
   95SAPC    C3 9252   3.899   5.633   2.231
   95SAPC    HX 9253   3.923   5.662   2.127
   95SAPC    HY 9254   3.789   5.617   2.233
   95SAPC   O31 9255   3.972   5.513   2.271
   95SAPC   C31 9256   3.906   5.411   2.325
   95SAPC   O32 9257   3.783   5.416   2.338
   95SAPC   C32 9258   3.994   5.295   2.363
   95SAPC   H2X 9259   4.101   5.324   2.356
   95SAPC   H2Y 9260   3.977   5.215   2.289
   95SAPC   C23 9261   3.586   5.625   2.653
   95SAPC   H3R 9262   3.597   5.562   2.744
   95SAPC   H3S 9263   3.548   5.543   2.588
   95SAPC   C24 9264   3.481   5.740   2.683
   95SAPC   H4R 9265   3.382   5.690   2.694
   95SAPC   H4S 9266   3.467   5.804   2.593
   95SAPC   C25 9267   3.513   5.820   2.806
   95SAPC   H5R 9268   3.596   5.782   2.866
   95SAPC   C26 9269   3.443   5.930   2.851
   95SAPC   H6R 9270   3.477   5.989   2.938
   95SAPC   C27 9271   3.316   5.994   2.794
   95SAPC   H7R 9272   3.247   6.041   2.869
   95SAPC   H7S 9273   3.248   5.921   2.747
   95SAPC   C28 9274   3.350   6.087   2.681
   95SAPC   H8R 9275   3.451   6.073   2.640
   95SAPC   C29 9276   3.283   6.199   2.651
   95SAPC   H9R 9277   3.314   6.264   2.568
   95SAPC  C210 9278   3.153   6.244   2.707
   95SAPC  H10R 9279   3.138   6.352   2.687
   95SAPC  H10S 9280   3.161   6.224   2.816
   95SAPC  C211 9281   3.038   6.174   2.641
   95SAPC  H11R 9282   3.052   6.147   2.535
   95SAPC  C212 9283   2.918   6.147   2.703
   95SAPC  H12R 9284   2.833   6.116   2.640
   95SAPC  C213 9285   2.902   6.175   2.852
   95SAPC  H13R 9286   2.794   6.163   2.872
   95SAPC  H13S 9287   2.926   6.279   2.881
   95SAPC  C214 9288   2.978   6.083   2.943
   95SAPC  H14R 9289   3.009   5.992   2.889
   95SAPC  C215 9290   2.997   6.099   3.073
   95SAPC  H15R 9291   3.034   6.015   3.134
   95SAPC  C216 9292   2.967   6.226   3.154
   95SAPC  H16R 9293   2.920   6.309   3.098
   95SAPC  H16S 9294   3.065   6.259   3.197
   95SAPC  C217 9295   2.869   6.201   3.280
   95SAPC  H17R 9296   2.776   6.146   3.253
   95SAPC  H17S 9297   2.842   6.305   3.309
   95SAPC  C218 9298   2.935   6.122   3.387
   95SAPC  H18R 9299   3.043   6.147   3.395
   95SAPC  H18S 9300   2.925   6.012   3.372
   95SAPC  C219 9301   2.874   6.151   3.518
   95SAPC  H19R 9302   2.776   6.098   3.526
   95SAPC  H19S 9303   2.853   6.260   3.512
   95SAPC  C220 9304   2.960   6.106   3.635
   95SAPC  H20R 9305   2.911   6.115   3.734
   95SAPC  H20S 9306   3.059   6.155   3.649
   95SAPC  H20T 9307   2.969   5.997   3.620
   95SAPC   C33 9308   3.961   5.240   2.504
   95SAPC   H3X 9309   4.000   5.137   2.492
   95SAPC   H3Y 9310   3.852   5.239   2.525
   95SAPC   C34 9311   4.031   5.315   2.621
   95SAPC   H4X 9312   3.997   5.417   2.647
   95SAPC   H4Y 9313   4.140   5.316   2.598
   95SAPC   C35 9314   4.008   5.224   2.744
   95SAPC   H5X 9315   4.078   5.241   2.829
   95SAPC   H5Y 9316   4.034   5.119   2.720
   95SAPC   C36 9317   3.866   5.235   2.797
   95SAPC   H6X 9318   3.851   5.139   2.851
   95SAPC   H6Y 9319   3.792   5.246   2.715
   95SAPC   C37 9320   3.843   5.357   2.886
   95SAPC   H7X 9321   3.738   5.395   2.880
   95SAPC   H7Y 9322   3.910   5.441   2.858
   95SAPC   C38 9323   3.869   5.326   3.034
   95SAPC   H8X 9324   3.974   5.289   3.038
   95SAPC   H8Y 9325   3.807   5.242   3.070
   95SAPC   C39 9326   3.851   5.450   3.125
   95SAPC   H9X 9327   3.901   5.539   3.081
   95SAPC   H9Y 9328   3.891   5.426   3.226
   95SAPC  C310 9329   3.704   5.493   3.144
   95SAPC  H10X 9330   3.642   5.481   3.052
   95SAPC  H10Y 9331   3.717   5.599   3.173
   95SAPC  C311 9332   3.625   5.423   3.251
   95SAPC  H11X 9333   3.652   5.315   3.251
   95SAPC  H11Y 9334   3.514   5.425   3.243
   95SAPC  C312 9335   3.664   5.490   3.386
   95SAPC  H12X 9336   3.626   5.594   3.389
   95SAPC  H12Y 9337   3.774   5.497   3.400
   95SAPC  C313 9338   3.614   5.413   3.516
   95SAPC  H13X 9339   3.652   5.309   3.518
   95SAPC  H13Y 9340   3.504   5.401   3.507
   95SAPC  C314 9341   3.639   5.488   3.646
   95SAPC  H14X 9342   3.573   5.577   3.636
   95SAPC  H14Y 9343   3.746   5.514   3.659
   95SAPC  C315 9344   3.603   5.414   3.773
   95SAPC  H15X 9345   3.645   5.311   3.768
   95SAPC  H15Y 9346   3.493   5.398   3.774
   95SAPC  C316 9347   3.654   5.490   3.901
   95SAPC  H16X 9348   3.615   5.592   3.887
   95SAPC  H16Y 9349   3.765   5.492   3.899
   95SAPC  C317 9350   3.615   5.415   4.031
   95SAPC  H17X 9351   3.644   5.308   4.030
   95SAPC  H17Y 9352   3.507   5.418   4.058
   95SAPC  C318 9353   3.678   5.477   4.148
   95SAPC  H18X 9354   3.652   5.413   4.235
   95SAPC  H18Y 9355   3.636   5.577   4.172
   95SAPC  H18Z 9356   3.785   5.489   4.123
   96SAPC     N 9357   3.570   2.344   2.188
   96SAPC   C12 9358   3.433   2.331   2.124
   96SAPC  H12A 9359   3.418   2.414   2.057
   96SAPC  H12B 9360   3.359   2.335   2.202
   96SAPC   C13 9361   3.674   2.337   2.080
   96SAPC  H13A 9362   3.655   2.418   2.011
   96SAPC  H13B 9363   3.772   2.347   2.123
   96SAPC  H13C 9364   3.671   2.242   2.027
   96SAPC   C14 9365   3.578   2.481   2.242
   96SAPC  H14A 9366   3.510   2.492   2.325
   96SAPC  H14B 9367   3.677   2.500   2.282
   96SAPC  H14C 9368   3.567   2.551   2.161
   96SAPC   C15 9369   3.595   2.240   2.288
   96SAPC  H15A 9370   3.521   2.240   2.366
   96SAPC  H15B 9371   3.578   2.148   2.233
   96SAPC  H15C 9372   3.694   2.237   2.330
   96SAPC   C11 9373   3.403   2.199   2.057
   96SAPC  H11A 9374   3.488   2.164   1.995
   96SAPC  H11B 9375   3.321   2.214   1.984
   96SAPC     P 9376   3.266   2.093   2.254
   96SAPC   O13 9377   3.210   2.228   2.276
   96SAPC   O14 9378   3.182   1.978   2.214
   96SAPC   O12 9379   3.382   2.097   2.153
   96SAPC   O11 9380   3.332   2.057   2.389
   96SAPC    C1 9381   3.408   1.934   2.408
   96SAPC    HA 9382   3.355   1.842   2.376
   96SAPC    HB 9383   3.500   1.943   2.346
   96SAPC    C2 9384   3.451   1.919   2.552
   96SAPC    HS 9385   3.356   1.895   2.604
   96SAPC   O21 9386   3.510   2.041   2.596
   96SAPC   C21 9387   3.435   2.108   2.681
   96SAPC   O22 9388   3.328   2.069   2.731
   96SAPC   C22 9389   3.486   2.249   2.707
   96SAPC   H2R 9390   3.578   2.267   2.647
   96SAPC   H2S 9391   3.406   2.319   2.675
   96SAPC    C3 9392   3.532   1.792   2.584
   96SAPC    HX 9393   3.633   1.814   2.542
   96SAPC    HY 9394   3.473   1.703   2.555
   96SAPC   O31 9395   3.545   1.799   2.727
   96SAPC   C31 9396   3.589   1.691   2.790
   96SAPC   O32 9397   3.615   1.586   2.733
   96SAPC   C32 9398   3.576   1.725   2.943
   96SAPC   H2X 9399   3.474   1.761   2.968
   96SAPC   H2Y 9400   3.647   1.803   2.979
   96SAPC   C23 9401   3.524   2.260   2.853
   96SAPC   H3R 9402   3.434   2.278   2.916
   96SAPC   H3S 9403   3.585   2.353   2.863
   96SAPC   C24 9404   3.594   2.139   2.919
   96SAPC   H4R 9405   3.684   2.170   2.977
   96SAPC   H4S 9406   3.639   2.079   2.838
   96SAPC   C25 9407   3.510   2.046   2.998
   96SAPC   H5R 9408   3.424   2.008   2.942
   96SAPC   C26 9409   3.524   2.010   3.127
   96SAPC   H6R 9410   3.445   1.948   3.171
   96SAPC   C27 9411   3.627   2.064   3.224
   96SAPC   H7R 9412   3.566   2.106   3.307
   96SAPC   H7S 9413   3.681   2.151   3.180
   96SAPC   C28 9414   3.738   1.966   3.257
   96SAPC   H8R 9415   3.791   1.930   3.168
   96SAPC   C29 9416   3.781   1.927   3.382
   96SAPC   H9R 9417   3.870   1.864   3.394
   96SAPC  C210 9418   3.723   1.969   3.516
   96SAPC  H10R 9419   3.618   2.000   3.494
   96SAPC  H10S 9420   3.769   2.058   3.564
   96SAPC  C211 9421   3.709   1.847   3.610
   96SAPC  H11R 9422   3.618   1.787   3.596
   96SAPC  C212 9423   3.789   1.817   3.715
   96SAPC  H12R 9424   3.769   1.723   3.769
   96SAPC  C213 9425   3.911   1.892   3.759
   96SAPC  H13R 9426   3.961   1.928   3.666
   96SAPC  H13S 9427   3.982   1.825   3.811
   96SAPC  C214 9428   3.879   2.013   3.844
   96SAPC  H14R 9429   3.856   2.102   3.784
   96SAPC  C215 9430   3.881   2.018   3.979
   96SAPC  H15R 9431   3.849   2.110   4.031
   96SAPC  C216 9432   3.908   1.904   4.073
   96SAPC  H16R 9433   3.873   1.805   4.034
   96SAPC  H16S 9434   3.846   1.919   4.164
   96SAPC  C217 9435   4.058   1.898   4.110
   96SAPC  H17R 9436   4.096   2.002   4.125
   96SAPC  H17S 9437   4.116   1.875   4.019
   96SAPC  C218 9438   4.075   1.799   4.228
   96SAPC  H18R 9439   3.995   1.800   4.305
   96SAPC  H18S 9440   4.171   1.831   4.273
   96SAPC  C219 9441   4.090   1.662   4.175
   96SAPC  H19R 9442   4.177   1.659   4.105
   96SAPC  H19S 9443   3.997   1.632   4.122
   96SAPC  C220 9444   4.108   1.550   4.276
   96SAPC  H20R 9445   4.018   1.546   4.341
   96SAPC  H20S 9446   4.208   1.563   4.323
   96SAPC  H20T 9447   4.126   1.451   4.229
   96SAPC   C33 9448   3.600   1.601   3.036
   96SAPC   H3X 9449   3.684   1.545   2.988
   96SAPC   H3Y 9450   3.502   1.548   3.038
   96SAPC   C34 9451   3.639   1.631   3.176
   96SAPC   H4X 9452   3.581   1.717   3.217
   96SAPC   H4Y 9453   3.746   1.660   3.175
   96SAPC   C35 9454   3.600   1.510   3.265
   96SAPC   H5X 9455   3.656   1.423   3.226
   96SAPC   H5Y 9456   3.491   1.491   3.258
   96SAPC   C36 9457   3.625   1.520   3.414
   96SAPC   H6X 9458   3.591   1.621   3.447
   96SAPC   H6Y 9459   3.735   1.517   3.429
   96SAPC   C37 9460   3.558   1.420   3.506
   96SAPC   H7X 9461   3.597   1.320   3.475
   96SAPC   H7Y 9462   3.447   1.418   3.496
   96SAPC   C38 9463   3.589   1.434   3.654
   96SAPC   H8X 9464   3.676   1.503   3.665
   96SAPC   H8Y 9465   3.643   1.342   3.686
   96SAPC   C39 9466   3.477   1.479   3.755
   96SAPC   H9X 9467   3.410   1.393   3.774
   96SAPC   H9Y 9468   3.413   1.555   3.707
   96SAPC  C310 9469   3.516   1.535   3.893
   96SAPC  H10X 9470   3.582   1.624   3.886
   96SAPC  H10Y 9471   3.585   1.463   3.943
   96SAPC  C311 9472   3.390   1.578   3.972
   96SAPC  H11X 9473   3.340   1.490   4.016
   96SAPC  H11Y 9474   3.312   1.623   3.907
   96SAPC  C312 9475   3.412   1.681   4.086
   96SAPC  H12X 9476   3.315   1.706   4.132
   96SAPC  H12Y 9477   3.440   1.778   4.040
   96SAPC  C313 9478   3.529   1.641   4.178
   96SAPC  H13X 9479   3.622   1.615   4.123
   96SAPC  H13Y 9480   3.504   1.551   4.238
   96SAPC  C314 9481   3.561   1.752   4.278
   96SAPC  H14X 9482   3.465   1.803   4.302
   96SAPC  H14Y 9483   3.632   1.822   4.231
   96SAPC  C315 9484   3.612   1.698   4.411
   96SAPC  H15X 9485   3.695   1.625   4.398
   96SAPC  H15Y 9486   3.526   1.636   4.442
   96SAPC  C316 9487   3.647   1.808   4.514
   96SAPC  H16X 9488   3.618   1.773   4.615
   96SAPC  H16Y 9489   3.578   1.895   4.509
   96SAPC  C317 9490   3.794   1.851   4.507
   96SAPC  H17X 9491   3.836   1.879   4.408
   96SAPC  H17Y 9492   3.857   1.766   4.540
   96SAPC  C318 9493   3.824   1.964   4.609
   96SAPC  H18X 9494   3.770   2.060   4.602
   96SAPC  H18Y 9495   3.933   1.982   4.598
   96SAPC  H18Z 9496   3.807   1.925   4.712
   97SAPC     N 9497   3.192   1.353   1.756
   97SAPC   C12 9498   3.172   1.202   1.745
   97SAPC  H12A 9499   3.146   1.174   1.644
   97SAPC  H12B 9500   3.080   1.181   1.797
   97SAPC   C13 9501   3.073   1.418   1.690
   97SAPC  H13A 9502   3.061   1.378   1.590
   97SAPC  H13B 9503   2.981   1.395   1.741
   97SAPC  H13C 9504   3.079   1.525   1.683
   97SAPC   C14 9505   3.205   1.403   1.896
   97SAPC  H14A 9506   3.286   1.354   1.948
   97SAPC  H14B 9507   3.223   1.509   1.905
   97SAPC  H14C 9508   3.116   1.371   1.949
   97SAPC   C15 9509   3.316   1.400   1.686
   97SAPC  H15A 9510   3.318   1.369   1.582
   97SAPC  H15B 9511   3.321   1.507   1.690
   97SAPC  H15C 9512   3.407   1.361   1.729
   97SAPC   C11 9513   3.285   1.106   1.790
   97SAPC  H11A 9514   3.376   1.127   1.731
   97SAPC  H11B 9515   3.256   0.999   1.780
   97SAPC     P 9516   3.234   1.080   2.049
   97SAPC   O13 9517   3.231   1.168   2.168
   97SAPC   O14 9518   3.104   1.040   1.992
   97SAPC   O12 9519   3.324   1.132   1.926
   97SAPC   O11 9520   3.308   0.940   2.082
   97SAPC    C1 9521   3.352   0.914   2.221
   97SAPC    HA 9522   3.447   0.970   2.227
   97SAPC    HB 9523   3.271   0.943   2.292
   97SAPC    C2 9524   3.396   0.768   2.233
   97SAPC    HS 9525   3.465   0.740   2.150
   97SAPC   O21 9526   3.277   0.693   2.238
   97SAPC   C21 9527   3.307   0.562   2.229
   97SAPC   O22 9528   3.418   0.511   2.224
   97SAPC   C22 9529   3.175   0.488   2.230
   97SAPC   H2R 9530   3.109   0.536   2.154
   97SAPC   H2S 9531   3.200   0.381   2.209
   97SAPC    C3 9532   3.474   0.755   2.367
   97SAPC    HX 9533   3.567   0.815   2.360
   97SAPC    HY 9534   3.519   0.655   2.385
   97SAPC   O31 9535   3.398   0.793   2.483
   97SAPC   C31 9536   3.464   0.787   2.598
   97SAPC   O32 9537   3.574   0.738   2.617
   97SAPC   C32 9538   3.386   0.861   2.707
   97SAPC   H2X 9539   3.303   0.910   2.651
   97SAPC   H2Y 9540   3.452   0.940   2.747
   97SAPC   C23 9541   3.097   0.499   2.358
   97SAPC   H3R 9542   2.994   0.461   2.341
   97SAPC   H3S 9543   3.098   0.608   2.381
   97SAPC   C24 9544   3.175   0.436   2.472
   97SAPC   H4R 9545   3.132   0.474   2.567
   97SAPC   H4S 9546   3.285   0.441   2.455
   97SAPC   C25 9547   3.146   0.287   2.473
   97SAPC   H5R 9548   3.161   0.233   2.379
   97SAPC   C26 9549   3.079   0.217   2.568
   97SAPC   H6R 9550   3.064   0.115   2.531
   97SAPC   C27 9551   3.024   0.245   2.700
   97SAPC   H7R 9552   3.052   0.349   2.728
   97SAPC   H7S 9553   3.067   0.169   2.769
   97SAPC   C28 9554   2.871   0.247   2.694
   97SAPC   H8R 9555   2.817   0.268   2.600
   97SAPC   C29 9556   2.797   0.222   2.801
   97SAPC   H9R 9557   2.687   0.225   2.797
   97SAPC  C210 9558   2.853   0.175   2.932
   97SAPC  H10R 9559   2.927   0.093   2.920
   97SAPC  H10S 9560   2.775   0.122   2.990
   97SAPC  C211 9561   2.900   0.284   3.024
   97SAPC  H11R 9562   2.929   0.378   2.975
   97SAPC  C212 9563   2.933   0.273   3.155
   97SAPC  H12R 9564   2.963   0.366   3.205
   97SAPC  C213 9565   2.932   0.148   3.245
   97SAPC  H13R 9566   2.971   0.061   3.187
   97SAPC  H13S 9567   2.822   0.138   3.257
   97SAPC  C214 9568   2.992   0.148   3.379
   97SAPC  H14R 9569   3.060   0.066   3.407
   97SAPC  C215 9570   2.953   0.232   3.475
   97SAPC  H15R 9571   3.005   0.226   3.572
   97SAPC  C216 9572   2.837   0.333   3.483
   97SAPC  H16R 9573   2.765   0.310   3.402
   97SAPC  H16S 9574   2.883   0.433   3.474
   97SAPC  C217 9575   2.749   0.301   3.605
   97SAPC  H17R 9576   2.710   0.198   3.589
   97SAPC  H17S 9577   2.659   0.366   3.611
   97SAPC  C218 9578   2.813   0.317   3.744
   97SAPC  H18R 9579   2.896   0.388   3.723
   97SAPC  H18S 9580   2.859   0.222   3.779
   97SAPC  C219 9581   2.729   0.368   3.858
   97SAPC  H19R 9582   2.790   0.357   3.950
   97SAPC  H19S 9583   2.640   0.301   3.866
   97SAPC  C220 9584   2.685   0.513   3.837
   97SAPC  H20R 9585   2.772   0.578   3.815
   97SAPC  H20S 9586   2.627   0.552   3.924
   97SAPC  H20T 9587   2.634   0.526   3.740
   97SAPC   C33 9588   3.333   0.771   2.816
   97SAPC   H3X 9589   3.291   0.679   2.771
   97SAPC   H3Y 9590   3.245   0.816   2.867
   97SAPC   C34 9591   3.446   0.747   2.932
   97SAPC   H4X 9592   3.500   0.843   2.943
   97SAPC   H4Y 9593   3.526   0.673   2.912
   97SAPC   C35 9594   3.376   0.706   3.061
   97SAPC   H5X 9595   3.300   0.627   3.043
   97SAPC   H5Y 9596   3.308   0.788   3.094
   97SAPC   C36 9597   3.480   0.663   3.170
   97SAPC   H6X 9598   3.549   0.749   3.180
   97SAPC   H6Y 9599   3.541   0.581   3.128
   97SAPC   C37 9600   3.419   0.634   3.310
   97SAPC   H7X 9601   3.383   0.528   3.308
   97SAPC   H7Y 9602   3.336   0.708   3.304
   97SAPC   C38 9603   3.512   0.656   3.437
   97SAPC   H8X 9604   3.564   0.754   3.425
   97SAPC   H8Y 9605   3.592   0.579   3.428
   97SAPC   C39 9606   3.433   0.640   3.572
   97SAPC   H9X 9607   3.352   0.715   3.584
   97SAPC   H9Y 9608   3.507   0.659   3.653
   97SAPC  C310 9609   3.385   0.495   3.594
   97SAPC  H10X 9610   3.468   0.426   3.568
   97SAPC  H10Y 9611   3.291   0.477   3.538
   97SAPC  C311 9612   3.352   0.462   3.751
   97SAPC  H11X 9613   3.436   0.490   3.818
   97SAPC  H11Y 9614   3.330   0.354   3.758
   97SAPC  C312 9615   3.224   0.529   3.804
   97SAPC  H12X 9616   3.130   0.502   3.752
   97SAPC  H12Y 9617   3.230   0.640   3.803
   97SAPC  C313 9618   3.209   0.499   3.951
   97SAPC  H13X 9619   3.279   0.553   4.018
   97SAPC  H13Y 9620   3.236   0.391   3.947
   97SAPC  C314 9621   3.066   0.512   4.011
   97SAPC  H14X 9622   2.989   0.451   3.957
   97SAPC  H14Y 9623   3.035   0.618   4.000
   97SAPC  C315 9624   3.073   0.443   4.149
   97SAPC  H15X 9625   3.148   0.500   4.208
   97SAPC  H15Y 9626   3.107   0.339   4.134
   97SAPC  C316 9627   2.947   0.435   4.236
   97SAPC  H16X 9628   2.870   0.396   4.166
   97SAPC  H16Y 9629   2.913   0.539   4.259
   97SAPC  C317 9630   2.956   0.335   4.363
   97SAPC  H17X 9631   2.853   0.350   4.403
   97SAPC  H17Y 9632   3.036   0.362   4.435
   97SAPC  C318 9633   2.976   0.187   4.317
   97SAPC  H18X 9634   2.886   0.145   4.268
   97SAPC  H18Y 9635   2.986   0.135   4.414
   97SAPC  H18Z 9636   3.069   0.163   4.261
   98SAPC     N 9637   5.976   1.625   2.216
   98SAPC   C12 9638   6.111   1.570   2.175
   98SAPC  H12A 9639   6.185   1.598   2.248
   98SAPC  H12B 9640   6.139   1.617   2.082
   98SAPC   C13 9641   5.991   1.771   2.239
   98SAPC  H13A 9642   6.082   1.800   2.290
   98SAPC  H13B 9643   5.981   1.836   2.154
   98SAPC  H13C 9644   5.924   1.801   2.318
   98SAPC   C14 9645   5.884   1.598   2.102
   98SAPC  H14A 9646   5.879   1.493   2.080
   98SAPC  H14B 9647   5.790   1.630   2.146
   98SAPC  H14C 9648   5.896   1.657   2.012
   98SAPC   C15 9649   5.931   1.570   2.344
   98SAPC  H15A 9650   5.999   1.574   2.427
   98SAPC  H15B 9651   5.843   1.619   2.383
   98SAPC  H15C 9652   5.904   1.466   2.329
   98SAPC   C11 9653   6.125   1.424   2.144
   98SAPC  H11A 9654   6.213   1.405   2.078
   98SAPC  H11B 9655   6.045   1.397   2.072
   98SAPC     P 9656   6.242   1.329   2.348
   98SAPC   O13 9657   6.355   1.270   2.283
   98SAPC   O14 9658   6.264   1.457   2.414
   98SAPC   O12 9659   6.121   1.325   2.253
   98SAPC   O11 9660   6.197   1.228   2.455
   98SAPC    C1 9661   6.060   1.245   2.506
   98SAPC    HA 9662   6.020   1.348   2.516
   98SAPC    HB 9663   5.990   1.193   2.438
   98SAPC    C2 9664   6.053   1.181   2.654
   98SAPC    HS 9665   5.945   1.186   2.679
   98SAPC   O21 9666   6.134   1.264   2.733
   98SAPC   C21 9667   6.096   1.274   2.863
   98SAPC   O22 9668   5.989   1.231   2.907
   98SAPC   C22 9669   6.198   1.346   2.948
   98SAPC   H2R 9670   6.291   1.286   2.954
   98SAPC   H2S 9671   6.220   1.443   2.897
   98SAPC    C3 9672   6.105   1.035   2.651
   98SAPC    HX 9673   6.215   1.049   2.639
   98SAPC    HY 9674   6.065   0.978   2.564
   98SAPC   O31 9675   6.082   0.959   2.766
   98SAPC   C31 9676   5.969   0.894   2.779
   98SAPC   O32 9677   5.897   0.867   2.681
   98SAPC   C32 9678   5.954   0.839   2.921
   98SAPC   H2X 9679   6.043   0.784   2.959
   98SAPC   H2Y 9680   5.880   0.756   2.920
   98SAPC   C23 9681   6.131   1.369   3.096
   98SAPC   H3R 9682   6.127   1.267   3.138
   98SAPC   H3S 9683   6.033   1.421   3.099
   98SAPC   C24 9684   6.223   1.462   3.183
   98SAPC   H4R 9685   6.163   1.487   3.273
   98SAPC   H4S 9686   6.241   1.551   3.119
   98SAPC   C25 9687   6.352   1.398   3.222
   98SAPC   H5R 9688   6.388   1.318   3.156
   98SAPC   C26 9689   6.420   1.433   3.330
   98SAPC   H6R 9690   6.509   1.377   3.365
   98SAPC   C27 9691   6.386   1.550   3.422
   98SAPC   H7R 9692   6.398   1.646   3.366
   98SAPC   H7S 9693   6.468   1.556   3.497
   98SAPC   C28 9694   6.255   1.565   3.496
   98SAPC   H8R 9695   6.172   1.621   3.450
   98SAPC   C29 9696   6.241   1.536   3.630
   98SAPC   H9R 9697   6.148   1.559   3.685
   98SAPC  C210 9698   6.353   1.480   3.718
   98SAPC  H10R 9699   6.423   1.557   3.755
   98SAPC  H10S 9700   6.417   1.422   3.647
   98SAPC  C211 9701   6.296   1.401   3.832
   98SAPC  H11R 9702   6.266   1.459   3.921
   98SAPC  C212 9703   6.269   1.272   3.845
   98SAPC  H12R 9704   6.201   1.239   3.926
   98SAPC  C213 9705   6.286   1.174   3.734
   98SAPC  H13R 9706   6.305   1.224   3.636
   98SAPC  H13S 9707   6.178   1.148   3.722
   98SAPC  C214 9708   6.373   1.049   3.742
   98SAPC  H14R 9709   6.426   1.019   3.834
   98SAPC  C215 9710   6.414   0.972   3.631
   98SAPC  H15R 9711   6.487   0.893   3.655
   98SAPC  C216 9712   6.362   0.971   3.495
   98SAPC  H16R 9713   6.275   1.040   3.483
   98SAPC  H16S 9714   6.324   0.868   3.477
   98SAPC  C217 9715   6.469   1.000   3.385
   98SAPC  H17R 9716   6.559   0.938   3.403
   98SAPC  H17S 9717   6.496   1.106   3.365
   98SAPC  C218 9718   6.425   0.944   3.248
   98SAPC  H18R 9719   6.331   0.995   3.218
   98SAPC  H18S 9720   6.393   0.838   3.247
   98SAPC  C219 9721   6.534   0.958   3.148
   98SAPC  H19R 9722   6.614   0.886   3.175
   98SAPC  H19S 9723   6.566   1.065   3.141
   98SAPC  C220 9724   6.478   0.915   3.008
   98SAPC  H20R 9725   6.547   0.942   2.926
   98SAPC  H20S 9726   6.387   0.976   2.990
   98SAPC  H20T 9727   6.447   0.809   3.006
   98SAPC   C33 9728   5.916   0.939   3.034
   98SAPC   H3X 9729   5.816   0.983   3.014
   98SAPC   H3Y 9730   5.996   1.015   3.049
   98SAPC   C34 9731   5.888   0.874   3.174
   98SAPC   H4X 9732   5.985   0.868   3.227
   98SAPC   H4Y 9733   5.848   0.771   3.162
   98SAPC   C35 9734   5.796   0.959   3.275
   98SAPC   H5X 9735   5.701   0.965   3.218
   98SAPC   H5Y 9736   5.836   1.059   3.298
   98SAPC   C36 9737   5.741   0.882   3.398
   98SAPC   H6X 9738   5.678   0.795   3.367
   98SAPC   H6Y 9739   5.670   0.949   3.451
   98SAPC   C37 9740   5.842   0.816   3.493
   98SAPC   H7X 9741   5.899   0.740   3.434
   98SAPC   H7Y 9742   5.774   0.771   3.568
   98SAPC   C38 9743   5.933   0.927   3.555
   98SAPC   H8X 9744   5.859   1.000   3.594
   98SAPC   H8Y 9745   6.004   0.964   3.478
   98SAPC   C39 9746   6.017   0.879   3.680
   98SAPC   H9X 9747   6.092   0.955   3.709
   98SAPC   H9Y 9748   6.071   0.791   3.639
   98SAPC  C310 9749   5.936   0.851   3.803
   98SAPC  H10X 9750   5.994   0.788   3.874
   98SAPC  H10Y 9751   5.841   0.800   3.774
   98SAPC  C311 9752   5.902   0.979   3.883
   98SAPC  H11X 9753   5.837   1.041   3.817
   98SAPC  H11Y 9754   5.991   1.043   3.901
   98SAPC  C312 9755   5.828   0.939   4.015
   98SAPC  H12X 9756   5.793   0.834   4.019
   98SAPC  H12Y 9757   5.745   1.012   4.025
   98SAPC  C313 9758   5.927   0.956   4.133
   98SAPC  H13X 9759   5.879   0.997   4.224
   98SAPC  H13Y 9760   6.004   1.036   4.127
   98SAPC  C314 9761   5.997   0.821   4.168
   98SAPC  H14X 9762   6.063   0.776   4.090
   98SAPC  H14Y 9763   5.909   0.754   4.175
   98SAPC  C315 9764   6.066   0.819   4.304
   98SAPC  H15X 9765   6.018   0.872   4.389
   98SAPC  H15Y 9766   6.165   0.869   4.296
   98SAPC  C316 9767   6.080   0.673   4.351
   98SAPC  H16X 9768   6.176   0.631   4.314
   98SAPC  H16Y 9769   6.002   0.612   4.302
   98SAPC  C317 9770   6.073   0.661   4.500
   98SAPC  H17X 9771   5.971   0.695   4.530
   98SAPC  H17Y 9772   6.152   0.727   4.542
   98SAPC  C318 9773   6.100   0.514   4.545
   98SAPC  H18X 9774   6.210   0.496   4.542
   98SAPC  H18Y 9775   6.047   0.440   4.481
   98SAPC  H18Z 9776   6.062   0.490   4.646
   99SAPC     N 9777   3.419   5.055   1.851
   99SAPC   C12 9778   3.391   5.090   1.999
   99SAPC  H12A 9779   3.285   5.095   2.018
   99SAPC  H12B 9780   3.436   5.188   2.007
   99SAPC   C13 9781   3.373   4.916   1.824
   99SAPC  H13A 9782   3.411   4.892   1.726
   99SAPC  H13B 9783   3.411   4.853   1.903
   99SAPC  H13C 9784   3.265   4.915   1.823
   99SAPC   C14 9785   3.340   5.146   1.757
   99SAPC  H14A 9786   3.237   5.125   1.780
   99SAPC  H14B 9787   3.367   5.250   1.761
   99SAPC  H14C 9788   3.357   5.110   1.657
   99SAPC   C15 9789   3.565   5.054   1.817
   99SAPC  H15A 9790   3.636   5.004   1.881
   99SAPC  H15B 9791   3.591   5.005   1.724
   99SAPC  H15C 9792   3.601   5.154   1.798
   99SAPC   C11 9793   3.454   5.011   2.112
   99SAPC  H11A 9794   3.409   4.910   2.102
   99SAPC  H11B 9795   3.421   5.042   2.214
   99SAPC     P 9796   3.705   5.086   2.176
   99SAPC   O13 9797   3.834   5.017   2.214
   99SAPC   O14 9798   3.721   5.194   2.080
   99SAPC   O12 9799   3.599   4.992   2.107
   99SAPC   O11 9800   3.624   5.123   2.301
   99SAPC    C1 9801   3.649   5.089   2.440
   99SAPC    HA 9802   3.758   5.070   2.455
   99SAPC    HB 9803   3.618   5.172   2.507
   99SAPC    C2 9804   3.568   4.961   2.476
   99SAPC    HS 9805   3.464   4.959   2.436
   99SAPC   O21 9806   3.566   4.957   2.621
   99SAPC   C21 9807   3.483   5.041   2.680
   99SAPC   O22 9808   3.383   5.091   2.627
   99SAPC   C22 9809   3.507   5.049   2.826
   99SAPC   H2R 9810   3.454   4.966   2.877
   99SAPC   H2S 9811   3.616   5.047   2.849
   99SAPC    C3 9812   3.649   4.840   2.427
   99SAPC    HX 9813   3.755   4.855   2.457
   99SAPC    HY 9814   3.645   4.833   2.316
   99SAPC   O31 9815   3.613   4.721   2.488
   99SAPC   C31 9816   3.512   4.659   2.429
   99SAPC   O32 9817   3.458   4.697   2.322
   99SAPC   C32 9818   3.456   4.539   2.507
   99SAPC   H2X 9819   3.539   4.471   2.536
   99SAPC   H2Y 9820   3.384   4.483   2.444
   99SAPC   C23 9821   3.452   5.185   2.878
   99SAPC   H3R 9822   3.397   5.250   2.807
   99SAPC   H3S 9823   3.540   5.248   2.905
   99SAPC   C24 9824   3.371   5.147   3.004
   99SAPC   H4R 9825   3.438   5.078   3.061
   99SAPC   H4S 9826   3.282   5.088   2.973
   99SAPC   C25 9827   3.323   5.262   3.081
   99SAPC   H5R 9828   3.345   5.360   3.038
   99SAPC   C26 9829   3.252   5.262   3.198
   99SAPC   H6R 9830   3.230   5.359   3.246
   99SAPC   C27 9831   3.212   5.145   3.271
   99SAPC   H7R 9832   3.305   5.108   3.320
   99SAPC   H7S 9833   3.191   5.058   3.204
   99SAPC   C28 9834   3.092   5.159   3.361
   99SAPC   H8R 9835   3.000   5.140   3.305
   99SAPC   C29 9836   3.080   5.189   3.491
   99SAPC   H9R 9837   2.983   5.169   3.540
   99SAPC  C210 9838   3.188   5.242   3.585
   99SAPC  H10R 9839   3.152   5.332   3.639
   99SAPC  H10S 9840   3.274   5.269   3.521
   99SAPC  C211 9841   3.233   5.134   3.676
   99SAPC  H11R 9842   3.291   5.056   3.624
   99SAPC  C212 9843   3.212   5.130   3.810
   99SAPC  H12R 9844   3.239   5.040   3.868
   99SAPC  C213 9845   3.152   5.239   3.895
   99SAPC  H13R 9846   3.046   5.213   3.918
   99SAPC  H13S 9847   3.146   5.334   3.837
   99SAPC  C214 9848   3.225   5.259   4.019
   99SAPC  H14R 9849   3.334   5.249   4.009
   99SAPC  C215 9850   3.170   5.271   4.146
   99SAPC  H15R 9851   3.243   5.306   4.221
   99SAPC  C216 9852   3.023   5.279   4.178
   99SAPC  H16R 9853   2.969   5.312   4.087
   99SAPC  H16S 9854   2.996   5.362   4.246
   99SAPC  C217 9855   2.984   5.141   4.236
   99SAPC  H17R 9856   3.037   5.129   4.333
   99SAPC  H17S 9857   3.007   5.057   4.167
   99SAPC  C218 9858   2.831   5.134   4.255
   99SAPC  H18R 9859   2.800   5.226   4.310
   99SAPC  H18S 9860   2.810   5.054   4.329
   99SAPC  C219 9861   2.764   5.097   4.122
   99SAPC  H19R 9862   2.783   4.991   4.094
   99SAPC  H19S 9863   2.805   5.159   4.039
   99SAPC  C220 9864   2.611   5.104   4.119
   99SAPC  H20R 9865   2.561   5.192   4.167
   99SAPC  H20S 9866   2.567   5.007   4.151
   99SAPC  H20T 9867   2.581   5.107   4.012
   99SAPC   C33 9868   3.385   4.585   2.640
   99SAPC   H3X 9869   3.456   4.632   2.711
   99SAPC   H3Y 9870   3.346   4.488   2.678
   99SAPC   C34 9871   3.261   4.669   2.626
   99SAPC   H4X 9872   3.174   4.617   2.580
   99SAPC   H4Y 9873   3.293   4.758   2.567
   99SAPC   C35 9874   3.216   4.735   2.765
   99SAPC   H5X 9875   3.144   4.819   2.757
   99SAPC   H5Y 9876   3.306   4.786   2.807
   99SAPC   C36 9877   3.154   4.628   2.864
   99SAPC   H6X 9878   3.220   4.541   2.887
   99SAPC   H6Y 9879   3.059   4.592   2.821
   99SAPC   C37 9880   3.123   4.709   2.995
   99SAPC   H7X 9881   3.067   4.643   3.064
   99SAPC   H7Y 9882   3.064   4.801   2.974
   99SAPC   C38 9883   3.249   4.756   3.074
   99SAPC   H8X 9884   3.245   4.862   3.104
   99SAPC   H8Y 9885   3.337   4.759   3.007
   99SAPC   C39 9886   3.280   4.671   3.192
   99SAPC   H9X 9887   3.282   4.566   3.157
   99SAPC   H9Y 9888   3.202   4.692   3.268
   99SAPC  C310 9889   3.418   4.705   3.258
   99SAPC  H10X 9890   3.415   4.811   3.293
   99SAPC  H10Y 9891   3.493   4.699   3.177
   99SAPC  C311 9892   3.458   4.605   3.366
   99SAPC  H11X 9893   3.558   4.640   3.400
   99SAPC  H11Y 9894   3.460   4.500   3.330
   99SAPC  C312 9895   3.359   4.621   3.490
   99SAPC  H12X 9896   3.252   4.602   3.466
   99SAPC  H12Y 9897   3.370   4.725   3.529
   99SAPC  C313 9898   3.406   4.529   3.606
   99SAPC  H13X 9899   3.514   4.548   3.621
   99SAPC  H13Y 9900   3.381   4.423   3.587
   99SAPC  C314 9901   3.340   4.552   3.742
   99SAPC  H14X 9902   3.230   4.539   3.729
   99SAPC  H14Y 9903   3.350   4.660   3.768
   99SAPC  C315 9904   3.390   4.458   3.849
   99SAPC  H15X 9905   3.499   4.472   3.855
   99SAPC  H15Y 9906   3.370   4.353   3.819
   99SAPC  C316 9907   3.326   4.463   3.992
   99SAPC  H16X 9908   3.216   4.476   3.987
   99SAPC  H16Y 9909   3.357   4.562   4.030
   99SAPC  C317 9910   3.379   4.359   4.096
   99SAPC  H17X 9911   3.477   4.396   4.133
   99SAPC  H17Y 9912   3.406   4.259   4.057
   99SAPC  C318 9913   3.274   4.326   4.206
   99SAPC  H18X 9914   3.301   4.234   4.261
   99SAPC  H18Y 9915   3.172   4.310   4.165
   99SAPC  H18Z 9916   3.265   4.405   4.283
  100SAPC     N 9917   2.198   4.649   1.976
  100SAPC   C12 9918   2.295   4.539   2.025
  100SAPC  H12A 9919   2.351   4.581   2.107
  100SAPC  H12B 9920   2.366   4.519   1.946
  100SAPC   C13 9921   2.276   4.756   1.923
  100SAPC  H13A 9922   2.333   4.807   1.999
  100SAPC  H13B 9923   2.351   4.718   1.855
  100SAPC  H13C 9924   2.210   4.826   1.874
  100SAPC   C14 9925   2.105   4.608   1.864
  100SAPC  H14A 9926   2.161   4.563   1.783
  100SAPC  H14B 9927   2.041   4.528   1.897
  100SAPC  H14C 9928   2.047   4.690   1.823
  100SAPC   C15 9929   2.123   4.708   2.084
  100SAPC  H15A 9930   2.072   4.634   2.144
  100SAPC  H15B 9931   2.183   4.761   2.156
  100SAPC  H15C 9932   2.044   4.768   2.042
  100SAPC   C11 9933   2.243   4.406   2.082
  100SAPC  H11A 9934   2.325   4.345   2.124
  100SAPC  H11B 9935   2.209   4.359   1.986
  100SAPC     P 9936   1.999   4.358   2.171
  100SAPC   O13 9937   1.926   4.381   2.297
  100SAPC   O14 9938   1.927   4.387   2.048
  100SAPC   O12 9939   2.137   4.427   2.179
  100SAPC   O11 9940   2.034   4.202   2.160
  100SAPC    C1 9941   1.951   4.098   2.118
  100SAPC    HA 9942   1.898   4.122   2.024
  100SAPC    HB 9943   2.018   4.017   2.082
  100SAPC    C2 9944   1.859   4.043   2.229
  100SAPC    HS 9945   1.804   3.952   2.196
  100SAPC   O21 9946   1.768   4.140   2.275
  100SAPC   C21 9947   1.665   4.172   2.188
  100SAPC   O22 9948   1.636   4.103   2.090
  100SAPC   C22 9949   1.591   4.307   2.237
  100SAPC   H2R 9950   1.653   4.347   2.321
  100SAPC   H2S 9951   1.595   4.380   2.154
  100SAPC    C3 9952   1.963   4.002   2.346
  100SAPC    HX 9953   2.010   4.096   2.381
  100SAPC    HY 9954   2.047   3.944   2.302
  100SAPC   O31 9955   1.900   3.935   2.460
  100SAPC   C31 9956   1.876   3.811   2.444
  100SAPC   O32 9957   1.914   3.738   2.351
  100SAPC   C32 9958   1.772   3.759   2.547
  100SAPC   H2X 9959   1.739   3.660   2.509
  100SAPC   H2Y 9960   1.694   3.838   2.540
  100SAPC   C23 9961   1.440   4.276   2.264
  100SAPC   H3R 9962   1.390   4.220   2.182
  100SAPC   H3S 9963   1.394   4.377   2.270
  100SAPC   C24 9964   1.411   4.215   2.400
  100SAPC   H4R 9965   1.446   4.110   2.405
  100SAPC   H4S 9966   1.300   4.211   2.402
  100SAPC   C25 9967   1.450   4.305   2.516
  100SAPC   H5R 9968   1.430   4.413   2.512
  100SAPC   C26 9969   1.509   4.260   2.628
  100SAPC   H6R 9970   1.519   4.332   2.711
  100SAPC   C27 9971   1.544   4.120   2.672
  100SAPC   H7R 9972   1.650   4.107   2.639
  100SAPC   H7S 9973   1.483   4.042   2.622
  100SAPC   C28 9974   1.524   4.092   2.825
  100SAPC   H8R 9975   1.426   4.050   2.851
  100SAPC   C29 9976   1.608   4.128   2.928
  100SAPC   H9R 9977   1.572   4.093   3.026
  100SAPC  C210 9978   1.748   4.188   2.926
  100SAPC  H10R 9979   1.789   4.210   2.825
  100SAPC  H10S 9980   1.811   4.111   2.975
  100SAPC  C211 9981   1.731   4.314   3.007
  100SAPC  H11R 9982   1.667   4.390   2.958
  100SAPC  C212 9983   1.769   4.335   3.132
  100SAPC  H12R 9984   1.747   4.429   3.184
  100SAPC  C213 9985   1.857   4.241   3.209
  100SAPC  H13R 9986   1.918   4.182   3.138
  100SAPC  H13S 9987   1.793   4.167   3.263
  100SAPC  C214 9988   1.939   4.316   3.305
  100SAPC  H14R 9989   2.034   4.346   3.259
  100SAPC  C215 9990   1.895   4.364   3.417
  100SAPC  H15R 9991   1.969   4.416   3.481
  100SAPC  C216 9992   1.749   4.354   3.465
  100SAPC  H16R 9993   1.736   4.244   3.474
  100SAPC  H16S 9994   1.678   4.394   3.390
  100SAPC  C217 9995   1.707   4.403   3.606
  100SAPC  H17R 9996   1.629   4.334   3.643
  100SAPC  H17S 9997   1.653   4.499   3.595
  100SAPC  C218 9998   1.825   4.407   3.705
  100SAPC  H18R 9999   1.910   4.469   3.670
  100SAPC  H18S10000   1.872   4.307   3.716
  100SAPC  C21910001   1.776   4.468   3.839
  100SAPC  H19R10002   1.672   4.434   3.859
  100SAPC  H19S10003   1.762   4.577   3.829
  100SAPC  C22010004   1.864   4.432   3.955
  100SAPC  H20R10005   1.888   4.520   4.018
  100SAPC  H20S10006   1.963   4.395   3.921
  100SAPC  H20T10007   1.813   4.348   4.007
  100SAPC   C3310008   1.824   3.757   2.692
  100SAPC   H3X10009   1.876   3.852   2.715
  100SAPC   H3Y10010   1.905   3.682   2.697
  100SAPC   C3410011   1.721   3.744   2.807
  100SAPC   H4X10012   1.652   3.659   2.791
  100SAPC   H4Y10013   1.670   3.843   2.807
  100SAPC   C3510014   1.803   3.712   2.936
  100SAPC   H5X10015   1.896   3.772   2.936
  100SAPC   H5Y10016   1.839   3.607   2.942
  100SAPC   C3610017   1.731   3.761   3.059
  100SAPC   H6X10018   1.625   3.726   3.060
  100SAPC   H6Y10019   1.722   3.871   3.047
  100SAPC   C3710020   1.810   3.746   3.186
  100SAPC   H7X10021   1.883   3.663   3.181
  100SAPC   H7Y10022   1.738   3.730   3.269
  100SAPC   C3810023   1.902   3.855   3.229
  100SAPC   H8X10024   1.852   3.955   3.230
  100SAPC   H8Y10025   1.991   3.853   3.162
  100SAPC   C3910026   1.949   3.825   3.371
  100SAPC   H9X10027   1.985   3.720   3.371
  100SAPC   H9Y10028   1.857   3.830   3.433
  100SAPC  C31010029   2.046   3.927   3.437
  100SAPC  H10X10030   2.001   4.027   3.426
  100SAPC  H10Y10031   2.142   3.934   3.380
  100SAPC  C31110032   2.069   3.878   3.583
  100SAPC  H11X10033   2.174   3.905   3.607
  100SAPC  H11Y10034   2.056   3.771   3.608
  100SAPC  C31210035   1.980   3.953   3.685
  100SAPC  H12X10036   1.879   3.957   3.637
  100SAPC  H12Y10037   2.016   4.058   3.689
  100SAPC  C31310038   1.989   3.880   3.814
  100SAPC  H13X10039   2.090   3.898   3.856
  100SAPC  H13Y10040   1.967   3.771   3.813
  100SAPC  C31410041   1.877   3.925   3.914
  100SAPC  H14X10042   1.781   3.945   3.861
  100SAPC  H14Y10043   1.913   4.028   3.934
  100SAPC  C31510044   1.872   3.829   4.028
  100SAPC  H15X10045   1.973   3.817   4.074
  100SAPC  H15Y10046   1.845   3.729   3.988
  100SAPC  C31610047   1.773   3.875   4.138
  100SAPC  H16X10048   1.672   3.850   4.098
  100SAPC  H16Y10049   1.778   3.985   4.154
  100SAPC  C31710050   1.783   3.790   4.270
  100SAPC  H17X10051   1.869   3.834   4.325
  100SAPC  H17Y10052   1.815   3.689   4.238
  100SAPC  C31810053   1.652   3.793   4.353
  100SAPC  H18X10054   1.684   3.764   4.455
  100SAPC  H18Y10055   1.564   3.740   4.310
  100SAPC  H18Z10056   1.616   3.897   4.367
  101OSM      N10057   4.201   2.936   6.963
  101OSM    C1510058   4.196   2.788   6.966
  101OSM   H15A10059   4.289   2.744   6.932
  101OSM   H15B10060   4.121   2.758   6.894
  101OSM   H15C10061   4.164   2.755   7.064
  101OSM    C1410062   4.060   2.985   6.984
  101OSM   H14A10063   4.033   2.964   7.087
  101OSM   H14B10064   3.990   2.931   6.921
  101OSM   H14C10065   4.041   3.091   6.975
  101OSM    C1310066   4.283   2.996   7.066
  101OSM   H13A10067   4.294   3.103   7.059
  101OSM   H13B10068   4.381   2.951   7.072
  101OSM   H13C10069   4.242   2.977   7.163
  101OSM    C1210070   4.249   2.977   6.828
  101OSM   H12A10071   4.345   2.929   6.816
  101OSM   H12B10072   4.262   3.084   6.823
  101OSM    C1110073   4.170   2.937   6.706
  101OSM   H11A10074   4.208   2.996   6.620
  101OSM   H11B10075   4.064   2.962   6.728
  101OSM      P10076   4.321   2.756   6.604
  101OSM    O1310077   4.424   2.863   6.627
  101OSM    O1410078   4.363   2.625   6.648
  101OSM    O1110079   4.279   2.750   6.453
  101OSM    O1210080   4.189   2.796   6.676
  101OSM    C1S10081   4.248   2.848   6.360
  101OSM    H1S10082   4.344   2.877   6.310
  101OSM    H1T10083   4.214   2.943   6.407
  101OSM     NF10084   4.146   2.895   6.138
  101OSM    HNF10085   4.075   2.959   6.109
  101OSM    C2S10086   4.145   2.805   6.253
  101OSM    H2S10087   4.178   2.708   6.211
  101OSM    C3S10088   4.005   2.778   6.331
  101OSM    H3S10089   3.991   2.865   6.398
  101OSM     O310090   3.998   2.661   6.408
  101OSM    HO310091   4.090   2.637   6.421
  101OSM    C4S10092   3.893   2.783   6.229
  101OSM    H4S10093   3.915   2.707   6.153
  101OSM    C5S10094   3.784   2.857   6.228
  101OSM    H5S10095   3.743   2.912   6.313
  101OSM    C6S10096   3.687   2.853   6.116
  101OSM    H6S10097   3.668   2.959   6.090
  101OSM    H6T10098   3.592   2.804   6.145
  101OSM    C7S10099   3.731   2.799   5.974
  101OSM    H7S10100   3.748   2.690   5.980
  101OSM    H7T10101   3.817   2.853   5.930
  101OSM    C8S10102   3.611   2.823   5.877
  101OSM    H8S10103   3.592   2.931   5.859
  101OSM    H8T10104   3.524   2.772   5.925
  101OSM    C9S10105   3.645   2.763   5.743
  101OSM    H9S10106   3.691   2.664   5.762
  101OSM    H9T10107   3.723   2.834   5.708
  101OSM   C10S10108   3.524   2.749   5.643
  101OSM   H10S10109   3.470   2.845   5.628
  101OSM   H10T10110   3.453   2.679   5.692
  101OSM   C11S10111   3.575   2.702   5.501
  101OSM   H11S10112   3.629   2.606   5.512
  101OSM   H11T10113   3.648   2.773   5.456
  101OSM   C12S10114   3.467   2.695   5.397
  101OSM   H12S10115   3.408   2.789   5.407
  101OSM   H12T10116   3.398   2.612   5.424
  101OSM   C13S10117   3.525   2.694   5.251
  101OSM   H13S10118   3.571   2.595   5.230
  101OSM   H13T10119   3.586   2.786   5.235
  101OSM   C14S10120   3.412   2.713   5.155
  101OSM   H14S10121   3.381   2.818   5.174
  101OSM   H14T10122   3.327   2.642   5.159
  101OSM   C15S10123   3.450   2.700   4.999
  101OSM   H15S10124   3.470   2.595   4.969
  101OSM   H15T10125   3.542   2.762   4.986
  101OSM   C16S10126   3.342   2.758   4.905
  101OSM   H16S10127   3.356   2.869   4.908
  101OSM   H16T10128   3.236   2.738   4.932
  101OSM   C17S10129   3.367   2.736   4.755
  101OSM   H17S10130   3.366   2.626   4.742
  101OSM   H17T10131   3.460   2.784   4.716
  101OSM   C18S10132   3.257   2.813   4.680
  101OSM   H18S10133   3.154   2.782   4.710
  101OSM   H18T10134   3.272   2.817   4.570
  101OSM   H18U10135   3.265   2.915   4.722
  101OSM    C1F10136   4.252   2.916   6.063
  101OSM     OF10137   4.357   2.860   6.084
  101OSM    C2F10138   4.232   3.021   5.964
  101OSM    H2F10139   4.325   3.067   5.925
  101OSM    H2G10140   4.189   3.110   6.014
  101OSM    C3F10141   4.134   2.978   5.858
  101OSM    H3F10142   4.038   2.982   5.913
  101OSM    H3G10143   4.148   2.875   5.820
  101OSM    C4F10144   4.120   3.072   5.736
  101OSM    H4F10145   4.103   3.172   5.780
  101OSM    H4G10146   4.030   3.050   5.675
  101OSM    C5F10147   4.244   3.086   5.648
  101OSM    H5F10148   4.338   3.072   5.704
  101OSM    H5G10149   4.246   3.189   5.604
  101OSM    C6F10150   4.250   2.984   5.538
  101OSM    H6F10151   4.168   3.003   5.465
  101OSM    H6G10152   4.249   2.880   5.578
  101OSM    C7F10153   4.376   2.990   5.448
  101OSM    H7F10154   4.467   2.983   5.511
  101OSM    H7G10155   4.367   3.090   5.401
  101OSM    C8F10156   4.378   2.883   5.336
  101OSM    H8F10157   4.365   2.783   5.382
  101OSM    H8G10158   4.468   2.878   5.271
  101OSM    C9F10159   4.255   2.891   5.245
  101OSM    H9F10160   4.168   2.856   5.303
  101OSM   C10F10161   4.257   2.934   5.113
  101OSM   H10F10162   4.158   2.946   5.066
  101OSM   C11F10163   4.386   2.962   5.043
  101OSM   H11F10164   4.431   2.863   5.024
  101OSM   H11G10165   4.458   3.023   5.102
  101OSM   C12F10166   4.369   3.021   4.897
  101OSM   H12F10167   4.317   3.119   4.903
  101OSM   H12G10168   4.310   2.942   4.846
  101OSM   C13F10169   4.510   3.036   4.827
  101OSM   H13F10170   4.552   2.934   4.811
  101OSM   H13G10171   4.580   3.102   4.883
  101OSM   C14F10172   4.489   3.071   4.672
  101OSM   H14F10173   4.454   3.176   4.672
  101OSM   H14G10174   4.404   3.010   4.634
  101OSM   C15F10175   4.609   3.032   4.586
  101OSM   H15F10176   4.597   2.922   4.573
  101OSM   H15G10177   4.706   3.045   4.638
  101OSM   C16F10178   4.613   3.099   4.445
  101OSM   H16F10179   4.593   3.209   4.442
  101OSM   H16G10180   4.536   3.040   4.392
  101OSM   C17F10181   4.754   3.085   4.384
  101OSM   H17F10182   4.795   2.982   4.370
  101OSM   H17G10183   4.816   3.149   4.449
  101OSM   C18F10184   4.759   3.150   4.245
  101OSM   H18F10185   4.701   3.098   4.166
  101OSM   H18G10186   4.866   3.161   4.217
  101OSM   H18H10187   4.709   3.249   4.250
  102OSM      N10188   4.665   2.496   6.522
  102OSM    C1510189   4.752   2.614   6.519
  102OSM   H15A10190   4.805   2.633   6.426
  102OSM   H15B10191   4.830   2.599   6.592
  102OSM   H15C10192   4.700   2.705   6.542
  102OSM    C1410193   4.563   2.508   6.413
  102OSM   H14A10194   4.493   2.427   6.422
  102OSM   H14B10195   4.598   2.503   6.311
  102OSM   H14C10196   4.503   2.596   6.432
  102OSM    C1310197   4.740   2.368   6.483
  102OSM   H13A10198   4.773   2.381   6.381
  102OSM   H13B10199   4.667   2.289   6.477
  102OSM   H13C10200   4.819   2.344   6.553
  102OSM    C1210201   4.596   2.472   6.654
  102OSM   H12A10202   4.545   2.563   6.680
  102OSM   H12B10203   4.662   2.434   6.730
  102OSM    C1110204   4.485   2.364   6.648
  102OSM   H11A10205   4.402   2.395   6.580
  102OSM   H11B10206   4.434   2.355   6.746
  102OSM      P10207   4.426   2.125   6.574
  102OSM    O1310208   4.485   1.993   6.567
  102OSM    O1410209   4.306   2.131   6.667
  102OSM    O1110210   4.370   2.168   6.436
  102OSM    O1210211   4.540   2.229   6.612
  102OSM    C1S10212   4.443   2.164   6.323
  102OSM    H1S10213   4.484   2.061   6.316
  102OSM    H1T10214   4.530   2.233   6.318
  102OSM     NF10215   4.440   2.210   6.081
  102OSM    HNF10216   4.455   2.299   6.039
  102OSM    C2S10217   4.356   2.205   6.199
  102OSM    H2S10218   4.280   2.125   6.190
  102OSM    C3S10219   4.281   2.345   6.233
  102OSM    H3S10220   4.365   2.418   6.234
  102OSM     O310221   4.218   2.369   6.358
  102OSM    HO310222   4.264   2.306   6.414
  102OSM    C4S10223   4.186   2.395   6.123
  102OSM    H4S10224   4.103   2.323   6.112
  102OSM    C5S10225   4.194   2.509   6.052
  102OSM    H5S10226   4.288   2.566   6.056
  102OSM    C6S10227   4.092   2.561   5.953
  102OSM    H6S10228   4.044   2.658   5.981
  102OSM    H6T10229   4.004   2.493   5.951
  102OSM    C7S10230   4.119   2.568   5.804
  102OSM    H7S10231   4.134   2.462   5.774
  102OSM    H7T10232   4.209   2.630   5.788
  102OSM    C8S10233   3.998   2.624   5.725
  102OSM    H8S10234   3.969   2.725   5.759
  102OSM    H8T10235   3.918   2.548   5.719
  102OSM    C9S10236   4.035   2.631   5.571
  102OSM    H9S10237   4.070   2.528   5.549
  102OSM    H9T10238   4.127   2.693   5.566
  102OSM   C10S10239   3.924   2.667   5.479
  102OSM   H10S10240   3.951   2.761   5.429
  102OSM   H10T10241   3.833   2.697   5.535
  102OSM   C11S10242   3.880   2.559   5.378
  102OSM   H11S10243   3.784   2.523   5.419
  102OSM   H11T10244   3.953   2.474   5.382
  102OSM   C12S10245   3.873   2.613   5.228
  102OSM   H12S10246   3.866   2.724   5.231
  102OSM   H12T10247   3.788   2.564   5.176
  102OSM   C13S10248   3.998   2.586   5.144
  102OSM   H13S10249   4.019   2.477   5.151
  102OSM   H13T10250   4.088   2.638   5.183
  102OSM   C14S10251   3.979   2.617   4.999
  102OSM   H14S10252   4.081   2.594   4.960
  102OSM   H14T10253   3.950   2.723   4.980
  102OSM   C15S10254   3.881   2.516   4.930
  102OSM   H15S10255   3.778   2.545   4.957
  102OSM   H15T10256   3.897   2.410   4.959
  102OSM   C16S10257   3.889   2.535   4.769
  102OSM   H16S10258   3.986   2.489   4.742
  102OSM   H16T10259   3.881   2.645   4.760
  102OSM   C17S10260   3.777   2.447   4.710
  102OSM   H17S10261   3.777   2.343   4.749
  102OSM   H17T10262   3.785   2.446   4.600
  102OSM   C18S10263   3.634   2.504   4.735
  102OSM   H18S10264   3.609   2.502   4.843
  102OSM   H18T10265   3.560   2.439   4.684
  102OSM   H18U10266   3.625   2.605   4.689
  102OSM    C1F10267   4.499   2.100   6.028
  102OSM     OF10268   4.477   1.986   6.072
  102OSM    C2F10269   4.578   2.121   5.908
  102OSM    H2F10270   4.665   2.183   5.937
  102OSM    H2G10271   4.510   2.174   5.838
  102OSM    C3F10272   4.628   1.991   5.830
  102OSM    H3F10273   4.688   1.933   5.903
  102OSM    H3G10274   4.694   2.025   5.748
  102OSM    C4F10275   4.513   1.908   5.775
  102OSM    H4F10276   4.417   1.937   5.824
  102OSM    H4G10277   4.532   1.806   5.813
  102OSM    C5F10278   4.489   1.914   5.624
  102OSM    H5F10279   4.396   1.858   5.601
  102OSM    H5G10280   4.577   1.875   5.569
  102OSM    C6F10281   4.455   2.056   5.569
  102OSM    H6F10282   4.534   2.128   5.598
  102OSM    H6G10283   4.359   2.075   5.620
  102OSM    C7F10284   4.423   2.052   5.416
  102OSM    H7F10285   4.360   2.141   5.395
  102OSM    H7G10286   4.358   1.964   5.397
  102OSM    C8F10287   4.547   2.050   5.325
  102OSM    H8F10288   4.597   1.952   5.338
  102OSM    H8G10289   4.614   2.131   5.362
  102OSM    C9F10290   4.499   2.071   5.178
  102OSM    H9F10291   4.409   2.014   5.152
  102OSM   C10F10292   4.561   2.153   5.088
  102OSM   H10F10293   4.528   2.147   4.983
  102OSM   C11F10294   4.693   2.224   5.116
  102OSM   H11F10295   4.708   2.277   5.212
  102OSM   H11G10296   4.698   2.306   5.041
  102OSM   C12F10297   4.807   2.126   5.068
  102OSM   H12F10298   4.797   2.105   4.960
  102OSM   H12G10299   4.818   2.029   5.122
  102OSM   C13F10300   4.949   2.195   5.096
  102OSM   H13F10301   4.956   2.219   5.204
  102OSM   H13G10302   4.945   2.288   5.035
  102OSM   C14F10303   5.068   2.107   5.055
  102OSM   H14F10304   5.062   2.000   5.083
  102OSM   H14G10305   5.166   2.145   5.091
  102OSM   C15F10306   5.090   2.102   4.904
  102OSM   H15F10307   5.081   2.204   4.861
  102OSM   H15G10308   5.007   2.045   4.858
  102OSM   C16F10309   5.224   2.051   4.866
  102OSM   H16F10310   5.246   1.956   4.919
  102OSM   H16G10311   5.297   2.126   4.901
  102OSM   C17F10312   5.233   2.038   4.712
  102OSM   H17F10313   5.292   2.128   4.683
  102OSM   H17G10314   5.135   2.048   4.662
  102OSM   C18F10315   5.309   1.916   4.666
  102OSM   H18F10316   5.417   1.913   4.693
  102OSM   H18G10317   5.317   1.902   4.556
  102OSM   H18H10318   5.259   1.824   4.704
  103OSM      N10319   4.566   4.642   7.064
  103OSM    C1510320   4.684   4.546   7.064
  103OSM   H15A10321   4.705   4.517   7.166
  103OSM   H15B10322   4.777   4.591   7.032
  103OSM   H15C10323   4.659   4.462   7.001
  103OSM    C1410324   4.449   4.556   7.088
  103OSM   H14A10325   4.356   4.609   7.102
  103OSM   H14B10326   4.453   4.496   7.178
  103OSM   H14C10327   4.432   4.501   6.997
  103OSM    C1310328   4.579   4.741   7.177
  103OSM   H13A10329   4.566   4.695   7.274
  103OSM   H13B10330   4.505   4.819   7.168
  103OSM   H13C10331   4.675   4.792   7.178
  103OSM    C1210332   4.549   4.718   6.938
  103OSM   H12A10333   4.636   4.781   6.930
  103OSM   H12B10334   4.460   4.779   6.943
  103OSM    C1110335   4.523   4.645   6.803
  103OSM   H11A10336   4.603   4.572   6.778
  103OSM   H11B10337   4.531   4.723   6.724
  103OSM      P10338   4.266   4.659   6.761
  103OSM    O1310339   4.154   4.565   6.777
  103OSM    O1410340   4.261   4.785   6.838
  103OSM    O1110341   4.271   4.696   6.604
  103OSM    O1210342   4.399   4.576   6.793
  103OSM    C1S10343   4.304   4.582   6.518
  103OSM    H1S10344   4.262   4.483   6.542
  103OSM    H1T10345   4.415   4.572   6.512
  103OSM     NF10346   4.294   4.523   6.281
  103OSM    HNF10347   4.370   4.547   6.220
  103OSM    C2S10348   4.257   4.625   6.375
  103OSM    H2S10349   4.146   4.621   6.378
  103OSM    C3S10350   4.296   4.771   6.341
  103OSM    H3S10351   4.407   4.775   6.350
  103OSM     O310352   4.230   4.872   6.425
  103OSM    HO310353   4.217   4.822   6.507
  103OSM    C4S10354   4.250   4.798   6.201
  103OSM    H4S10355   4.142   4.786   6.187
  103OSM    C5S10356   4.318   4.823   6.091
  103OSM    H5S10357   4.426   4.822   6.107
  103OSM    C6S10358   4.273   4.839   5.948
  103OSM    H6S10359   4.294   4.936   5.899
  103OSM    H6T10360   4.163   4.824   5.937
  103OSM    C7S10361   4.320   4.718   5.876
  103OSM    H7S10362   4.250   4.632   5.888
  103OSM    H7T10363   4.419   4.684   5.912
  103OSM    C8S10364   4.323   4.743   5.728
  103OSM    H8S10365   4.376   4.667   5.666
  103OSM    H8T10366   4.394   4.826   5.707
  103OSM    C9S10367   4.176   4.763   5.664
  103OSM    H9S10368   4.113   4.828   5.728
  103OSM    H9T10369   4.124   4.665   5.655
  103OSM   C10S10370   4.195   4.830   5.529
  103OSM   H10S10371   4.279   4.787   5.471
  103OSM   H10T10372   4.225   4.936   5.545
  103OSM   C11S10373   4.067   4.828   5.441
  103OSM   H11S10374   3.980   4.885   5.481
  103OSM   H11T10375   4.033   4.722   5.431
  103OSM   C12S10376   4.087   4.880   5.297
  103OSM   H12S10377   3.997   4.841   5.246
  103OSM   H12T10378   4.169   4.822   5.249
  103OSM   C13S10379   4.108   5.026   5.273
  103OSM   H13S10380   4.208   5.048   5.316
  103OSM   H13T10381   4.021   5.085   5.309
  103OSM   C14S10382   4.133   5.058   5.124
  103OSM   H14S10383   4.226   5.013   5.083
  103OSM   H14T10384   4.136   5.169   5.114
  103OSM   C15S10385   4.021   5.015   5.031
  103OSM   H15S10386   3.920   5.029   5.075
  103OSM   H15T10387   4.029   4.905   5.023
  103OSM   C16S10388   4.030   5.072   4.895
  103OSM   H16S10389   4.133   5.106   4.872
  103OSM   H16T10390   3.976   5.169   4.900
  103OSM   C17S10391   3.979   4.987   4.777
  103OSM   H17S10392   3.886   4.940   4.815
  103OSM   H17T10393   4.057   4.909   4.760
  103OSM   C18S10394   3.959   5.057   4.641
  103OSM   H18S10395   3.856   5.098   4.641
  103OSM   H18T10396   3.969   4.974   4.568
  103OSM   H18U10397   4.043   5.127   4.623
  103OSM    C1F10398   4.237   4.402   6.275
  103OSM     OF10399   4.132   4.378   6.339
  103OSM    C2F10400   4.278   4.300   6.172
  103OSM    H2F10401   4.328   4.218   6.229
  103OSM    H2G10402   4.346   4.347   6.098
  103OSM    C3F10403   4.165   4.236   6.100
  103OSM    H3F10404   4.091   4.198   6.174
  103OSM    H3G10405   4.216   4.154   6.047
  103OSM    C4F10406   4.111   4.330   5.988
  103OSM    H4F10407   4.136   4.434   6.017
  103OSM    H4G10408   4.000   4.326   5.982
  103OSM    C5F10409   4.171   4.304   5.852
  103OSM    H5F10410   4.159   4.194   5.838
  103OSM    H5G10411   4.276   4.332   5.830
  103OSM    C6F10412   4.089   4.370   5.738
  103OSM    H6F10413   4.073   4.475   5.768
  103OSM    H6G10414   3.993   4.316   5.725
  103OSM    C7F10415   4.165   4.366   5.601
  103OSM    H7F10416   4.192   4.263   5.569
  103OSM    H7G10417   4.261   4.420   5.610
  103OSM    C8F10418   4.073   4.424   5.488
  103OSM    H8F10419   4.066   4.531   5.517
  103OSM    H8G10420   3.969   4.386   5.498
  103OSM    C9F10421   4.137   4.409   5.354
  103OSM    H9F10422   4.235   4.361   5.369
  103OSM   C10F10423   4.073   4.442   5.236
  103OSM   H10F10424   4.119   4.415   5.139
  103OSM   C11F10425   3.939   4.505   5.216
  103OSM   H11F10426   3.904   4.555   5.308
  103OSM   H11G10427   3.866   4.423   5.199
  103OSM   C12F10428   3.939   4.608   5.104
  103OSM   H12F10429   4.040   4.646   5.076
  103OSM   H12G10430   3.883   4.699   5.137
  103OSM   C13F10431   3.875   4.547   4.980
  103OSM   H13F10432   3.781   4.494   5.005
  103OSM   H13G10433   3.937   4.477   4.920
  103OSM   C14F10434   3.821   4.650   4.877
  103OSM   H14F10435   3.908   4.707   4.838
  103OSM   H14G10436   3.749   4.719   4.926
  103OSM   C15F10437   3.743   4.588   4.762
  103OSM   H15F10438   3.659   4.535   4.813
  103OSM   H15G10439   3.802   4.511   4.708
  103OSM   C16F10440   3.698   4.700   4.669
  103OSM   H16F10441   3.650   4.652   4.581
  103OSM   H16G10442   3.783   4.758   4.627
  103OSM   C17F10443   3.591   4.792   4.729
  103OSM   H17F10444   3.643   4.843   4.813
  103OSM   H17G10445   3.499   4.743   4.766
  103OSM   C18F10446   3.562   4.909   4.636
  103OSM   H18F10447   3.522   4.866   4.542
  103OSM   H18G10448   3.650   4.970   4.609
  103OSM   H18H10449   3.490   4.979   4.681
  104OSM      N10450   5.532   3.215   6.805
  104OSM    C1510451   5.632   3.292   6.890
  104OSM   H15A10452   5.614   3.285   6.996
  104OSM   H15B10453   5.638   3.398   6.868
  104OSM   H15C10454   5.730   3.255   6.867
  104OSM    C1410455   5.394   3.257   6.836
  104OSM   H14A10456   5.331   3.242   6.750
  104OSM   H14B10457   5.379   3.362   6.853
  104OSM   H14C10458   5.358   3.197   6.918
  104OSM    C1310459   5.554   3.253   6.660
  104OSM   H13A10460   5.542   3.360   6.664
  104OSM   H13B10461   5.481   3.213   6.591
  104OSM   H13C10462   5.654   3.227   6.629
  104OSM    C1210463   5.540   3.072   6.836
  104OSM   H12A10464   5.530   3.050   6.941
  104OSM   H12B10465   5.645   3.048   6.826
  104OSM    C1110466   5.468   2.970   6.751
  104OSM   H11A10467   5.511   2.979   6.649
  104OSM   H11B10468   5.363   3.003   6.741
  104OSM      P10469   5.598   2.751   6.828
  104OSM    O1310470   5.696   2.825   6.908
  104OSM    O1410471   5.549   2.625   6.890
  104OSM    O1110472   5.656   2.726   6.682
  104OSM    O1210473   5.476   2.846   6.810
  104OSM    C1S10474   5.561   2.683   6.582
  104OSM    H1S10475   5.471   2.748   6.573
  104OSM    H1T10476   5.523   2.582   6.606
  104OSM     NF10477   5.541   2.669   6.344
  104OSM    HNF10478   5.504   2.579   6.320
  104OSM    C2S10479   5.634   2.676   6.447
  104OSM    H2S10480   5.686   2.773   6.434
  104OSM    C3S10481   5.748   2.564   6.452
  104OSM    H3S10482   5.693   2.468   6.467
  104OSM     O310483   5.826   2.577   6.573
  104OSM    HO310484   5.777   2.642   6.623
  104OSM    C4S10485   5.831   2.552   6.326
  104OSM    H4S10486   5.799   2.482   6.248
  104OSM    C5S10487   5.940   2.628   6.303
  104OSM    H5S10488   5.977   2.688   6.388
  104OSM    C6S10489   6.035   2.605   6.187
  104OSM    H6S10490   5.990   2.544   6.106
  104OSM    H6T10491   6.133   2.560   6.215
  104OSM    C7S10492   6.065   2.738   6.117
  104OSM    H7S10493   6.143   2.798   6.169
  104OSM    H7T10494   5.977   2.805   6.128
  104OSM    C8S10495   6.098   2.733   5.973
  104OSM    H8S10496   6.172   2.656   5.945
  104OSM    H8T10497   6.130   2.833   5.938
  104OSM    C9S10498   5.977   2.698   5.879
  104OSM    H9S10499   5.894   2.772   5.876
  104OSM    H9T10500   5.941   2.595   5.901
  104OSM   C10S10501   6.019   2.705   5.736
  104OSM   H10S10502   6.110   2.646   5.714
  104OSM   H10T10503   6.035   2.804   5.688
  104OSM   C11S10504   5.908   2.649   5.650
  104OSM   H11S10505   5.808   2.694   5.670
  104OSM   H11T10506   5.904   2.540   5.671
  104OSM   C12S10507   5.937   2.660   5.502
  104OSM   H12S10508   6.031   2.607   5.476
  104OSM   H12T10509   5.960   2.762   5.466
  104OSM   C13S10510   5.836   2.591   5.413
  104OSM   H13S10511   5.730   2.611   5.441
  104OSM   H13T10512   5.849   2.480   5.415
  104OSM   C14S10513   5.853   2.647   5.266
  104OSM   H14S10514   5.864   2.757   5.267
  104OSM   H14T10515   5.771   2.612   5.201
  104OSM   C15S10516   5.977   2.589   5.202
  104OSM   H15S10517   5.970   2.482   5.174
  104OSM   H15T10518   6.065   2.606   5.267
  104OSM   C16S10519   6.023   2.663   5.072
  104OSM   H16S10520   6.127   2.630   5.052
  104OSM   H16T10521   6.015   2.773   5.064
  104OSM   C17S10522   5.938   2.609   4.956
  104OSM   H17S10523   5.831   2.633   4.979
  104OSM   H17T10524   5.946   2.502   4.928
  104OSM   C18S10525   5.978   2.678   4.818
  104OSM   H18S10526   5.916   2.770   4.810
  104OSM   H18T10527   5.945   2.618   4.730
  104OSM   H18U10528   6.089   2.686   4.816
  104OSM    C1F10529   5.499   2.778   6.286
  104OSM     OF10530   5.527   2.887   6.332
  104OSM    C2F10531   5.404   2.762   6.174
  104OSM    H2F10532   5.328   2.842   6.184
  104OSM    H2G10533   5.365   2.658   6.186
  104OSM    C3F10534   5.488   2.780   6.047
  104OSM    H3F10535   5.571   2.709   6.026
  104OSM    H3G10536   5.528   2.883   6.060
  104OSM    C4F10537   5.393   2.798   5.923
  104OSM    H4F10538   5.320   2.881   5.934
  104OSM    H4G10539   5.320   2.715   5.921
  104OSM    C5F10540   5.475   2.827   5.797
  104OSM    H5F10541   5.554   2.748   5.787
  104OSM    H5G10542   5.531   2.919   5.825
  104OSM    C6F10543   5.403   2.839   5.658
  104OSM    H6F10544   5.474   2.810   5.578
  104OSM    H6G10545   5.366   2.943   5.654
  104OSM    C7F10546   5.280   2.756   5.649
  104OSM    H7F10547   5.221   2.775   5.741
  104OSM    H7G10548   5.311   2.650   5.651
  104OSM    C8F10549   5.191   2.784   5.526
  104OSM    H8F10550   5.170   2.893   5.533
  104OSM    H8G10551   5.101   2.719   5.525
  104OSM    C9F10552   5.285   2.744   5.412
  104OSM    H9F10553   5.304   2.636   5.401
  104OSM   C10F10554   5.337   2.827   5.320
  104OSM   H10F10555   5.401   2.789   5.240
  104OSM   C11F10556   5.329   2.975   5.311
  104OSM   H11F10557   5.423   3.021   5.276
  104OSM   H11G10558   5.293   3.026   5.403
  104OSM   C12F10559   5.226   3.010   5.201
  104OSM   H12F10560   5.187   3.113   5.217
  104OSM   H12G10561   5.135   2.950   5.221
  104OSM   C13F10562   5.274   2.999   5.053
  104OSM   H13F10563   5.298   2.894   5.024
  104OSM   H13G10564   5.369   3.050   5.026
  104OSM   C14F10565   5.183   3.063   4.949
  104OSM   H14F10566   5.242   3.086   4.858
  104OSM   H14G10567   5.150   3.164   4.982
  104OSM   C15F10568   5.062   2.971   4.911
  104OSM   H15F10569   4.998   2.961   5.002
  104OSM   H15G10570   5.110   2.873   4.893
  104OSM   C16F10571   4.981   3.004   4.780
  104OSM   H16F10572   4.926   3.100   4.792
  104OSM   H16G10573   4.911   2.919   4.766
  104OSM   C17F10574   5.062   3.012   4.641
  104OSM   H17F10575   5.128   3.101   4.639
  104OSM   H17G10576   4.979   3.027   4.568
  104OSM   C18F10577   5.131   2.879   4.608
  104OSM   H18F10578   5.065   2.794   4.635
  104OSM   H18G10579   5.234   2.874   4.647
  104OSM   H18H10580   5.137   2.882   4.497
  105OSM      N10581   6.121   3.740   7.056
  105OSM    C1510582   6.164   3.794   6.920
  105OSM   H15A10583   6.076   3.817   6.861
  105OSM   H15B10584   6.234   3.733   6.866
  105OSM   H15C10585   6.213   3.889   6.937
  105OSM    C1410586   6.239   3.740   7.149
  105OSM   H14A10587   6.265   3.843   7.165
  105OSM   H14B10588   6.326   3.690   7.109
  105OSM   H14C10589   6.213   3.703   7.247
  105OSM    C1310590   6.030   3.849   7.107
  105OSM   H13A10591   5.940   3.858   7.048
  105OSM   H13B10592   6.064   3.951   7.106
  105OSM   H13C10593   6.008   3.822   7.209
  105OSM    C1210594   6.061   3.598   7.056
  105OSM   H12A10595   6.069   3.561   7.157
  105OSM   H12B10596   6.119   3.538   6.988
  105OSM    C1110597   5.907   3.586   7.011
  105OSM   H11A10598   5.844   3.634   7.089
  105OSM   H11B10599   5.883   3.478   7.014
  105OSM      P10600   5.784   3.744   6.844
  105OSM    O1310601   5.665   3.669   6.796
  105OSM    O1410602   5.761   3.847   6.952
  105OSM    O1110603   5.842   3.821   6.726
  105OSM    O1210604   5.891   3.639   6.883
  105OSM    C1S10605   5.942   3.770   6.637
  105OSM    H1S10606   5.964   3.663   6.659
  105OSM    H1T10607   6.032   3.834   6.645
  105OSM     NF10608   5.985   3.720   6.390
  105OSM    HNF10609   6.061   3.777   6.363
  105OSM    C2S10610   5.892   3.786   6.487
  105OSM    H2S10611   5.797   3.729   6.483
  105OSM    C3S10612   5.871   3.939   6.451
  105OSM    H3S10613   5.972   3.985   6.444
  105OSM     O310614   5.788   4.009   6.544
  105OSM    HO310615   5.769   3.944   6.613
  105OSM    C4S10616   5.805   3.953   6.313
  105OSM    H4S10617   5.881   3.969   6.234
  105OSM    C5S10618   5.674   3.934   6.280
  105OSM    H5S10619   5.595   3.896   6.347
  105OSM    C6S10620   5.618   3.943   6.137
  105OSM    H6S10621   5.551   4.032   6.131
  105OSM    H6T10622   5.548   3.857   6.129
  105OSM    C7S10623   5.715   3.931   6.018
  105OSM    H7S10624   5.746   3.826   6.005
  105OSM    H7T10625   5.805   3.996   6.025
  105OSM    C8S10626   5.631   3.960   5.895
  105OSM    H8S10627   5.580   4.058   5.903
  105OSM    H8T10628   5.558   3.876   5.889
  105OSM    C9S10629   5.729   3.958   5.781
  105OSM    H9S10630   5.795   3.869   5.791
  105OSM    H9T10631   5.788   4.051   5.797
  105OSM   C10S10632   5.652   3.963   5.644
  105OSM   H10S10633   5.602   4.062   5.638
  105OSM   H10T10634   5.566   3.892   5.652
  105OSM   C11S10635   5.744   3.948   5.518
  105OSM   H11S10636   5.787   3.846   5.525
  105OSM   H11T10637   5.823   4.024   5.537
  105OSM   C12S10638   5.657   3.956   5.391
  105OSM   H12S10639   5.621   4.060   5.375
  105OSM   H12T10640   5.569   3.889   5.402
  105OSM   C13S10641   5.742   3.922   5.270
  105OSM   H13S10642   5.842   3.882   5.296
  105OSM   H13T10643   5.751   4.010   5.203
  105OSM   C14S10644   5.666   3.828   5.183
  105OSM   H14S10645   5.633   3.735   5.235
  105OSM   H14T10646   5.742   3.806   5.105
  105OSM   C15S10647   5.541   3.899   5.124
  105OSM   H15S10648   5.549   4.009   5.108
  105OSM   H15T10649   5.453   3.880   5.189
  105OSM   C16S10650   5.509   3.837   4.991
  105OSM   H16S10651   5.402   3.857   4.968
  105OSM   H16T10652   5.503   3.726   4.999
  105OSM   C17S10653   5.588   3.883   4.874
  105OSM   H17S10654   5.558   3.828   4.782
  105OSM   H17T10655   5.690   3.844   4.895
  105OSM   C18S10656   5.596   4.034   4.848
  105OSM   H18S10657   5.497   4.079   4.827
  105OSM   H18T10658   5.653   4.045   4.753
  105OSM   H18U10659   5.648   4.093   4.927
  105OSM    C1F10660   5.977   3.588   6.370
  105OSM     OF10661   5.892   3.522   6.424
  105OSM    C2F10662   6.082   3.522   6.281
  105OSM    H2F10663   6.135   3.445   6.341
  105OSM    H2G10664   6.154   3.602   6.251
  105OSM    C3F10665   6.024   3.457   6.154
  105OSM    H3F10666   5.956   3.520   6.094
  105OSM    H3G10667   5.963   3.367   6.178
  105OSM    C4F10668   6.141   3.400   6.070
  105OSM    H4F10669   6.171   3.312   6.130
  105OSM    H4G10670   6.221   3.475   6.057
  105OSM    C5F10671   6.104   3.357   5.924
  105OSM    H5F10672   6.009   3.298   5.929
  105OSM    H5G10673   6.190   3.303   5.880
  105OSM    C6F10674   6.068   3.472   5.821
  105OSM    H6F10675   6.170   3.514   5.808
  105OSM    H6G10676   6.002   3.548   5.868
  105OSM    C7F10677   6.009   3.427   5.692
  105OSM    H7F10678   5.901   3.403   5.706
  105OSM    H7G10679   6.063   3.339   5.650
  105OSM    C8F10680   5.991   3.545   5.590
  105OSM    H8F10681   6.094   3.581   5.575
  105OSM    H8G10682   5.947   3.630   5.647
  105OSM    C9F10683   5.926   3.525   5.459
  105OSM    H9F10684   5.834   3.577   5.431
  105OSM   C10F10685   5.976   3.448   5.357
  105OSM   H10F10686   5.911   3.440   5.268
  105OSM   C11F10687   6.105   3.377   5.348
  105OSM   H11F10688   6.099   3.273   5.385
  105OSM   H11G10689   6.175   3.427   5.419
  105OSM   C12F10690   6.175   3.369   5.219
  105OSM   H12F10691   6.280   3.336   5.236
  105OSM   H12G10692   6.182   3.465   5.164
  105OSM   C13F10693   6.110   3.257   5.123
  105OSM   H13F10694   6.010   3.290   5.088
  105OSM   H13G10695   6.113   3.162   5.180
  105OSM   C14F10696   6.212   3.241   5.009
  105OSM   H14F10697   6.307   3.207   5.055
  105OSM   H14G10698   6.242   3.338   4.963
  105OSM   C15F10699   6.167   3.140   4.902
  105OSM   H15F10700   6.076   3.183   4.855
  105OSM   H15G10701   6.137   3.047   4.956
  105OSM   C16F10702   6.282   3.120   4.803
  105OSM   H16F10703   6.374   3.089   4.857
  105OSM   H16G10704   6.304   3.209   4.741
  105OSM   C17F10705   6.255   2.997   4.712
  105OSM   H17F10706   6.264   2.911   4.781
  105OSM   H17G10707   6.343   3.009   4.644
  105OSM   C18F10708   6.124   2.996   4.633
  105OSM   H18F10709   6.042   3.000   4.708
  105OSM   H18G10710   6.110   2.896   4.587
  105OSM   H18H10711   6.103   3.080   4.564
  106OSM      N10712   4.652   1.833   6.914
  106OSM    C1510713   4.778   1.905   6.901
  106OSM   H15A10714   4.845   1.866   6.825
  106OSM   H15B10715   4.827   1.909   6.997
  106OSM   H15C10716   4.753   2.006   6.874
  106OSM    C1410717   4.690   1.701   6.957
  106OSM   H14A10718   4.750   1.706   7.047
  106OSM   H14B10719   4.746   1.644   6.884
  106OSM   H14C10720   4.599   1.645   6.973
  106OSM    C1310721   4.561   1.901   7.010
  106OSM   H13A10722   4.559   2.008   6.999
  106OSM   H13B10723   4.597   1.885   7.110
  106OSM   H13C10724   4.457   1.873   6.998
  106OSM    C1210725   4.581   1.818   6.777
  106OSM   H12A10726   4.656   1.777   6.712
  106OSM   H12B10727   4.573   1.917   6.734
  106OSM    C1110728   4.438   1.757   6.774
  106OSM   H11A10729   4.396   1.777   6.674
  106OSM   H11B10730   4.381   1.818   6.848
  106OSM      P10731   4.466   1.509   6.709
  106OSM    O1310732   4.607   1.467   6.741
  106OSM    O1410733   4.366   1.405   6.726
  106OSM    O1110734   4.443   1.563   6.562
  106OSM    O1210735   4.428   1.622   6.808
  106OSM    C1S10736   4.551   1.594   6.471
  106OSM    H1S10737   4.652   1.554   6.493
  106OSM    H1T10738   4.551   1.704   6.454
  106OSM     NF10739   4.647   1.556   6.251
  106OSM    HNF10740   4.651   1.638   6.194
  106OSM    C2S10741   4.531   1.528   6.328
  106OSM    H2S10742   4.508   1.420   6.340
  106OSM    C3S10743   4.396   1.591   6.280
  106OSM    H3S10744   4.398   1.701   6.290
  106OSM     O310745   4.287   1.540   6.358
  106OSM    HO310746   4.321   1.534   6.447
  106OSM    C4S10747   4.367   1.547   6.137
  106OSM    H4S10748   4.361   1.439   6.116
  106OSM    C5S10749   4.367   1.634   6.035
  106OSM    H5S10750   4.385   1.740   6.058
  106OSM    C6S10751   4.339   1.606   5.892
  106OSM    H6S10752   4.373   1.502   5.874
  106OSM    H6T10753   4.396   1.670   5.821
  106OSM    C7S10754   4.186   1.609   5.866
  106OSM    H7S10755   4.151   1.714   5.866
  106OSM    H7T10756   4.139   1.544   5.942
  106OSM    C8S10757   4.140   1.546   5.727
  106OSM    H8S10758   4.031   1.559   5.742
  106OSM    H8T10759   4.165   1.438   5.719
  106OSM    C9S10760   4.205   1.602   5.596
  106OSM    H9S10761   4.315   1.616   5.604
  106OSM    H9T10762   4.163   1.703   5.573
  106OSM   C10S10763   4.183   1.517   5.470
  106OSM   H10S10764   4.075   1.499   5.455
  106OSM   H10T10765   4.232   1.418   5.482
  106OSM   C11S10766   4.240   1.575   5.340
  106OSM   H11S10767   4.349   1.555   5.330
  106OSM   H11T10768   4.209   1.681   5.335
  106OSM   C12S10769   4.184   1.522   5.215
  106OSM   H12S10770   4.080   1.557   5.197
  106OSM   H12T10771   4.177   1.412   5.215
  106OSM   C13S10772   4.268   1.559   5.095
  106OSM   H13S10773   4.335   1.477   5.063
  106OSM   H13T10774   4.326   1.647   5.130
  106OSM   C14S10775   4.187   1.600   4.976
  106OSM   H14S10776   4.125   1.682   5.018
  106OSM   H14T10777   4.116   1.521   4.943
  106OSM   C15S10778   4.258   1.653   4.854
  106OSM   H15S10779   4.338   1.578   4.834
  106OSM   H15T10780   4.299   1.753   4.879
  106OSM   C16S10781   4.161   1.666   4.733
  106OSM   H16S10782   4.057   1.684   4.766
  106OSM   H16T10783   4.156   1.566   4.684
  106OSM   C17S10784   4.204   1.765   4.624
  106OSM   H17S10785   4.164   1.866   4.646
  106OSM   H17T10786   4.149   1.745   4.529
  106OSM   C18S10787   4.348   1.768   4.590
  106OSM   H18S10788   4.369   1.836   4.504
  106OSM   H18T10789   4.377   1.668   4.551
  106OSM   H18U10790   4.411   1.803   4.674
  106OSM    C1F10791   4.762   1.486   6.257
  106OSM     OF10792   4.780   1.398   6.345
  106OSM    C2F10793   4.875   1.518   6.172
  106OSM    H2F10794   4.974   1.495   6.216
  106OSM    H2G10795   4.884   1.627   6.152
  106OSM    C3F10796   4.855   1.453   6.036
  106OSM    H3F10797   4.847   1.342   6.046
  106OSM    H3G10798   4.950   1.475   5.984
  106OSM    C4F10799   4.746   1.519   5.947
  106OSM    H4F10800   4.758   1.626   5.971
  106OSM    H4G10801   4.641   1.492   5.974
  106OSM    C5F10802   4.773   1.500   5.795
  106OSM    H5F10803   4.802   1.394   5.779
  106OSM    H5G10804   4.863   1.561   5.772
  106OSM    C6F10805   4.672   1.541   5.686
  106OSM    H6F10806   4.680   1.650   5.664
  106OSM    H6G10807   4.565   1.522   5.709
  106OSM    C7F10808   4.710   1.473   5.557
  106OSM    H7F10809   4.695   1.364   5.572
  106OSM    H7G10810   4.818   1.494   5.546
  106OSM    C8F10811   4.627   1.526   5.431
  106OSM    H8F10812   4.636   1.636   5.420
  106OSM    H8G10813   4.520   1.496   5.434
  106OSM    C9F10814   4.686   1.462   5.304
  106OSM    H9F10815   4.721   1.360   5.323
  106OSM   C10F10816   4.701   1.516   5.181
  106OSM   H10F10817   4.749   1.455   5.103
  106OSM   C11F10818   4.667   1.657   5.138
  106OSM   H11F10819   4.709   1.734   5.207
  106OSM   H11G10820   4.559   1.663   5.162
  106OSM   C12F10821   4.706   1.685   4.995
  106OSM   H12F10822   4.682   1.596   4.932
  106OSM   H12G10823   4.814   1.692   4.972
  106OSM   C13F10824   4.632   1.810   4.940
  106OSM   H13F10825   4.668   1.885   5.014
  106OSM   H13G10826   4.525   1.797   4.969
  106OSM   C14F10827   4.641   1.819   4.791
  106OSM   H14F10828   4.569   1.898   4.761
  106OSM   H14G10829   4.599   1.727   4.745
  106OSM   C15F10830   4.780   1.849   4.731
  106OSM   H15F10831   4.855   1.770   4.754
  106OSM   H15G10832   4.819   1.950   4.759
  106OSM   C16F10833   4.769   1.856   4.581
  106OSM   H16F10834   4.734   1.753   4.556
  106OSM   H16G10835   4.871   1.841   4.539
  106OSM   C17F10836   4.700   1.982   4.526
  106OSM   H17F10837   4.601   1.983   4.577
  106OSM   H17G10838   4.681   1.971   4.417
  106OSM   C18F10839   4.757   2.124   4.554
  106OSM   H18F10840   4.770   2.141   4.663
  106OSM   H18G10841   4.689   2.192   4.499
  106OSM   H18H10842   4.852   2.132   4.498
  107OSM      N10843   4.025   6.135   6.767
  107OSM    C1510844   4.005   6.006   6.847
  107OSM   H15A10845   3.921   6.007   6.915
  107OSM   H15B10846   4.086   5.985   6.916
  107OSM   H15C10847   3.996   5.926   6.776
  107OSM    C1410848   4.072   6.243   6.856
  107OSM   H14A10849   4.160   6.212   6.911
  107OSM   H14B10850   3.998   6.251   6.934
  107OSM   H14C10851   4.077   6.338   6.803
  107OSM    C1310852   4.126   6.105   6.666
  107OSM   H13A10853   4.168   6.192   6.618
  107OSM   H13B10854   4.090   6.035   6.593
  107OSM   H13C10855   4.219   6.064   6.702
  107OSM    C1210856   3.885   6.159   6.702
  107OSM   H12A10857   3.813   6.172   6.782
  107OSM   H12B10858   3.853   6.070   6.650
  107OSM    C1110859   3.873   6.275   6.594
  107OSM   H11A10860   3.774   6.273   6.543
  107OSM   H11B10861   3.945   6.255   6.513
  107OSM      P10862   3.968   6.527   6.607
  107OSM    O1310863   3.899   6.650   6.646
  107OSM    O1410864   4.111   6.508   6.647
  107OSM    O1110865   3.958   6.511   6.450
  107OSM    O1210866   3.883   6.405   6.660
  107OSM    C1S10867   3.826   6.514   6.385
  107OSM    H1S10868   3.771   6.604   6.421
  107OSM    H1T10869   3.761   6.428   6.411
  107OSM     NF10870   3.705   6.551   6.162
  107OSM    HNF10871   3.654   6.476   6.119
  107OSM    C2S10872   3.832   6.516   6.231
  107OSM    H2S10873   3.902   6.602   6.225
  107OSM    C3S10874   3.898   6.393   6.177
  107OSM    H3S10875   3.836   6.303   6.199
  107OSM     O310876   4.024   6.361   6.228
  107OSM    HO310877   4.030   6.418   6.305
  107OSM    C4S10878   3.915   6.394   6.032
  107OSM    H4S10879   3.981   6.480   6.013
  107OSM    C5S10880   3.859   6.326   5.931
  107OSM    H5S10881   3.783   6.251   5.956
  107OSM    C6S10882   3.878   6.347   5.781
  107OSM    H6S10883   3.777   6.345   5.734
  107OSM    H6T10884   3.931   6.256   5.746
  107OSM    C7S10885   3.955   6.469   5.732
  107OSM    H7S10886   4.055   6.467   5.781
  107OSM    H7T10887   3.913   6.569   5.754
  107OSM    C8S10888   3.982   6.463   5.581
  107OSM    H8S10889   3.881   6.490   5.545
  107OSM    H8T10890   4.012   6.363   5.542
  107OSM    C9S10891   4.085   6.570   5.520
  107OSM    H9S10892   4.185   6.531   5.550
  107OSM    H9T10893   4.069   6.672   5.559
  107OSM   C10S10894   4.079   6.567   5.365
  107OSM   H10S10895   3.972   6.576   5.335
  107OSM   H10T10896   4.095   6.465   5.325
  107OSM   C11S10897   4.174   6.659   5.302
  107OSM   H11S10898   4.280   6.650   5.332
  107OSM   H11T10899   4.136   6.760   5.327
  107OSM   C12S10900   4.173   6.635   5.153
  107OSM   H12S10901   4.066   6.651   5.125
  107OSM   H12T10902   4.211   6.534   5.127
  107OSM   C13S10903   4.259   6.723   5.069
  107OSM   H13S10904   4.367   6.707   5.089
  107OSM   H13T10905   4.225   0.007   5.092
  107OSM   C14S10906   4.236   6.699   4.912
  107OSM   H14S10907   4.128   6.677   4.894
  107OSM   H14T10908   4.296   6.611   4.881
  107OSM   C15S10909   4.278   0.002   4.830
  107OSM   H15S10910   4.211   0.081   4.870
  107OSM   H15T10911   4.252   6.810   4.723
  107OSM   C16S10912   4.422   0.053   4.843
  107OSM   H16S10913   4.444   0.067   4.951
  107OSM   H16T10914   4.436   0.155   4.802
  107OSM   C17S10915   4.531   6.774   4.790
  107OSM   H17S10916   4.504   6.675   4.832
  107OSM   H17T10917   4.633   6.789   4.832
  107OSM   C18S10918   4.540   6.763   4.634
  107OSM   H18S10919   4.441   6.723   4.605
  107OSM   H18T10920   4.634   6.710   4.605
  107OSM   H18U10921   4.543   0.050   4.602
  107OSM    C1F10922   3.647   6.669   6.162
  107OSM     OF10923   3.706   6.762   6.220
  107OSM    C2F10924   3.506   6.673   6.097
  107OSM    H2F10925   3.452   6.729   6.176
  107OSM    H2G10926   3.479   6.565   6.092
  107OSM    C3F10927   3.495   6.751   5.969
  107OSM    H3F10928   3.534   0.035   5.977
  107OSM    H3G10929   3.389   6.766   5.939
  107OSM    C4F10930   3.578   6.681   5.858
  107OSM    H4F10931   3.556   6.572   5.865
  107OSM    H4G10932   3.688   6.691   5.872
  107OSM    C5F10933   3.540   6.721   5.718
  107OSM    H5F10934   3.564   0.009   5.705
  107OSM    H5G10935   3.430   6.716   5.700
  107OSM    C6F10936   3.617   6.637   5.612
  107OSM    H6F10937   3.588   6.531   5.623
  107OSM    H6G10938   3.727   6.638   5.628
  107OSM    C7F10939   3.573   6.690   5.475
  107OSM    H7F10940   3.575   6.800   5.459
  107OSM    H7G10941   3.464   6.675   5.458
  107OSM    C8F10942   3.640   6.624   5.353
  107OSM    H8F10943   3.751   6.634   5.350
  107OSM    H8G10944   3.595   6.690   5.275
  107OSM    C9F10945   3.596   6.483   5.326
  107OSM    H9F10946   3.568   6.431   5.418
  107OSM   C10F10947   3.561   6.438   5.208
  107OSM   H10F10948   3.535   6.332   5.213
  107OSM   C11F10949   3.562   6.497   5.068
  107OSM   H11F10950   3.599   6.602   5.065
  107OSM   H11G10951   3.458   6.500   5.030
  107OSM   C12F10952   3.643   6.422   4.955
  107OSM   H12F10953   3.620   6.313   4.961
  107OSM   H12G10954   3.749   6.446   4.977
  107OSM   C13F10955   3.626   6.474   4.814
  107OSM   H13F10956   3.521   6.452   4.783
  107OSM   H13G10957   3.688   6.404   4.754
  107OSM   C14F10958   3.654   6.621   4.788
  107OSM   H14F10959   3.755   6.648   4.827
  107OSM   H14G10960   3.582   6.676   4.853
  107OSM   C15F10961   3.636   6.667   4.646
  107OSM   H15F10962   3.588   6.767   4.648
  107OSM   H15G10963   3.562   6.598   4.601
  107OSM   C16F10964   3.760   6.665   4.559
  107OSM   H16F10965   3.808   6.565   4.568
  107OSM   H16G10966   3.824   6.746   4.599
  107OSM   C17F10967   3.723   6.681   4.414
  107OSM   H17F10968   3.650   6.604   4.380
  107OSM   H17G10969   3.818   6.667   4.359
  107OSM   C18F10970   3.670   0.000   4.374
  107OSM   H18F10971   3.592   0.025   4.450
  107OSM   H18G10972   3.625   0.012   4.273
  107OSM   H18H10973   3.746   0.081   4.376
  108OSM      N10974   6.476   5.873   6.943
  108OSM    C1510975   6.601   5.948   6.950
  108OSM   H15A10976   6.612   6.006   6.860
  108OSM   H15B10977   6.685   5.880   6.952
  108OSM   H15C10978   6.609   6.005   7.042
  108OSM    C1410979   6.472   5.769   7.051
  108OSM   H14A10980   6.383   5.708   7.040
  108OSM   H14B10981   6.480   5.814   7.148
  108OSM   H14C10982   6.561   5.708   7.046
  108OSM    C1310983   6.356   5.971   6.954
  108OSM   H13A10984   6.263   5.920   6.936
  108OSM   H13B10985   6.380   6.052   6.887
  108OSM   H13C10986   6.346   6.016   7.051
  108OSM    C1210987   6.467   5.810   6.805
  108OSM   H12A10988   6.554   5.746   6.792
  108OSM   H12B10989   6.480   5.882   6.726
  108OSM    C1110990   6.334   5.743   6.768
  108OSM   H11A10991   6.326   5.668   6.849
  108OSM   H11B10992   6.343   5.687   6.672
  108OSM      P10993   6.168   5.942   6.656
  108OSM    O1310994   6.020   5.957   6.663
  108OSM    O1410995   6.242   6.067   6.680
  108OSM    O1110996   6.211   5.882   6.516
  108OSM    O1210997   6.221   5.837   6.762
  108OSM    C1S10998   6.215   5.961   6.399
  108OSM    H1S10999   6.275   6.054   6.397
  108OSM    H1T11000   6.110   5.985   6.373
  108OSM     NF11001   6.306   5.961   6.170
  108OSM    HNF11002   6.239   5.972   6.097
  108OSM    C2S11003   6.270   5.877   6.285
  108OSM    H2S11004   6.365   5.826   6.314
  108OSM    C3S11005   6.166   5.758   6.246
  108OSM    H3S11006   6.084   5.819   6.203
  108OSM     O311007   6.116   5.683   6.355
  108OSM    HO311008   6.125   5.748   6.426
  108OSM    C4S11009   6.206   5.667   6.132
  108OSM    H4S11010   6.167   5.699   6.034
  108OSM    C5S11011   6.280   5.553   6.137
  108OSM    H5S11012   6.326   5.519   6.232
  108OSM    C6S11013   6.303   5.473   6.012
  108OSM    H6S11014   6.211   5.455   5.952
  108OSM    H6T11015   6.328   5.368   6.040
  108OSM    C7S11016   6.418   5.521   5.928
  108OSM    H7S11017   6.497   5.540   6.004
  108OSM    H7T11018   6.398   5.617   5.876
  108OSM    C8S11019   6.476   5.416   5.834
  108OSM    H8S11020   6.479   5.323   5.896
  108OSM    H8T11021   6.580   5.445   5.810
  108OSM    C9S11022   6.390   5.392   5.708
  108OSM    H9S11023   6.417   5.467   5.631
  108OSM    H9T11024   6.284   5.390   5.741
  108OSM   C10S11025   6.412   5.244   5.658
  108OSM   H10S11026   6.349   5.187   5.729
  108OSM   H10T11027   6.520   5.218   5.654
  108OSM   C11S11028   6.346   5.221   5.520
  108OSM   H11S11029   6.251   5.277   5.522
  108OSM   H11T11030   6.339   5.110   5.509
  108OSM   C12S11031   6.439   5.277   5.405
  108OSM   H12S11032   6.536   5.223   5.399
  108OSM   H12T11033   6.469   5.382   5.426
  108OSM   C13S11034   6.359   5.272   5.280
  108OSM   H13S11035   6.280   5.349   5.285
  108OSM   H13T11036   6.305   5.174   5.277
  108OSM   C14S11037   6.461   5.298   5.167
  108OSM   H14S11038   6.553   5.236   5.158
  108OSM   H14T11039   6.506   5.396   5.193
  108OSM   C15S11040   6.391   5.308   5.030
  108OSM   H15S11041   6.307   5.381   5.031
  108OSM   H15T11042   6.346   5.209   5.011
  108OSM   C16S11043   6.485   5.354   4.918
  108OSM   H16S11044   6.567   5.282   4.897
  108OSM   H16T11045   6.531   5.447   4.955
  108OSM   C17S11046   6.407   5.391   4.788
  108OSM   H17S11047   6.470   5.451   4.720
  108OSM   H17T11048   6.324   5.460   4.814
  108OSM   C18S11049   6.363   5.263   4.721
  108OSM   H18S11050   6.359   5.272   4.610
  108OSM   H18T11051   6.262   5.225   4.749
  108OSM   H18U11052   6.440   5.184   4.736
  108OSM    C1F11053   6.413   6.035   6.161
  108OSM     OF11054   6.500   6.030   6.253
  108OSM    C2F11055   6.418   6.133   6.048
  108OSM    H2F11056   6.341   6.211   6.069
  108OSM    H2G11057   6.399   6.068   5.960
  108OSM    C3F11058   6.553   6.194   6.037
  108OSM    H3F11059   6.620   6.107   6.019
  108OSM    H3G11060   6.596   6.237   6.129
  108OSM    C4F11061   6.576   6.290   5.920
  108OSM    H4F11062   6.679   6.328   5.931
  108OSM    H4G11063   6.507   6.376   5.929
  108OSM    C5F11064   6.568   6.234   5.776
  108OSM    H5F11065   6.473   6.186   5.743
  108OSM    H5G11066   6.652   6.162   5.773
  108OSM    C6F11067   6.584   6.336   5.665
  108OSM    H6F11068   6.675   6.399   5.679
  108OSM    H6G11069   6.494   6.399   5.651
  108OSM    C7F11070   6.623   6.266   5.530
  108OSM    H7F11071   6.712   6.202   5.551
  108OSM    H7G11072   6.644   6.338   5.448
  108OSM    C8F11073   6.518   6.171   5.472
  108OSM    H8F11074   6.419   6.221   5.477
  108OSM    H8G11075   6.515   6.086   5.543
  108OSM    C9F11076   6.561   6.125   5.336
  108OSM    H9F11077   6.634   6.042   5.334
  108OSM   C10F11078   6.498   6.160   5.218
  108OSM   H10F11079   6.524   6.130   5.115
  108OSM   C11F11080   6.389   6.267   5.206
  108OSM   H11F11081   6.386   6.324   5.302
  108OSM   H11G11082   6.287   6.228   5.187
  108OSM   C12F11083   6.423   6.361   5.088
  108OSM   H12F11084   6.521   6.411   5.100
  108OSM   H12G11085   6.344   6.440   5.086
  108OSM   C13F11086   6.414   6.301   4.945
  108OSM   H13F11087   6.336   6.222   4.947
  108OSM   H13G11088   6.510   6.251   4.923
  108OSM   C14F11089   6.389   6.407   4.832
  108OSM   H14F11090   6.397   6.352   4.735
  108OSM   H14G11091   6.483   6.467   4.829
  108OSM   C15F11092   6.260   6.489   4.837
  108OSM   H15F11093   6.255   6.567   4.758
  108OSM   H15G11094   6.255   6.544   4.933
  108OSM   C16F11095   6.136   6.399   4.827
  108OSM   H16F11096   6.107   6.342   4.917
  108OSM   H16G11097   6.160   6.314   4.760
  108OSM   C17F11098   6.008   6.460   4.778
  108OSM   H17F11099   6.036   6.515   4.685
  108OSM   H17G11100   5.973   6.540   4.846
  108OSM   C18F11101   5.905   6.362   4.752
  108OSM   H18F11102   5.950   6.277   4.696
  108OSM   H18G11103   5.814   6.409   4.708
  108OSM   H18H11104   5.867   6.319   4.847
  109OSM      N11105   2.822   2.144   7.283
  109OSM    C1511106   2.731   2.255   7.336
  109OSM   H15A11107   2.760   2.291   7.434
  109OSM   H15B11108   2.628   2.222   7.336
  109OSM   H15C11109   2.733   2.340   7.270
  109OSM    C1411110   2.963   2.158   7.319
  109OSM   H14A11111   3.017   2.074   7.277
  109OSM   H14B11112   2.977   2.150   7.426
  109OSM   H14C11113   2.998   2.258   7.295
  109OSM    C1311114   2.771   2.008   7.346
  109OSM   H13A11115   2.668   1.992   7.319
  109OSM   H13B11116   2.782   2.010   7.453
  109OSM   H13C11117   2.824   1.920   7.311
  109OSM    C1211118   2.818   2.143   7.128
  109OSM   H12A11119   2.714   2.143   7.097
  109OSM   H12B11120   2.856   2.046   7.099
  109OSM    C1111121   2.898   2.249   7.055
  109OSM   H11A11122   2.888   2.342   7.115
  109OSM   H11B11123   2.853   2.262   6.954
  109OSM      P11124   3.143   2.327   7.037
  109OSM    O1311125   3.115   2.436   7.133
  109OSM    O1411126   3.276   2.267   7.053
  109OSM    O1111127   3.124   2.382   6.893
  109OSM    O1211128   3.033   2.213   7.048
  109OSM    C1S11129   3.090   2.294   6.787
  109OSM    H1S11130   2.979   2.282   6.784
  109OSM    H1T11131   3.131   2.191   6.792
  109OSM     NF11132   3.108   2.285   6.541
  109OSM    HNF11133   3.185   2.244   6.491
  109OSM    C2S11134   3.137   2.366   6.657
  109OSM    H2S11135   3.084   2.464   6.650
  109OSM    C3S11136   3.291   2.413   6.666
  109OSM    H3S11137   3.340   2.318   6.696
  109OSM     O311138   3.331   2.510   6.764
  109OSM    HO311139   3.247   2.520   6.810
  109OSM    C4S11140   3.324   2.468   6.529
  109OSM    H4S11141   3.398   2.409   6.473
  109OSM    C5S11142   3.293   2.583   6.473
  109OSM    H5S11143   3.209   2.636   6.521
  109OSM    C6S11144   3.328   2.613   6.329
  109OSM    H6S11145   3.436   2.607   6.304
  109OSM    H6T11146   3.287   2.715   6.316
  109OSM    C7S11147   3.255   2.519   6.230
  109OSM    H7S11148   3.150   2.519   6.268
  109OSM    H7T11149   3.296   2.416   6.222
  109OSM    C8S11150   3.251   2.578   6.089
  109OSM    H8S11151   3.352   2.622   6.070
  109OSM    H8T11152   3.180   2.663   6.085
  109OSM    C9S11153   3.221   2.470   5.981
  109OSM    H9S11154   3.132   2.411   6.013
  109OSM    H9T11155   3.314   2.409   5.983
  109OSM   C10S11156   3.202   2.522   5.841
  109OSM   H10S11157   3.300   2.550   5.796
  109OSM   H10T11158   3.141   2.615   5.852
  109OSM   C11S11159   3.129   2.434   5.737
  109OSM   H11S11160   3.046   2.376   5.783
  109OSM   H11T11161   3.187   2.347   5.700
  109OSM   C12S11162   3.079   2.505   5.610
  109OSM   H12S11163   3.166   2.531   5.546
  109OSM   H12T11164   3.026   2.592   5.653
  109OSM   C13S11165   2.971   2.420   5.528
  109OSM   H13S11166   2.871   2.467   5.528
  109OSM   H13T11167   2.971   2.320   5.576
  109OSM   C14S11168   3.022   2.402   5.379
  109OSM   H14S11169   2.947   2.339   5.326
  109OSM   H14T11170   3.118   2.346   5.378
  109OSM   C15S11171   3.046   2.535   5.313
  109OSM   H15S11172   3.140   2.584   5.346
  109OSM   H15T11173   2.959   2.600   5.338
  109OSM   C16S11174   3.053   2.522   5.158
  109OSM   H16S11175   3.142   2.457   5.138
  109OSM   H16T11176   3.079   2.624   5.122
  109OSM   C17S11177   2.932   2.471   5.083
  109OSM   H17S11178   2.860   2.555   5.072
  109OSM   H17T11179   2.886   2.389   5.142
  109OSM   C18S11180   2.960   2.416   4.942
  109OSM   H18S11181   2.974   2.506   4.877
  109OSM   H18T11182   2.885   2.348   4.896
  109OSM   H18U11183   3.050   2.353   4.953
  109OSM    C1F11184   2.986   2.265   6.494
  109OSM     OF11185   2.886   2.283   6.554
  109OSM    C2F11186   2.985   2.213   6.355
  109OSM    H2F11187   3.030   2.111   6.358
  109OSM    H2G11188   3.051   2.287   6.305
  109OSM    C3F11189   2.851   2.231   6.270
  109OSM    H3F11190   2.788   2.315   6.305
  109OSM    H3G11191   2.797   2.138   6.297
  109OSM    C4F11192   2.876   2.236   6.113
  109OSM    H4F11193   2.969   2.188   6.077
  109OSM    H4G11194   2.897   2.344   6.093
  109OSM    C5F11195   2.760   2.189   6.029
  109OSM    H5F11196   2.663   2.211   6.078
  109OSM    H5G11197   2.769   2.078   6.020
  109OSM    C6F11198   2.769   2.260   5.894
  109OSM    H6F11199   2.866   2.224   5.854
  109OSM    H6G11200   2.762   2.368   5.919
  109OSM    C7F11201   2.665   2.213   5.793
  109OSM    H7F11202   2.569   2.263   5.819
  109OSM    H7G11203   2.646   2.106   5.815
  109OSM    C8F11204   2.685   2.226   5.641
  109OSM    H8F11205   2.789   2.190   5.624
  109OSM    H8G11206   2.691   2.333   5.612
  109OSM    C9F11207   2.580   2.161   5.555
  109OSM    H9F11208   2.491   2.132   5.611
  109OSM   C10F11209   2.574   2.139   5.421
  109OSM   H10F11210   2.489   2.084   5.378
  109OSM   C11F11211   2.686   2.189   5.330
  109OSM   H11F11212   2.747   2.101   5.302
  109OSM   H11G11213   2.751   2.260   5.387
  109OSM   C12F11214   2.633   2.270   5.211
  109OSM   H12F11215   2.722   2.278   5.145
  109OSM   H12G11216   2.613   2.375   5.244
  109OSM   C13F11217   2.519   2.213   5.128
  109OSM   H13F11218   2.429   2.186   5.187
  109OSM   H13G11219   2.558   2.122   5.079
  109OSM   C14F11220   2.464   2.306   5.014
  109OSM   H14F11221   2.413   2.390   5.065
  109OSM   H14G11222   2.382   2.259   4.956
  109OSM   C15F11223   2.568   2.357   4.909
  109OSM   H15F11224   2.606   2.270   4.851
  109OSM   H15G11225   2.657   2.402   4.958
  109OSM   C16F11226   2.505   2.465   4.822
  109OSM   H16F11227   2.456   2.542   4.885
  109OSM   H16G11228   2.433   2.405   4.763
  109OSM   C17F11229   2.603   2.540   4.735
  109OSM   H17F11230   2.673   2.473   4.680
  109OSM   H17G11231   2.673   2.602   4.795
  109OSM   C18F11232   2.530   2.622   4.633
  109OSM   H18F11233   2.598   2.655   4.551
  109OSM   H18G11234   2.478   2.702   4.689
  109OSM   H18H11235   2.448   2.561   4.590
  110OSM      N11236   5.782   6.657   7.096
  110OSM    C1511237   5.858   6.541   7.042
  110OSM   H15A11238   5.937   6.521   7.113
  110OSM   H15B11239   5.903   6.563   6.946
  110OSM   H15C11240   5.800   6.451   7.023
  110OSM    C1411241   5.733   6.628   7.234
  110OSM   H14A11242   5.722   6.720   7.291
  110OSM   H14B11243   5.809   6.574   7.287
  110OSM   H14C11244   5.636   6.582   7.247
  110OSM    C1311245   5.871   6.779   7.105
  110OSM   H13A11246   5.887   0.001   7.007
  110OSM   H13B11247   5.962   6.743   7.151
  110OSM   H13C11248   5.831   0.037   7.170
  110OSM    C1211249   5.662   6.691   7.013
  110OSM   H12A11250   5.595   6.760   7.063
  110OSM   H12B11251   5.603   6.602   7.002
  110OSM    C1111252   5.687   6.745   6.868
  110OSM   H11A11253   5.734   0.025   6.887
  110OSM   H11B11254   5.586   6.778   6.836
  110OSM      P11255   5.674   6.539   6.708
  110OSM    O1311256   5.766   6.468   6.621
  110OSM    O1411257   5.591   6.460   6.805
  110OSM    O1111258   5.569   6.623   6.621
  110OSM    O1211259   5.761   6.660   6.777
  110OSM    C1S11260   5.622   6.713   6.524
  110OSM    H1S11261   5.727   6.747   6.539
  110OSM    H1T11262   5.563   6.807   6.524
  110OSM     NF11263   5.660   6.743   6.281
  110OSM    HNF11264   5.603   6.804   6.227
  110OSM    C2S11265   5.598   6.658   6.377
  110OSM    H2S11266   5.654   6.562   6.386
  110OSM    C3S11267   5.445   6.617   6.369
  110OSM    H3S11268   5.379   6.699   6.405
  110OSM     O311269   5.400   6.499   6.435
  110OSM    HO311270   5.471   6.497   6.500
  110OSM    C4S11271   5.422   6.595   6.227
  110OSM    H4S11272   5.485   6.515   6.187
  110OSM    C5S11273   5.344   6.659   6.144
  110OSM    H5S11274   5.282   6.744   6.176
  110OSM    C6S11275   5.341   6.622   6.000
  110OSM    H6S11276   5.238   6.588   5.975
  110OSM    H6T11277   5.399   6.528   5.983
  110OSM    C7S11278   5.381   6.744   5.917
  110OSM    H7S11279   5.379   6.723   5.808
  110OSM    H7T11280   5.482   6.787   5.938
  110OSM    C8S11281   5.279   0.040   5.919
  110OSM    H8S11282   5.284   0.076   6.024
  110OSM    H8T11283   5.182   6.806   5.905
  110OSM    C9S11284   5.300   0.152   5.818
  110OSM    H9S11285   5.295   0.100   5.720
  110OSM    H9T11286   5.402   0.197   5.817
  110OSM   C10S11287   5.183   0.264   5.807
  110OSM   H10S11288   5.232   0.342   5.744
  110OSM   H10T11289   5.171   0.303   5.910
  110OSM   C11S11290   5.052   0.215   5.739
  110OSM   H11S11291   4.982   0.175   5.816
  110OSM   H11T11292   5.077   0.127   5.677
  110OSM   C12S11293   4.977   0.319   5.653
  110OSM   H12S11294   5.044   0.366   5.577
  110OSM   H12T11295   4.941   0.399   5.722
  110OSM   C13S11296   4.857   0.272   5.574
  110OSM   H13S11297   4.803   0.363   5.542
  110OSM   H13T11298   4.798   0.205   5.640
  110OSM   C14S11299   4.893   0.186   5.450
  110OSM   H14S11300   4.962   0.115   5.501
  110OSM   H14T11301   4.964   0.242   5.385
  110OSM   C15S11302   4.777   0.120   5.376
  110OSM   H15S11303   4.702   0.195   5.344
  110OSM   H15T11304   4.707   0.058   5.436
  110OSM   C16S11305   4.829   0.038   5.256
  110OSM   H16S11306   4.879   6.762   5.281
  110OSM   H16T11307   4.907   0.108   5.219
  110OSM   C17S11308   4.722   6.814   5.159
  110OSM   H17S11309   4.761   0.017   5.058
  110OSM   H17T11310   4.630   0.056   5.161
  110OSM   C18S11311   4.679   6.660   5.174
  110OSM   H18S11312   4.596   6.642   5.103
  110OSM   H18T11313   4.655   6.636   5.279
  110OSM   H18U11314   4.762   6.592   5.144
  110OSM    C1F11315   5.794   6.744   6.264
  110OSM     OF11316   5.865   6.685   6.345
  110OSM    C2F11317   5.853   0.006   6.154
  110OSM    H2F11318   5.951   6.782   6.127
  110OSM    H2G11319   5.877   0.108   6.189
  110OSM    C3F11320   5.760   0.027   6.024
  110OSM    H3F11321   5.691   0.112   6.041
  110OSM    H3G11322   5.700   6.755   6.009
  110OSM    C4F11323   5.837   0.049   5.905
  110OSM    H4F11324   5.911   6.787   5.893
  110OSM    H4G11325   5.901   0.140   5.908
  110OSM    C5F11326   5.753   0.042   5.778
  110OSM    H5F11327   5.691   0.135   5.777
  110OSM    H5G11328   5.692   6.770   5.771
  110OSM    C6F11329   5.844   0.047   5.657
  110OSM    H6F11330   5.903   6.773   5.659
  110OSM    H6G11331   5.909   0.137   5.659
  110OSM    C7F11332   5.764   0.052   5.521
  110OSM    H7F11333   5.695   6.785   5.520
  110OSM    H7G11334   5.843   0.027   5.447
  110OSM    C8F11335   5.690   0.181   5.491
  110OSM    H8F11336   5.723   0.231   5.398
  110OSM    H8G11337   5.728   0.247   5.572
  110OSM    C9F11338   5.540   0.160   5.495
  110OSM    H9F11339   5.494   0.133   5.591
  110OSM   C10F11340   5.456   0.179   5.391
  110OSM   H10F11341   5.347   0.172   5.403
  110OSM   C11F11342   5.488   0.229   5.255
  110OSM   H11F11343   5.400   0.217   5.189
  110OSM   H11G11344   5.575   0.173   5.214
  110OSM   C12F11345   5.533   0.377   5.250
  110OSM   H12F11346   5.613   0.395   5.325
  110OSM   H12G11347   5.441   0.437   5.264
  110OSM   C13F11348   5.588   0.410   5.109
  110OSM   H13F11349   5.510   0.408   5.030
  110OSM   H13G11350   5.665   0.336   5.079
  110OSM   C14F11351   5.675   0.535   5.108
  110OSM   H14F11352   5.763   0.515   5.173
  110OSM   H14G11353   5.626   0.628   5.144
  110OSM   C15F11354   5.739   0.561   4.971
  110OSM   H15F11355   5.659   0.571   4.894
  110OSM   H15G11356   5.795   0.467   4.951
  110OSM   C16F11357   5.835   0.678   4.972
  110OSM   H16F11358   5.929   0.649   5.023
  110OSM   H16G11359   5.788   0.758   5.033
  110OSM   C17F11360   5.891   0.714   4.828
  110OSM   H17F11361   5.808   0.720   4.755
  110OSM   H17G11362   5.954   0.634   4.783
  110OSM   C18F11363   5.970   0.843   4.831
  110OSM   H18F11364   5.914   0.916   4.892
  110OSM   H18G11365   5.975   0.887   4.729
  110OSM   H18H11366   6.068   0.827   4.882
  111OSM      N11367   1.518   3.931   6.124
  111OSM    C1511368   1.438   4.006   6.226
  111OSM   H15A11369   1.334   3.981   6.212
  111OSM   H15B11370   1.455   4.111   6.207
  111OSM   H15C11371   1.465   3.989   6.329
  111OSM    C1411372   1.447   3.954   5.992
  111OSM   H14A11373   1.445   4.060   5.973
  111OSM   H14B11374   1.349   3.909   5.988
  111OSM   H14C11375   1.504   3.914   5.909
  111OSM    C1311376   1.656   3.994   6.114
  111OSM   H13A11377   1.655   4.100   6.093
  111OSM   H13B11378   1.709   3.962   6.025
  111OSM   H13C11379   1.716   3.971   6.201
  111OSM    C1211380   1.533   3.780   6.153
  111OSM   H12A11381   1.589   3.767   6.245
  111OSM   H12B11382   1.592   3.729   6.078
  111OSM    C1111383   1.400   3.701   6.176
  111OSM   H11A11384   1.352   3.737   6.270
  111OSM   H11B11385   1.444   3.602   6.200
  111OSM      P11386   1.165   3.650   6.085
  111OSM    O1311387   1.104   3.636   5.950
  111OSM    O1411388   1.161   3.528   6.171
  111OSM    O1111389   1.095   3.780   6.154
  111OSM    O1211390   1.315   3.703   6.065
  111OSM    C1S11391   1.114   3.910   6.097
  111OSM    H1S11392   1.188   3.915   6.014
  111OSM    H1T11393   1.151   3.977   6.178
  111OSM     NF11394   1.029   4.099   5.971
  111OSM    HNF11395   0.994   4.172   6.030
  111OSM    C2S11396   0.986   3.973   6.034
  111OSM    H2S11397   0.948   3.906   5.954
  111OSM    C3S11398   0.874   3.992   6.129
  111OSM    H3S11399   0.905   4.068   6.205
  111OSM     O311400   0.855   3.875   6.215
  111OSM    HO311401   0.932   3.820   6.196
  111OSM    C4S11402   0.742   4.041   6.064
  111OSM    H4S11403   0.701   4.134   6.106
  111OSM    C5S11404   0.652   3.971   5.985
  111OSM    H5S11405   0.658   3.869   5.944
  111OSM    C6S11406   0.518   4.040   5.958
  111OSM    H6S11407   0.468   4.058   6.055
  111OSM    H6T11408   0.449   3.975   5.899
  111OSM    C7S11409   0.535   4.176   5.886
  111OSM    H7S11410   0.600   4.252   5.935
  111OSM    H7T11411   0.434   4.221   5.878
  111OSM    C8S11412   0.579   4.150   5.744
  111OSM    H8S11413   0.520   4.067   5.698
  111OSM    H8T11414   0.685   4.120   5.728
  111OSM    C9S11415   0.562   4.282   5.677
  111OSM    H9S11416   0.635   4.348   5.729
  111OSM    H9T11417   0.464   4.332   5.686
  111OSM   C10S11418   0.600   4.278   5.526
  111OSM   H10S11419   0.711   4.273   5.525
  111OSM   H10T11420   0.568   4.375   5.483
  111OSM   C11S11421   0.540   4.161   5.451
  111OSM   H11S11422   0.429   4.164   5.461
  111OSM   H11T11423   0.586   4.073   5.500
  111OSM   C12S11424   0.567   4.167   5.299
  111OSM   H12S11425   0.545   4.065   5.259
  111OSM   H12T11426   0.674   4.175   5.272
  111OSM   C13S11427   0.477   4.266   5.215
  111OSM   H13S11428   0.489   4.371   5.247
  111OSM   H13T11429   0.374   4.224   5.221
  111OSM   C14S11430   0.513   4.267   5.064
  111OSM   H14S11431   0.623   4.282   5.058
  111OSM   H14T11432   0.467   4.357   5.018
  111OSM   C15S11433   0.480   4.131   4.991
  111OSM   H15S11434   0.372   4.105   4.988
  111OSM   H15T11435   0.535   4.053   5.047
  111OSM   C16S11436   0.521   4.127   4.845
  111OSM   H16S11437   0.528   4.033   4.787
  111OSM   H16T11438   0.624   4.169   4.841
  111OSM   C17S11439   0.435   4.221   4.760
  111OSM   H17S11440   0.408   4.314   4.815
  111OSM   H17T11441   0.338   4.174   4.733
  111OSM   C18S11442   0.496   4.260   4.626
  111OSM   H18S11443   0.601   4.293   4.640
  111OSM   H18T11444   0.435   4.339   4.576
  111OSM   H18U11445   0.504   4.173   4.558
  111OSM    C1F11446   1.118   4.111   5.872
  111OSM     OF11447   1.137   4.010   5.803
  111OSM    C2F11448   1.188   4.245   5.857
  111OSM    H2F11449   1.290   4.237   5.814
  111OSM    H2G11450   1.190   4.291   5.958
  111OSM    C3F11451   1.104   4.334   5.764
  111OSM    H3F11452   1.143   4.438   5.772
  111OSM    H3G11453   0.997   4.328   5.791
  111OSM    C4F11454   1.116   4.284   5.619
  111OSM    H4F11455   1.064   4.187   5.602
  111OSM    H4G11456   1.224   4.258   5.607
  111OSM    C5F11457   1.075   4.383   5.510
  111OSM    H5F11458   1.136   4.474   5.521
  111OSM    H5G11459   0.973   4.422   5.529
  111OSM    C6F11460   1.089   4.318   5.371
  111OSM    H6F11461   1.006   4.244   5.367
  111OSM    H6G11462   1.187   4.265   5.380
  111OSM    C7F11463   1.094   4.418   5.257
  111OSM    H7F11464   1.147   4.381   5.167
  111OSM    H7G11465   1.159   4.503   5.286
  111OSM    C8F11466   0.947   4.469   5.217
  111OSM    H8F11467   0.948   4.575   5.184
  111OSM    H8G11468   0.885   4.475   5.310
  111OSM    C9F11469   0.880   4.375   5.122
  111OSM    H9F11470   0.818   4.294   5.164
  111OSM   C10F11471   0.901   4.372   4.992
  111OSM   H10F11472   0.857   4.289   4.935
  111OSM   C11F11473   0.999   4.457   4.915
  111OSM   H11F11474   1.065   4.385   4.862
  111OSM   H11G11475   1.057   4.522   4.985
  111OSM   C12F11476   0.934   4.548   4.814
  111OSM   H12F11477   1.005   4.618   4.765
  111OSM   H12G11478   0.872   4.622   4.870
  111OSM   C13F11479   0.868   4.477   4.699
  111OSM   H13F11480   0.785   4.413   4.735
  111OSM   H13G11481   0.951   4.434   4.638
  111OSM   C14F11482   0.790   4.585   4.619
  111OSM   H14F11483   0.729   4.653   4.682
  111OSM   H14G11484   0.722   4.544   4.542
  111OSM   C15F11485   0.880   4.671   4.530
  111OSM   H15F11486   0.919   4.620   4.439
  111OSM   H15G11487   0.970   4.700   4.588
  111OSM   C16F11488   0.821   4.811   4.490
  111OSM   H16F11489   0.842   4.878   4.576
  111OSM   H16G11490   0.712   4.789   4.488
  111OSM   C17F11491   0.849   4.873   4.351
  111OSM   H17F11492   0.800   4.971   4.332
  111OSM   H17G11493   0.806   4.807   4.272
  111OSM   C18F11494   0.994   4.891   4.320
  111OSM   H18F11495   1.035   4.796   4.279
  111OSM   H18G11496   1.045   4.914   4.416
  111OSM   H18H11497   1.005   4.971   4.244
  112OSM      N11498   4.146   1.609   7.121
  112OSM    C1511499   4.244   1.684   7.219
  112OSM   H15A11500   4.298   1.761   7.167
  112OSM   H15B11501   4.310   1.608   7.259
  112OSM   H15C11502   4.192   1.737   7.297
  112OSM    C1411503   4.046   1.713   7.075
  112OSM   H14A11504   3.972   1.667   7.013
  112OSM   H14B11505   4.101   1.798   7.037
  112OSM   H14C11506   3.993   1.758   7.158
  112OSM    C1311507   4.218   1.555   7.003
  112OSM   H13A11508   4.293   1.481   7.027
  112OSM   H13B11509   4.267   1.633   6.947
  112OSM   H13C11510   4.151   1.506   6.935
  112OSM    C1211511   4.074   1.493   7.191
  112OSM   H12A11512   3.998   1.533   7.257
  112OSM   H12B11513   4.145   1.443   7.254
  112OSM    C1111514   3.986   1.404   7.100
  112OSM   H11A11515   3.956   1.315   7.160
  112OSM   H11B11516   4.054   1.358   7.025
  112OSM      P11517   3.843   1.464   6.888
  112OSM    O1311518   3.800   1.327   6.844
  112OSM    O1411519   3.747   1.574   6.867
  112OSM    O1111520   3.980   1.505   6.822
  112OSM    O1211521   3.870   1.471   7.045
  112OSM    C1S11522   4.016   1.454   6.693
  112OSM    H1S11523   3.966   1.358   6.669
  112OSM    H1T11524   4.122   1.421   6.692
  112OSM     NF11525   4.033   1.506   6.445
  112OSM    HNF11526   4.120   1.539   6.408
  112OSM    C2S11527   3.996   1.555   6.581
  112OSM    H2S11528   3.886   1.567   6.590
  112OSM    C3S11529   4.072   1.694   6.608
  112OSM    H3S11530   4.180   1.667   6.605
  112OSM     O311531   4.048   1.747   6.740
  112OSM    HO311532   4.004   1.669   6.775
  112OSM    C4S11533   4.045   1.802   6.510
  112OSM    H4S11534   3.941   1.837   6.506
  112OSM    C5S11535   4.131   1.875   6.441
  112OSM    H5S11536   4.238   1.870   6.469
  112OSM    C6S11537   4.091   1.993   6.354
  112OSM    H6S11538   4.153   2.083   6.376
  112OSM    H6T11539   3.987   2.023   6.377
  112OSM    C7S11540   4.103   1.943   6.216
  112OSM    H7S11541   4.060   1.841   6.207
  112OSM    H7T11542   4.211   1.924   6.199
  112OSM    C8S11543   4.032   2.026   6.103
  112OSM    H8S11544   4.028   2.133   6.134
  112OSM    H8T11545   3.927   1.990   6.097
  112OSM    C9S11546   4.097   2.011   5.962
  112OSM    H9S11547   4.108   1.903   5.935
  112OSM    H9T11548   4.198   2.057   5.963
  112OSM   C10S11549   4.019   2.097   5.860
  112OSM   H10S11550   4.013   2.202   5.896
  112OSM   H10T11551   3.917   2.052   5.858
  112OSM   C11S11552   4.081   2.085   5.718
  112OSM   H11S11553   4.135   1.988   5.712
  112OSM   H11T11554   4.161   2.163   5.713
  112OSM   C12S11555   3.980   2.089   5.601
  112OSM   H12S11556   3.944   2.194   5.599
  112OSM   H12T11557   3.900   2.017   5.631
  112OSM   C13S11558   4.061   2.069   5.475
  112OSM   H13S11559   4.124   1.980   5.492
  112OSM   H13T11560   4.118   2.164   5.463
  112OSM   C14S11561   3.973   2.062   5.351
  112OSM   H14S11562   3.908   2.152   5.347
  112OSM   H14T11563   3.906   1.974   5.359
  112OSM   C15S11564   4.054   2.039   5.217
  112OSM   H15S11565   4.141   1.972   5.233
  112OSM   H15T11566   4.101   2.136   5.190
  112OSM   C16S11567   3.976   1.984   5.099
  112OSM   H16S11568   3.902   1.904   5.121
  112OSM   H16T11569   4.063   1.940   5.046
  112OSM   C17S11570   3.907   2.093   5.009
  112OSM   H17S11571   3.882   2.061   4.906
  112OSM   H17T11572   3.975   2.178   4.986
  112OSM   C18S11573   3.784   2.143   5.081
  112OSM   H18S11574   3.710   2.198   5.020
  112OSM   H18T11575   3.828   2.214   5.155
  112OSM   H18U11576   3.732   2.056   5.127
  112OSM    C1F11577   3.980   1.401   6.379
  112OSM     OF11578   3.888   1.334   6.431
  112OSM    C2F11579   4.020   1.374   6.235
  112OSM    H2F11580   4.116   1.425   6.210
  112OSM    H2G11581   3.941   1.405   6.164
  112OSM    C3F11582   4.037   1.227   6.204
  112OSM    H3F11583   3.942   1.175   6.225
  112OSM    H3G11584   4.104   1.195   6.287
  112OSM    C4F11585   4.094   1.203   6.059
  112OSM    H4F11586   4.142   1.103   6.065
  112OSM    H4G11587   4.171   1.280   6.036
  112OSM    C5F11588   3.985   1.198   5.954
  112OSM    H5F11589   3.933   1.296   5.943
  112OSM    H5G11590   3.908   1.130   5.997
  112OSM    C6F11591   4.019   1.159   5.811
  112OSM    H6F11592   4.093   1.076   5.821
  112OSM    H6G11593   4.065   1.248   5.765
  112OSM    C7F11594   3.893   1.100   5.743
  112OSM    H7F11595   3.806   1.169   5.740
  112OSM    H7G11596   3.860   1.007   5.793
  112OSM    C8F11597   3.907   1.069   5.591
  112OSM    H8F11598   3.823   1.005   5.555
  112OSM    H8G11599   3.998   1.007   5.577
  112OSM    C9F11600   3.944   1.194   5.512
  112OSM    H9F11601   3.991   1.268   5.578
  112OSM   C10F11602   3.912   1.216   5.386
  112OSM   H10F11603   3.954   1.307   5.339
  112OSM   C11F11604   3.838   1.118   5.296
  112OSM   H11F11605   3.730   1.144   5.293
  112OSM   H11G11606   3.864   1.013   5.320
  112OSM   C12F11607   3.899   1.148   5.154
  112OSM   H12F11608   4.010   1.148   5.160
  112OSM   H12G11609   3.858   1.248   5.131
  112OSM   C13F11610   3.846   1.054   5.036
  112OSM   H13F11611   3.738   1.033   5.057
  112OSM   H13G11612   3.895   0.956   5.054
  112OSM   C14F11613   3.868   1.092   4.894
  112OSM   H14F11614   3.823   1.191   4.872
  112OSM   H14G11615   3.830   1.016   4.822
  112OSM   C15F11616   4.017   1.104   4.858
  112OSM   H15F11617   4.073   1.012   4.832
  112OSM   H15G11618   4.065   1.158   4.942
  112OSM   C16F11619   4.030   1.194   4.733
  112OSM   H16F11620   3.959   1.277   4.718
  112OSM   H16G11621   4.010   1.124   4.649
  112OSM   C17F11622   4.169   1.263   4.726
  112OSM   H17F11623   4.250   1.196   4.761
  112OSM   H17G11624   4.191   1.342   4.802
  112OSM   C18F11625   4.199   1.319   4.584
  112OSM   H18F11626   4.228   1.235   4.518
  112OSM   H18G11627   4.283   1.391   4.581
  112OSM   H18H11628   4.108   1.353   4.529
  113OSM      N11629   0.938   2.174   6.693
  113OSM    C1511630   0.860   2.194   6.571
  113OSM   H15A11631   0.834   2.298   6.561
  113OSM   H15B11632   0.762   2.148   6.569
  113OSM   H15C11633   0.908   2.167   6.478
  113OSM    C1411634   0.957   2.036   6.733
  113OSM   H14A11635   0.972   2.027   6.839
  113OSM   H14B11636   1.036   1.990   6.674
  113OSM   H14C11637   0.867   1.977   6.724
  113OSM    C1311638   1.079   2.231   6.688
  113OSM   H13A11639   1.146   2.213   6.770
  113OSM   H13B11640   1.076   2.339   6.685
  113OSM   H13C11641   1.127   2.189   6.601
  113OSM    C1211642   0.866   2.235   6.822
  113OSM   H12A11643   0.871   2.341   6.802
  113OSM   H12B11644   0.935   2.230   6.905
  113OSM    C1111645   0.724   2.190   6.851
  113OSM   H11A11646   0.655   2.242   6.781
  113OSM   H11B11647   0.700   2.225   6.953
  113OSM      P11648   0.569   1.976   6.874
  113OSM    O1311649   0.579   1.840   6.933
  113OSM    O1411650   0.487   2.071   6.954
  113OSM    O1111651   0.513   1.962   6.725
  113OSM    O1211652   0.707   2.047   6.852
  113OSM    C1S11653   0.526   1.835   6.663
  113OSM    H1S11654   0.461   1.764   6.718
  113OSM    H1T11655   0.628   1.790   6.664
  113OSM     NF11656   0.467   1.703   6.451
  113OSM    HNF11657   0.522   1.693   6.369
  113OSM    C2S11658   0.467   1.838   6.517
  113OSM    H2S11659   0.359   1.856   6.532
  113OSM    C3S11660   0.536   1.950   6.434
  113OSM    H3S11661   0.638   1.912   6.409
  113OSM     O311662   0.547   2.071   6.504
  113OSM    HO311663   0.525   2.049   6.595
  113OSM    C4S11664   0.467   1.967   6.298
  113OSM    H4S11665   0.461   1.879   6.231
  113OSM    C5S11666   0.412   2.081   6.253
  113OSM    H5S11667   0.429   2.172   6.313
  113OSM    C6S11668   0.340   2.097   6.121
  113OSM    H6S11669   0.386   2.195   6.093
  113OSM    H6T11670   0.230   2.105   6.134
  113OSM    C7S11671   0.381   1.995   6.012
  113OSM    H7S11672   0.331   1.906   6.057
  113OSM    H7T11673   0.490   1.972   6.017
  113OSM    C8S11674   0.323   2.020   5.876
  113OSM    H8S11675   0.313   2.126   5.848
  113OSM    H8T11676   0.218   1.984   5.874
  113OSM    C9S11677   0.397   1.941   5.763
  113OSM    H9S11678   0.368   1.834   5.771
  113OSM    H9T11679   0.507   1.954   5.777
  113OSM   C10S11680   0.357   1.990   5.623
  113OSM   H10S11681   0.384   2.097   5.614
  113OSM   H10T11682   0.247   1.975   5.618
  113OSM   C11S11683   0.421   1.901   5.515
  113OSM   H11S11684   0.384   1.796   5.514
  113OSM   H11T11685   0.528   1.881   5.539
  113OSM   C12S11686   0.410   1.964   5.378
  113OSM   H12S11687   0.495   2.035   5.373
  113OSM   H12T11688   0.312   2.014   5.365
  113OSM   C13S11689   0.433   1.870   5.264
  113OSM   H13S11690   0.361   1.789   5.286
  113OSM   H13T11691   0.541   1.843   5.263
  113OSM   C14S11692   0.373   1.913   5.126
  113OSM   H14S11693   0.268   1.946   5.134
  113OSM   H14T11694   0.378   1.822   5.062
  113OSM   C15S11695   0.461   2.023   5.059
  113OSM   H15S11696   0.554   1.969   5.033
  113OSM   H15T11697   0.485   2.108   5.126
  113OSM   C16S11698   0.385   2.084   4.940
  113OSM   H16S11699   0.449   2.161   4.892
  113OSM   H16T11700   0.297   2.145   4.969
  113OSM   C17S11701   0.347   1.983   4.826
  113OSM   H17S11702   0.318   2.038   4.734
  113OSM   H17T11703   0.256   1.931   4.860
  113OSM   C18S11704   0.452   1.878   4.790
  113OSM   H18S11705   0.546   1.923   4.752
  113OSM   H18T11706   0.420   1.811   4.707
  113OSM   H18U11707   0.484   1.819   4.879
  113OSM    C1F11708   0.408   1.601   6.510
  113OSM     OF11709   0.315   1.623   6.588
  113OSM    C2F11710   0.470   1.465   6.490
  113OSM    H2F11711   0.499   1.442   6.595
  113OSM    H2G11712   0.560   1.475   6.426
  113OSM    C3F11713   0.380   1.346   6.449
  113OSM    H3F11714   0.273   1.369   6.470
  113OSM    H3G11715   0.407   1.257   6.510
  113OSM    C4F11716   0.407   1.304   6.305
  113OSM    H4F11717   0.514   1.280   6.290
  113OSM    H4G11718   0.402   1.390   6.234
  113OSM    C5F11719   0.324   1.190   6.261
  113OSM    H5F11720   0.218   1.207   6.289
  113OSM    H5G11721   0.355   1.097   6.314
  113OSM    C6F11722   0.328   1.164   6.103
  113OSM    H6F11723   0.424   1.114   6.077
  113OSM    H6G11724   0.321   1.267   6.061
  113OSM    C7F11725   0.203   1.091   6.060
  113OSM    H7F11726   0.117   1.156   6.086
  113OSM    H7G11727   0.205   1.000   6.124
  113OSM    C8F11728   0.195   1.046   5.910
  113OSM    H8F11729   0.093   1.007   5.894
  113OSM    H8G11730   0.271   0.965   5.902
  113OSM    C9F11731   0.232   1.142   5.805
  113OSM    H9F11732   0.200   1.245   5.824
  113OSM   C10F11733   0.291   1.130   5.684
  113OSM   H10F11734   0.296   1.213   5.611
  113OSM   C11F11735   0.330   1.001   5.625
  113OSM   H11F11736   0.257   0.922   5.654
  113OSM   H11G11737   0.429   0.964   5.658
  113OSM   C12F11738   0.353   1.026   5.473
  113OSM   H12F11739   0.377   0.926   5.431
  113OSM   H12G11740   0.448   1.079   5.456
  113OSM   C13F11741   0.227   1.080   5.398
  113OSM   H13F11742   0.229   1.188   5.425
  113OSM   H13G11743   0.138   1.029   5.440
  113OSM   C14F11744   0.240   1.083   5.241
  113OSM   H14F11745   0.145   1.128   5.205
  113OSM   H14G11746   0.244   0.977   5.207
  113OSM   C15F11747   0.372   1.145   5.193
  113OSM   H15F11748   0.447   1.064   5.203
  113OSM   H15G11749   0.402   1.226   5.264
  113OSM   C16F11750   0.371   1.183   5.044
  113OSM   H16F11751   0.403   1.289   5.032
  113OSM   H16G11752   0.267   1.188   5.004
  113OSM   C17F11753   0.465   1.088   4.969
  113OSM   H17F11754   0.415   0.989   4.984
  113OSM   H17G11755   0.558   1.081   5.028
  113OSM   C18F11756   0.485   1.119   4.816
  113OSM   H18F11757   0.410   1.193   4.781
  113OSM   H18G11758   0.468   1.017   4.776
  113OSM   H18H11759   0.582   1.162   4.783
  114OSM      N11760   0.435   0.033   7.246
  114OSM    C1511761   0.565   0.055   7.180
  114OSM   H15A11762   0.645   6.805   7.201
  114OSM   H15B11763   0.596   0.155   7.206
  114OSM   H15C11764   0.545   0.059   7.074
  114OSM    C1411765   0.393   6.714   7.231
  114OSM   H14A11766   0.460   6.643   7.277
  114OSM   H14B11767   0.383   6.687   7.127
  114OSM   H14C11768   0.294   6.700   7.272
  114OSM    C1311769   0.446   0.046   7.393
  114OSM   H13A11770   0.516   6.790   7.424
  114OSM   H13B11771   0.351   0.025   7.441
  114OSM   H13C11772   0.483   0.146   7.408
  114OSM    C1211773   0.325   0.135   7.204
  114OSM   H12A11774   0.360   0.236   7.221
  114OSM   H12B11775   0.236   0.129   7.265
  114OSM    C1111776   0.287   0.132   7.050
  114OSM   H11A11777   0.384   0.139   6.997
  114OSM   H11B11778   0.225   0.219   7.019
  114OSM      P11779   0.074   0.005   7.057
  114OSM    O1311780   0.041   6.692   7.100
  114OSM    O1411781   0.036   0.113   7.152
  114OSM    O1111782   6.819   0.035   6.924
  114OSM    O1211783   0.225   0.009   7.013
  114OSM    C1S11784   0.031   6.775   6.804
  114OSM    H1S11785   6.809   6.674   6.820
  114OSM    H1T11786   0.142   6.769   6.794
  114OSM     NF11787   6.811   6.754   6.560
  114OSM    HNF11788   0.084   6.746   6.522
  114OSM    C2S11789   6.803   0.023   6.676
  114OSM    H2S11790   6.693   0.028   6.690
  114OSM    C3S11791   0.044   0.167   6.659
  114OSM    H3S11792   0.154   0.162   6.647
  114OSM     O311793   0.019   0.249   6.771
  114OSM    HO311794   0.005   0.184   6.841
  114OSM    C4S11795   6.797   0.224   6.540
  114OSM    H4S11796   0.013   0.194   6.441
  114OSM    C5S11797   6.678   0.291   6.522
  114OSM    H5S11798   6.609   0.302   6.607
  114OSM    C6S11799   6.615   0.334   6.396
  114OSM    H6S11800   6.612   0.445   6.392
  114OSM    H6T11801   6.505   0.320   6.398
  114OSM    C7S11802   6.663   0.264   6.267
  114OSM    H7S11803   6.645   0.155   6.277
  114OSM    H7T11804   6.773   0.273   6.258
  114OSM    C8S11805   6.590   0.324   6.143
  114OSM    H8S11806   6.610   0.434   6.137
  114OSM    H8T11807   6.483   0.307   6.168
  114OSM    C9S11808   6.620   0.268   5.998
  114OSM    H9S11809   6.614   0.157   6.012
  114OSM    H9T11810   6.723   0.296   5.967
  114OSM   C10S11811   6.514   0.308   5.890
  114OSM   H10S11812   6.488   0.414   5.910
  114OSM   H10T11813   6.422   0.247   5.905
  114OSM   C11S11814   6.566   0.284   5.742
  114OSM   H11S11815   6.588   0.178   5.718
  114OSM   H11T11816   6.660   0.343   5.737
  114OSM   C12S11817   6.474   0.323   5.621
  114OSM   H12S11818   6.449   0.431   5.633
  114OSM   H12T11819   6.386   0.255   5.631
  114OSM   C13S11820   6.546   0.293   5.492
  114OSM   H13S11821   6.606   0.200   5.500
  114OSM   H13T11822   6.616   0.378   5.474
  114OSM   C14S11823   6.449   0.278   5.380
  114OSM   H14S11824   6.377   0.363   5.377
  114OSM   H14T11825   6.385   0.187   5.388
  114OSM   C15S11826   6.509   0.275   5.242
  114OSM   H15S11827   6.618   0.266   5.260
  114OSM   H15T11828   6.494   0.372   5.191
  114OSM   C16S11829   6.462   0.164   5.148
  114OSM   H16S11830   6.356   0.170   5.114
  114OSM   H16T11831   6.461   0.067   5.202
  114OSM   C17S11832   6.547   0.142   5.020
  114OSM   H17S11833   6.625   0.070   5.054
  114OSM   H17T11834   6.592   0.234   4.976
  114OSM   C18S11835   6.475   0.069   4.904
  114OSM   H18S11836   6.384   0.132   4.889
  114OSM   H18T11837   6.450   6.783   4.927
  114OSM   H18U11838   6.542   0.068   4.815
  114OSM    C1F11839   6.731   6.651   6.530
  114OSM     OF11840   6.623   6.632   6.575
  114OSM    C2F11841   6.789   6.549   6.439
  114OSM    H2F11842   6.756   6.452   6.483
  114OSM    H2G11843   0.080   6.548   6.450
  114OSM    C3F11844   6.762   6.561   6.290
  114OSM    H3F11845   6.656   6.547   6.260
  114OSM    H3G11846   6.816   6.481   6.236
  114OSM    C4F11847   6.813   6.693   6.228
  114OSM    H4F11848   0.089   6.714   6.280
  114OSM    H4G11849   6.736   6.772   6.240
  114OSM    C5F11850   0.030   6.677   6.078
  114OSM    H5F11851   0.089   6.584   6.069
  114OSM    H5G11852   0.094   6.763   6.051
  114OSM    C6F11853   6.729   6.667   5.989
  114OSM    H6F11854   6.658   6.752   5.993
  114OSM    H6G11855   6.666   6.583   6.027
  114OSM    C7F11856   6.751   6.637   5.844
  114OSM    H7F11857   6.657   6.605   5.793
  114OSM    H7G11858   6.813   6.546   5.834
  114OSM    C8F11859   0.008   6.744   5.764
  114OSM    H8F11860   0.105   6.771   5.812
  114OSM    H8G11861   6.767   0.017   5.768
  114OSM    C9F11862   0.040   6.711   5.621
  114OSM    H9F11863   0.146   6.685   5.608
  114OSM   C10F11864   6.781   6.703   5.515
  114OSM   H10F11865   0.012   6.684   5.420
  114OSM   C11F11866   6.636   6.743   5.504
  114OSM   H11F11867   6.632   6.792   5.404
  114OSM   H11G11868   6.603   0.004   5.573
  114OSM   C12F11869   6.528   6.637   5.503
  114OSM   H12F11870   6.503   6.605   5.606
  114OSM   H12G11871   6.560   6.550   5.442
  114OSM   C13F11872   6.384   6.695   5.453
  114OSM   H13F11873   6.408   6.746   5.357
  114OSM   H13G11874   6.359   6.778   5.522
  114OSM   C14F11875   6.274   6.597   5.427
  114OSM   H14F11876   6.248   6.535   5.517
  114OSM   H14G11877   6.321   6.531   5.351
  114OSM   C15F11878   6.163   6.669   5.355
  114OSM   H15F11879   6.190   6.707   5.255
  114OSM   H15G11880   6.131   6.752   5.421
  114OSM   C16F11881   6.045   6.575   5.331
  114OSM   H16F11882   5.956   6.641   5.320
  114OSM   H16G11883   6.022   6.520   5.425
  114OSM   C17F11884   6.051   6.481   5.206
  114OSM   H17F11885   6.145   6.423   5.219
  114OSM   H17G11886   6.055   6.541   5.113
  114OSM   C18F11887   5.944   6.384   5.188
  114OSM   H18F11888   5.929   6.324   5.280
  114OSM   H18G11889   5.953   6.320   5.097
  114OSM   H18H11890   5.851   6.438   5.160
  115OSM      N11891   0.640   3.275   6.820
  115OSM    C1511892   0.629   3.421   6.864
  115OSM   H15A11893   0.544   3.436   6.930
  115OSM   H15B11894   0.626   3.486   6.778
  115OSM   H15C11895   0.718   3.455   6.915
  115OSM    C1411896   0.784   3.230   6.802
  115OSM   H14A11897   0.831   3.311   6.749
  115OSM   H14B11898   0.798   3.139   6.745
  115OSM   H14C11899   0.832   3.223   6.899
  115OSM    C1311900   0.584   3.178   6.918
  115OSM   H13A11901   0.478   3.188   6.935
  115OSM   H13B11902   0.637   3.190   7.012
  115OSM   H13C11903   0.598   3.076   6.885
  115OSM    C1211904   0.565   3.252   6.688
  115OSM   H12A11905   0.612   3.162   6.651
  115OSM   H12B11906   0.592   3.329   6.618
  115OSM    C1111907   0.409   3.250   6.689
  115OSM   H11A11908   0.371   3.255   6.584
  115OSM   H11B11909   0.376   3.344   6.739
  115OSM      P11910   0.212   3.129   6.823
  115OSM    O1311911   0.178   2.988   6.838
  115OSM    O1411912   0.201   3.216   6.939
  115OSM    O1111913   0.118   3.189   6.707
  115OSM    O1211914   0.356   3.136   6.759
  115OSM    C1S11915   0.125   3.114   6.580
  115OSM    H1S11916   0.109   3.006   6.599
  115OSM    H1T11917   0.230   3.112   6.542
  115OSM     NF11918   0.009   3.097   6.371
  115OSM    HNF11919   0.049   3.125   6.284
  115OSM    C2S11920   0.023   3.180   6.487
  115OSM    H2S11921   6.743   3.181   6.536
  115OSM    C3S11922   0.069   3.329   6.458
  115OSM    H3S11923   0.168   3.328   6.408
  115OSM     O311924   0.099   3.406   6.575
  115OSM    HO311925   0.120   3.341   6.642
  115OSM    C4S11926   6.792   3.393   6.363
  115OSM    H4S11927   6.794   3.355   6.260
  115OSM    C5S11928   6.691   3.480   6.390
  115OSM    H5S11929   6.672   3.524   6.489
  115OSM    C6S11930   6.593   3.544   6.299
  115OSM    H6S11931   6.579   3.653   6.316
  115OSM    H6T11932   6.495   3.494   6.314
  115OSM    C7S11933   6.618   3.506   6.146
  115OSM    H7S11934   6.604   3.398   6.124
  115OSM    H7T11935   6.724   3.527   6.123
  115OSM    C8S11936   6.530   3.591   6.053
  115OSM    H8S11937   6.554   3.700   6.062
  115OSM    H8T11938   6.422   3.575   6.071
  115OSM    C9S11939   6.552   3.539   5.910
  115OSM    H9S11940   6.542   3.430   5.894
  115OSM    H9T11941   6.655   3.567   5.879
  115OSM   C10S11942   6.467   3.610   5.808
  115OSM   H10S11943   6.469   3.721   5.801
  115OSM   H10T11944   6.361   3.579   5.825
  115OSM   C11S11945   6.504   3.560   5.667
  115OSM   H11S11946   6.611   3.531   5.670
  115OSM   H11T11947   6.495   3.629   5.581
  115OSM   C12S11948   6.429   3.430   5.632
  115OSM   H12S11949   6.324   3.436   5.670
  115OSM   H12T11950   6.474   3.343   5.684
  115OSM   C13S11951   6.427   3.393   5.478
  115OSM   H13S11952   6.381   3.485   5.437
  115OSM   H13T11953   6.364   3.301   5.479
  115OSM   C14S11954   6.564   3.354   5.423
  115OSM   H14S11955   6.599   3.262   5.474
  115OSM   H14T11956   6.631   3.440   5.447
  115OSM   C15S11957   6.563   3.330   5.272
  115OSM   H15S11958   6.472   3.281   5.231
  115OSM   H15T11959   6.639   3.252   5.247
  115OSM   C16S11960   6.576   3.460   5.188
  115OSM   H16S11961   6.675   3.511   5.192
  115OSM   H16T11962   6.495   3.525   5.226
  115OSM   C17S11963   6.543   3.426   5.039
  115OSM   H17S11964   6.438   3.392   5.026
  115OSM   H17T11965   6.604   3.340   5.005
  115OSM   C18S11966   6.563   3.543   4.944
  115OSM   H18S11967   6.508   3.632   4.980
  115OSM   H18T11968   6.541   3.519   4.838
  115OSM   H18U11969   6.670   3.574   4.948
  115OSM    C1F11970   6.762   2.981   6.386
  115OSM     OF11971   6.705   2.948   6.492
  115OSM    C2F11972   6.770   2.869   6.278
  115OSM    H2F11973   0.025   2.794   6.313
  115OSM    H2G11974   6.808   2.919   6.186
  115OSM    C3F11975   6.633   2.802   6.264
  115OSM    H3F11976   6.563   2.880   6.228
  115OSM    H3G11977   6.596   2.754   6.357
  115OSM    C4F11978   6.622   2.712   6.142
  115OSM    H4F11979   6.683   2.619   6.149
  115OSM    H4G11980   6.672   2.770   6.062
  115OSM    C5F11981   6.486   2.669   6.112
  115OSM    H5F11982   6.411   2.751   6.109
  115OSM    H5G11983   6.445   2.605   6.193
  115OSM    C6F11984   6.470   2.580   5.986
  115OSM    H6F11985   6.396   2.498   5.981
  115OSM    H6G11986   6.564   2.522   5.975
  115OSM    C7F11987   6.459   2.645   5.850
  115OSM    H7F11988   6.512   2.742   5.850
  115OSM    H7G11989   6.352   2.667   5.836
  115OSM    C8F11990   6.522   2.552   5.746
  115OSM    H8F11991   6.466   2.458   5.725
  115OSM    H8G11992   6.629   2.539   5.774
  115OSM    C9F11993   6.515   2.631   5.616
  115OSM    H9F11994   6.438   2.708   5.603
  115OSM   C10F11995   6.598   2.627   5.509
  115OSM   H10F11996   6.578   2.704   5.432
  115OSM   C11F11997   6.712   2.534   5.492
  115OSM   H11F11998   6.740   2.483   5.586
  115OSM   H11G11999   6.800   2.588   5.452
  115OSM   C12F12000   6.681   2.416   5.402
  115OSM   H12F12001   6.581   2.374   5.427
  115OSM   H12G12002   6.748   2.327   5.412
  115OSM   C13F12003   6.700   2.467   5.251
  115OSM   H13F12004   6.650   2.566   5.241
  115OSM   H13G12005   6.658   2.397   5.176
  115OSM   C14F12006   0.022   2.476   5.211
  115OSM   H14F12007   0.069   2.379   5.236
  115OSM   H14G12008   0.082   2.546   5.274
  115OSM   C15F12009   0.037   2.503   5.062
  115OSM   H15F12010   0.132   2.554   5.038
  115OSM   H15G12011   6.780   2.567   5.013
  115OSM   C16F12012   0.037   2.368   4.979
  115OSM   H16F12013   6.753   2.328   4.980
  115OSM   H16G12014   0.098   2.293   5.033
  115OSM   C17F12015   0.092   2.373   4.833
  115OSM   H17F12016   0.199   2.402   4.821
  115OSM   H17G12017   0.035   2.451   4.779
  115OSM   C18F12018   0.087   2.237   4.765
  115OSM   H18F12019   0.121   2.255   4.661
  115OSM   H18G12020   6.803   2.198   4.762
  115OSM   H18H12021   0.154   2.164   4.814
  116OSM      N12022   0.816   1.674   7.255
  116OSM    C1512023   0.673   1.718   7.223
  116OSM   H15A12024   0.666   1.724   7.116
  116OSM   H15B12025   0.641   1.814   7.260
  116OSM   H15C12026   0.598   1.654   7.267
  116OSM    C1412027   0.835   1.657   7.402
  116OSM   H14A12028   0.776   1.573   7.436
  116OSM   H14B12029   0.791   1.737   7.460
  116OSM   H14C12030   0.937   1.638   7.430
  116OSM    C1312031   0.844   1.539   7.194
  116OSM   H13A12032   0.864   1.542   7.088
  116OSM   H13B12033   0.757   1.477   7.211
  116OSM   H13C12034   0.932   1.495   7.237
  116OSM    C1212035   0.912   1.774   7.203
  116OSM   H12A12036   1.009   1.735   7.228
  116OSM   H12B12037   0.892   1.869   7.250
  116OSM    C1112038   0.906   1.795   7.052
  116OSM   H11A12039   0.962   1.887   7.025
  116OSM   H11B12040   0.802   1.820   7.024
  116OSM      P12041   1.103   1.644   6.983
  116OSM    O1312042   1.180   1.770   6.980
  116OSM    O1412043   1.136   1.555   7.097
  116OSM    O1112044   1.118   1.580   6.845
  116OSM    O1212045   0.946   1.682   6.977
  116OSM    C1S12046   1.069   1.649   6.733
  116OSM    H1S12047   1.087   1.758   6.740
  116OSM    H1T12048   0.960   1.628   6.728
  116OSM     NF12049   1.025   1.644   6.487
  116OSM    HNF12050   0.963   1.586   6.435
  116OSM    C2S12051   1.118   1.597   6.589
  116OSM    H2S12052   1.219   1.640   6.576
  116OSM    C3S12053   1.138   1.447   6.601
  116OSM    H3S12054   1.042   1.395   6.624
  116OSM     O312055   1.245   1.400   6.686
  116OSM    HO312056   1.252   1.471   6.750
  116OSM    C4S12057   1.159   1.382   6.462
  116OSM    H4S12058   1.073   1.327   6.421
  116OSM    C5S12059   1.280   1.373   6.396
  116OSM    H5S12060   1.372   1.415   6.440
  116OSM    C6S12061   1.304   1.299   6.263
  116OSM    H6S12062   1.207   1.268   6.219
  116OSM    H6T12063   1.353   1.200   6.275
  116OSM    C7S12064   1.377   1.395   6.161
  116OSM    H7S12065   1.481   1.387   6.201
  116OSM    H7T12066   1.339   1.499   6.164
  116OSM    C8S12067   1.363   1.368   6.015
  116OSM    H8S12068   1.405   1.269   5.988
  116OSM    H8T12069   1.429   1.447   5.973
  116OSM    C9S12070   1.220   1.372   5.965
  116OSM    H9S12071   1.179   1.468   6.001
  116OSM    H9T12072   1.163   1.286   6.007
  116OSM   C10S12073   1.208   1.368   5.813
  116OSM   H10S12074   1.100   1.375   5.787
  116OSM   H10T12075   1.247   1.268   5.784
  116OSM   C11S12076   1.282   1.476   5.744
  116OSM   H11S12077   1.390   1.451   5.739
  116OSM   H11T12078   1.270   1.568   5.804
  116OSM   C12S12079   1.233   1.497   5.604
  116OSM   H12S12080   1.285   1.581   5.553
  116OSM   H12T12081   1.126   1.523   5.605
  116OSM   C13S12082   1.232   1.378   5.509
  116OSM   H13S12083   1.127   1.341   5.514
  116OSM   H13T12084   1.297   1.292   5.538
  116OSM   C14S12085   1.249   1.413   5.363
  116OSM   H14S12086   1.348   1.465   5.362
  116OSM   H14T12087   1.166   1.475   5.322
  116OSM   C15S12088   1.244   1.292   5.268
  116OSM   H15S12089   1.139   1.256   5.256
  116OSM   H15T12090   1.302   1.209   5.313
  116OSM   C16S12091   1.297   1.321   5.129
  116OSM   H16S12092   1.292   1.236   5.058
  116OSM   H16T12093   1.405   1.347   5.125
  116OSM   C17S12094   1.210   1.429   5.058
  116OSM   H17S12095   1.210   1.522   5.119
  116OSM   H17T12096   1.111   1.378   5.048
  116OSM   C18S12097   1.252   1.467   4.916
  116OSM   H18S12098   1.354   1.512   4.922
  116OSM   H18T12099   1.171   1.535   4.882
  116OSM   H18U12100   1.252   1.377   4.851
  116OSM    C1F12101   1.026   1.768   6.446
  116OSM     OF12102   1.111   1.842   6.490
  116OSM    C2F12103   0.912   1.817   6.366
  116OSM    H2F12104   0.845   1.881   6.428
  116OSM    H2G12105   0.840   1.741   6.330
  116OSM    C3F12106   0.963   1.910   6.250
  116OSM    H3F12107   1.004   2.003   6.294
  116OSM    H3G12108   0.876   1.932   6.184
  116OSM    C4F12109   1.072   1.846   6.155
  116OSM    H4F12110   1.036   1.744   6.131
  116OSM    H4G12111   1.170   1.831   6.206
  116OSM    C5F12112   1.096   1.923   6.031
  116OSM    H5F12113   1.148   2.019   6.051
  116OSM    H5G12114   1.002   1.936   5.975
  116OSM    C6F12115   1.177   1.840   5.935
  116OSM    H6F12116   1.106   1.763   5.897
  116OSM    H6G12117   1.263   1.784   5.979
  116OSM    C7F12118   1.246   1.931   5.828
  116OSM    H7F12119   1.350   1.960   5.854
  116OSM    H7G12120   1.177   2.014   5.802
  116OSM    C8F12121   1.276   1.863   5.691
  116OSM    H8F12122   1.190   1.806   5.650
  116OSM    H8G12123   1.365   1.796   5.696
  116OSM    C9F12124   1.320   1.966   5.591
  116OSM    H9F12125   1.392   2.039   5.630
  116OSM   C10F12126   1.289   1.967   5.460
  116OSM   H10F12127   1.309   2.054   5.395
  116OSM   C11F12128   1.188   1.883   5.395
  116OSM   H11F12129   1.094   1.901   5.452
  116OSM   H11G12130   1.207   1.774   5.396
  116OSM   C12F12131   1.172   1.914   5.241
  116OSM   H12F12132   1.166   2.024   5.227
  116OSM   H12G12133   1.071   1.871   5.223
  116OSM   C13F12134   1.276   1.854   5.143
  116OSM   H13F12135   1.269   1.743   5.151
  116OSM   H13G12136   1.370   1.903   5.176
  116OSM   C14F12137   1.248   1.878   4.997
  116OSM   H14F12138   1.244   1.989   4.995
  116OSM   H14G12139   1.149   1.851   4.954
  116OSM   C15F12140   1.363   1.833   4.906
  116OSM   H15F12141   1.373   1.723   4.905
  116OSM   H15G12142   1.454   1.878   4.951
  116OSM   C16F12143   1.355   1.877   4.760
  116OSM   H16F12144   1.378   1.986   4.761
  116OSM   H16G12145   1.258   1.851   4.712
  116OSM   C17F12146   1.470   1.820   4.677
  116OSM   H17F12147   1.576   1.831   4.707
  116OSM   H17G12148   1.462   1.873   4.580
  116OSM   C18F12149   1.449   1.669   4.641
  116OSM   H18F12150   1.508   1.602   4.708
  116OSM   H18G12151   1.488   1.650   4.539
  116OSM   H18H12152   1.343   1.637   4.649
  117OSM      N12153   0.781   3.816   6.645
  117OSM    C1512154   0.652   3.817   6.724
  117OSM   H15A12155   0.657   3.745   6.805
  117OSM   H15B12156   0.569   3.779   6.666
  117OSM   H15C12157   0.637   3.916   6.765
  117OSM    C1412158   0.881   3.888   6.719
  117OSM   H14A12159   0.895   3.864   6.823
  117OSM   H14B12160   0.867   3.995   6.705
  117OSM   H14C12161   0.976   3.855   6.680
  117OSM    C1312162   0.823   3.671   6.631
  117OSM   H13A12163   0.829   3.621   6.726
  117OSM   H13B12164   0.917   3.667   6.578
  117OSM   H13C12165   0.745   3.621   6.576
  117OSM    C1212166   0.758   3.876   6.513
  117OSM   H12A12167   0.670   3.826   6.477
  117OSM   H12B12168   0.831   3.842   6.441
  117OSM    C1112169   0.738   4.026   6.498
  117OSM   H11A12170   0.750   4.071   6.397
  117OSM   H11B12171   0.821   4.074   6.554
  117OSM      P12172   0.595   4.157   6.676
  117OSM    O1312173   0.500   4.101   6.775
  117OSM    O1412174   0.721   4.193   6.735
  117OSM    O1112175   0.521   4.283   6.612
  117OSM    O1212176   0.602   4.064   6.552
  117OSM    C1S12177   0.585   4.348   6.502
  117OSM    H1S12178   0.690   4.320   6.478
  117OSM    H1T12179   0.589   4.455   6.531
  117OSM     NF12180   0.567   4.446   6.283
  117OSM    HNF12181   0.524   4.535   6.277
  117OSM    C2S12182   0.497   4.353   6.373
  117OSM    H2S12183   0.499   4.246   6.341
  117OSM    C3S12184   0.347   4.392   6.405
  117OSM    H3S12185   0.357   4.495   6.445
  117OSM     O312186   0.279   4.313   6.498
  117OSM    HO312187   0.349   4.269   6.547
  117OSM    C4S12188   0.265   4.404   6.287
  117OSM    H4S12189   0.239   4.507   6.257
  117OSM    C5S12190   0.200   4.302   6.217
  117OSM    H5S12191   0.201   4.198   6.252
  117OSM    C6S12192   0.107   4.342   6.097
  117OSM    H6S12193   0.077   4.446   6.122
  117OSM    H6T12194   0.014   4.283   6.100
  117OSM    C7S12195   0.177   4.330   5.966
  117OSM    H7S12196   0.182   4.220   5.951
  117OSM    H7T12197   0.284   4.361   5.975
  117OSM    C8S12198   0.090   4.398   5.850
  117OSM    H8S12199   0.093   4.506   5.873
  117OSM    H8T12200   6.804   4.368   5.862
  117OSM    C9S12201   0.146   4.366   5.712
  117OSM    H9S12202   0.157   4.256   5.710
  117OSM    H9T12203   0.251   4.402   5.709
  117OSM   C10S12204   0.062   4.405   5.588
  117OSM   H10S12205   0.036   4.511   5.611
  117OSM   H10T12206   6.794   4.336   5.590
  117OSM   C11S12207   0.145   4.405   5.460
  117OSM   H11S12208   0.202   4.311   5.443
  117OSM   H11T12209   0.226   4.480   5.468
  117OSM   C12S12210   0.074   4.448   5.332
  117OSM   H12S12211   0.035   4.552   5.332
  117OSM   H12T12212   6.802   4.386   5.334
  117OSM   C13S12213   0.155   4.416   5.196
  117OSM   H13S12214   0.173   4.307   5.187
  117OSM   H13T12215   0.254   4.468   5.202
  117OSM   C14S12216   0.080   4.464   5.068
  117OSM   H14S12217   6.797   4.422   5.075
  117OSM   H14T12218   0.126   4.427   4.974
  117OSM   C15S12219   0.061   4.622   5.064
  117OSM   H15S12220   0.161   4.666   5.042
  117OSM   H15T12221   0.028   4.657   5.164
  117OSM   C16S12222   6.790   4.665   4.944
  117OSM   H16S12223   6.684   4.663   4.976
  117OSM   H16T12224   6.795   4.612   4.847
  117OSM   C17S12225   6.812   4.817   4.922
  117OSM   H17S12226   0.092   4.813   4.873
  117OSM   H17T12227   0.013   4.866   5.020
  117OSM   C18S12228   6.705   4.892   4.831
  117OSM   H18S12229   6.678   4.843   4.735
  117OSM   H18T12230   6.733   4.995   4.798
  117OSM   H18U12231   6.617   4.919   4.893
  117OSM    C1F12232   0.687   4.428   6.225
  117OSM     OF12233   0.741   4.324   6.217
  117OSM    C2F12234   0.754   4.550   6.165
  117OSM    H2F12235   0.860   4.567   6.192
  117OSM    H2G12236   0.700   4.645   6.181
  117OSM    C3F12237   0.774   4.522   6.013
  117OSM    H3F12238   0.680   4.484   5.966
  117OSM    H3G12239   0.844   4.436   6.002
  117OSM    C4F12240   0.817   4.646   5.928
  117OSM    H4F12241   0.897   4.701   5.983
  117OSM    H4G12242   0.734   4.720   5.931
  117OSM    C5F12243   0.842   4.620   5.786
  117OSM    H5F12244   0.759   4.562   5.741
  117OSM    H5G12245   0.935   4.559   5.777
  117OSM    C6F12246   0.859   4.749   5.702
  117OSM    H6F12247   0.956   4.791   5.736
  117OSM    H6G12248   0.779   4.818   5.737
  117OSM    C7F12249   0.866   4.734   5.545
  117OSM    H7F12250   0.771   4.680   5.525
  117OSM    H7G12251   0.945   4.661   5.514
  117OSM    C8F12252   0.887   4.860   5.466
  117OSM    H8F12253   0.813   4.937   5.496
  117OSM    H8G12254   0.858   4.833   5.362
  117OSM    C9F12255   1.024   4.911   5.472
  117OSM    H9F12256   1.040   4.971   5.563
  117OSM   C10F12257   1.128   4.889   5.384
  117OSM   H10F12258   1.221   4.947   5.395
  117OSM   C11F12259   1.146   4.806   5.256
  117OSM   H11F12260   1.064   4.732   5.250
  117OSM   H11G12261   1.236   4.742   5.260
  117OSM   C12F12262   1.129   4.870   5.123
  117OSM   H12F12263   1.211   4.946   5.117
  117OSM   H12G12264   1.038   4.934   5.113
  117OSM   C13F12265   1.130   4.772   5.010
  117OSM   H13F12266   1.026   4.738   4.996
  117OSM   H13G12267   1.185   4.682   5.044
  117OSM   C14F12268   1.183   4.832   4.876
  117OSM   H14F12269   1.181   4.744   4.808
  117OSM   H14G12270   1.291   4.858   4.881
  117OSM   C15F12271   1.101   4.952   4.832
  117OSM   H15F12272   1.116   5.033   4.905
  117OSM   H15G12273   0.994   4.929   4.847
  117OSM   C16F12274   1.137   4.998   4.689
  117OSM   H16F12275   1.095   4.920   4.622
  117OSM   H16G12276   1.239   5.034   4.664
  117OSM   C17F12277   1.063   5.131   4.648
  117OSM   H17F12278   0.956   5.114   4.674
  117OSM   H17G12279   1.064   5.164   4.542
  117OSM   C18F12280   1.101   5.252   4.735
  117OSM   H18F12281   1.065   5.341   4.679
  117OSM   H18G12282   1.211   5.249   4.751
  117OSM   H18H12283   1.049   5.252   4.834
  118OSM      N12284   0.071   3.887   6.526
  118OSM    C1512285   0.137   4.017   6.537
  118OSM   H15A12286   0.089   4.099   6.487
  118OSM   H15B12287   0.233   4.011   6.487
  118OSM   H15C12288   0.157   4.044   6.639
  118OSM    C1412289   6.746   3.904   6.565
  118OSM   H14A12290   6.696   3.990   6.524
  118OSM   H14B12291   6.740   3.900   6.672
  118OSM   H14C12292   6.686   3.820   6.531
  118OSM    C1312293   0.091   3.836   6.385
  118OSM   H13A12294   0.048   3.907   6.316
  118OSM   H13B12295   0.039   3.742   6.379
  118OSM   H13C12296   0.195   3.815   6.365
  118OSM    C1212297   0.136   3.788   6.627
  118OSM   H12A12298   0.095   3.689   6.609
  118OSM   H12B12299   0.109   3.826   6.724
  118OSM    C1112300   0.295   3.791   6.629
  118OSM   H11A12301   0.328   3.726   6.713
  118OSM   H11B12302   0.334   3.891   6.658
  118OSM      P12303   0.457   3.631   6.494
  118OSM    O1312304   0.574   3.659   6.412
  118OSM    O1412305   0.493   3.573   6.628
  118OSM    O1112306   0.360   3.536   6.414
  118OSM    O1212307   0.363   3.759   6.504
  118OSM    C1S12308   0.417   3.439   6.328
  118OSM    H1S12309   0.376   3.337   6.347
  118OSM    H1T12310   0.528   3.433   6.332
  118OSM     NF12311   0.457   3.364   6.098
  118OSM    HNF12312   0.533   3.403   6.046
  118OSM    C2S12313   0.375   3.456   6.181
  118OSM    H2S12314   0.271   3.421   6.167
  118OSM    C3S12315   0.388   3.607   6.133
  118OSM    H3S12316   0.486   3.652   6.159
  118OSM     O312317   0.284   3.685   6.200
  118OSM    HO312318   0.248   3.632   6.272
  118OSM    C4S12319   0.365   3.608   5.988
  118OSM    H4S12320   0.283   3.540   5.958
  118OSM    C5S12321   0.448   3.653   5.895
  118OSM    H5S12322   0.541   3.701   5.928
  118OSM    C6S12323   0.422   3.633   5.746
  118OSM    H6S12324   0.471   3.708   5.680
  118OSM    H6T12325   0.315   3.656   5.729
  118OSM    C7S12326   0.476   3.493   5.712
  118OSM    H7S12327   0.416   3.419   5.769
  118OSM    H7T12328   0.585   3.475   5.715
  118OSM    C8S12329   0.436   3.464   5.559
  118OSM    H8S12330   0.326   3.454   5.548
  118OSM    H8T12331   0.481   3.365   5.536
  118OSM    C9S12332   0.497   3.559   5.459
  118OSM    H9S12333   0.606   3.565   5.483
  118OSM    H9T12334   0.457   3.662   5.475
  118OSM   C10S12335   0.466   3.511   5.316
  118OSM   H10S12336   0.458   3.601   5.252
  118OSM   H10T12337   0.368   3.460   5.322
  118OSM   C11S12338   0.575   3.413   5.263
  118OSM   H11S12339   0.585   3.344   5.349
  118OSM   H11T12340   0.675   3.459   5.248
  118OSM   C12S12341   0.527   3.340   5.134
  118OSM   H12S12342   0.441   3.275   5.159
  118OSM   H12T12343   0.612   3.276   5.101
  118OSM   C13S12344   0.485   3.422   5.007
  118OSM   H13S12345   0.384   3.461   5.033
  118OSM   H13T12346   0.476   3.339   4.934
  118OSM   C14S12347   0.575   3.539   4.959
  118OSM   H14S12348   0.672   3.491   4.933
  118OSM   H14T12349   0.582   3.610   5.045
  118OSM   C15S12350   0.522   3.612   4.834
  118OSM   H15S12351   0.582   3.704   4.817
  118OSM   H15T12352   0.426   3.663   4.855
  118OSM   C16S12353   0.528   3.530   4.709
  118OSM   H16S12354   0.457   3.445   4.724
  118OSM   H16T12355   0.634   3.499   4.699
  118OSM   C17S12356   0.483   3.605   4.580
  118OSM   H17S12357   0.487   3.536   4.493
  118OSM   H17T12358   0.557   3.682   4.550
  118OSM   C18S12359   0.357   3.679   4.590
  118OSM   H18S12360   0.370   3.771   4.652
  118OSM   H18T12361   0.266   3.629   4.630
  118OSM   H18U12362   0.329   3.715   4.489
  118OSM    C1F12363   0.458   3.232   6.111
  118OSM     OF12364   0.349   3.188   6.126
  118OSM    C2F12365   0.582   3.156   6.091
  118OSM    H2F12366   0.614   3.126   6.193
  118OSM    H2G12367   0.656   3.232   6.055
  118OSM    C3F12368   0.565   3.030   6.004
  118OSM    H3F12369   0.497   3.037   5.916
  118OSM    H3G12370   0.514   2.948   6.058
  118OSM    C4F12371   0.696   2.993   5.940
  118OSM    H4F12372   0.691   2.904   5.874
  118OSM    H4G12373   0.781   2.980   6.010
  118OSM    C5F12374   0.751   3.097   5.840
  118OSM    H5F12375   0.852   3.062   5.812
  118OSM    H5G12376   0.760   3.196   5.890
  118OSM    C6F12377   0.666   3.113   5.710
  118OSM    H6F12378   0.571   3.158   5.747
  118OSM    H6G12379   0.637   3.018   5.659
  118OSM    C7F12380   0.737   3.203   5.612
  118OSM    H7F12381   0.773   3.300   5.653
  118OSM    H7G12382   0.677   3.225   5.521
  118OSM    C8F12383   0.862   3.140   5.555
  118OSM    H8F12384   0.938   3.144   5.636
  118OSM    H8G12385   0.905   3.203   5.475
  118OSM    C9F12386   0.826   3.009   5.501
  118OSM    H9F12387   0.821   2.920   5.566
  118OSM   C10F12388   0.826   2.978   5.371
  118OSM   H10F12389   0.813   2.872   5.345
  118OSM   C11F12390   0.837   3.078   5.255
  118OSM   H11F12391   0.852   3.184   5.284
  118OSM   H11G12392   0.738   3.078   5.205
  118OSM   C12F12393   0.928   3.036   5.140
  118OSM   H12F12394   0.912   2.933   5.102
  118OSM   H12G12395   1.025   3.044   5.194
  118OSM   C13F12396   0.942   3.141   5.030
  118OSM   H13F12397   1.029   3.134   4.962
  118OSM   H13G12398   0.940   3.244   5.072
  118OSM   C14F12399   0.827   3.129   4.930
  118OSM   H14F12400   0.728   3.143   4.978
  118OSM   H14G12401   0.834   3.024   4.895
  118OSM   C15F12402   0.833   3.217   4.805
  118OSM   H15F12403   0.825   3.323   4.836
  118OSM   H15G12404   0.739   3.190   4.752
  118OSM   C16F12405   0.955   3.184   4.721
  118OSM   H16F12406   0.967   3.073   4.715
  118OSM   H16G12407   1.049   3.226   4.763
  118OSM   C17F12408   0.941   3.235   4.575
  118OSM   H17F12409   1.033   3.220   4.515
  118OSM   H17G12410   0.924   3.345   4.576
  118OSM   C18F12411   0.832   3.164   4.497
  118OSM   H18F12412   0.732   3.198   4.530
  118OSM   H18G12413   0.843   3.054   4.503
  118OSM   H18H12414   0.853   3.190   4.390
  119OSM      N12415   3.498   1.229   7.056
  119OSM    C1512416   3.599   1.135   6.991
  119OSM   H15A12417   3.675   1.192   6.939
  119OSM   H15B12418   3.549   1.074   6.917
  119OSM   H15C12419   3.643   1.066   7.061
  119OSM    C1412420   3.399   1.151   7.147
  119OSM   H14A12421   3.342   1.089   7.080
  119OSM   H14B12422   3.329   1.217   7.195
  119OSM   H14C12423   3.458   1.084   7.208
  119OSM    C1312424   3.572   1.314   7.138
  119OSM   H13A12425   3.515   1.384   7.199
  119OSM   H13B12426   3.652   1.365   7.087
  119OSM   H13C12427   3.614   1.255   7.218
  119OSM    C1212428   3.422   1.305   6.948
  119OSM   H12A12429   3.496   1.368   6.900
  119OSM   H12B12430   3.359   1.375   7.001
  119OSM    C1112431   3.348   1.224   6.839
  119OSM   H11A12432   3.427   1.177   6.776
  119OSM   H11B12433   3.310   1.302   6.769
  119OSM      P12434   3.111   1.165   6.911
  119OSM    O1312435   3.052   1.045   6.976
  119OSM    O1412436   3.115   1.294   6.981
  119OSM    O1112437   3.059   1.183   6.763
  119OSM    O1212438   3.262   1.125   6.879
  119OSM    C1S12439   3.035   1.063   6.688
  119OSM    H1S12440   2.941   1.011   6.717
  119OSM    H1T12441   3.118   0.990   6.693
  119OSM     NF12442   3.027   0.984   6.451
  119OSM    HNF12443   3.114   0.953   6.415
  119OSM    C2S12444   3.027   1.098   6.530
  119OSM    H2S12445   2.930   1.152   6.518
  119OSM    C3S12446   3.141   1.198   6.494
  119OSM    H3S12447   3.238   1.145   6.505
  119OSM     O312448   3.147   1.323   6.562
  119OSM    HO312449   3.103   1.301   6.644
  119OSM    C4S12450   3.117   1.232   6.348
  119OSM    H4S12451   3.017   1.275   6.330
  119OSM    C5S12452   3.202   1.199   6.249
  119OSM    H5S12453   3.298   1.160   6.286
  119OSM    C6S12454   3.174   1.207   6.104
  119OSM    H6S12455   3.200   1.103   6.073
  119OSM    H6T12456   3.247   1.278   6.060
  119OSM    C7S12457   3.032   1.244   6.050
  119OSM    H7S12458   2.999   1.344   6.086
  119OSM    H7T12459   2.953   1.174   6.087
  119OSM    C8S12460   3.020   1.238   5.894
  119OSM    H8S12461   2.919   1.213   5.857
  119OSM    H8T12462   3.097   1.176   5.843
  119OSM    C9S12463   3.057   1.377   5.830
  119OSM    H9S12464   3.143   1.430   5.878
  119OSM    H9T12465   2.961   1.431   5.844
  119OSM   C10S12466   3.095   1.368   5.674
  119OSM   H10S12467   2.993   1.344   5.635
  119OSM   H10T12468   3.173   1.292   5.653
  119OSM   C11S12469   3.146   1.503   5.629
  119OSM   H11S12470   3.255   1.488   5.644
  119OSM   H11T12471   3.107   1.584   5.695
  119OSM   C12S12472   3.132   1.538   5.487
  119OSM   H12S12473   3.184   1.636   5.479
  119OSM   H12T12474   3.024   1.541   5.458
  119OSM   C13S12475   3.202   1.448   5.394
  119OSM   H13S12476   3.151   1.352   5.414
  119OSM   H13T12477   3.309   1.446   5.423
  119OSM   C14S12478   3.187   1.493   5.252
  119OSM   H14S12479   3.082   1.528   5.244
  119OSM   H14T12480   3.205   1.415   5.175
  119OSM   C15S12481   3.278   1.607   5.216
  119OSM   H15S12482   3.382   1.568   5.224
  119OSM   H15T12483   3.266   1.689   5.290
  119OSM   C16S12484   3.251   1.672   5.085
  119OSM   H16S12485   3.323   1.751   5.056
  119OSM   H16T12486   3.152   1.724   5.085
  119OSM   C17S12487   3.272   1.570   4.959
  119OSM   H17S12488   3.196   1.489   4.971
  119OSM   H17T12489   3.368   1.517   4.981
  119OSM   C18S12490   3.276   1.631   4.822
  119OSM   H18S12491   3.181   1.687   4.806
  119OSM   H18T12492   3.292   1.541   4.759
  119OSM   H18U12493   3.360   1.703   4.810
  119OSM    C1F12494   2.927   0.902   6.434
  119OSM     OF12495   2.822   0.924   6.489
  119OSM    C2F12496   2.950   0.784   6.343
  119OSM    H2F12497   2.853   0.731   6.333
  119OSM    H2G12498   3.026   0.715   6.385
  119OSM    C3F12499   2.992   0.836   6.202
  119OSM    H3F12500   3.066   0.919   6.197
  119OSM    H3G12501   2.905   0.893   6.161
  119OSM    C4F12502   3.045   0.731   6.114
  119OSM    H4F12503   2.976   0.656   6.069
  119OSM    H4G12504   3.119   0.677   6.176
  119OSM    C5F12505   3.124   0.779   5.990
  119OSM    H5F12506   3.182   0.694   5.946
  119OSM    H5G12507   3.197   0.855   6.027
  119OSM    C6F12508   3.028   0.824   5.889
  119OSM    H6F12509   2.971   0.914   5.923
  119OSM    H6G12510   2.948   0.749   5.872
  119OSM    C7F12511   3.090   0.867   5.750
  119OSM    H7F12512   3.146   0.780   5.710
  119OSM    H7G12513   3.156   0.944   5.796
  119OSM    C8F12514   2.969   0.920   5.663
  119OSM    H8F12515   2.909   0.979   5.735
  119OSM    H8G12516   2.920   0.827   5.627
  119OSM    C9F12517   3.004   1.007   5.544
  119OSM    H9F12518   3.080   1.081   5.573
  119OSM   C10F12519   2.981   0.996   5.410
  119OSM   H10F12520   3.007   1.077   5.340
  119OSM   C11F12521   2.897   0.888   5.346
  119OSM   H11F12522   2.807   0.932   5.298
  119OSM   H11G12523   2.858   0.818   5.423
  119OSM   C12F12524   2.966   0.793   5.243
  119OSM   H12F12525   2.893   0.713   5.218
  119OSM   H12G12526   3.049   0.739   5.293
  119OSM   C13F12527   3.011   0.861   5.112
  119OSM   H13F12528   3.106   0.917   5.125
  119OSM   H13G12529   2.919   0.919   5.088
  119OSM   C14F12530   3.046   0.758   5.010
  119OSM   H14F12531   2.962   0.691   4.983
  119OSM   H14G12532   3.142   0.717   5.048
  119OSM   C15F12533   3.080   0.815   4.874
  119OSM   H15F12534   3.136   0.740   4.814
  119OSM   H15G12535   3.135   0.908   4.896
  119OSM   C16F12536   2.957   0.824   4.781
  119OSM   H16F12537   2.859   0.811   4.831
  119OSM   H16G12538   2.953   0.737   4.711
  119OSM   C17F12539   2.946   0.963   4.702
  119OSM   H17F12540   3.044   1.015   4.708
  119OSM   H17G12541   2.885   1.036   4.761
  119OSM   C18F12542   2.890   0.939   4.561
  119OSM   H18F12543   2.818   0.856   4.550
  119OSM   H18G12544   2.984   0.915   4.506
  119OSM   H18H12545   2.835   1.031   4.533
  120OSM      N12546   5.717   4.595   6.643
  120OSM    C1512547   5.679   4.471   6.564
  120OSM   H15A12548   5.766   4.412   6.539
  120OSM   H15B12549   5.629   4.505   6.475
  120OSM   H15C12550   5.620   4.393   6.611
  120OSM    C1412551   5.792   4.552   6.772
  120OSM   H14A12552   5.876   4.492   6.740
  120OSM   H14B12553   5.725   4.497   6.835
  120OSM   H14C12554   5.820   4.640   6.828
  120OSM    C1312555   5.803   4.682   6.565
  120OSM   H13A12556   5.744   4.729   6.488
  120OSM   H13B12557   5.884   4.637   6.510
  120OSM   H13C12558   5.843   4.770   6.614
  120OSM    C1212559   5.592   4.672   6.697
  120OSM   H12A12560   5.620   4.751   6.765
  120OSM   H12B12561   5.529   4.604   6.752
  120OSM    C1112562   5.502   4.740   6.591
  120OSM   H11A12563   5.407   4.771   6.640
  120OSM   H11B12564   5.493   4.671   6.504
  120OSM      P12565   5.610   4.972   6.628
  120OSM    O1312566   5.578   4.944   6.767
  120OSM    O1412567   5.747   5.017   6.595
  120OSM    O1112568   5.508   5.087   6.576
  120OSM    O1212569   5.566   4.857   6.533
  120OSM    C1S12570   5.540   5.167   6.462
  120OSM    H1S12571   5.647   5.193   6.466
  120OSM    H1T12572   5.489   5.266   6.462
  120OSM     NF12573   5.556   5.186   6.218
  120OSM    HNF12574   5.509   5.273   6.205
  120OSM    C2S12575   5.501   5.108   6.325
  120OSM    H2S12576   5.551   5.010   6.310
  120OSM    C3S12577   5.347   5.090   6.318
  120OSM    H3S12578   5.299   5.189   6.303
  120OSM     O312579   5.282   5.051   6.431
  120OSM    HO312580   5.350   5.062   6.498
  120OSM    C4S12581   5.309   5.002   6.199
  120OSM    H4S12582   5.368   4.909   6.199
  120OSM    C5S12583   5.230   5.035   6.095
  120OSM    H5S12584   5.185   5.135   6.082
  120OSM    C6S12585   5.206   4.946   5.975
  120OSM    H6S12586   5.111   4.888   5.974
  120OSM    H6T12587   5.289   4.874   5.956
  120OSM    C7S12588   5.192   5.031   5.850
  120OSM    H7S12589   5.213   4.960   5.767
  120OSM    H7T12590   5.252   5.122   5.827
  120OSM    C8S12591   5.048   5.086   5.824
  120OSM    H8S12592   5.028   5.153   5.910
  120OSM    H8T12593   4.969   5.010   5.805
  120OSM    C9S12594   5.047   5.161   5.688
  120OSM    H9S12595   5.123   5.242   5.697
  120OSM    H9T12596   4.949   5.213   5.676
  120OSM   C10S12597   5.067   5.066   5.565
  120OSM   H10S12598   4.996   4.982   5.581
  120OSM   H10T12599   5.169   5.023   5.567
  120OSM   C11S12600   5.033   5.130   5.430
  120OSM   H11S12601   5.101   5.217   5.414
  120OSM   H11T12602   4.931   5.170   5.447
  120OSM   C12S12603   5.042   5.028   5.322
  120OSM   H12S12604   4.973   4.940   5.325
  120OSM   H12T12605   5.140   4.977   5.319
  120OSM   C13S12606   4.995   5.088   5.183
  120OSM   H13S12607   5.074   5.161   5.155
  120OSM   H13T12608   4.901   5.142   5.210
  120OSM   C14S12609   4.959   4.984   5.068
  120OSM   H14S12610   4.890   4.912   5.119
  120OSM   H14T12611   5.049   4.929   5.035
  120OSM   C15S12612   4.877   5.054   4.957
  120OSM   H15S12613   4.928   5.145   4.917
  120OSM   H15T12614   4.777   5.082   4.997
  120OSM   C16S12615   4.860   4.962   4.838
  120OSM   H16S12616   4.960   4.940   4.794
  120OSM   H16T12617   4.804   5.007   4.753
  120OSM   C17S12618   4.789   4.832   4.877
  120OSM   H17S12619   4.733   4.837   4.973
  120OSM   H17T12620   4.866   4.753   4.888
  120OSM   C18S12621   4.690   4.782   4.776
  120OSM   H18S12622   4.661   4.678   4.801
  120OSM   H18T12623   4.748   4.779   4.681
  120OSM   H18U12624   4.608   4.856   4.768
  120OSM    C1F12625   5.685   5.174   6.176
  120OSM     OF12626   5.753   5.077   6.215
  120OSM    C2F12627   5.741   5.286   6.090
  120OSM    H2F12628   5.800   5.361   6.147
  120OSM    H2G12629   5.659   5.341   6.040
  120OSM    C3F12630   5.831   5.236   5.975
  120OSM    H3F12631   5.762   5.183   5.905
  120OSM    H3G12632   5.910   5.180   6.028
  120OSM    C4F12633   5.896   5.351   5.899
  120OSM    H4F12634   5.959   5.419   5.961
  120OSM    H4G12635   5.818   5.422   5.865
  120OSM    C5F12636   5.992   5.300   5.786
  120OSM    H5F12637   6.075   5.241   5.831
  120OSM    H5G12638   6.031   5.386   5.727
  120OSM    C6F12639   5.917   5.222   5.670
  120OSM    H6F12640   5.857   5.133   5.700
  120OSM    H6G12641   5.992   5.190   5.594
  120OSM    C7F12642   5.819   5.311   5.592
  120OSM    H7F12643   5.732   5.333   5.656
  120OSM    H7G12644   5.785   5.242   5.512
  120OSM    C8F12645   5.869   5.442   5.524
  120OSM    H8F12646   5.903   5.519   5.597
  120OSM    H8G12647   5.779   5.478   5.469
  120OSM    C9F12648   5.985   5.413   5.429
  120OSM    H9F12649   6.075   5.392   5.488
  120OSM   C10F12650   5.979   5.391   5.298
  120OSM   H10F12651   6.068   5.374   5.236
  120OSM   C11F12652   5.849   5.403   5.222
  120OSM   H11F12653   5.800   5.494   5.263
  120OSM   H11G12654   5.776   5.319   5.230
  120OSM   C12F12655   5.850   5.452   5.075
  120OSM   H12F12656   5.916   5.542   5.074
  120OSM   H12G12657   5.742   5.462   5.052
  120OSM   C13F12658   5.904   5.352   4.983
  120OSM   H13F12659   5.838   5.264   4.998
  120OSM   H13G12660   6.003   5.316   5.020
  120OSM   C14F12661   5.910   5.397   4.832
  120OSM   H14F12662   5.822   5.463   4.821
  120OSM   H14G12663   5.903   5.309   4.764
  120OSM   C15F12664   6.034   5.473   4.783
  120OSM   H15F12665   6.123   5.409   4.804
  120OSM   H15G12666   6.036   5.565   4.844
  120OSM   C16F12667   6.026   5.507   4.635
  120OSM   H16F12668   6.033   5.412   4.578
  120OSM   H16G12669   6.112   5.568   4.600
  120OSM   C17F12670   5.895   5.570   4.588
  120OSM   H17F12671   5.819   5.489   4.600
  120OSM   H17G12672   5.899   5.582   4.478
  120OSM   C18F12673   5.845   5.707   4.665
  120OSM   H18F12674   5.766   5.759   4.607
  120OSM   H18G12675   5.924   5.785   4.667
  120OSM   H18H12676   5.808   5.681   4.767
  121OSM      N12677   6.466   1.112   7.270
  121OSM    C1512678   6.522   1.249   7.287
  121OSM   H15A12679   6.522   1.297   7.190
  121OSM   H15B12680   6.620   1.243   7.333
  121OSM   H15C12681   6.458   1.314   7.345
  121OSM    C1412682   6.444   1.066   7.414
  121OSM   H14A12683   6.377   0.981   7.416
  121OSM   H14B12684   6.405   1.155   7.460
  121OSM   H14C12685   6.532   1.050   7.474
  121OSM    C1312686   6.331   1.101   7.206
  121OSM   H13A12687   6.265   1.172   7.254
  121OSM   H13B12688   6.297   0.999   7.214
  121OSM   H13C12689   6.351   1.120   7.101
  121OSM    C1212690   6.566   1.022   7.199
  121OSM   H12A12691   6.547   0.922   7.235
  121OSM   H12B12692   6.664   1.050   7.235
  121OSM    C1112693   6.565   1.024   7.042
  121OSM   H11A12694   6.498   0.944   7.002
  121OSM   H11B12695   6.659   0.974   7.012
  121OSM      P12696   6.665   1.234   6.928
  121OSM    O1312697   6.623   1.372   6.878
  121OSM    O1412698   6.773   1.217   7.022
  121OSM    O1112699   6.695   1.141   6.815
  121OSM    O1212700   6.539   1.153   6.982
  121OSM    C1S12701   6.629   1.134   6.692
  121OSM    H1S12702   6.626   1.232   6.639
  121OSM    H1T12703   6.527   1.091   6.697
  121OSM     NF12704   6.667   1.042   6.459
  121OSM    HNF12705   6.597   0.973   6.443
  121OSM    C2S12706   6.711   1.044   6.596
  121OSM    H2S12707   6.816   1.080   6.599
  121OSM    C3S12708   6.725   0.905   6.655
  121OSM    H3S12709   6.626   0.853   6.652
  121OSM     O312710   6.770   0.900   6.790
  121OSM    HO312711   6.756   0.989   6.825
  121OSM    C4S12712   0.006   0.828   6.576
  121OSM    H4S12713   0.099   0.880   6.548
  121OSM    C5S12714   6.801   0.713   6.512
  121OSM    H5S12715   6.694   0.687   6.518
  121OSM    C6S12716   0.079   0.644   6.419
  121OSM    H6S12717   0.062   0.534   6.412
  121OSM    H6T12718   0.183   0.672   6.444
  121OSM    C7S12719   0.048   0.710   6.284
  121OSM    H7S12720   0.067   0.819   6.274
  121OSM    H7T12721   6.758   0.700   6.268
  121OSM    C8S12722   0.121   0.651   6.170
  121OSM    H8S12723   0.107   0.541   6.167
  121OSM    H8T12724   0.225   0.672   6.203
  121OSM    C9S12725   0.069   0.715   6.040
  121OSM    H9S12726   0.107   0.817   6.019
  121OSM    H9T12727   6.780   0.732   6.054
  121OSM   C10S12728   0.084   0.628   5.914
  121OSM   H10S12729   0.023   0.536   5.924
  121OSM   H10T12730   0.188   0.589   5.904
  121OSM   C11S12731   0.054   0.704   5.782
  121OSM   H11S12732   0.108   0.801   5.787
  121OSM   H11T12733   6.764   0.725   5.780
  121OSM   C12S12734   0.099   0.625   5.657
  121OSM   H12S12735   0.033   0.535   5.654
  121OSM   H12T12736   0.208   0.602   5.659
  121OSM   C13S12737   0.047   0.700   5.533
  121OSM   H13S12738   0.129   0.759   5.486
  121OSM   H13T12739   6.781   0.766   5.560
  121OSM   C14S12740   6.813   0.602   5.422
  121OSM   H14S12741   6.719   0.554   5.458
  121OSM   H14T12742   0.064   0.517   5.407
  121OSM   C15S12743   6.788   0.674   5.289
  121OSM   H15S12744   0.049   0.746   5.267
  121OSM   H15T12745   6.701   0.740   5.311
  121OSM   C16S12746   6.768   0.579   5.165
  121OSM   H16S12747   6.667   0.534   5.177
  121OSM   H16T12748   0.030   0.504   5.169
  121OSM   C17S12749   6.769   0.652   5.037
  121OSM   H17S12750   0.045   0.708   5.043
  121OSM   H17T12751   6.686   0.725   5.033
  121OSM   C18S12752   6.770   0.557   4.920
  121OSM   H18S12753   6.764   0.599   4.817
  121OSM   H18T12754   6.688   0.482   4.925
  121OSM   H18U12755   0.043   0.496   4.918
  121OSM    C1F12756   6.685   1.151   6.378
  121OSM     OF12757   6.745   1.245   6.429
  121OSM    C2F12758   6.625   1.143   6.237
  121OSM    H2F12759   6.537   1.075   6.233
  121OSM    H2G12760   6.691   1.105   6.157
  121OSM    C3F12761   6.575   1.280   6.186
  121OSM    H3F12762   6.643   1.365   6.210
  121OSM    H3G12763   6.480   1.315   6.230
  121OSM    C4F12764   6.540   1.271   6.032
  121OSM    H4F12765   6.511   1.373   6.001
  121OSM    H4G12766   6.462   1.195   6.011
  121OSM    C5F12767   6.653   1.220   5.941
  121OSM    H5F12768   6.657   1.109   5.952
  121OSM    H5G12769   6.746   1.266   5.983
  121OSM    C6F12770   6.645   1.249   5.790
  121OSM    H6F12771   6.733   1.200   5.741
  121OSM    H6G12772   6.640   1.358   5.771
  121OSM    C7F12773   6.533   1.192   5.710
  121OSM    H7F12774   6.442   1.238   5.753
  121OSM    H7G12775   6.528   1.083   5.729
  121OSM    C8F12776   6.558   1.214   5.560
  121OSM    H8F12777   6.569   1.322   5.537
  121OSM    H8G12778   6.465   1.188   5.503
  121OSM    C9F12779   6.667   1.131   5.489
  121OSM    H9F12780   6.738   1.095   5.565
  121OSM   C10F12781   6.678   1.096   5.358
  121OSM   H10F12782   6.755   1.022   5.332
  121OSM   C11F12783   6.583   1.130   5.250
  121OSM   H11F12784   6.522   1.216   5.282
  121OSM   H11G12785   6.522   1.039   5.232
  121OSM   C12F12786   6.638   1.155   5.105
  121OSM   H12F12787   6.700   1.247   5.104
  121OSM   H12G12788   6.544   1.179   5.052
  121OSM   C13F12789   6.708   1.035   5.045
  121OSM   H13F12790   6.657   0.939   5.063
  121OSM   H13G12791   6.811   1.039   5.087
  121OSM   C14F12792   6.728   1.052   4.894
  121OSM   H14F12793   6.788   1.145   4.882
  121OSM   H14G12794   6.632   1.063   4.840
  121OSM   C15F12795   6.803   0.940   4.824
  121OSM   H15F12796   6.747   0.846   4.843
  121OSM   H15G12797   0.084   0.918   4.865
  121OSM   C16F12798   6.806   0.947   4.671
  121OSM   H16F12799   6.709   0.963   4.620
  121OSM   H16G12800   0.013   0.846   4.632
  121OSM   C17F12801   0.095   1.040   4.614
  121OSM   H17F12802   0.188   0.996   4.656
  121OSM   H17G12803   0.090   1.143   4.656
  121OSM   C18F12804   0.124   1.028   4.466
  121OSM   H18F12805   0.045   1.088   4.418
  121OSM   H18G12806   0.112   0.919   4.447
  121OSM   H18H12807   0.229   1.064   4.462
  122OSM      N12808   6.648   4.347   7.078
  122OSM    C1512809   6.714   4.213   7.094
  122OSM   H15A12810   6.714   4.181   6.991
  122OSM   H15B12811   6.656   4.138   7.145
  122OSM   H15C12812   6.816   4.215   7.129
  122OSM    C1412813   6.632   4.411   7.207
  122OSM   H14A12814   6.590   4.510   7.201
  122OSM   H14B12815   6.725   4.431   7.258
  122OSM   H14C12816   6.564   4.352   7.267
  122OSM    C1312817   6.733   4.439   6.995
  122OSM   H13A12818   6.757   4.403   6.897
  122OSM   H13B12819   0.004   4.466   7.048
  122OSM   H13C12820   6.675   4.529   6.986
  122OSM    C1212821   6.512   4.344   7.015
  122OSM   H12A12822   6.463   4.437   7.037
  122OSM   H12B12823   6.452   4.266   7.058
  122OSM    C1112824   6.511   4.321   6.862
  122OSM   H11A12825   6.586   4.384   6.811
  122OSM   H11B12826   6.410   4.352   6.827
  122OSM      P12827   6.430   4.066   6.839
  122OSM    O1312828   6.495   3.940   6.801
  122OSM    O1412829   6.378   4.075   6.977
  122OSM    O1112830   6.323   4.106   6.719
  122OSM    O1212831   6.543   4.180   6.831
  122OSM    C1S12832   6.355   4.096   6.579
  122OSM    H1S12833   6.368   3.987   6.562
  122OSM    H1T12834   6.441   4.158   6.549
  122OSM     NF12835   6.249   4.091   6.347
  122OSM    HNF12836   6.272   4.171   6.292
  122OSM    C2S12837   6.228   4.124   6.488
  122OSM    H2S12838   6.146   4.062   6.532
  122OSM    C3S12839   6.172   4.271   6.512
  122OSM    H3S12840   6.243   4.342   6.463
  122OSM     O312841   6.160   4.314   6.645
  122OSM    HO312842   6.215   4.249   6.688
  122OSM    C4S12843   6.042   4.273   6.437
  122OSM    H4S12844   5.968   4.202   6.475
  122OSM    C5S12845   6.012   4.364   6.349
  122OSM    H5S12846   6.094   4.422   6.303
  122OSM    C6S12847   5.879   4.368   6.271
  122OSM    H6S12848   5.826   4.465   6.279
  122OSM    H6T12849   5.819   4.282   6.308
  122OSM    C7S12850   5.915   4.355   6.121
  122OSM    H7S12851   5.957   4.254   6.100
  122OSM    H7T12852   5.992   4.427   6.087
  122OSM    C8S12853   5.789   4.370   6.039
  122OSM    H8S12854   5.737   4.467   6.049
  122OSM    H8T12855   5.715   4.301   6.085
  122OSM    C9S12856   5.797   4.348   5.890
  122OSM    H9S12857   5.829   4.247   5.859
  122OSM    H9T12858   5.869   4.422   5.849
  122OSM   C10S12859   5.662   4.381   5.813
  122OSM   H10S12860   5.626   4.484   5.831
  122OSM   H10T12861   5.584   4.311   5.851
  122OSM   C11S12862   5.659   4.360   5.660
  122OSM   H11S12863   5.551   4.357   5.632
  122OSM   H11T12864   5.694   4.258   5.635
  122OSM   C12S12865   5.732   4.470   5.574
  122OSM   H12S12866   5.840   4.444   5.581
  122OSM   H12T12867   5.717   4.567   5.625
  122OSM   C13S12868   5.688   4.466   5.425
  122OSM   H13S12869   5.736   4.545   5.364
  122OSM   H13T12870   5.579   4.487   5.422
  122OSM   C14S12871   5.711   4.327   5.354
  122OSM   H14S12872   5.687   4.246   5.426
  122OSM   H14T12873   5.819   4.322   5.331
  122OSM   C15S12874   5.633   4.305   5.219
  122OSM   H15S12875   5.523   4.306   5.233
  122OSM   H15T12876   5.645   4.199   5.186
  122OSM   C16S12877   5.663   4.409   5.107
  122OSM   H16S12878   5.658   4.513   5.148
  122OSM   H16T12879   5.592   4.404   5.021
  122OSM   C17S12880   5.801   4.375   5.043
  122OSM   H17S12881   5.797   4.274   4.998
  122OSM   H17T12882   5.880   4.370   5.121
  122OSM   C18S12883   5.850   4.475   4.932
  122OSM   H18S12884   5.780   4.478   4.845
  122OSM   H18T12885   5.953   4.441   4.906
  122OSM   H18U12886   5.857   4.576   4.978
  122OSM    C1F12887   6.252   3.962   6.300
  122OSM     OF12888   6.226   3.868   6.374
  122OSM    C2F12889   6.299   3.945   6.156
  122OSM    H2F12890   6.380   3.869   6.149
  122OSM    H2G12891   6.348   4.041   6.132
  122OSM    C3F12892   6.177   3.907   6.063
  122OSM    H3F12893   6.107   3.993   6.055
  122OSM    H3G12894   6.120   3.818   6.095
  122OSM    C4F12895   6.205   3.883   5.917
  122OSM    H4F12896   6.263   3.790   5.902
  122OSM    H4G12897   6.266   3.970   5.882
  122OSM    C5F12898   6.073   3.884   5.840
  122OSM    H5F12899   6.020   3.972   5.884
  122OSM    H5G12900   6.014   3.790   5.846
  122OSM    C6F12901   6.092   3.927   5.694
  122OSM    H6F12902   6.081   4.037   5.680
  122OSM    H6G12903   6.019   3.880   5.624
  122OSM    C7F12904   6.227   3.881   5.633
  122OSM    H7F12905   6.232   3.776   5.670
  122OSM    H7G12906   6.313   3.941   5.668
  122OSM    C8F12907   6.214   3.872   5.479
  122OSM    H8F12908   6.180   3.968   5.436
  122OSM    H8G12909   6.142   3.787   5.469
  122OSM    C9F12910   6.351   3.840   5.423
  122OSM    H9F12911   6.439   3.862   5.485
  122OSM   C10F12912   6.377   3.796   5.304
  122OSM   H10F12913   6.481   3.791   5.268
  122OSM   C11F12914   6.271   3.759   5.202
  122OSM   H11F12915   6.171   3.738   5.245
  122OSM   H11G12916   6.298   3.666   5.147
  122OSM   C12F12917   6.243   3.868   5.098
  122OSM   H12F12918   6.335   3.866   5.034
  122OSM   H12G12919   6.251   3.962   5.155
  122OSM   C13F12920   6.112   3.858   5.022
  122OSM   H13F12921   6.109   3.933   4.941
  122OSM   H13G12922   6.031   3.883   5.094
  122OSM   C14F12923   6.077   3.720   4.963
  122OSM   H14F12924   6.051   3.667   5.057
  122OSM   H14G12925   6.162   3.667   4.916
  122OSM   C15F12926   5.951   3.729   4.883
  122OSM   H15F12927   5.976   3.768   4.782
  122OSM   H15G12928   5.887   3.802   4.938
  122OSM   C16F12929   5.870   3.603   4.862
  122OSM   H16F12930   5.928   3.525   4.810
  122OSM   H16G12931   5.771   3.614   4.813
  122OSM   C17F12932   5.833   3.528   4.993
  122OSM   H17F12933   5.781   3.602   5.057
  122OSM   H17G12934   5.926   3.484   5.037
  122OSM   C18F12935   5.743   3.408   4.965
  122OSM   H18F12936   5.724   3.351   5.058
  122OSM   H18G12937   5.796   3.344   4.891
  122OSM   H18H12938   5.651   3.436   4.910
  123OSM      N12939   2.137   3.088   1.800
  123OSM    C1512940   2.031   3.133   1.706
  123OSM   H15A12941   2.075   3.145   1.609
  123OSM   H15B12942   1.989   3.228   1.738
  123OSM   H15C12943   1.953   3.058   1.706
  123OSM    C1412944   2.200   2.960   1.746
  123OSM   H14A12945   2.127   2.884   1.722
  123OSM   H14B12946   2.266   2.915   1.819
  123OSM   H14C12947   2.261   2.979   1.660
  123OSM    C1312948   2.238   3.195   1.816
  123OSM   H13A12949   2.325   3.165   1.873
  123OSM   H13B12950   2.203   3.281   1.872
  123OSM   H13C12951   2.283   3.233   1.726
  123OSM    C1212952   2.081   3.060   1.940
  123OSM   H12A12953   1.986   3.008   1.946
  123OSM   H12B12954   2.045   3.151   1.986
  123OSM    C1112955   2.168   3.000   2.047
  123OSM   H11A12956   2.106   2.994   2.139
  123OSM   H11B12957   2.259   3.062   2.059
  123OSM      P12958   2.314   2.784   2.094
  123OSM    O1312959   2.289   2.650   2.039
  123OSM    O1412960   2.450   2.831   2.070
  123OSM    O1112961   2.268   2.789   2.245
  123OSM    O1212962   2.214   2.871   2.016
  123OSM    C1S12963   2.162   2.701   2.288
  123OSM    H1S12964   2.181   2.596   2.257
  123OSM    H1T12965   2.063   2.731   2.246
  123OSM     NF12966   2.018   2.637   2.475
  123OSM    HNF12967   1.940   2.698   2.484
  123OSM    C2S12968   2.145   2.701   2.445
  123OSM    H2S12969   2.231   2.639   2.478
  123OSM    C3S12970   2.149   2.847   2.507
  123OSM    H3S12971   2.058   2.900   2.471
  123OSM     O312972   2.248   2.944   2.461
  123OSM    HO312973   2.274   2.899   2.381
  123OSM    C4S12974   2.154   2.829   2.656
  123OSM    H4S12975   2.201   2.733   2.683
  123OSM    C5S12976   2.083   2.903   2.743
  123OSM    H5S12977   2.017   2.985   2.711
  123OSM    C6S12978   2.068   2.868   2.892
  123OSM    H6S12979   1.959   2.864   2.910
  123OSM    H6T12980   2.115   2.945   2.957
  123OSM    C7S12981   2.128   2.740   2.944
  123OSM    H7S12982   2.237   2.720   2.939
  123OSM    H7T12983   2.066   2.659   2.901
  123OSM    C8S12984   2.103   2.735   3.103
  123OSM    H8S12985   2.001   2.772   3.127
  123OSM    H8T12986   2.181   2.797   3.153
  123OSM    C9S12987   2.110   2.598   3.150
  123OSM    H9S12988   2.168   2.542   3.074
  123OSM    H9T12989   2.005   2.565   3.134
  123OSM   C10S12990   2.157   2.583   3.295
  123OSM   H10S12991   2.249   2.644   3.310
  123OSM   H10T12992   2.198   2.481   3.309
  123OSM   C11S12993   2.049   2.631   3.397
  123OSM   H11S12994   1.959   2.567   3.382
  123OSM   H11T12995   2.027   2.738   3.380
  123OSM   C12S12996   2.084   2.584   3.543
  123OSM   H12S12997   2.185   2.618   3.572
  123OSM   H12T12998   2.080   2.473   3.534
  123OSM   C13S12999   1.982   2.629   3.638
  123OSM   H13S13000   1.881   2.609   3.596
  123OSM   H13T13001   1.978   2.738   3.656
  123OSM   C14S13002   1.980   2.556   3.778
  123OSM   H14S13003   1.922   2.461   3.771
  123OSM   H14T13004   1.922   2.615   3.853
  123OSM   C15S13005   2.121   2.534   3.841
  123OSM   H15S13006   2.167   2.632   3.864
  123OSM   H15T13007   2.192   2.481   3.773
  123OSM   C16S13008   2.128   2.456   3.971
  123OSM   H16S13009   2.082   2.355   3.960
  123OSM   H16T13010   2.078   2.504   4.058
  123OSM   C17S13011   2.276   2.432   4.005
  123OSM   H17S13012   2.332   2.525   4.024
  123OSM   H17T13013   2.328   2.391   3.916
  123OSM   C18S13014   2.285   2.353   4.134
  123OSM   H18S13015   2.245   2.415   4.217
  123OSM   H18T13016   2.389   2.328   4.164
  123OSM   H18U13017   2.228   2.258   4.125
  123OSM    C1F13018   1.994   2.507   2.446
  123OSM     OF13019   2.080   2.436   2.396
  123OSM    C2F13020   1.850   2.460   2.457
  123OSM    H2F13021   1.825   2.413   2.359
  123OSM    H2G13022   1.777   2.543   2.469
  123OSM    C3F13023   1.824   2.355   2.561
  123OSM    H3F13024   1.913   2.288   2.568
  123OSM    H3G13025   1.734   2.301   2.525
  123OSM    C4F13026   1.786   2.419   2.694
  123OSM    H4F13027   1.687   2.468   2.677
  123OSM    H4G13028   1.869   2.479   2.736
  123OSM    C5F13029   1.767   2.304   2.800
  123OSM    H5F13030   1.850   2.231   2.798
  123OSM    H5G13031   1.672   2.252   2.773
  123OSM    C6F13032   1.743   2.354   2.941
  123OSM    H6F13033   1.666   2.434   2.937
  123OSM    H6G13034   1.836   2.409   2.970
  123OSM    C7F13035   1.714   2.237   3.037
  123OSM    H7F13036   1.805   2.174   3.039
  123OSM    H7G13037   1.624   2.180   3.003
  123OSM    C8F13038   1.686   2.273   3.181
  123OSM    H8F13039   1.651   2.190   3.246
  123OSM    H8G13040   1.603   2.346   3.182
  123OSM    C9F13041   1.807   2.345   3.242
  123OSM    H9F13042   1.833   2.438   3.190
  123OSM   C10F13043   1.879   2.298   3.350
  123OSM   H10F13044   1.971   2.350   3.382
  123OSM   C11F13045   1.848   2.176   3.433
  123OSM   H11F13046   1.887   2.080   3.394
  123OSM   H11G13047   1.740   2.148   3.437
  123OSM   C12F13048   1.880   2.187   3.587
  123OSM   H12F13049   1.852   2.288   3.624
  123OSM   H12G13050   1.990   2.184   3.597
  123OSM   C13F13051   1.815   2.088   3.675
  123OSM   H13F13052   1.855   1.990   3.643
  123OSM   H13G13053   1.704   2.090   3.673
  123OSM   C14F13054   1.854   2.110   3.823
  123OSM   H14F13055   1.808   2.205   3.859
  123OSM   H14G13056   1.963   2.118   3.840
  123OSM   C15F13057   1.788   1.998   3.912
  123OSM   H15F13058   1.821   1.898   3.877
  123OSM   H15G13059   1.680   2.022   3.897
  123OSM   C16F13060   1.808   2.012   4.066
  123OSM   H16F13061   1.893   1.949   4.102
  123OSM   H16G13062   1.718   1.960   4.104
  123OSM   C17F13063   1.811   2.142   4.140
  123OSM   H17F13064   1.893   2.206   4.103
  123OSM   H17G13065   1.820   2.141   4.251
  123OSM   C18F13066   1.676   2.217   4.112
  123OSM   H18F13067   1.655   2.233   4.005
  123OSM   H18G13068   1.666   2.310   4.173
  123OSM   H18H13069   1.583   2.160   4.135
  124OSM      N13070   2.835   3.930   2.032
  124OSM    C1513071   2.775   3.901   2.168
  124OSM   H15A13072   2.706   3.818   2.169
  124OSM   H15B13073   2.727   3.991   2.204
  124OSM   H15C13074   2.862   3.879   2.228
  124OSM    C1413075   2.728   3.977   1.936
  124OSM   H14A13076   2.694   4.074   1.968
  124OSM   H14B13077   2.639   3.916   1.923
  124OSM   H14C13078   2.771   3.989   1.838
  124OSM    C1313079   2.935   4.041   2.041
  124OSM   H13A13080   2.890   4.139   2.043
  124OSM   H13B13081   2.994   4.043   1.951
  124OSM   H13C13082   2.996   4.023   2.128
  124OSM    C1213083   2.907   3.804   1.977
  124OSM   H12A13084   3.000   3.791   2.030
  124OSM   H12B13085   2.947   3.822   1.878
  124OSM    C1113086   2.833   3.664   1.977
  124OSM   H11A13087   2.836   3.624   2.081
  124OSM   H11B13088   2.889   3.601   1.905
  124OSM      P13089   2.580   3.594   1.986
  124OSM    O1313090   2.452   3.617   1.917
  124OSM    O1413091   2.622   3.450   1.989
  124OSM    O1113092   2.579   3.662   2.132
  124OSM    O1213093   2.698   3.681   1.918
  124OSM    C1S13094   2.605   3.583   2.244
  124OSM    H1S13095   2.713   3.558   2.250
  124OSM    H1T13096   2.551   3.486   2.243
  124OSM     NF13097   2.638   3.597   2.485
  124OSM    HNF13098   2.580   3.540   2.543
  124OSM    C2S13099   2.562   3.652   2.375
  124OSM    H2S13100   2.585   3.760   2.367
  124OSM    C3S13101   2.408   3.631   2.382
  124OSM    H3S13102   2.405   3.521   2.362
  124OSM     O313103   2.334   3.693   2.276
  124OSM    HO313104   2.389   3.689   2.198
  124OSM    C4S13105   2.330   3.668   2.506
  124OSM    H4S13106   2.308   3.573   2.556
  124OSM    C5S13107   2.282   3.786   2.550
  124OSM    H5S13108   2.296   3.880   2.495
  124OSM    C6S13109   2.206   3.812   2.680
  124OSM    H6S13110   2.100   3.829   2.649
  124OSM    H6T13111   2.246   3.900   2.734
  124OSM    C7S13112   2.206   3.698   2.783
  124OSM    H7S13113   2.308   3.655   2.772
  124OSM    H7T13114   2.121   3.629   2.766
  124OSM    C8S13115   2.203   3.743   2.933
  124OSM    H8S13116   2.111   3.801   2.955
  124OSM    H8T13117   2.292   3.808   2.947
  124OSM    C9S13118   2.231   3.635   3.031
  124OSM    H9S13119   2.317   3.568   3.011
  124OSM    H9T13120   2.139   3.572   3.029
  124OSM   C10S13121   2.270   3.678   3.170
  124OSM   H10S13122   2.172   3.709   3.212
  124OSM   H10T13123   2.355   3.749   3.169
  124OSM   C11S13124   2.296   3.549   3.254
  124OSM   H11S13125   2.397   3.524   3.214
  124OSM   H11T13126   2.226   3.468   3.228
  124OSM   C12S13127   2.300   3.579   3.408
  124OSM   H12S13128   2.212   3.645   3.419
  124OSM   H12T13129   2.388   3.643   3.429
  124OSM   C13S13130   2.304   3.456   3.503
  124OSM   H13S13131   2.390   3.395   3.467
  124OSM   H13T13132   2.215   3.390   3.496
  124OSM   C14S13133   2.325   3.503   3.645
  124OSM   H14S13134   2.421   3.558   3.656
  124OSM   H14T13135   2.347   3.412   3.706
  124OSM   C15S13136   2.220   3.601   3.707
  124OSM   H15S13137   2.117   3.566   3.686
  124OSM   H15T13138   2.229   3.696   3.650
  124OSM   C16S13139   2.250   3.632   3.854
  124OSM   H16S13140   2.165   3.693   3.889
  124OSM   H16T13141   2.340   3.696   3.862
  124OSM   C17S13142   2.263   3.510   3.949
  124OSM   H17S13143   2.279   3.549   4.052
  124OSM   H17T13144   2.347   3.444   3.919
  124OSM   C18S13145   2.137   3.420   3.954
  124OSM   H18S13146   2.127   3.365   3.859
  124OSM   H18T13147   2.046   3.478   3.980
  124OSM   H18U13148   2.137   3.334   4.025
  124OSM    C1F13149   2.768   3.616   2.506
  124OSM     OF13150   2.822   3.702   2.432
  124OSM    C2F13151   2.833   3.536   2.614
  124OSM    H2F13152   2.873   3.442   2.571
  124OSM    H2G13153   2.749   3.506   2.680
  124OSM    C3F13154   2.950   3.613   2.678
  124OSM    H3F13155   2.905   3.708   2.716
  124OSM    H3G13156   3.019   3.650   2.600
  124OSM    C4F13157   3.018   3.540   2.794
  124OSM    H4F13158   3.064   3.444   2.762
  124OSM    H4G13159   2.936   3.507   2.861
  124OSM    C5F13160   3.127   3.628   2.857
  124OSM    H5F13161   3.083   3.729   2.871
  124OSM    H5G13162   3.214   3.651   2.793
  124OSM    C6F13163   3.185   3.572   2.987
  124OSM    H6F13164   3.259   3.494   2.960
  124OSM    H6G13165   3.115   3.518   3.054
  124OSM    C7F13166   3.243   3.679   3.085
  124OSM    H7F13167   3.155   3.736   3.120
  124OSM    H7G13168   3.314   3.749   3.036
  124OSM    C8F13169   3.312   3.602   3.199
  124OSM    H8F13170   3.399   3.660   3.235
  124OSM    H8G13171   3.372   3.516   3.162
  124OSM    C9F13172   3.219   3.557   3.306
  124OSM    H9F13173   3.178   3.456   3.293
  124OSM   C10F13174   3.193   3.628   3.421
  124OSM   H10F13175   3.144   3.573   3.502
  124OSM   C11F13176   3.239   3.761   3.468
  124OSM   H11F13177   3.298   3.805   3.385
  124OSM   H11G13178   3.297   3.743   3.561
  124OSM   C12F13179   3.126   3.863   3.491
  124OSM   H12F13180   3.045   3.855   3.415
  124OSM   H12G13181   3.166   3.965   3.472
  124OSM   C13F13182   3.052   3.853   3.626
  124OSM   H13F13183   2.992   3.760   3.623
  124OSM   H13G13184   2.969   3.928   3.626
  124OSM   C14F13185   3.125   3.868   3.755
  124OSM   H14F13186   3.127   3.979   3.760
  124OSM   H14G13187   3.219   3.809   3.750
  124OSM   C15F13188   3.020   3.823   3.858
  124OSM   H15F13189   3.002   3.715   3.837
  124OSM   H15G13190   2.918   3.866   3.848
  124OSM   C16F13191   3.077   3.827   4.002
  124OSM   H16F13192   3.182   3.792   4.007
  124OSM   H16G13193   3.013   3.763   4.066
  124OSM   C17F13194   3.062   3.970   4.056
  124OSM   H17F13195   2.964   4.014   4.027
  124OSM   H17G13196   3.141   4.034   4.011
  124OSM   C18F13197   3.097   3.970   4.209
  124OSM   H18F13198   3.172   3.891   4.228
  124OSM   H18G13199   3.008   3.921   4.254
  124OSM   H18H13200   3.117   4.076   4.236
  125OSM      N13201   4.776   0.756   2.298
  125OSM    C1513202   4.703   0.868   2.225
  125OSM   H15A13203   4.636   0.829   2.149
  125OSM   H15B13204   4.768   0.942   2.180
  125OSM   H15C13205   4.648   0.929   2.294
  125OSM    C1413206   4.853   0.659   2.209
  125OSM   H14A13207   4.922   0.719   2.151
  125OSM   H14B13208   4.785   0.604   2.146
  125OSM   H14C13209   4.914   0.590   2.265
  125OSM    C1313210   4.870   0.819   2.399
  125OSM   H13A13211   4.936   0.886   2.346
  125OSM   H13B13212   4.939   0.746   2.438
  125OSM   H13C13213   4.814   0.868   2.478
  125OSM    C1213214   4.669   0.686   2.387
  125OSM   H12A13215   4.616   0.753   2.454
  125OSM   H12B13216   4.720   0.613   2.448
  125OSM    C1113217   4.555   0.621   2.307
  125OSM   H11A13218   4.508   0.702   2.247
  125OSM   H11B13219   4.471   0.587   2.371
  125OSM      P13220   4.601   0.368   2.270
  125OSM    O1313221   4.636   0.282   2.156
  125OSM    O1413222   4.672   0.363   2.394
  125OSM    O1113223   4.447   0.348   2.298
  125OSM    O1213224   4.606   0.520   2.221
  125OSM    C1S13225   4.384   0.221   2.313
  125OSM    H1S13226   4.459   0.140   2.321
  125OSM    H1T13227   4.324   0.199   2.222
  125OSM     NF13228   4.221   0.084   2.450
  125OSM    HNF13229   4.124   0.083   2.429
  125OSM    C2S13230   4.295   0.209   2.447
  125OSM    H2S13231   4.357   0.208   2.539
  125OSM    C3S13232   4.197   0.329   2.457
  125OSM    H3S13233   4.125   0.327   2.373
  125OSM     O313234   4.257   0.456   2.444
  125OSM    HO313235   4.342   0.430   2.409
  125OSM    C4S13236   4.115   0.317   2.586
  125OSM    H4S13237   4.014   0.276   2.571
  125OSM    C5S13238   4.153   0.359   2.710
  125OSM    H5S13239   4.252   0.404   2.728
  125OSM    C6S13240   4.061   0.352   2.834
  125OSM    H6S13241   4.048   0.454   2.876
  125OSM    H6T13242   4.112   0.305   2.920
  125OSM    C7S13243   3.920   0.298   2.808
  125OSM    H7S13244   3.932   0.209   2.742
  125OSM    H7T13245   3.858   0.366   2.746
  125OSM    C8S13246   3.843   0.249   2.933
  125OSM    H8S13247   3.929   0.214   2.995
  125OSM    H8T13248   3.771   0.167   2.913
  125OSM    C9S13249   3.765   0.355   3.006
  125OSM    H9S13250   3.687   0.382   2.933
  125OSM    H9T13251   3.833   0.436   3.039
  125OSM   C10S13252   3.688   0.306   3.136
  125OSM   H10S13253   3.608   0.235   3.106
  125OSM   H10T13254   3.634   0.396   3.173
  125OSM   C11S13255   3.784   0.244   3.238
  125OSM   H11S13256   3.849   0.331   3.260
  125OSM   H11T13257   3.841   0.159   3.194
  125OSM   C12S13258   3.707   0.204   3.363
  125OSM   H12S13259   3.645   0.117   3.331
  125OSM   H12T13260   3.647   0.291   3.396
  125OSM   C13S13261   3.793   0.151   3.471
  125OSM   H13S13262   3.864   0.236   3.482
  125OSM   H13T13263   3.865   0.070   3.448
  125OSM   C14S13264   3.731   0.124   3.605
  125OSM   H14S13265   3.647   0.052   3.598
  125OSM   H14T13266   3.672   0.213   3.636
  125OSM   C15S13267   3.825   0.075   3.709
  125OSM   H15S13268   3.907   0.150   3.710
  125OSM   H15T13269   3.875   6.801   3.678
  125OSM   C16S13270   3.763   0.053   3.847
  125OSM   H16S13271   3.683   6.797   3.834
  125OSM   H16T13272   3.707   0.146   3.866
  125OSM   C17S13273   3.856   0.010   3.965
  125OSM   H17S13274   3.886   6.724   3.949
  125OSM   H17T13275   3.807   0.014   4.065
  125OSM   C18S13276   3.978   0.105   3.989
  125OSM   H18S13277   3.943   0.210   3.985
  125OSM   H18T13278   4.052   0.078   3.910
  125OSM   H18U13279   4.028   0.096   4.087
  125OSM    C1F13280   4.281   6.789   2.471
  125OSM     OF13281   4.397   6.785   2.503
  125OSM    C2F13282   4.200   6.662   2.446
  125OSM    H2F13283   4.261   6.585   2.393
  125OSM    H2G13284   4.112   6.685   2.382
  125OSM    C3F13285   4.152   6.599   2.582
  125OSM    H3F13286   4.241   6.562   2.638
  125OSM    H3G13287   4.071   6.530   2.551
  125OSM    C4F13288   4.089   6.704   2.679
  125OSM    H4F13289   4.002   6.744   2.623
  125OSM    H4G13290   4.156   6.788   2.708
  125OSM    C5F13291   4.049   6.648   2.818
  125OSM    H5F13292   4.130   6.585   2.862
  125OSM    H5G13293   3.962   6.579   2.815
  125OSM    C6F13294   4.013   6.755   2.924
  125OSM    H6F13295   3.912   6.791   2.894
  125OSM    H6G13296   4.087   0.019   2.928
  125OSM    C7F13297   3.998   6.696   3.068
  125OSM    H7F13298   4.032   6.780   3.133
  125OSM    H7G13299   4.075   6.616   3.067
  125OSM    C8F13300   3.854   6.655   3.107
  125OSM    H8F13301   3.799   6.640   3.011
  125OSM    H8G13302   3.795   6.724   3.171
  125OSM    C9F13303   3.858   6.519   3.172
  125OSM    H9F13304   3.869   6.434   3.103
  125OSM   C10F13305   3.845   6.495   3.305
  125OSM   H10F13306   3.823   6.390   3.331
  125OSM   C11F13307   3.843   6.599   3.416
  125OSM   H11F13308   3.834   6.701   3.374
  125OSM   H11G13309   3.940   6.589   3.470
  125OSM   C12F13310   3.739   6.564   3.533
  125OSM   H12F13311   3.638   6.571   3.488
  125OSM   H12G13312   3.743   6.643   3.611
  125OSM   C13F13313   3.744   6.424   3.599
  125OSM   H13F13314   3.833   6.420   3.665
  125OSM   H13G13315   3.749   6.340   3.526
  125OSM   C14F13316   3.618   6.395   3.687
  125OSM   H14F13317   3.609   6.285   3.701
  125OSM   H14G13318   3.531   6.424   3.623
  125OSM   C15F13319   3.610   6.471   3.816
  125OSM   H15F13320   3.528   6.416   3.868
  125OSM   H15G13321   3.581   6.575   3.790
  125OSM   C16F13322   3.736   6.462   3.909
  125OSM   H16F13323   3.705   6.496   4.011
  125OSM   H16G13324   3.813   6.533   3.871
  125OSM   C17F13325   3.782   6.319   3.920
  125OSM   H17F13326   3.864   6.333   3.994
  125OSM   H17G13327   3.825   6.281   3.825
  125OSM   C18F13328   3.679   6.219   3.971
  125OSM   H18F13329   3.605   6.261   4.043
  125OSM   H18G13330   3.732   6.135   4.022
  125OSM   H18H13331   3.622   6.185   3.882
  126OSM      N13332   2.629   1.207   1.461
  126OSM    C1513333   2.524   1.144   1.540
  126OSM   H15A13334   2.514   1.198   1.633
  126OSM   H15B13335   2.538   1.041   1.567
  126OSM   H15C13336   2.430   1.163   1.490
  126OSM    C1413337   2.626   1.153   1.320
  126OSM   H14A13338   2.539   1.188   1.267
  126OSM   H14B13339   2.626   1.046   1.312
  126OSM   H14C13340   2.714   1.177   1.262
  126OSM    C1313341   2.579   1.352   1.448
  126OSM   H13A13342   2.572   1.398   1.545
  126OSM   H13B13343   2.489   1.341   1.389
  126OSM   H13C13344   2.644   1.417   1.390
  126OSM    C1213345   2.760   1.194   1.530
  126OSM   H12A13346   2.832   1.268   1.497
  126OSM   H12B13347   2.799   1.095   1.512
  126OSM    C1113348   2.758   1.216   1.687
  126OSM   H11A13349   2.859   1.199   1.729
  126OSM   H11B13350   2.691   1.145   1.739
  126OSM      P13351   2.638   1.375   1.856
  126OSM    O1313352   2.640   1.514   1.896
  126OSM    O1413353   2.504   1.312   1.832
  126OSM    O1113354   2.697   1.296   1.978
  126OSM    O1213355   2.723   1.353   1.722
  126OSM    C1S13356   2.830   1.318   2.013
  126OSM    H1S13357   2.862   1.424   1.998
  126OSM    H1T13358   2.902   1.252   1.960
  126OSM     NF13359   3.002   1.321   2.201
  126OSM    HNF13360   3.070   1.252   2.222
  126OSM    C2S13361   2.865   1.294   2.168
  126OSM    H2S13362   2.805   1.361   2.234
  126OSM    C3S13363   2.833   1.142   2.192
  126OSM    H3S13364   2.880   1.073   2.118
  126OSM     O313365   2.694   1.115   2.173
  126OSM    HO313366   2.672   1.162   2.092
  126OSM    C4S13367   2.862   1.111   2.340
  126OSM    H4S13368   2.788   1.142   2.416
  126OSM    C5S13369   2.971   1.050   2.398
  126OSM    H5S13370   3.053   1.015   2.333
  126OSM    C6S13371   2.975   1.008   2.540
  126OSM    H6S13372   3.000   0.900   2.543
  126OSM    H6T13373   2.876   1.036   2.583
  126OSM    C7S13374   3.069   1.092   2.633
  126OSM    H7S13375   3.056   1.200   2.612
  126OSM    H7T13376   3.177   1.079   2.611
  126OSM    C8S13377   3.061   1.060   2.781
  126OSM    H8S13378   3.088   0.954   2.803
  126OSM    H8T13379   2.955   1.071   2.811
  126OSM    C9S13380   3.157   1.133   2.872
  126OSM    H9S13381   3.133   1.241   2.874
  126OSM    H9T13382   3.259   1.121   2.828
  126OSM   C10S13383   3.156   1.084   3.018
  126OSM   H10S13384   3.195   0.980   3.021
  126OSM   H10T13385   3.054   1.077   3.062
  126OSM   C11S13386   3.234   1.194   3.106
  126OSM   H11S13387   3.195   1.297   3.103
  126OSM   H11T13388   3.334   1.218   3.066
  126OSM   C12S13389   3.257   1.157   3.250
  126OSM   H12S13390   3.334   1.228   3.287
  126OSM   H12T13391   3.289   1.050   3.247
  126OSM   C13S13392   3.144   1.173   3.349
  126OSM   H13S13393   3.073   1.090   3.328
  126OSM   H13T13394   3.097   1.266   3.310
  126OSM   C14S13395   3.187   1.201   3.492
  126OSM   H14S13396   3.259   1.285   3.483
  126OSM   H14T13397   3.228   1.107   3.537
  126OSM   C15S13398   3.063   1.254   3.566
  126OSM   H15S13399   2.984   1.176   3.574
  126OSM   H15T13400   3.028   1.343   3.510
  126OSM   C16S13401   3.087   1.313   3.704
  126OSM   H16S13402   2.991   1.342   3.752
  126OSM   H16T13403   3.157   1.399   3.700
  126OSM   C17S13404   3.151   1.205   3.795
  126OSM   H17S13405   3.260   1.192   3.774
  126OSM   H17T13406   3.099   1.109   3.777
  126OSM   C18S13407   3.132   1.248   3.943
  126OSM   H18S13408   3.186   1.177   4.011
  126OSM   H18T13409   3.027   1.265   3.974
  126OSM   H18U13410   3.186   1.344   3.956
  126OSM    C1F13411   3.037   1.447   2.218
  126OSM     OF13412   2.958   1.535   2.187
  126OSM    C2F13413   3.177   1.472   2.274
  126OSM    H2F13414   3.237   1.503   2.186
  126OSM    H2G13415   3.217   1.372   2.302
  126OSM    C3F13416   3.188   1.568   2.389
  126OSM    H3F13417   3.170   1.674   2.362
  126OSM    H3G13418   3.295   1.563   2.420
  126OSM    C4F13419   3.100   1.533   2.508
  126OSM    H4F13420   3.098   1.426   2.538
  126OSM    H4G13421   2.996   1.568   2.495
  126OSM    C5F13422   3.144   1.618   2.629
  126OSM    H5F13423   3.168   1.722   2.596
  126OSM    H5G13424   3.241   1.566   2.645
  126OSM    C6F13425   3.052   1.627   2.756
  126OSM    H6F13426   3.035   1.523   2.789
  126OSM    H6G13427   2.965   1.683   2.716
  126OSM    C7F13428   3.115   1.716   2.866
  126OSM    H7F13429   3.109   1.822   2.835
  126OSM    H7G13430   3.221   1.690   2.883
  126OSM    C8F13431   3.050   1.704   3.001
  126OSM    H8F13432   2.943   1.720   2.977
  126OSM    H8G13433   3.082   1.788   3.067
  126OSM    C9F13434   3.063   1.573   3.070
  126OSM    H9F13435   3.058   1.487   3.002
  126OSM   C10F13436   3.102   1.557   3.204
  126OSM   H10F13437   3.103   1.450   3.233
  126OSM   C11F13438   3.136   1.664   3.301
  126OSM   H11F13439   3.040   1.693   3.350
  126OSM   H11G13440   3.165   1.759   3.253
  126OSM   C12F13441   3.228   1.627   3.411
  126OSM   H12F13442   3.324   1.607   3.359
  126OSM   H12G13443   3.186   1.534   3.457
  126OSM   C13F13444   3.254   1.729   3.522
  126OSM   H13F13445   3.254   1.826   3.468
  126OSM   H13G13446   3.351   1.703   3.570
  126OSM   C14F13447   3.152   1.746   3.643
  126OSM   H14F13448   3.158   1.656   3.708
  126OSM   H14G13449   3.045   1.765   3.620
  126OSM   C15F13450   3.185   1.875   3.724
  126OSM   H15F13451   3.142   1.867   3.826
  126OSM   H15G13452   3.142   1.961   3.669
  126OSM   C16F13453   3.343   1.903   3.730
  126OSM   H16F13454   3.392   1.935   3.636
  126OSM   H16G13455   3.389   1.814   3.778
  126OSM   C17F13456   3.378   2.025   3.819
  126OSM   H17F13457   3.304   2.024   3.903
  126OSM   H17G13458   3.352   2.113   3.756
  126OSM   C18F13459   3.522   2.021   3.878
  126OSM   H18F13460   3.538   2.109   3.945
  126OSM   H18G13461   3.597   2.038   3.798
  126OSM   H18H13462   3.550   1.938   3.946
  127OSM      N13463   1.123   2.928   2.136
  127OSM    C1513464   1.032   3.041   2.143
  127OSM   H15A13465   0.992   3.053   2.043
  127OSM   H15B13466   1.085   3.134   2.157
  127OSM   H15C13467   0.948   3.027   2.211
  127OSM    C1413468   1.233   2.949   2.242
  127OSM   H14A13469   1.305   2.868   2.244
  127OSM   H14B13470   1.197   2.971   2.342
  127OSM   H14C13471   1.288   3.028   2.196
  127OSM    C1313472   1.057   2.799   2.177
  127OSM   H13A13473   0.988   2.761   2.102
  127OSM   H13B13474   0.995   2.805   2.265
  127OSM   H13C13475   1.135   2.727   2.198
  127OSM    C1213476   1.184   2.906   1.998
  127OSM   H12A13477   1.213   3.000   1.954
  127OSM   H12B13478   1.105   2.874   1.932
  127OSM    C1113479   1.305   2.810   1.990
  127OSM   H11A13480   1.312   2.780   1.883
  127OSM   H11B13481   1.267   2.714   2.029
  127OSM      P13482   1.561   2.846   1.973
  127OSM    O1313483   1.618   2.710   1.977
  127OSM    O1413484   1.557   2.913   1.840
  127OSM    O1113485   1.657   2.927   2.064
  127OSM    O1213486   1.421   2.854   2.050
  127OSM    C1S13487   1.629   2.980   2.194
  127OSM    H1S13488   1.584   2.907   2.265
  127OSM    H1T13489   1.551   3.058   2.189
  127OSM     NF13490   1.740   3.047   2.401
  127OSM    HNF13491   1.697   3.128   2.440
  127OSM    C2S13492   1.764   3.037   2.258
  127OSM    H2S13493   1.844   2.964   2.235
  127OSM    C3S13494   1.795   3.175   2.186
  127OSM    H3S13495   1.714   3.248   2.204
  127OSM     O313496   1.817   3.179   2.045
  127OSM    HO313497   1.782   3.092   2.022
  127OSM    C4S13498   1.918   3.244   2.245
  127OSM    H4S13499   2.002   3.172   2.254
  127OSM    C5S13500   1.932   3.360   2.300
  127OSM    H5S13501   1.850   3.433   2.299
  127OSM    C6S13502   2.053   3.408   2.382
  127OSM    H6S13503   2.089   3.499   2.330
  127OSM    H6T13504   2.141   3.340   2.380
  127OSM    C7S13505   2.020   3.446   2.525
  127OSM    H7S13506   1.946   3.528   2.516
  127OSM    H7T13507   2.108   3.500   2.566
  127OSM    C8S13508   1.957   3.336   2.609
  127OSM    H8S13509   2.039   3.261   2.622
  127OSM    H8T13510   1.868   3.286   2.566
  127OSM    C9S13511   1.915   3.397   2.751
  127OSM    H9S13512   1.827   3.465   2.748
  127OSM    H9T13513   2.007   3.441   2.795
  127OSM   C10S13514   1.879   3.288   2.860
  127OSM   H10S13515   1.936   3.194   2.841
  127OSM   H10T13516   1.775   3.251   2.851
  127OSM   C11S13517   1.905   3.335   3.001
  127OSM   H11S13518   1.828   3.408   3.033
  127OSM   H11T13519   2.007   3.379   3.009
  127OSM   C12S13520   1.908   3.218   3.103
  127OSM   H12S13521   1.976   3.138   3.068
  127OSM   H12T13522   1.810   3.165   3.101
  127OSM   C13S13523   1.940   3.258   3.244
  127OSM   H13S13524   2.035   3.314   3.239
  127OSM   H13T13525   1.962   3.169   3.308
  127OSM   C14S13526   1.845   3.353   3.306
  127OSM   H14S13527   1.738   3.323   3.300
  127OSM   H14T13528   1.843   3.446   3.245
  127OSM   C15S13529   1.883   3.400   3.451
  127OSM   H15S13530   1.986   3.441   3.452
  127OSM   H15T13531   1.892   3.313   3.520
  127OSM   C16S13532   1.772   3.489   3.502
  127OSM   H16S13533   1.672   3.442   3.516
  127OSM   H16T13534   1.756   3.568   3.426
  127OSM   C17S13535   1.817   3.577   3.625
  127OSM   H17S13536   1.921   3.614   3.613
  127OSM   H17T13537   1.809   3.504   3.709
  127OSM   C18S13538   1.720   3.692   3.650
  127OSM   H18S13539   1.741   3.786   3.593
  127OSM   H18T13540   1.725   3.718   3.758
  127OSM   H18U13541   1.615   3.668   3.627
  127OSM    C1F13542   1.759   2.940   2.480
  127OSM     OF13543   1.792   2.830   2.433
  127OSM    C2F13544   1.742   2.963   2.633
  127OSM    H2F13545   1.637   2.997   2.630
  127OSM    H2G13546   1.807   3.049   2.662
  127OSM    C3F13547   1.738   2.826   2.703
  127OSM    H3F13548   1.834   2.770   2.696
  127OSM    H3G13549   1.662   2.756   2.662
  127OSM    C4F13550   1.691   2.842   2.847
  127OSM    H4F13551   1.587   2.880   2.854
  127OSM    H4G13552   1.751   2.920   2.899
  127OSM    C5F13553   1.684   2.715   2.926
  127OSM    H5F13554   1.790   2.684   2.935
  127OSM    H5G13555   1.632   2.632   2.874
  127OSM    C6F13556   1.631   2.715   3.069
  127OSM    H6F13557   1.639   2.616   3.117
  127OSM    H6G13558   1.521   2.731   3.075
  127OSM    C7F13559   1.706   2.802   3.166
  127OSM    H7F13560   1.642   2.891   3.186
  127OSM    H7G13561   1.798   2.838   3.114
  127OSM    C8F13562   1.738   2.748   3.302
  127OSM    H8F13563   1.809   2.823   3.344
  127OSM    H8G13564   1.807   2.662   3.286
  127OSM    C9F13565   1.630   2.714   3.400
  127OSM    H9F13566   1.563   2.631   3.373
  127OSM   C10F13567   1.626   2.767   3.522
  127OSM   H10F13568   1.538   2.744   3.583
  127OSM   C11F13569   1.713   2.872   3.585
  127OSM   H11F13570   1.807   2.887   3.528
  127OSM   H11G13571   1.751   2.840   3.684
  127OSM   C12F13572   1.641   3.006   3.601
  127OSM   H12F13573   1.545   3.000   3.658
  127OSM   H12G13574   1.621   3.062   3.507
  127OSM   C13F13575   1.724   3.110   3.688
  127OSM   H13F13576   1.679   3.210   3.672
  127OSM   H13G13577   1.829   3.125   3.656
  127OSM   C14F13578   1.735   3.071   3.833
  127OSM   H14F13579   1.672   2.982   3.857
  127OSM   H14G13580   1.706   3.157   3.896
  127OSM   C15F13581   1.873   3.047   3.884
  127OSM   H15F13582   1.929   3.141   3.865
  127OSM   H15G13583   1.915   2.969   3.817
  127OSM   C16F13584   1.885   2.998   4.033
  127OSM   H16F13585   1.821   2.907   4.040
  127OSM   H16G13586   1.850   3.081   4.098
  127OSM   C17F13587   2.027   2.971   4.088
  127OSM   H17F13588   2.087   3.064   4.096
  127OSM   H17G13589   2.084   2.913   4.012
  127OSM   C18F13590   2.023   2.906   4.225
  127OSM   H18F13591   2.043   2.980   4.305
  127OSM   H18G13592   2.105   2.833   4.244
  127OSM   H18H13593   1.928   2.852   4.243
  128OSM      N13594   1.848   0.402   2.018
  128OSM    C1513595   1.899   0.348   2.141
  128OSM   H15A13596   1.827   0.356   2.221
  128OSM   H15B13597   1.990   0.393   2.177
  128OSM   H15C13598   1.925   0.246   2.118
  128OSM    C1413599   1.976   0.406   1.928
  128OSM   H14A13600   2.043   0.479   1.970
  128OSM   H14B13601   1.958   0.442   1.828
  128OSM   H14C13602   2.020   0.308   1.935
  128OSM    C1313603   1.748   0.316   1.946
  128OSM   H13A13604   1.771   0.212   1.931
  128OSM   H13B13605   1.747   0.337   1.840
  128OSM   H13C13606   1.651   0.316   1.993
  128OSM    C1213607   1.783   0.539   2.035
  128OSM   H12A13608   1.685   0.522   2.078
  128OSM   H12B13609   1.760   0.576   1.937
  128OSM    C1113610   1.860   0.634   2.125
  128OSM   H11A13611   1.877   0.593   2.227
  128OSM   H11B13612   1.802   0.729   2.135
  128OSM      P13613   2.075   0.774   2.136
  128OSM    O1313614   2.209   0.720   2.172
  128OSM    O1413615   2.074   0.889   2.043
  128OSM    O1113616   1.995   0.826   2.262
  128OSM    O1213617   1.981   0.673   2.065
  128OSM    C1S13618   2.020   0.793   2.397
  128OSM    H1S13619   2.130   0.799   2.410
  128OSM    H1T13620   1.991   0.690   2.426
  128OSM     NF13621   1.994   0.860   2.639
  128OSM    HNF13622   1.940   0.790   2.685
  128OSM    C2S13623   1.954   0.887   2.505
  128OSM    H2S13624   1.983   0.988   2.469
  128OSM    C3S13625   1.798   0.886   2.488
  128OSM    H3S13626   1.762   0.787   2.522
  128OSM     O313627   1.748   0.888   2.349
  128OSM    HO313628   1.832   0.875   2.305
  128OSM    C4S13629   1.732   0.988   2.578
  128OSM    H4S13630   1.692   0.954   2.674
  128OSM    C5S13631   1.735   1.116   2.546
  128OSM    H5S13632   1.794   1.156   2.463
  128OSM    C6S13633   1.693   1.236   2.634
  128OSM    H6S13634   1.584   1.259   2.626
  128OSM    H6T13635   1.738   1.329   2.593
  128OSM    C7S13636   1.719   1.226   2.783
  128OSM    H7S13637   1.821   1.190   2.806
  128OSM    H7T13638   1.646   1.149   2.816
  128OSM    C8S13639   1.697   1.355   2.862
  128OSM    H8S13640   1.591   1.387   2.855
  128OSM    H8T13641   1.756   1.434   2.810
  128OSM    C9S13642   1.738   1.348   3.007
  128OSM    H9S13643   1.848   1.336   3.009
  128OSM    H9T13644   1.683   1.267   3.059
  128OSM   C10S13645   1.691   1.472   3.082
  128OSM   H10S13646   1.584   1.480   3.054
  128OSM   H10T13647   1.736   1.565   3.040
  128OSM   C11S13648   1.738   1.464   3.229
  128OSM   H11S13649   1.848   1.449   3.235
  128OSM   H11T13650   1.680   1.386   3.283
  128OSM   C12S13651   1.721   1.586   3.309
  128OSM   H12S13652   1.614   1.612   3.319
  128OSM   H12T13653   1.762   1.677   3.261
  128OSM   C13S13654   1.780   1.572   3.452
  128OSM   H13S13655   1.888   1.549   3.458
  128OSM   H13T13656   1.728   1.480   3.484
  128OSM   C14S13657   1.725   1.683   3.535
  128OSM   H14S13658   1.615   1.692   3.523
  128OSM   H14T13659   1.770   1.777   3.496
  128OSM   C15S13660   1.762   1.676   3.683
  128OSM   H15S13661   1.719   1.582   3.725
  128OSM   H15T13662   1.718   1.764   3.735
  128OSM   C16S13663   1.913   1.665   3.712
  128OSM   H16S13664   1.963   1.759   3.683
  128OSM   H16T13665   1.958   1.591   3.641
  128OSM   C17S13666   1.961   1.634   3.858
  128OSM   H17S13667   1.917   1.713   3.923
  128OSM   H17T13668   2.071   1.652   3.854
  128OSM   C18S13669   1.910   1.501   3.903
  128OSM   H18S13670   1.961   1.464   3.995
  128OSM   H18T13671   1.925   1.425   3.823
  128OSM   H18U13672   1.802   1.493   3.929
  128OSM    C1F13673   2.115   0.898   2.689
  128OSM     OF13674   2.196   0.957   2.624
  128OSM    C2F13675   2.144   0.861   2.831
  128OSM    H2F13676   2.149   0.750   2.839
  128OSM    H2G13677   2.061   0.890   2.897
  128OSM    C3F13678   2.267   0.927   2.880
  128OSM    H3F13679   2.256   1.037   2.888
  128OSM    H3G13680   2.347   0.908   2.806
  128OSM    C4F13681   2.322   0.862   3.004
  128OSM    H4F13682   2.426   0.900   3.009
  128OSM    H4G13683   2.337   0.752   3.004
  128OSM    C5F13684   2.244   0.895   3.130
  128OSM    H5F13685   2.158   0.824   3.134
  128OSM    H5G13686   2.216   1.003   3.134
  128OSM    C6F13687   2.328   0.860   3.250
  128OSM    H6F13688   2.422   0.920   3.252
  128OSM    H6G13689   2.354   0.753   3.242
  128OSM    C7F13690   2.258   0.895   3.383
  128OSM    H7F13691   2.164   0.837   3.376
  128OSM    H7G13692   2.229   1.002   3.392
  128OSM    C8F13693   2.334   0.848   3.509
  128OSM    H8F13694   2.276   0.888   3.595
  128OSM    H8G13695   2.435   0.894   3.506
  128OSM    C9F13696   2.349   0.697   3.523
  128OSM    H9F13697   2.369   0.645   3.428
  128OSM   C10F13698   2.336   0.623   3.635
  128OSM   H10F13699   2.338   0.513   3.625
  128OSM   C11F13700   2.287   0.671   3.772
  128OSM   H11F13701   2.276   0.782   3.774
  128OSM   H11G13702   2.356   0.640   3.853
  128OSM   C12F13703   2.160   0.608   3.819
  128OSM   H12F13704   2.088   0.599   3.735
  128OSM   H12G13705   2.108   0.667   3.898
  128OSM   C13F13706   2.190   0.467   3.876
  128OSM   H13F13707   2.238   0.399   3.802
  128OSM   H13G13708   2.089   0.422   3.894
  128OSM   C14F13709   2.263   0.452   4.014
  128OSM   H14F13710   2.222   0.524   4.089
  128OSM   H14G13711   2.373   0.468   4.006
  128OSM   C15F13712   2.235   0.310   4.067
  128OSM   H15F13713   2.242   0.234   3.985
  128OSM   H15G13714   2.128   0.307   4.097
  128OSM   C16F13715   2.293   0.294   4.205
  128OSM   H16F13716   2.247   0.201   4.245
  128OSM   H16G13717   2.268   0.380   4.271
  128OSM   C17F13718   2.443   0.263   4.208
  128OSM   H17F13719   2.504   0.355   4.193
  128OSM   H17G13720   2.460   0.209   4.112
  128OSM   C18F13721   2.492   0.182   4.329
  128OSM   H18F13722   2.432   0.088   4.328
  128OSM   H18G13723   2.485   0.226   4.431
  128OSM   H18H13724   2.598   0.150   4.325
  129OSM      N13725   4.283   0.568   2.001
  129OSM    C1513726   4.260   0.592   2.140
  129OSM   H15A13727   4.199   0.515   2.184
  129OSM   H15B13728   4.218   0.688   2.169
  129OSM   H15C13729   4.354   0.579   2.190
  129OSM    C1413730   4.434   0.589   1.978
  129OSM   H14A13731   4.466   0.692   1.985
  129OSM   H14B13732   4.459   0.554   1.880
  129OSM   H14C13733   4.485   0.536   2.057
  129OSM    C1313734   4.248   0.425   1.993
  129OSM   H13A13735   4.249   0.393   1.889
  129OSM   H13B13736   4.148   0.406   2.026
  129OSM   H13C13737   4.322   0.366   2.046
  129OSM    C1213738   4.205   0.658   1.907
  129OSM   H12A13739   4.212   0.622   1.805
  129OSM   H12B13740   4.251   0.755   1.899
  129OSM    C1113741   4.051   0.670   1.940
  129OSM   H11A13742   4.008   0.739   1.864
  129OSM   H11B13743   4.043   0.723   2.037
  129OSM      P13744   3.875   0.517   2.042
  129OSM    O1313745   3.764   0.604   2.011
  129OSM    O1413746   3.865   0.373   2.025
  129OSM    O1113747   3.935   0.551   2.189
  129OSM    O1213748   3.984   0.547   1.934
  129OSM    C1S13749   3.826   0.534   2.289
  129OSM    H1S13750   3.785   0.431   2.293
  129OSM    H1T13751   3.739   0.601   2.269
  129OSM     NF13752   3.754   0.542   2.528
  129OSM    HNF13753   3.723   0.622   2.579
  129OSM    C2S13754   3.868   0.565   2.444
  129OSM    H2S13755   3.948   0.492   2.468
  129OSM    C3S13756   3.928   0.709   2.454
  129OSM    H3S13757   3.861   0.784   2.408
  129OSM     O313758   4.050   0.716   2.382
  129OSM    HO313759   4.055   0.627   2.348
  129OSM    C4S13760   3.955   0.746   2.599
  129OSM    H4S13761   4.035   0.691   2.650
  129OSM    C5S13762   3.893   0.834   2.677
  129OSM    H5S13763   3.808   0.894   2.640
  129OSM    C6S13764   3.937   0.871   2.818
  129OSM    H6S13765   3.850   0.849   2.883
  129OSM    H6T13766   3.969   0.977   2.829
  129OSM    C7S13767   4.056   0.779   2.873
  129OSM    H7S13768   4.148   0.807   2.819
  129OSM    H7T13769   4.025   0.672   2.866
  129OSM    C8S13770   4.081   0.809   3.021
  129OSM    H8S13771   4.071   0.918   3.039
  129OSM    H8T13772   4.185   0.779   3.044
  129OSM    C9S13773   3.983   0.751   3.127
  129OSM    H9S13774   3.971   0.641   3.110
  129OSM    H9T13775   3.880   0.790   3.113
  129OSM   C10S13776   3.997   0.778   3.281
  129OSM   H10S13777   4.010   0.886   3.302
  129OSM   H10T13778   4.091   0.732   3.318
  129OSM   C11S13779   3.885   0.707   3.373
  129OSM   H11S13780   3.886   0.600   3.344
  129OSM   H11T13781   3.787   0.753   3.347
  129OSM   C12S13782   3.927   0.714   3.516
  129OSM   H12S13783   3.943   0.816   3.558
  129OSM   H12T13784   4.027   0.667   3.526
  129OSM   C13S13785   3.821   0.642   3.607
  129OSM   H13S13786   3.776   0.554   3.556
  129OSM   H13T13787   3.738   0.715   3.611
  129OSM   C14S13788   3.864   0.617   3.758
  129OSM   H14S13789   3.868   0.718   3.806
  129OSM   H14T13790   3.955   0.557   3.773
  129OSM   C15S13791   3.748   0.558   3.842
  129OSM   H15S13792   3.702   0.471   3.791
  129OSM   H15T13793   3.675   0.639   3.859
  129OSM   C16S13794   3.800   0.516   3.978
  129OSM   H16S13795   3.845   0.600   4.034
  129OSM   H16T13796   3.878   0.439   3.962
  129OSM   C17S13797   3.693   0.446   4.066
  129OSM   H17S13798   3.657   0.353   4.017
  129OSM   H17T13799   3.604   0.508   4.090
  129OSM   C18S13800   3.759   0.416   4.198
  129OSM   H18S13801   3.684   0.369   4.266
  129OSM   H18T13802   3.801   0.506   4.246
  129OSM   H18U13803   3.842   0.343   4.186
  129OSM    C1F13804   3.701   0.419   2.549
  129OSM     OF13805   3.763   0.320   2.515
  129OSM    C2F13806   3.561   0.402   2.612
  129OSM    H2F13807   3.488   0.403   2.528
  129OSM    H2G13808   3.539   0.490   2.677
  129OSM    C3F13809   3.548   0.274   2.685
  129OSM    H3F13810   3.643   0.267   2.743
  129OSM    H3G13811   3.546   0.181   2.623
  129OSM    C4F13812   3.435   0.273   2.785
  129OSM    H4F13813   3.330   0.292   2.755
  129OSM    H4G13814   3.470   0.347   2.860
  129OSM    C5F13815   3.434   0.143   2.870
  129OSM    H5F13816   3.539   0.113   2.889
  129OSM    H5G13817   3.402   0.048   2.821
  129OSM    C6F13818   3.366   0.162   3.008
  129OSM    H6F13819   3.258   0.143   2.995
  129OSM    H6G13820   3.386   0.262   3.051
  129OSM    C7F13821   3.408   0.056   3.110
  129OSM    H7F13822   3.518   0.047   3.112
  129OSM    H7G13823   3.369   6.783   3.062
  129OSM    C8F13824   3.342   0.075   3.246
  129OSM    H8F13825   3.235   0.053   3.226
  129OSM    H8G13826   3.349   0.177   3.289
  129OSM    C9F13827   3.392   6.798   3.352
  129OSM    H9F13828   3.433   6.703   3.316
  129OSM   C10F13829   3.399   0.012   3.481
  129OSM   H10F13830   3.441   6.757   3.549
  129OSM   C11F13831   3.344   0.132   3.554
  129OSM   H11F13832   3.277   0.190   3.488
  129OSM   H11G13833   3.429   0.189   3.597
  129OSM   C12F13834   3.248   0.074   3.661
  129OSM   H12F13835   3.190   6.805   3.627
  129OSM   H12G13836   3.169   0.147   3.690
  129OSM   C13F13837   3.313   0.019   3.785
  129OSM   H13F13838   3.381   0.088   3.840
  129OSM   H13G13839   3.368   6.745   3.760
  129OSM   C14F13840   3.204   6.810   3.888
  129OSM   H14F13841   3.138   6.725   3.860
  129OSM   H14G13842   3.129   0.071   3.900
  129OSM   C15F13843   3.257   6.785   4.034
  129OSM   H15F13844   3.166   6.788   4.097
  129OSM   H15G13845   3.322   0.053   4.054
  129OSM   C16F13846   3.331   6.653   4.064
  129OSM   H16F13847   3.417   6.647   3.993
  129OSM   H16G13848   3.258   6.573   4.041
  129OSM   C17F13849   3.385   6.637   4.206
  129OSM   H17F13850   3.457   6.720   4.225
  129OSM   H17G13851   3.437   6.539   4.215
  129OSM   C18F13852   3.264   6.632   4.306
  129OSM   H18F13853   3.315   6.609   4.402
  129OSM   H18G13854   3.184   6.559   4.282
  129OSM   H18H13855   3.224   6.735   4.318
  130OSM      N13856   4.050   4.008   1.818
  130OSM    C1513857   4.186   4.040   1.753
  130OSM   H15A13858   4.206   4.145   1.749
  130OSM   H15B13859   4.194   3.997   1.654
  130OSM   H15C13860   4.267   3.994   1.807
  130OSM    C1413861   4.042   3.871   1.869
  130OSM   H14A13862   3.967   3.858   1.945
  130OSM   H14B13863   4.132   3.838   1.919
  130OSM   H14C13864   4.025   3.805   1.785
  130OSM    C1313865   4.044   4.090   1.947
  130OSM   H13A13866   3.992   4.042   2.029
  130OSM   H13B13867   4.000   4.189   1.943
  130OSM   H13C13868   4.139   4.092   1.999
  130OSM    C1213869   3.935   4.038   1.727
  130OSM   H12A13870   3.933   3.970   1.644
  130OSM   H12B13871   3.962   4.130   1.677
  130OSM    C1113872   3.793   4.053   1.791
  130OSM   H11A13873   3.782   3.974   1.868
  130OSM   H11B13874   3.724   4.026   1.708
  130OSM      P13875   3.616   4.208   1.886
  130OSM    O1313876   3.614   4.349   1.936
  130OSM    O1413877   3.523   4.177   1.774
  130OSM    O1113878   3.587   4.110   2.009
  130OSM    O1213879   3.766   4.186   1.846
  130OSM    C1S13880   3.676   4.128   2.122
  130OSM    H1S13881   3.702   4.235   2.135
  130OSM    H1T13882   3.767   4.070   2.097
  130OSM     NF13883   3.711   4.121   2.363
  130OSM    HNF13884   3.790   4.065   2.385
  130OSM    C2S13885   3.628   4.072   2.261
  130OSM    H2S13886   3.530   4.125   2.273
  130OSM    C3S13887   3.606   3.921   2.258
  130OSM    H3S13888   3.702   3.873   2.227
  130OSM     O313889   3.518   3.886   2.152
  130OSM    HO313890   3.500   3.965   2.100
  130OSM    C4S13891   3.535   3.874   2.382
  130OSM    H4S13892   3.432   3.913   2.388
  130OSM    C5S13893   3.597   3.800   2.477
  130OSM    H5S13894   3.705   3.783   2.476
  130OSM    C6S13895   3.532   3.777   2.603
  130OSM    H6S13896   3.557   3.674   2.636
  130OSM    H6T13897   3.422   3.778   2.593
  130OSM    C7S13898   3.575   3.886   2.707
  130OSM    H7S13899   3.537   3.989   2.689
  130OSM    H7T13900   3.684   3.907   2.714
  130OSM    C8S13901   3.531   3.852   2.845
  130OSM    H8S13902   3.578   3.753   2.866
  130OSM    H8T13903   3.423   3.828   2.847
  130OSM    C9S13904   3.582   3.952   2.939
  130OSM    H9S13905   3.540   4.054   2.923
  130OSM    H9T13906   3.693   3.957   2.935
  130OSM   C10S13907   3.559   3.917   3.093
  130OSM   H10S13908   3.610   3.820   3.114
  130OSM   H10T13909   3.449   3.901   3.101
  130OSM   C11S13910   3.598   4.024   3.193
  130OSM   H11S13911   3.555   4.125   3.174
  130OSM   H11T13912   3.708   4.040   3.190
  130OSM   C12S13913   3.543   3.973   3.325
  130OSM   H12S13914   3.592   3.879   3.360
  130OSM   H12T13915   3.435   3.946   3.317
  130OSM   C13S13916   3.547   4.071   3.437
  130OSM   H13S13917   3.480   4.154   3.407
  130OSM   H13T13918   3.652   4.101   3.458
  130OSM   C14S13919   3.481   4.032   3.570
  130OSM   H14S13920   3.489   3.923   3.591
  130OSM   H14T13921   3.371   4.043   3.559
  130OSM   C15S13922   3.538   4.113   3.685
  130OSM   H15S13923   3.524   4.221   3.663
  130OSM   H15T13924   3.644   4.100   3.714
  130OSM   C16S13925   3.469   4.070   3.819
  130OSM   H16S13926   3.361   4.096   3.819
  130OSM   H16T13927   3.513   4.125   3.905
  130OSM   C17S13928   3.491   3.922   3.855
  130OSM   H17S13929   3.601   3.906   3.867
  130OSM   H17T13930   3.448   3.856   3.777
  130OSM   C18S13931   3.434   3.876   3.994
  130OSM   H18S13932   3.334   3.924   3.988
  130OSM   H18T13933   3.492   3.915   4.081
  130OSM   H18U13934   3.435   3.766   4.009
  130OSM    C1F13935   3.713   4.253   2.398
  130OSM     OF13936   3.640   4.336   2.345
  130OSM    C2F13937   3.810   4.295   2.499
  130OSM    H2F13938   3.829   4.402   2.477
  130OSM    H2G13939   3.899   4.233   2.474
  130OSM    C3F13940   3.759   4.268   2.638
  130OSM    H3F13941   3.758   4.158   2.652
  130OSM    H3G13942   3.656   4.308   2.648
  130OSM    C4F13943   3.846   4.335   2.748
  130OSM    H4F13944   3.869   4.436   2.707
  130OSM    H4G13945   3.937   4.274   2.765
  130OSM    C5F13946   3.758   4.355   2.874
  130OSM    H5F13947   3.693   4.265   2.880
  130OSM    H5G13948   3.695   4.442   2.845
  130OSM    C6F13949   3.821   4.400   3.003
  130OSM    H6F13950   3.894   4.481   2.983
  130OSM    H6G13951   3.879   4.312   3.037
  130OSM    C7F13952   3.725   4.419   3.120
  130OSM    H7F13953   3.660   4.329   3.126
  130OSM    H7G13954   3.659   4.504   3.094
  130OSM    C8F13955   3.799   4.458   3.253
  130OSM    H8F13956   3.812   4.567   3.264
  130OSM    H8G13957   3.901   4.416   3.244
  130OSM    C9F13958   3.731   4.412   3.381
  130OSM    H9F13959   3.650   4.341   3.358
  130OSM   C10F13960   3.762   4.453   3.504
  130OSM   H10F13961   3.711   4.409   3.591
  130OSM   C11F13962   3.871   4.554   3.538
  130OSM   H11F13963   3.831   4.643   3.592
  130OSM   H11G13964   3.917   4.602   3.450
  130OSM   C12F13965   3.967   4.487   3.636
  130OSM   H12F13966   4.065   4.539   3.642
  130OSM   H12G13967   3.998   4.386   3.600
  130OSM   C13F13968   3.925   4.494   3.775
  130OSM   H13F13969   3.960   4.401   3.825
  130OSM   H13G13970   3.816   4.510   3.783
  130OSM   C14F13971   3.984   4.614   3.862
  130OSM   H14F13972   3.962   4.708   3.807
  130OSM   H14G13973   4.094   4.603   3.875
  130OSM   C15F13974   3.932   4.621   4.005
  130OSM   H15F13975   3.926   4.515   4.040
  130OSM   H15G13976   3.831   4.667   4.002
  130OSM   C16F13977   4.025   4.697   4.108
  130OSM   H16F13978   4.023   4.805   4.086
  130OSM   H16G13979   4.130   4.662   4.095
  130OSM   C17F13980   3.970   4.667   4.256
  130OSM   H17F13981   4.030   4.728   4.327
  130OSM   H17G13982   3.994   4.559   4.272
  130OSM   C18F13983   3.822   4.685   4.285
  130OSM   H18F13984   3.776   4.763   4.221
  130OSM   H18G13985   3.801   4.697   4.394
  130OSM   H18H13986   3.764   4.594   4.261
  131OSM      N13987   1.049   0.335   1.964
  131OSM    C1513988   1.069   0.184   1.982
  131OSM   H15A13989   1.174   0.163   1.998
  131OSM   H15B13990   1.039   0.136   1.890
  131OSM   H15C13991   1.024   0.133   2.066
  131OSM    C1413992   1.140   0.377   1.849
  131OSM   H14A13993   1.111   0.479   1.829
  131OSM   H14B13994   1.121   0.316   1.761
  131OSM   H14C13995   1.243   0.369   1.882
  131OSM    C1313996   0.907   0.359   1.921
  131OSM   H13A13997   0.841   0.336   2.003
  131OSM   H13B13998   0.877   0.296   1.838
  131OSM   H13C13999   0.888   0.463   1.897
  131OSM    C1214000   1.059   0.403   2.096
  131OSM   H12A14001   1.008   0.347   2.173
  131OSM   H12B14002   1.003   0.495   2.099
  131OSM    C1114003   1.198   0.439   2.152
  131OSM   H11A14004   1.253   0.342   2.154
  131OSM   H11B14005   1.195   0.470   2.259
  131OSM      P14006   1.415   0.518   2.039
  131OSM    O1314007   1.441   0.386   1.978
  131OSM    O1414008   1.465   0.641   1.971
  131OSM    O1114009   1.492   0.505   2.174
  131OSM    O1214010   1.260   0.537   2.073
  131OSM    C1S14011   1.498   0.614   2.269
  131OSM    H1S14012   1.408   0.677   2.255
  131OSM    H1T14013   1.591   0.669   2.246
  131OSM     NF14014   1.472   0.669   2.515
  131OSM    HNF14015   1.545   0.689   2.580
  131OSM    C2S14016   1.489   0.566   2.420
  131OSM    H2S14017   1.387   0.521   2.420
  131OSM    C3S14018   1.603   0.472   2.461
  131OSM    H3S14019   1.698   0.530   2.462
  131OSM     O314020   1.623   0.383   2.357
  131OSM    HO314021   1.559   0.405   2.288
  131OSM    C4S14022   1.587   0.409   2.595
  131OSM    H4S14023   1.667   0.430   2.667
  131OSM    C5S14024   1.506   0.305   2.613
  131OSM    H5S14025   1.454   0.270   2.523
  131OSM    C6S14026   1.500   0.229   2.743
  131OSM    H6S14027   1.553   0.133   2.727
  131OSM    H6T14028   1.391   0.208   2.756
  131OSM    C7S14029   1.558   0.298   2.862
  131OSM    H7S14030   1.500   0.389   2.890
  131OSM    H7T14031   1.668   0.299   2.846
  131OSM    C8S14032   1.526   0.215   2.992
  131OSM    H8S14033   1.589   0.125   2.978
  131OSM    H8T14034   1.416   0.197   2.998
  131OSM    C9S14035   1.593   0.295   3.116
  131OSM    H9S14036   1.529   0.380   3.148
  131OSM    H9T14037   1.691   0.337   3.085
  131OSM   C10S14038   1.626   0.217   3.243
  131OSM   H10S14039   1.689   0.126   3.237
  131OSM   H10T14040   1.530   0.183   3.288
  131OSM   C11S14041   1.691   0.304   3.350
  131OSM   H11S14042   1.637   0.397   3.379
  131OSM   H11T14043   1.785   0.348   3.310
  131OSM   C12S14044   1.709   0.227   3.483
  131OSM   H12S14045   1.792   0.155   3.465
  131OSM   H12T14046   1.628   0.158   3.517
  131OSM   C13S14047   1.756   0.314   3.605
  131OSM   H13S14048   1.707   0.412   3.622
  131OSM   H13T14049   1.856   0.339   3.566
  131OSM   C14S14050   1.764   0.229   3.733
  131OSM   H14S14051   1.853   0.163   3.728
  131OSM   H14T14052   1.667   0.176   3.750
  131OSM   C15S14053   1.795   0.313   3.855
  131OSM   H15S14054   1.716   0.391   3.859
  131OSM   H15T14055   1.890   0.365   3.830
  131OSM   C16S14056   1.817   0.236   3.983
  131OSM   H16S14057   1.908   0.172   3.977
  131OSM   H16T14058   1.732   0.164   3.987
  131OSM   C17S14059   1.812   0.336   4.094
  131OSM   H17S14060   1.733   0.412   4.075
  131OSM   H17T14061   1.913   0.382   4.098
  131OSM   C18S14062   1.788   0.280   4.234
  131OSM   H18S14063   1.864   0.204   4.263
  131OSM   H18T14064   1.684   0.242   4.247
  131OSM   H18U14065   1.810   0.347   4.319
  131OSM    C1F14066   1.360   0.744   2.531
  131OSM     OF14067   1.259   0.721   2.459
  131OSM    C2F14068   1.368   0.859   2.636
  131OSM    H2F14069   1.463   0.907   2.607
  131OSM    H2G14070   1.383   0.814   2.736
  131OSM    C3F14071   1.250   0.959   2.636
  131OSM    H3F14072   1.228   0.989   2.531
  131OSM    H3G14073   1.270   1.058   2.684
  131OSM    C4F14074   1.117   0.914   2.715
  131OSM    H4F14075   1.075   0.831   2.655
  131OSM    H4G14076   1.053   1.004   2.706
  131OSM    C5F14077   1.146   0.867   2.857
  131OSM    H5F14078   1.223   0.787   2.855
  131OSM    H5G14079   1.053   0.819   2.895
  131OSM    C6F14080   1.196   0.979   2.944
  131OSM    H6F14081   1.129   1.066   2.932
  131OSM    H6G14082   1.299   1.008   2.915
  131OSM    C7F14083   1.214   0.925   3.083
  131OSM    H7F14084   1.268   0.828   3.089
  131OSM    H7G14085   1.114   0.895   3.123
  131OSM    C8F14086   1.274   1.022   3.186
  131OSM    H8F14087   1.282   0.968   3.282
  131OSM    H8G14088   1.205   1.109   3.189
  131OSM    C9F14089   1.418   1.070   3.161
  131OSM    H9F14090   1.459   1.055   3.060
  131OSM   C10F14091   1.482   1.140   3.256
  131OSM   H10F14092   1.583   1.180   3.244
  131OSM   C11F14093   1.432   1.177   3.395
  131OSM   H11F14094   1.489   1.131   3.478
  131OSM   H11G14095   1.325   1.148   3.407
  131OSM   C12F14096   1.438   1.331   3.403
  131OSM   H12F14097   1.377   1.386   3.328
  131OSM   H12G14098   1.540   1.374   3.411
  131OSM   C13F14099   1.376   1.386   3.532
  131OSM   H13F14100   1.280   1.336   3.557
  131OSM   H13G14101   1.364   1.496   3.519
  131OSM   C14F14102   1.463   1.356   3.654
  131OSM   H14F14103   1.559   1.410   3.645
  131OSM   H14G14104   1.482   1.247   3.652
  131OSM   C15F14105   1.398   1.410   3.788
  131OSM   H15F14106   1.301   1.358   3.806
  131OSM   H15G14107   1.372   1.518   3.780
  131OSM   C16F14108   1.487   1.383   3.906
  131OSM   H16F14109   1.575   1.451   3.906
  131OSM   H16G14110   1.519   1.276   3.910
  131OSM   C17F14111   1.418   1.425   4.030
  131OSM   H17F14112   1.463   1.362   4.109
  131OSM   H17G14113   1.312   1.394   4.020
  131OSM   C18F14114   1.412   1.572   4.062
  131OSM   H18F14115   1.338   1.621   3.995
  131OSM   H18G14116   1.512   1.617   4.043
  131OSM   H18H14117   1.371   1.572   4.165
  132OSM      N14118   5.493   6.638   2.250
  132OSM    C1514119   5.459   6.494   2.249
  132OSM   H15A14120   5.550   6.439   2.265
  132OSM   H15B14121   5.416   6.456   2.158
  132OSM   H15C14122   5.401   6.461   2.334
  132OSM    C1414123   5.361   6.713   2.247
  132OSM   H14A14124   5.365   0.001   2.253
  132OSM   H14B14125   5.291   6.681   2.323
  132OSM   H14C14126   5.327   6.694   2.146
  132OSM    C1314127   5.560   6.666   2.383
  132OSM   H13A14128   5.497   6.632   2.464
  132OSM   H13B14129   5.572   6.773   2.378
  132OSM   H13C14130   5.655   6.616   2.381
  132OSM    C1214131   5.583   6.681   2.141
  132OSM   H12A14132   5.618   6.775   2.180
  132OSM   H12B14133   5.518   6.697   2.056
  132OSM    C1114134   5.711   6.604   2.112
  132OSM   H11A14135   5.746   6.638   2.012
  132OSM   H11B14136   5.685   6.496   2.108
  132OSM      P14137   5.915   6.750   2.204
  132OSM    O1314138   6.026   6.707   2.115
  132OSM    O1414139   5.833   0.049   2.166
  132OSM    O1114140   5.968   6.767   2.354
  132OSM    O1214141   5.818   6.625   2.210
  132OSM    C1S14142   6.010   6.643   2.414
  132OSM    H1S14143   6.088   6.592   2.354
  132OSM    H1T14144   5.928   6.573   2.438
  132OSM     NF14145   6.150   6.562   2.593
  132OSM    HNF14146   6.096   6.508   2.657
  132OSM    C2S14147   6.078   6.678   2.548
  132OSM    H2S14148   6.151   6.760   2.528
  132OSM    C3S14149   5.978   6.738   2.653
  132OSM    H3S14150   5.917   6.653   2.691
  132OSM     O314151   5.893   0.014   2.590
  132OSM    HO314152   5.928   0.011   2.501
  132OSM    C4S14153   6.050   6.801   2.770
  132OSM    H4S14154   6.071   0.087   2.750
  132OSM    C5S14155   6.083   6.744   2.890
  132OSM    H5S14156   6.040   6.645   2.913
  132OSM    C6S14157   6.143   6.819   3.004
  132OSM    H6S14158   6.134   0.108   2.983
  132OSM    H6T14159   6.253   6.803   3.005
  132OSM    C7S14160   6.091   6.784   3.149
  132OSM    H7S14161   6.110   6.676   3.170
  132OSM    H7T14162   5.982   6.806   3.159
  132OSM    C8S14163   6.168   0.037   3.260
  132OSM    H8S14164   6.197   0.142   3.237
  132OSM    H8T14165   6.270   6.813   3.258
  132OSM    C9S14166   6.113   0.004   3.400
  132OSM    H9S14167   6.116   6.713   3.407
  132OSM    H9T14168   6.006   0.034   3.409
  132OSM   C10S14169   6.196   0.068   3.513
  132OSM   H10S14170   6.170   0.176   3.513
  132OSM   H10T14171   6.306   0.070   3.493
  132OSM   C11S14172   6.165   6.807   3.645
  132OSM   H11S14173   6.203   6.704   3.629
  132OSM   H11T14174   6.055   6.803   3.657
  132OSM   C12S14175   6.220   0.046   3.775
  132OSM   H12S14176   6.160   6.817   3.855
  132OSM   H12T14177   6.180   0.149   3.772
  132OSM   C13S14178   6.368   0.023   3.795
  132OSM   H13S14179   6.433   0.067   3.716
  132OSM   H13T14180   6.390   6.734   3.783
  132OSM   C14S14181   6.422   0.050   3.933
  132OSM   H14S14182   6.360   0.001   4.011
  132OSM   H14T14183   6.419   0.159   3.949
  132OSM   C15S14184   6.566   0.004   3.958
  132OSM   H15S14185   6.636   0.034   3.876
  132OSM   H15T14186   6.575   6.713   3.955
  132OSM   C16S14187   6.620   0.055   4.090
  132OSM   H16S14188   6.540   0.064   4.165
  132OSM   H16T14189   6.656   0.158   4.070
  132OSM   C17S14190   6.722   6.792   4.158
  132OSM   H17S14191   6.807   6.763   4.092
  132OSM   H17T14192   6.679   6.702   4.206
  132OSM   C18S14193   6.791   0.043   4.276
  132OSM   H18S14194   6.722   0.035   4.363
  132OSM   H18T14195   6.814   0.151   4.268
  132OSM   H18U14196   0.063   6.802   4.289
  132OSM    C1F14197   6.262   6.516   2.548
  132OSM     OF14198   6.327   6.572   2.461
  132OSM    C2F14199   6.291   6.372   2.597
  132OSM    H2F14200   6.374   6.343   2.529
  132OSM    H2G14201   6.210   6.302   2.567
  132OSM    C3F14202   6.333   6.365   2.747
  132OSM    H3F14203   6.362   6.258   2.748
  132OSM    H3G14204   6.250   6.375   2.820
  132OSM    C4F14205   6.463   6.444   2.771
  132OSM    H4F14206   6.427   6.549   2.768
  132OSM    H4G14207   6.524   6.419   2.682
  132OSM    C5F14208   6.541   6.412   2.893
  132OSM    H5F14209   6.639   6.464   2.896
  132OSM    H5G14210   6.577   6.307   2.885
  132OSM    C6F14211   6.466   6.446   3.019
  132OSM    H6F14212   6.384   6.373   3.035
  132OSM    H6G14213   6.429   6.550   3.018
  132OSM    C7F14214   6.555   6.427   3.150
  132OSM    H7F14215   6.651   6.483   3.143
  132OSM    H7G14216   6.597   6.324   3.157
  132OSM    C8F14217   6.483   6.428   3.283
  132OSM    H8F14218   6.544   6.382   3.362
  132OSM    H8G14219   6.393   6.363   3.275
  132OSM    C9F14220   6.462   6.573   3.329
  132OSM    H9F14221   6.422   6.631   3.245
  132OSM   C10F14222   6.505   6.641   3.440
  132OSM   H10F14223   6.461   6.741   3.451
  132OSM   C11F14224   6.567   6.583   3.562
  132OSM   H11F14225   6.583   6.473   3.550
  132OSM   H11G14226   6.493   6.581   3.645
  132OSM   C12F14227   6.697   6.654   3.599
  132OSM   H12F14228   6.675   6.760   3.625
  132OSM   H12G14229   6.762   6.654   3.509
  132OSM   C13F14230   6.771   6.588   3.721
  132OSM   H13F14231   6.684   6.552   3.780
  132OSM   H13G14232   6.809   6.677   3.776
  132OSM   C14F14233   0.055   6.483   3.687
  132OSM   H14F14234   0.143   6.544   3.659
  132OSM   H14G14235   0.026   6.415   3.604
  132OSM   C15F14236   0.101   6.399   3.812
  132OSM   H15F14237   0.126   6.465   3.898
  132OSM   H15G14238   0.201   6.358   3.786
  132OSM   C16F14239   0.001   6.297   3.863
  132OSM   H16F14240   6.803   6.220   3.785
  132OSM   H16G14241   6.719   6.341   3.870
  132OSM   C17F14242   0.044   6.209   3.981
  132OSM   H17F14243   6.787   6.206   4.061
  132OSM   H17G14244   0.140   6.246   4.022
  132OSM   C18F14245   0.077   6.062   3.950
  132OSM   H18F14246   0.142   6.067   3.860
  132OSM   H18G14247   6.800   6.014   3.925
  132OSM   H18H14248   0.123   6.003   4.032
  133OSM      N14249   4.806   3.358   2.244
  133OSM    C1514250   4.895   3.398   2.131
  133OSM   H15A14251   4.881   3.330   2.049
  133OSM   H15B14252   4.998   3.392   2.164
  133OSM   H15C14253   4.873   3.500   2.101
  133OSM    C1414254   4.847   3.440   2.363
  133OSM   H14A14255   4.836   3.546   2.341
  133OSM   H14B14256   4.951   3.421   2.384
  133OSM   H14C14257   4.783   3.428   2.449
  133OSM    C1314258   4.662   3.377   2.204
  133OSM   H13A14259   4.633   3.476   2.174
  133OSM   H13B14260   4.597   3.350   2.286
  133OSM   H13C14261   4.637   3.310   2.123
  133OSM    C1214262   4.839   3.213   2.267
  133OSM   H12A14263   4.937   3.210   2.314
  133OSM   H12B14264   4.849   3.158   2.175
  133OSM    C1114265   4.749   3.147   2.370
  133OSM   H11A14266   4.645   3.148   2.330
  133OSM   H11B14267   4.735   3.207   2.463
  133OSM      P14268   4.930   2.984   2.474
  133OSM    O1314269   4.935   2.839   2.499
  133OSM    O1414270   5.048   3.047   2.413
  133OSM    O1114271   4.901   3.058   2.604
  133OSM    O1214272   4.792   3.015   2.394
  133OSM    C1S14273   4.844   3.006   2.726
  133OSM    H1S14274   4.896   2.910   2.746
  133OSM    H1T14275   4.736   2.984   2.715
  133OSM     NF14276   4.836   3.058   2.976
  133OSM    HNF14277   4.738   3.058   2.994
  133OSM    C2S14278   4.857   3.115   2.842
  133OSM    H2S14279   4.963   3.145   2.846
  133OSM    C3S14280   4.776   3.247   2.800
  133OSM    H3S14281   4.669   3.219   2.792
  133OSM     O314282   4.814   3.296   2.673
  133OSM    HO314283   4.869   3.231   2.629
  133OSM    C4S14284   4.799   3.359   2.899
  133OSM    H4S14285   4.898   3.407   2.901
  133OSM    C5S14286   4.719   3.382   3.002
  133OSM    H5S14287   4.631   3.318   3.018
  133OSM    C6S14288   4.752   3.474   3.121
  133OSM    H6S14289   4.700   3.572   3.112
  133OSM    H6T14290   4.860   3.500   3.117
  133OSM    C7S14291   4.724   3.432   3.265
  133OSM    H7S14292   4.614   3.444   3.276
  133OSM    H7T14293   4.765   3.502   3.341
  133OSM    C8S14294   4.767   3.286   3.307
  133OSM    H8S14295   4.878   3.278   3.310
  133OSM    H8T14296   4.718   3.216   3.236
  133OSM    C9S14297   4.725   3.244   3.443
  133OSM    H9S14298   4.623   3.282   3.462
  133OSM    H9T14299   4.795   3.292   3.515
  133OSM   C10S14300   4.734   3.090   3.450
  133OSM   H10S14301   4.691   3.045   3.358
  133OSM   H10T14302   4.671   3.049   3.532
  133OSM   C11S14303   4.889   3.046   3.469
  133OSM   H11S14304   4.943   3.124   3.526
  133OSM   H11T14305   4.928   3.047   3.365
  133OSM   C12S14306   4.913   2.914   3.539
  133OSM   H12S14307   5.011   2.874   3.504
  133OSM   H12T14308   4.844   2.830   3.517
  133OSM   C13S14309   4.928   2.931   3.693
  133OSM   H13S14310   4.833   2.963   3.742
  133OSM   H13T14311   4.987   3.024   3.709
  133OSM   C14S14312   5.010   2.809   3.751
  133OSM   H14S14313   5.114   2.820   3.715
  133OSM   H14T14314   4.963   2.715   3.713
  133OSM   C15S14315   4.994   2.812   3.901
  133OSM   H15S14316   4.888   2.799   3.930
  133OSM   H15T14317   5.025   2.913   3.936
  133OSM   C16S14318   5.070   2.699   3.969
  133OSM   H16S14319   5.178   2.723   3.963
  133OSM   H16T14320   5.052   2.610   3.906
  133OSM   C17S14321   5.025   2.672   4.115
  133OSM   H17S14322   5.106   2.608   4.157
  133OSM   H17T14323   4.921   2.634   4.119
  133OSM   C18S14324   5.029   2.791   4.214
  133OSM   H18S14325   5.128   2.842   4.206
  133OSM   H18T14326   5.015   2.754   4.318
  133OSM   H18U14327   4.957   2.872   4.191
  133OSM    C1F14328   4.926   2.976   3.035
  133OSM     OF14329   5.046   2.987   3.008
  133OSM    C2F14330   4.883   2.871   3.123
  133OSM    H2F14331   4.790   2.820   3.091
  133OSM    H2G14332   4.854   2.902   3.226
  133OSM    C3F14333   4.980   2.745   3.134
  133OSM    H3F14334   5.067   2.771   3.199
  133OSM    H3G14335   5.015   2.710   3.035
  133OSM    C4F14336   4.922   2.626   3.204
  133OSM    H4F14337   4.847   2.566   3.149
  133OSM    H4G14338   4.867   2.664   3.292
  133OSM    C5F14339   5.019   2.512   3.268
  133OSM    H5F14340   5.084   2.559   3.345
  133OSM    H5G14341   5.072   2.463   3.184
  133OSM    C6F14342   4.941   2.405   3.345
  133OSM    H6F14343   4.910   2.328   3.272
  133OSM    H6G14344   4.857   2.449   3.404
  133OSM    C7F14345   5.031   2.341   3.457
  133OSM    H7F14346   5.081   2.426   3.509
  133OSM    H7G14347   5.110   2.285   3.404
  133OSM    C8F14348   4.969   2.240   3.559
  133OSM    H8F14349   4.929   2.155   3.499
  133OSM    H8G14350   4.874   2.278   3.602
  133OSM    C9F14351   5.059   2.209   3.677
  133OSM    H9F14352   5.101   2.299   3.724
  133OSM   C10F14353   5.088   2.091   3.723
  133OSM   H10F14354   5.136   2.076   3.821
  133OSM   C11F14355   5.028   1.953   3.667
  133OSM   H11F14356   4.963   1.962   3.578
  133OSM   H11G14357   4.963   1.903   3.743
  133OSM   C12F14358   5.129   1.842   3.630
  133OSM   H12F14359   5.221   1.899   3.606
  133OSM   H12G14360   5.105   1.795   3.533
  133OSM   C13F14361   5.166   1.737   3.741
  133OSM   H13F14362   5.186   1.791   3.836
  133OSM   H13G14363   5.251   1.672   3.713
  133OSM   C14F14364   5.056   1.634   3.767
  133OSM   H14F14365   5.005   1.599   3.675
  133OSM   H14G14366   4.984   1.670   3.843
  133OSM   C15F14367   5.098   1.498   3.822
  133OSM   H15F14368   5.154   1.518   3.916
  133OSM   H15G14369   5.171   1.447   3.754
  133OSM   C16F14370   4.984   1.405   3.862
  133OSM   H16F14371   4.932   1.384   3.766
  133OSM   H16G14372   4.910   1.467   3.917
  133OSM   C17F14373   5.015   1.285   3.965
  133OSM   H17F14374   5.105   1.228   3.936
  133OSM   H17G14375   4.922   1.225   3.955
  133OSM   C18F14376   5.018   1.327   4.115
  133OSM   H18F14377   5.106   1.390   4.143
  133OSM   H18G14378   5.003   1.233   4.171
  133OSM   H18H14379   4.926   1.388   4.127
  134OSM      N14380   5.623   5.119   2.007
  134OSM    C1514381   5.729   5.150   2.110
  134OSM   H15A14382   5.819   5.180   2.059
  134OSM   H15B14383   5.750   5.056   2.161
  134OSM   H15C14384   5.697   5.225   2.181
  134OSM    C1414385   5.606   5.236   1.915
  134OSM   H14A14386   5.700   5.255   1.866
  134OSM   H14B14387   5.572   5.322   1.971
  134OSM   H14C14388   5.531   5.217   1.839
  134OSM    C1314389   5.662   5.014   1.926
  134OSM   H13A14390   5.687   4.916   1.962
  134OSM   H13B14391   5.746   5.052   1.870
  134OSM   H13C14392   5.586   4.994   1.852
  134OSM    C1214393   5.500   5.083   2.090
  134OSM   H12A14394   5.498   5.158   2.167
  134OSM   H12B14395   5.520   4.993   2.147
  134OSM    C1114396   5.362   5.055   2.026
  134OSM   H11A14397   5.288   5.011   2.095
  134OSM   H11B14398   5.375   4.982   1.943
  134OSM      P14399   5.257   5.291   2.065
  134OSM    O1314400   5.355   5.404   2.057
  134OSM    O1414401   5.113   5.321   2.030
  134OSM    O1114402   5.257   5.229   2.215
  134OSM    O1214403   5.311   5.174   1.974
  134OSM    C1S14404   5.212   5.311   2.319
  134OSM    H1S14405   5.101   5.315   2.320
  134OSM    H1T14406   5.256   5.413   2.322
  134OSM     NF14407   5.161   5.319   2.567
  134OSM    HNF14408   5.216   5.386   2.617
  134OSM    C2S14409   5.237   5.245   2.461
  134OSM    H2S14410   5.204   5.139   2.455
  134OSM    C3S14411   5.391   5.233   2.475
  134OSM    H3S14412   5.438   5.333   2.485
  134OSM     O314413   5.467   5.189   2.360
  134OSM    HO314414   5.387   5.179   2.307
  134OSM    C4S14415   5.425   5.153   2.599
  134OSM    H4S14416   5.366   5.063   2.620
  134OSM    C5S14417   5.523   5.180   2.684
  134OSM    H5S14418   5.587   5.264   2.655
  134OSM    C6S14419   5.564   5.100   2.810
  134OSM    H6S14420   5.657   5.048   2.779
  134OSM    H6T14421   5.492   5.018   2.829
  134OSM    C7S14422   5.580   5.186   2.937
  134OSM    H7S14423   5.477   5.221   2.964
  134OSM    H7T14424   5.639   5.276   2.910
  134OSM    C8S14425   5.641   5.124   3.059
  134OSM    H8S14426   5.747   5.093   3.041
  134OSM    H8T14427   5.582   5.032   3.080
  134OSM    C9S14428   5.636   5.212   3.180
  134OSM    H9S14429   5.534   5.201   3.222
  134OSM    H9T14430   5.641   5.320   3.153
  134OSM   C10S14431   5.755   5.188   3.271
  134OSM   H10S14432   5.847   5.236   3.231
  134OSM   H10T14433   5.767   5.079   3.291
  134OSM   C11S14434   5.727   5.242   3.411
  134OSM   H11S14435   5.629   5.210   3.453
  134OSM   H11T14436   5.734   5.351   3.393
  134OSM   C12S14437   5.842   5.212   3.512
  134OSM   H12S14438   5.936   5.226   3.455
  134OSM   H12T14439   5.843   5.102   3.531
  134OSM   C13S14440   5.835   5.292   3.638
  134OSM   H13S14441   5.742   5.269   3.694
  134OSM   H13T14442   5.841   5.402   3.623
  134OSM   C14S14443   5.945   5.256   3.730
  134OSM   H14S14444   6.048   5.261   3.688
  134OSM   H14T14445   5.925   5.153   3.767
  134OSM   C15S14446   5.948   5.344   3.857
  134OSM   H15S14447   5.854   5.349   3.915
  134OSM   H15T14448   5.968   5.448   3.823
  134OSM   C16S14449   6.058   5.306   3.958
  134OSM   H16S14450   6.161   5.322   3.922
  134OSM   H16T14451   6.058   5.200   3.991
  134OSM   C17S14452   6.045   5.400   4.076
  134OSM   H17S14453   5.946   5.393   4.125
  134OSM   H17T14454   6.061   5.506   4.046
  134OSM   C18S14455   6.145   5.374   4.189
  134OSM   H18S14456   6.253   5.380   4.164
  134OSM   H18T14457   6.136   5.271   4.229
  134OSM   H18U14458   6.127   5.440   4.276
  134OSM    C1F14459   5.027   5.311   2.575
  134OSM     OF14460   4.958   5.246   2.498
  134OSM    C2F14461   4.965   5.394   2.687
  134OSM    H2F14462   5.007   5.495   2.673
  134OSM    H2G14463   5.001   5.356   2.785
  134OSM    C3F14464   4.806   5.400   2.685
  134OSM    H3F14465   4.776   5.295   2.705
  134OSM    H3G14466   4.771   5.423   2.582
  134OSM    C4F14467   4.749   5.505   2.780
  134OSM    H4F14468   4.646   5.464   2.788
  134OSM    H4G14469   4.742   5.603   2.729
  134OSM    C5F14470   4.820   5.497   2.914
  134OSM    H5F14471   4.930   5.515   2.913
  134OSM    H5G14472   4.810   5.391   2.947
  134OSM    C6F14473   4.746   5.584   3.020
  134OSM    H6F14474   4.636   5.567   3.014
  134OSM    H6G14475   4.775   5.689   2.995
  134OSM    C7F14476   4.794   5.570   3.168
  134OSM    H7F14477   4.752   5.655   3.226
  134OSM    H7G14478   4.902   5.592   3.179
  134OSM    C8F14479   4.735   5.449   3.237
  134OSM    H8F14480   4.744   5.356   3.176
  134OSM    H8G14481   4.625   5.466   3.239
  134OSM    C9F14482   4.791   5.432   3.380
  134OSM    H9F14483   4.900   5.417   3.374
  134OSM   C10F14484   4.728   5.453   3.498
  134OSM   H10F14485   4.779   5.442   3.595
  134OSM   C11F14486   4.579   5.484   3.506
  134OSM   H11F14487   4.513   5.397   3.486
  134OSM   H11G14488   4.549   5.559   3.431
  134OSM   C12F14489   4.536   5.536   3.639
  134OSM   H12F14490   4.445   5.598   3.634
  134OSM   H12G14491   4.610   5.610   3.678
  134OSM   C13F14492   4.505   5.425   3.742
  134OSM   H13F14493   4.593   5.357   3.755
  134OSM   H13G14494   4.433   5.363   3.685
  134OSM   C14F14495   4.455   5.482   3.876
  134OSM   H14F14496   4.377   5.416   3.919
  134OSM   H14G14497   4.409   5.580   3.850
  134OSM   C15F14498   4.561   5.501   3.984
  134OSM   H15F14499   4.519   5.582   4.048
  134OSM   H15G14500   4.648   5.557   3.943
  134OSM   C16F14501   4.592   5.380   4.075
  134OSM   H16F14502   4.639   5.300   4.015
  134OSM   H16G14503   4.500   5.329   4.110
  134OSM   C17F14504   4.690   5.415   4.188
  134OSM   H17F14505   4.637   5.489   4.251
  134OSM   H17G14506   4.786   5.464   4.160
  134OSM   C18F14507   4.729   5.297   4.275
  134OSM   H18F14508   4.788   5.221   4.220
  134OSM   H18G14509   4.633   5.248   4.304
  134OSM   H18H14510   4.774   5.329   4.372
  135OSM      N14511   0.309   0.971   2.088
  135OSM    C1514512   0.174   0.930   2.045
  135OSM   H15A14513   0.102   0.985   2.103
  135OSM   H15B14514   0.161   0.823   2.052
  135OSM   H15C14515   0.148   0.953   1.942
  135OSM    C1414516   0.410   0.944   1.984
  135OSM   H14A14517   0.409   0.842   1.950
  135OSM   H14B14518   0.508   0.974   2.016
  135OSM   H14C14519   0.401   1.008   1.897
  135OSM    C1314520   0.306   1.124   2.116
  135OSM   H13A14521   0.398   1.154   2.165
  135OSM   H13B14522   0.226   1.144   2.186
  135OSM   H13C14523   0.307   1.180   2.024
  135OSM    C1214524   0.344   0.900   2.212
  135OSM   H12A14525   0.264   0.911   2.284
  135OSM   H12B14526   0.431   0.939   2.262
  135OSM    C1114527   0.370   0.748   2.209
  135OSM   H11A14528   0.395   0.728   2.315
  135OSM   H11B14529   0.456   0.709   2.151
  135OSM      P14530   0.148   0.622   2.268
  135OSM    O1314531   0.019   0.661   2.211
  135OSM    O1414532   0.172   0.479   2.297
  135OSM    O1114533   0.173   0.700   2.406
  135OSM    O1214534   0.253   0.681   2.177
  135OSM    C1S14535   0.066   0.718   2.500
  135OSM    H1S14536   0.004   0.626   2.505
  135OSM    H1T14537   0.010   0.807   2.466
  135OSM     NF14538   0.026   0.742   2.747
  135OSM    HNF14539   0.002   0.829   2.790
  135OSM    C2S14540   0.125   0.748   2.639
  135OSM    H2S14541   0.196   0.664   2.656
  135OSM    C3S14542   0.195   0.889   2.633
  135OSM    H3S14543   0.122   0.972   2.619
  135OSM     O314544   0.281   0.918   2.529
  135OSM    HO314545   0.257   0.858   2.458
  135OSM    C4S14546   0.270   0.908   2.758
  135OSM    H4S14547   0.356   0.839   2.761
  135OSM    C5S14548   0.224   0.973   2.863
  135OSM    H5S14549   0.126   1.022   2.867
  135OSM    C6S14550   0.304   0.985   2.990
  135OSM    H6S14551   0.389   0.914   2.984
  135OSM    H6T14552   0.243   0.933   3.067
  135OSM    C7S14553   0.364   1.119   3.035
  135OSM    H7S14554   0.282   1.183   3.074
  135OSM    H7T14555   0.415   1.171   2.951
  135OSM    C8S14556   0.456   1.097   3.158
  135OSM    H8S14557   0.562   1.121   3.135
  135OSM    H8T14558   0.447   0.993   3.197
  135OSM    C9S14559   0.425   1.180   3.281
  135OSM    H9S14560   0.318   1.168   3.310
  135OSM    H9T14561   0.435   1.289   3.260
  135OSM   C10S14562   0.523   1.153   3.400
  135OSM   H10S14563   0.623   1.184   3.362
  135OSM   H10T14564   0.532   1.043   3.403
  135OSM   C11S14565   0.486   1.214   3.534
  135OSM   H11S14566   0.378   1.193   3.554
  135OSM   H11T14567   0.499   1.324   3.537
  135OSM   C12S14568   0.574   1.148   3.645
  135OSM   H12S14569   0.680   1.149   3.609
  135OSM   H12T14570   0.544   1.042   3.640
  135OSM   C13S14571   0.569   1.213   3.782
  135OSM   H13S14572   0.493   1.176   3.853
  135OSM   H13T14573   0.547   1.322   3.777
  135OSM   C14S14574   0.705   1.187   3.836
  135OSM   H14S14575   0.781   1.244   3.778
  135OSM   H14T14576   0.732   1.080   3.823
  135OSM   C15S14577   0.724   1.234   3.985
  135OSM   H15S14578   0.640   1.204   4.052
  135OSM   H15T14579   0.726   1.345   3.994
  135OSM   C16S14580   0.847   1.175   4.049
  135OSM   H16S14581   0.937   1.187   3.985
  135OSM   H16T14582   0.835   1.065   4.056
  135OSM   C17S14583   0.859   1.227   4.196
  135OSM   H17S14584   0.761   1.209   4.243
  135OSM   H17T14585   0.874   1.337   4.204
  135OSM   C18S14586   0.958   1.156   4.291
  135OSM   H18S14587   0.938   1.194   4.394
  135OSM   H18T14588   1.062   1.182   4.262
  135OSM   H18U14589   0.950   1.046   4.287
  135OSM    C1F14590   6.782   0.627   2.771
  135OSM     OF14591   0.007   0.519   2.726
  135OSM    C2F14592   6.661   0.622   2.854
  135OSM    H2F14593   6.595   0.545   2.810
  135OSM    H2G14594   6.616   0.723   2.843
  135OSM    C3F14595   6.689   0.583   3.001
  135OSM    H3F14596   6.724   0.478   2.995
  135OSM    H3G14597   6.591   0.569   3.051
  135OSM    C4F14598   6.793   0.666   3.075
  135OSM    H4F14599   6.788   0.774   3.049
  135OSM    H4G14600   0.078   0.643   3.045
  135OSM    C5F14601   6.790   0.637   3.225
  135OSM    H5F14602   6.789   0.528   3.244
  135OSM    H5G14603   6.705   0.686   3.276
  135OSM    C6F14604   0.104   0.682   3.290
  135OSM    H6F14605   0.177   0.705   3.209
  135OSM    H6G14606   0.151   0.610   3.360
  135OSM    C7F14607   0.095   0.814   3.380
  135OSM    H7F14608   0.027   0.788   3.464
  135OSM    H7G14609   0.044   0.883   3.310
  135OSM    C8F14610   0.233   0.867   3.429
  135OSM    H8F14611   0.228   0.967   3.477
  135OSM    H8G14612   0.307   0.880   3.348
  135OSM    C9F14613   0.310   0.772   3.520
  135OSM    H9F14614   0.345   0.676   3.479
  135OSM   C10F14615   0.338   0.783   3.653
  135OSM   H10F14616   0.394   0.698   3.695
  135OSM   C11F14617   0.282   0.876   3.748
  135OSM   H11F14618   0.298   0.980   3.713
  135OSM   H11G14619   0.356   0.875   3.831
  135OSM   C12F14620   0.137   0.853   3.785
  135OSM   H12F14621   0.136   0.750   3.829
  135OSM   H12G14622   0.069   0.854   3.697
  135OSM   C13F14623   0.090   0.957   3.885
  135OSM   H13F14624   0.104   1.048   3.823
  135OSM   H13G14625   0.160   0.967   3.971
  135OSM   C14F14626   6.763   0.941   3.924
  135OSM   H14F14627   6.771   0.833   3.948
  135OSM   H14G14628   6.689   0.945   3.840
  135OSM   C15F14629   6.720   1.037   4.035
  135OSM   H15F14630   6.753   1.139   4.007
  135OSM   H15G14631   6.764   1.007   4.133
  135OSM   C16F14632   6.571   1.026   4.073
  135OSM   H16F14633   6.559   0.924   4.114
  135OSM   H16G14634   6.502   1.028   3.986
  135OSM   C17F14635   6.519   1.131   4.175
  135OSM   H17F14636   6.569   1.113   4.273
  135OSM   H17G14637   6.410   1.127   4.199
  135OSM   C18F14638   6.546   1.277   4.142
  135OSM   H18F14639   6.503   1.348   4.215
  135OSM   H18G14640   6.493   1.295   4.046
  135OSM   H18H14641   6.655   1.291   4.125
  136OSM      N14642   2.656   4.988   1.585
  136OSM    C1514643   2.536   5.085   1.571
  136OSM   H15A14644   2.486   5.069   1.476
  136OSM   H15B14645   2.568   5.188   1.579
  136OSM   H15C14646   2.471   5.074   1.656
  136OSM    C1414647   2.752   5.022   1.475
  136OSM   H14A14648   2.779   5.126   1.468
  136OSM   H14B14649   2.728   4.987   1.376
  136OSM   H14C14650   2.847   4.973   1.491
  136OSM    C1314651   2.734   5.004   1.711
  136OSM   H13A14652   2.764   5.105   1.734
  136OSM   H13B14653   2.819   4.938   1.714
  136OSM   H13C14654   2.676   4.958   1.789
  136OSM    C1214655   2.600   4.848   1.572
  136OSM   H12A14656   2.680   4.776   1.579
  136OSM   H12B14657   2.568   4.845   1.469
  136OSM    C1114658   2.496   4.803   1.674
  136OSM   H11A14659   2.451   4.706   1.645
  136OSM   H11B14660   2.411   4.874   1.675
  136OSM      P14661   2.643   4.672   1.857
  136OSM    O1314662   2.572   4.537   1.847
  136OSM    O1414663   2.769   4.685   1.789
  136OSM    O1114664   2.675   4.697   2.011
  136OSM    O1214665   2.545   4.782   1.808
  136OSM    C1S14666   2.619   4.809   2.086
  136OSM    H1S14667   2.520   4.837   2.046
  136OSM    H1T14668   2.691   4.894   2.084
  136OSM     NF14669   2.544   4.884   2.319
  136OSM    HNF14670   2.587   4.910   2.405
  136OSM    C2S14671   2.610   4.776   2.237
  136OSM    H2S14672   2.545   4.686   2.240
  136OSM    C3S14673   2.745   4.730   2.294
  136OSM    H3S14674   2.811   4.819   2.298
  136OSM     O314675   2.825   4.647   2.207
  136OSM    HO314676   2.774   4.658   2.126
  136OSM    C4S14677   2.740   4.672   2.435
  136OSM    H4S14678   2.751   4.751   2.511
  136OSM    C5S14679   2.725   4.542   2.478
  136OSM    H5S14680   2.714   4.464   2.402
  136OSM    C6S14681   2.723   4.499   2.621
  136OSM    H6S14682   2.819   4.445   2.634
  136OSM    H6T14683   2.639   4.427   2.622
  136OSM    C7S14684   2.685   4.611   2.729
  136OSM    H7S14685   2.582   4.649   2.710
  136OSM    H7T14686   2.751   4.699   2.716
  136OSM    C8S14687   2.698   4.549   2.877
  136OSM    H8S14688   2.794   4.494   2.875
  136OSM    H8T14689   2.612   4.485   2.907
  136OSM    C9S14690   2.718   4.660   2.988
  136OSM    H9S14691   2.625   4.715   3.011
  136OSM    H9T14692   2.790   4.733   2.945
  136OSM   C10S14693   2.773   4.602   3.123
  136OSM   H10S14694   2.859   4.534   3.109
  136OSM   H10T14695   2.694   4.547   3.178
  136OSM   C11S14696   2.823   4.710   3.214
  136OSM   H11S14697   2.737   4.778   3.230
  136OSM   H11T14698   2.899   4.770   3.160
  136OSM   C12S14699   2.881   4.665   3.350
  136OSM   H12S14700   2.989   4.640   3.339
  136OSM   H12T14701   2.818   4.590   3.402
  136OSM   C13S14702   2.882   4.788   3.443
  136OSM   H13S14703   2.776   4.815   3.467
  136OSM   H13T14704   2.925   4.877   3.392
  136OSM   C14S14705   2.949   4.750   3.577
  136OSM   H14S14706   3.033   4.824   3.582
  136OSM   H14T14707   2.988   4.646   3.579
  136OSM   C15S14708   2.863   4.762   3.701
  136OSM   H15S14709   2.765   4.712   3.687
  136OSM   H15T14710   2.849   4.872   3.713
  136OSM   C16S14711   2.923   4.698   3.820
  136OSM   H16S14712   2.952   4.592   3.798
  136OSM   H16T14713   2.853   4.691   3.906
  136OSM   C17S14714   3.042   4.785   3.875
  136OSM   H17S14715   3.018   4.893   3.861
  136OSM   H17T14716   3.132   4.770   3.812
  136OSM   C18S14717   3.091   4.766   4.020
  136OSM   H18S14718   3.106   4.659   4.043
  136OSM   H18T14719   3.013   4.806   4.088
  136OSM   H18U14720   3.188   4.820   4.033
  136OSM    C1F14721   2.421   4.923   2.292
  136OSM     OF14722   2.356   4.868   2.204
  136OSM    C2F14723   2.360   5.040   2.364
  136OSM    H2F14724   2.331   5.123   2.296
  136OSM    H2G14725   2.442   5.085   2.424
  136OSM    C3F14726   2.247   5.005   2.467
  136OSM    H3F14727   2.154   4.972   2.417
  136OSM    H3G14728   2.220   5.089   2.535
  136OSM    C4F14729   2.289   4.893   2.561
  136OSM    H4F14730   2.381   4.908   2.621
  136OSM    H4G14731   2.295   4.799   2.502
  136OSM    C5F14732   2.180   4.867   2.667
  136OSM    H5F14733   2.079   4.877   2.620
  136OSM    H5G14734   2.184   4.950   2.741
  136OSM    C6F14735   2.182   4.744   2.766
  136OSM    H6F14736   2.180   4.651   2.705
  136OSM    H6G14737   2.087   4.763   2.821
  136OSM    C7F14738   2.299   4.745   2.866
  136OSM    H7F14739   2.299   4.840   2.924
  136OSM    H7G14740   2.395   4.743   2.810
  136OSM    C8F14741   2.290   4.621   2.957
  136OSM    H8F14742   2.380   4.637   3.019
  136OSM    H8G14743   2.303   4.525   2.902
  136OSM    C9F14744   2.158   4.610   3.037
  136OSM    H9F14745   2.069   4.577   2.983
  136OSM   C10F14746   2.144   4.672   3.156
  136OSM   H10F14747   2.045   4.662   3.202
  136OSM   C11F14748   2.252   4.738   3.241
  136OSM   H11F14749   2.206   4.826   3.290
  136OSM   H11G14750   2.340   4.778   3.187
  136OSM   C12F14751   2.321   4.657   3.353
  136OSM   H12F14752   2.242   4.608   3.414
  136OSM   H12G14753   2.381   4.728   3.415
  136OSM   C13F14754   2.420   4.547   3.306
  136OSM   H13F14755   2.502   4.590   3.244
  136OSM   H13G14756   2.373   4.472   3.239
  136OSM   C14F14757   2.505   4.473   3.416
  136OSM   H14F14758   2.590   4.542   3.434
  136OSM   H14G14759   2.544   4.385   3.361
  136OSM   C15F14760   2.430   4.436   3.543
  136OSM   H15F14761   2.405   4.528   3.600
  136OSM   H15G14762   2.498   4.375   3.607
  136OSM   C16F14763   2.296   4.356   3.530
  136OSM   H16F14764   2.329   4.250   3.519
  136OSM   H16G14765   2.235   4.383   3.441
  136OSM   C17F14766   2.212   4.360   3.648
  136OSM   H17F14767   2.116   4.311   3.625
  136OSM   H17G14768   2.193   4.469   3.663
  136OSM   C18F14769   2.249   4.284   3.769
  136OSM   H18F14770   2.152   4.250   3.811
  136OSM   H18G14771   2.300   4.356   3.836
  136OSM   H18H14772   2.303   4.187   3.762
  137OSM      N14773   0.676   1.724   1.678
  137OSM    C1514774   0.604   1.856   1.710
  137OSM   H15A14775   0.615   1.889   1.813
  137OSM   H15B14776   0.505   1.851   1.669
  137OSM   H15C14777   0.647   1.933   1.648
  137OSM    C1414778   0.587   1.614   1.728
  137OSM   H14A14779   0.562   1.618   1.833
  137OSM   H14B14780   0.637   1.518   1.720
  137OSM   H14C14781   0.497   1.610   1.670
  137OSM    C1314782   0.696   1.722   1.526
  137OSM   H13A14783   0.603   1.738   1.474
  137OSM   H13B14784   0.745   1.635   1.485
  137OSM   H13C14785   0.752   1.807   1.491
  137OSM    C1214786   0.807   1.733   1.748
  137OSM   H12A14787   0.838   1.834   1.726
  137OSM   H12B14788   0.885   1.665   1.716
  137OSM    C1114789   0.810   1.712   1.907
  137OSM   H11A14790   0.918   1.714   1.935
  137OSM   H11B14791   0.782   1.608   1.937
  137OSM      P14792   0.777   1.931   2.036
  137OSM    O1314793   0.902   1.969   1.963
  137OSM    O1414794   0.673   2.036   2.034
  137OSM    O1114795   0.814   1.903   2.195
  137OSM    O1214796   0.723   1.800   1.977
  137OSM    C1S14797   0.719   1.937   2.297
  137OSM    H1S14798   0.684   1.840   2.339
  137OSM    H1T14799   0.634   1.998   2.260
  137OSM     NF14800   0.690   2.036   2.526
  137OSM    HNF14801   0.646   2.126   2.525
  137OSM    C2S14802   0.781   2.022   2.418
  137OSM    H2S14803   0.856   1.950   2.458
  137OSM    C3S14804   0.843   2.152   2.371
  137OSM    H3S14805   0.763   2.212   2.323
  137OSM     O314806   0.940   2.131   2.270
  137OSM    HO314807   0.932   2.037   2.253
  137OSM    C4S14808   0.911   2.221   2.497
  137OSM    H4S14809   1.014   2.188   2.513
  137OSM    C5S14810   0.867   2.326   2.572
  137OSM    H5S14811   0.777   2.375   2.532
  137OSM    C6S14812   0.936   2.388   2.689
  137OSM    H6S14813   0.886   2.482   2.722
  137OSM    H6T14814   1.042   2.411   2.666
  137OSM    C7S14815   0.938   2.303   2.817
  137OSM    H7S14816   0.993   2.207   2.801
  137OSM    H7T14817   0.838   2.272   2.854
  137OSM    C8S14818   1.008   2.380   2.930
  137OSM    H8S14819   0.948   2.467   2.964
  137OSM    H8T14820   1.108   2.406   2.888
  137OSM    C9S14821   1.049   2.291   3.047
  137OSM    H9S14822   1.089   2.196   3.007
  137OSM    H9T14823   0.954   2.272   3.102
  137OSM   C10S14824   1.146   2.366   3.142
  137OSM   H10S14825   1.093   2.457   3.179
  137OSM   H10T14826   1.234   2.396   3.082
  137OSM   C11S14827   1.210   2.280   3.253
  137OSM   H11S14828   1.259   2.199   3.195
  137OSM   H11T14829   1.136   2.249   3.329
  137OSM   C12S14830   1.328   2.356   3.315
  137OSM   H12S14831   1.281   2.448   3.353
  137OSM   H12T14832   1.411   2.376   3.244
  137OSM   C13S14833   1.400   2.271   3.418
  137OSM   H13S14834   1.445   2.180   3.373
  137OSM   H13T14835   1.326   2.241   3.496
  137OSM   C14S14836   1.519   2.323   3.500
  137OSM   H14S14837   1.589   2.390   3.445
  137OSM   H14T14838   1.576   2.234   3.534
  137OSM   C15S14839   1.469   2.411   3.615
  137OSM   H15S14840   1.404   2.350   3.682
  137OSM   H15T14841   1.427   2.509   3.583
  137OSM   C16S14842   1.589   2.450   3.698
  137OSM   H16S14843   1.634   2.533   3.640
  137OSM   H16T14844   1.657   2.363   3.707
  137OSM   C17S14845   1.556   2.498   3.837
  137OSM   H17S14846   1.624   2.444   3.907
  137OSM   H17T14847   1.451   2.468   3.858
  137OSM   C18S14848   1.581   2.644   3.858
  137OSM   H18S14849   1.566   2.675   3.964
  137OSM   H18T14850   1.504   2.701   3.801
  137OSM   H18U14851   1.686   2.668   3.831
  137OSM    C1F14852   0.653   1.937   2.607
  137OSM     OF14853   0.688   1.821   2.586
  137OSM    C2F14854   0.546   1.968   2.706
  137OSM    H2F14855   0.485   1.877   2.721
  137OSM    H2G14856   0.466   2.031   2.662
  137OSM    C3F14857   0.611   2.028   2.834
  137OSM    H3F14858   0.669   2.121   2.817
  137OSM    H3G14859   0.680   1.951   2.875
  137OSM    C4F14860   0.506   2.066   2.946
  137OSM    H4F14861   0.452   1.976   2.981
  137OSM    H4G14862   0.436   2.142   2.904
  137OSM    C5F14863   0.571   2.138   3.063
  137OSM    H5F14864   0.629   2.227   3.028
  137OSM    H5G14865   0.634   2.074   3.129
  137OSM    C6F14866   0.473   2.176   3.175
  137OSM    H6F14867   0.413   2.082   3.187
  137OSM    H6G14868   0.410   2.262   3.146
  137OSM    C7F14869   0.540   2.217   3.308
  137OSM    H7F14870   0.593   2.314   3.296
  137OSM    H7G14871   0.612   2.142   3.349
  137OSM    C8F14872   0.436   2.250   3.413
  137OSM    H8F14873   0.343   2.287   3.365
  137OSM    H8G14874   0.473   2.331   3.479
  137OSM    C9F14875   0.410   2.122   3.497
  137OSM    H9F14876   0.356   2.044   3.442
  137OSM   C10F14877   0.470   2.098   3.616
  137OSM   H10F14878   0.426   2.013   3.670
  137OSM   C11F14879   0.549   2.197   3.703
  137OSM   H11F14880   0.577   2.287   3.645
  137OSM   H11G14881   0.641   2.151   3.747
  137OSM   C12F14882   0.468   2.242   3.823
  137OSM   H12F14883   0.530   2.309   3.886
  137OSM   H12G14884   0.433   2.159   3.887
  137OSM   C13F14885   0.358   2.340   3.781
  137OSM   H13F14886   0.278   2.279   3.733
  137OSM   H13G14887   0.396   2.412   3.706
  137OSM   C14F14888   0.312   2.422   3.907
  137OSM   H14F14889   0.270   2.517   3.866
  137OSM   H14G14890   0.405   2.437   3.967
  137OSM   C15F14891   0.226   2.352   4.014
  137OSM   H15F14892   0.280   2.262   4.053
  137OSM   H15G14893   0.130   2.321   3.969
  137OSM   C16F14894   0.206   2.442   4.143
  137OSM   H16F14895   0.182   2.547   4.117
  137OSM   H16G14896   0.301   2.426   4.199
  137OSM   C17F14897   0.096   2.398   4.241
  137OSM   H17F14898   6.814   2.406   4.196
  137OSM   H17G14899   0.104   2.474   4.322
  137OSM   C18F14900   0.108   2.262   4.305
  137OSM   H18F14901   0.045   2.260   4.396
  137OSM   H18G14902   0.211   2.232   4.335
  137OSM   H18H14903   0.068   2.190   4.231
  138OSM      N14904   6.093   6.360   2.003
  138OSM    C1514905   6.112   6.213   1.974
  138OSM   H15A14906   6.217   6.186   1.975
  138OSM   H15B14907   6.063   6.186   1.882
  138OSM   H15C14908   6.071   6.153   2.054
  138OSM    C1414909   6.206   6.428   1.938
  138OSM   H14A14910   6.200   6.533   1.963
  138OSM   H14B14911   6.207   6.432   1.830
  138OSM   H14C14912   6.303   6.394   1.972
  138OSM    C1314913   5.969   6.412   1.943
  138OSM   H13A14914   5.962   6.382   1.839
  138OSM   H13B14915   5.953   6.519   1.939
  138OSM   H13C14916   5.881   6.370   1.991
  138OSM    C1214917   6.104   6.387   2.158
  138OSM   H12A14918   6.091   6.495   2.157
  138OSM   H12B14919   6.201   6.357   2.194
  138OSM    C1114920   5.992   6.331   2.251
  138OSM   H11A14921   5.894   6.370   2.215
  138OSM   H11B14922   6.023   6.369   2.351
  138OSM      P14923   5.862   6.112   2.296
  138OSM    O1314924   5.757   6.149   2.201
  138OSM    O1414925   5.885   5.970   2.323
  138OSM    O1114926   5.839   6.192   2.429
  138OSM    O1214927   5.998   6.184   2.262
  138OSM    C1S14928   5.701   6.234   2.445
  138OSM    H1S14929   5.629   6.150   2.439
  138OSM    H1T14930   5.684   6.322   2.379
  138OSM     NF14931   5.530   6.299   2.618
  138OSM    HNF14932   5.488   6.382   2.652
  138OSM    C2S14933   5.677   6.286   2.591
  138OSM    H2S14934   5.706   6.206   2.662
  138OSM    C3S14935   5.770   6.408   2.627
  138OSM    H3S14936   5.751   6.487   2.552
  138OSM     O314937   5.909   6.378   2.613
  138OSM    HO314938   5.911   6.302   2.555
  138OSM    C4S14939   5.751   6.467   2.761
  138OSM    H4S14940   5.711   6.569   2.761
  138OSM    C5S14941   5.791   6.409   2.878
  138OSM    H5S14942   5.830   6.306   2.877
  138OSM    C6S14943   5.777   6.462   3.016
  138OSM    H6S14944   5.874   6.437   3.064
  138OSM    H6T14945   5.709   6.392   3.071
  138OSM    C7S14946   5.729   6.604   3.025
  138OSM    H7S14947   5.654   6.635   2.950
  138OSM    H7T14948   5.811   6.676   3.005
  138OSM    C8S14949   5.675   6.645   3.157
  138OSM    H8S14950   5.590   6.581   3.188
  138OSM    H8T14951   5.641   6.750   3.145
  138OSM    C9S14952   5.778   6.616   3.269
  138OSM    H9S14953   5.884   6.639   3.245
  138OSM    H9T14954   5.781   6.505   3.276
  138OSM   C10S14955   5.722   6.661   3.409
  138OSM   H10S14956   5.620   6.622   3.424
  138OSM   H10T14957   5.713   6.771   3.415
  138OSM   C11S14958   5.811   6.620   3.537
  138OSM   H11S14959   5.901   6.684   3.542
  138OSM   H11T14960   5.830   6.510   3.534
  138OSM   C12S14961   5.729   6.644   3.665
  138OSM   H12S14962   5.621   6.621   3.664
  138OSM   H12T14963   5.747   6.751   3.689
  138OSM   C13S14964   5.786   6.565   3.781
  138OSM   H13S14965   5.896   6.575   3.767
  138OSM   H13T14966   5.757   6.458   3.776
  138OSM   C14S14967   5.742   6.620   3.917
  138OSM   H14S14968   5.632   6.618   3.933
  138OSM   H14T14969   5.766   6.728   3.924
  138OSM   C15S14970   5.812   6.553   4.033
  138OSM   H15S14971   5.917   6.586   4.046
  138OSM   H15T14972   5.797   6.447   4.006
  138OSM   C16S14973   5.734   6.578   4.162
  138OSM   H16S14974   5.626   6.585   4.137
  138OSM   H16T14975   5.772   6.676   4.196
  138OSM   C17S14976   5.762   6.469   4.261
  138OSM   H17S14977   5.871   6.448   4.270
  138OSM   H17T14978   5.731   6.375   4.210
  138OSM   C18S14979   5.695   6.471   4.396
  138OSM   H18S14980   5.715   6.570   4.442
  138OSM   H18T14981   5.732   6.399   4.472
  138OSM   H18U14982   5.587   6.457   4.374
  138OSM    C1F14983   5.454   6.185   2.618
  138OSM     OF14984   5.497   6.073   2.597
  138OSM    C2F14985   5.321   6.200   2.679
  138OSM    H2F14986   5.244   6.147   2.620
  138OSM    H2G14987   5.297   6.306   2.703
  138OSM    C3F14988   5.327   6.131   2.814
  138OSM    H3F14989   5.352   6.024   2.802
  138OSM    H3G14990   5.233   6.155   2.869
  138OSM    C4F14991   5.436   6.199   2.902
  138OSM    H4F14992   5.445   6.308   2.887
  138OSM    H4G14993   5.535   6.158   2.874
  138OSM    C5F14994   5.415   6.188   3.049
  138OSM    H5F14995   5.383   6.083   3.066
  138OSM    H5G14996   5.331   6.248   3.089
  138OSM    C6F14997   5.527   6.213   3.151
  138OSM    H6F14998   5.550   6.321   3.159
  138OSM    H6G14999   5.625   6.171   3.120
  138OSM    C7F15000   5.493   6.166   3.292
  138OSM    H7F15001   5.549   6.073   3.316
  138OSM    H7G15002   5.391   6.121   3.302
  138OSM    C8F15003   5.504   6.281   3.402
  138OSM    H8F15004   5.466   6.371   3.348
  138OSM    H8G15005   5.613   6.294   3.416
  138OSM    C9F15006   5.431   6.253   3.527
  138OSM    H9F15007   5.324   6.264   3.505
  138OSM   C10F15008   5.473   6.200   3.641
  138OSM   H10F15009   5.395   6.177   3.715
  138OSM   C11F15010   5.617   6.171   3.665
  138OSM   H11F15011   5.681   6.254   3.628
  138OSM   H11G15012   5.645   6.074   3.620
  138OSM   C12F15013   5.632   6.165   3.819
  138OSM   H12F15014   5.570   6.093   3.876
  138OSM   H12G15015   5.594   6.262   3.859
  138OSM   C13F15016   5.777   6.162   3.865
  138OSM   H13F15017   5.820   6.264   3.853
  138OSM   H13G15018   5.849   6.098   3.810
  138OSM   C14F15019   5.798   6.126   4.021
  138OSM   H14F15020   5.752   6.025   4.022
  138OSM   H14G15021   5.743   6.195   4.087
  138OSM   C15F15022   5.946   6.117   4.059
  138OSM   H15F15023   5.980   6.222   4.063
  138OSM   H15G15024   6.000   6.048   3.990
  138OSM   C16F15025   5.973   6.041   4.198
  138OSM   H16F15026   6.080   6.014   4.200
  138OSM   H16G15027   5.922   5.943   4.207
  138OSM   C17F15028   5.944   6.117   4.322
  138OSM   H17F15029   5.835   6.140   4.320
  138OSM   H17G15030   5.983   6.221   4.316
  138OSM   C18F15031   5.994   6.049   4.448
  138OSM   H18F15032   6.100   6.026   4.428
  138OSM   H18G15033   5.950   5.947   4.448
  138OSM   H18H15034   5.998   6.117   4.536
  139OSM      N15035   1.348   1.365   1.938
  139OSM    C1515036   1.339   1.222   1.889
  139OSM   H15A15037   1.409   1.213   1.807
  139OSM   H15B15038   1.240   1.195   1.856
  139OSM   H15C15039   1.369   1.153   1.966
  139OSM    C1415040   1.490   1.398   1.968
  139OSM   H14A15041   1.553   1.388   1.881
  139OSM   H14B15042   1.531   1.335   2.046
  139OSM   H14C15043   1.490   1.499   2.008
  139OSM    C1315044   1.322   1.454   1.815
  139OSM   H13A15045   1.393   1.434   1.736
  139OSM   H13B15046   1.332   1.557   1.845
  139OSM   H13C15047   1.218   1.437   1.793
  139OSM    C1215048   1.249   1.401   2.043
  139OSM   H12A15049   1.266   1.506   2.064
  139OSM   H12B15050   1.277   1.363   2.140
  139OSM    C1115051   1.099   1.390   2.003
  139OSM   H11A15052   1.065   1.447   1.914
  139OSM   H11B15053   1.049   1.434   2.092
  139OSM      P15054   0.957   1.174   2.063
  139OSM    O1315055   0.826   1.232   2.048
  139OSM    O1415056   0.979   1.029   2.020
  139OSM    O1115057   1.013   1.194   2.210
  139OSM    O1215058   1.058   1.250   1.979
  139OSM    C1S15059   0.929   1.200   2.321
  139OSM    H1S15060   0.857   1.116   2.318
  139OSM    H1T15061   0.866   1.292   2.319
  139OSM     NF15062   0.915   1.212   2.555
  139OSM    HNF15063   0.906   1.303   2.593
  139OSM    C2S15064   1.008   1.215   2.452
  139OSM    H2S15065   1.066   1.125   2.481
  139OSM    C3S15066   1.102   1.341   2.444
  139OSM    H3S15067   1.045   1.426   2.400
  139OSM     O315068   1.194   1.317   2.348
  139OSM    HO315069   1.144   1.251   2.299
  139OSM    C4S15070   1.158   1.382   2.573
  139OSM    H4S15071   1.100   1.461   2.623
  139OSM    C5S15072   1.268   1.335   2.637
  139OSM    H5S15073   1.317   1.252   2.583
  139OSM    C6S15074   1.329   1.376   2.767
  139OSM    H6S15075   1.395   1.465   2.754
  139OSM    H6T15076   1.396   1.294   2.802
  139OSM    C7S15077   1.221   1.400   2.871
  139OSM    H7S15078   1.154   1.311   2.878
  139OSM    H7T15079   1.153   1.486   2.856
  139OSM    C8S15080   1.285   1.440   3.007
  139OSM    H8S15081   1.345   1.532   2.993
  139OSM    H8T15082   1.345   1.354   3.046
  139OSM    C9S15083   1.182   1.476   3.113
  139OSM    H9S15084   1.111   1.550   3.070
  139OSM    H9T15085   1.229   1.529   3.199
  139OSM   C10S15086   1.113   1.353   3.167
  139OSM   H10S15087   1.182   1.296   3.233
  139OSM   H10T15088   1.086   1.281   3.087
  139OSM   C11S15089   0.981   1.377   3.244
  139OSM   H11S15090   0.939   1.279   3.273
  139OSM   H11T15091   0.903   1.422   3.179
  139OSM   C12S15092   0.999   1.443   3.385
  139OSM   H12S15093   1.023   1.549   3.363
  139OSM   H12T15094   1.080   1.391   3.440
  139OSM   C13S15095   0.872   1.435   3.480
  139OSM   H13S15096   0.854   1.331   3.514
  139OSM   H13T15097   0.783   1.467   3.422
  139OSM   C14S15098   0.879   1.522   3.608
  139OSM   H14S15099   0.785   1.531   3.668
  139OSM   H14T15100   0.902   1.628   3.581
  139OSM   C15S15101   0.975   1.484   3.723
  139OSM   H15S15102   1.082   1.485   3.692
  139OSM   H15T15103   0.946   1.380   3.748
  139OSM   C16S15104   0.957   1.580   3.846
  139OSM   H16S15105   0.854   1.566   3.886
  139OSM   H16T15106   0.960   1.688   3.819
  139OSM   C17S15107   1.053   1.556   3.961
  139OSM   H17S15108   1.159   1.567   3.930
  139OSM   H17T15109   1.039   1.451   3.997
  139OSM   C18S15110   1.027   1.642   4.083
  139OSM   H18S15111   1.086   1.598   4.166
  139OSM   H18T15112   0.918   1.646   4.108
  139OSM   H18U15113   1.056   1.746   4.059
  139OSM    C1F15114   0.836   1.106   2.591
  139OSM     OF15115   0.836   1.003   2.523
  139OSM    C2F15116   0.751   1.118   2.717
  139OSM    H2F15117   0.791   1.201   2.780
  139OSM    H2G15118   0.774   1.019   2.761
  139OSM    C3F15119   0.604   1.140   2.677
  139OSM    H3F15120   0.530   1.132   2.759
  139OSM    H3G15121   0.569   1.056   2.613
  139OSM    C4F15122   0.580   1.275   2.607
  139OSM    H4F15123   0.472   1.271   2.582
  139OSM    H4G15124   0.645   1.284   2.517
  139OSM    C5F15125   0.584   1.402   2.684
  139OSM    H5F15126   0.577   1.483   2.608
  139OSM    H5G15127   0.688   1.425   2.714
  139OSM    C6F15128   0.483   1.419   2.799
  139OSM    H6F15129   0.524   1.366   2.887
  139OSM    H6G15130   0.389   1.361   2.786
  139OSM    C7F15131   0.455   1.559   2.839
  139OSM    H7F15132   0.375   1.568   2.916
  139OSM    H7G15133   0.410   1.624   2.761
  139OSM    C8F15134   0.580   1.637   2.889
  139OSM    H8F15135   0.543   1.741   2.904
  139OSM    H8G15136   0.645   1.651   2.800
  139OSM    C9F15137   0.639   1.580   3.013
  139OSM    H9F15138   0.736   1.529   2.999
  139OSM   C10F15139   0.584   1.597   3.134
  139OSM   H10F15140   0.626   1.544   3.221
  139OSM   C11F15141   0.463   1.680   3.169
  139OSM   H11F15142   0.374   1.615   3.159
  139OSM   H11G15143   0.448   1.755   3.088
  139OSM   C12F15144   0.478   1.753   3.302
  139OSM   H12F15145   0.384   1.811   3.311
  139OSM   H12G15146   0.566   1.820   3.295
  139OSM   C13F15147   0.487   1.658   3.427
  139OSM   H13F15148   0.572   1.587   3.417
  139OSM   H13G15149   0.398   1.593   3.415
  139OSM   C14F15150   0.486   1.724   3.564
  139OSM   H14F15151   0.421   1.814   3.560
  139OSM   H14G15152   0.587   1.767   3.583
  139OSM   C15F15153   0.444   1.639   3.692
  139OSM   H15F15154   0.514   1.553   3.694
  139OSM   H15G15155   0.342   1.602   3.665
  139OSM   C16F15156   0.456   1.708   3.820
  139OSM   H16F15157   0.399   1.648   3.893
  139OSM   H16G15158   0.394   1.800   3.813
  139OSM   C17F15159   0.594   1.719   3.885
  139OSM   H17F15160   0.662   1.790   3.833
  139OSM   H17G15161   0.642   1.619   3.889
  139OSM   C18F15162   0.585   1.772   4.028
  139OSM   H18F15163   0.542   1.875   4.021
  139OSM   H18G15164   0.691   1.786   4.058
  139OSM   H18H15165   0.514   1.710   4.086
  140OSM      N15166   5.222   0.266   1.723
  140OSM    C1515167   5.366   0.222   1.707
  140OSM   H15A15168   5.435   0.283   1.763
  140OSM   H15B15169   5.395   0.243   1.605
  140OSM   H15C15170   5.372   0.120   1.743
  140OSM    C1415171   5.214   0.406   1.661
  140OSM   H14A15172   5.109   0.432   1.672
  140OSM   H14B15173   5.241   0.393   1.557
  140OSM   H14C15174   5.260   0.482   1.722
  140OSM    C1315175   5.134   0.181   1.635
  140OSM   H13A15176   5.033   0.217   1.642
  140OSM   H13B15177   5.143   0.081   1.675
  140OSM   H13C15178   5.159   0.182   1.530
  140OSM    C1215179   5.171   0.271   1.868
  140OSM   H12A15180   5.073   0.316   1.873
  140OSM   H12B15181   5.238   0.325   1.933
  140OSM    C1115182   5.156   0.123   1.922
  140OSM   H11A15183   5.155   0.122   2.033
  140OSM   H11B15184   5.244   0.061   1.899
  140OSM      P15185   4.992   6.737   1.902
  140OSM    O1315186   4.859   6.714   1.849
  140OSM    O1415187   5.103   6.654   1.857
  140OSM    O1115188   4.988   6.746   2.060
  140OSM    O1215189   5.030   0.071   1.874
  140OSM    C1S15190   4.907   6.649   2.134
  140OSM    H1S15191   4.943   6.547   2.109
  140OSM    H1T15192   4.798   6.662   2.118
  140OSM     NF15193   4.882   6.536   2.360
  140OSM    HNF15194   4.798   6.548   2.413
  140OSM    C2S15195   4.940   6.657   2.291
  140OSM    H2S15196   5.050   6.639   2.296
  140OSM    C3S15197   4.899   6.801   2.345
  140OSM    H3S15198   4.792   6.811   2.318
  140OSM     O315199   4.952   0.090   2.275
  140OSM    HO315200   5.000   0.050   2.203
  140OSM    C4S15201   4.924   0.004   2.496
  140OSM    H4S15202   4.837   6.792   2.554
  140OSM    C5S15203   5.040   0.049   2.556
  140OSM    H5S15204   5.119   0.086   2.488
  140OSM    C6S15205   5.060   0.088   2.699
  140OSM    H6S15206   5.122   0.180   2.698
  140OSM    H6T15207   5.108   0.007   2.759
  140OSM    C7S15208   4.931   0.138   2.776
  140OSM    H7S15209   4.866   0.054   2.807
  140OSM    H7T15210   4.877   0.208   2.709
  140OSM    C8S15211   4.946   0.227   2.894
  140OSM    H8S15212   4.856   0.292   2.898
  140OSM    H8T15213   5.037   0.291   2.890
  140OSM    C9S15214   4.945   0.155   3.029
  140OSM    H9S15215   5.008   0.064   3.015
  140OSM    H9T15216   4.843   0.117   3.055
  140OSM   C10S15217   4.985   0.242   3.149
  140OSM   H10S15218   4.905   0.319   3.156
  140OSM   H10T15219   5.079   0.299   3.130
  140OSM   C11S15220   4.988   0.160   3.283
  140OSM   H11S15221   5.076   0.092   3.283
  140OSM   H11T15222   4.895   0.101   3.299
  140OSM   C12S15223   4.982   0.253   3.406
  140OSM   H12S15224   4.898   0.323   3.386
  140OSM   H12T15225   5.073   0.316   3.416
  140OSM   C13S15226   4.963   0.176   3.544
  140OSM   H13S15227   5.048   0.104   3.549
  140OSM   H13T15228   4.872   0.113   3.537
  140OSM   C14S15229   4.968   0.265   3.666
  140OSM   H14S15230   4.867   0.310   3.680
  140OSM   H14T15231   5.046   0.336   3.633
  140OSM   C15S15232   5.006   0.194   3.796
  140OSM   H15S15233   5.115   0.215   3.806
  140OSM   H15T15234   4.996   0.083   3.797
  140OSM   C16S15235   4.930   0.246   3.917
  140OSM   H16S15236   4.822   0.251   3.892
  140OSM   H16T15237   4.957   0.353   3.924
  140OSM   C17S15238   4.955   0.182   4.049
  140OSM   H17S15239   5.061   0.190   4.081
  140OSM   H17T15240   4.938   0.073   4.057
  140OSM   C18S15241   4.867   0.237   4.162
  140OSM   H18S15242   4.902   0.335   4.201
  140OSM   H18T15243   4.878   0.160   4.241
  140OSM   H18U15244   4.762   0.248   4.128
  140OSM    C1F15245   4.916   6.409   2.337
  140OSM     OF15246   5.008   6.391   2.255
  140OSM    C2F15247   4.833   6.290   2.398
  140OSM    H2F15248   4.840   6.212   2.320
  140OSM    H2G15249   4.728   6.323   2.413
  140OSM    C3F15250   4.887   6.235   2.536
  140OSM    H3F15251   4.990   6.196   2.519
  140OSM    H3G15252   4.826   6.149   2.572
  140OSM    C4F15253   4.908   6.338   2.653
  140OSM    H4F15254   4.812   6.378   2.693
  140OSM    H4G15255   4.961   6.417   2.596
  140OSM    C5F15256   4.981   6.277   2.775
  140OSM    H5F15257   5.082   6.245   2.743
  140OSM    H5G15258   4.922   6.189   2.808
  140OSM    C6F15259   4.990   6.385   2.881
  140OSM    H6F15260   5.021   6.347   2.981
  140OSM    H6G15261   4.891   6.427   2.911
  140OSM    C7F15262   5.066   6.513   2.830
  140OSM    H7F15263   5.007   6.568   2.754
  140OSM    H7G15264   5.162   6.482   2.784
  140OSM    C8F15265   5.107   6.608   2.944
  140OSM    H8F15266   5.022   6.644   3.005
  140OSM    H8G15267   5.148   6.696   2.888
  140OSM    C9F15268   5.210   6.544   3.027
  140OSM    H9F15269   5.298   6.514   2.967
  140OSM   C10F15270   5.220   6.540   3.155
  140OSM   H10F15271   5.296   6.477   3.204
  140OSM   C11F15272   5.123   6.594   3.253
  140OSM   H11F15273   5.021   6.595   3.209
  140OSM   H11G15274   5.144   6.701   3.276
  140OSM   C12F15275   5.108   6.510   3.377
  140OSM   H12F15276   5.203   6.482   3.428
  140OSM   H12G15277   5.053   6.416   3.356
  140OSM   C13F15278   5.045   6.584   3.495
  140OSM   H13F15279   4.951   6.631   3.459
  140OSM   H13G15280   5.112   6.669   3.521
  140OSM   C14F15281   5.001   6.500   3.615
  140OSM   H14F15282   4.939   6.413   3.584
  140OSM   H14G15283   4.950   6.563   3.691
  140OSM   C15F15284   5.111   6.412   3.677
  140OSM   H15F15285   5.196   6.481   3.698
  140OSM   H15G15286   5.138   6.324   3.615
  140OSM   C16F15287   5.069   6.367   3.824
  140OSM   H16F15288   4.984   6.295   3.830
  140OSM   H16G15289   5.034   6.463   3.867
  140OSM   C17F15290   5.191   6.299   3.888
  140OSM   H17F15291   5.280   6.366   3.886
  140OSM   H17G15292   5.218   6.215   3.821
  140OSM   C18F15293   5.151   6.245   4.021
  140OSM   H18F15294   5.083   6.157   4.013
  140OSM   H18G15295   5.088   6.318   4.074
  140OSM   H18H15296   5.235   6.220   4.089
  141OSM      N15297   0.836   3.997   1.942
  141OSM    C1515298   0.979   3.958   1.939
  141OSM   H15A15299   1.037   4.038   1.896
  141OSM   H15B15300   0.998   3.871   1.878
  141OSM   H15C15301   1.008   3.931   2.039
  141OSM    C1415302   0.795   4.032   1.806
  141OSM   H14A15303   0.843   4.115   1.757
  141OSM   H14B15304   0.688   4.044   1.798
  141OSM   H14C15305   0.814   3.944   1.746
  141OSM    C1315306   0.757   3.873   1.983
  141OSM   H13A15307   0.652   3.898   1.985
  141OSM   H13B15308   0.770   3.848   2.087
  141OSM   H13C15309   0.779   3.785   1.926
  141OSM    C1215310   0.831   4.113   2.040
  141OSM   H12A15311   0.898   4.190   2.003
  141OSM   H12B15312   0.872   4.080   2.134
  141OSM    C1115313   0.698   4.187   2.052
  141OSM   H11A15314   0.669   4.226   1.952
  141OSM   H11B15315   0.729   4.272   2.116
  141OSM      P15316   0.450   4.153   2.097
  141OSM    O1315317   0.443   4.296   2.073
  141OSM    O1415318   0.381   4.072   1.997
  141OSM    O1115319   0.383   4.141   2.241
  141OSM    O1215320   0.597   4.110   2.120
  141OSM    C1S15321   0.390   4.024   2.324
  141OSM    H1S15322   0.454   3.943   2.283
  141OSM    H1T15323   0.285   3.990   2.326
  141OSM     NF15324   0.439   3.958   2.558
  141OSM    HNF15325   0.381   3.937   2.636
  141OSM    C2S15326   0.417   4.074   2.474
  141OSM    H2S15327   0.515   4.126   2.473
  141OSM    C3S15328   0.302   4.169   2.519
  141OSM    H3S15329   0.215   4.102   2.537
  141OSM     O315330   0.263   4.265   2.419
  141OSM    HO315331   0.318   4.232   2.347
  141OSM    C4S15332   0.330   4.242   2.651
  141OSM    H4S15333   0.257   4.215   2.728
  141OSM    C5S15334   0.436   4.317   2.684
  141OSM    H5S15335   0.511   4.336   2.605
  141OSM    C6S15336   0.469   4.392   2.814
  141OSM    H6S15337   0.385   4.462   2.833
  141OSM    H6T15338   0.548   4.468   2.793
  141OSM    C7S15339   0.504   4.303   2.932
  141OSM    H7S15340   0.597   4.256   2.893
  141OSM    H7T15341   0.436   4.217   2.948
  141OSM    C8S15342   0.525   4.382   3.057
  141OSM    H8S15343   0.429   4.427   3.089
  141OSM    H8T15344   0.587   4.470   3.032
  141OSM    C9S15345   0.591   4.303   3.168
  141OSM    H9S15346   0.684   4.259   3.125
  141OSM    H9T15347   0.527   4.234   3.228
  141OSM   C10S15348   0.646   4.411   3.265
  141OSM   H10S15349   0.551   4.446   3.311
  141OSM   H10T15350   0.698   4.492   3.209
  141OSM   C11S15351   0.724   4.368   3.388
  141OSM   H11S15352   0.833   4.364   3.367
  141OSM   H11T15353   0.703   4.263   3.419
  141OSM   C12S15354   0.700   4.466   3.505
  141OSM   H12S15355   0.593   4.459   3.536
  141OSM   H12T15356   0.711   4.569   3.467
  141OSM   C13S15357   0.778   4.443   3.628
  141OSM   H13S15358   0.885   4.432   3.601
  141OSM   H13T15359   0.731   4.349   3.667
  141OSM   C14S15360   0.761   4.556   3.739
  141OSM   H14S15361   0.662   4.548   3.789
  141OSM   H14T15362   0.774   4.658   3.697
  141OSM   C15S15363   0.868   4.535   3.842
  141OSM   H15S15364   0.964   4.572   3.801
  141OSM   H15T15365   0.884   4.425   3.852
  141OSM   C16S15366   0.841   4.590   3.983
  141OSM   H16S15367   0.737   4.556   4.003
  141OSM   H16T15368   0.840   4.702   3.985
  141OSM   C17S15369   0.944   4.544   4.090
  141OSM   H17S15370   0.965   4.435   4.088
  141OSM   H17T15371   0.910   4.570   4.193
  141OSM   C18S15372   1.074   4.617   4.075
  141OSM   H18S15373   1.125   4.569   3.989
  141OSM   H18T15374   1.135   4.606   4.168
  141OSM   H18U15375   1.045   4.717   4.038
  141OSM    C1F15376   0.546   3.868   2.540
  141OSM     OF15377   0.632   3.887   2.458
  141OSM    C2F15378   0.541   3.746   2.623
  141OSM    H2F15379   0.505   3.662   2.560
  141OSM    H2G15380   0.463   3.766   2.699
  141OSM    C3F15381   0.667   3.707   2.706
  141OSM    H3F15382   0.746   3.669   2.638
  141OSM    H3G15383   0.635   3.621   2.768
  141OSM    C4F15384   0.705   3.817   2.804
  141OSM    H4F15385   0.621   3.829   2.877
  141OSM    H4G15386   0.721   3.917   2.757
  141OSM    C5F15387   0.824   3.772   2.894
  141OSM    H5F15388   0.902   3.746   2.820
  141OSM    H5G15389   0.802   3.672   2.938
  141OSM    C6F15390   0.857   3.869   3.003
  141OSM    H6F15391   0.814   3.968   2.980
  141OSM    H6G15392   0.967   3.883   3.000
  141OSM    C7F15393   0.810   3.805   3.136
  141OSM    H7F15394   0.887   3.729   3.161
  141OSM    H7G15395   0.712   3.758   3.112
  141OSM    C8F15396   0.788   3.905   3.252
  141OSM    H8F15397   0.743   3.844   3.333
  141OSM    H8G15398   0.721   3.983   3.209
  141OSM    C9F15399   0.908   3.985   3.298
  141OSM    H9F15400   0.981   4.005   3.218
  141OSM   C10F15401   0.926   4.025   3.420
  141OSM   H10F15402   1.014   4.086   3.446
  141OSM   C11F15403   0.838   4.007   3.546
  141OSM   H11F15404   0.739   3.956   3.549
  141OSM   H11G15405   0.815   4.112   3.575
  141OSM   C12F15406   0.918   3.941   3.656
  141OSM   H12F15407   1.003   4.006   3.684
  141OSM   H12G15408   0.956   3.846   3.613
  141OSM   C13F15409   0.828   3.899   3.781
  141OSM   H13F15410   0.890   3.830   3.842
  141OSM   H13G15411   0.736   3.851   3.741
  141OSM   C14F15412   0.790   4.027   3.855
  141OSM   H14F15413   0.713   4.080   3.795
  141OSM   H14G15414   0.885   4.083   3.862
  141OSM   C15F15415   0.729   4.014   3.997
  141OSM   H15F15416   0.813   3.979   4.060
  141OSM   H15G15417   0.646   3.940   3.995
  141OSM   C16F15418   0.684   4.153   4.050
  141OSM   H16F15419   0.603   4.200   3.990
  141OSM   H16G15420   0.769   4.222   4.066
  141OSM   C17F15421   0.620   4.140   4.192
  141OSM   H17F15422   0.694   4.106   4.267
  141OSM   H17G15423   0.531   4.074   4.188
  141OSM   C18F15424   0.548   4.267   4.253
  141OSM   H18F15425   0.617   4.336   4.307
  141OSM   H18G15426   0.463   4.239   4.319
  141OSM   H18H15427   0.507   4.327   4.169
  142OSM      N15428   1.583   5.055   1.762
  142OSM    C1515429   1.723   5.071   1.739
  142OSM   H15A15430   1.753   5.169   1.773
  142OSM   H15B15431   1.767   5.069   1.640
  142OSM   H15C15432   1.783   5.000   1.794
  142OSM    C1415433   1.498   5.139   1.664
  142OSM   H14A15434   1.390   5.133   1.670
  142OSM   H14B15435   1.528   5.116   1.563
  142OSM   H14C15436   1.519   5.244   1.675
  142OSM    C1315437   1.557   4.914   1.744
  142OSM   H13A15438   1.451   4.900   1.763
  142OSM   H13B15439   1.612   4.845   1.807
  142OSM   H13C15440   1.596   4.876   1.650
  142OSM    C1215441   1.553   5.092   1.902
  142OSM   H12A15442   1.611   5.027   1.965
  142OSM   H12B15443   1.451   5.066   1.924
  142OSM    C1115444   1.578   5.243   1.947
  142OSM   H11A15445   1.586   5.234   2.057
  142OSM   H11B15446   1.479   5.284   1.918
  142OSM      P15447   1.675   5.459   1.855
  142OSM    O1315448   1.804   5.528   1.819
  142OSM    O1415449   1.565   5.460   1.753
  142OSM    O1115450   1.624   5.525   1.995
  142OSM    O1215451   1.691   5.309   1.893
  142OSM    C1S15452   1.709   5.504   2.111
  142OSM    H1S15453   1.809   5.552   2.099
  142OSM    H1T15454   1.741   5.401   2.135
  142OSM     NF15455   1.747   5.570   2.346
  142OSM    HNF15456   1.779   5.489   2.394
  142OSM    C2S15457   1.644   5.556   2.247
  142OSM    H2S15458   1.591   5.652   2.232
  142OSM    C3S15459   1.527   5.458   2.282
  142OSM    H3S15460   1.558   5.352   2.295
  142OSM     O315461   1.434   5.449   2.175
  142OSM    HO315462   1.486   5.481   2.101
  142OSM    C4S15463   1.459   5.494   2.410
  142OSM    H4S15464   1.520   5.460   2.496
  142OSM    C5S15465   1.343   5.552   2.423
  142OSM    H5S15466   1.284   5.573   2.333
  142OSM    C6S15467   1.280   5.594   2.552
  142OSM    H6S15468   1.204   5.516   2.574
  142OSM    H6T15469   1.233   5.695   2.550
  142OSM    C7S15470   1.386   5.597   2.665
  142OSM    H7S15471   1.471   5.666   2.646
  142OSM    H7T15472   1.422   5.495   2.692
  142OSM    C8S15473   1.319   5.656   2.792
  142OSM    H8S15474   1.236   5.584   2.808
  142OSM    H8T15475   1.286   5.758   2.766
  142OSM    C9S15476   1.418   5.680   2.911
  142OSM    H9S15477   1.504   5.744   2.880
  142OSM    H9T15478   1.471   5.589   2.945
  142OSM   C10S15479   1.348   5.722   3.039
  142OSM   H10S15480   1.285   5.643   3.084
  142OSM   H10T15481   1.273   5.799   3.015
  142OSM   C11S15482   1.443   5.772   3.154
  142OSM   H11S15483   1.526   5.837   3.118
  142OSM   H11T15484   1.496   5.686   3.200
  142OSM   C12S15485   1.363   5.847   3.262
  142OSM   H12S15486   1.280   5.784   3.299
  142OSM   H12T15487   1.315   5.940   3.223
  142OSM   C13S15488   1.436   5.889   3.389
  142OSM   H13S15489   1.535   5.922   3.351
  142OSM   H13T15490   1.451   5.802   3.456
  142OSM   C14S15491   1.388   6.012   3.461
  142OSM   H14S15492   1.280   5.990   3.472
  142OSM   H14T15493   1.383   6.098   3.392
  142OSM   C15S15494   1.460   6.034   3.594
  142OSM   H15S15495   1.567   6.060   3.577
  142OSM   H15T15496   1.440   5.952   3.665
  142OSM   C16S15497   1.399   6.149   3.677
  142OSM   H16S15498   1.294   6.122   3.700
  142OSM   H16T15499   1.377   6.246   3.627
  142OSM   C17S15500   1.468   6.180   3.803
  142OSM   H17S15501   1.565   6.227   3.776
  142OSM   H17T15502   1.498   6.085   3.852
  142OSM   C18S15503   1.391   6.264   3.902
  142OSM   H18S15504   1.293   6.214   3.921
  142OSM   H18T15505   1.387   6.372   3.877
  142OSM   H18U15506   1.441   6.266   4.001
  142OSM    C1F15507   1.823   5.679   2.346
  142OSM     OF15508   1.770   5.790   2.317
  142OSM    C2F15509   1.965   5.665   2.371
  142OSM    H2F15510   2.013   5.704   2.279
  142OSM    H2G15511   2.008   5.563   2.368
  142OSM    C3F15512   2.015   5.751   2.491
  142OSM    H3F15513   1.983   5.857   2.473
  142OSM    H3G15514   2.125   5.750   2.501
  142OSM    C4F15515   1.978   5.713   2.635
  142OSM    H4F15516   2.046   5.630   2.663
  142OSM    H4G15517   1.872   5.679   2.639
  142OSM    C5F15518   2.009   5.824   2.748
  142OSM    H5F15519   1.972   5.925   2.721
  142OSM    H5G15520   2.120   5.831   2.752
  142OSM    C6F15521   1.947   5.782   2.879
  142OSM    H6F15522   1.981   5.681   2.913
  142OSM    H6G15523   1.840   5.756   2.860
  142OSM    C7F15524   1.953   5.895   2.975
  142OSM    H7F15525   1.925   5.986   2.918
  142OSM    H7G15526   2.054   5.919   3.014
  142OSM    C8F15527   1.854   5.891   3.094
  142OSM    H8F15528   1.752   5.893   3.050
  142OSM    H8G15529   1.860   5.989   3.145
  142OSM    C9F15530   1.877   5.774   3.182
  142OSM    H9F15531   1.834   5.683   3.138
  142OSM   C10F15532   1.926   5.780   3.309
  142OSM   H10F15533   1.942   5.681   3.355
  142OSM   C11F15534   1.967   5.900   3.401
  142OSM   H11F15535   2.024   5.977   3.345
  142OSM   H11G15536   2.029   5.865   3.486
  142OSM   C12F15537   1.847   5.974   3.457
  142OSM   H12F15538   1.787   5.914   3.528
  142OSM   H12G15539   1.779   5.992   3.371
  142OSM   C13F15540   1.873   6.105   3.528
  142OSM   H13F15541   1.777   6.144   3.566
  142OSM   H13G15542   1.913   6.182   3.458
  142OSM   C14F15543   1.971   6.109   3.644
  142OSM   H14F15544   2.069   6.076   3.603
  142OSM   H14G15545   1.940   6.038   3.724
  142OSM   C15F15546   1.978   6.259   3.701
  142OSM   H15F15547   1.876   6.290   3.729
  142OSM   H15G15548   2.012   6.322   3.616
  142OSM   C16F15549   2.064   6.279   3.826
  142OSM   H16F15550   2.020   6.202   3.893
  142OSM   H16G15551   2.045   6.381   3.866
  142OSM   C17F15552   2.208   6.243   3.807
  142OSM   H17F15553   2.243   6.307   3.722
  142OSM   H17G15554   2.207   6.139   3.768
  142OSM   C18F15555   2.305   6.258   3.926
  142OSM   H18F15556   2.403   6.213   3.900
  142OSM   H18G15557   2.272   6.207   4.019
  142OSM   H18H15558   2.331   6.357   3.969
  143OSM      N15559   1.049   4.513   1.592
  143OSM    C1515560   1.077   4.368   1.595
  143OSM   H15A15561   1.027   4.308   1.520
  143OSM   H15B15562   1.039   4.321   1.684
  143OSM   H15C15563   1.183   4.351   1.585
  143OSM    C1415564   1.087   4.570   1.454
  143OSM   H14A15565   1.194   4.573   1.440
  143OSM   H14B15566   1.047   4.667   1.429
  143OSM   H14C15567   1.049   4.497   1.384
  143OSM    C1315568   0.904   4.526   1.601
  143OSM   H13A15569   0.872   4.628   1.582
  143OSM   H13B15570   0.873   4.487   1.697
  143OSM   H13C15571   0.865   4.453   1.532
  143OSM    C1215572   1.127   4.583   1.703
  143OSM   H12A15573   1.116   4.521   1.791
  143OSM   H12B15574   1.091   4.684   1.708
  143OSM    C1115575   1.269   4.594   1.676
  143OSM   H11A15576   1.291   4.665   1.593
  143OSM   H11B15577   1.311   4.500   1.635
  143OSM      P15578   1.398   4.528   1.895
  143OSM    O1315579   1.290   4.437   1.939
  143OSM    O1415580   1.518   4.479   1.834
  143OSM    O1115581   1.437   4.632   2.012
  143OSM    O1215582   1.335   4.636   1.799
  143OSM    C1S15583   1.333   4.699   2.082
  143OSM    H1S15584   1.232   4.655   2.066
  143OSM    H1T15585   1.321   4.802   2.042
  143OSM     NF15586   1.265   4.772   2.325
  143OSM    HNF15587   1.277   4.868   2.348
  143OSM    C2S15588   1.375   4.717   2.233
  143OSM    H2S15589   1.388   4.618   2.283
  143OSM    C3S15590   1.514   4.782   2.249
  143OSM    H3S15591   1.511   4.884   2.205
  143OSM     O315592   1.619   4.731   2.164
  143OSM    HO315593   1.574   4.679   2.097
  143OSM    C4S15594   1.556   4.797   2.398
  143OSM    H4S15595   1.527   4.886   2.455
  143OSM    C5S15596   1.622   4.703   2.477
  143OSM    H5S15597   1.648   4.609   2.425
  143OSM    C6S15598   1.648   4.711   2.626
  143OSM    H6S15599   1.656   4.608   2.666
  143OSM    H6T15600   1.570   4.769   2.680
  143OSM    C7S15601   1.777   4.790   2.658
  143OSM    H7S15602   1.751   4.896   2.636
  143OSM    H7T15603   1.867   4.758   2.600
  143OSM    C8S15604   1.832   4.767   2.798
  143OSM    H8S15605   1.907   4.849   2.803
  143OSM    H8T15606   1.871   4.664   2.803
  143OSM    C9S15607   1.720   4.769   2.900
  143OSM    H9S15608   1.640   4.698   2.870
  143OSM    H9T15609   1.663   4.865   2.892
  143OSM   C10S15610   1.770   4.781   3.043
  143OSM   H10S15611   1.840   4.868   3.050
  143OSM   H10T15612   1.821   4.687   3.071
  143OSM   C11S15613   1.657   4.805   3.148
  143OSM   H11S15614   1.564   4.767   3.102
  143OSM   H11T15615   1.636   4.914   3.151
  143OSM   C12S15616   1.680   4.754   3.297
  143OSM   H12S15617   1.701   4.645   3.288
  143OSM   H12T15618   1.595   4.764   3.368
  143OSM   C13S15619   1.797   4.812   3.372
  143OSM   H13S15620   1.764   4.914   3.401
  143OSM   H13T15621   1.882   4.833   3.303
  143OSM   C14S15622   1.848   4.718   3.481
  143OSM   H14S15623   1.855   4.614   3.443
  143OSM   H14T15624   1.771   4.707   3.560
  143OSM   C15S15625   1.988   4.752   3.538
  143OSM   H15S15626   2.067   4.772   3.462
  143OSM   H15T15627   2.021   4.662   3.593
  143OSM   C16S15628   1.990   4.869   3.627
  143OSM   H16S15629   1.966   4.954   3.558
  143OSM   H16T15630   2.092   4.882   3.669
  143OSM   C17S15631   1.893   4.868   3.746
  143OSM   H17S15632   1.916   4.780   3.809
  143OSM   H17T15633   1.789   4.847   3.713
  143OSM   C18S15634   1.898   4.994   3.829
  143OSM   H18S15635   1.989   4.998   3.893
  143OSM   H18T15636   1.810   5.005   3.896
  143OSM   H18U15637   1.903   5.085   3.765
  143OSM    C1F15638   1.152   4.700   2.355
  143OSM     OF15639   1.140   4.586   2.323
  143OSM    C2F15640   1.036   4.780   2.421
  143OSM    H2F15641   0.970   4.833   2.349
  143OSM    H2G15642   1.089   4.860   2.477
  143OSM    C3F15643   0.954   4.696   2.507
  143OSM    H3F15644   1.018   4.646   2.582
  143OSM    H3G15645   0.907   4.615   2.448
  143OSM    C4F15646   0.827   4.773   2.568
  143OSM    H4F15647   0.752   4.776   2.486
  143OSM    H4G15648   0.859   4.876   2.592
  143OSM    C5F15649   0.767   4.713   2.693
  143OSM    H5F15650   0.747   4.605   2.680
  143OSM    H5G15651   0.668   4.763   2.706
  143OSM    C6F15652   0.855   4.736   2.813
  143OSM    H6F15653   0.858   4.846   2.824
  143OSM    H6G15654   0.964   4.720   2.804
  143OSM    C7F15655   0.796   4.673   2.939
  143OSM    H7F15656   0.854   4.581   2.957
  143OSM    H7G15657   0.690   4.642   2.926
  143OSM    C8F15658   0.810   4.776   3.057
  143OSM    H8F15659   0.748   4.744   3.143
  143OSM    H8G15660   0.754   4.866   3.022
  143OSM    C9F15661   0.951   4.798   3.094
  143OSM    H9F15662   1.023   4.815   3.012
  143OSM   C10F15663   1.016   4.776   3.214
  143OSM   H10F15664   1.123   4.800   3.223
  143OSM   C11F15665   0.955   4.741   3.350
  143OSM   H11F15666   1.010   4.658   3.399
  143OSM   H11G15667   0.847   4.717   3.346
  143OSM   C12F15668   0.975   4.864   3.456
  143OSM   H12F15669   0.936   4.957   3.409
  143OSM   H12G15670   1.085   4.877   3.469
  143OSM   C13F15671   0.908   4.849   3.589
  143OSM   H13F15672   0.962   4.761   3.630
  143OSM   H13G15673   0.800   4.823   3.593
  143OSM   C14F15674   0.937   4.962   3.685
  143OSM   H14F15675   0.877   5.050   3.655
  143OSM   H14G15676   1.045   4.985   3.675
  143OSM   C15F15677   0.909   4.922   3.829
  143OSM   H15F15678   0.965   4.828   3.845
  143OSM   H15G15679   0.800   4.908   3.839
  143OSM   C16F15680   0.958   5.019   3.932
  143OSM   H16F15681   1.064   5.042   3.908
  143OSM   H16G15682   0.965   4.968   4.030
  143OSM   C17F15683   0.864   5.135   3.952
  143OSM   H17F15684   0.769   5.082   3.977
  143OSM   H17G15685   0.835   5.193   3.862
  143OSM   C18F15686   0.909   5.219   4.073
  143OSM   H18F15687   1.020   5.234   4.075
  143OSM   H18G15688   0.875   5.180   4.171
  143OSM   H18H15689   0.866   5.321   4.067
  144OSM      N15690   0.259   5.685   1.772
  144OSM    C1515691   0.399   5.672   1.717
  144OSM   H15A15692   0.428   5.569   1.701
  144OSM   H15B15693   0.459   5.706   1.801
  144OSM   H15C15694   0.407   5.739   1.633
  144OSM    C1415695   0.219   5.823   1.782
  144OSM   H14A15696   0.253   5.876   1.695
  144OSM   H14B15697   0.268   5.877   1.862
  144OSM   H14C15698   0.111   5.834   1.788
  144OSM    C1315699   0.168   5.612   1.674
  144OSM   H13A15700   0.173   5.661   1.577
  144OSM   H13B15701   0.064   5.625   1.701
  144OSM   H13C15702   0.199   5.509   1.665
  144OSM    C1215703   0.249   5.620   1.907
  144OSM   H12A15704   0.280   5.518   1.888
  144OSM   H12B15705   0.144   5.610   1.930
  144OSM    C1115706   0.356   5.661   2.016
  144OSM   H11A15707   0.318   5.627   2.114
  144OSM   H11B15708   0.356   5.772   2.021
  144OSM      P15709   0.544   5.499   2.061
  144OSM    O1315710   0.442   5.390   2.043
  144OSM    O1415711   0.677   5.482   1.994
  144OSM    O1115712   0.561   5.530   2.217
  144OSM    O1215713   0.490   5.631   1.996
  144OSM    C1S15714   0.603   5.666   2.260
  144OSM    H1S15715   0.536   5.750   2.232
  144OSM    H1T15716   0.706   5.685   2.222
  144OSM     NF15717   0.629   5.800   2.479
  144OSM    HNF15718   0.718   5.823   2.516
  144OSM    C2S15719   0.620   5.667   2.418
  144OSM    H2S15720   0.530   5.612   2.452
  144OSM    C3S15721   0.732   5.568   2.455
  144OSM    H3S15722   0.830   5.620   2.447
  144OSM     O315723   0.738   5.439   2.391
  144OSM    HO315724   0.665   5.435   2.328
  144OSM    C4S15725   0.721   5.538   2.603
  144OSM    H4S15726   0.626   5.540   2.659
  144OSM    C5S15727   0.831   5.526   2.686
  144OSM    H5S15728   0.929   5.550   2.642
  144OSM    C6S15729   0.832   5.495   2.834
  144OSM    H6S15730   0.878   5.395   2.842
  144OSM    H6T15731   0.731   5.485   2.880
  144OSM    C7S15732   0.914   5.592   2.932
  144OSM    H7S15733   1.020   5.590   2.900
  144OSM    H7T15734   0.906   5.559   3.038
  144OSM    C8S15735   0.856   5.739   2.918
  144OSM    H8S15736   0.746   5.738   2.911
  144OSM    H8T15737   0.901   5.791   2.831
  144OSM    C9S15738   0.895   5.820   3.044
  144OSM    H9S15739   0.874   5.928   3.028
  144OSM    H9T15740   1.004   5.808   3.058
  144OSM   C10S15741   0.823   5.789   3.174
  144OSM   H10S15742   0.825   5.682   3.204
  144OSM   H10T15743   0.715   5.811   3.166
  144OSM   C11S15744   0.880   5.873   3.292
  144OSM   H11S15745   0.847   5.974   3.262
  144OSM   H11T15746   0.991   5.872   3.299
  144OSM   C12S15747   0.817   5.843   3.429
  144OSM   H12S15748   0.821   5.739   3.466
  144OSM   H12T15749   0.708   5.867   3.422
  144OSM   C13S15750   0.874   5.926   3.548
  144OSM   H13S15751   0.799   5.907   3.628
  144OSM   H13T15752   0.898   6.032   3.525
  144OSM   C14S15753   1.008   5.872   3.598
  144OSM   H14S15754   1.084   5.892   3.519
  144OSM   H14T15755   0.990   5.764   3.616
  144OSM   C15S15756   1.054   5.936   3.726
  144OSM   H15S15757   1.005   6.036   3.726
  144OSM   H15T15758   1.164   5.953   3.737
  144OSM   C16S15759   1.013   5.844   3.843
  144OSM   H16S15760   1.080   5.755   3.843
  144OSM   H16T15761   0.906   5.817   3.830
  144OSM   C17S15762   1.033   5.920   3.981
  144OSM   H17S15763   1.134   5.964   3.967
  144OSM   H17T15764   1.023   5.856   4.071
  144OSM   C18S15765   0.928   6.035   3.998
  144OSM   H18S15766   0.839   5.970   4.009
  144OSM   H18T15767   0.911   6.099   3.909
  144OSM   H18U15768   0.944   6.086   4.095
  144OSM    C1F15769   0.531   5.887   2.483
  144OSM     OF15770   0.419   5.853   2.442
  144OSM    C2F15771   0.560   6.018   2.545
  144OSM    H2F15772   0.463   6.054   2.585
  144OSM    H2G15773   0.581   6.081   2.457
  144OSM    C3F15774   0.670   6.003   2.649
  144OSM    H3F15775   0.768   6.000   2.597
  144OSM    H3G15776   0.666   5.906   2.703
  144OSM    C4F15777   0.672   6.127   2.749
  144OSM    H4F15778   0.647   6.219   2.693
  144OSM    H4G15779   0.774   6.143   2.791
  144OSM    C5F15780   0.593   6.105   2.875
  144OSM    H5F15781   0.663   6.047   2.938
  144OSM    H5G15782   0.496   6.056   2.848
  144OSM    C6F15783   0.575   6.246   2.952
  144OSM    H6F15784   0.521   6.326   2.896
  144OSM    H6G15785   0.681   6.274   2.969
  144OSM    C7F15786   0.502   6.238   3.083
  144OSM    H7F15787   0.401   6.193   3.073
  144OSM    H7G15788   0.492   6.338   3.130
  144OSM    C8F15789   0.566   6.140   3.186
  144OSM    H8F15790   0.585   6.043   3.135
  144OSM    H8G15791   0.485   6.120   3.259
  144OSM    C9F15792   0.690   6.195   3.243
  144OSM    H9F15793   0.769   6.196   3.166
  144OSM   C10F15794   0.700   6.255   3.359
  144OSM   H10F15795   0.791   6.308   3.390
  144OSM   C11F15796   0.595   6.253   3.468
  144OSM   H11F15797   0.500   6.221   3.419
  144OSM   H11G15798   0.583   6.358   3.501
  144OSM   C12F15799   0.639   6.165   3.585
  144OSM   H12F15800   0.729   6.203   3.639
  144OSM   H12G15801   0.658   6.062   3.548
  144OSM   C13F15802   0.535   6.151   3.689
  144OSM   H13F15803   0.549   6.057   3.746
  144OSM   H13G15804   0.431   6.140   3.650
  144OSM   C14F15805   0.541   6.270   3.788
  144OSM   H14F15806   0.485   6.351   3.737
  144OSM   H14G15807   0.649   6.294   3.802
  144OSM   C15F15808   0.485   6.250   3.935
  144OSM   H15F15809   0.383   6.208   3.938
  144OSM   H15G15810   0.471   6.345   3.991
  144OSM   C16F15811   0.584   6.161   4.014
  144OSM   H16F15812   0.688   6.201   4.012
  144OSM   H16G15813   0.583   6.064   3.960
  144OSM   C17F15814   0.545   6.145   4.160
  144OSM   H17F15815   0.579   6.049   4.206
  144OSM   H17G15816   0.435   6.130   4.156
  144OSM   C18F15817   0.577   6.248   4.260
  144OSM   H18F15818   0.687   6.263   4.269
  144OSM   H18G15819   0.526   6.229   4.356
  144OSM   H18H15820   0.548   6.342   4.208
  145SAPE     N15821   1.490   0.695   6.911
  145SAPE   HN115822   1.544   0.645   6.838
  145SAPE   HN215823   1.503   0.643   7.000
  145SAPE   HN315824   1.389   0.681   6.887
  145SAPE   C1215825   1.527   0.843   6.929
  145SAPE  H12A15826   1.638   0.842   6.923
  145SAPE  H12B15827   1.495   0.883   7.027
  145SAPE   C1115828   1.452   0.921   6.818
  145SAPE  H11A15829   1.487   0.890   6.717
  145SAPE  H11B15830   1.482   1.027   6.826
  145SAPE     P15831   1.208   0.836   6.776
  145SAPE   O1315832   1.225   0.696   6.818
  145SAPE   O1415833   1.082   0.909   6.796
  145SAPE   O1215834   1.316   0.927   6.844
  145SAPE   O1115835   1.245   0.853   6.627
  145SAPE    C115836   1.194   0.962   6.546
  145SAPE    HA15837   1.161   1.041   6.617
  145SAPE    HB15838   1.281   1.004   6.491
  145SAPE    C215839   1.096   0.919   6.437
  145SAPE    HS15840   1.004   0.884   6.489
  145SAPE   O2115841   1.152   0.812   6.362
  145SAPE   C2115842   1.078   0.705   6.342
  145SAPE   O2215843   0.987   0.668   6.407
  145SAPE   C2215844   1.138   0.632   6.213
  145SAPE   H2R15845   1.229   0.688   6.184
  145SAPE   H2S15846   1.175   0.529   6.231
  145SAPE    C315847   1.058   1.041   6.351
  145SAPE    HX15848   1.140   1.109   6.320
  145SAPE    HY15849   0.994   1.102   6.419
  145SAPE   O3115850   0.983   1.004   6.233
  145SAPE   C3115851   0.924   1.108   6.167
  145SAPE   O3215852   0.934   1.226   6.197
  145SAPE   C3215853   0.814   1.046   6.079
  145SAPE   H2X15854   0.733   1.122   6.074
  145SAPE   H2Y15855   0.762   0.971   6.142
  145SAPE   C2315856   1.040   0.631   6.099
  145SAPE   H3R15857   1.011   0.735   6.071
  145SAPE   H3S15858   0.946   0.574   6.115
  145SAPE   C2415859   1.100   0.570   5.968
  145SAPE   H4R15860   1.156   0.477   5.991
  145SAPE   H4S15861   1.181   0.639   5.935
  145SAPE   C2515862   1.006   0.539   5.859
  145SAPE   H5R15863   0.919   0.479   5.890
  145SAPE   C2615864   1.008   0.576   5.728
  145SAPE   H6R15865   0.921   0.552   5.666
  145SAPE   C2715866   1.116   0.654   5.654
  145SAPE   H7R15867   1.175   0.707   5.732
  145SAPE   H7S15868   1.065   0.723   5.583
  145SAPE   C2815869   1.226   0.575   5.580
  145SAPE   H8R15870   1.277   0.504   5.647
  145SAPE   C2915871   1.254   0.569   5.453
  145SAPE   H9R15872   1.338   0.506   5.420
  145SAPE  C21015873   1.185   0.640   5.340
  145SAPE  H10R15874   1.256   0.668   5.260
  145SAPE  H10S15875   1.140   0.733   5.380
  145SAPE  C21115876   1.077   0.553   5.273
  145SAPE  H11R15877   1.031   0.483   5.344
  145SAPE  C21215878   1.021   0.558   5.149
  145SAPE  H12R15879   0.942   0.484   5.127
  145SAPE  C21315880   1.058   0.656   5.031
  145SAPE  H13R15881   1.160   0.697   5.046
  145SAPE  H13S15882   0.985   0.739   5.037
  145SAPE  C21415883   1.045   0.591   4.902
  145SAPE  H14R15884   0.940   0.587   4.871
  145SAPE  C21515885   1.151   0.532   4.838
  145SAPE  H15R15886   1.130   0.483   4.741
  145SAPE  C21615887   1.285   0.515   4.896
  145SAPE  H16R15888   1.314   0.408   4.893
  145SAPE  H16S15889   1.282   0.544   5.003
  145SAPE  C21715890   1.403   0.579   4.817
  145SAPE  H17R15891   1.493   0.584   4.882
  145SAPE  H17S15892   1.377   0.684   4.792
  145SAPE  C21815893   1.435   0.506   4.684
  145SAPE  H18R15894   1.511   0.566   4.630
  145SAPE  H18S15895   1.350   0.493   4.614
  145SAPE  C21915896   1.495   0.366   4.703
  145SAPE  H19R15897   1.411   0.299   4.734
  145SAPE  H19S15898   1.577   0.363   4.778
  145SAPE  C22015899   1.547   0.292   4.580
  145SAPE  H20R15900   1.634   0.346   4.537
  145SAPE  H20S15901   1.471   0.298   4.499
  145SAPE  H20T15902   1.568   0.189   4.616
  145SAPE   C3315903   0.862   0.995   5.937
  145SAPE   H3X15904   0.769   0.956   5.891
  145SAPE   H3Y15905   0.935   0.911   5.937
  145SAPE   C3415906   0.917   1.105   5.848
  145SAPE   H4X15907   1.027   1.109   5.834
  145SAPE   H4Y15908   0.881   1.201   5.890
  145SAPE   C3515909   0.856   1.099   5.707
  145SAPE   H5X15910   0.902   1.187   5.658
  145SAPE   H5Y15911   0.746   1.105   5.720
  145SAPE   C3615912   0.905   0.971   5.638
  145SAPE   H6X15913   0.833   0.887   5.649
  145SAPE   H6Y15914   1.005   0.938   5.674
  145SAPE   C3715915   0.925   0.989   5.485
  145SAPE   H7X15916   0.970   0.898   5.441
  145SAPE   H7Y15917   0.999   1.068   5.461
  145SAPE   C3815918   0.796   1.002   5.400
  145SAPE   H8X15919   0.717   1.051   5.460
  145SAPE   H8Y15920   0.764   0.903   5.361
  145SAPE   C3915921   0.810   1.083   5.267
  145SAPE   H9X15922   0.843   1.186   5.293
  145SAPE   H9Y15923   0.715   1.093   5.210
  145SAPE  C31015924   0.908   1.017   5.181
  145SAPE  H10X15925   0.866   0.921   5.145
  145SAPE  H10Y15926   1.009   1.004   5.224
  145SAPE  C31115927   0.944   1.104   5.056
  145SAPE  H11X15928   0.988   1.194   5.105
  145SAPE  H11Y15929   0.859   1.131   4.989
  145SAPE  C31215930   1.055   1.037   4.968
  145SAPE  H12X15931   1.018   0.938   4.934
  145SAPE  H12Y15932   1.142   1.024   5.035
  145SAPE  C31315933   1.098   1.112   4.839
  145SAPE  H13X15934   1.167   1.193   4.869
  145SAPE  H13Y15935   1.004   1.158   4.800
  145SAPE  C31415936   1.159   1.016   4.734
  145SAPE  H14X15937   1.090   0.932   4.714
  145SAPE  H14Y15938   1.252   0.971   4.775
  145SAPE  C31515939   1.194   1.078   4.599
  145SAPE  H15X15940   1.109   1.145   4.572
  145SAPE  H15Y15941   1.214   1.001   4.521
  145SAPE  C31615942   1.321   1.167   4.600
  145SAPE  H16X15943   1.398   1.137   4.675
  145SAPE  H16Y15944   1.278   1.260   4.642
  145SAPE  C31715945   1.380   1.203   4.462
  145SAPE  H17X15946   1.302   1.177   4.387
  145SAPE  H17Y15947   1.473   1.144   4.449
  145SAPE  C31815948   1.426   1.354   4.445
  145SAPE  H18X15949   1.459   1.387   4.344
  145SAPE  H18Y15950   1.502   1.397   4.515
  145SAPE  H18Z15951   1.340   1.414   4.483
  146SAPE     N15952   4.321   6.514   6.799
  146SAPE   HN115953   4.336   6.544   6.897
  146SAPE   HN215954   4.222   6.526   6.770
  146SAPE   HN315955   4.352   6.414   6.805
  146SAPE   C1215956   4.407   6.587   6.699
  146SAPE  H12A15957   4.353   6.582   6.602
  146SAPE  H12B15958   4.507   6.539   6.693
  146SAPE   C1115959   4.422   6.740   6.740
  146SAPE  H11A15960   4.475   6.793   6.658
  146SAPE  H11B15961   4.490   6.750   6.827
  146SAPE     P15962   4.248   0.128   6.743
  146SAPE   O1315963   4.126   0.163   6.824
  146SAPE   O1415964   4.366   0.216   6.760
  146SAPE   O1215965   4.293   6.796   6.763
  146SAPE   O1115966   4.214   0.140   6.596
  146SAPE    C115967   4.169   0.028   6.520
  146SAPE    HA15968   4.168   6.753   6.579
  146SAPE    HB15969   4.062   0.042   6.495
  146SAPE    C215970   4.242   0.008   6.380
  146SAPE    HS15971   4.351   0.005   6.402
  146SAPE   O2115972   4.209   0.115   6.287
  146SAPE   C2115973   4.290   0.217   6.283
  146SAPE   O2215974   4.400   0.226   6.336
  146SAPE   C2215975   4.224   0.325   6.191
  146SAPE   H2R15976   4.228   0.297   6.084
  146SAPE   H2S15977   4.116   0.326   6.216
  146SAPE    C315978   4.190   6.699   6.314
  146SAPE    HX15979   4.082   6.719   6.295
  146SAPE    HY15980   4.190   6.612   6.383
  146SAPE   O3115981   4.246   6.668   6.188
  146SAPE   C3115982   4.361   6.596   6.214
  146SAPE   O3215983   4.395   6.556   6.325
  146SAPE   C3215984   4.451   6.580   6.091
  146SAPE   H2X15985   4.488   6.476   6.077
  146SAPE   H2Y15986   4.547   6.634   6.105
  146SAPE   C2315987   4.294   0.470   6.207
  146SAPE   H3R15988   4.386   0.461   6.147
  146SAPE   H3S15989   4.341   0.486   6.307
  146SAPE   C2415990   4.198   0.581   6.160
  146SAPE   H4R15991   4.113   0.565   6.229
  146SAPE   H4S15992   4.168   0.573   6.054
  146SAPE   C2515993   4.254   0.718   6.182
  146SAPE   H5R15994   4.271   0.745   6.287
  146SAPE   C2615995   4.272   0.815   6.087
  146SAPE   H6R15996   4.316   0.913   6.111
  146SAPE   C2715997   4.237   0.797   5.945
  146SAPE   H7R15998   4.281   0.705   5.903
  146SAPE   H7S15999   4.294   0.881   5.900
  146SAPE   C2816000   4.091   0.802   5.911
  146SAPE   H8R16001   4.041   0.889   5.957
  146SAPE   C2916002   4.012   0.726   5.831
  146SAPE   H9R16003   3.905   0.748   5.816
  146SAPE  C21016004   4.061   0.607   5.745
  146SAPE  H10R16005   3.965   0.562   5.711
  146SAPE  H10S16006   4.107   0.524   5.803
  146SAPE  C21116007   4.150   0.662   5.634
  146SAPE  H11R16008   4.257   0.648   5.654
  146SAPE  C21216009   4.114   0.709   5.510
  146SAPE  H12R16010   4.191   0.731   5.434
  146SAPE  C21316011   3.976   0.713   5.465
  146SAPE  H13R16012   3.969   0.791   5.387
  146SAPE  H13S16013   3.898   0.728   5.543
  146SAPE  C21416014   3.939   0.581   5.404
  146SAPE  H14R16015   3.956   0.493   5.468
  146SAPE  C21516016   3.891   0.559   5.278
  146SAPE  H15R16017   3.853   0.460   5.250
  146SAPE  C21616018   3.862   0.662   5.172
  146SAPE  H16R16019   3.860   0.764   5.217
  146SAPE  H16S16020   3.757   0.664   5.137
  146SAPE  C21716021   3.952   0.662   5.046
  146SAPE  H17R16022   3.934   0.758   4.993
  146SAPE  H17S16023   3.916   0.584   4.976
  146SAPE  C21816024   4.101   0.653   5.064
  146SAPE  H18R16025   4.158   0.656   4.968
  146SAPE  H18S16026   4.121   0.561   5.123
  146SAPE  C21916027   4.160   0.773   5.145
  146SAPE  H19R16028   4.097   0.784   5.236
  146SAPE  H19S16029   4.160   0.862   5.078
  146SAPE  C22016030   4.313   0.751   5.188
  146SAPE  H20R16031   4.367   0.722   5.096
  146SAPE  H20S16032   4.331   0.671   5.263
  146SAPE  H20T16033   4.357   0.848   5.220
  146SAPE   C3316034   4.385   6.638   5.962
  146SAPE   H3X16035   4.380   6.746   5.989
  146SAPE   H3Y16036   4.280   6.603   5.949
  146SAPE   C3416037   4.458   6.629   5.828
  146SAPE   H4X16038   4.555   6.682   5.836
  146SAPE   H4Y16039   4.397   6.694   5.762
  146SAPE   C3516040   4.462   6.489   5.767
  146SAPE   H5X16041   4.359   6.449   5.754
  146SAPE   H5Y16042   4.506   6.419   5.842
  146SAPE   C3616043   4.527   6.493   5.630
  146SAPE   H6X16044   4.607   6.570   5.641
  146SAPE   H6Y16045   4.451   6.531   5.559
  146SAPE   C3716046   4.597   6.358   5.601
  146SAPE   H7X16047   4.508   6.292   5.602
  146SAPE   H7Y16048   4.670   6.324   5.677
  146SAPE   C3816049   4.675   6.360   5.464
  146SAPE   H8X16050   4.764   6.427   5.471
  146SAPE   H8Y16051   4.601   6.406   5.395
  146SAPE   C3916052   4.729   6.226   5.419
  146SAPE   H9X16053   4.652   6.146   5.410
  146SAPE   H9Y16054   4.790   6.186   5.502
  146SAPE  C31016055   4.806   6.232   5.291
  146SAPE  H10X16056   4.875   6.319   5.295
  146SAPE  H10Y16057   4.742   6.250   5.202
  146SAPE  C31116058   4.887   6.111   5.265
  146SAPE  H11X16059   4.819   6.024   5.255
  146SAPE  H11Y16060   4.942   6.088   5.359
  146SAPE  C31216061   4.981   6.145   5.154
  146SAPE  H12X16062   5.036   6.238   5.179
  146SAPE  H12Y16063   4.920   6.175   5.065
  146SAPE  C31316064   5.062   6.020   5.122
  146SAPE  H13X16065   4.985   5.943   5.099
  146SAPE  H13Y16066   5.118   5.975   5.206
  146SAPE  C31416067   5.159   6.036   4.991
  146SAPE  H14X16068   5.222   6.124   5.017
  146SAPE  H14Y16069   5.108   6.059   4.895
  146SAPE  C31516070   5.250   5.914   4.962
  146SAPE  H15X16071   5.319   5.889   5.045
  146SAPE  H15Y16072   5.315   5.948   4.879
  146SAPE  C31616073   5.179   5.780   4.910
  146SAPE  H16X16074   5.126   5.813   4.818
  146SAPE  H16Y16075   5.106   5.743   4.984
  146SAPE  C31716076   5.285   5.671   4.884
  146SAPE  H17X16077   5.222   5.590   4.842
  146SAPE  H17Y16078   5.333   5.639   4.978
  146SAPE  C31816079   5.393   5.706   4.777
  146SAPE  H18X16080   5.454   5.793   4.809
  146SAPE  H18Y16081   5.347   5.725   4.678
  146SAPE  H18Z16082   5.462   5.619   4.774
  147SAPE     N16083   4.995   5.312   6.912
  147SAPE   HN116084   5.033   5.404   6.881
  147SAPE   HN216085   4.903   5.301   6.866
  147SAPE   HN316086   4.993   5.323   7.016
  147SAPE   C1216087   5.084   5.201   6.867
  147SAPE  H12A16088   5.062   5.106   6.920
  147SAPE  H12B16089   5.189   5.225   6.894
  147SAPE   C1116090   5.084   5.187   6.715
  147SAPE  H11A16091   5.153   5.102   6.700
  147SAPE  H11B16092   5.119   5.274   6.654
  147SAPE     P16093   4.850   5.260   6.612
  147SAPE   O1316094   4.735   5.191   6.553
  147SAPE   O1416095   4.824   5.350   6.722
  147SAPE   O1216096   4.958   5.154   6.656
  147SAPE   O1116097   4.933   5.327   6.499
  147SAPE    C116098   4.997   5.258   6.384
  147SAPE    HA16099   5.107   5.269   6.386
  147SAPE    HB16100   4.981   5.148   6.386
  147SAPE    C216101   4.927   5.291   6.253
  147SAPE    HS16102   4.984   5.235   6.177
  147SAPE   O2116103   4.935   5.435   6.232
  147SAPE   C2116104   5.043   5.482   6.159
  147SAPE   O2216105   5.130   5.405   6.122
  147SAPE   C2216106   5.025   5.622   6.128
  147SAPE   H2R16107   4.977   5.677   6.212
  147SAPE   H2S16108   5.122   5.663   6.094
  147SAPE    C316109   4.785   5.236   6.241
  147SAPE    HX16110   4.714   5.297   6.300
  147SAPE    HY16111   4.778   5.133   6.281
  147SAPE   O3116112   4.738   5.228   6.100
  147SAPE   C3116113   4.618   5.177   6.081
  147SAPE   O3216114   4.558   5.114   6.167
  147SAPE   C3216115   4.577   5.196   5.931
  147SAPE   H2X16116   4.470   5.170   5.915
  147SAPE   H2Y16117   4.637   5.122   5.874
  147SAPE   C2316118   4.931   5.648   6.007
  147SAPE   H3R16119   4.919   5.758   6.003
  147SAPE   H3S16120   4.834   5.596   6.024
  147SAPE   C2416121   4.991   5.594   5.869
  147SAPE   H4R16122   5.003   5.484   5.884
  147SAPE   H4S16123   5.093   5.634   5.853
  147SAPE   C2516124   4.893   5.609   5.749
  147SAPE   H5R16125   4.792   5.626   5.787
  147SAPE   C2616126   4.928   5.599   5.616
  147SAPE   H6R16127   4.854   5.612   5.536
  147SAPE   C2716128   5.060   5.575   5.556
  147SAPE   H7R16129   5.059   5.467   5.528
  147SAPE   H7S16130   5.139   5.586   5.633
  147SAPE   C2816131   5.096   5.665   5.440
  147SAPE   H8R16132   5.145   5.758   5.474
  147SAPE   C2916133   5.121   5.615   5.319
  147SAPE   H9R16134   5.134   5.691   5.241
  147SAPE  C21016135   5.083   5.476   5.271
  147SAPE  H10R16136   5.129   5.402   5.340
  147SAPE  H10S16137   5.132   5.459   5.173
  147SAPE  C21116138   4.935   5.441   5.253
  147SAPE  H11R16139   4.880   5.411   5.343
  147SAPE  C21216140   4.865   5.425   5.134
  147SAPE  H12R16141   4.760   5.390   5.135
  147SAPE  C21316142   4.912   5.451   4.993
  147SAPE  H13R16143   4.937   5.350   4.953
  147SAPE  H13S16144   5.014   5.493   4.991
  147SAPE  C21416145   4.815   5.524   4.902
  147SAPE  H14R16146   4.732   5.563   4.963
  147SAPE  C21516147   4.829   5.531   4.770
  147SAPE  H15R16148   4.754   5.574   4.701
  147SAPE  C21616149   4.956   5.482   4.695
  147SAPE  H16R16150   5.018   5.412   4.755
  147SAPE  H16S16151   5.004   5.582   4.689
  147SAPE  C21716152   4.944   5.410   4.560
  147SAPE  H17R16153   4.891   5.479   4.490
  147SAPE  H17S16154   4.886   5.316   4.573
  147SAPE  C21816155   5.081   5.369   4.507
  147SAPE  H18R16156   5.145   5.338   4.592
  147SAPE  H18S16157   5.137   5.452   4.459
  147SAPE  C21916158   5.070   5.254   4.406
  147SAPE  H19R16159   5.009   5.287   4.319
  147SAPE  H19S16160   5.027   5.165   4.456
  147SAPE  C22016161   5.208   5.214   4.349
  147SAPE  H20R16162   5.260   5.305   4.311
  147SAPE  H20S16163   5.191   5.148   4.262
  147SAPE  H20T16164   5.270   5.170   4.430
  147SAPE   C3316165   4.614   5.340   5.880
  147SAPE   H3X16166   4.724   5.356   5.877
  147SAPE   H3Y16167   4.559   5.416   5.939
  147SAPE   C3416168   4.553   5.360   5.736
  147SAPE   H4X16169   4.570   5.467   5.709
  147SAPE   H4Y16170   4.443   5.347   5.728
  147SAPE   C3516171   4.626   5.269   5.639
  147SAPE   H5X16172   4.587   5.166   5.654
  147SAPE   H5Y16173   4.730   5.258   5.675
  147SAPE   C3616174   4.631   5.305   5.491
  147SAPE   H6X16175   4.683   5.221   5.439
  147SAPE   H6Y16176   4.679   5.405   5.485
  147SAPE   C3716177   4.498   5.313   5.417
  147SAPE   H7X16178   4.463   5.414   5.448
  147SAPE   H7Y16179   4.422   5.236   5.443
  147SAPE   C3816180   4.534   5.298   5.263
  147SAPE   H8X16181   4.590   5.203   5.253
  147SAPE   H8Y16182   4.608   5.378   5.243
  147SAPE   C3916183   4.414   5.321   5.173
  147SAPE   H9X16184   4.378   5.419   5.211
  147SAPE   H9Y16185   4.339   5.244   5.199
  147SAPE  C31016186   4.445   5.324   5.024
  147SAPE  H10X16187   4.463   5.220   4.990
  147SAPE  H10Y16188   4.530   5.393   5.006
  147SAPE  C31116189   4.335   5.376   4.943
  147SAPE  H11X16190   4.304   5.470   4.994
  147SAPE  H11Y16191   4.254   5.301   4.952
  147SAPE  C31216192   4.366   5.404   4.798
  147SAPE  H12X16193   4.446   5.481   4.793
  147SAPE  H12Y16194   4.283   5.460   4.750
  147SAPE  C31316195   4.383   5.284   4.702
  147SAPE  H13X16196   4.294   5.219   4.716
  147SAPE  H13Y16197   4.468   5.224   4.741
  147SAPE  C31416198   4.409   5.323   4.559
  147SAPE  H14X16199   4.424   5.232   4.497
  147SAPE  H14Y16200   4.501   5.385   4.549
  147SAPE  C31516201   4.290   5.411   4.503
  147SAPE  H15X16202   4.290   5.512   4.551
  147SAPE  H15Y16203   4.197   5.358   4.531
  147SAPE  C31616204   4.296   5.435   4.350
  147SAPE  H16X16205   4.274   5.335   4.305
  147SAPE  H16Y16206   4.393   5.452   4.301
  147SAPE  C31716207   4.198   5.537   4.295
  147SAPE  H17X16208   4.247   5.636   4.309
  147SAPE  H17Y16209   4.101   5.534   4.349
  147SAPE  C31816210   4.182   5.523   4.143
  147SAPE  H18X16211   4.285   5.536   4.103
  147SAPE  H18Y16212   4.111   5.600   4.107
  147SAPE  H18Z16213   4.149   5.420   4.118
  148SAPE     N16214   2.212   0.405   6.636
  148SAPE   HN116215   2.217   0.509   6.642
  148SAPE   HN216216   2.113   0.374   6.649
  148SAPE   HN316217   2.282   0.371   6.704
  148SAPE   C1216218   2.243   0.355   6.495
  148SAPE  H12A16219   2.344   0.391   6.466
  148SAPE  H12B16220   2.162   0.392   6.429
  148SAPE   C1116221   2.252   0.208   6.490
  148SAPE  H11A16222   2.337   0.183   6.558
  148SAPE  H11B16223   2.281   0.172   6.389
  148SAPE     P16224   2.037   0.054   6.472
  148SAPE   O1316225   2.108   6.784   6.381
  148SAPE   O1416226   1.947   6.811   6.571
  148SAPE   O1216227   2.145   0.137   6.544
  148SAPE   O1116228   1.954   0.161   6.388
  148SAPE    C116229   1.869   0.125   6.282
  148SAPE    HA16230   1.825   0.023   6.284
  148SAPE    HB16231   1.786   0.198   6.266
  148SAPE    C216232   1.947   0.127   6.147
  148SAPE    HS16233   2.017   0.040   6.146
  148SAPE   O2116234   2.009   0.250   6.123
  148SAPE   C2116235   2.136   0.243   6.081
  148SAPE   O2216236   2.214   0.148   6.066
  148SAPE   C2216237   2.197   0.382   6.069
  148SAPE   H2R16238   2.117   0.452   6.037
  148SAPE   H2S16239   2.241   0.415   6.165
  148SAPE    C316240   1.848   0.113   6.032
  148SAPE    HX16241   1.762   0.182   6.033
  148SAPE    HY16242   1.795   0.016   6.042
  148SAPE   O3116243   1.909   0.129   5.904
  148SAPE   C3116244   1.973   0.023   5.860
  148SAPE   O3216245   1.975   6.727   5.909
  148SAPE   C3216246   2.025   0.056   5.718
  148SAPE   H2X16247   2.096   0.141   5.728
  148SAPE   H2Y16248   1.936   0.081   5.657
  148SAPE   C2316249   2.311   0.391   5.965
  148SAPE   H3R16250   2.395   0.331   6.007
  148SAPE   H3S16251   2.356   0.492   5.971
  148SAPE   C2416252   2.270   0.347   5.819
  148SAPE   H4R16253   2.241   0.243   5.845
  148SAPE   H4S16254   2.364   0.355   5.761
  148SAPE   C2516255   2.156   0.424   5.750
  148SAPE   H5R16256   2.073   0.455   5.816
  148SAPE   C2616257   2.166   0.461   5.623
  148SAPE   H6R16258   2.082   0.519   5.583
  148SAPE   C2716259   2.283   0.420   5.525
  148SAPE   H7R16260   2.249   0.408   5.420
  148SAPE   H7S16261   2.307   0.315   5.552
  148SAPE   C2816262   2.406   0.507   5.554
  148SAPE   H8R16263   2.418   0.552   5.654
  148SAPE   C2916264   2.507   0.530   5.461
  148SAPE   H9R16265   2.602   0.567   5.502
  148SAPE  C21016266   2.515   0.484   5.316
  148SAPE  H10R16267   2.451   0.544   5.248
  148SAPE  H10S16268   2.480   0.380   5.301
  148SAPE  C21116269   2.656   0.473   5.268
  148SAPE  H11R16270   2.727   0.433   5.342
  148SAPE  C21216271   2.707   0.532   5.148
  148SAPE  H12R16272   2.815   0.518   5.130
  148SAPE  C21316273   2.631   0.596   5.037
  148SAPE  H13R16274   2.705   0.619   4.956
  148SAPE  H13S16275   2.603   0.699   5.067
  148SAPE  C21416276   2.522   0.506   4.985
  148SAPE  H14R16277   2.469   0.441   5.056
  148SAPE  C21516278   2.494   0.481   4.855
  148SAPE  H15R16279   2.412   0.409   4.841
  148SAPE  C21616280   2.545   0.536   4.727
  148SAPE  H16R16281   2.647   0.580   4.740
  148SAPE  H16S16282   2.476   0.619   4.700
  148SAPE  C21716283   2.546   0.446   4.600
  148SAPE  H17R16284   2.446   0.402   4.578
  148SAPE  H17S16285   2.603   0.355   4.630
  148SAPE  C21816286   2.619   0.504   4.471
  148SAPE  H18R16287   2.619   0.417   4.402
  148SAPE  H18S16288   2.723   0.532   4.495
  148SAPE  C21916289   2.534   0.619   4.411
  148SAPE  H19R16290   2.511   0.688   4.495
  148SAPE  H19S16291   2.433   0.581   4.386
  148SAPE  C22016292   2.589   0.684   4.290
  148SAPE  H20R16293   2.527   0.763   4.244
  148SAPE  H20S16294   2.611   0.604   4.216
  148SAPE  H20T16295   2.687   0.735   4.300
  148SAPE   C3316296   2.088   6.752   5.657
  148SAPE   H3X16297   2.010   6.675   5.636
  148SAPE   H3Y16298   2.152   6.699   5.732
  148SAPE   C3416299   2.166   6.789   5.538
  148SAPE   H4X16300   2.234   6.706   5.509
  148SAPE   H4Y16301   2.225   0.063   5.550
  148SAPE   C3516302   2.072   0.002   5.422
  148SAPE   H5X16303   2.012   0.091   5.453
  148SAPE   H5Y16304   1.998   6.741   5.403
  148SAPE   C3616305   2.145   0.043   5.292
  148SAPE   H6X16306   2.202   6.774   5.257
  148SAPE   H6Y16307   2.220   0.123   5.310
  148SAPE   C3716308   2.056   0.082   5.172
  148SAPE   H7X16309   2.022   0.187   5.187
  148SAPE   H7Y16310   1.967   0.016   5.166
  148SAPE   C3816311   2.126   0.075   5.036
  148SAPE   H8X16312   2.048   0.082   4.957
  148SAPE   H8Y16313   2.162   6.790   5.032
  148SAPE   C3916314   2.239   0.164   5.021
  148SAPE   H9X16315   2.308   0.150   5.106
  148SAPE   H9Y16316   2.218   0.272   5.037
  148SAPE  C31016317   2.316   0.153   4.891
  148SAPE  H10X16318   2.402   0.225   4.893
  148SAPE  H10Y16319   2.245   0.168   4.808
  148SAPE  C31116320   2.391   0.020   4.876
  148SAPE  H11X16321   2.333   6.770   4.812
  148SAPE  H11Y16322   2.413   6.785   4.970
  148SAPE  C31216323   2.510   0.029   4.774
  148SAPE  H12X16324   2.478   0.064   4.674
  148SAPE  H12Y16325   2.537   6.741   4.765
  148SAPE  C31316326   2.635   0.095   4.833
  148SAPE  H13X16327   2.639   0.063   4.939
  148SAPE  H13Y16328   2.618   0.204   4.819
  148SAPE  C31416329   2.765   0.069   4.748
  148SAPE  H14X16330   2.742   0.098   4.643
  148SAPE  H14Y16331   2.774   6.778   4.751
  148SAPE  C31516332   2.883   0.150   4.803
  148SAPE  H15X16333   2.980   0.102   4.779
  148SAPE  H15Y16334   2.876   0.166   4.913
  148SAPE  C31616335   2.887   0.286   4.730
  148SAPE  H16X16336   2.802   0.347   4.766
  148SAPE  H16Y16337   2.892   0.271   4.620
  148SAPE  C31716338   3.015   0.361   4.769
  148SAPE  H17X16339   3.028   0.452   4.706
  148SAPE  H17Y16340   3.101   0.293   4.752
  148SAPE  C31816341   3.029   0.406   4.917
  148SAPE  H18X16342   2.962   0.491   4.943
  148SAPE  H18Y16343   3.130   0.445   4.944
  148SAPE  H18Z16344   3.005   0.320   4.983
  149SAPE     N16345   2.423   1.967   6.398
  149SAPE   HN116346   2.458   1.890   6.458
  149SAPE   HN216347   2.410   1.930   6.301
  149SAPE   HN316348   2.490   2.044   6.418
  149SAPE   C1216349   2.287   2.018   6.437
  149SAPE  H12A16350   2.260   2.096   6.362
  149SAPE  H12B16351   2.292   2.062   6.539
  149SAPE   C1116352   2.174   1.912   6.434
  149SAPE  H11A16353   2.189   1.851   6.342
  149SAPE  H11B16354   2.071   1.954   6.428
  149SAPE     P16355   2.114   1.846   6.677
  149SAPE   O1316356   2.115   1.723   6.760
  149SAPE   O1416357   2.178   1.972   6.732
  149SAPE   O1216358   2.184   1.818   6.537
  149SAPE   O1116359   1.968   1.881   6.630
  149SAPE    C116360   1.860   1.780   6.633
  149SAPE    HA16361   1.892   1.685   6.681
  149SAPE    HB16362   1.777   1.819   6.696
  149SAPE    C216363   1.809   1.747   6.484
  149SAPE    HS16364   1.737   1.663   6.482
  149SAPE   O2116365   1.919   1.713   6.392
  149SAPE   C2116366   1.972   1.597   6.427
  149SAPE   O2216367   1.933   1.527   6.518
  149SAPE   C2216368   2.090   1.563   6.338
  149SAPE   H2R16369   2.181   1.610   6.381
  149SAPE   H2S16370   2.101   1.454   6.357
  149SAPE    C316371   1.735   1.869   6.427
  149SAPE    HX16372   1.800   1.958   6.414
  149SAPE    HY16373   1.653   1.894   6.497
  149SAPE   O3116374   1.662   1.832   6.307
  149SAPE   C3116375   1.701   1.877   6.194
  149SAPE   O3216376   1.800   1.949   6.175
  149SAPE   C3216377   1.601   1.820   6.085
  149SAPE   H2X16378   1.522   1.895   6.061
  149SAPE   H2Y16379   1.560   1.722   6.118
  149SAPE   C2316380   2.064   1.608   6.191
  149SAPE   H3R16381   2.145   1.565   6.128
  149SAPE   H3S16382   2.086   1.716   6.189
  149SAPE   C2416383   1.928   1.573   6.131
  149SAPE   H4R16384   1.939   1.612   6.027
  149SAPE   H4S16385   1.849   1.637   6.177
  149SAPE   C2516386   1.892   1.430   6.142
  149SAPE   H5R16387   1.841   1.401   6.235
  149SAPE   C2616388   1.932   1.342   6.056
  149SAPE   H6R16389   1.895   1.242   6.080
  149SAPE   C2716390   2.020   1.358   5.930
  149SAPE   H7R16391   2.059   1.264   5.888
  149SAPE   H7S16392   2.116   1.411   5.950
  149SAPE   C2816393   1.945   1.431   5.817
  149SAPE   H8R16394   1.846   1.466   5.850
  149SAPE   C2916395   1.992   1.451   5.693
  149SAPE   H9R16396   1.927   1.500   5.618
  149SAPE  C21016397   2.126   1.404   5.647
  149SAPE  H10R16398   2.194   1.363   5.725
  149SAPE  H10S16399   2.178   1.496   5.613
  149SAPE  C21116400   2.117   1.303   5.536
  149SAPE  H11R16401   2.087   1.205   5.575
  149SAPE  C21216402   2.140   1.324   5.405
  149SAPE  H12R16403   2.135   1.238   5.336
  149SAPE  C21316404   2.184   1.453   5.339
  149SAPE  H13R16405   2.209   1.528   5.417
  149SAPE  H13S16406   2.103   1.502   5.280
  149SAPE  C21416407   2.304   1.439   5.252
  149SAPE  H14R16408   2.389   1.380   5.290
  149SAPE  C21516409   2.325   1.486   5.127
  149SAPE  H15R16410   2.424   1.469   5.083
  149SAPE  C21616411   2.228   1.567   5.051
  149SAPE  H16R16412   2.222   1.675   5.077
  149SAPE  H16S16413   2.126   1.524   5.064
  149SAPE  C21716414   2.255   1.549   4.899
  149SAPE  H17R16415   2.353   1.587   4.864
  149SAPE  H17S16416   2.181   1.596   4.831
  149SAPE  C21816417   2.232   1.401   4.860
  149SAPE  H18R16418   2.141   1.349   4.897
  149SAPE  H18S16419   2.321   1.346   4.899
  149SAPE  C21916420   2.224   1.375   4.706
  149SAPE  H19R16421   2.125   1.413   4.672
  149SAPE  H19S16422   2.211   1.265   4.691
  149SAPE  C22016423   2.334   1.445   4.627
  149SAPE  H20R16424   2.332   1.556   4.632
  149SAPE  H20S16425   2.331   1.429   4.517
  149SAPE  H20T16426   2.434   1.407   4.658
  149SAPE   C3316427   1.680   1.794   5.955
  149SAPE   H3X16428   1.781   1.751   5.974
  149SAPE   H3Y16429   1.699   1.892   5.907
  149SAPE   C3416430   1.614   1.700   5.864
  149SAPE   H4X16431   1.504   1.715   5.870
  149SAPE   H4Y16432   1.636   1.595   5.894
  149SAPE   C3516433   1.675   1.716   5.718
  149SAPE   H5X16434   1.786   1.713   5.720
  149SAPE   H5Y16435   1.651   1.818   5.680
  149SAPE   C3616436   1.635   1.609   5.621
  149SAPE   H6X16437   1.526   1.591   5.623
  149SAPE   H6Y16438   1.679   1.509   5.639
  149SAPE   C3716439   1.671   1.639   5.473
  149SAPE   H7X16440   1.777   1.673   5.474
  149SAPE   H7Y16441   1.613   1.731   5.450
  149SAPE   C3816442   1.661   1.517   5.377
  149SAPE   H8X16443   1.557   1.500   5.342
  149SAPE   H8Y16444   1.685   1.430   5.442
  149SAPE   C3916445   1.762   1.515   5.265
  149SAPE   H9X16446   1.757   1.414   5.219
  149SAPE   H9Y16447   1.870   1.524   5.289
  149SAPE  C31016448   1.727   1.626   5.159
  149SAPE  H10X16449   1.752   1.725   5.203
  149SAPE  H10Y16450   1.631   1.624   5.104
  149SAPE  C31116451   1.825   1.613   5.044
  149SAPE  H11X16452   1.839   1.508   5.011
  149SAPE  H11Y16453   1.928   1.637   5.078
  149SAPE  C31216454   1.797   1.696   4.912
  149SAPE  H12X16455   1.800   1.805   4.934
  149SAPE  H12Y16456   1.691   1.671   4.890
  149SAPE  C31316457   1.895   1.660   4.808
  149SAPE  H13X16458   1.925   1.553   4.815
  149SAPE  H13Y16459   1.995   1.707   4.822
  149SAPE  C31416460   1.843   1.685   4.669
  149SAPE  H14X16461   1.804   1.789   4.671
  149SAPE  H14Y16462   1.761   1.612   4.652
  149SAPE  C31516463   1.954   1.675   4.565
  149SAPE  H15X16464   1.986   1.569   4.557
  149SAPE  H15Y16465   2.032   1.744   4.602
  149SAPE  C31616466   1.910   1.723   4.434
  149SAPE  H16X16467   1.994   1.729   4.362
  149SAPE  H16Y16468   1.868   1.825   4.454
  149SAPE  C31716469   1.807   1.627   4.361
  149SAPE  H17X16470   1.717   1.619   4.426
  149SAPE  H17Y16471   1.859   1.529   4.363
  149SAPE  C31816472   1.768   1.679   4.226
  149SAPE  H18X16473   1.862   1.684   4.168
  149SAPE  H18Y16474   1.719   1.779   4.234
  149SAPE  H18Z16475   1.696   1.618   4.166
  150SAPE     N16476   4.689   3.041   6.323
  150SAPE   HN116477   4.700   3.128   6.268
  150SAPE   HN216478   4.628   3.064   6.404
  150SAPE   HN316479   4.781   3.008   6.357
  150SAPE   C1216480   4.618   2.932   6.245
  150SAPE  H12A16481   4.557   2.976   6.163
  150SAPE  H12B16482   4.553   2.882   6.320
  150SAPE   C1116483   4.720   2.832   6.189
  150SAPE  H11A16484   4.774   2.880   6.104
  150SAPE  H11B16485   4.667   2.742   6.151
  150SAPE     P16486   4.949   2.713   6.240
  150SAPE   O1316487   5.050   2.750   6.345
  150SAPE   O1416488   4.903   2.569   6.222
  150SAPE   O1216489   4.813   2.797   6.291
  150SAPE   O1116490   4.990   2.769   6.107
  150SAPE    C116491   5.063   2.675   6.016
  150SAPE    HA16492   5.127   2.735   5.948
  150SAPE    HB16493   5.131   2.606   6.070
  150SAPE    C216494   4.965   2.584   5.926
  150SAPE    HS16495   4.891   2.542   5.998
  150SAPE   O2116496   5.042   2.479   5.856
  150SAPE   C2116497   4.973   2.366   5.859
  150SAPE   O2216498   4.857   2.351   5.890
  150SAPE   C2216499   5.061   2.254   5.816
  150SAPE   H2R16500   5.133   2.291   5.739
  150SAPE   H2S16501   5.118   2.207   5.898
  150SAPE    C316502   4.880   2.672   5.834
  150SAPE    HX16503   4.952   2.727   5.770
  150SAPE    HY16504   4.818   2.757   5.870
  150SAPE   O3116505   4.804   2.595   5.739
  150SAPE   C3116506   4.677   2.569   5.765
  150SAPE   O3216507   4.611   2.599   5.865
  150SAPE   C3216508   4.628   2.489   5.644
  150SAPE   H2X16509   4.661   2.384   5.657
  150SAPE   H2Y16510   4.658   2.535   5.547
  150SAPE   C2316511   4.975   2.146   5.737
  150SAPE   H3R16512   4.895   2.103   5.801
  150SAPE   H3S16513   5.047   2.063   5.719
  150SAPE   C2416514   4.919   2.193   5.598
  150SAPE   H4R16515   4.842   2.271   5.613
  150SAPE   H4S16516   4.873   2.102   5.553
  150SAPE   C2516517   5.029   2.232   5.509
  150SAPE   H5R16518   5.099   2.147   5.499
  150SAPE   C2616519   5.049   2.354   5.448
  150SAPE   H6R16520   5.149   2.365   5.402
  150SAPE   C2716521   4.958   2.475   5.456
  150SAPE   H7R16522   5.010   2.570   5.429
  150SAPE   H7S16523   4.933   2.476   5.564
  150SAPE   C2816524   4.837   2.456   5.373
  150SAPE   H8R16525   4.759   2.390   5.415
  150SAPE   C2916526   4.795   2.521   5.258
  150SAPE   H9R16527   4.694   2.495   5.223
  150SAPE  C21016528   4.862   2.637   5.189
  150SAPE  H10R16529   4.925   2.600   5.105
  150SAPE  H10S16530   4.938   2.679   5.257
  150SAPE  C21116531   4.776   2.748   5.145
  150SAPE  H11R16532   4.763   2.822   5.224
  150SAPE  C21216533   4.748   2.789   5.019
  150SAPE  H12R16534   4.704   2.889   5.006
  150SAPE  C21316535   4.786   2.714   4.891
  150SAPE  H13R16536   4.896   2.702   4.888
  150SAPE  H13S16537   4.760   2.769   4.798
  150SAPE  C21416538   4.719   2.579   4.879
  150SAPE  H14R16539   4.671   2.536   4.969
  150SAPE  C21516540   4.703   2.512   4.767
  150SAPE  H15R16541   4.650   2.416   4.765
  150SAPE  C21616542   4.763   2.555   4.632
  150SAPE  H16R16543   4.824   2.474   4.586
  150SAPE  H16S16544   4.828   2.645   4.627
  150SAPE  C21716545   4.651   2.577   4.530
  150SAPE  H17R16546   4.561   2.610   4.586
  150SAPE  H17S16547   4.627   2.480   4.482
  150SAPE  C21816548   4.687   2.668   4.411
  150SAPE  H18R16549   4.791   2.644   4.379
  150SAPE  H18S16550   4.688   2.771   4.452
  150SAPE  C21916551   4.584   2.654   4.297
  150SAPE  H19R16552   4.487   2.688   4.339
  150SAPE  H19S16553   4.580   2.547   4.269
  150SAPE  C22016554   4.617   2.740   4.186
  150SAPE  H20R16555   4.585   2.845   4.204
  150SAPE  H20S16556   4.568   2.693   4.098
  150SAPE  H20T16557   4.724   2.748   4.158
  150SAPE   C3316558   4.471   2.484   5.647
  150SAPE   H3X16559   4.414   2.578   5.665
  150SAPE   H3Y16560   4.443   2.425   5.737
  150SAPE   C3416561   4.422   2.426   5.514
  150SAPE   H4X16562   4.318   2.393   5.536
  150SAPE   H4Y16563   4.481   2.338   5.482
  150SAPE   C3516564   4.413   2.524   5.398
  150SAPE   H5X16565   4.515   2.567   5.389
  150SAPE   H5Y16566   4.332   2.591   5.434
  150SAPE   C3616567   4.371   2.458   5.266
  150SAPE   H6X16568   4.267   2.419   5.275
  150SAPE   H6Y16569   4.434   2.371   5.240
  150SAPE   C3716570   4.380   2.552   5.149
  150SAPE   H7X16571   4.486   2.585   5.156
  150SAPE   H7Y16572   4.314   2.640   5.166
  150SAPE   C3816573   4.345   2.477   5.016
  150SAPE   H8X16574   4.244   2.431   5.017
  150SAPE   H8Y16575   4.422   2.401   4.993
  150SAPE   C3916576   4.350   2.586   4.903
  150SAPE   H9X16577   4.454   2.624   4.892
  150SAPE   H9Y16578   4.278   2.669   4.918
  150SAPE  C31016579   4.313   2.539   4.764
  150SAPE  H10X16580   4.219   2.479   4.767
  150SAPE  H10Y16581   4.398   2.482   4.720
  150SAPE  C31116582   4.295   2.657   4.674
  150SAPE  H11X16583   4.394   2.708   4.671
  150SAPE  H11Y16584   4.217   2.727   4.709
  150SAPE  C31216585   4.245   2.614   4.535
  150SAPE  H12X16586   4.149   2.558   4.543
  150SAPE  H12Y16587   4.319   2.546   4.488
  150SAPE  C31316588   4.224   2.741   4.444
  150SAPE  H13X16589   4.323   2.790   4.451
  150SAPE  H13Y16590   4.143   2.804   4.489
  150SAPE  C31416591   4.202   2.705   4.290
  150SAPE  H14X16592   4.108   2.646   4.286
  150SAPE  H14Y16593   4.295   2.646   4.275
  150SAPE  C31516594   4.211   2.835   4.208
  150SAPE  H15X16595   4.288   2.905   4.247
  150SAPE  H15Y16596   4.116   2.893   4.216
  150SAPE  C31616597   4.234   2.812   4.059
  150SAPE  H16X16598   4.157   2.746   4.014
  150SAPE  H16Y16599   4.331   2.757   4.055
  150SAPE  C31716600   4.256   2.948   3.984
  150SAPE  H17X16601   4.299   3.027   4.048
  150SAPE  H17Y16602   4.154   2.986   3.967
  150SAPE  C31816603   4.316   2.918   3.849
  150SAPE  H18X16604   4.290   2.981   3.761
  150SAPE  H18Y16605   4.282   2.819   3.813
  150SAPE  H18Z16606   4.427   2.927   3.851
  151SAPE     N16607   4.802   6.510   7.001
  151SAPE   HN116608   4.863   6.440   6.954
  151SAPE   HN216609   4.865   6.577   7.051
  151SAPE   HN316610   4.744   6.463   7.074
  151SAPE   C1216611   4.715   6.590   6.912
  151SAPE  H12A16612   4.676   6.680   6.964
  151SAPE  H12B16613   4.630   6.526   6.881
  151SAPE   C1116614   4.793   6.634   6.792
  151SAPE  H11A16615   4.729   6.690   6.721
  151SAPE  H11B16616   4.826   6.548   6.730
  151SAPE     P16617   4.899   0.044   6.843
  151SAPE   O1316618   4.755   0.078   6.868
  151SAPE   O1416619   5.000   0.085   6.950
  151SAPE   O1216620   4.910   6.710   6.827
  151SAPE   O1116621   4.940   0.099   6.705
  151SAPE    C116622   5.077   0.105   6.657
  151SAPE    HA16623   5.115   0.209   6.663
  151SAPE    HB16624   5.142   0.045   6.725
  151SAPE    C216625   5.095   0.062   6.512
  151SAPE    HS16626   5.195   0.088   6.470
  151SAPE   O2116627   4.990   0.126   6.436
  151SAPE   C2116628   5.028   0.152   6.310
  151SAPE   O2216629   5.135   0.148   6.259
  151SAPE   C2216630   4.906   0.200   6.237
  151SAPE   H2R16631   4.823   0.136   6.273
  151SAPE   H2S16632   4.902   0.304   6.275
  151SAPE    C316633   5.083   6.724   6.494
  151SAPE    HX16634   4.997   6.686   6.553
  151SAPE    HY16635   5.178   6.676   6.528
  151SAPE   O3116636   5.084   6.679   6.355
  151SAPE   C3116637   4.964   6.639   6.306
  151SAPE   O3216638   4.861   6.631   6.369
  151SAPE   C3216639   4.980   6.599   6.163
  151SAPE   H2X16640   5.003   6.490   6.162
  151SAPE   H2Y16641   5.066   6.653   6.117
  151SAPE   C2316642   4.918   0.209   6.081
  151SAPE   H3R16643   4.948   0.112   6.036
  151SAPE   H3S16644   4.998   0.283   6.060
  151SAPE   C2416645   4.789   0.269   6.018
  151SAPE   H4R16646   4.807   0.285   5.910
  151SAPE   H4S16647   4.770   0.373   6.051
  151SAPE   C2516648   4.652   0.201   6.035
  151SAPE   H5R16649   4.633   0.147   6.129
  151SAPE   C2616650   4.565   0.188   5.936
  151SAPE   H6R16651   4.467   0.139   5.948
  151SAPE   C2716652   4.574   0.242   5.799
  151SAPE   H7R16653   4.591   0.161   5.725
  151SAPE   H7S16654   4.666   0.302   5.788
  151SAPE   C2816655   4.453   0.326   5.767
  151SAPE   H8R16656   4.390   0.350   5.854
  151SAPE   C2916657   4.408   0.354   5.643
  151SAPE   H9R16658   4.317   0.417   5.639
  151SAPE  C21016659   4.478   0.311   5.517
  151SAPE  H10R16660   4.585   0.295   5.544
  151SAPE  H10S16661   4.482   0.401   5.452
  151SAPE  C21116662   4.407   0.210   5.428
  151SAPE  H11R16663   4.416   0.107   5.466
  151SAPE  C21216664   4.357   0.230   5.305
  151SAPE  H12R16665   4.299   0.147   5.262
  151SAPE  C21316666   4.334   0.362   5.236
  151SAPE  H13R16667   4.411   0.436   5.267
  151SAPE  H13S16668   4.234   0.404   5.260
  151SAPE  C21416669   4.345   0.356   5.087
  151SAPE  H14R16670   4.250   0.360   5.033
  151SAPE  C21516671   4.457   0.372   5.011
  151SAPE  H15R16672   4.442   0.375   4.903
  151SAPE  C21616673   4.602   0.381   5.065
  151SAPE  H16R16674   4.602   0.331   5.164
  151SAPE  H16S16675   4.626   0.484   5.100
  151SAPE  C21716676   4.712   0.334   4.973
  151SAPE  H17R16677   4.724   0.387   4.876
  151SAPE  H17S16678   4.704   0.227   4.946
  151SAPE  C21816679   4.850   0.363   5.049
  151SAPE  H18R16680   4.847   0.306   5.144
  151SAPE  H18S16681   4.862   0.471   5.071
  151SAPE  C21916682   4.976   0.326   4.966
  151SAPE  H19R16683   4.993   0.411   4.896
  151SAPE  H19S16684   4.975   0.240   4.895
  151SAPE  C22016685   5.106   0.306   5.054
  151SAPE  H20R16686   5.141   0.403   5.095
  151SAPE  H20S16687   5.191   0.273   4.991
  151SAPE  H20T16688   5.093   0.238   5.140
  151SAPE   C3316689   4.849   6.625   6.079
  151SAPE   H3X16690   4.818   6.731   6.063
  151SAPE   H3Y16691   4.767   6.574   6.133
  151SAPE   C3416692   4.854   6.567   5.942
  151SAPE   H4X16693   4.749   6.557   5.908
  151SAPE   H4Y16694   4.891   6.463   5.954
  151SAPE   C3516695   4.942   6.646   5.840
  151SAPE   H5X16696   5.043   6.656   5.885
  151SAPE   H5Y16697   4.909   6.748   5.812
  151SAPE   C3616698   4.958   6.567   5.709
  151SAPE   H6X16699   4.858   6.541   5.667
  151SAPE   H6Y16700   5.002   6.468   5.734
  151SAPE   C3716701   5.036   6.651   5.604
  151SAPE   H7X16702   5.114   6.692   5.671
  151SAPE   H7Y16703   4.973   6.728   5.554
  151SAPE   C3816704   5.104   6.576   5.483
  151SAPE   H8X16705   5.017   6.538   5.425
  151SAPE   H8Y16706   5.166   6.492   5.520
  151SAPE   C3916707   5.188   6.675   5.398
  151SAPE   H9X16708   5.277   6.696   5.462
  151SAPE   H9Y16709   5.133   6.767   5.372
  151SAPE  C31016710   5.226   6.603   5.266
  151SAPE  H10X16711   5.270   6.503   5.284
  151SAPE  H10Y16712   5.300   6.665   5.211
  151SAPE  C31116713   5.102   6.572   5.176
  151SAPE  H11X16714   5.052   6.668   5.152
  151SAPE  H11Y16715   5.032   6.503   5.228
  151SAPE  C31216716   5.145   6.509   5.041
  151SAPE  H12X16717   5.195   6.411   5.057
  151SAPE  H12Y16718   5.219   6.576   4.992
  151SAPE  C31316719   5.039   6.484   4.933
  151SAPE  H13X16720   4.946   6.526   4.976
  151SAPE  H13Y16721   5.022   6.374   4.932
  151SAPE  C31416722   5.066   6.546   4.797
  151SAPE  H14X16723   5.137   6.481   4.742
  151SAPE  H14Y16724   5.116   6.645   4.809
  151SAPE  C31516725   4.941   6.560   4.720
  151SAPE  H15X16726   4.870   6.601   4.795
  151SAPE  H15Y16727   4.893   6.464   4.694
  151SAPE  C31616728   4.945   6.649   4.594
  151SAPE  H16X16729   4.867   6.610   4.526
  151SAPE  H16Y16730   5.047   6.626   4.555
  151SAPE  C31716731   4.935   6.795   4.627
  151SAPE  H17X16732   5.006   0.018   4.701
  151SAPE  H17Y16733   4.833   6.813   4.667
  151SAPE  C31816734   4.950   0.067   4.509
  151SAPE  H18X16735   4.914   0.170   4.533
  151SAPE  H18Y16736   4.887   0.034   4.424
  151SAPE  H18Z16737   5.055   0.083   4.477
  152SAPE     N16738   0.195   2.739   6.743
  152SAPE   HN116739   0.193   2.822   6.805
  152SAPE   HN216740   0.199   2.655   6.804
  152SAPE   HN316741   0.284   2.739   6.690
  152SAPE   C1216742   0.085   2.733   6.639
  152SAPE  H12A16743   0.128   2.785   6.550
  152SAPE  H12B16744   6.817   2.789   6.676
  152SAPE   C1116745   0.055   2.595   6.608
  152SAPE  H11A16746   0.123   2.553   6.531
  152SAPE  H11B16747   6.771   2.587   6.568
  152SAPE     P16748   0.052   2.359   6.722
  152SAPE   O1316749   0.194   2.313   6.731
  152SAPE   O1416750   6.785   2.308   6.832
  152SAPE   O1216751   0.052   2.519   6.725
  152SAPE   O1116752   6.813   2.330   6.576
  152SAPE    C116753   6.678   2.274   6.579
  152SAPE    HA16754   6.683   2.182   6.640
  152SAPE    HB16755   6.605   2.347   6.619
  152SAPE    C216756   6.621   2.234   6.433
  152SAPE    HS16757   6.528   2.176   6.451
  152SAPE   O2116758   6.707   2.146   6.362
  152SAPE   C2116759   6.720   2.027   6.419
  152SAPE   O2216760   6.654   1.989   6.517
  152SAPE   C2216761   0.006   1.950   6.334
  152SAPE   H2R16762   0.006   1.978   6.227
  152SAPE   H2S16763   0.110   1.961   6.374
  152SAPE    C316764   6.593   2.361   6.344
  152SAPE    HX16765   6.669   2.440   6.358
  152SAPE    HY16766   6.504   2.417   6.381
  152SAPE   O3116767   6.597   2.327   6.203
  152SAPE   C3116768   6.481   2.283   6.159
  152SAPE   O3216769   6.380   2.274   6.225
  152SAPE   C3216770   6.495   2.235   6.021
  152SAPE   H2X16771   6.474   2.315   5.947
  152SAPE   H2Y16772   6.427   2.148   6.007
  152SAPE   C2316773   6.818   1.797   6.354
  152SAPE   H3R16774   6.723   1.770   6.303
  152SAPE   H3S16775   6.814   1.779   6.463
  152SAPE   C2416776   0.119   1.731   6.285
  152SAPE   H4R16777   0.213   1.768   6.332
  152SAPE   H4S16778   0.131   1.749   6.176
  152SAPE   C2516779   0.111   1.582   6.310
  152SAPE   H5R16780   0.116   1.552   6.415
  152SAPE   C2616781   0.101   1.484   6.220
  152SAPE   H6R16782   0.089   1.383   6.263
  152SAPE   C2716783   0.100   1.484   6.068
  152SAPE   H7R16784   0.003   1.536   6.049
  152SAPE   H7S16785   0.074   1.383   6.029
  152SAPE   C2816786   0.216   1.551   5.995
  152SAPE   H8R16787   0.311   1.560   6.051
  152SAPE   C2916788   0.215   1.599   5.876
  152SAPE   H9R16789   0.309   1.638   5.834
  152SAPE  C21016790   0.092   1.593   5.790
  152SAPE  H10R16791   6.820   1.632   5.838
  152SAPE  H10S16792   0.066   1.487   5.768
  152SAPE  C21116793   0.105   1.675   5.666
  152SAPE  H11R16794   0.086   1.782   5.680
  152SAPE  C21216795   0.144   1.634   5.541
  152SAPE  H12R16796   0.143   1.704   5.457
  152SAPE  C21316797   0.187   1.497   5.485
  152SAPE  H13R16798   0.177   1.417   5.561
  152SAPE  H13S16799   0.295   1.506   5.463
  152SAPE  C21416800   0.105   1.438   5.375
  152SAPE  H14R16801   0.070   1.335   5.388
  152SAPE  C21516802   0.094   1.488   5.247
  152SAPE  H15R16803   0.040   1.426   5.173
  152SAPE  C21616804   0.162   1.619   5.191
  152SAPE  H16R16805   0.270   1.629   5.213
  152SAPE  H16S16806   0.117   1.706   5.244
  152SAPE  C21716807   0.132   1.631   5.042
  152SAPE  H17R16808   0.184   1.721   5.002
  152SAPE  H17S16809   0.026   1.622   5.013
  152SAPE  C21816810   0.194   1.518   4.962
  152SAPE  H18R16811   0.153   1.419   4.992
  152SAPE  H18S16812   0.302   1.517   4.990
  152SAPE  C21916813   0.179   1.535   4.813
  152SAPE  H19R16814   0.255   1.612   4.786
  152SAPE  H19S16815   0.079   1.581   4.794
  152SAPE  C22016816   0.205   1.409   4.729
  152SAPE  H20R16817   0.198   1.436   4.621
  152SAPE  H20S16818   0.130   1.335   4.762
  152SAPE  H20T16819   0.305   1.367   4.753
  152SAPE   C3316820   6.642   2.176   5.985
  152SAPE   H3X16821   6.647   2.081   6.043
  152SAPE   H3Y16822   6.721   2.247   6.018
  152SAPE   C3416823   6.675   2.151   5.834
  152SAPE   H4X16824   6.767   2.091   5.848
  152SAPE   H4Y16825   6.702   2.251   5.793
  152SAPE   C3516826   6.572   2.071   5.752
  152SAPE   H5X16827   6.468   2.105   5.774
  152SAPE   H5Y16828   6.568   1.968   5.792
  152SAPE   C3616829   6.609   2.072   5.604
  152SAPE   H6X16830   6.623   2.174   5.564
  152SAPE   H6Y16831   6.535   2.016   5.543
  152SAPE   C3716832   6.739   1.993   5.573
  152SAPE   H7X16833   6.724   1.889   5.608
  152SAPE   H7Y16834   6.819   2.028   5.642
  152SAPE   C3816835   6.792   2.010   5.422
  152SAPE   H8X16836   0.063   1.947   5.421
  152SAPE   H8Y16837   6.813   2.117   5.398
  152SAPE   C3916838   6.697   1.948   5.318
  152SAPE   H9X16839   6.590   1.956   5.347
  152SAPE   H9Y16840   6.706   1.838   5.330
  152SAPE  C31016841   6.724   1.987   5.170
  152SAPE  H10X16842   6.806   1.920   5.136
  152SAPE  H10Y16843   6.757   2.093   5.166
  152SAPE  C31116844   6.611   1.977   5.064
  152SAPE  H11X16845   6.574   1.872   5.054
  152SAPE  H11Y16846   6.643   2.016   4.965
  152SAPE  C31216847   6.496   2.084   5.096
  152SAPE  H12X16848   6.533   2.187   5.117
  152SAPE  H12Y16849   6.450   2.067   5.195
  152SAPE  C31316850   6.375   2.073   5.004
  152SAPE  H13X16851   6.303   1.994   5.035
  152SAPE  H13Y16852   6.410   2.064   4.899
  152SAPE  C31416853   6.283   2.204   5.009
  152SAPE  H14X16854   6.346   2.293   4.988
  152SAPE  H14Y16855   6.258   2.211   5.117
  152SAPE  C31516856   6.157   2.197   4.923
  152SAPE  H15X16857   6.099   2.286   4.955
  152SAPE  H15Y16858   6.093   2.116   4.962
  152SAPE  C31616859   6.183   2.191   4.771
  152SAPE  H16X16860   6.230   2.090   4.767
  152SAPE  H16Y16861   6.260   2.268   4.750
  152SAPE  C31716862   6.062   2.208   4.680
  152SAPE  H17X16863   6.082   2.206   4.571
  152SAPE  H17Y16864   6.022   2.308   4.706
  152SAPE  C31816865   5.948   2.110   4.720
  152SAPE  H18X16866   5.905   2.126   4.821
  152SAPE  H18Y16867   5.985   2.005   4.716
  152SAPE  H18Z16868   5.856   2.114   4.659
  153SAPE     N16869   6.389   1.527   6.873
  153SAPE   HN116870   6.468   1.475   6.916
  153SAPE   HN216871   6.401   1.629   6.892
  153SAPE   HN316872   6.299   1.506   6.921
  153SAPE   C1216873   6.384   1.508   6.724
  153SAPE  H12A16874   6.490   1.503   6.689
  153SAPE  H12B16875   6.349   1.608   6.690
  153SAPE   C1116876   6.290   1.395   6.673
  153SAPE  H11A16877   6.338   1.296   6.688
  153SAPE  H11B16878   6.286   1.407   6.563
  153SAPE     P16879   6.038   1.428   6.658
  153SAPE   O1316880   5.920   1.397   6.736
  153SAPE   O1416881   6.051   1.569   6.612
  153SAPE   O1216882   6.169   1.402   6.742
  153SAPE   O1116883   6.070   1.329   6.545
  153SAPE    C116884   6.074   1.188   6.549
  153SAPE    HA16885   6.113   1.156   6.648
  153SAPE    HB16886   5.971   1.145   6.554
  153SAPE    C216887   6.157   1.128   6.438
  153SAPE    HS16888   6.263   1.162   6.437
  153SAPE   O2116889   6.098   1.163   6.318
  153SAPE   C2116890   6.138   1.275   6.265
  153SAPE   O2216891   6.236   1.343   6.310
  153SAPE   C2216892   6.057   1.320   6.143
  153SAPE   H2R16893   6.092   1.258   6.057
  153SAPE   H2S16894   5.952   1.297   6.170
  153SAPE    C316895   6.155   0.979   6.460
  153SAPE    HX16896   6.058   0.925   6.464
  153SAPE    HY16897   6.213   0.959   6.553
  153SAPE   O3116898   6.214   0.915   6.343
  153SAPE   C3116899   6.340   0.902   6.338
  153SAPE   O3216900   6.426   0.933   6.421
  153SAPE   C3216901   6.372   0.862   6.197
  153SAPE   H2X16902   6.405   0.951   6.139
  153SAPE   H2Y16903   6.287   0.818   6.140
  153SAPE   C2316904   6.067   1.470   6.120
  153SAPE   H3R16905   6.024   1.499   6.022
  153SAPE   H3S16906   6.170   1.508   6.136
  153SAPE   C2416907   5.973   1.558   6.211
  153SAPE   H4R16908   6.021   1.558   6.311
  153SAPE   H4S16909   5.871   1.514   6.218
  153SAPE   C2516910   5.966   1.704   6.182
  153SAPE   H5R16911   5.993   1.769   6.266
  153SAPE   C2616912   5.907   1.763   6.067
  153SAPE   H6R16913   5.910   1.872   6.056
  153SAPE   C2716914   5.841   1.700   5.950
  153SAPE   H7R16915   5.835   1.590   5.962
  153SAPE   H7S16916   5.897   1.724   5.857
  153SAPE   C2816917   5.700   1.759   5.926
  153SAPE   H8R16918   5.641   1.777   6.017
  153SAPE   C2916919   5.659   1.814   5.816
  153SAPE   H9R16920   5.558   1.857   5.818
  153SAPE  C21016921   5.736   1.818   5.694
  153SAPE  H10R16922   5.664   1.851   5.615
  153SAPE  H10S16923   5.772   1.722   5.651
  153SAPE  C21116924   5.853   1.915   5.698
  153SAPE  H11R16925   5.941   1.880   5.754
  153SAPE  C21216926   5.850   2.039   5.650
  153SAPE  H12R16927   5.941   2.096   5.674
  153SAPE  C21316928   5.735   2.110   5.580
  153SAPE  H13R16929   5.683   2.045   5.507
  153SAPE  H13S16930   5.786   2.186   5.517
  153SAPE  C21416931   5.637   2.170   5.674
  153SAPE  H14R16932   5.674   2.195   5.774
  153SAPE  C21516933   5.513   2.204   5.641
  153SAPE  H15R16934   5.457   2.260   5.718
  153SAPE  C21616935   5.448   2.172   5.511
  153SAPE  H16R16936   5.342   2.202   5.507
  153SAPE  H16S16937   5.459   2.065   5.485
  153SAPE  C21716938   5.528   2.252   5.399
  153SAPE  H17R16939   5.624   2.199   5.377
  153SAPE  H17S16940   5.561   2.347   5.446
  153SAPE  C21816941   5.460   2.251   5.269
  153SAPE  H18R16942   5.351   2.251   5.291
  153SAPE  H18S16943   5.493   2.158   5.219
  153SAPE  C21916944   5.501   2.361   5.170
  153SAPE  H19R16945   5.456   2.335   5.071
  153SAPE  H19S16946   5.610   2.350   5.154
  153SAPE  C22016947   5.464   2.502   5.208
  153SAPE  H20R16948   5.465   2.582   5.131
  153SAPE  H20S16949   5.535   2.529   5.288
  153SAPE  H20T16950   5.361   2.509   5.250
  153SAPE   C3316951   6.491   0.767   6.174
  153SAPE   H3X16952   6.502   0.691   6.254
  153SAPE   H3Y16953   6.585   0.826   6.176
  153SAPE   C3416954   6.471   0.701   6.042
  153SAPE   H4X16955   6.370   0.656   6.033
  153SAPE   H4Y16956   6.558   0.633   6.029
  153SAPE   C3516957   6.467   0.783   5.911
  153SAPE   H5X16958   6.563   0.839   5.909
  153SAPE   H5Y16959   6.378   0.849   5.916
  153SAPE   C3616960   6.446   0.696   5.783
  153SAPE   H6X16961   6.347   0.648   5.793
  153SAPE   H6Y16962   6.519   0.613   5.776
  153SAPE   C3716963   6.449   0.779   5.661
  153SAPE   H7X16964   6.547   0.808   5.619
  153SAPE   H7Y16965   6.383   0.868   5.666
  153SAPE   C3816966   6.379   0.702   5.547
  153SAPE   H8X16967   6.274   0.681   5.577
  153SAPE   H8Y16968   6.430   0.606   5.527
  153SAPE   C3916969   6.394   0.793   5.428
  153SAPE   H9X16970   6.498   0.817   5.397
  153SAPE   H9Y16971   6.347   0.891   5.451
  153SAPE  C31016972   6.317   0.746   5.309
  153SAPE  H10X16973   6.232   0.810   5.278
  153SAPE  H10Y16974   6.261   0.653   5.333
  153SAPE  C31116975   6.408   0.721   5.192
  153SAPE  H11X16976   6.475   0.639   5.228
  153SAPE  H11Y16977   6.478   0.806   5.183
  153SAPE  C31216978   6.344   0.691   5.059
  153SAPE  H12X16979   6.301   0.786   5.022
  153SAPE  H12Y16980   6.260   0.621   5.078
  153SAPE  C31316981   6.434   0.635   4.946
  153SAPE  H13X16982   6.494   0.547   4.979
  153SAPE  H13Y16983   6.506   0.717   4.924
  153SAPE  C31416984   6.360   0.606   4.818
  153SAPE  H14X16985   6.310   0.698   4.781
  153SAPE  H14Y16986   6.278   0.536   4.842
  153SAPE  C31516987   6.441   0.557   4.702
  153SAPE  H15X16988   6.532   0.619   4.685
  153SAPE  H15Y16989   6.394   0.568   4.602
  153SAPE  C31616990   6.467   0.402   4.716
  153SAPE  H16X16991   6.366   0.359   4.698
  153SAPE  H16Y16992   6.499   0.374   4.818
  153SAPE  C31716993   6.573   0.343   4.619
  153SAPE  H17X16994   6.603   0.243   4.658
  153SAPE  H17Y16995   6.667   0.402   4.613
  153SAPE  C31816996   6.512   0.328   4.479
  153SAPE  H18X16997   6.577   0.273   4.408
  153SAPE  H18Y16998   6.479   0.429   4.446
  153SAPE  H18Z16999   6.421   0.267   4.499
  154SAPE     N17000   4.079   0.895   6.706
  154SAPE   HN117001   4.126   0.907   6.798
  154SAPE   HN217002   4.056   0.983   6.656
  154SAPE   HN317003   3.988   0.845   6.718
  154SAPE   C1217004   4.162   0.804   6.617
  154SAPE  H12A17005   4.215   0.736   6.686
  154SAPE  H12B17006   4.239   0.863   6.564
  154SAPE   C1117007   4.073   0.723   6.514
  154SAPE  H11A17008   4.152   0.675   6.453
  154SAPE  H11B17009   4.021   0.787   6.439
  154SAPE     P17010   3.840   0.656   6.589
  154SAPE   O1317011   3.769   0.531   6.621
  154SAPE   O1417012   3.827   0.769   6.677
  154SAPE   O1217013   3.993   0.627   6.578
  154SAPE   O1117014   3.804   0.694   6.443
  154SAPE    C117015   3.817   0.605   6.334
  154SAPE    HA17016   3.847   0.664   6.245
  154SAPE    HB17017   3.880   0.517   6.358
  154SAPE    C217018   3.668   0.542   6.314
  154SAPE    HS17019   3.643   0.488   6.407
  154SAPE   O2117020   3.678   0.442   6.214
  154SAPE   C2117021   3.747   0.328   6.237
  154SAPE   O2217022   3.773   0.292   6.351
  154SAPE   C2217023   3.780   0.241   6.107
  154SAPE   H2R17024   3.696   0.170   6.097
  154SAPE   H2S17025   3.764   0.316   6.026
  154SAPE    C317026   3.566   0.660   6.303
  154SAPE    HX17027   3.569   0.710   6.402
  154SAPE    HY17028   3.464   0.624   6.276
  154SAPE   O3117029   3.612   0.759   6.210
  154SAPE   C3117030   3.526   0.833   6.144
  154SAPE   O3217031   3.401   0.824   6.155
  154SAPE   C3217032   3.609   0.929   6.058
  154SAPE   H2X17033   3.650   0.880   5.967
  154SAPE   H2Y17034   3.689   0.968   6.124
  154SAPE   C2317035   3.914   0.166   6.087
  154SAPE   H3R17036   3.936   0.105   6.177
  154SAPE   H3S17037   3.995   0.242   6.081
  154SAPE   C2417038   3.929   0.080   5.955
  154SAPE   H4R17039   3.874   0.140   5.879
  154SAPE   H4S17040   3.871   6.806   5.968
  154SAPE   C2517041   4.072   0.056   5.927
  154SAPE   H5R17042   4.123   6.818   6.006
  154SAPE   C2617043   4.135   0.108   5.813
  154SAPE   H6R17044   4.244   0.097   5.809
  154SAPE   C2717045   4.075   0.212   5.714
  154SAPE   H7R17046   4.142   0.300   5.725
  154SAPE   H7S17047   3.978   0.249   5.753
  154SAPE   C2817048   4.075   0.157   5.577
  154SAPE   H8R17049   4.178   0.139   5.545
  154SAPE   C2917050   3.971   0.115   5.504
  154SAPE   H9R17051   3.989   0.065   5.408
  154SAPE  C21017052   3.830   0.097   5.548
  154SAPE  H10R17053   3.837   0.065   5.654
  154SAPE  H10S17054   3.787   0.002   5.511
  154SAPE  C21117055   3.744   0.220   5.530
  154SAPE  H11R17056   3.708   0.265   5.624
  154SAPE  C21217057   3.718   0.282   5.414
  154SAPE  H12R17058   3.657   0.373   5.409
  154SAPE  C21317059   3.766   0.237   5.274
  154SAPE  H13R17060   3.877   0.238   5.280
  154SAPE  H13S17061   3.729   0.311   5.201
  154SAPE  C21417062   3.718   0.104   5.219
  154SAPE  H14R17063   3.626   0.083   5.275
  154SAPE  C21517064   3.770   0.027   5.116
  154SAPE  H15R17065   3.704   6.761   5.094
  154SAPE  C21617066   3.894   0.059   5.041
  154SAPE  H16R17067   3.915   6.794   4.973
  154SAPE  H16S17068   3.987   0.054   5.102
  154SAPE  C21717069   3.901   0.181   4.950
  154SAPE  H17R17070   4.005   0.198   4.916
  154SAPE  H17S17071   3.863   0.267   5.010
  154SAPE  C21817072   3.832   0.177   4.805
  154SAPE  H18R17073   3.727   0.168   4.839
  154SAPE  H18S17074   3.865   0.089   4.745
  154SAPE  C21917075   3.859   0.304   4.724
  154SAPE  H19R17076   3.967   0.328   4.715
  154SAPE  H19S17077   3.808   0.386   4.779
  154SAPE  C22017078   3.800   0.319   4.580
  154SAPE  H20R17079   3.861   0.243   4.526
  154SAPE  H20S17080   3.822   0.412   4.524
  154SAPE  H20T17081   3.697   0.279   4.587
  154SAPE   C3317082   3.518   1.045   6.001
  154SAPE   H3X17083   3.578   1.135   5.974
  154SAPE   H3Y17084   3.442   1.075   6.076
  154SAPE   C3417085   3.431   1.000   5.879
  154SAPE   H4X17086   3.353   1.078   5.865
  154SAPE   H4Y17087   3.384   0.902   5.903
  154SAPE   C3517088   3.505   0.999   5.743
  154SAPE   H5X17089   3.571   0.910   5.733
  154SAPE   H5Y17090   3.567   1.091   5.744
  154SAPE   C3617091   3.418   1.008   5.617
  154SAPE   H6X17092   3.349   1.094   5.621
  154SAPE   H6Y17093   3.361   0.914   5.602
  154SAPE   C3717094   3.489   1.029   5.485
  154SAPE   H7X17095   3.529   0.932   5.448
  154SAPE   H7Y17096   3.573   1.097   5.513
  154SAPE   C3817097   3.395   1.088   5.382
  154SAPE   H8X17098   3.366   1.189   5.419
  154SAPE   H8Y17099   3.304   1.025   5.371
  154SAPE   C3917100   3.465   1.119   5.243
  154SAPE   H9X17101   3.548   1.045   5.242
  154SAPE   H9Y17102   3.511   1.215   5.275
  154SAPE  C31017103   3.367   1.138   5.124
  154SAPE  H10X17104   3.276   1.198   5.143
  154SAPE  H10Y17105   3.330   1.037   5.097
  154SAPE  C31117106   3.437   1.193   4.999
  154SAPE  H11X17107   3.529   1.135   4.979
  154SAPE  H11Y17108   3.472   1.294   5.029
  154SAPE  C31217109   3.353   1.171   4.872
  154SAPE  H12X17110   3.248   1.205   4.885
  154SAPE  H12Y17111   3.357   1.063   4.847
  154SAPE  C31317112   3.411   1.240   4.747
  154SAPE  H13X17113   3.520   1.218   4.750
  154SAPE  H13Y17114   3.404   1.350   4.760
  154SAPE  C31417115   3.350   1.193   4.609
  154SAPE  H14X17116   3.335   1.084   4.600
  154SAPE  H14Y17117   3.424   1.222   4.531
  154SAPE  C31517118   3.215   1.266   4.575
  154SAPE  H15X17119   3.238   1.373   4.556
  154SAPE  H15Y17120   3.147   1.264   4.662
  154SAPE  C31617121   3.149   1.204   4.452
  154SAPE  H16X17122   3.070   1.276   4.419
  154SAPE  H16Y17123   3.093   1.109   4.465
  154SAPE  C31717124   3.237   1.189   4.325
  154SAPE  H17X17125   3.181   1.151   4.237
  154SAPE  H17Y17126   3.318   1.113   4.338
  154SAPE  C31817127   3.300   1.319   4.285
  154SAPE  H18X17128   3.362   1.329   4.193
  154SAPE  H18Y17129   3.357   1.371   4.366
  154SAPE  H18Z17130   3.213   1.387   4.273
  155SAPE     N17131   5.731   5.945   6.719
  155SAPE   HN117132   5.677   5.865   6.680
  155SAPE   HN217133   5.830   5.920   6.701
  155SAPE   HN317134   5.717   5.935   6.822
  155SAPE   C1217135   5.686   6.074   6.664
  155SAPE  H12A17136   5.775   6.137   6.684
  155SAPE  H12B17137   5.600   6.116   6.720
  155SAPE   C1117138   5.644   6.060   6.517
  155SAPE  H11A17139   5.621   6.158   6.470
  155SAPE  H11B17140   5.552   5.998   6.513
  155SAPE     P17141   5.763   6.007   6.278
  155SAPE   O1317142   5.816   6.138   6.242
  155SAPE   O1417143   5.836   5.894   6.230
  155SAPE   O1217144   5.742   5.998   6.436
  155SAPE   O1117145   5.613   6.000   6.223
  155SAPE    C117146   5.528   5.891   6.261
  155SAPE    HA17147   5.558   5.833   6.351
  155SAPE    HB17148   5.430   5.940   6.280
  155SAPE    C217149   5.512   5.789   6.144
  155SAPE    HS17150   5.592   5.715   6.162
  155SAPE   O2117151   5.519   5.858   6.019
  155SAPE   C2117152   5.587   5.791   5.928
  155SAPE   O2217153   5.660   5.693   5.949
  155SAPE   C2217154   5.571   5.857   5.797
  155SAPE   H2R17155   5.462   5.865   5.774
  155SAPE   H2S17156   5.617   5.958   5.806
  155SAPE    C317157   5.381   5.713   6.150
  155SAPE    HX17158   5.303   5.792   6.157
  155SAPE    HY17159   5.367   5.658   6.246
  155SAPE   O3117160   5.366   5.628   6.036
  155SAPE   C3117161   5.401   5.508   6.036
  155SAPE   O3217162   5.461   5.450   6.124
  155SAPE   C3217163   5.353   5.425   5.905
  155SAPE   H2X17164   5.242   5.436   5.898
  155SAPE   H2Y17165   5.380   5.319   5.926
  155SAPE   C2317166   5.655   5.775   5.683
  155SAPE   H3R17167   5.625   5.669   5.667
  155SAPE   H3S17168   5.758   5.775   5.725
  155SAPE   C2417169   5.648   5.855   5.549
  155SAPE   H4R17170   5.662   5.961   5.580
  155SAPE   H4S17171   5.549   5.845   5.501
  155SAPE   C2517172   5.764   5.824   5.459
  155SAPE   H5R17173   5.859   5.817   5.514
  155SAPE   C2617174   5.747   5.793   5.330
  155SAPE   H6R17175   5.830   5.773   5.261
  155SAPE   C2717176   5.609   5.795   5.266
  155SAPE   H7R17177   5.547   5.878   5.305
  155SAPE   H7S17178   5.543   5.708   5.288
  155SAPE   C2817179   5.613   5.818   5.118
  155SAPE   H8R17180   5.616   5.722   5.065
  155SAPE   C2917181   5.615   5.936   5.051
  155SAPE   H9R17182   5.634   5.920   4.944
  155SAPE  C21017183   5.623   6.074   5.111
  155SAPE  H10R17184   5.698   6.093   5.191
  155SAPE  H10S17185   5.531   6.092   5.170
  155SAPE  C21117186   5.656   6.167   4.999
  155SAPE  H11R17187   5.733   6.122   4.934
  155SAPE  C21217188   5.618   6.292   4.977
  155SAPE  H12R17189   5.648   6.339   4.882
  155SAPE  C21317190   5.516   6.367   5.056
  155SAPE  H13R17191   5.438   6.311   5.111
  155SAPE  H13S17192   5.458   6.407   4.969
  155SAPE  C21417193   5.567   6.476   5.147
  155SAPE  H14R17194   5.551   6.452   5.253
  155SAPE  C21517195   5.624   6.595   5.125
  155SAPE  H15R17196   5.648   6.654   5.215
  155SAPE  C21617197   5.643   6.648   4.985
  155SAPE  H16R17198   5.684   6.580   4.907
  155SAPE  H16S17199   5.728   6.719   4.990
  155SAPE  C21717200   5.534   6.718   4.911
  155SAPE  H17R17201   5.490   6.795   4.978
  155SAPE  H17S17202   5.461   6.651   4.862
  155SAPE  C21817203   5.590   6.808   4.799
  155SAPE  H18R17204   5.645   0.072   4.848
  155SAPE  H18S17205   5.499   0.036   4.757
  155SAPE  C21917206   5.679   6.735   4.698
  155SAPE  H19R17207   5.622   6.650   4.655
  155SAPE  H19S17208   5.764   6.680   4.743
  155SAPE  C22017209   5.727   0.017   4.589
  155SAPE  H20R17210   5.640   0.073   4.549
  155SAPE  H20S17211   5.790   6.779   4.518
  155SAPE  H20T17212   5.799   0.080   4.646
  155SAPE   C3317213   5.417   5.470   5.773
  155SAPE   H3X17214   5.527   5.470   5.780
  155SAPE   H3Y17215   5.393   5.578   5.763
  155SAPE   C3417216   5.376   5.390   5.649
  155SAPE   H4X17217   5.270   5.397   5.617
  155SAPE   H4Y17218   5.409   5.287   5.677
  155SAPE   C3517219   5.464   5.427   5.529
  155SAPE   H5X17220   5.571   5.404   5.548
  155SAPE   H5Y17221   5.450   5.533   5.500
  155SAPE   C3617222   5.421   5.353   5.396
  155SAPE   H6X17223   5.311   5.337   5.401
  155SAPE   H6Y17224   5.458   5.248   5.405
  155SAPE   C3717225   5.475   5.415   5.271
  155SAPE   H7X17226   5.581   5.441   5.292
  155SAPE   H7Y17227   5.421   5.511   5.256
  155SAPE   C3817228   5.478   5.323   5.151
  155SAPE   H8X17229   5.505   5.221   5.186
  155SAPE   H8Y17230   5.562   5.363   5.089
  155SAPE   C3917231   5.347   5.318   5.077
  155SAPE   H9X17232   5.310   5.417   5.044
  155SAPE   H9Y17233   5.276   5.273   5.149
  155SAPE  C31017234   5.352   5.227   4.951
  155SAPE  H10X17235   5.376   5.127   4.993
  155SAPE  H10Y17236   5.443   5.249   4.891
  155SAPE  C31117237   5.224   5.217   4.874
  155SAPE  H11X17238   5.198   5.323   4.853
  155SAPE  H11Y17239   5.144   5.172   4.937
  155SAPE  C31217240   5.230   5.142   4.745
  155SAPE  H12X17241   5.306   5.188   4.679
  155SAPE  H12Y17242   5.128   5.155   4.702
  155SAPE  C31317243   5.251   4.992   4.768
  155SAPE  H13X17244   5.169   4.952   4.831
  155SAPE  H13Y17245   5.346   4.974   4.823
  155SAPE  C31417246   5.245   4.910   4.642
  155SAPE  H14X17247   5.173   4.961   4.574
  155SAPE  H14Y17248   5.224   4.800   4.644
  155SAPE  C31517249   5.379   4.915   4.559
  155SAPE  H15X17250   5.450   4.859   4.623
  155SAPE  H15Y17251   5.414   5.021   4.561
  155SAPE  C31617252   5.379   4.847   4.422
  155SAPE  H16X17253   5.288   4.871   4.363
  155SAPE  H16Y17254   5.390   4.738   4.442
  155SAPE  C31717255   5.509   4.883   4.353
  155SAPE  H17X17256   5.603   4.853   4.405
  155SAPE  H17Y17257   5.512   4.995   4.355
  155SAPE  C31817258   5.496   4.815   4.216
  155SAPE  H18X17259   5.535   4.711   4.222
  155SAPE  H18Y17260   5.543   4.864   4.129
  155SAPE  H18Z17261   5.389   4.818   4.185
  156SAPE     N17262   0.758   0.930   7.114
  156SAPE   HN117263   0.681   0.992   7.148
  156SAPE   HN217264   0.798   0.892   7.202
  156SAPE   HN317265   0.824   0.994   7.067
  156SAPE   C1217266   0.715   0.823   7.025
  156SAPE  H12A17267   0.805   0.771   6.985
  156SAPE  H12B17268   0.650   0.869   6.948
  156SAPE   C1117269   0.631   0.723   7.111
  156SAPE  H11A17270   0.706   0.698   7.190
  156SAPE  H11B17271   0.602   0.633   7.053
  156SAPE     P17272   0.372   0.782   7.111
  156SAPE   O1317273   0.301   0.670   7.178
  156SAPE   O1417274   0.296   0.912   7.122
  156SAPE   O1217275   0.521   0.793   7.167
  156SAPE   O1117276   0.400   0.749   6.959
  156SAPE    C117277   0.317   0.641   6.903
  156SAPE    HA17278   0.325   0.555   6.972
  156SAPE    HB17279   0.214   0.679   6.887
  156SAPE    C217280   0.375   0.602   6.760
  156SAPE    HS17281   0.479   0.574   6.789
  156SAPE   O2117282   0.368   0.700   6.661
  156SAPE   C2117283   0.474   0.707   6.581
  156SAPE   O2217284   0.569   0.630   6.589
  156SAPE   C2217285   0.456   0.801   6.463
  156SAPE   H2R17286   0.347   0.799   6.445
  156SAPE   H2S17287   0.478   0.906   6.494
  156SAPE    C317288   0.310   0.471   6.709
  156SAPE    HX17289   0.202   0.493   6.696
  156SAPE    HY17290   0.306   0.388   6.784
  156SAPE   O3117291   0.368   0.417   6.586
  156SAPE   C3117292   0.477   0.356   6.595
  156SAPE   O3217293   0.536   0.319   6.697
  156SAPE   C3217294   0.527   0.307   6.456
  156SAPE   H2X17295   0.633   0.274   6.459
  156SAPE   H2Y17296   0.536   0.405   6.404
  156SAPE   C2317297   0.555   0.767   6.340
  156SAPE   H3R17298   0.659   0.751   6.374
  156SAPE   H3S17299   0.566   0.865   6.288
  156SAPE   C2417300   0.502   0.669   6.235
  156SAPE   H4R17301   0.448   0.721   6.153
  156SAPE   H4S17302   0.440   0.587   6.278
  156SAPE   C2517303   0.620   0.599   6.163
  156SAPE   H5R17304   0.693   0.552   6.231
  156SAPE   C2617305   0.657   0.610   6.029
  156SAPE   H6R17306   0.744   0.552   5.993
  156SAPE   C2717307   0.597   0.677   5.906
  156SAPE   H7R17308   0.689   0.712   5.855
  156SAPE   H7S17309   0.541   0.770   5.930
  156SAPE   C2817310   0.513   0.588   5.826
  156SAPE   H8R17311   0.449   0.526   5.891
  156SAPE   C2917312   0.503   0.580   5.693
  156SAPE   H9R17313   0.434   0.506   5.650
  156SAPE  C21017314   0.588   0.657   5.600
  156SAPE  H10R17315   0.664   0.714   5.659
  156SAPE  H10S17316   0.534   0.735   5.543
  156SAPE  C21117317   0.662   0.582   5.496
  156SAPE  H11R17318   0.720   0.498   5.539
  156SAPE  C21217319   0.639   0.599   5.363
  156SAPE  H12R17320   0.694   0.532   5.295
  156SAPE  C21317321   0.555   0.704   5.294
  156SAPE  H13R17322   0.610   0.722   5.199
  156SAPE  H13S17323   0.571   0.795   5.355
  156SAPE  C21417324   0.410   0.669   5.276
  156SAPE  H14R17325   0.366   0.627   5.368
  156SAPE  C21517326   0.352   0.648   5.159
  156SAPE  H15R17327   0.244   0.624   5.157
  156SAPE  C21617328   0.408   0.667   5.023
  156SAPE  H16R17329   0.519   0.663   5.029
  156SAPE  H16S17330   0.383   0.765   4.977
  156SAPE  C21717331   0.368   0.556   4.934
  156SAPE  H17R17332   0.259   0.559   4.918
  156SAPE  H17S17333   0.396   0.459   4.983
  156SAPE  C21817334   0.447   0.560   4.805
  156SAPE  H18R17335   0.458   0.660   4.759
  156SAPE  H18S17336   0.392   0.491   4.738
  156SAPE  C21917337   0.590   0.494   4.801
  156SAPE  H19R17338   0.576   0.390   4.837
  156SAPE  H19S17339   0.657   0.549   4.870
  156SAPE  C22017340   0.641   0.471   4.655
  156SAPE  H20R17341   0.650   0.570   4.605
  156SAPE  H20S17342   0.576   0.402   4.597
  156SAPE  H20T17343   0.740   0.421   4.657
  156SAPE   C3317344   0.443   0.205   6.389
  156SAPE   H3X17345   0.394   0.141   6.466
  156SAPE   H3Y17346   0.495   0.130   6.326
  156SAPE   C3417347   0.360   0.273   6.282
  156SAPE   H4X17348   0.426   0.323   6.208
  156SAPE   H4Y17349   0.303   0.362   6.316
  156SAPE   C3517350   0.266   0.183   6.207
  156SAPE   H5X17351   0.178   0.157   6.270
  156SAPE   H5Y17352   0.313   0.089   6.171
  156SAPE   C3617353   0.204   0.249   6.080
  156SAPE   H6X17354   0.184   0.358   6.089
  156SAPE   H6Y17355   0.109   0.194   6.066
  156SAPE   C3717356   0.292   0.230   5.959
  156SAPE   H7X17357   0.326   0.124   5.960
  156SAPE   H7Y17358   0.377   0.302   5.963
  156SAPE   C3817359   0.215   0.259   5.825
  156SAPE   H8X17360   0.196   0.367   5.844
  156SAPE   H8Y17361   0.117   0.207   5.827
  156SAPE   C3917362   0.308   0.232   5.704
  156SAPE   H9X17363   0.339   0.125   5.703
  156SAPE   H9Y17364   0.399   0.295   5.705
  156SAPE  C31017365   0.244   0.269   5.567
  156SAPE  H10X17366   0.220   0.377   5.560
  156SAPE  H10Y17367   0.152   0.207   5.566
  156SAPE  C31117368   0.343   0.235   5.452
  156SAPE  H11X17369   0.371   0.128   5.460
  156SAPE  H11Y17370   0.430   0.300   5.475
  156SAPE  C31217371   0.299   0.247   5.307
  156SAPE  H12X17372   0.381   0.227   5.234
  156SAPE  H12Y17373   0.277   0.348   5.266
  156SAPE  C31317374   0.173   0.155   5.269
  156SAPE  H13X17375   0.101   0.161   5.353
  156SAPE  H13Y17376   0.205   0.049   5.255
  156SAPE  C31417377   0.106   0.193   5.136
  156SAPE  H14X17378   0.072   0.299   5.135
  156SAPE  H14Y17379   0.020   0.126   5.117
  156SAPE  C31517380   0.204   0.182   5.020
  156SAPE  H15X17381   0.269   0.094   5.041
  156SAPE  H15Y17382   0.262   0.276   5.015
  156SAPE  C31617383   0.135   0.179   4.881
  156SAPE  H16X17384   0.056   0.256   4.882
  156SAPE  H16Y17385   0.073   0.087   4.868
  156SAPE  C31717386   0.224   0.214   4.760
  156SAPE  H17X17387   0.313   0.148   4.767
  156SAPE  H17Y17388   0.260   0.317   4.776
  156SAPE  C31817389   0.147   0.203   4.627
  156SAPE  H18X17390   0.108   0.102   4.603
  156SAPE  H18Y17391   0.212   0.233   4.542
  156SAPE  H18Z17392   0.058   0.268   4.621
  157SAPE     N17393   0.436   6.149   6.751
  157SAPE   HN117394   0.441   6.054   6.794
  157SAPE   HN217395   0.334   6.163   6.744
  157SAPE   HN317396   0.474   6.143   6.655
  157SAPE   C1217397   0.508   6.244   6.845
  157SAPE  H12A17398   0.455   6.231   6.942
  157SAPE  H12B17399   0.480   6.347   6.815
  157SAPE   C1117400   0.657   6.215   6.858
  157SAPE  H11A17401   0.664   6.132   6.932
  157SAPE  H11B17402   0.690   6.305   6.914
  157SAPE     P17403   0.857   6.239   6.685
  157SAPE   O1317404   0.923   6.321   6.786
  157SAPE   O1417405   0.933   6.123   6.627
  157SAPE   O1217406   0.720   6.184   6.734
  157SAPE   O1117407   0.814   6.341   6.568
  157SAPE    C117408   0.710   6.313   6.474
  157SAPE    HA17409   0.751   6.343   6.375
  157SAPE    HB17410   0.676   6.208   6.464
  157SAPE    C217411   0.592   6.414   6.496
  157SAPE    HS17412   0.549   6.389   6.596
  157SAPE   O2117413   0.487   6.399   6.398
  157SAPE   C2117414   0.426   6.288   6.406
  157SAPE   O2217415   0.431   6.197   6.487
  157SAPE   C2217416   0.320   6.287   6.288
  157SAPE   H2R17417   0.280   6.387   6.263
  157SAPE   H2S17418   0.380   6.254   6.201
  157SAPE    C317419   0.638   6.561   6.499
  157SAPE    HX17420   0.717   6.569   6.577
  157SAPE    HY17421   0.565   6.624   6.554
  157SAPE   O3117422   0.678   6.616   6.372
  157SAPE   C3117423   0.585   6.658   6.292
  157SAPE   O3217424   0.471   6.689   6.324
  157SAPE   C3217425   0.635   6.648   6.147
  157SAPE   H2X17426   0.698   6.556   6.142
  157SAPE   H2Y17427   0.703   6.734   6.130
  157SAPE   C2317428   0.211   6.177   6.308
  157SAPE   H3R17429   0.161   6.210   6.402
  157SAPE   H3S17430   0.253   6.077   6.334
  157SAPE   C2417431   0.111   6.167   6.190
  157SAPE   H4R17432   0.063   6.265   6.170
  157SAPE   H4S17433   0.030   6.098   6.223
  157SAPE   C2517434   0.178   6.108   6.069
  157SAPE   H5R17435   0.206   6.005   6.096
  157SAPE   C2617436   0.188   6.149   5.942
  157SAPE   H6R17437   0.229   6.080   5.866
  157SAPE   C2717438   0.138   6.282   5.897
  157SAPE   H7R17439   0.079   6.326   5.981
  157SAPE   H7S17440   0.071   6.276   5.809
  157SAPE   C2817441   0.248   6.372   5.869
  157SAPE   H8R17442   0.298   6.405   5.961
  157SAPE   C2917443   0.288   6.424   5.747
  157SAPE   H9R17444   0.370   6.497   5.749
  157SAPE  C21017445   0.233   6.397   5.609
  157SAPE  H10R17446   0.242   6.487   5.545
  157SAPE  H10S17447   0.122   6.401   5.618
  157SAPE  C21117448   0.283   6.270   5.543
  157SAPE  H11R17449   0.322   6.192   5.609
  157SAPE  C21217450   0.272   6.241   5.412
  157SAPE  H12R17451   0.301   6.139   5.384
  157SAPE  C21317452   0.234   6.333   5.297
  157SAPE  H13R17453   0.287   6.287   5.210
  157SAPE  H13S17454   0.275   6.435   5.312
  157SAPE  C21417455   0.089   6.334   5.270
  157SAPE  H14R17456   0.034   6.241   5.294
  157SAPE  C21517457   0.028   6.428   5.192
  157SAPE  H15R17458   6.739   6.427   5.174
  157SAPE  C21617459   0.083   6.556   5.129
  157SAPE  H16R17460   0.160   6.536   5.052
  157SAPE  H16S17461   0.132   6.618   5.206
  157SAPE  C21717462   6.792   6.644   5.069
  157SAPE  H17R17463   0.012   6.747   5.057
  157SAPE  H17S17464   6.715   6.653   5.149
  157SAPE  C21817465   6.732   6.582   4.944
  157SAPE  H18R17466   6.622   6.593   4.948
  157SAPE  H18S17467   6.765   6.476   4.940
  157SAPE  C21917468   6.781   6.637   4.813
  157SAPE  H19R17469   0.072   6.638   4.821
  157SAPE  H19S17470   6.743   6.739   4.791
  157SAPE  C22017471   6.746   6.543   4.693
  157SAPE  H20R17472   6.781   6.438   4.699
  157SAPE  H20S17473   6.794   6.588   4.604
  157SAPE  H20T17474   6.636   6.552   4.680
  157SAPE   C3317475   0.518   6.648   6.046
  157SAPE   H3X17476   0.444   6.730   6.061
  157SAPE   H3Y17477   0.461   6.553   6.044
  157SAPE   C3417478   0.571   6.670   5.905
  157SAPE   H4X17479   0.632   6.762   5.908
  157SAPE   H4Y17480   0.484   6.684   5.837
  157SAPE   C3517481   0.643   6.553   5.828
  157SAPE   H5X17482   0.589   6.456   5.838
  157SAPE   H5Y17483   0.739   6.532   5.880
  157SAPE   C3617484   0.685   6.592   5.685
  157SAPE   H6X17485   0.775   6.534   5.654
  157SAPE   H6Y17486   0.726   6.696   5.684
  157SAPE   C3717487   0.570   6.592   5.579
  157SAPE   H7X17488   0.494   6.673   5.590
  157SAPE   H7Y17489   0.530   6.492   5.604
  157SAPE   C3817490   0.622   6.603   5.438
  157SAPE   H8X17491   0.704   6.529   5.421
  157SAPE   H8Y17492   0.666   6.704   5.422
  157SAPE   C3917493   0.509   6.573   5.334
  157SAPE   H9X17494   0.423   6.642   5.352
  157SAPE   H9Y17495   0.484   6.467   5.356
  157SAPE  C31017496   0.565   6.594   5.199
  157SAPE  H10X17497   0.654   6.531   5.176
  157SAPE  H10Y17498   0.581   6.703   5.184
  157SAPE  C31117499   0.468   6.579   5.086
  157SAPE  H11X17500   0.375   6.636   5.106
  157SAPE  H11Y17501   0.428   6.476   5.074
  157SAPE  C31217502   0.511   6.631   4.951
  157SAPE  H12X17503   0.591   6.564   4.914
  157SAPE  H12Y17504   0.545   6.736   4.944
  157SAPE  C31317505   0.403   6.597   4.844
  157SAPE  H13X17506   0.312   6.658   4.859
  157SAPE  H13Y17507   0.377   6.489   4.857
  157SAPE  C31417508   0.452   6.589   4.694
  157SAPE  H14X17509   0.527   6.508   4.681
  157SAPE  H14Y17510   0.499   6.687   4.671
  157SAPE  C31517511   0.333   6.574   4.601
  157SAPE  H15X17512   0.262   6.659   4.600
  157SAPE  H15Y17513   0.266   6.489   4.626
  157SAPE  C31617514   0.371   6.549   4.453
  157SAPE  H16X17515   0.442   6.463   4.446
  157SAPE  H16Y17516   0.420   6.639   4.410
  157SAPE  C31717517   0.253   6.513   4.366
  157SAPE  H17X17518   0.167   6.583   4.377
  157SAPE  H17Y17519   0.224   6.415   4.409
  157SAPE  C31817520   0.285   6.506   4.216
  157SAPE  H18X17521   0.194   6.515   4.153
  157SAPE  H18Y17522   0.352   6.423   4.185
  157SAPE  H18Z17523   0.346   6.595   4.186
  158SAPE     N17524   2.667   4.950   6.551
  158SAPE   HN117525   2.748   4.973   6.491
  158SAPE   HN217526   2.692   4.879   6.624
  158SAPE   HN317527   2.585   4.921   6.492
  158SAPE   C1217528   2.636   5.086   6.614
  158SAPE  H12A17529   2.738   5.125   6.631
  158SAPE  H12B17530   2.578   5.063   6.706
  158SAPE   C1117531   2.559   5.174   6.519
  158SAPE  H11A17532   2.622   5.219   6.440
  158SAPE  H11B17533   2.529   5.261   6.581
  158SAPE     P17534   2.351   5.177   6.362
  158SAPE   O1317535   2.242   5.093   6.303
  158SAPE   O1417536   2.296   5.298   6.427
  158SAPE   O1217537   2.444   5.105   6.471
  158SAPE   O1117538   2.445   5.216   6.250
  158SAPE    C117539   2.533   5.137   6.175
  158SAPE    HA17540   2.576   5.052   6.232
  158SAPE    HB17541   2.489   5.089   6.085
  158SAPE    C217542   2.655   5.219   6.134
  158SAPE    HS17543   2.709   5.211   6.231
  158SAPE   O2117544   2.624   5.362   6.102
  158SAPE   C2117545   2.608   5.443   6.205
  158SAPE   O2217546   2.665   5.426   6.313
  158SAPE   C2217547   2.504   5.553   6.165
  158SAPE   H2R17548   2.478   5.553   6.057
  158SAPE   H2S17549   2.411   5.524   6.217
  158SAPE    C317550   2.725   5.151   6.014
  158SAPE    HX17551   2.641   5.145   5.942
  158SAPE    HY17552   2.765   5.048   6.027
  158SAPE   O3117553   2.832   5.237   5.961
  158SAPE   C3117554   2.956   5.201   5.995
  158SAPE   O3217555   2.984   5.092   6.046
  158SAPE   C3217556   3.062   5.305   5.948
  158SAPE   H2X17557   3.152   5.244   5.926
  158SAPE   H2Y17558   3.077   5.372   6.036
  158SAPE   C2317559   2.561   5.684   6.211
  158SAPE   H3R17560   2.573   5.702   6.320
  158SAPE   H3S17561   2.497   5.768   6.175
  158SAPE   C2417562   2.691   5.725   6.143
  158SAPE   H4R17563   2.775   5.672   6.192
  158SAPE   H4S17564   2.705   5.834   6.160
  158SAPE   C2517565   2.697   5.698   5.993
  158SAPE   H5R17566   2.687   5.592   5.966
  158SAPE   C2617567   2.693   5.791   5.892
  158SAPE   H6R17568   2.688   5.756   5.788
  158SAPE   C2717569   2.681   5.942   5.905
  158SAPE   H7R17570   2.722   5.990   5.813
  158SAPE   H7S17571   2.752   5.980   5.982
  158SAPE   C2817572   2.551   5.991   5.941
  158SAPE   H8R17573   2.520   5.954   6.040
  158SAPE   C2917574   2.470   6.077   5.876
  158SAPE   H9R17575   2.373   6.108   5.918
  158SAPE  C21017576   2.504   6.142   5.746
  158SAPE  H10R17577   2.411   6.158   5.687
  158SAPE  H10S17578   2.556   6.075   5.674
  158SAPE  C21117579   2.584   6.264   5.762
  158SAPE  H11R17580   2.656   6.264   5.845
  158SAPE  C21217581   2.575   6.369   5.677
  158SAPE  H12R17582   2.649   6.450   5.690
  158SAPE  C21317583   2.494   6.388   5.554
  158SAPE  H13R17584   2.469   6.496   5.547
  158SAPE  H13S17585   2.397   6.334   5.563
  158SAPE  C21417586   2.566   6.332   5.429
  158SAPE  H14R17587   2.610   6.233   5.443
  158SAPE  C21517588   2.593   6.398   5.317
  158SAPE  H15R17589   2.650   6.348   5.237
  158SAPE  C21617590   2.556   6.533   5.273
  158SAPE  H16R17591   2.643   6.601   5.281
  158SAPE  H16S17592   2.482   6.582   5.340
  158SAPE  C21717593   2.490   6.541   5.134
  158SAPE  H17R17594   2.441   6.640   5.131
  158SAPE  H17S17595   2.410   6.464   5.129
  158SAPE  C21817596   2.586   6.526   5.010
  158SAPE  H18R17597   2.534   6.561   4.918
  158SAPE  H18S17598   2.613   6.421   4.987
  158SAPE  C21917599   2.721   6.600   5.025
  158SAPE  H19R17600   2.703   6.693   5.083
  158SAPE  H19S17601   2.766   6.628   4.927
  158SAPE  C22017602   2.840   6.520   5.073
  158SAPE  H20R17603   2.810   6.456   5.159
  158SAPE  H20S17604   2.923   6.587   5.104
  158SAPE  H20T17605   2.891   6.451   5.002
  158SAPE   C3317606   3.020   5.377   5.821
  158SAPE   H3X17607   3.099   5.453   5.808
  158SAPE   H3Y17608   2.924   5.431   5.835
  158SAPE   C3417609   3.015   5.293   5.691
  158SAPE   H4X17610   2.927   5.225   5.688
  158SAPE   H4Y17611   3.102   5.224   5.697
  158SAPE   C3517612   3.006   5.384   5.565
  158SAPE   H5X17613   3.075   5.468   5.587
  158SAPE   H5Y17614   2.905   5.431   5.562
  158SAPE   C3617615   3.042   5.322   5.432
  158SAPE   H6X17616   2.981   5.231   5.411
  158SAPE   H6Y17617   3.148   5.291   5.442
  158SAPE   C3717618   3.024   5.407   5.306
  158SAPE   H7X17619   3.088   5.496   5.326
  158SAPE   H7Y17620   2.924   5.454   5.311
  158SAPE   C3817621   3.062   5.337   5.177
  158SAPE   H8X17622   2.989   5.255   5.162
  158SAPE   H8Y17623   3.164   5.294   5.168
  158SAPE   C3917624   3.032   5.430   5.050
  158SAPE   H9X17625   3.107   5.510   5.033
  158SAPE   H9Y17626   2.933   5.478   5.067
  158SAPE  C31017627   3.016   5.341   4.925
  158SAPE  H10X17628   2.920   5.286   4.936
  158SAPE  H10Y17629   3.103   5.273   4.919
  158SAPE  C31117630   3.013   5.434   4.806
  158SAPE  H11X17631   3.101   5.501   4.799
  158SAPE  H11Y17632   2.924   5.498   4.821
  158SAPE  C31217633   3.000   5.351   4.678
  158SAPE  H12X17634   2.923   5.270   4.680
  158SAPE  H12Y17635   3.092   5.290   4.679
  158SAPE  C31317636   2.986   5.444   4.561
  158SAPE  H13X17637   3.018   5.396   4.467
  158SAPE  H13Y17638   3.053   5.524   4.598
  158SAPE  C31417639   2.852   5.509   4.548
  158SAPE  H14X17640   2.808   5.541   4.644
  158SAPE  H14Y17641   2.772   5.432   4.534
  158SAPE  C31517642   2.841   5.624   4.451
  158SAPE  H15X17643   2.880   5.601   4.350
  158SAPE  H15Y17644   2.907   5.706   4.486
  158SAPE  C31617645   2.708   5.693   4.446
  158SAPE  H16X17646   2.713   5.773   4.370
  158SAPE  H16Y17647   2.680   5.740   4.542
  158SAPE  C31717648   2.596   5.598   4.406
  158SAPE  H17X17649   2.598   5.514   4.479
  158SAPE  H17Y17650   2.624   5.540   4.316
  158SAPE  C31817651   2.460   5.669   4.414
  158SAPE  H18X17652   2.456   5.738   4.501
  158SAPE  H18Y17653   2.384   5.589   4.424
  158SAPE  H18Z17654   2.442   5.723   4.318
  159SAPE     N17655   5.261   2.897   2.850
  159SAPE   HN117656   5.183   2.926   2.911
  159SAPE   HN217657   5.256   2.794   2.838
  159SAPE   HN317658   5.358   2.923   2.880
  159SAPE   C1217659   5.235   2.953   2.715
  159SAPE  H12A17660   5.222   3.063   2.726
  159SAPE  H12B17661   5.144   2.910   2.668
  159SAPE   C1117662   5.372   2.931   2.643
  159SAPE  H11A17663   5.353   2.985   2.548
  159SAPE  H11B17664   5.382   2.823   2.620
  159SAPE     P17665   5.618   3.010   2.638
  159SAPE   O1317666   5.711   2.900   2.674
  159SAPE   O1417667   5.584   3.041   2.499
  159SAPE   O1217668   5.483   2.982   2.711
  159SAPE   O1117669   5.663   3.147   2.708
  159SAPE    C117670   5.607   3.188   2.832
  159SAPE    HA17671   5.630   3.296   2.845
  159SAPE    HB17672   5.497   3.175   2.839
  159SAPE    C217673   5.669   3.105   2.948
  159SAPE    HS17674   5.663   2.998   2.921
  159SAPE   O2117675   5.612   3.137   3.078
  159SAPE   C2117676   5.486   3.104   3.109
  159SAPE   O2217677   5.389   3.083   3.035
  159SAPE   C2217678   5.485   3.100   3.266
  159SAPE   H2R17679   5.578   3.057   3.310
  159SAPE   H2S17680   5.452   3.202   3.295
  159SAPE    C317681   5.820   3.131   2.960
  159SAPE    HX17682   5.857   3.093   2.863
  159SAPE    HY17683   5.858   3.063   3.040
  159SAPE   O3117684   5.852   3.267   2.991
  159SAPE   C3117685   5.945   3.317   2.913
  159SAPE   O3217686   6.020   3.251   2.839
  159SAPE   C3217687   5.950   3.463   2.917
  159SAPE   H2X17688   5.850   3.502   2.943
  159SAPE   H2Y17689   5.958   3.493   2.810
  159SAPE   C2317690   5.376   3.008   3.319
  159SAPE   H3R17691   5.406   2.904   3.293
  159SAPE   H3S17692   5.286   3.024   3.256
  159SAPE   C2417693   5.338   3.027   3.466
  159SAPE   H4R17694   5.250   2.960   3.477
  159SAPE   H4S17695   5.314   3.134   3.479
  159SAPE   C2517696   5.446   2.976   3.560
  159SAPE   H5R17697   5.523   2.907   3.520
  159SAPE   C2617698   5.448   3.004   3.690
  159SAPE   H6R17699   5.537   2.976   3.749
  159SAPE   C2717700   5.351   3.078   3.779
  159SAPE   H7R17701   5.287   3.008   3.837
  159SAPE   H7S17702   5.276   3.140   3.726
  159SAPE   C2817703   5.428   3.168   3.875
  159SAPE   H8R17704   5.470   3.260   3.831
  159SAPE   C2917705   5.439   3.151   4.012
  159SAPE   H9R17706   5.500   3.220   4.072
  159SAPE  C21017707   5.384   3.025   4.070
  159SAPE  H10R17708   5.421   2.940   4.009
  159SAPE  H10S17709   5.274   3.027   4.055
  159SAPE  C21117710   5.406   3.004   4.217
  159SAPE  H11R17711   5.487   2.935   4.245
  159SAPE  C21217712   5.336   3.063   4.312
  159SAPE  H12R17713   5.363   3.034   4.415
  159SAPE  C21317714   5.221   3.154   4.302
  159SAPE  H13R17715   5.135   3.107   4.355
  159SAPE  H13S17716   5.181   3.162   4.199
  159SAPE  C21417717   5.241   3.283   4.368
  159SAPE  H14R17718   5.293   3.287   4.464
  159SAPE  C21517719   5.194   3.404   4.321
  159SAPE  H15R17720   5.217   3.499   4.372
  159SAPE  C21617721   5.105   3.431   4.203
  159SAPE  H16R17722   5.041   3.520   4.224
  159SAPE  H16S17723   5.041   3.342   4.185
  159SAPE  C21717724   5.179   3.441   4.071
  159SAPE  H17R17725   5.265   3.372   4.066
  159SAPE  H17S17726   5.227   3.541   4.066
  159SAPE  C21817727   5.097   3.439   3.939
  159SAPE  H18R17728   5.168   3.398   3.863
  159SAPE  H18S17729   5.063   3.540   3.907
  159SAPE  C21917730   4.981   3.340   3.937
  159SAPE  H19R17731   4.909   3.368   3.857
  159SAPE  H19S17732   4.919   3.358   4.028
  159SAPE  C22017733   5.029   3.193   3.929
  159SAPE  H20R17734   4.938   3.132   3.907
  159SAPE  H20S17735   5.093   3.148   4.008
  159SAPE  H20T17736   5.088   3.198   3.835
  159SAPE   C3317737   6.071   3.512   2.999
  159SAPE   H3X17738   6.099   3.605   2.946
  159SAPE   H3Y17739   6.157   3.442   2.998
  159SAPE   C3417740   6.034   3.543   3.150
  159SAPE   H4X17741   6.014   3.441   3.191
  159SAPE   H4Y17742   5.939   3.599   3.160
  159SAPE   C3517743   6.152   3.603   3.228
  159SAPE   H5X17744   6.168   3.709   3.201
  159SAPE   H5Y17745   6.244   3.541   3.212
  159SAPE   C3617746   6.136   3.602   3.381
  159SAPE   H6X17747   6.100   3.501   3.408
  159SAPE   H6Y17748   6.061   3.676   3.416
  159SAPE   C3717749   6.270   3.620   3.451
  159SAPE   H7X17750   6.297   3.727   3.437
  159SAPE   H7Y17751   6.351   3.567   3.397
  159SAPE   C3817752   6.256   3.583   3.606
  159SAPE   H8X17753   6.230   3.475   3.616
  159SAPE   H8Y17754   6.176   3.645   3.652
  159SAPE   C3917755   6.377   3.620   3.680
  159SAPE   H9X17756   6.393   3.730   3.669
  159SAPE   H9Y17757   6.468   3.585   3.627
  159SAPE  C31017758   6.374   3.602   3.834
  159SAPE  H10X17759   6.349   3.497   3.858
  159SAPE  H10Y17760   6.290   3.667   3.865
  159SAPE  C31117761   6.493   3.648   3.918
  159SAPE  H11X17762   6.522   3.754   3.904
  159SAPE  H11Y17763   6.575   3.591   3.870
  159SAPE  C31217764   6.499   3.609   4.070
  159SAPE  H12X17765   6.602   3.636   4.101
  159SAPE  H12Y17766   6.483   3.500   4.081
  159SAPE  C31317767   6.387   3.683   4.151
  159SAPE  H13X17768   6.303   3.613   4.131
  159SAPE  H13Y17769   6.363   3.781   4.105
  159SAPE  C31417770   6.428   3.694   4.298
  159SAPE  H14X17771   6.412   3.800   4.325
  159SAPE  H14Y17772   6.537   3.677   4.306
  159SAPE  C31517773   6.346   3.600   4.379
  159SAPE  H15X17774   6.379   3.495   4.364
  159SAPE  H15Y17775   6.242   3.593   4.341
  159SAPE  C31617776   6.354   3.621   4.531
  159SAPE  H16X17777   6.289   3.707   4.557
  159SAPE  H16Y17778   6.458   3.657   4.545
  159SAPE  C31717779   6.323   3.501   4.613
  159SAPE  H17X17780   6.348   3.517   4.720
  159SAPE  H17Y17781   6.390   3.421   4.576
  159SAPE  C31817782   6.183   3.448   4.598
  159SAPE  H18X17783   6.144   3.390   4.510
  159SAPE  H18Y17784   6.122   3.540   4.593
  159SAPE  H18Z17785   6.152   3.377   4.678
  160SAPE     N17786   4.837   2.498   2.289
  160SAPE   HN117787   4.824   2.549   2.199
  160SAPE   HN217788   4.811   2.401   2.264
  160SAPE   HN317789   4.767   2.529   2.359
  160SAPE   C1217790   4.976   2.498   2.345
  160SAPE  H12A17791   5.006   2.602   2.371
  160SAPE  H12B17792   5.043   2.469   2.262
  160SAPE   C1117793   4.993   2.393   2.458
  160SAPE  H11A17794   4.943   2.428   2.552
  160SAPE  H11B17795   5.100   2.378   2.481
  160SAPE     P17796   4.975   2.127   2.438
  160SAPE   O1317797   4.861   2.041   2.390
  160SAPE   O1417798   5.105   2.109   2.368
  160SAPE   O1217799   4.931   2.277   2.417
  160SAPE   O1117800   4.986   2.113   2.594
  160SAPE    C117801   4.888   2.160   2.686
  160SAPE    HA17802   4.926   2.253   2.732
  160SAPE    HB17803   4.795   2.191   2.633
  160SAPE    C217804   4.853   2.052   2.795
  160SAPE    HS17805   4.774   2.094   2.860
  160SAPE   O2117806   4.961   2.023   2.888
  160SAPE   C2117807   4.982   2.112   2.986
  160SAPE   O2217808   4.925   2.225   2.991
  160SAPE   C2217809   5.093   2.063   3.088
  160SAPE   H2R17810   5.177   2.007   3.041
  160SAPE   H2S17811   5.131   2.156   3.134
  160SAPE    C317812   4.795   1.917   2.744
  160SAPE    HX17813   4.875   1.856   2.698
  160SAPE    HY17814   4.731   1.947   2.659
  160SAPE   O3117815   4.712   1.843   2.840
  160SAPE   C3117816   4.667   1.728   2.790
  160SAPE   O3217817   4.683   1.699   2.673
  160SAPE   C3217818   4.595   1.649   2.899
  160SAPE   H2X17819   4.559   1.558   2.846
  160SAPE   H2Y17820   4.502   1.702   2.931
  160SAPE   C2317821   5.025   1.976   3.203
  160SAPE   H3R17822   4.962   2.039   3.269
  160SAPE   H3S17823   5.111   1.964   3.273
  160SAPE   C2417824   4.975   1.840   3.156
  160SAPE   H4R17825   4.872   1.845   3.115
  160SAPE   H4S17826   4.956   1.769   3.240
  160SAPE   C2517827   5.058   1.775   3.049
  160SAPE   H5R17828   5.025   1.805   2.948
  160SAPE   C2617829   5.143   1.674   3.055
  160SAPE   H6R17830   5.189   1.652   2.957
  160SAPE   C2717831   5.195   1.598   3.171
  160SAPE   H7R17832   5.227   1.673   3.246
  160SAPE   H7S17833   5.285   1.549   3.129
  160SAPE   C2817834   5.105   1.509   3.254
  160SAPE   H8R17835   5.006   1.487   3.211
  160SAPE   C2917836   5.142   1.443   3.365
  160SAPE   H9R17837   5.062   1.382   3.408
  160SAPE  C21017838   5.277   1.440   3.442
  160SAPE  H10R17839   5.251   1.457   3.548
  160SAPE  H10S17840   5.333   1.535   3.424
  160SAPE  C21117841   5.346   1.313   3.414
  160SAPE  H11R17842   5.337   1.286   3.308
  160SAPE  C21217843   5.390   1.224   3.508
  160SAPE  H12R17844   5.436   1.134   3.465
  160SAPE  C21317845   5.395   1.247   3.658
  160SAPE  H13R17846   5.413   1.159   3.724
  160SAPE  H13S17847   5.290   1.262   3.690
  160SAPE  C21417848   5.491   1.363   3.698
  160SAPE  H14R17849   5.551   1.391   3.611
  160SAPE  C21517850   5.503   1.439   3.807
  160SAPE  H15R17851   5.585   1.513   3.807
  160SAPE  C21617852   5.427   1.407   3.935
  160SAPE  H16R17853   5.357   1.321   3.922
  160SAPE  H16S17854   5.366   1.488   3.980
  160SAPE  C21717855   5.530   1.357   4.037
  160SAPE  H17R17856   5.610   1.432   4.057
  160SAPE  H17S17857   5.573   1.263   3.998
  160SAPE  C21817858   5.461   1.320   4.177
  160SAPE  H18R17859   5.365   1.268   4.153
  160SAPE  H18S17860   5.441   1.412   4.236
  160SAPE  C21917861   5.547   1.218   4.252
  160SAPE  H19R17862   5.573   1.137   4.181
  160SAPE  H19S17863   5.494   1.166   4.335
  160SAPE  C22017864   5.673   1.270   4.311
  160SAPE  H20R17865   5.646   1.347   4.386
  160SAPE  H20S17866   5.728   1.317   4.226
  160SAPE  H20T17867   5.722   1.178   4.350
  160SAPE   C3317868   4.680   1.602   3.010
  160SAPE   H3X17869   4.687   1.695   3.070
  160SAPE   H3Y17870   4.782   1.572   2.977
  160SAPE   C3417871   4.608   1.498   3.096
  160SAPE   H4X17872   4.614   1.402   3.041
  160SAPE   H4Y17873   4.503   1.533   3.104
  160SAPE   C3517874   4.676   1.476   3.237
  160SAPE   H5X17875   4.664   1.572   3.291
  160SAPE   H5Y17876   4.785   1.458   3.232
  160SAPE   C3617877   4.613   1.371   3.328
  160SAPE   H6X17878   4.649   1.272   3.291
  160SAPE   H6Y17879   4.507   1.380   3.297
  160SAPE   C3717880   4.646   1.386   3.473
  160SAPE   H7X17881   4.613   1.482   3.518
  160SAPE   H7Y17882   4.757   1.383   3.472
  160SAPE   C3817883   4.604   1.270   3.564
  160SAPE   H8X17884   4.643   1.171   3.533
  160SAPE   H8Y17885   4.493   1.259   3.571
  160SAPE   C3917886   4.648   1.279   3.713
  160SAPE   H9X17887   4.700   1.375   3.727
  160SAPE   H9Y17888   4.710   1.190   3.738
  160SAPE  C31017889   4.538   1.268   3.814
  160SAPE  H10X17890   4.465   1.194   3.776
  160SAPE  H10Y17891   4.478   1.360   3.833
  160SAPE  C31117892   4.588   1.225   3.947
  160SAPE  H11X17893   4.651   1.310   3.981
  160SAPE  H11Y17894   4.655   1.137   3.942
  160SAPE  C31217895   4.474   1.207   4.053
  160SAPE  H12X17896   4.400   1.140   4.005
  160SAPE  H12Y17897   4.418   1.299   4.078
  160SAPE  C31317898   4.539   1.139   4.173
  160SAPE  H13X17899   4.613   1.211   4.213
  160SAPE  H13Y17900   4.590   1.045   4.144
  160SAPE  C31417901   4.442   1.102   4.289
  160SAPE  H14X17902   4.363   1.031   4.255
  160SAPE  H14Y17903   4.393   1.194   4.326
  160SAPE  C31517904   4.513   1.042   4.408
  160SAPE  H15X17905   4.586   1.113   4.451
  160SAPE  H15Y17906   4.570   0.954   4.371
  160SAPE  C31617907   4.417   0.984   4.516
  160SAPE  H16X17908   4.344   0.917   4.463
  160SAPE  H16Y17909   4.352   1.067   4.551
  160SAPE  C31717910   4.488   0.906   4.636
  160SAPE  H17X17911   4.581   0.957   4.668
  160SAPE  H17Y17912   4.529   0.809   4.601
  160SAPE  C31817913   4.394   0.900   4.756
  160SAPE  H18X17914   4.442   0.846   4.840
  160SAPE  H18Y17915   4.298   0.863   4.715
  160SAPE  H18Z17916   4.374   0.999   4.800
  161SAPE     N17917   2.465   3.728   1.669
  161SAPE   HN117918   2.377   3.744   1.616
  161SAPE   HN217919   2.500   3.639   1.629
  161SAPE   HN317920   2.451   3.715   1.771
  161SAPE   C1217921   2.539   3.855   1.645
  161SAPE  H12A17922   2.552   3.876   1.537
  161SAPE  H12B17923   2.638   3.839   1.693
  161SAPE   C1117924   2.467   3.973   1.718
  161SAPE  H11A17925   2.373   3.997   1.664
  161SAPE  H11B17926   2.533   4.061   1.710
  161SAPE     P17927   2.342   4.033   1.943
  161SAPE   O1317928   2.369   4.177   1.914
  161SAPE   O1417929   2.208   3.981   1.909
  161SAPE   O1217930   2.446   3.949   1.860
  161SAPE   O1117931   2.377   3.996   2.097
  161SAPE    C117932   2.339   4.068   2.206
  161SAPE    HA17933   2.269   4.146   2.169
  161SAPE    HB17934   2.282   4.002   2.275
  161SAPE    C217935   2.456   4.139   2.290
  161SAPE    HS17936   2.523   4.180   2.212
  161SAPE   O2117937   2.530   4.039   2.367
  161SAPE   C2117938   2.631   4.090   2.431
  161SAPE   O2217939   2.685   4.196   2.406
  161SAPE   C2217940   2.692   3.988   2.527
  161SAPE   H2R17941   2.697   3.891   2.474
  161SAPE   H2S17942   2.797   4.023   2.533
  161SAPE    C317943   2.398   4.252   2.378
  161SAPE    HX17944   2.336   4.331   2.329
  161SAPE    HY17945   2.481   4.313   2.419
  161SAPE   O3117946   2.326   4.194   2.490
  161SAPE   C3117947   2.319   4.273   2.605
  161SAPE   O3217948   2.360   4.385   2.609
  161SAPE   C3217949   2.234   4.193   2.712
  161SAPE   H2X17950   2.284   4.095   2.726
  161SAPE   H2Y17951   2.130   4.180   2.677
  161SAPE   C2317952   2.610   3.983   2.666
  161SAPE   H3R17953   2.507   3.953   2.637
  161SAPE   H3S17954   2.611   4.086   2.708
  161SAPE   C2417955   2.671   3.891   2.772
  161SAPE   H4R17956   2.782   3.884   2.783
  161SAPE   H4S17957   2.646   3.796   2.719
  161SAPE   C2517958   2.588   3.890   2.901
  161SAPE   H5R17959   2.521   3.974   2.920
  161SAPE   C2617960   2.613   3.803   2.996
  161SAPE   H6R17961   2.560   3.821   3.090
  161SAPE   C2717962   2.692   3.677   2.991
  161SAPE   H7R17963   2.700   3.628   2.892
  161SAPE   H7S17964   2.631   3.598   3.040
  161SAPE   C2817965   2.831   3.694   3.053
  161SAPE   H8R17966   2.904   3.742   2.985
  161SAPE   C2917967   2.870   3.663   3.178
  161SAPE   H9R17968   2.966   3.688   3.225
  161SAPE  C21017969   2.782   3.586   3.279
  161SAPE  H10R17970   2.690   3.541   3.236
  161SAPE  H10S17971   2.749   3.663   3.353
  161SAPE  C21117972   2.864   3.476   3.348
  161SAPE  H11R17973   2.948   3.432   3.293
  161SAPE  C21217974   2.829   3.425   3.467
  161SAPE  H12R17975   2.893   3.342   3.502
  161SAPE  C21317976   2.701   3.449   3.540
  161SAPE  H13R17977   2.665   3.351   3.579
  161SAPE  H13S17978   2.618   3.481   3.473
  161SAPE  C21417979   2.710   3.551   3.651
  161SAPE  H14R17980   2.738   3.649   3.610
  161SAPE  C21517981   2.683   3.534   3.783
  161SAPE  H15R17982   2.704   3.619   3.849
  161SAPE  C21617983   2.645   3.413   3.865
  161SAPE  H16R17984   2.570   3.356   3.807
  161SAPE  H16S17985   2.578   3.435   3.951
  161SAPE  C21717986   2.752   3.303   3.901
  161SAPE  H17R17987   2.804   3.277   3.806
  161SAPE  H17S17988   2.710   3.202   3.923
  161SAPE  C21817989   2.878   3.353   3.988
  161SAPE  H18R17990   2.899   3.452   3.944
  161SAPE  H18S17991   2.960   3.284   3.959
  161SAPE  C21917992   2.857   3.363   4.139
  161SAPE  H19R17993   2.959   3.365   4.182
  161SAPE  H19S17994   2.812   3.272   4.184
  161SAPE  C22017995   2.775   3.483   4.188
  161SAPE  H20R17996   2.792   3.497   4.296
  161SAPE  H20S17997   2.667   3.466   4.168
  161SAPE  H20T17998   2.802   3.577   4.136
  161SAPE   C3317999   2.215   4.268   2.847
  161SAPE   H3X18000   2.169   4.367   2.831
  161SAPE   H3Y18001   2.315   4.289   2.892
  161SAPE   C3418002   2.133   4.193   2.947
  161SAPE   H4X18003   2.041   4.151   2.902
  161SAPE   H4Y18004   2.098   4.264   3.025
  161SAPE   C3518005   2.194   4.080   3.029
  161SAPE   H5X18006   2.262   4.017   2.968
  161SAPE   H5Y18007   2.116   4.010   3.068
  161SAPE   C3618008   2.288   4.129   3.141
  161SAPE   H6X18009   2.231   4.183   3.220
  161SAPE   H6Y18010   2.356   4.212   3.114
  161SAPE   C3718011   2.366   4.014   3.200
  161SAPE   H7X18012   2.437   3.973   3.125
  161SAPE   H7Y18013   2.292   3.937   3.229
  161SAPE   C3818014   2.439   4.053   3.323
  161SAPE   H8X18015   2.368   4.087   3.401
  161SAPE   H8Y18016   2.509   4.137   3.306
  161SAPE   C3918017   2.526   3.930   3.366
  161SAPE   H9X18018   2.603   3.917   3.287
  161SAPE   H9Y18019   2.465   3.837   3.369
  161SAPE  C31018020   2.598   3.957   3.495
  161SAPE  H10X18021   2.633   4.062   3.500
  161SAPE  H10Y18022   2.687   3.892   3.508
  161SAPE  C31118023   2.506   3.944   3.614
  161SAPE  H11X18024   2.446   3.852   3.598
  161SAPE  H11Y18025   2.436   4.031   3.611
  161SAPE  C31218026   2.587   3.919   3.737
  161SAPE  H12X18027   2.686   3.969   3.745
  161SAPE  H12Y18028   2.623   3.813   3.738
  161SAPE  C31318029   2.510   3.949   3.862
  161SAPE  H13X18030   2.413   3.897   3.849
  161SAPE  H13Y18031   2.489   4.057   3.875
  161SAPE  C31418032   2.582   3.892   3.982
  161SAPE  H14X18033   2.682   3.937   3.997
  161SAPE  H14Y18034   2.583   3.782   3.966
  161SAPE  C31518035   2.504   3.935   4.114
  161SAPE  H15X18036   2.410   3.875   4.116
  161SAPE  H15Y18037   2.477   4.042   4.111
  161SAPE  C31618038   2.584   3.906   4.239
  161SAPE  H16X18039   2.682   3.954   4.220
  161SAPE  H16Y18040   2.599   3.797   4.255
  161SAPE  C31718041   2.529   3.977   4.369
  161SAPE  H17X18042   2.443   3.919   4.409
  161SAPE  H17Y18043   2.501   4.081   4.343
  161SAPE  C31818044   2.639   3.959   4.473
  161SAPE  H18X18045   2.668   3.853   4.488
  161SAPE  H18Y18046   2.598   3.982   4.574
  161SAPE  H18Z18047   2.719   4.026   4.436
  162SAPE     N18048   2.526   0.626   1.879
  162SAPE   HN118049   2.577   0.553   1.824
  162SAPE   HN218050   2.435   0.646   1.835
  162SAPE   HN318051   2.583   0.712   1.891
  162SAPE   C1218052   2.479   0.567   2.013
  162SAPE  H12A18053   2.459   0.660   2.070
  162SAPE  H12B18054   2.557   0.506   2.063
  162SAPE   C1118055   2.341   0.507   2.000
  162SAPE  H11A18056   2.262   0.575   1.961
  162SAPE  H11B18057   2.311   0.480   2.103
  162SAPE     P18058   2.362   0.244   1.983
  162SAPE   O1318059   2.267   0.209   2.093
  162SAPE   O1418060   2.355   0.156   1.860
  162SAPE   O1218061   2.332   0.388   1.915
  162SAPE   O1118062   2.512   0.249   2.032
  162SAPE    C118063   2.550   0.281   2.169
  162SAPE    HA18064   2.655   0.317   2.170
  162SAPE    HB18065   2.486   0.364   2.205
  162SAPE    C218066   2.545   0.170   2.272
  162SAPE    HS18067   2.452   0.122   2.235
  162SAPE   O2118068   2.536   0.231   2.403
  162SAPE   C2118069   2.437   0.187   2.483
  162SAPE   O2218070   2.349   0.111   2.441
  162SAPE   C2218071   2.456   0.249   2.618
  162SAPE   H2R18072   2.565   0.243   2.642
  162SAPE   H2S18073   2.427   0.353   2.592
  162SAPE    C318074   2.658   0.071   2.263
  162SAPE    HX18075   2.743   0.132   2.303
  162SAPE    HY18076   2.672   0.052   2.155
  162SAPE   O3118077   2.654   6.770   2.344
  162SAPE   C3118078   2.782   6.727   2.374
  162SAPE   O3218079   2.884   6.787   2.356
  162SAPE   C3218080   2.765   6.585   2.433
  162SAPE   H2X18081   2.835   6.514   2.384
  162SAPE   H2Y18082   2.664   6.545   2.408
  162SAPE   C2318083   2.367   0.195   2.732
  162SAPE   H3R18084   2.262   0.210   2.702
  162SAPE   H3S18085   2.378   0.262   2.820
  162SAPE   C2418086   2.382   0.041   2.768
  162SAPE   H4R18087   2.397   6.795   2.679
  162SAPE   H4S18088   2.281   0.008   2.801
  162SAPE   C2518089   2.493   0.019   2.868
  162SAPE   H5R18090   2.522   0.117   2.909
  162SAPE   C2618091   2.564   6.732   2.897
  162SAPE   H6R18092   2.637   6.741   2.980
  162SAPE   C2718093   2.548   6.593   2.843
  162SAPE   H7R18094   2.566   6.594   2.734
  162SAPE   H7S18095   2.442   6.561   2.848
  162SAPE   C2818096   2.646   6.496   2.909
  162SAPE   H8R18097   2.747   6.497   2.865
  162SAPE   C2918098   2.631   6.411   3.014
  162SAPE   H9R18099   2.716   6.350   3.048
  162SAPE  C21018100   2.497   6.398   3.087
  162SAPE  H10R18101   2.437   6.491   3.079
  162SAPE  H10S18102   2.513   6.392   3.197
  162SAPE  C21118103   2.424   6.279   3.037
  162SAPE  H11R18104   2.401   6.280   2.930
  162SAPE  C21218105   2.403   6.162   3.102
  162SAPE  H12R18106   2.343   6.087   3.048
  162SAPE  C21318107   2.442   6.137   3.243
  162SAPE  H13R18108   2.449   6.232   3.299
  162SAPE  H13S18109   2.547   6.102   3.250
  162SAPE  C21418110   2.363   6.030   3.302
  162SAPE  H14R18111   2.279   6.000   3.238
  162SAPE  C21518112   2.369   5.989   3.430
  162SAPE  H15R18113   2.293   5.917   3.464
  162SAPE  C21618114   2.484   6.016   3.520
  162SAPE  H16R18115   2.470   6.119   3.560
  162SAPE  H16S18116   2.574   6.013   3.455
  162SAPE  C21718117   2.486   5.924   3.645
  162SAPE  H17R18118   2.495   5.817   3.617
  162SAPE  H17S18119   2.408   5.944   3.722
  162SAPE  C21818120   2.608   5.958   3.729
  162SAPE  H18R18121   2.596   6.066   3.752
  162SAPE  H18S18122   2.702   5.943   3.672
  162SAPE  C21918123   2.626   5.872   3.859
  162SAPE  H19R18124   2.649   5.769   3.826
  162SAPE  H19S18125   2.530   5.871   3.915
  162SAPE  C22018126   2.741   5.924   3.947
  162SAPE  H20R18127   2.738   6.027   3.990
  162SAPE  H20S18128   2.835   5.915   3.888
  162SAPE  H20T18129   2.753   5.857   4.034
  162SAPE   C3318130   2.796   6.581   2.589
  162SAPE   H3X18131   2.760   6.480   2.619
  162SAPE   H3Y18132   2.761   6.665   2.653
  162SAPE   C3418133   2.944   6.588   2.619
  162SAPE   H4X18134   2.992   6.682   2.583
  162SAPE   H4Y18135   2.998   6.507   2.565
  162SAPE   C3518136   2.978   6.586   2.766
  162SAPE   H5X18137   2.980   6.482   2.803
  162SAPE   H5Y18138   2.907   6.645   2.829
  162SAPE   C3618139   3.119   6.641   2.789
  162SAPE   H6X18140   3.120   6.750   2.809
  162SAPE   H6Y18141   3.181   6.612   2.701
  162SAPE   C3718142   3.198   6.579   2.914
  162SAPE   H7X18143   3.296   6.629   2.899
  162SAPE   H7Y18144   3.206   6.469   2.895
  162SAPE   C3818145   3.142   6.613   3.057
  162SAPE   H8X18146   3.034   6.596   3.075
  162SAPE   H8Y18147   3.147   6.719   3.090
  162SAPE   C3918148   3.216   6.528   3.158
  162SAPE   H9X18149   3.323   6.558   3.159
  162SAPE   H9Y18150   3.217   6.425   3.116
  162SAPE  C31018151   3.152   6.533   3.293
  162SAPE  H10X18152   3.051   6.489   3.284
  162SAPE  H10Y18153   3.139   6.636   3.331
  162SAPE  C31118154   3.235   6.456   3.396
  162SAPE  H11X18155   3.333   6.508   3.393
  162SAPE  H11Y18156   3.248   6.350   3.365
  162SAPE  C31218157   3.177   6.473   3.538
  162SAPE  H12X18158   3.075   6.429   3.529
  162SAPE  H12Y18159   3.160   6.581   3.558
  162SAPE  C31318160   3.260   6.412   3.655
  162SAPE  H13X18161   3.341   6.485   3.677
  162SAPE  H13Y18162   3.307   6.317   3.621
  162SAPE  C31418163   3.166   6.411   3.783
  162SAPE  H14X18164   3.075   6.352   3.760
  162SAPE  H14Y18165   3.146   6.517   3.809
  162SAPE  C31518166   3.225   6.343   3.906
  162SAPE  H15X18167   3.315   6.398   3.943
  162SAPE  H15Y18168   3.265   6.246   3.871
  162SAPE  C31618169   3.125   6.313   4.025
  162SAPE  H16X18170   3.025   6.316   3.977
  162SAPE  H16Y18171   3.126   6.392   4.103
  162SAPE  C31718172   3.137   6.177   4.096
  162SAPE  H17X18173   3.237   6.164   4.143
  162SAPE  H17Y18174   3.131   6.092   4.025
  162SAPE  C31818175   3.028   6.155   4.194
  162SAPE  H18X18176   2.924   6.176   4.161
  162SAPE  H18Y18177   3.039   6.224   4.281
  162SAPE  H18Z18178   3.034   6.050   4.230
  163SAPE     N18179   1.507   3.107   1.667
  163SAPE   HN118180   1.538   3.068   1.576
  163SAPE   HN218181   1.509   3.032   1.739
  163SAPE   HN318182   1.408   3.140   1.656
  163SAPE   C1218183   1.589   3.225   1.707
  163SAPE  H12A18184   1.565   3.314   1.644
  163SAPE  H12B18185   1.696   3.198   1.697
  163SAPE   C1118186   1.558   3.260   1.851
  163SAPE  H11A18187   1.648   3.320   1.879
  163SAPE  H11B18188   1.560   3.170   1.916
  163SAPE     P18189   1.303   3.286   1.925
  163SAPE   O1318190   1.193   3.380   1.883
  163SAPE   O1418191   1.290   3.142   1.886
  163SAPE   O1218192   1.440   3.339   1.863
  163SAPE   O1118193   1.331   3.301   2.080
  163SAPE    C118194   1.422   3.389   2.145
  163SAPE    HA18195   1.526   3.375   2.112
  163SAPE    HB18196   1.388   3.492   2.119
  163SAPE    C218197   1.418   3.382   2.299
  163SAPE    HS18198   1.430   3.276   2.330
  163SAPE   O2118199   1.286   3.433   2.334
  163SAPE   C2118200   1.227   3.368   2.432
  163SAPE   O2218201   1.265   3.271   2.492
  163SAPE   C2218202   1.079   3.413   2.436
  163SAPE   H2R18203   1.049   3.479   2.352
  163SAPE   H2S18204   1.014   3.325   2.451
  163SAPE    C318205   1.537   3.463   2.372
  163SAPE    HX18206   1.528   3.565   2.329
  163SAPE    HY18207   1.628   3.420   2.326
  163SAPE   O3118208   1.522   3.466   2.514
  163SAPE   C3118209   1.563   3.364   2.578
  163SAPE   O3218210   1.633   3.274   2.534
  163SAPE   C3218211   1.531   3.371   2.723
  163SAPE   H2X18212   1.444   3.438   2.737
  163SAPE   H2Y18213   1.612   3.418   2.784
  163SAPE   C2318214   1.055   3.502   2.564
  163SAPE   H3R18215   1.094   3.450   2.654
  163SAPE   H3S18216   0.945   3.504   2.580
  163SAPE   C2418217   1.098   3.652   2.552
  163SAPE   H4R18218   1.047   3.713   2.629
  163SAPE   H4S18219   1.049   3.691   2.460
  163SAPE   C2518220   1.248   3.678   2.563
  163SAPE   H5R18221   1.314   3.696   2.477
  163SAPE   C2618222   1.308   3.711   2.679
  163SAPE   H6R18223   1.415   3.732   2.666
  163SAPE   C2718224   1.246   3.706   2.819
  163SAPE   H7R18225   1.172   3.624   2.823
  163SAPE   H7S18226   1.208   3.808   2.842
  163SAPE   C2818227   1.356   3.663   2.915
  163SAPE   H8R18228   1.437   3.600   2.876
  163SAPE   C2918229   1.345   3.690   3.047
  163SAPE   H9R18230   1.421   3.660   3.120
  163SAPE  C21018231   1.241   3.778   3.106
  163SAPE  H10R18232   1.196   3.735   3.198
  163SAPE  H10S18233   1.151   3.795   3.043
  163SAPE  C21118234   1.301   3.913   3.137
  163SAPE  H11R18235   1.267   3.991   3.068
  163SAPE  C21218236   1.377   3.945   3.248
  163SAPE  H12R18237   1.419   4.046   3.253
  163SAPE  C21318238   1.418   3.853   3.356
  163SAPE  H13R18239   1.521   3.873   3.393
  163SAPE  H13S18240   1.423   3.744   3.333
  163SAPE  C21418241   1.317   3.876   3.466
  163SAPE  H14R18242   1.225   3.816   3.464
  163SAPE  C21518243   1.325   3.970   3.566
  163SAPE  H15R18244   1.234   3.976   3.627
  163SAPE  C21618245   1.441   4.058   3.610
  163SAPE  H16R18246   1.412   4.165   3.602
  163SAPE  H16S18247   1.524   4.046   3.538
  163SAPE  C21718248   1.506   4.032   3.758
  163SAPE  H17R18249   1.600   4.088   3.777
  163SAPE  H17S18250   1.529   3.924   3.746
  163SAPE  C21818251   1.404   4.064   3.863
  163SAPE  H18R18252   1.402   3.995   3.951
  163SAPE  H18S18253   1.298   4.062   3.831
  163SAPE  C21918254   1.421   4.191   3.944
  163SAPE  H19R18255   1.328   4.196   4.004
  163SAPE  H19S18256   1.430   4.283   3.882
  163SAPE  C22018257   1.547   4.198   4.031
  163SAPE  H20R18258   1.539   4.115   4.104
  163SAPE  H20S18259   1.559   4.298   4.078
  163SAPE  H20T18260   1.641   4.174   3.976
  163SAPE   C3318261   1.484   3.234   2.784
  163SAPE   H3X18262   1.566   3.177   2.832
  163SAPE   H3Y18263   1.432   3.173   2.708
  163SAPE   C3418264   1.387   3.248   2.901
  163SAPE   H4X18265   1.344   3.146   2.917
  163SAPE   H4Y18266   1.308   3.323   2.880
  163SAPE   C3518267   1.464   3.286   3.026
  163SAPE   H5X18268   1.546   3.359   3.007
  163SAPE   H5Y18269   1.517   3.200   3.073
  163SAPE   C3618270   1.372   3.330   3.133
  163SAPE   H6X18271   1.299   3.250   3.156
  163SAPE   H6Y18272   1.324   3.423   3.097
  163SAPE   C3718273   1.441   3.366   3.268
  163SAPE   H7X18274   1.508   3.451   3.246
  163SAPE   H7Y18275   1.495   3.286   3.323
  163SAPE   C3818276   1.335   3.429   3.364
  163SAPE   H8X18277   1.261   3.350   3.388
  163SAPE   H8Y18278   1.293   3.516   3.309
  163SAPE   C3918279   1.386   3.487   3.497
  163SAPE   H9X18280   1.455   3.570   3.470
  163SAPE   H9Y18281   1.442   3.409   3.552
  163SAPE  C31018282   1.284   3.541   3.589
  163SAPE  H10X18283   1.216   3.464   3.630
  163SAPE  H10Y18284   1.217   3.606   3.528
  163SAPE  C31118285   1.353   3.618   3.703
  163SAPE  H11X18286   1.413   3.705   3.670
  163SAPE  H11Y18287   1.424   3.551   3.755
  163SAPE  C31218288   1.261   3.669   3.812
  163SAPE  H12X18289   1.178   3.596   3.823
  163SAPE  H12Y18290   1.210   3.764   3.788
  163SAPE  C31318291   1.324   3.689   3.950
  163SAPE  H13X18292   1.406   3.762   3.934
  163SAPE  H13Y18293   1.365   3.589   3.976
  163SAPE  C31418294   1.232   3.739   4.064
  163SAPE  H14X18295   1.130   3.700   4.050
  163SAPE  H14Y18296   1.226   3.850   4.075
  163SAPE  C31518297   1.275   3.673   4.200
  163SAPE  H15X18298   1.377   3.715   4.209
  163SAPE  H15Y18299   1.281   3.562   4.190
  163SAPE  C31618300   1.188   3.701   4.319
  163SAPE  H16X18301   1.087   3.732   4.284
  163SAPE  H16Y18302   1.242   3.789   4.360
  163SAPE  C31718303   1.193   3.585   4.424
  163SAPE  H17X18304   1.140   3.500   4.376
  163SAPE  H17Y18305   1.136   3.625   4.511
  163SAPE  C31818306   1.333   3.553   4.481
  163SAPE  H18X18307   1.380   3.648   4.513
  163SAPE  H18Y18308   1.383   3.506   4.394
  163SAPE  H18Z18309   1.319   3.483   4.566
  164SAPE     N18310   6.417   3.662   2.339
  164SAPE   HN118311   6.457   3.707   2.255
  164SAPE   HN218312   6.480   3.586   2.372
  164SAPE   HN318313   6.342   3.599   2.303
  164SAPE   C1218314   6.385   3.763   2.447
  164SAPE  H12A18315   6.315   3.722   2.523
  164SAPE  H12B18316   6.358   3.862   2.405
  164SAPE   C1118317   6.521   3.790   2.519
  164SAPE  H11A18318   6.547   3.692   2.564
  164SAPE  H11B18319   6.496   3.851   2.609
  164SAPE     P18320   6.640   3.990   2.395
  164SAPE   O1318321   6.777   4.038   2.413
  164SAPE   O1418322   6.587   4.011   2.257
  164SAPE   O1218323   6.628   3.840   2.442
  164SAPE   O1118324   6.548   4.077   2.480
  164SAPE    C118325   6.532   4.218   2.460
  164SAPE    HA18326   6.509   4.243   2.355
  164SAPE    HB18327   6.435   4.244   2.509
  164SAPE    C218328   6.647   4.292   2.528
  164SAPE    HS18329   6.748   4.265   2.493
  164SAPE   O2118330   6.636   4.252   2.673
  164SAPE   C2118331   6.745   4.272   2.741
  164SAPE   O2218332   0.024   4.336   2.713
  164SAPE   C2218333   6.730   4.212   2.881
  164SAPE   H2R18334   6.641   4.254   2.934
  164SAPE   H2S18335   6.712   4.102   2.881
  164SAPE    C318336   6.633   4.449   2.510
  164SAPE    HX18337   6.665   4.475   2.406
  164SAPE    HY18338   6.711   4.495   2.574
  164SAPE   O3118339   6.496   4.486   2.539
  164SAPE   C3118340   6.470   4.567   2.645
  164SAPE   O3218341   6.558   4.626   2.713
  164SAPE   C3218342   6.313   4.581   2.658
  164SAPE   H2X18343   6.268   4.617   2.564
  164SAPE   H2Y18344   6.282   4.657   2.734
  164SAPE   C2318345   0.041   4.246   2.969
  164SAPE   H3R18346   0.057   4.356   2.970
  164SAPE   H3S18347   0.127   4.195   2.922
  164SAPE   C2418348   0.032   4.205   3.122
  164SAPE   H4R18349   0.008   4.096   3.124
  164SAPE   H4S18350   6.768   4.252   3.177
  164SAPE   C2518351   0.164   4.230   3.192
  164SAPE   H5R18352   0.253   4.207   3.131
  164SAPE   C2618353   0.183   4.251   3.325
  164SAPE   H6R18354   0.289   4.265   3.351
  164SAPE   C2718355   0.072   4.287   3.421
  164SAPE   H7R18356   0.094   4.261   3.527
  164SAPE   H7S18357   6.801   4.224   3.408
  164SAPE   C2818358   0.035   4.436   3.418
  164SAPE   H8R18359   0.108   4.494   3.360
  164SAPE   C2918360   6.765   4.507   3.489
  164SAPE   H9R18361   6.749   4.611   3.456
  164SAPE  C21018362   6.659   4.443   3.584
  164SAPE  H10R18363   6.690   4.349   3.634
  164SAPE  H10S18364   6.571   4.411   3.524
  164SAPE  C21118365   6.623   4.542   3.689
  164SAPE  H11R18366   6.518   4.574   3.687
  164SAPE  C21218367   6.701   4.591   3.780
  164SAPE  H12R18368   6.650   4.654   3.855
  164SAPE  C21318369   0.029   4.565   3.811
  164SAPE  H13R18370   0.083   4.655   3.845
  164SAPE  H13S18371   0.077   4.553   3.712
  164SAPE  C21418372   0.059   4.445   3.897
  164SAPE  H14R18373   6.801   4.424   3.972
  164SAPE  C21518374   0.169   4.366   3.889
  164SAPE  H15R18375   0.176   4.277   3.953
  164SAPE  C21618376   0.282   4.403   3.796
  164SAPE  H16R18377   0.312   4.508   3.817
  164SAPE  H16S18378   0.253   4.392   3.689
  164SAPE  C21718379   0.411   4.326   3.825
  164SAPE  H17R18380   0.443   4.339   3.930
  164SAPE  H17S18381   0.489   4.383   3.770
  164SAPE  C21818382   0.404   4.175   3.781
  164SAPE  H18R18383   0.333   4.132   3.855
  164SAPE  H18S18384   0.497   4.124   3.815
  164SAPE  C21918385   0.356   4.138   3.640
  164SAPE  H19R18386   0.273   4.207   3.612
  164SAPE  H19S18387   0.310   4.037   3.649
  164SAPE  C22018388   0.459   4.143   3.530
  164SAPE  H20R18389   0.475   4.251   3.509
  164SAPE  H20S18390   0.410   4.097   3.442
  164SAPE  H20T18391   0.552   4.091   3.561
  164SAPE   C3318392   6.256   4.444   2.693
  164SAPE   H3X18393   6.270   4.364   2.617
  164SAPE   H3Y18394   6.148   4.469   2.697
  164SAPE   C3418395   6.303   4.403   2.832
  164SAPE   H4X18396   6.410   4.375   2.839
  164SAPE   H4Y18397   6.256   4.303   2.842
  164SAPE   C3518398   6.236   4.490   2.940
  164SAPE   H5X18399   6.126   4.503   2.932
  164SAPE   H5Y18400   6.281   4.591   2.943
  164SAPE   C3618401   6.258   4.430   3.083
  164SAPE   H6X18402   6.214   4.328   3.086
  164SAPE   H6Y18403   6.184   4.470   3.156
  164SAPE   C3718404   6.394   4.414   3.145
  164SAPE   H7X18405   6.419   4.518   3.175
  164SAPE   H7Y18406   6.470   4.373   3.075
  164SAPE   C3818407   6.392   4.320   3.272
  164SAPE   H8X18408   6.492   4.321   3.322
  164SAPE   H8Y18409   6.372   4.218   3.234
  164SAPE   C3918410   6.285   4.353   3.383
  164SAPE   H9X18411   6.179   4.346   3.350
  164SAPE   H9Y18412   6.296   4.458   3.417
  164SAPE  C31018413   6.308   4.252   3.505
  164SAPE  H10X18414   6.417   4.245   3.526
  164SAPE  H10Y18415   6.267   4.152   3.480
  164SAPE  C31118416   6.264   4.313   3.630
  164SAPE  H11X18417   6.338   4.393   3.648
  164SAPE  H11Y18418   6.269   4.242   3.715
  164SAPE  C31218419   6.126   4.379   3.630
  164SAPE  H12X18420   6.049   4.301   3.609
  164SAPE  H12Y18421   6.101   4.468   3.569
  164SAPE  C31318422   6.093   4.430   3.774
  164SAPE  H13X18423   6.098   4.337   3.834
  164SAPE  H13Y18424   5.986   4.460   3.767
  164SAPE  C31418425   6.179   4.552   3.815
  164SAPE  H14X18426   6.185   4.629   3.736
  164SAPE  H14Y18427   6.283   4.516   3.832
  164SAPE  C31518428   6.127   4.597   3.956
  164SAPE  H15X18429   6.016   4.587   3.954
  164SAPE  H15Y18430   6.149   4.704   3.978
  164SAPE  C31618431   6.180   4.516   4.079
  164SAPE  H16X18432   6.291   4.528   4.073
  164SAPE  H16Y18433   6.164   4.407   4.074
  164SAPE  C31718434   6.122   4.573   4.204
  164SAPE  H17X18435   6.012   4.555   4.202
  164SAPE  H17Y18436   6.128   4.684   4.207
  164SAPE  C31818437   6.168   4.525   4.343
  164SAPE  H18X18438   6.120   4.586   4.423
  164SAPE  H18Y18439   6.276   4.543   4.363
  164SAPE  H18Z18440   6.134   4.421   4.357
  165SAPE     N18441   5.865   0.301   2.217
  165SAPE   HN118442   5.955   0.316   2.167
  165SAPE   HN218443   5.830   0.205   2.199
  165SAPE   HN318444   5.792   0.367   2.183
  165SAPE   C1218445   5.868   0.310   2.368
  165SAPE  H12A18446   5.888   0.417   2.391
  165SAPE  H12B18447   5.961   0.256   2.397
  165SAPE   C1118448   5.740   0.258   2.426
  165SAPE  H11A18449   5.749   0.282   2.534
  165SAPE  H11B18450   5.736   0.148   2.411
  165SAPE     P18451   5.487   0.284   2.407
  165SAPE   O1318452   5.407   0.411   2.411
  165SAPE   O1418453   5.445   0.185   2.308
  165SAPE   O1218454   5.632   0.334   2.379
  165SAPE   O1118455   5.497   0.216   2.552
  165SAPE    C118456   5.445   0.286   2.665
  165SAPE    HA18457   5.345   0.332   2.653
  165SAPE    HB18458   5.408   0.214   2.741
  165SAPE    C218459   5.544   0.384   2.736
  165SAPE    HS18460   5.558   0.463   2.659
  165SAPE   O2118461   5.666   0.313   2.771
  165SAPE   C2118462   5.777   0.390   2.774
  165SAPE   O2218463   5.784   0.500   2.730
  165SAPE   C2218464   5.890   0.320   2.849
  165SAPE   H2R18465   5.922   0.246   2.772
  165SAPE   H2S18466   5.977   0.380   2.883
  165SAPE    C318467   5.470   0.456   2.854
  165SAPE    HX18468   5.377   0.494   2.806
  165SAPE    HY18469   5.531   0.542   2.891
  165SAPE   O3118470   5.434   0.362   2.956
  165SAPE   C3118471   5.474   0.395   3.083
  165SAPE   O3218472   5.528   0.496   3.112
  165SAPE   C3218473   5.462   0.276   3.168
  165SAPE   H2X18474   5.561   0.226   3.169
  165SAPE   H2Y18475   5.387   0.216   3.112
  165SAPE   C2318476   5.838   0.253   2.981
  165SAPE   H3R18477   5.896   0.159   2.975
  165SAPE   H3S18478   5.730   0.226   2.982
  165SAPE   C2418479   5.870   0.323   3.110
  165SAPE   H4R18480   5.813   0.418   3.106
  165SAPE   H4S18481   5.972   0.365   3.122
  165SAPE   C2518482   5.830   0.236   3.230
  165SAPE   H5R18483   5.862   0.131   3.229
  165SAPE   C2618484   5.771   0.278   3.343
  165SAPE   H6R18485   5.748   0.204   3.421
  165SAPE   C2718486   5.754   0.421   3.383
  165SAPE   H7R18487   5.676   0.460   3.314
  165SAPE   H7S18488   5.857   0.460   3.370
  165SAPE   C2818489   5.708   0.442   3.520
  165SAPE   H8R18490   5.609   0.491   3.520
  165SAPE   C2918491   5.778   0.428   3.632
  165SAPE   H9R18492   5.724   0.448   3.726
  165SAPE  C21018493   5.923   0.386   3.657
  165SAPE  H10R18494   5.966   0.463   3.724
  165SAPE  H10S18495   5.982   0.389   3.563
  165SAPE  C21118496   5.921   0.244   3.715
  165SAPE  H11R18497   5.973   0.173   3.650
  165SAPE  C21218498   5.918   0.220   3.851
  165SAPE  H12R18499   5.913   0.112   3.872
  165SAPE  C21318500   5.876   0.306   3.965
  165SAPE  H13R18501   5.839   0.241   4.047
  165SAPE  H13S18502   5.790   0.375   3.947
  165SAPE  C21418503   5.987   0.393   4.014
  165SAPE  H14R18504   6.028   0.473   3.950
  165SAPE  C21518505   6.068   0.359   4.120
  165SAPE  H15R18506   6.154   0.422   4.145
  165SAPE  C21618507   6.057   0.236   4.209
  165SAPE  H16R18508   5.966   0.175   4.193
  165SAPE  H16S18509   6.050   0.276   4.312
  165SAPE  C21718510   6.174   0.143   4.191
  165SAPE  H17R18511   6.274   0.183   4.215
  165SAPE  H17S18512   6.176   0.121   4.083
  165SAPE  C21818513   6.154   0.003   4.267
  165SAPE  H18R18514   6.229   6.760   4.214
  165SAPE  H18S18515   6.048   6.800   4.245
  165SAPE  C21918516   6.186   6.819   4.414
  165SAPE  H19R18517   6.097   6.786   4.472
  165SAPE  H19S18518   6.204   0.104   4.444
  165SAPE  C22018519   6.306   6.724   4.455
  165SAPE  H20R18520   6.387   6.736   4.380
  165SAPE  H20S18521   6.255   6.625   4.457
  165SAPE  H20T18522   6.348   6.743   4.556
  165SAPE   C3318523   5.400   0.319   3.303
  165SAPE   H3X18524   5.315   0.387   3.283
  165SAPE   H3Y18525   5.472   0.383   3.357
  165SAPE   C3418526   5.356   0.201   3.395
  165SAPE   H4X18527   5.286   0.136   3.339
  165SAPE   H4Y18528   5.301   0.245   3.480
  165SAPE   C3518529   5.466   0.119   3.456
  165SAPE   H5X18530   5.533   0.183   3.517
  165SAPE   H5Y18531   5.528   0.078   3.373
  165SAPE   C3618532   5.419   0.001   3.539
  165SAPE   H6X18533   5.500   6.750   3.569
  165SAPE   H6Y18534   5.355   6.751   3.482
  165SAPE   C3718535   5.359   0.042   3.675
  165SAPE   H7X18536   5.261   0.092   3.660
  165SAPE   H7Y18537   5.435   0.112   3.717
  165SAPE   C3818538   5.350   6.747   3.779
  165SAPE   H8X18539   5.445   6.693   3.802
  165SAPE   H8Y18540   5.282   6.668   3.742
  165SAPE   C3918541   5.309   6.806   3.913
  165SAPE   H9X18542   5.203   0.021   3.907
  165SAPE   H9Y18543   5.367   0.078   3.938
  165SAPE  C31018544   5.326   6.715   4.033
  165SAPE  H10X18545   5.431   6.682   4.023
  165SAPE  H10Y18546   5.267   6.621   4.026
  165SAPE  C31118547   5.301   6.777   4.172
  165SAPE  H11X18548   5.191   6.792   4.178
  165SAPE  H11Y18549   5.366   0.047   4.177
  165SAPE  C31218550   5.336   6.681   4.282
  165SAPE  H12X18551   5.326   6.751   4.368
  165SAPE  H12Y18552   5.444   6.652   4.279
  165SAPE  C31318553   5.240   6.557   4.293
  165SAPE  H13X18554   5.267   6.486   4.212
  165SAPE  H13Y18555   5.135   6.593   4.290
  165SAPE  C31418556   5.254   6.483   4.426
  165SAPE  H14X18557   5.222   6.549   4.510
  165SAPE  H14Y18558   5.360   6.461   4.449
  165SAPE  C31518559   5.169   6.354   4.417
  165SAPE  H15X18560   5.179   6.300   4.321
  165SAPE  H15Y18561   5.068   6.389   4.388
  165SAPE  C31618562   5.180   6.258   4.538
  165SAPE  H16X18563   5.085   6.209   4.569
  165SAPE  H16Y18564   5.195   6.324   4.627
  165SAPE  C31718565   5.293   6.153   4.529
  165SAPE  H17X18566   5.317   6.123   4.633
  165SAPE  H17Y18567   5.387   6.197   4.490
  165SAPE  C31818568   5.241   6.031   4.453
  165SAPE  H18X18569   5.319   5.955   4.477
  165SAPE  H18Y18570   5.235   6.057   4.346
  165SAPE  H18Z18571   5.138   5.999   4.481
  166SAPE     N18572   0.300   5.218   2.165
  166SAPE   HN118573   0.369   5.147   2.196
  166SAPE   HN218574   0.211   5.172   2.138
  166SAPE   HN318575   0.347   5.270   2.089
  166SAPE   C1218576   0.273   5.307   2.286
  166SAPE  H12A18577   0.372   5.349   2.314
  166SAPE  H12B18578   0.227   5.240   2.362
  166SAPE   C1118579   0.167   5.423   2.263
  166SAPE  H11A18580   0.209   5.497   2.192
  166SAPE  H11B18581   0.149   5.479   2.357
  166SAPE     P18582   6.754   5.461   2.152
  166SAPE   O1318583   6.804   5.499   2.016
  166SAPE   O1418584   6.627   5.395   2.163
  166SAPE   O1218585   0.037   5.375   2.220
  166SAPE   O1118586   6.760   5.589   2.248
  166SAPE    C118587   6.708   5.597   2.378
  166SAPE    HA18588   6.597   5.601   2.376
  166SAPE    HB18589   6.719   5.503   2.436
  166SAPE    C218590   6.756   5.711   2.471
  166SAPE    HS18591   6.780   5.804   2.414
  166SAPE   O2118592   0.048   5.663   2.540
  166SAPE   C2118593   0.121   5.747   2.615
  166SAPE   O2218594   0.097   5.864   2.634
  166SAPE   C2218595   0.253   5.682   2.656
  166SAPE   H2R18596   0.239   5.583   2.704
  166SAPE   H2S18597   0.309   5.661   2.562
  166SAPE    C318598   6.645   5.759   2.563
  166SAPE    HX18599   6.570   5.792   2.488
  166SAPE    HY18600   6.671   5.852   2.619
  166SAPE   O3118601   6.591   5.658   2.650
  166SAPE   C3118602   6.460   5.659   2.663
  166SAPE   O3218603   6.387   5.733   2.602
  166SAPE   C3218604   6.409   5.548   2.764
  166SAPE   H2X18605   6.462   5.452   2.745
  166SAPE   H2Y18606   6.299   5.538   2.753
  166SAPE   C2318607   0.335   5.774   2.754
  166SAPE   H3R18608   0.284   5.801   2.849
  166SAPE   H3S18609   0.342   5.871   2.701
  166SAPE   C2418610   0.469   5.717   2.807
  166SAPE   H4R18611   0.528   5.786   2.871
  166SAPE   H4S18612   0.524   5.707   2.711
  166SAPE   C2518613   0.459   5.589   2.876
  166SAPE   H5R18614   0.460   5.500   2.812
  166SAPE   C2618615   0.429   5.566   3.007
  166SAPE   H6R18616   0.434   5.464   3.048
  166SAPE   C2718617   0.403   5.674   3.114
  166SAPE   H7R18618   0.417   5.773   3.066
  166SAPE   H7S18619   0.478   5.661   3.194
  166SAPE   C2818620   0.269   5.656   3.186
  166SAPE   H8R18621   0.215   5.565   3.155
  166SAPE   C2918622   0.208   5.760   3.247
  166SAPE   H9R18623   0.107   5.751   3.290
  166SAPE  C21018624   0.285   5.889   3.274
  166SAPE  H10R18625   0.243   5.969   3.208
  166SAPE  H10S18626   0.393   5.881   3.252
  166SAPE  C21118627   0.277   5.927   3.422
  166SAPE  H11R18628   0.348   5.876   3.488
  166SAPE  C21218629   0.201   6.025   3.472
  166SAPE  H12R18630   0.192   6.046   3.580
  166SAPE  C21318631   0.111   6.126   3.395
  166SAPE  H13R18632   0.040   6.177   3.463
  166SAPE  H13S18633   0.048   6.084   3.314
  166SAPE  C21418634   0.192   6.232   3.325
  166SAPE  H14R18635   0.256   6.299   3.385
  166SAPE  C21518636   0.157   6.273   3.199
  166SAPE  H15R18637   0.228   6.339   3.147
  166SAPE  C21618638   0.041   6.243   3.103
  166SAPE  H16R18639   0.007   6.331   3.045
  166SAPE  H16S18640   6.772   6.206   3.159
  166SAPE  C21718641   0.092   6.144   2.995
  166SAPE  H17R18642   0.117   6.042   3.031
  166SAPE  H17S18643   0.190   6.175   2.953
  166SAPE  C21818644   6.814   6.119   2.880
  166SAPE  H18R18645   0.066   6.096   2.798
  166SAPE  H18S18646   6.743   6.198   2.848
  166SAPE  C21918647   6.719   5.999   2.908
  166SAPE  H19R18648   6.770   5.914   2.959
  166SAPE  H19S18649   6.677   5.960   2.812
  166SAPE  C22018650   6.604   6.027   2.995
  166SAPE  H20R18651   6.622   6.031   3.105
  166SAPE  H20S18652   6.529   5.946   2.990
  166SAPE  H20T18653   6.536   6.110   2.967
  166SAPE   C3318654   6.416   5.577   2.919
  166SAPE   H3X18655   6.373   5.498   2.984
  166SAPE   H3Y18656   6.364   5.668   2.955
  166SAPE   C3418657   6.567   5.588   2.969
  166SAPE   H4X18658   6.620   5.662   2.905
  166SAPE   H4Y18659   6.628   5.496   2.958
  166SAPE   C3518660   6.585   5.639   3.116
  166SAPE   H5X18661   6.552   5.745   3.116
  166SAPE   H5Y18662   6.692   5.630   3.143
  166SAPE   C3618663   6.500   5.571   3.224
  166SAPE   H6X18664   6.516   5.462   3.215
  166SAPE   H6Y18665   6.394   5.592   3.198
  166SAPE   C3718666   6.536   5.613   3.368
  166SAPE   H7X18667   6.647   5.623   3.367
  166SAPE   H7Y18668   6.511   5.533   3.441
  166SAPE   C3818669   6.491   5.749   3.422
  166SAPE   H8X18670   6.394   5.737   3.475
  166SAPE   H8Y18671   6.471   5.820   3.340
  166SAPE   C3918672   6.604   5.804   3.514
  166SAPE   H9X18673   6.569   5.908   3.535
  166SAPE   H9Y18674   6.698   5.809   3.456
  166SAPE  C31018675   6.616   5.714   3.640
  166SAPE  H10X18676   6.625   5.612   3.596
  166SAPE  H10Y18677   6.526   5.713   3.705
  166SAPE  C31118678   6.723   5.757   3.735
  166SAPE  H11X18679   6.694   5.853   3.781
  166SAPE  H11Y18680   0.000   5.760   3.681
  166SAPE  C31218681   6.729   5.649   3.851
  166SAPE  H12X18682   6.748   5.549   3.808
  166SAPE  H12Y18683   6.638   5.656   3.914
  166SAPE  C31318684   0.018   5.684   3.954
  166SAPE  H13X18685   0.015   5.792   3.980
  166SAPE  H13Y18686   0.120   5.661   3.916
  166SAPE  C31418687   6.804   5.606   4.086
  166SAPE  H14X18688   6.773   5.501   4.066
  166SAPE  H14Y18689   6.714   5.652   4.134
  166SAPE  C31518690   0.099   5.612   4.185
  166SAPE  H15X18691   0.190   5.574   4.134
  166SAPE  H15Y18692   0.089   5.551   4.278
  166SAPE  C31618693   0.146   5.748   4.235
  166SAPE  H16X18694   0.062   5.797   4.288
  166SAPE  H16Y18695   0.158   5.811   4.144
  166SAPE  C31718696   0.272   5.725   4.316
  166SAPE  H17X18697   0.341   5.656   4.262
  166SAPE  H17Y18698   0.253   5.693   4.421
  166SAPE  C31818699   0.340   5.860   4.330
  166SAPE  H18X18700   0.423   5.853   4.405
  166SAPE  H18Y18701   0.267   5.926   4.380
  166SAPE  H18Z18702   0.374   5.895   4.231
  167SAPE     N18703   6.255   3.215   2.161
  167SAPE   HN118704   6.214   3.209   2.066
  167SAPE   HN218705   6.207   3.139   2.215
  167SAPE   HN318706   6.218   3.307   2.191
  167SAPE   C1218707   6.404   3.201   2.177
  167SAPE  H12A18708   6.447   3.288   2.124
  167SAPE  H12B18709   6.443   3.105   2.137
  167SAPE   C1118710   6.426   3.207   2.333
  167SAPE  H11A18711   6.382   3.112   2.371
  167SAPE  H11B18712   6.369   3.288   2.383
  167SAPE     P18713   6.633   3.325   2.448
  167SAPE   O1318714   6.778   3.291   2.433
  167SAPE   O1418715   6.586   3.460   2.416
  167SAPE   O1218716   6.559   3.208   2.371
  167SAPE   O1118717   6.592   3.298   2.602
  167SAPE    C118718   6.456   3.320   2.634
  167SAPE    HA18719   6.403   3.396   2.572
  167SAPE    HB18720   6.404   3.224   2.614
  167SAPE    C218721   6.439   3.348   2.789
  167SAPE    HS18722   6.330   3.361   2.809
  167SAPE   O2118723   6.501   3.464   2.846
  167SAPE   C2118724   6.483   3.574   2.787
  167SAPE   O2218725   6.398   3.598   2.705
  167SAPE   C2218726   6.584   3.673   2.839
  167SAPE   H2R18727   6.686   3.633   2.860
  167SAPE   H2S18728   6.599   3.738   2.751
  167SAPE    C318729   6.487   3.228   2.870
  167SAPE    HX18730   6.596   3.207   2.862
  167SAPE    HY18731   6.442   3.140   2.819
  167SAPE   O3118732   6.449   3.232   3.009
  167SAPE   C3118733   6.540   3.280   3.089
  167SAPE   O3218734   6.648   3.319   3.060
  167SAPE   C3218735   6.490   3.276   3.237
  167SAPE   H2X18736   6.412   3.200   3.257
  167SAPE   H2Y18737   6.440   3.374   3.255
  167SAPE   C2318738   6.525   3.774   2.937
  167SAPE   H3R18739   6.439   3.824   2.888
  167SAPE   H3S18740   6.591   3.863   2.947
  167SAPE   C2418741   6.505   3.719   3.081
  167SAPE   H4R18742   6.586   3.655   3.124
  167SAPE   H4S18743   6.428   3.641   3.065
  167SAPE   C2518744   6.458   3.830   3.167
  167SAPE   H5R18745   6.351   3.854   3.175
  167SAPE   C2618746   6.545   3.892   3.249
  167SAPE   H6R18747   6.501   3.978   3.301
  167SAPE   C2718748   6.693   3.870   3.264
  167SAPE   H7R18749   6.730   3.962   3.314
  167SAPE   H7S18750   6.745   3.870   3.165
  167SAPE   C2818751   6.740   3.746   3.341
  167SAPE   H8R18752   6.793   3.672   3.279
  167SAPE   C2918753   6.749   3.738   3.473
  167SAPE   H9R18754   6.789   3.643   3.513
  167SAPE  C21018755   6.689   3.827   3.578
  167SAPE  H10R18756   6.660   3.775   3.672
  167SAPE  H10S18757   6.592   3.873   3.547
  167SAPE  C21118758   6.780   3.941   3.624
  167SAPE  H11R18759   0.051   3.950   3.562
  167SAPE  C21218760   6.762   4.030   3.717
  167SAPE  H12R18761   0.016   4.110   3.735
  167SAPE  C21318762   6.644   4.038   3.801
  167SAPE  H13R18763   6.559   3.981   3.759
  167SAPE  H13S18764   6.616   4.145   3.797
  167SAPE  C21418765   6.666   3.991   3.937
  167SAPE  H14R18766   6.757   3.930   3.949
  167SAPE  C21518767   6.594   4.023   4.042
  167SAPE  H15R18768   6.624   3.994   4.144
  167SAPE  C21618769   6.487   4.126   4.036
  167SAPE  H16R18770   6.398   4.061   4.029
  167SAPE  H16S18771   6.489   4.187   3.943
  167SAPE  C21718772   6.458   4.207   4.165
  167SAPE  H17R18773   6.426   4.140   4.248
  167SAPE  H17S18774   6.380   4.280   4.132
  167SAPE  C21818775   6.574   4.288   4.218
  167SAPE  H18R18776   6.662   4.221   4.212
  167SAPE  H18S18777   6.565   4.326   4.322
  167SAPE  C21918778   6.590   4.410   4.135
  167SAPE  H19R18779   6.499   4.473   4.129
  167SAPE  H19S18780   6.613   4.393   4.028
  167SAPE  C22018781   6.696   4.510   4.183
  167SAPE  H20R18782   6.799   4.469   4.181
  167SAPE  H20S18783   6.681   4.540   4.289
  167SAPE  H20T18784   6.698   4.603   4.123
  167SAPE   C3318785   6.609   3.266   3.333
  167SAPE   H3X18786   6.689   3.335   3.297
  167SAPE   H3Y18787   6.652   3.165   3.316
  167SAPE   C3418788   6.580   3.288   3.487
  167SAPE   H4X18789   6.498   3.218   3.514
  167SAPE   H4Y18790   6.526   3.383   3.508
  167SAPE   C3518791   6.694   3.272   3.583
  167SAPE   H5X18792   6.768   3.347   3.550
  167SAPE   H5Y18793   6.741   3.171   3.581
  167SAPE   C3618794   6.660   3.302   3.730
  167SAPE   H6X18795   6.606   3.221   3.783
  167SAPE   H6Y18796   6.575   3.374   3.734
  167SAPE   C3718797   6.789   3.345   3.816
  167SAPE   H7X18798   0.024   3.430   3.771
  167SAPE   H7Y18799   0.030   3.256   3.788
  167SAPE   C3818800   6.771   3.347   3.965
  167SAPE   H8X18801   6.712   3.254   3.977
  167SAPE   H8Y18802   6.699   3.432   3.968
  167SAPE   C3918803   0.070   3.345   4.060
  167SAPE   H9X18804   0.153   3.415   4.035
  167SAPE   H9Y18805   0.123   3.248   4.058
  167SAPE  C31018806   0.034   3.381   4.207
  167SAPE  H10X18807   6.780   3.305   4.241
  167SAPE  H10Y18808   0.004   3.488   4.212
  167SAPE  C31118809   0.163   3.369   4.292
  167SAPE  H11X18810   0.192   3.476   4.287
  167SAPE  H11Y18811   0.236   3.305   4.237
  167SAPE  C31218812   0.161   3.306   4.437
  167SAPE  H12X18813   0.101   3.212   4.429
  167SAPE  H12Y18814   0.100   3.369   4.505
  167SAPE  C31318815   0.300   3.281   4.488
  167SAPE  H13X18816   0.362   3.373   4.495
  167SAPE  H13Y18817   0.342   3.211   4.412
  167SAPE  C31418818   0.298   3.207   4.619
  167SAPE  H14X18819   0.237   3.114   4.610
  167SAPE  H14Y18820   0.249   3.276   4.690
  167SAPE  C31518821   0.447   3.172   4.659
  167SAPE  H15X18822   0.510   3.262   4.644
  167SAPE  H15Y18823   0.502   3.107   4.587
  167SAPE  C31618824   0.456   3.116   4.801
  167SAPE  H16X18825   0.386   3.151   4.880
  167SAPE  H16Y18826   0.556   3.131   4.846
  167SAPE  C31718827   0.432   2.963   4.802
  167SAPE  H17X18828   0.479   2.921   4.711
  167SAPE  H17Y18829   0.326   2.935   4.788
  167SAPE  C31818830   0.492   2.886   4.926
  167SAPE  H18X18831   0.481   2.776   4.922
  167SAPE  H18Y18832   0.445   2.933   5.015
  167SAPE  H18Z18833   0.602   2.902   4.918
  168SAPE     N18834   3.142   5.531   2.136
  168SAPE   HN118835   3.139   5.463   2.214
  168SAPE   HN218836   3.213   5.507   2.063
  168SAPE   HN318837   3.179   5.625   2.164
  168SAPE   C1218838   3.008   5.540   2.063
  168SAPE  H12A18839   3.008   5.469   1.978
  168SAPE  H12B18840   3.000   5.640   2.016
  168SAPE   C1118841   2.879   5.517   2.145
  168SAPE  H11A18842   2.795   5.493   2.075
  168SAPE  H11B18843   2.853   5.607   2.205
  168SAPE     P18844   2.845   5.401   2.372
  168SAPE   O1318845   2.839   5.257   2.409
  168SAPE   O1418846   2.941   5.489   2.444
  168SAPE   O1218847   2.895   5.399   2.225
  168SAPE   O1118848   2.696   5.461   2.377
  168SAPE    C118849   2.655   5.594   2.411
  168SAPE    HA18850   2.733   5.672   2.396
  168SAPE    HB18851   2.571   5.628   2.345
  168SAPE    C218852   2.603   5.610   2.557
  168SAPE    HS18853   2.573   5.716   2.572
  168SAPE   O2118854   2.697   5.581   2.661
  168SAPE   C2118855   2.807   5.658   2.675
  168SAPE   O2218856   2.815   5.764   2.616
  168SAPE   C2218857   2.903   5.593   2.772
  168SAPE   H2R18858   2.856   5.558   2.866
  168SAPE   H2S18859   2.954   5.507   2.724
  168SAPE    C318860   2.472   5.522   2.568
  168SAPE    HX18861   2.493   5.414   2.554
  168SAPE    HY18862   2.404   5.563   2.490
  168SAPE   O3118863   2.403   5.543   2.697
  168SAPE   C3118864   2.306   5.459   2.723
  168SAPE   O3218865   2.252   5.375   2.652
  168SAPE   C3218866   2.251   5.501   2.863
  168SAPE   H2X18867   2.216   5.409   2.915
  168SAPE   H2Y18868   2.164   5.564   2.834
  168SAPE   C2318869   3.008   5.700   2.804
  168SAPE   H3R18870   2.971   5.782   2.868
  168SAPE   H3S18871   3.052   5.739   2.710
  168SAPE   C2418872   3.126   5.647   2.891
  168SAPE   H4R18873   3.208   5.719   2.912
  168SAPE   H4S18874   3.173   5.561   2.838
  168SAPE   C2518875   3.097   5.572   3.023
  168SAPE   H5R18876   3.025   5.489   3.010
  168SAPE   C2618877   3.152   5.592   3.145
  168SAPE   H6R18878   3.118   5.535   3.233
  168SAPE   C2718879   3.252   5.703   3.172
  168SAPE   H7R18880   3.191   5.795   3.173
  168SAPE   H7S18881   3.325   5.730   3.092
  168SAPE   C2818882   3.321   5.702   3.309
  168SAPE   H8R18883   3.390   5.617   3.316
  168SAPE   C2918884   3.308   5.792   3.409
  168SAPE   H9R18885   3.362   5.773   3.503
  168SAPE  C21018886   3.234   5.926   3.411
  168SAPE  H10R18887   3.133   5.921   3.458
  168SAPE  H10S18888   3.196   5.957   3.311
  168SAPE  C21118889   3.314   6.037   3.475
  168SAPE  H11R18890   3.273   6.053   3.576
  168SAPE  C21218891   3.417   6.114   3.420
  168SAPE  H12R18892   3.460   6.192   3.485
  168SAPE  C21318893   3.469   6.090   3.281
  168SAPE  H13R18894   3.468   5.983   3.253
  168SAPE  H13S18895   3.569   6.137   3.269
  168SAPE  C21418896   3.383   6.150   3.173
  168SAPE  H14R18897   3.282   6.107   3.165
  168SAPE  C21518898   3.413   6.236   3.076
  168SAPE  H15R18899   3.332   6.265   3.007
  168SAPE  C21618900   3.539   6.305   3.046
  168SAPE  H16R18901   3.633   6.255   3.081
  168SAPE  H16S18902   3.537   6.409   3.086
  168SAPE  C21718903   3.551   6.321   2.892
  168SAPE  H17R18904   3.460   6.369   2.851
  168SAPE  H17S18905   3.552   6.219   2.849
  168SAPE  C21818906   3.675   6.410   2.853
  168SAPE  H18R18907   3.774   6.360   2.850
  168SAPE  H18S18908   3.675   6.493   2.927
  168SAPE  C21918909   3.662   6.459   2.706
  168SAPE  H19R18910   3.623   6.372   2.649
  168SAPE  H19S18911   3.767   6.478   2.673
  168SAPE  C22018912   3.567   6.572   2.680
  168SAPE  H20R18913   3.568   6.604   2.574
  168SAPE  H20S18914   3.599   6.664   2.734
  168SAPE  H20T18915   3.463   6.554   2.714
  168SAPE   C3318916   2.348   5.579   2.953
  168SAPE   H3X18917   2.345   5.688   2.935
  168SAPE   H3Y18918   2.449   5.551   2.917
  168SAPE   C3418919   2.342   5.544   3.099
  168SAPE   H4X18920   2.426   5.603   3.141
  168SAPE   H4Y18921   2.361   5.434   3.103
  168SAPE   C3518922   2.204   5.560   3.170
  168SAPE   H5X18923   2.140   5.493   3.108
  168SAPE   H5Y18924   2.160   5.660   3.151
  168SAPE   C3618925   2.202   5.516   3.316
  168SAPE   H6X18926   2.209   5.406   3.327
  168SAPE   H6Y18927   2.101   5.541   3.355
  168SAPE   C3718928   2.307   5.575   3.409
  168SAPE   H7X18929   2.281   5.683   3.400
  168SAPE   H7Y18930   2.408   5.554   3.369
  168SAPE   C3818931   2.296   5.546   3.557
  168SAPE   H8X18932   2.389   5.565   3.614
  168SAPE   H8Y18933   2.284   5.436   3.566
  168SAPE   C3918934   2.168   5.601   3.614
  168SAPE   H9X18935   2.102   5.512   3.626
  168SAPE   H9Y18936   2.125   5.680   3.549
  168SAPE  C31018937   2.190   5.674   3.746
  168SAPE  H10X18938   2.259   5.757   3.719
  168SAPE  H10Y18939   2.236   5.601   3.816
  168SAPE  C31118940   2.065   5.729   3.811
  168SAPE  H11X18941   1.992   5.651   3.842
  168SAPE  H11Y18942   2.020   5.782   3.724
  168SAPE  C31218943   2.096   5.821   3.933
  168SAPE  H12X18944   2.009   5.888   3.950
  168SAPE  H12Y18945   2.181   5.888   3.910
  168SAPE  C31318946   2.128   5.745   4.063
  168SAPE  H13X18947   2.213   5.682   4.028
  168SAPE  H13Y18948   2.045   5.678   4.094
  168SAPE  C31418949   2.185   5.834   4.171
  168SAPE  H14X18950   2.263   5.896   4.122
  168SAPE  H14Y18951   2.228   5.774   4.254
  168SAPE  C31518952   2.078   5.913   4.240
  168SAPE  H15X18953   2.071   6.005   4.177
  168SAPE  H15Y18954   2.126   5.932   4.338
  168SAPE  C31618955   1.950   5.835   4.269
  168SAPE  H16X18956   1.978   5.741   4.320
  168SAPE  H16Y18957   1.895   5.804   4.178
  168SAPE  C31718958   1.854   5.919   4.360
  168SAPE  H17X18959   1.801   5.998   4.303
  168SAPE  H17Y18960   1.915   5.974   4.434
  168SAPE  C31818961   1.746   5.838   4.435
  168SAPE  H18X18962   1.677   5.785   4.367
  168SAPE  H18Y18963   1.691   5.900   4.510
  168SAPE  H18Z18964   1.797   5.758   4.493
  169SAPE     N18965   6.177   2.492   2.494
  169SAPE   HN118966   6.259   2.445   2.538
  169SAPE   HN218967   6.160   2.562   2.569
  169SAPE   HN318968   6.090   2.434   2.494
  169SAPE   C1218969   6.207   2.541   2.355
  169SAPE  H12A18970   6.117   2.536   2.289
  169SAPE  H12B18971   6.282   2.478   2.303
  169SAPE   C1118972   6.248   2.688   2.363
  169SAPE  H11A18973   6.243   2.725   2.259
  169SAPE  H11B18974   6.352   2.681   2.403
  169SAPE     P18975   6.182   2.914   2.460
  169SAPE   O1318976   6.181   2.981   2.326
  169SAPE   O1418977   6.097   2.970   2.566
  169SAPE   O1218978   6.153   2.765   2.443
  169SAPE   O1118979   6.333   2.910   2.502
  169SAPE    C118980   6.389   2.957   2.620
  169SAPE    HA18981   6.485   3.007   2.593
  169SAPE    HB18982   6.325   3.042   2.654
  169SAPE    C218983   6.395   2.851   2.733
  169SAPE    HS18984   6.330   2.769   2.697
  169SAPE   O2118985   6.342   2.911   2.852
  169SAPE   C2118986   6.277   2.829   2.933
  169SAPE   O2218987   6.254   2.716   2.918
  169SAPE   C2218988   6.219   2.910   3.044
  169SAPE   H2R18989   6.160   2.993   2.999
  169SAPE   H2S18990   6.143   2.846   3.094
  169SAPE    C318991   6.543   2.812   2.760
  169SAPE    HX18992   6.586   2.906   2.802
  169SAPE    HY18993   6.590   2.794   2.661
  169SAPE   O3118994   6.565   2.705   2.854
  169SAPE   C3118995   6.545   2.580   2.808
  169SAPE   O3218996   6.500   2.553   2.696
  169SAPE   C3218997   6.599   2.472   2.905
  169SAPE   H2X18998   6.705   2.461   2.876
  169SAPE   H2Y18999   6.548   2.380   2.868
  169SAPE   C2319000   6.324   2.953   3.141
  169SAPE   H3R19001   6.272   3.028   3.204
  169SAPE   H3S19002   6.404   3.007   3.087
  169SAPE   C2419003   6.392   2.849   3.224
  169SAPE   H4R19004   6.492   2.881   3.260
  169SAPE   H4S19005   6.412   2.763   3.157
  169SAPE   C2519006   6.306   2.807   3.341
  169SAPE   H5R19007   6.204   2.777   3.312
  169SAPE   C2619008   6.338   2.805   3.473
  169SAPE   H6R19009   6.280   2.748   3.547
  169SAPE   C2719010   6.473   2.842   3.543
  169SAPE   H7R19011   6.467   2.945   3.583
  169SAPE   H7S19012   6.555   2.850   3.469
  169SAPE   C2819013   6.515   2.751   3.663
  169SAPE   H8R19014   6.563   2.657   3.634
  169SAPE   C2919015   6.496   2.782   3.795
  169SAPE   H9R19016   6.529   2.715   3.875
  169SAPE  C21019017   6.428   2.911   3.843
  169SAPE  H10R19018   6.322   2.921   3.811
  169SAPE  H10S19019   6.483   2.993   3.791
  169SAPE  C21119020   6.433   2.913   3.994
  169SAPE  H11R19021   6.446   2.815   4.042
  169SAPE  C21219022   6.415   3.029   4.062
  169SAPE  H12R19023   6.405   3.017   4.171
  169SAPE  C21319024   6.404   3.165   4.002
  169SAPE  H13R19025   6.402   3.154   3.891
  169SAPE  H13S19026   6.500   3.220   4.014
  169SAPE  C21419027   6.287   3.247   4.056
  169SAPE  H14R19028   6.316   3.309   4.142
  169SAPE  C21519029   6.167   3.258   3.999
  169SAPE  H15R19030   6.091   3.318   4.052
  169SAPE  C21619031   6.119   3.176   3.881
  169SAPE  H16R19032   6.012   3.158   3.901
  169SAPE  H16S19033   6.171   3.078   3.882
  169SAPE  C21719034   6.147   3.246   3.745
  169SAPE  H17R19035   6.254   3.241   3.719
  169SAPE  H17S19036   6.135   3.352   3.778
  169SAPE  C21819037   6.059   3.214   3.621
  169SAPE  H18R19038   6.059   3.309   3.565
  169SAPE  H18S19039   5.955   3.186   3.652
  169SAPE  C21919040   6.114   3.113   3.522
  169SAPE  H19R19041   6.120   3.016   3.576
  169SAPE  H19S19042   6.213   3.145   3.483
  169SAPE  C22019043   6.025   3.074   3.398
  169SAPE  H20R19044   6.008   3.163   3.334
  169SAPE  H20S19045   5.922   3.040   3.423
  169SAPE  H20T19046   6.070   2.991   3.339
  169SAPE   C3319047   6.573   2.508   3.058
  169SAPE   H3X19048   6.466   2.535   3.069
  169SAPE   H3Y19049   6.631   2.598   3.089
  169SAPE   C3419050   6.636   2.399   3.154
  169SAPE   H4X19051   6.727   2.358   3.106
  169SAPE   H4Y19052   6.555   2.323   3.162
  169SAPE   C3519053   6.655   2.451   3.297
  169SAPE   H5X19054   6.553   2.486   3.324
  169SAPE   H5Y19055   6.715   2.544   3.305
  169SAPE   C3619056   6.685   2.347   3.408
  169SAPE   H6X19057   6.787   2.303   3.406
  169SAPE   H6Y19058   6.607   2.272   3.384
  169SAPE   C3719059   6.669   2.407   3.546
  169SAPE   H7X19060   6.570   2.457   3.553
  169SAPE   H7Y19061   6.741   2.491   3.548
  169SAPE   C3819062   6.694   2.322   3.675
  169SAPE   H8X19063   6.805   2.323   3.686
  169SAPE   H8Y19064   6.659   2.217   3.668
  169SAPE   C3919065   6.635   2.378   3.805
  169SAPE   H9X19066   6.527   2.405   3.797
  169SAPE   H9Y19067   6.707   2.452   3.845
  169SAPE  C31019068   6.634   2.269   3.913
  169SAPE  H10X19069   6.736   2.234   3.940
  169SAPE  H10Y19070   6.587   2.175   3.877
  169SAPE  C31119071   6.568   2.325   4.042
  169SAPE  H11X19072   6.475   2.384   4.031
  169SAPE  H11Y19073   6.634   2.399   4.093
  169SAPE  C31219074   6.536   2.213   4.143
  169SAPE  H12X19075   6.624   2.149   4.166
  169SAPE  H12Y19076   6.466   2.142   4.094
  169SAPE  C31319077   6.486   2.261   4.273
  169SAPE  H13X19078   6.385   2.304   4.257
  169SAPE  H13Y19079   6.550   2.344   4.311
  169SAPE  C31419080   6.486   2.158   4.383
  169SAPE  H14X19081   6.589   2.119   4.398
  169SAPE  H14Y19082   6.426   2.068   4.357
  169SAPE  C31519083   6.454   2.208   4.526
  169SAPE  H15X19084   6.344   2.213   4.535
  169SAPE  H15Y19085   6.486   2.313   4.545
  169SAPE  C31619086   6.520   2.120   4.630
  169SAPE  H16X19087   6.493   2.164   4.728
  169SAPE  H16Y19088   6.630   2.137   4.622
  169SAPE  C31719089   6.488   1.968   4.622
  169SAPE  H17X19090   6.489   1.948   4.513
  169SAPE  H17Y19091   6.385   1.965   4.663
  169SAPE  C31819092   6.586   1.875   4.700
  169SAPE  H18X19093   6.560   1.890   4.807
  169SAPE  H18Y19094   6.689   1.915   4.683
  169SAPE  H18Z19095   6.578   1.768   4.674
  170SAPE     N19096   0.118   4.039   1.983
  170SAPE   HN119097   0.089   4.138   1.973
  170SAPE   HN219098   0.222   4.039   1.988
  170SAPE   HN319099   0.083   3.984   1.902
  170SAPE   C1219100   0.062   3.965   2.109
  170SAPE  H12A19101   6.777   3.999   2.109
  170SAPE  H12B19102   0.115   4.007   2.198
  170SAPE   C1119103   0.073   3.816   2.108
  170SAPE  H11A19104   0.061   3.781   2.003
  170SAPE  H11B19105   6.809   3.773   2.167
  170SAPE     P19106   0.233   3.627   2.195
  170SAPE   O1319107   0.136   3.540   2.120
  170SAPE   O1419108   0.375   3.595   2.174
  170SAPE   O1219109   0.209   3.778   2.148
  170SAPE   O1119110   0.209   3.617   2.352
  170SAPE    C119111   0.113   3.696   2.427
  170SAPE    HA19112   0.116   3.803   2.397
  170SAPE    HB19113   0.008   3.658   2.421
  170SAPE    C219114   0.155   3.683   2.581
  170SAPE    HS19115   0.262   3.713   2.587
  170SAPE   O2119116   0.138   3.547   2.616
  170SAPE   C2119117   0.217   3.514   2.713
  170SAPE   O2219118   0.296   3.589   2.765
  170SAPE   C2219119   0.198   3.375   2.763
  170SAPE   H2R19120   0.098   3.363   2.811
  170SAPE   H2S19121   0.197   3.309   2.673
  170SAPE    C319122   0.057   3.779   2.665
  170SAPE    HX19123   6.774   3.738   2.654
  170SAPE    HY19124   0.060   3.877   2.613
  170SAPE   O3119125   0.089   3.791   2.807
  170SAPE   C3119126   0.190   3.861   2.848
  170SAPE   O3219127   0.264   3.927   2.781
  170SAPE   C3219128   0.203   3.847   2.999
  170SAPE   H2X19129   0.140   3.765   3.039
  170SAPE   H2Y19130   0.182   3.948   3.041
  170SAPE   C2319131   0.310   3.331   2.855
  170SAPE   H3R19132   0.407   3.324   2.800
  170SAPE   H3S19133   0.283   3.230   2.893
  170SAPE   C2419134   0.326   3.399   2.988
  170SAPE   H4R19135   0.383   3.492   2.973
  170SAPE   H4S19136   0.390   3.330   3.047
  170SAPE   C2519137   0.194   3.428   3.066
  170SAPE   H5R19138   0.124   3.492   3.011
  170SAPE   C2619139   0.152   3.400   3.192
  170SAPE   H6R19140   0.054   3.441   3.220
  170SAPE   C2719141   0.226   3.321   3.302
  170SAPE   H7R19142   0.243   3.377   3.396
  170SAPE   H7S19143   0.332   3.298   3.280
  170SAPE   C2819144   0.161   3.189   3.338
  170SAPE   H8R19145   0.078   3.146   3.280
  170SAPE   C2919146   0.210   3.110   3.432
  170SAPE   H9R19147   0.152   3.018   3.449
  170SAPE  C21019148   0.320   3.129   3.539
  170SAPE  H10R19149   0.416   3.159   3.491
  170SAPE  H10S19150   0.342   3.028   3.579
  170SAPE  C21119151   0.281   3.227   3.644
  170SAPE  H11R19152   0.219   3.310   3.607
  170SAPE  C21219153   0.311   3.226   3.775
  170SAPE  H12R19154   0.291   3.309   3.845
  170SAPE  C21319155   0.384   3.110   3.839
  170SAPE  H13R19156   0.460   3.082   3.763
  170SAPE  H13S19157   0.320   3.019   3.844
  170SAPE  C21419158   0.440   3.136   3.976
  170SAPE  H14R19159   0.367   3.163   4.054
  170SAPE  C21519160   0.578   3.126   3.996
  170SAPE  H15R19161   0.615   3.141   4.098
  170SAPE  C21619162   0.690   3.087   3.898
  170SAPE  H16R19163   0.727   3.174   3.840
  170SAPE  H16S19164   0.666   3.007   3.824
  170SAPE  C21719165   0.813   3.040   3.984
  170SAPE  H17R19166   0.887   2.990   3.917
  170SAPE  H17S19167   0.774   2.960   4.050
  170SAPE  C21819168   0.893   3.147   4.050
  170SAPE  H18R19169   0.844   3.174   4.146
  170SAPE  H18S19170   0.898   3.238   3.987
  170SAPE  C21919171   1.038   3.105   4.071
  170SAPE  H19R19172   1.071   3.075   3.969
  170SAPE  H19S19173   1.043   3.010   4.127
  170SAPE  C22019174   1.119   3.215   4.140
  170SAPE  H20R19175   1.100   3.306   4.079
  170SAPE  H20S19176   1.222   3.178   4.159
  170SAPE  H20T19177   1.086   3.236   4.244
  170SAPE   C3319178   0.348   3.820   3.047
  170SAPE   H3X19179   0.411   3.888   2.986
  170SAPE   H3Y19180   0.376   3.717   3.019
  170SAPE   C3419181   0.365   3.854   3.195
  170SAPE   H4X19182   0.331   3.958   3.213
  170SAPE   H4Y19183   0.475   3.862   3.213
  170SAPE   C3519184   0.300   3.753   3.286
  170SAPE   H5X19185   0.327   3.650   3.255
  170SAPE   H5Y19186   0.189   3.753   3.280
  170SAPE   C3619187   0.340   3.770   3.432
  170SAPE   H6X19188   0.321   3.876   3.460
  170SAPE   H6Y19189   0.450   3.759   3.427
  170SAPE   C3719190   0.283   3.670   3.530
  170SAPE   H7X19191   0.329   3.569   3.533
  170SAPE   H7Y19192   0.174   3.661   3.511
  170SAPE   C3819193   0.296   3.726   3.668
  170SAPE   H8X19194   0.222   3.808   3.682
  170SAPE   H8Y19195   0.397   3.766   3.689
  170SAPE   C3919196   0.265   3.615   3.766
  170SAPE   H9X19197   0.327   3.527   3.736
  170SAPE   H9Y19198   0.158   3.589   3.751
  170SAPE  C31019199   0.297   3.657   3.916
  170SAPE  H10X19200   0.401   3.694   3.921
  170SAPE  H10Y19201   0.284   3.569   3.983
  170SAPE  C31119202   0.206   3.775   3.967
  170SAPE  H11X19203   0.105   3.731   3.976
  170SAPE  H11Y19204   0.191   3.854   3.891
  170SAPE  C31219205   0.254   3.855   4.092
  170SAPE  H12X19206   0.358   3.893   4.081
  170SAPE  H12Y19207   0.267   3.779   4.171
  170SAPE  C31319208   0.154   3.961   4.134
  170SAPE  H13X19209   0.053   3.917   4.150
  170SAPE  H13Y19210   0.131   4.041   4.061
  170SAPE  C31419211   0.208   4.026   4.264
  170SAPE  H14X19212   0.311   4.067   4.253
  170SAPE  H14Y19213   0.205   3.948   4.344
  170SAPE  C31519214   0.112   4.135   4.312
  170SAPE  H15X19215   0.016   4.089   4.343
  170SAPE  H15Y19216   0.102   4.205   4.227
  170SAPE  C31619217   0.167   4.206   4.434
  170SAPE  H16X19218   0.270   4.237   4.405
  170SAPE  H16Y19219   0.170   4.128   4.513
  170SAPE  C31719220   0.086   4.332   4.473
  170SAPE  H17X19221   0.028   4.357   4.382
  170SAPE  H17Y19222   0.161   4.414   4.477
  170SAPE  C31819223   0.016   4.305   4.605
  170SAPE  H18X19224   6.771   4.215   4.597
  170SAPE  H18Y19225   6.760   4.381   4.634
  170SAPE  H18Z19226   0.089   4.283   4.686
  171SAPE     N19227   0.153   2.935   2.140
  171SAPE   HN119228   0.192   3.013   2.084
  171SAPE   HN219229   0.077   2.889   2.084
  171SAPE   HN319230   0.107   2.973   2.225
  171SAPE   C1219231   0.273   2.844   2.165
  171SAPE  H12A19232   0.360   2.911   2.183
  171SAPE  H12B19233   0.289   2.775   2.079
  171SAPE   C1119234   0.247   2.759   2.293
  171SAPE  H11A19235   0.239   2.822   2.384
  171SAPE  H11B19236   0.337   2.702   2.323
  171SAPE     P19237   0.136   2.519   2.263
  171SAPE   O1319238   0.024   2.478   2.177
  171SAPE   O1419239   0.275   2.487   2.218
  171SAPE   O1219240   0.130   2.674   2.272
  171SAPE   O1119241   0.110   2.475   2.414
  171SAPE    C119242   0.210   2.518   2.507
  171SAPE    HA19243   0.299   2.452   2.505
  171SAPE    HB19244   0.244   2.623   2.493
  171SAPE    C219245   0.148   2.516   2.654
  171SAPE    HS19246   0.243   2.528   2.709
  171SAPE   O2119247   0.068   2.393   2.685
  171SAPE   C2119248   0.153   2.289   2.702
  171SAPE   O2219249   0.271   2.295   2.701
  171SAPE   C2219250   0.070   2.156   2.714
  171SAPE   H2R19251   0.000   2.146   2.628
  171SAPE   H2S19252   0.148   2.077   2.721
  171SAPE    C319253   0.068   2.641   2.685
  171SAPE    HX19254   6.788   2.630   2.638
  171SAPE    HY19255   0.117   2.728   2.634
  171SAPE   O3119256   0.045   2.667   2.822
  171SAPE   C3119257   0.138   2.737   2.879
  171SAPE   O3219258   0.246   2.761   2.824
  171SAPE   C3219259   0.087   2.791   3.011
  171SAPE   H2X19260   6.798   2.810   3.008
  171SAPE   H2Y19261   0.140   2.886   3.031
  171SAPE   C2319262   6.797   2.150   2.837
  171SAPE   H3R19263   6.746   2.051   2.837
  171SAPE   H3S19264   6.714   2.218   2.811
  171SAPE   C2419265   0.032   2.169   2.977
  171SAPE   H4R19266   6.761   2.161   3.041
  171SAPE   H4S19267   0.050   2.277   2.996
  171SAPE   C2519268   0.134   2.075   3.028
  171SAPE   H5R19269   0.227   2.099   2.973
  171SAPE   C2619270   0.131   1.985   3.130
  171SAPE   H6R19271   0.222   1.925   3.137
  171SAPE   C2719272   0.007   1.940   3.201
  171SAPE   H7R19273   6.766   1.903   3.116
  171SAPE   H7S19274   6.774   2.028   3.244
  171SAPE   C2819275   0.054   1.824   3.290
  171SAPE   H8R19276   0.126   1.759   3.240
  171SAPE   C2919277   0.037   1.820   3.428
  171SAPE   H9R19278   0.096   1.739   3.474
  171SAPE  C21019279   6.783   1.925   3.519
  171SAPE  H10R19280   6.717   1.874   3.593
  171SAPE  H10S19281   6.706   1.978   3.459
  171SAPE  C21119282   0.049   2.024   3.592
  171SAPE  H11R19283   0.110   2.088   3.526
  171SAPE  C21219284   0.049   2.040   3.728
  171SAPE  H12R19285   0.123   2.113   3.765
  171SAPE  C21319286   6.787   1.970   3.831
  171SAPE  H13R19287   6.679   1.984   3.810
  171SAPE  H13S19288   6.802   2.017   3.931
  171SAPE  C21419289   6.799   1.818   3.852
  171SAPE  H14R19290   6.731   1.762   3.786
  171SAPE  C21519291   0.056   1.750   3.937
  171SAPE  H15R19292   0.045   1.641   3.938
  171SAPE  C21619293   0.157   1.812   4.026
  171SAPE  H16R19294   0.189   1.913   3.993
  171SAPE  H16S19295   0.248   1.748   4.019
  171SAPE  C21719296   0.125   1.799   4.175
  171SAPE  H17R19297   0.117   1.691   4.201
  171SAPE  H17S19298   0.024   1.840   4.198
  171SAPE  C21819299   0.234   1.870   4.254
  171SAPE  H18R19300   0.238   1.979   4.232
  171SAPE  H18S19301   0.332   1.821   4.236
  171SAPE  C21919302   0.213   1.857   4.407
  171SAPE  H19R19303   0.301   1.907   4.454
  171SAPE  H19S19304   0.224   1.750   4.436
  171SAPE  C22019305   0.066   1.897   4.450
  171SAPE  H20R19306   0.057   1.891   4.561
  171SAPE  H20S19307   6.806   1.841   4.398
  171SAPE  H20T19308   0.056   2.004   4.422
  171SAPE   C3319309   0.123   2.689   3.124
  171SAPE   H3X19310   0.105   2.585   3.089
  171SAPE   H3Y19311   0.045   2.712   3.199
  171SAPE   C3419312   0.270   2.708   3.166
  171SAPE   H4X19313   0.289   2.807   3.213
  171SAPE   H4Y19314   0.339   2.691   3.081
  171SAPE   C3519315   0.300   2.605   3.275
  171SAPE   H5X19316   0.408   2.610   3.303
  171SAPE   H5Y19317   0.285   2.502   3.238
  171SAPE   C3619318   0.211   2.617   3.398
  171SAPE   H6X19319   0.219   2.516   3.444
  171SAPE   H6Y19320   0.100   2.631   3.393
  171SAPE   C3719321   0.253   2.730   3.500
  171SAPE   H7X19322   0.268   2.833   3.462
  171SAPE   H7Y19323   0.353   2.709   3.543
  171SAPE   C3819324   0.153   2.722   3.608
  171SAPE   H8X19325   0.144   2.621   3.654
  171SAPE   H8Y19326   0.049   2.747   3.576
  171SAPE   C3919327   0.176   2.817   3.724
  171SAPE   H9X19328   0.173   2.921   3.687
  171SAPE   H9Y19329   0.270   2.798   3.781
  171SAPE  C31019330   0.065   2.801   3.835
  171SAPE  H10X19331   0.073   2.694   3.864
  171SAPE  H10Y19332   6.788   2.829   3.786
  171SAPE  C31119333   0.087   2.892   3.955
  171SAPE  H11X19334   0.083   2.996   3.916
  171SAPE  H11Y19335   0.194   2.874   3.979
  171SAPE  C31219336   6.819   2.876   4.079
  171SAPE  H12X19337   6.786   2.771   4.095
  171SAPE  H12Y19338   6.722   2.931   4.079
  171SAPE  C31319339   0.069   2.923   4.206
  171SAPE  H13X19340   6.805   2.911   4.278
  171SAPE  H13Y19341   0.081   3.033   4.201
  171SAPE  C31419342   0.203   2.850   4.248
  171SAPE  H14X19343   0.280   2.882   4.175
  171SAPE  H14Y19344   0.180   2.742   4.239
  171SAPE  C31519345   0.261   2.881   4.382
  171SAPE  H15X19346   0.291   2.986   4.405
  171SAPE  H15Y19347   0.350   2.816   4.395
  171SAPE  C31619348   0.165   2.847   4.502
  171SAPE  H16X19349   0.078   2.916   4.493
  171SAPE  H16Y19350   0.216   2.873   4.598
  171SAPE  C31719351   0.116   2.698   4.535
  171SAPE  H17X19352   0.077   2.645   4.446
  171SAPE  H17Y19353   0.031   2.708   4.606
  171SAPE  C31819354   0.227   2.615   4.595
  171SAPE  H18X19355   0.208   2.506   4.598
  171SAPE  H18Y19356   0.248   2.633   4.703
  171SAPE  H18Z19357   0.320   2.637   4.538
  172SAPE     N19358   0.548   4.528   2.146
  172SAPE   HN119359   0.510   4.443   2.099
  172SAPE   HN219360   0.515   4.616   2.100
  172SAPE   HN319361   0.652   4.525   2.145
  172SAPE   C1219362   0.493   4.525   2.287
  172SAPE  H12A19363   0.552   4.444   2.334
  172SAPE  H12B19364   0.385   4.503   2.291
  172SAPE   C1119365   0.515   4.662   2.356
  172SAPE  H11A19366   0.615   4.671   2.403
  172SAPE  H11B19367   0.453   4.656   2.448
  172SAPE     P19368   0.536   4.918   2.283
  172SAPE   O1319369   0.676   4.896   2.240
  172SAPE   O1419370   0.453   5.014   2.210
  172SAPE   O1219371   0.468   4.777   2.283
  172SAPE   O1119372   0.529   4.964   2.436
  172SAPE    C119373   0.626   5.053   2.479
  172SAPE    HA19374   0.730   5.014   2.473
  172SAPE    HB19375   0.626   5.144   2.415
  172SAPE    C219376   0.618   5.063   2.632
  172SAPE    HS19377   0.633   4.958   2.664
  172SAPE   O2119378   0.489   5.103   2.688
  172SAPE   C2119379   0.428   5.211   2.648
  172SAPE   O2219380   0.455   5.283   2.551
  172SAPE   C2219381   0.300   5.246   2.744
  172SAPE   H2R19382   0.260   5.151   2.785
  172SAPE   H2S19383   0.342   5.316   2.819
  172SAPE    C319384   0.724   5.151   2.693
  172SAPE    HX19385   0.716   5.257   2.661
  172SAPE    HY19386   0.815   5.125   2.635
  172SAPE   O3119387   0.751   5.131   2.836
  172SAPE   C3119388   0.680   5.206   2.919
  172SAPE   O3219389   0.594   5.285   2.888
  172SAPE   C3219390   0.721   5.186   3.066
  172SAPE   H2X19391   0.827   5.220   3.069
  172SAPE   H2Y19392   0.714   5.078   3.089
  172SAPE   C2319393   0.182   5.316   2.662
  172SAPE   H3R19394   0.141   5.243   2.589
  172SAPE   H3S19395   0.202   5.408   2.603
  172SAPE   C2419396   0.071   5.369   2.756
  172SAPE   H4R19397   6.813   5.421   2.695
  172SAPE   H4S19398   0.111   5.434   2.836
  172SAPE   C2519399   6.813   5.252   2.817
  172SAPE   H5R19400   6.771   5.180   2.746
  172SAPE   C2619401   6.790   5.234   2.952
  172SAPE   H6R19402   6.731   5.147   2.985
  172SAPE   C2719403   0.016   5.320   3.065
  172SAPE   H7R19404   6.760   5.330   3.146
  172SAPE   H7S19405   0.016   5.426   3.033
  172SAPE   C2819406   0.147   5.282   3.129
  172SAPE   H8R19407   0.226   5.249   3.059
  172SAPE   C2919408   0.175   5.292   3.259
  172SAPE   H9R19409   0.274   5.267   3.302
  172SAPE  C21019410   0.081   5.342   3.365
  172SAPE  H10R19411   0.012   5.420   3.328
  172SAPE  H10S19412   0.143   5.406   3.431
  172SAPE  C21119413   6.815   5.250   3.444
  172SAPE  H11R19414   6.737   5.190   3.395
  172SAPE  C21219415   6.816   5.250   3.584
  172SAPE  H12R19416   6.750   5.177   3.632
  172SAPE  C21319417   0.082   5.324   3.678
  172SAPE  H13R19418   0.078   5.434   3.662
  172SAPE  H13S19419   0.183   5.303   3.635
  172SAPE  C21419420   0.083   5.312   3.826
  172SAPE  H14R19421   6.807   5.319   3.880
  172SAPE  C21519422   0.188   5.284   3.908
  172SAPE  H15R19423   0.170   5.290   4.016
  172SAPE  C21619424   0.336   5.273   3.873
  172SAPE  H16R19425   0.351   5.345   3.790
  172SAPE  H16S19426   0.354   5.175   3.825
  172SAPE  C21719427   0.428   5.298   3.990
  172SAPE  H17R19428   0.402   5.386   4.052
  172SAPE  H17S19429   0.530   5.313   3.948
  172SAPE  C21819430   0.440   5.178   4.088
  172SAPE  H18R19431   0.454   5.091   4.020
  172SAPE  H18S19432   0.345   5.160   4.143
  172SAPE  C21919433   0.548   5.187   4.190
  172SAPE  H19R19434   0.642   5.224   4.144
  172SAPE  H19S19435   0.562   5.088   4.239
  172SAPE  C22019436   0.513   5.283   4.299
  172SAPE  H20R19437   0.593   5.289   4.375
  172SAPE  H20S19438   0.413   5.265   4.344
  172SAPE  H20T19439   0.508   5.389   4.266
  172SAPE   C3319440   0.629   5.257   3.166
  172SAPE   H3X19441   0.523   5.226   3.151
  172SAPE   H3Y19442   0.645   5.366   3.180
  172SAPE   C3419443   0.674   5.208   3.306
  172SAPE   H4X19444   0.782   5.226   3.323
  172SAPE   H4Y19445   0.668   5.098   3.301
  172SAPE   C3519446   0.583   5.263   3.423
  172SAPE   H5X19447   0.613   5.207   3.514
  172SAPE   H5Y19448   0.474   5.243   3.416
  172SAPE   C3619449   0.587   5.414   3.443
  172SAPE   H6X19450   0.543   5.468   3.356
  172SAPE   H6Y19451   0.690   5.453   3.452
  172SAPE   C3719452   0.519   5.453   3.571
  172SAPE   H7X19453   0.573   5.401   3.653
  172SAPE   H7Y19454   0.417   5.408   3.565
  172SAPE   C3819455   0.507   5.606   3.583
  172SAPE   H8X19456   0.434   5.646   3.509
  172SAPE   H8Y19457   0.609   5.651   3.587
  172SAPE   C3919458   0.441   5.645   3.720
  172SAPE   H9X19459   0.365   5.566   3.741
  172SAPE   H9Y19460   0.396   5.746   3.709
  172SAPE  C31019461   0.550   5.639   3.830
  172SAPE  H10X19462   0.632   5.705   3.795
  172SAPE  H10Y19463   0.591   5.536   3.827
  172SAPE  C31119464   0.498   5.682   3.970
  172SAPE  H11X19465   0.406   5.623   3.993
  172SAPE  H11Y19466   0.460   5.786   3.965
  172SAPE  C31219467   0.604   5.662   4.084
  172SAPE  H12X19468   0.639   5.557   4.074
  172SAPE  H12Y19469   0.551   5.664   4.182
  172SAPE  C31319470   0.719   5.765   4.096
  172SAPE  H13X19471   0.670   5.863   4.075
  172SAPE  H13Y19472   0.801   5.742   4.024
  172SAPE  C31419473   0.784   5.763   4.229
  172SAPE  H14X19474   0.709   5.782   4.309
  172SAPE  H14Y19475   0.859   5.844   4.242
  172SAPE  C31519476   0.873   5.633   4.266
  172SAPE  H15X19477   0.980   5.664   4.272
  172SAPE  H15Y19478   0.865   5.560   4.182
  172SAPE  C31619479   0.832   5.560   4.395
  172SAPE  H16X19480   0.723   5.579   4.403
  172SAPE  H16Y19481   0.894   5.603   4.476
  172SAPE  C31719482   0.857   5.414   4.398
  172SAPE  H17X19483   0.965   5.412   4.376
  172SAPE  H17Y19484   0.803   5.371   4.311
  172SAPE  C31819485   0.819   5.353   4.533
  172SAPE  H18X19486   0.709   5.353   4.549
  172SAPE  H18Y19487   0.866   5.399   4.623
  172SAPE  H18Z19488   0.845   5.245   4.525
  173SLPC     N19489   6.607   6.792   7.397
  173SLPC   C1319490   6.496   0.074   7.426
  173SLPC  H13A19491   6.487   0.107   7.528
  173SLPC  H13B19492   6.527   0.164   7.373
  173SLPC  H13C19493   6.399   0.049   7.385
  173SLPC   C1419494   6.602   6.676   7.502
  173SLPC  H14A19495   6.510   6.619   7.494
  173SLPC  H14B19496   6.681   6.607   7.480
  173SLPC  H14C19497   6.607   6.719   7.601
  173SLPC   C1519498   6.733   0.043   7.425
  173SLPC  H15A19499   6.811   6.789   7.429
  173SLPC  H15B19500   6.752   0.103   7.337
  173SLPC  H15C19501   6.730   0.106   7.513
  173SLPC   C1219502   6.597   6.752   7.256
  173SLPC  H12A19503   6.679   6.683   7.239
  173SLPC  H12B19504   6.614   0.021   7.197
  173SLPC   C1119505   6.470   6.686   7.205
  173SLPC  H11A19506   6.447   6.591   7.257
  173SLPC  H11B19507   6.491   6.660   7.099
  173SLPC     P19508   6.249   6.794   7.118
  173SLPC   O1319509   6.168   6.669   7.097
  173SLPC   O1419510   6.173   0.098   7.167
  173SLPC   O1219511   6.358   6.766   7.227
  173SLPC   O1119512   6.322   0.015   6.990
  173SLPC    C119513   6.413   0.124   6.985
  173SLPC    HA19514   6.424   0.185   7.077
  173SLPC    HB19515   6.516   0.085   6.967
  173SLPC    C219516   6.388   0.201   6.857
  173SLPC    HS19517   6.286   0.244   6.862
  173SLPC   O2119518   6.414   0.121   6.743
  173SLPC   C2119519   6.328   0.128   6.642
  173SLPC   O2219520   6.240   0.213   6.630
  173SLPC   C2219521   6.369   0.029   6.532
  173SLPC   H2R19522   6.479   0.011   6.530
  173SLPC   H2S19523   6.319   6.755   6.563
  173SLPC    C319524   6.477   0.325   6.855
  173SLPC    HX19525   6.575   0.282   6.824
  173SLPC    HY19526   6.490   0.366   6.957
  173SLPC   O3119527   6.421   0.419   6.766
  173SLPC   C3119528   6.463   0.544   6.763
  173SLPC   O3219529   6.551   0.589   6.836
  173SLPC   C3219530   6.387   0.630   6.661
  173SLPC   H2X19531   6.443   0.723   6.635
  173SLPC   H2Y19532   6.299   0.673   6.713
  173SLPC   C2319533   6.341   0.073   6.384
  173SLPC   H3R19534   6.427   0.131   6.347
  173SLPC   H3S19535   6.255   0.142   6.371
  173SLPC   C2419536   6.318   6.777   6.296
  173SLPC   H4R19537   6.228   6.725   6.336
  173SLPC   H4S19538   6.413   6.722   6.286
  173SLPC   C2519539   6.272   6.818   6.156
  173SLPC   H5R19540   6.316   0.096   6.128
  173SLPC   H5S19541   6.164   0.022   6.166
  173SLPC   C2619542   6.285   6.704   6.056
  173SLPC   H6R19543   6.245   6.613   6.104
  173SLPC   H6S19544   6.394   6.692   6.037
  173SLPC   C2719545   6.221   6.737   5.919
  173SLPC   H7R19546   6.251   0.017   5.880
  173SLPC   H7S19547   6.112   6.740   5.938
  173SLPC   C2819548   6.254   6.636   5.810
  173SLPC   H8R19549   6.350   6.655   5.757
  173SLPC   H8S19550   6.173   6.668   5.740
  173SLPC   C2919551   6.253   6.495   5.865
  173SLPC   H9R19552   6.335   6.474   5.935
  173SLPC  C21019553   6.174   6.397   5.821
  173SLPC  H10R19554   6.182   6.302   5.875
  173SLPC  C21119555   6.069   6.405   5.712
  173SLPC  H11R19556   6.105   6.357   5.619
  173SLPC  H11S19557   6.027   6.504   5.685
  173SLPC  C21219558   5.952   6.318   5.742
  173SLPC  H12R19559   5.977   6.216   5.776
  173SLPC  C21319560   5.821   6.352   5.745
  173SLPC  H13R19561   5.745   6.276   5.767
  173SLPC  C21419562   5.763   6.485   5.715
  173SLPC  H14R19563   5.836   6.559   5.677
  173SLPC  H14S19564   5.715   6.528   5.806
  173SLPC  C21519565   5.651   6.474   5.611
  173SLPC  H15R19566   5.691   6.426   5.519
  173SLPC  H15S19567   5.618   6.577   5.585
  173SLPC  C21619568   5.522   6.394   5.650
  173SLPC  H16R19569   5.468   6.441   5.735
  173SLPC  H16S19570   5.559   6.295   5.683
  173SLPC  C21719571   5.420   6.377   5.540
  173SLPC  H17R19572   5.481   6.347   5.452
  173SLPC  H17S19573   5.370   6.473   5.517
  173SLPC  C21819574   5.308   6.281   5.586
  173SLPC  H18R19575   5.350   6.183   5.616
  173SLPC  H18S19576   5.237   6.268   5.501
  173SLPC  H18T19577   5.257   6.325   5.675
  173SLPC   C3319578   6.339   0.559   6.533
  173SLPC   H3X19579   6.391   0.464   6.509
  173SLPC   H3Y19580   6.353   0.628   6.447
  173SLPC   C3419581   6.187   0.532   6.546
  173SLPC   H4X19582   6.132   0.628   6.541
  173SLPC   H4Y19583   6.155   0.486   6.642
  173SLPC   C3519584   6.133   0.440   6.437
  173SLPC   H5X19585   6.023   0.426   6.447
  173SLPC   H5Y19586   6.180   0.339   6.442
  173SLPC   C3619587   6.162   0.492   6.296
  173SLPC   H6X19588   6.270   0.514   6.305
  173SLPC   H6Y19589   6.116   0.593   6.290
  173SLPC   C3719590   6.125   0.402   6.177
  173SLPC   H7X19591   6.014   0.407   6.171
  173SLPC   H7Y19592   6.141   0.294   6.199
  173SLPC   C3819593   6.181   0.446   6.043
  173SLPC   H8X19594   6.286   0.413   6.026
  173SLPC   H8Y19595   6.172   0.556   6.029
  173SLPC   C3919596   6.106   0.383   5.927
  173SLPC   H9X19597   6.001   0.417   5.941
  173SLPC   H9Y19598   6.127   0.275   5.941
  173SLPC  C31019599   6.145   0.437   5.792
  173SLPC  H10X19600   6.248   0.398   5.777
  173SLPC  H10Y19601   6.148   0.548   5.793
  173SLPC  C31119602   6.071   0.358   5.677
  173SLPC  H11X19603   5.962   0.359   5.697
  173SLPC  H11Y19604   6.104   0.253   5.691
  173SLPC  C31219605   6.103   0.405   5.543
  173SLPC  H12X19606   6.206   0.447   5.536
  173SLPC  H12Y19607   6.029   0.486   5.524
  173SLPC  C31319608   6.086   0.297   5.434
  173SLPC  H13X19609   6.013   0.222   5.469
  173SLPC  H13Y19610   6.188   0.253   5.431
  173SLPC  C31419611   6.061   0.332   5.289
  173SLPC  H14X19612   6.138   0.407   5.262
  173SLPC  H14Y19613   5.965   0.388   5.281
  173SLPC  C31519614   6.069   0.222   5.180
  173SLPC  H15X19615   5.965   0.182   5.185
  173SLPC  H15Y19616   6.149   0.152   5.213
  173SLPC  C31619617   6.094   0.288   5.041
  173SLPC  H16X19618   6.187   0.346   5.058
  173SLPC  H16Y19619   6.011   0.358   5.019
  173SLPC  C31719620   6.106   0.187   4.926
  173SLPC  H17X19621   6.165   0.100   4.964
  173SLPC  H17Y19622   6.138   0.224   4.826
  173SLPC  C31819623   5.967   0.126   4.910
  173SLPC  H18X19624   5.963   0.069   4.814
  173SLPC  H18Y19625   5.895   0.210   4.900
  173SLPC  H18Z19626   5.938   0.066   4.999
  174SLPC     N19627   2.845   1.826   6.697
  174SLPC   C1319628   2.821   1.695   6.622
  174SLPC  H13A19629   2.806   1.605   6.680
  174SLPC  H13B19630   2.757   1.713   6.537
  174SLPC  H13C19631   2.913   1.673   6.569
  174SLPC   C1419632   2.719   1.869   6.751
  174SLPC  H14A19633   2.737   1.956   6.812
  174SLPC  H14B19634   2.649   1.883   6.669
  174SLPC  H14C19635   2.680   1.796   6.820
  174SLPC   C1519636   2.893   1.926   6.592
  174SLPC  H15A19637   2.841   2.016   6.620
  174SLPC  H15B19638   3.000   1.941   6.603
  174SLPC  H15C19639   2.876   1.892   6.492
  174SLPC   C1219640   2.948   1.809   6.808
  174SLPC  H12A19641   3.014   1.728   6.781
  174SLPC  H12B19642   2.896   1.782   6.899
  174SLPC   C1119643   3.027   1.934   6.850
  174SLPC  H11A19644   3.063   1.922   6.955
  174SLPC  H11B19645   2.966   2.026   6.841
  174SLPC     P19646   3.263   1.845   6.771
  174SLPC   O1319647   3.305   1.856   6.909
  174SLPC   O1419648   3.238   1.713   6.715
  174SLPC   O1219649   3.137   1.937   6.754
  174SLPC   O1119650   3.367   1.918   6.675
  174SLPC    C119651   3.383   2.057   6.650
  174SLPC    HA19652   3.282   2.092   6.621
  174SLPC    HB19653   3.400   2.104   6.749
  174SLPC    C219654   3.488   2.092   6.541
  174SLPC    HS19655   3.464   2.201   6.537
  174SLPC   O2119656   3.453   2.026   6.418
  174SLPC   C2119657   3.387   2.096   6.330
  174SLPC   O2219658   3.324   2.195   6.351
  174SLPC   C2219659   3.389   2.016   6.198
  174SLPC   H2R19660   3.495   2.006   6.166
  174SLPC   H2S19661   3.344   1.916   6.212
  174SLPC    C319662   3.628   2.067   6.584
  174SLPC    HX19663   3.653   1.959   6.591
  174SLPC    HY19664   3.644   2.102   6.688
  174SLPC   O3119665   3.720   2.135   6.496
  174SLPC   C3119666   3.745   2.262   6.521
  174SLPC   O3219667   3.680   2.326   6.604
  174SLPC   C3219668   3.861   2.319   6.433
  174SLPC   H2X19669   3.907   2.223   6.399
  174SLPC   H2Y19670   3.927   2.387   6.491
  174SLPC   C2319671   3.311   2.085   6.088
  174SLPC   H3R19672   3.338   2.192   6.087
  174SLPC   H3S19673   3.201   2.076   6.100
  174SLPC   C2419674   3.331   2.033   5.939
  174SLPC   H4R19675   3.334   1.922   5.948
  174SLPC   H4S19676   3.434   2.066   5.915
  174SLPC   C2519677   3.225   2.076   5.839
  174SLPC   H5R19678   3.252   2.182   5.819
  174SLPC   H5S19679   3.126   2.072   5.890
  174SLPC   C2619680   3.214   1.998   5.712
  174SLPC   H6R19681   3.184   1.902   5.758
  174SLPC   H6S19682   3.315   1.992   5.667
  174SLPC   C2719683   3.112   2.059   5.616
  174SLPC   H7R19684   3.142   2.158   5.577
  174SLPC   H7S19685   3.026   2.074   5.685
  174SLPC   C2819686   3.069   1.958   5.508
  174SLPC   H8R19687   2.975   1.984   5.455
  174SLPC   H8S19688   3.057   1.852   5.539
  174SLPC   C2919689   3.179   1.958   5.398
  174SLPC   H9R19690   3.277   1.930   5.440
  174SLPC  C21019691   3.166   1.989   5.267
  174SLPC  H10R19692   3.255   1.992   5.202
  174SLPC  C21119693   3.043   2.047   5.196
  174SLPC  H11R19694   3.080   2.132   5.135
  174SLPC  H11S19695   2.985   2.089   5.280
  174SLPC  C21219696   2.950   1.945   5.116
  174SLPC  H12R19697   2.907   1.866   5.180
  174SLPC  C21319698   2.940   1.934   4.984
  174SLPC  H13R19699   2.876   1.855   4.943
  174SLPC  C21419700   2.996   2.022   4.871
  174SLPC  H14R19701   3.069   1.962   4.811
  174SLPC  H14S19702   3.059   2.103   4.913
  174SLPC  C21519703   2.888   2.070   4.771
  174SLPC  H15R19704   2.828   2.141   4.831
  174SLPC  H15S19705   2.820   1.987   4.741
  174SLPC  C21619706   2.928   2.125   4.634
  174SLPC  H16R19707   2.971   2.043   4.573
  174SLPC  H16S19708   3.009   2.200   4.647
  174SLPC  C21719709   2.823   2.213   4.559
  174SLPC  H17R19710   2.883   2.272   4.486
  174SLPC  H17S19711   2.765   2.275   4.630
  174SLPC  C21819712   2.720   2.126   4.481
  174SLPC  H18R19713   2.670   2.051   4.545
  174SLPC  H18S19714   2.778   2.066   4.408
  174SLPC  H18T19715   2.649   2.194   4.428
  174SLPC   C3319716   3.818   2.379   6.300
  174SLPC   H3X19717   3.910   2.417   6.251
  174SLPC   H3Y19718   3.762   2.473   6.315
  174SLPC   C3419719   3.740   2.289   6.201
  174SLPC   H4X19720   3.632   2.289   6.227
  174SLPC   H4Y19721   3.767   2.181   6.202
  174SLPC   C3519722   3.756   2.347   6.062
  174SLPC   H5X19723   3.864   2.361   6.040
  174SLPC   H5Y19724   3.729   2.454   6.074
  174SLPC   C3619725   3.671   2.273   5.964
  174SLPC   H6X19726   3.571   2.276   6.012
  174SLPC   H6Y19727   3.695   2.164   5.957
  174SLPC   C3719728   3.677   2.328   5.824
  174SLPC   H7X19729   3.780   2.300   5.794
  174SLPC   H7Y19730   3.670   2.439   5.829
  174SLPC   C3819731   3.577   2.261   5.731
  174SLPC   H8X19732   3.484   2.270   5.791
  174SLPC   H8Y19733   3.595   2.152   5.727
  174SLPC   C3919734   3.571   2.315   5.581
  174SLPC   H9X19735   3.676   2.323   5.548
  174SLPC   H9Y19736   3.534   2.420   5.587
  174SLPC  C31019737   3.478   2.241   5.479
  174SLPC  H10X19738   3.373   2.261   5.510
  174SLPC  H10Y19739   3.491   2.131   5.485
  174SLPC  C31119740   3.505   2.291   5.342
  174SLPC  H11X19741   3.610   2.264   5.318
  174SLPC  H11Y19742   3.500   2.402   5.332
  174SLPC  C31219743   3.414   2.237   5.239
  174SLPC  H12X19744   3.308   2.237   5.272
  174SLPC  H12Y19745   3.446   2.134   5.211
  174SLPC  C31319746   3.422   2.317   5.106
  174SLPC  H13X19747   3.531   2.338   5.098
  174SLPC  H13Y19748   3.367   2.412   5.122
  174SLPC  C31419749   3.349   2.265   4.983
  174SLPC  H14X19750   3.340   2.354   4.918
  174SLPC  H14Y19751   3.244   2.230   4.999
  174SLPC  C31519752   3.423   2.145   4.931
  174SLPC  H15X19753   3.431   2.066   5.009
  174SLPC  H15Y19754   3.529   2.168   4.905
  174SLPC  C31619755   3.364   2.081   4.800
  174SLPC  H16X19756   3.274   2.021   4.824
  174SLPC  H16Y19757   3.445   2.015   4.762
  174SLPC  C31719758   3.323   2.174   4.684
  174SLPC  H17X19759   3.409   2.238   4.657
  174SLPC  H17Y19760   3.245   2.242   4.724
  174SLPC  C31819761   3.280   2.093   4.560
  174SLPC  H18X19762   3.208   2.011   4.580
  174SLPC  H18Y19763   3.366   2.043   4.511
  174SLPC  H18Z19764   3.224   2.162   4.493
  175SLPC     N19765   6.302   2.835   7.012
  175SLPC   C1319766   6.304   2.736   6.907
  175SLPC  H13A19767   6.353   2.777   6.820
  175SLPC  H13B19768   6.356   2.644   6.928
  175SLPC  H13C19769   6.203   2.709   6.879
  175SLPC   C1419770   6.444   2.880   7.030
  175SLPC  H14A19771   6.452   2.944   7.117
  175SLPC  H14B19772   6.519   2.802   7.039
  175SLPC  H14C19773   6.473   2.942   6.947
  175SLPC   C1519774   6.241   2.767   7.133
  175SLPC  H15A19775   6.133   2.771   7.124
  175SLPC  H15B19776   6.276   2.666   7.151
  175SLPC  H15C19777   6.262   2.833   7.216
  175SLPC   C1219778   6.223   2.959   6.957
  175SLPC  H12A19779   6.237   3.047   7.019
  175SLPC  H12B19780   6.119   2.933   6.946
  175SLPC   C1119781   6.258   3.019   6.815
  175SLPC  H11A19782   6.184   3.102   6.806
  175SLPC  H11B19783   6.233   2.941   6.740
  175SLPC     P19784   6.439   3.196   6.860
  175SLPC   O1319785   6.398   3.207   7.002
  175SLPC   O1419786   6.586   3.211   6.854
  175SLPC   O1219787   6.396   3.056   6.798
  175SLPC   O1119788   6.367   3.304   6.764
  175SLPC    C119789   6.423   3.305   6.626
  175SLPC    HA19790   6.407   3.403   6.577
  175SLPC    HB19791   6.530   3.278   6.620
  175SLPC    C219792   6.347   3.208   6.530
  175SLPC    HS19793   6.380   3.107   6.561
  175SLPC   O2119794   6.401   3.232   6.396
  175SLPC   C2119795   6.395   3.119   6.319
  175SLPC   O2219796   6.362   3.008   6.356
  175SLPC   C2219797   6.435   3.150   6.170
  175SLPC   H2R19798   6.419   3.257   6.143
  175SLPC   H2S19799   6.544   3.129   6.168
  175SLPC    C319800   6.198   3.237   6.535
  175SLPC    HX19801   6.195   3.348   6.525
  175SLPC    HY19802   6.170   3.192   6.633
  175SLPC   O3119803   6.121   3.187   6.420
  175SLPC   C3119804   6.070   3.064   6.441
  175SLPC   O3219805   6.085   2.994   6.541
  175SLPC   C3219806   6.000   3.008   6.314
  175SLPC   H2X19807   6.004   2.898   6.327
  175SLPC   H2Y19808   6.053   3.035   6.220
  175SLPC   C2319809   6.363   3.061   6.059
  175SLPC   H3R19810   6.253   3.055   6.074
  175SLPC   H3S19811   6.391   2.957   6.086
  175SLPC   C2419812   6.408   3.101   5.920
  175SLPC   H4R19813   6.517   3.087   5.903
  175SLPC   H4S19814   6.399   3.211   5.908
  175SLPC   C2519815   6.336   3.019   5.806
  175SLPC   H5R19816   6.226   3.024   5.820
  175SLPC   H5S19817   6.343   2.911   5.831
  175SLPC   C2619818   6.373   3.047   5.664
  175SLPC   H6R19819   6.477   3.013   5.649
  175SLPC   H6S19820   6.372   3.155   5.642
  175SLPC   C2719821   6.265   2.977   5.577
  175SLPC   H7R19822   6.170   3.018   5.617
  175SLPC   H7S19823   6.270   2.867   5.588
  175SLPC   C2819824   6.269   3.011   5.427
  175SLPC   H8R19825   6.254   3.121   5.421
  175SLPC   H8S19826   6.187   2.960   5.372
  175SLPC   C2919827   6.395   2.981   5.359
  175SLPC   H9R19828   6.477   3.013   5.426
  175SLPC  C21019829   6.437   2.898   5.262
  175SLPC  H10R19830   6.543   2.887   5.234
  175SLPC  C21119831   6.351   2.832   5.167
  175SLPC  H11R19832   6.385   2.863   5.066
  175SLPC  H11S19833   6.245   2.860   5.185
  175SLPC  C21219834   6.362   2.685   5.199
  175SLPC  H12R19835   6.361   2.659   5.306
  175SLPC  C21319836   6.388   2.587   5.116
  175SLPC  H13R19837   6.389   2.484   5.154
  175SLPC  C21419838   6.402   2.599   4.965
  175SLPC  H14R19839   6.346   2.691   4.938
  175SLPC  H14S19840   6.347   2.511   4.926
  175SLPC  C21519841   6.549   2.595   4.907
  175SLPC  H15R19842   6.594   2.494   4.908
  175SLPC  H15S19843   6.607   2.662   4.974
  175SLPC  C21619844   6.564   2.674   4.774
  175SLPC  H16R19845   6.669   2.709   4.773
  175SLPC  H16S19846   6.495   2.761   4.768
  175SLPC  C21719847   6.525   2.579   4.666
  175SLPC  H17R19848   6.431   2.525   4.690
  175SLPC  H17S19849   6.591   2.489   4.672
  175SLPC  C21819850   6.523   2.643   4.519
  175SLPC  H18R19851   6.610   2.711   4.513
  175SLPC  H18S19852   6.425   2.692   4.502
  175SLPC  H18T19853   6.548   2.561   4.448
  175SLPC   C3319854   5.847   3.058   6.299
  175SLPC   H3X19855   5.840   3.167   6.317
  175SLPC   H3Y19856   5.791   3.008   6.381
  175SLPC   C3419857   5.781   3.013   6.164
  175SLPC   H4X19858   5.677   3.049   6.172
  175SLPC   H4Y19859   5.774   2.902   6.160
  175SLPC   C3519860   5.857   3.061   6.041
  175SLPC   H5X19861   5.949   3.004   6.015
  175SLPC   H5Y19862   5.886   3.167   6.056
  175SLPC   C3619863   5.764   3.048   5.919
  175SLPC   H6X19864   5.666   3.093   5.947
  175SLPC   H6Y19865   5.737   2.940   5.914
  175SLPC   C3719866   5.825   3.102   5.786
  175SLPC   H7X19867   5.924   3.051   5.782
  175SLPC   H7Y19868   5.823   3.213   5.793
  175SLPC   C3819869   5.756   3.050   5.653
  175SLPC   H8X19870   5.649   3.080   5.653
  175SLPC   H8Y19871   5.754   2.939   5.659
  175SLPC   C3919872   5.816   3.078   5.511
  175SLPC   H9X19873   5.918   3.035   5.510
  175SLPC   H9Y19874   5.828   3.187   5.495
  175SLPC  C31019875   5.738   3.017   5.394
  175SLPC  H10X19876   5.633   3.052   5.385
  175SLPC  H10Y19877   5.748   2.907   5.401
  175SLPC  C31119878   5.811   3.057   5.262
  175SLPC  H11X19879   5.904   2.999   5.246
  175SLPC  H11Y19880   5.833   3.166   5.258
  175SLPC  C31219881   5.716   3.025   5.148
  175SLPC  H12X19882   5.631   3.096   5.156
  175SLPC  H12Y19883   5.685   2.921   5.170
  175SLPC  C31319884   5.777   3.037   5.014
  175SLPC  H13X19885   5.868   2.974   5.017
  175SLPC  H13Y19886   5.808   3.141   4.989
  175SLPC  C31419887   5.683   2.976   4.910
  175SLPC  H14X19888   5.590   3.036   4.902
  175SLPC  H14Y19889   5.656   2.876   4.948
  175SLPC  C31519890   5.753   2.977   4.772
  175SLPC  H15X19891   5.860   2.959   4.794
  175SLPC  H15Y19892   5.746   3.080   4.730
  175SLPC  C31619893   5.695   2.878   4.674
  175SLPC  H16X19894   5.706   2.772   4.706
  175SLPC  H16Y19895   5.765   2.876   4.588
  175SLPC  C31719896   5.552   2.902   4.628
  175SLPC  H17X19897   5.552   3.009   4.599
  175SLPC  H17Y19898   5.484   2.886   4.715
  175SLPC  C31819899   5.502   2.808   4.518
  175SLPC  H18X19900   5.398   2.826   4.481
  175SLPC  H18Y19901   5.508   2.701   4.545
  175SLPC  H18Z19902   5.573   2.805   4.433
  176SLPC     N19903   5.282   0.844   7.172
  176SLPC   C1319904   5.413   0.922   7.202
  176SLPC  H13A19905   5.490   0.850   7.226
  176SLPC  H13B19906   5.460   0.964   7.114
  176SLPC  H13C19907   5.398   0.990   7.285
  176SLPC   C1419908   5.193   0.941   7.108
  176SLPC  H14A19909   5.152   1.011   7.180
  176SLPC  H14B19910   5.235   0.991   7.022
  176SLPC  H14C19911   5.107   0.884   7.075
  176SLPC   C1519912   5.229   0.779   7.286
  176SLPC  H15A19913   5.129   0.742   7.265
  176SLPC  H15B19914   5.297   0.702   7.318
  176SLPC  H15C19915   5.203   0.847   7.366
  176SLPC   C1219916   5.324   0.740   7.063
  176SLPC  H12A19917   5.372   0.792   6.982
  176SLPC  H12B19918   5.234   0.695   7.023
  176SLPC   C1119919   5.414   0.628   7.111
  176SLPC  H11A19920   5.419   0.567   7.018
  176SLPC  H11B19921   5.376   0.566   7.195
  176SLPC     P19922   5.673   0.606   7.134
  176SLPC   O1319923   5.781   0.691   7.183
  176SLPC   O1419924   5.668   0.475   7.212
  176SLPC   O1219925   5.538   0.683   7.152
  176SLPC   O1119926   5.683   0.572   6.979
  176SLPC    C119927   5.688   0.691   6.907
  176SLPC    HA19928   5.589   0.741   6.917
  176SLPC    HB19929   5.760   0.769   6.940
  176SLPC    C219930   5.712   0.666   6.758
  176SLPC    HS19931   5.821   0.650   6.746
  176SLPC   O2119932   5.648   0.777   6.688
  176SLPC   C2119933   5.725   0.860   6.630
  176SLPC   O2219934   5.847   0.858   6.634
  176SLPC   C2219935   5.646   0.956   6.544
  176SLPC   H2R19936   5.537   0.945   6.560
  176SLPC   H2S19937   5.678   1.054   6.585
  176SLPC    C319938   5.653   0.534   6.706
  176SLPC    HX19939   5.547   0.525   6.738
  176SLPC    HY19940   5.717   0.452   6.746
  176SLPC   O3119941   5.662   0.519   6.572
  176SLPC   C3119942   5.558   0.540   6.485
  176SLPC   O3219943   5.455   0.597   6.519
  176SLPC   C3219944   5.590   0.463   6.361
  176SLPC   H2X19945   5.592   0.357   6.396
  176SLPC   H2Y19946   5.693   0.489   6.330
  176SLPC   C2319947   5.680   0.961   6.395
  176SLPC   H3R19948   5.785   0.974   6.361
  176SLPC   H3S19949   5.626   1.047   6.350
  176SLPC   C2419950   5.624   0.847   6.307
  176SLPC   H4R19951   5.516   0.830   6.326
  176SLPC   H4S19952   5.672   0.756   6.349
  176SLPC   C2519953   5.655   0.869   6.153
  176SLPC   H5R19954   5.640   0.971   6.113
  176SLPC   H5S19955   5.590   0.806   6.089
  176SLPC   C2619956   5.800   0.827   6.122
  176SLPC   H6R19957   5.829   0.738   6.181
  176SLPC   H6S19958   5.856   0.914   6.164
  176SLPC   C2719959   5.810   0.796   5.973
  176SLPC   H7R19960   5.775   0.887   5.921
  176SLPC   H7S19961   5.746   0.709   5.945
  176SLPC   C2819962   5.946   0.761   5.921
  176SLPC   H8R19963   5.949   0.747   5.811
  176SLPC   H8S19964   5.966   0.659   5.960
  176SLPC   C2919965   6.049   0.865   5.975
  176SLPC   H9R19966   6.083   0.851   6.078
  176SLPC  C21019967   6.101   0.964   5.906
  176SLPC  H10R19968   6.170   1.032   5.959
  176SLPC  C21119969   6.077   0.992   5.766
  176SLPC  H11R19970   5.976   1.040   5.761
  176SLPC  H11S19971   6.060   0.900   5.706
  176SLPC  C21219972   6.173   1.092   5.705
  176SLPC  H12R19973   6.268   1.044   5.679
  176SLPC  C21319974   6.153   1.227   5.686
  176SLPC  H13R19975   6.234   1.288   5.642
  176SLPC  C21419976   6.034   1.299   5.743
  176SLPC  H14R19977   6.072   1.393   5.787
  176SLPC  H14S19978   5.994   1.236   5.826
  176SLPC  C21519979   5.920   1.322   5.643
  176SLPC  H15R19980   5.837   1.378   5.691
  176SLPC  H15S19981   5.885   1.220   5.619
  176SLPC  C21619982   5.954   1.393   5.515
  176SLPC  H16R19983   6.035   1.343   5.459
  176SLPC  H16S19984   5.983   1.497   5.542
  176SLPC  C21719985   5.829   1.402   5.422
  176SLPC  H17R19986   5.755   1.468   5.472
  176SLPC  H17S19987   5.785   1.299   5.417
  176SLPC  C21819988   5.846   1.455   5.280
  176SLPC  H18R19989   5.936   1.414   5.229
  176SLPC  H18S19990   5.854   1.566   5.283
  176SLPC  H18T19991   5.752   1.426   5.229
  176SLPC   C3319992   5.494   0.483   6.246
  176SLPC   H3X19993   5.474   0.591   6.229
  176SLPC   H3Y19994   5.399   0.435   6.277
  176SLPC   C3419995   5.550   0.427   6.108
  176SLPC   H4X19996   5.509   0.326   6.087
  176SLPC   H4Y19997   5.660   0.418   6.121
  176SLPC   C3519998   5.516   0.517   5.998
  176SLPC   H5X19999   5.559   0.618   6.013
  176SLPC   H5Y20000   5.406   0.532   5.985
  176SLPC   C3620001   5.567   0.473   5.859
  176SLPC   H6X20002   5.541   0.369   5.832
  176SLPC   H6Y20003   5.677   0.464   5.866
  176SLPC   C3720004   5.533   0.570   5.741
  176SLPC   H7X20005   5.555   0.676   5.766
  176SLPC   H7Y20006   5.429   0.563   5.703
  176SLPC   C3820007   5.612   0.550   5.614
  176SLPC   H8X20008   5.569   0.461   5.564
  176SLPC   H8Y20009   5.718   0.531   5.642
  176SLPC   C3920010   5.608   0.662   5.521
  176SLPC   H9X20011   5.521   0.726   5.545
  176SLPC   H9Y20012   5.602   0.623   5.417
  176SLPC  C31020013   5.747   0.733   5.516
  176SLPC  H10X20014   5.822   0.651   5.520
  176SLPC  H10Y20015   5.758   0.794   5.608
  176SLPC  C31120016   5.775   0.804   5.384
  176SLPC  H11X20017   5.677   0.848   5.356
  176SLPC  H11Y20018   5.801   0.721   5.316
  176SLPC  C31220019   5.890   0.902   5.411
  176SLPC  H12X20020   5.973   0.845   5.460
  176SLPC  H12Y20021   5.844   0.983   5.471
  176SLPC  C31320022   5.938   0.966   5.281
  176SLPC  H13X20023   5.852   0.997   5.218
  176SLPC  H13Y20024   6.001   0.893   5.227
  176SLPC  C31420025   6.015   1.094   5.316
  176SLPC  H14X20026   6.083   1.071   5.400
  176SLPC  H14Y20027   5.940   1.166   5.353
  176SLPC  C31520028   6.098   1.156   5.205
  176SLPC  H15X20029   6.162   1.238   5.245
  176SLPC  H15Y20030   6.032   1.200   5.128
  176SLPC  C31620031   6.193   1.060   5.136
  176SLPC  H16X20032   6.147   0.967   5.097
  176SLPC  H16Y20033   6.265   1.020   5.211
  176SLPC  C31720034   6.280   1.126   5.029
  176SLPC  H17X20035   6.369   1.066   5.003
  176SLPC  H17Y20036   6.304   1.229   5.064
  176SLPC  C31820037   6.209   1.141   4.891
  176SLPC  H18X20038   6.108   1.181   4.913
  176SLPC  H18Y20039   6.189   1.039   4.853
  176SLPC  H18Z20040   6.269   1.212   4.830
  177SLPC     N20041   5.382   1.481   7.003
  177SLPC   C1320042   5.297   1.418   6.897
  177SLPC  H13A20043   5.203   1.468   6.877
  177SLPC  H13B20044   5.355   1.418   6.806
  177SLPC  H13C20045   5.286   1.312   6.912
  177SLPC   C1420046   5.495   1.388   7.032
  177SLPC  H14A20047   5.559   1.444   7.099
  177SLPC  H14B20048   5.461   1.289   7.062
  177SLPC  H14C20049   5.550   1.374   6.941
  177SLPC   C1520050   5.301   1.498   7.130
  177SLPC  H15A20051   5.216   1.563   7.116
  177SLPC  H15B20052   5.268   1.402   7.167
  177SLPC  H15C20053   5.366   1.539   7.205
  177SLPC   C1220054   5.433   1.618   6.960
  177SLPC  H12A20055   5.475   1.604   6.861
  177SLPC  H12B20056   5.512   1.641   7.029
  177SLPC   C1120057   5.339   1.735   6.954
  177SLPC  H11A20058   5.383   1.822   6.901
  177SLPC  H11B20059   5.323   1.766   7.059
  177SLPC     P20060   5.172   1.736   6.752
  177SLPC   O1320061   5.137   1.609   6.685
  177SLPC   O1420062   5.076   1.842   6.751
  177SLPC   O1220063   5.212   1.708   6.899
  177SLPC   O1120064   5.310   1.785   6.692
  177SLPC    C120065   5.293   1.895   6.602
  177SLPC    HA20066   5.219   1.970   6.635
  177SLPC    HB20067   5.387   1.954   6.590
  177SLPC    C220068   5.271   1.847   6.449
  177SLPC    HS20069   5.161   1.837   6.441
  177SLPC   O2120070   5.326   1.719   6.428
  177SLPC   C2120071   5.275   1.655   6.319
  177SLPC   O2220072   5.178   1.694   6.258
  177SLPC   C2220073   5.366   1.538   6.283
  177SLPC   H2R20074   5.465   1.579   6.253
  177SLPC   H2S20075   5.361   1.466   6.368
  177SLPC    C320076   5.300   1.961   6.343
  177SLPC    HX20077   5.231   2.040   6.380
  177SLPC    HY20078   5.262   1.940   6.241
  177SLPC   O3120079   5.432   2.003   6.341
  177SLPC   C3120080   5.521   1.930   6.273
  177SLPC   O3220081   5.505   1.834   6.204
  177SLPC   C3220082   5.663   1.996   6.294
  177SLPC   H2X20083   5.729   1.912   6.326
  177SLPC   H2Y20084   5.637   2.061   6.380
  177SLPC   C2320085   5.314   1.466   6.158
  177SLPC   H3R20086   5.279   1.538   6.081
  177SLPC   H3S20087   5.225   1.411   6.197
  177SLPC   C2420088   5.412   1.356   6.098
  177SLPC   H4R20089   5.349   1.288   6.037
  177SLPC   H4S20090   5.450   1.297   6.184
  177SLPC   C2520091   5.522   1.425   6.020
  177SLPC   H5R20092   5.563   1.501   6.090
  177SLPC   H5S20093   5.487   1.492   5.939
  177SLPC   C2620094   5.632   1.338   5.964
  177SLPC   H6R20095   5.700   1.311   6.048
  177SLPC   H6S20096   5.708   1.395   5.907
  177SLPC   C2720097   5.587   1.215   5.888
  177SLPC   H7R20098   5.538   1.140   5.953
  177SLPC   H7S20099   5.681   1.161   5.861
  177SLPC   C2820100   5.528   1.245   5.751
  177SLPC   H8R20101   5.615   1.292   5.700
  177SLPC   H8S20102   5.452   1.326   5.758
  177SLPC   C2920103   5.476   1.117   5.700
  177SLPC   H9R20104   5.434   1.046   5.773
  177SLPC  C21020105   5.465   1.079   5.572
  177SLPC  H10R20106   5.424   0.980   5.549
  177SLPC  C21120107   5.515   1.154   5.451
  177SLPC  H11R20108   5.608   1.098   5.425
  177SLPC  H11S20109   5.549   1.256   5.477
  177SLPC  C21220110   5.421   1.158   5.336
  177SLPC  H12R20111   5.321   1.184   5.372
  177SLPC  C21320112   5.450   1.153   5.205
  177SLPC  H13R20113   5.370   1.166   5.130
  177SLPC  C21420114   5.586   1.117   5.146
  177SLPC  H14R20115   5.579   1.009   5.121
  177SLPC  H14S20116   5.669   1.130   5.219
  177SLPC  C21520117   5.613   1.207   5.018
  177SLPC  H15R20118   5.600   1.312   5.052
  177SLPC  H15S20119   5.541   1.191   4.935
  177SLPC  C21620120   5.754   1.175   4.955
  177SLPC  H16R20121   5.747   1.073   4.910
  177SLPC  H16S20122   5.821   1.174   5.043
  177SLPC  C21720123   5.794   1.272   4.835
  177SLPC  H17R20124   5.707   1.268   4.766
  177SLPC  H17S20125   5.879   1.219   4.787
  177SLPC  C21820126   5.841   1.410   4.879
  177SLPC  H18R20127   5.941   1.404   4.927
  177SLPC  H18S20128   5.771   1.456   4.952
  177SLPC  H18T20129   5.852   1.486   4.798
  177SLPC   C3320130   5.725   2.065   6.170
  177SLPC   H3X20131   5.674   2.162   6.153
  177SLPC   H3Y20132   5.705   2.001   6.082
  177SLPC   C3420133   5.871   2.094   6.186
  177SLPC   H4X20134   5.938   2.006   6.201
  177SLPC   H4Y20135   5.882   2.169   6.267
  177SLPC   C3520136   5.927   2.167   6.067
  177SLPC   H5X20137   5.847   2.233   6.028
  177SLPC   H5Y20138   5.954   2.085   5.997
  177SLPC   C3620139   6.049   2.252   6.074
  177SLPC   H6X20140   6.146   2.209   6.106
  177SLPC   H6Y20141   6.029   2.328   6.153
  177SLPC   C3720142   6.070   2.336   5.953
  177SLPC   H7X20143   6.132   2.422   5.985
  177SLPC   H7Y20144   5.974   2.385   5.925
  177SLPC   C3820145   6.156   2.263   5.850
  177SLPC   H8X20146   6.097   2.170   5.831
  177SLPC   H8Y20147   6.253   2.229   5.893
  177SLPC   C3920148   6.184   2.340   5.718
  177SLPC   H9X20149   6.234   2.437   5.734
  177SLPC   H9Y20150   6.083   2.358   5.673
  177SLPC  C31020151   6.262   2.248   5.618
  177SLPC  H10X20152   6.214   2.148   5.626
  177SLPC  H10Y20153   6.362   2.229   5.664
  177SLPC  C31120154   6.279   2.293   5.475
  177SLPC  H11X20155   6.345   2.218   5.425
  177SLPC  H11Y20156   6.328   2.392   5.484
  177SLPC  C31220157   6.153   2.316   5.388
  177SLPC  H12X20158   6.166   2.378   5.297
  177SLPC  H12Y20159   6.086   2.376   5.454
  177SLPC  C31320160   6.086   2.187   5.350
  177SLPC  H13X20161   6.047   2.142   5.443
  177SLPC  H13Y20162   6.166   2.118   5.316
  177SLPC  C31420163   5.987   2.198   5.246
  177SLPC  H14X20164   6.025   2.257   5.160
  177SLPC  H14Y20165   5.901   2.249   5.295
  177SLPC  C31520166   5.928   2.061   5.193
  177SLPC  H15X20167   5.894   2.010   5.285
  177SLPC  H15Y20168   6.016   2.012   5.147
  177SLPC  C31620169   5.808   2.075   5.094
  177SLPC  H16X20170   5.836   2.144   5.012
  177SLPC  H16Y20171   5.717   2.117   5.143
  177SLPC  C31720172   5.778   1.936   5.048
  177SLPC  H17X20173   5.735   1.872   5.128
  177SLPC  H17Y20174   5.877   1.894   5.023
  177SLPC  C31820175   5.687   1.931   4.930
  177SLPC  H18X20176   5.717   2.003   4.851
  177SLPC  H18Y20177   5.583   1.956   4.960
  177SLPC  H18Z20178   5.691   1.838   4.869
  178SLPC     N20179   2.267   6.561   6.671
  178SLPC   C1320180   2.356   6.521   6.787
  178SLPC  H13A20181   2.311   6.444   6.848
  178SLPC  H13B20182   2.449   6.481   6.748
  178SLPC  H13C20183   2.377   6.605   6.850
  178SLPC   C1420184   2.330   6.676   6.593
  178SLPC  H14A20185   2.424   6.660   6.542
  178SLPC  H14B20186   2.255   6.712   6.524
  178SLPC  H14C20187   2.349   6.754   6.666
  178SLPC   C1520188   2.136   6.602   6.731
  178SLPC  H15A20189   2.059   6.646   6.670
  178SLPC  H15B20190   2.095   6.511   6.773
  178SLPC  H15C20191   2.152   6.663   6.818
  178SLPC   C1220192   2.241   6.439   6.582
  178SLPC  H12A20193   2.163   6.468   6.513
  178SLPC  H12B20194   2.199   6.369   6.653
  178SLPC   C1120195   2.357   6.380   6.498
  178SLPC  H11A20196   2.382   6.463   6.428
  178SLPC  H11B20197   2.311   6.300   6.436
  178SLPC     P20198   2.471   6.189   6.630
  178SLPC   O1320199   2.586   6.187   6.732
  178SLPC   O1420200   2.339   6.140   6.683
  178SLPC   O1220201   2.465   6.331   6.572
  178SLPC   O1120202   2.499   6.101   6.506
  178SLPC    C120203   2.632   6.056   6.477
  178SLPC    HA20204   2.693   6.051   6.569
  178SLPC    HB20205   2.622   5.956   6.429
  178SLPC    C220206   2.704   6.161   6.374
  178SLPC    HS20207   2.745   6.246   6.432
  178SLPC   O2120208   2.608   6.208   6.273
  178SLPC   C2120209   2.631   6.331   6.233
  178SLPC   O2220210   2.703   6.415   6.284
  178SLPC   C2220211   2.534   6.351   6.121
  178SLPC   H2R20212   2.546   6.269   6.047
  178SLPC   H2S20213   2.432   6.334   6.161
  178SLPC    C320214   2.834   6.085   6.317
  178SLPC    HX20215   2.800   5.989   6.271
  178SLPC    HY20216   2.890   6.055   6.408
  178SLPC   O3120217   2.913   6.170   6.234
  178SLPC   C3120218   2.983   6.109   6.139
  178SLPC   O3220219   2.991   5.990   6.124
  178SLPC   C3220220   3.032   6.209   6.038
  178SLPC   H2X20221   3.067   6.154   5.948
  178SLPC   H2Y20222   3.124   6.257   6.077
  178SLPC   C2320223   2.513   6.494   6.076
  178SLPC   H3R20224   2.596   6.532   6.013
  178SLPC   H3S20225   2.505   6.563   6.163
  178SLPC   C2420226   2.382   6.512   5.995
  178SLPC   H4R20227   2.294   6.500   6.061
  178SLPC   H4S20228   2.384   6.438   5.912
  178SLPC   C2520229   2.377   6.649   5.924
  178SLPC   H5R20230   2.380   6.725   6.005
  178SLPC   H5S20231   2.277   6.653   5.876
  178SLPC   C2620232   2.478   6.682   5.819
  178SLPC   H6R20233   2.456   6.637   5.720
  178SLPC   H6S20234   2.569   6.627   5.851
  178SLPC   C2720235   2.524   0.015   5.804
  178SLPC   H7R20236   2.433   0.078   5.801
  178SLPC   H7S20237   2.590   0.042   5.718
  178SLPC   C2820238   2.589   0.079   5.926
  178SLPC   H8R20239   2.525   0.076   6.017
  178SLPC   H8S20240   2.589   0.187   5.900
  178SLPC   C2920241   2.728   0.027   5.948
  178SLPC   H9R20242   2.727   6.747   5.993
  178SLPC  C21020243   2.842   0.091   5.921
  178SLPC  H10R20244   2.939   0.043   5.937
  178SLPC  C21120245   2.846   0.233   5.878
  178SLPC  H11R20246   2.756   0.286   5.914
  178SLPC  H11S20247   2.844   0.235   5.767
  178SLPC  C21220248   2.965   0.309   5.930
  178SLPC  H12R20249   3.013   0.289   6.027
  178SLPC  C21320250   3.020   0.417   5.867
  178SLPC  H13R20251   3.104   0.476   5.906
  178SLPC  C21420252   2.977   0.469   5.736
  178SLPC  H14R20253   2.983   0.580   5.732
  178SLPC  H14S20254   2.875   0.431   5.711
  178SLPC  C21520255   3.053   0.427   5.611
  178SLPC  H15R20256   3.050   0.317   5.592
  178SLPC  H15S20257   3.158   0.459   5.632
  178SLPC  C21620258   2.998   0.501   5.494
  178SLPC  H16R20259   3.050   0.598   5.483
  178SLPC  H16S20260   2.887   0.496   5.504
  178SLPC  C21720261   3.029   0.423   5.366
  178SLPC  H17R20262   3.139   0.405   5.371
  178SLPC  H17S20263   3.006   0.482   5.274
  178SLPC  C21820264   2.958   0.287   5.367
  178SLPC  H18R20265   2.999   0.206   5.431
  178SLPC  H18S20266   2.964   0.251   5.261
  178SLPC  H18T20267   2.851   0.288   5.394
  178SLPC   C3320268   2.917   6.311   5.990
  178SLPC   H3X20269   2.859   6.352   6.075
  178SLPC   H3Y20270   2.838   6.248   5.945
  178SLPC   C3420271   2.953   6.422   5.888
  178SLPC   H4X20272   3.041   6.480   5.923
  178SLPC   H4Y20273   2.870   6.497   5.883
  178SLPC   C3520274   2.979   6.372   5.747
  178SLPC   H5X20275   2.907   6.294   5.714
  178SLPC   H5Y20276   3.081   6.327   5.753
  178SLPC   C3620277   2.972   6.477   5.637
  178SLPC   H6X20278   2.869   6.516   5.624
  178SLPC   H6Y20279   3.015   6.439   5.542
  178SLPC   C3720280   3.058   6.597   5.667
  178SLPC   H7X20281   3.156   6.565   5.708
  178SLPC   H7Y20282   3.008   6.642   5.756
  178SLPC   C3820283   3.075   6.708   5.562
  178SLPC   H8X20284   3.123   6.797   5.608
  178SLPC   H8Y20285   2.977   6.737   5.516
  178SLPC   C3920286   3.161   6.678   5.436
  178SLPC   H9X20287   3.119   6.593   5.377
  178SLPC   H9Y20288   3.263   6.641   5.463
  178SLPC  C31020289   3.181   6.802   5.339
  178SLPC  H10X20290   3.210   0.074   5.394
  178SLPC  H10Y20291   3.082   6.813   5.289
  178SLPC  C31120292   3.279   6.768   5.227
  178SLPC  H11X20293   3.234   6.698   5.152
  178SLPC  H11Y20294   3.377   6.723   5.252
  178SLPC  C31220295   3.308   0.066   5.134
  178SLPC  H12X20296   3.382   0.133   5.182
  178SLPC  H12Y20297   3.218   0.131   5.133
  178SLPC  C31320298   3.351   0.023   4.990
  178SLPC  H13X20299   3.280   6.769   4.948
  178SLPC  H13Y20300   3.440   6.779   5.007
  178SLPC  C31420301   3.355   0.138   4.884
  178SLPC  H14X20302   3.442   0.205   4.900
  178SLPC  H14Y20303   3.261   0.193   4.907
  178SLPC  C31520304   3.341   0.095   4.739
  178SLPC  H15X20305   3.242   0.045   4.724
  178SLPC  H15Y20306   3.411   0.011   4.720
  178SLPC  C31620307   3.368   0.208   4.628
  178SLPC  H16X20308   3.472   0.248   4.624
  178SLPC  H16Y20309   3.300   0.286   4.667
  178SLPC  C31720310   3.313   0.164   4.488
  178SLPC  H17X20311   3.205   0.138   4.500
  178SLPC  H17Y20312   3.371   0.074   4.460
  178SLPC  C31820313   3.324   0.271   4.386
  178SLPC  H18X20314   3.250   0.352   4.403
  178SLPC  H18Y20315   3.310   0.228   4.284
  178SLPC  H18Z20316   3.423   0.321   4.390
  179SLPC     N20317   4.011   1.851   2.427
  179SLPC   C1320318   3.998   1.800   2.569
  179SLPC  H13A20319   4.093   1.779   2.614
  179SLPC  H13B20320   3.947   1.873   2.631
  179SLPC  H13C20321   3.935   1.712   2.574
  179SLPC   C1420322   4.067   1.988   2.422
  179SLPC  H14A20323   4.007   2.061   2.475
  179SLPC  H14B20324   4.168   2.002   2.458
  179SLPC  H14C20325   4.056   2.013   2.317
  179SLPC   C1520326   3.869   1.864   2.370
  179SLPC  H15A20327   3.825   1.769   2.395
  179SLPC  H15B20328   3.809   1.937   2.421
  179SLPC  H15C20329   3.871   1.890   2.265
  179SLPC   C1220330   4.101   1.759   2.340
  179SLPC  H12A20331   4.201   1.780   2.375
  179SLPC  H12B20332   4.091   1.792   2.238
  179SLPC   C1120333   4.080   1.603   2.331
  179SLPC  H11A20334   4.092   1.563   2.434
  179SLPC  H11B20335   4.160   1.554   2.271
  179SLPC     P20336   3.840   1.500   2.337
  179SLPC   O1320337   3.762   1.599   2.419
  179SLPC   O1420338   3.765   1.419   2.241
  179SLPC   O1220339   3.961   1.569   2.266
  179SLPC   O1120340   3.919   1.409   2.446
  179SLPC    C120341   3.969   1.281   2.401
  179SLPC    HA20342   3.896   1.222   2.343
  179SLPC    HB20343   4.048   1.291   2.323
  179SLPC    C220344   4.044   1.204   2.516
  179SLPC    HS20345   4.066   1.097   2.499
  179SLPC   O2120346   3.975   1.225   2.639
  179SLPC   C2120347   3.854   1.171   2.637
  179SLPC   O2220348   3.813   1.095   2.553
  179SLPC   C2220349   3.777   1.227   2.753
  179SLPC   H2R20350   3.839   1.215   2.844
  179SLPC   H2S20351   3.773   1.338   2.738
  179SLPC    C320352   4.191   1.250   2.551
  179SLPC    HX20353   4.189   1.348   2.604
  179SLPC    HY20354   4.247   1.265   2.456
  179SLPC   O3120355   4.259   1.150   2.620
  179SLPC   C3120356   4.368   1.189   2.686
  179SLPC   O3220357   4.423   1.299   2.678
  179SLPC   C3220358   4.411   1.070   2.778
  179SLPC   H2X20359   4.516   1.047   2.748
  179SLPC   H2Y20360   4.363   0.983   2.727
  179SLPC   C2320361   3.636   1.158   2.768
  179SLPC   H3R20362   3.636   1.052   2.734
  179SLPC   H3S20363   3.561   1.216   2.711
  179SLPC   C2420364   3.589   1.162   2.913
  179SLPC   H4R20365   3.493   1.108   2.902
  179SLPC   H4S20366   3.574   1.265   2.954
  179SLPC   C2520367   3.677   1.088   3.014
  179SLPC   H5R20368   3.769   1.148   3.028
  179SLPC   H5S20369   3.719   0.988   2.989
  179SLPC   C2620370   3.587   1.065   3.135
  179SLPC   H6R20371   3.512   0.988   3.111
  179SLPC   H6S20372   3.531   1.159   3.156
  179SLPC   C2720373   3.670   1.023   3.255
  179SLPC   H7R20374   3.758   1.090   3.268
  179SLPC   H7S20375   3.712   0.923   3.231
  179SLPC   C2820376   3.589   1.029   3.389
  179SLPC   H8R20377   3.495   0.971   3.372
  179SLPC   H8S20378   3.564   1.138   3.391
  179SLPC   C2920379   3.663   0.987   3.513
  179SLPC   H9R20380   3.765   0.947   3.499
  179SLPC  C21020381   3.624   0.999   3.643
  179SLPC  H10R20382   3.690   0.966   3.724
  179SLPC  C21120383   3.489   1.053   3.690
  179SLPC  H11R20384   3.407   0.979   3.691
  179SLPC  H11S20385   3.449   1.138   3.630
  179SLPC  C21220386   3.493   1.106   3.833
  179SLPC  H12R20387   3.518   1.212   3.837
  179SLPC  C21320388   3.492   1.037   3.947
  179SLPC  H13R20389   3.514   1.082   4.045
  179SLPC  C21420390   3.484   0.884   3.938
  179SLPC  H14R20391   3.589   0.851   3.927
  179SLPC  H14S20392   3.433   0.846   3.846
  179SLPC  C21520393   3.434   0.842   4.073
  179SLPC  H15R20394   3.486   0.883   4.162
  179SLPC  H15S20395   3.455   0.735   4.094
  179SLPC  C21620396   3.281   0.860   4.092
  179SLPC  H16R20397   3.227   0.794   4.021
  179SLPC  H16S20398   3.263   0.968   4.070
  179SLPC  C21720399   3.224   0.817   4.222
  179SLPC  H17R20400   3.283   0.856   4.308
  179SLPC  H17S20401   3.229   0.706   4.222
  179SLPC  C21820402   3.071   0.860   4.236
  179SLPC  H18R20403   3.031   0.823   4.333
  179SLPC  H18S20404   3.016   0.839   4.141
  179SLPC  H18T20405   3.064   0.970   4.235
  179SLPC   C3320406   4.391   1.095   2.927
  179SLPC   H3X20407   4.282   1.089   2.946
  179SLPC   H3Y20408   4.435   1.189   2.968
  179SLPC   C3420409   4.460   0.974   2.988
  179SLPC   H4X20410   4.557   0.958   2.937
  179SLPC   H4Y20411   4.386   0.893   2.968
  179SLPC   C3520412   4.504   0.989   3.130
  179SLPC   H5X20413   4.596   0.929   3.148
  179SLPC   H5Y20414   4.533   1.095   3.144
  179SLPC   C3620415   4.394   0.946   3.237
  179SLPC   H6X20416   4.365   0.844   3.203
  179SLPC   H6Y20417   4.307   1.014   3.225
  179SLPC   C3720418   4.440   0.947   3.386
  179SLPC   H7X20419   4.448   1.044   3.439
  179SLPC   H7Y20420   4.533   0.889   3.402
  179SLPC   C3820421   4.331   0.878   3.468
  179SLPC   H8X20422   4.304   0.781   3.421
  179SLPC   H8Y20423   4.236   0.936   3.464
  179SLPC   C3920424   4.376   0.882   3.622
  179SLPC   H9X20425   4.406   0.984   3.652
  179SLPC   H9Y20426   4.468   0.822   3.638
  179SLPC  C31020427   4.262   0.840   3.718
  179SLPC  H10X20428   4.232   0.744   3.672
  179SLPC  H10Y20429   4.168   0.898   3.705
  179SLPC  C31120430   4.307   0.845   3.860
  179SLPC  H11X20431   4.359   0.940   3.884
  179SLPC  H11Y20432   4.377   0.760   3.871
  179SLPC  C31220433   4.184   0.840   3.952
  179SLPC  H12X20434   4.109   0.776   3.900
  179SLPC  H12Y20435   4.133   0.938   3.966
  179SLPC  C31320436   4.213   0.788   4.091
  179SLPC  H13X20437   4.286   0.861   4.132
  179SLPC  H13Y20438   4.256   0.685   4.084
  179SLPC  C31420439   4.086   0.773   4.164
  179SLPC  H14X20440   4.010   0.720   4.103
  179SLPC  H14Y20441   4.055   0.878   4.184
  179SLPC  C31520442   4.104   0.701   4.296
  179SLPC  H15X20443   4.200   0.735   4.341
  179SLPC  H15Y20444   4.122   0.593   4.276
  179SLPC  C31620445   3.998   0.746   4.401
  179SLPC  H16X20446   3.903   0.707   4.360
  179SLPC  H16Y20447   3.980   0.855   4.392
  179SLPC  C31720448   4.023   0.691   4.543
  179SLPC  H17X20449   4.108   0.742   4.593
  179SLPC  H17Y20450   4.053   0.584   4.541
  179SLPC  C31820451   3.891   0.701   4.630
  179SLPC  H18X20452   3.807   0.684   4.560
  179SLPC  H18Y20453   3.882   0.802   4.677
  179SLPC  H18Z20454   3.889   0.630   4.715
  180SLPC     N20455   2.351   1.081   2.268
  180SLPC   C1320456   2.372   1.028   2.127
  180SLPC  H13A20457   2.304   0.946   2.110
  180SLPC  H13B20458   2.356   1.099   2.047
  180SLPC  H13C20459   2.473   0.990   2.114
  180SLPC   C1420460   2.392   0.976   2.367
  180SLPC  H14A20461   2.396   1.009   2.469
  180SLPC  H14B20462   2.313   0.903   2.362
  180SLPC  H14C20463   2.482   0.921   2.341
  180SLPC   C1520464   2.207   1.109   2.273
  180SLPC  H15A20465   2.152   1.040   2.210
  180SLPC  H15B20466   2.155   1.090   2.366
  180SLPC  H15C20467   2.195   1.213   2.245
  180SLPC   C1220468   2.436   1.203   2.300
  180SLPC  H12A20469   2.540   1.173   2.299
  180SLPC  H12B20470   2.412   1.240   2.399
  180SLPC   C1120471   2.430   1.331   2.210
  180SLPC  H11A20472   2.453   1.300   2.106
  180SLPC  H11B20473   2.515   1.399   2.232
  180SLPC     P20474   2.277   1.532   2.254
  180SLPC   O1320475   2.362   1.622   2.172
  180SLPC   O1420476   2.133   1.561   2.267
  180SLPC   O1220477   2.293   1.386   2.199
  180SLPC   O1120478   2.323   1.524   2.402
  180SLPC    C120479   2.326   1.644   2.489
  180SLPC    HA20480   2.258   1.721   2.447
  180SLPC    HB20481   2.296   1.620   2.593
  180SLPC    C220482   2.469   1.708   2.495
  180SLPC    HS20483   2.502   1.727   2.391
  180SLPC   O2120484   2.546   1.612   2.569
  180SLPC   C2120485   2.669   1.582   2.523
  180SLPC   O2220486   2.726   1.634   2.427
  180SLPC   C2220487   2.744   1.489   2.611
  180SLPC   H2R20488   2.817   1.444   2.541
  180SLPC   H2S20489   2.810   1.549   2.678
  180SLPC    C320490   2.475   1.844   2.570
  180SLPC    HX20491   2.392   1.889   2.512
  180SLPC    HY20492   2.571   1.899   2.560
  180SLPC   O3120493   2.431   1.835   2.706
  180SLPC   C3120494   2.523   1.800   2.786
  180SLPC   O3220495   2.640   1.802   2.773
  180SLPC   C3220496   2.459   1.730   2.912
  180SLPC   H2X20497   2.535   1.655   2.943
  180SLPC   H2Y20498   2.365   1.683   2.876
  180SLPC   C2320499   2.667   1.379   2.681
  180SLPC   H3R20500   2.631   1.315   2.598
  180SLPC   H3S20501   2.591   1.417   2.753
  180SLPC   C2420502   2.761   1.283   2.764
  180SLPC   H4R20503   2.838   1.341   2.819
  180SLPC   H4S20504   2.805   1.228   2.678
  180SLPC   C2520505   2.691   1.179   2.849
  180SLPC   H5R20506   2.742   1.081   2.856
  180SLPC   H5S20507   2.591   1.173   2.800
  180SLPC   C2620508   2.660   1.231   3.000
  180SLPC   H6R20509   2.578   1.160   3.023
  180SLPC   H6S20510   2.613   1.331   3.009
  180SLPC   C2720511   2.783   1.225   3.092
  180SLPC   H7R20512   2.857   1.296   3.050
  180SLPC   H7S20513   2.836   1.127   3.103
  180SLPC   C2820514   2.760   1.270   3.241
  180SLPC   H8R20515   2.710   1.369   3.229
  180SLPC   H8S20516   2.858   1.281   3.293
  180SLPC   C2920517   2.665   1.178   3.323
  180SLPC   H9R20518   2.633   1.091   3.264
  180SLPC  C21020519   2.623   1.193   3.450
  180SLPC  H10R20520   2.553   1.121   3.495
  180SLPC  C21120521   2.663   1.303   3.544
  180SLPC  H11R20522   2.765   1.342   3.523
  180SLPC  H11S20523   2.680   1.268   3.648
  180SLPC  C21220524   2.572   1.421   3.546
  180SLPC  H12R20525   2.573   1.485   3.457
  180SLPC  C21320526   2.474   1.442   3.637
  180SLPC  H13R20527   2.401   1.519   3.610
  180SLPC  C21420528   2.444   1.360   3.757
  180SLPC  H14R20529   2.419   1.415   3.850
  180SLPC  H14S20530   2.521   1.285   3.785
  180SLPC  C21520531   2.317   1.281   3.714
  180SLPC  H15R20532   2.333   1.202   3.638
  180SLPC  H15S20533   2.245   1.350   3.665
  180SLPC  C21620534   2.247   1.225   3.838
  180SLPC  H16R20535   2.159   1.171   3.798
  180SLPC  H16S20536   2.222   1.313   3.901
  180SLPC  C21720537   2.336   1.127   3.922
  180SLPC  H17R20538   2.415   1.183   3.977
  180SLPC  H17S20539   2.384   1.052   3.856
  180SLPC  C21820540   2.251   1.051   4.021
  180SLPC  H18R20541   2.175   0.985   3.976
  180SLPC  H18S20542   2.202   1.115   4.098
  180SLPC  H18T20543   2.321   0.982   4.073
  180SLPC   C3320544   2.444   1.817   3.035
  180SLPC   H3X20545   2.375   1.761   3.102
  180SLPC   H3Y20546   2.411   1.922   3.018
  180SLPC   C3420547   2.575   1.821   3.114
  180SLPC   H4X20548   2.664   1.867   3.067
  180SLPC   H4Y20549   2.593   1.715   3.142
  180SLPC   C3520550   2.565   1.907   3.244
  180SLPC   H5X20551   2.471   1.893   3.302
  180SLPC   H5Y20552   2.558   2.011   3.206
  180SLPC   C3620553   2.689   1.897   3.334
  180SLPC   H6X20554   2.775   1.894   3.263
  180SLPC   H6Y20555   2.673   1.800   3.385
  180SLPC   C3720556   2.704   2.028   3.417
  180SLPC   H7X20557   2.604   2.056   3.457
  180SLPC   H7Y20558   2.734   2.113   3.352
  180SLPC   C3820559   2.794   2.002   3.535
  180SLPC   H8X20560   2.832   2.099   3.573
  180SLPC   H8Y20561   2.873   1.934   3.497
  180SLPC   C3920562   2.731   1.925   3.660
  180SLPC   H9X20563   2.684   1.828   3.636
  180SLPC   H9Y20564   2.648   1.992   3.692
  180SLPC  C31020565   2.834   1.914   3.780
  180SLPC  H10X20566   2.869   2.016   3.805
  180SLPC  H10Y20567   2.919   1.855   3.739
  180SLPC  C31120568   2.772   1.831   3.890
  180SLPC  H11X20569   2.736   1.737   3.844
  180SLPC  H11Y20570   2.687   1.876   3.946
  180SLPC  C31220571   2.873   1.803   3.997
  180SLPC  H12X20572   2.908   1.896   4.045
  180SLPC  H12Y20573   2.956   1.756   3.940
  180SLPC  C31320574   2.831   1.702   4.104
  180SLPC  H13X20575   2.760   1.745   4.177
  180SLPC  H13Y20576   2.925   1.688   4.163
  180SLPC  C31420577   2.770   1.571   4.049
  180SLPC  H14X20578   2.833   1.551   3.960
  180SLPC  H14Y20579   2.668   1.586   4.007
  180SLPC  C31520580   2.787   1.447   4.144
  180SLPC  H15X20581   2.726   1.462   4.236
  180SLPC  H15Y20582   2.894   1.431   4.170
  180SLPC  C31620583   2.733   1.323   4.067
  180SLPC  H16X20584   2.800   1.317   3.979
  180SLPC  H16Y20585   2.633   1.357   4.030
  180SLPC  C31720586   2.716   1.192   4.151
  180SLPC  H17X20587   2.642   1.129   4.096
  180SLPC  H17Y20588   2.662   1.223   4.243
  180SLPC  C31820589   2.847   1.119   4.180
  180SLPC  H18X20590   2.825   1.032   4.246
  180SLPC  H18Y20591   2.909   1.193   4.234
  180SLPC  H18Z20592   2.902   1.096   4.087
  181SLPC     N20593   1.560   6.479   2.122
  181SLPC   C1320594   1.511   6.614   2.167
  181SLPC  H13A20595   1.459   6.610   2.261
  181SLPC  H13B20596   1.593   6.684   2.175
  181SLPC  H13C20597   1.439   6.657   2.099
  181SLPC   C1420598   1.525   6.470   1.978
  181SLPC  H14A20599   1.527   6.373   1.930
  181SLPC  H14B20600   1.423   6.499   1.955
  181SLPC  H14C20601   1.587   6.538   1.922
  181SLPC   C1520602   1.471   6.374   2.186
  181SLPC  H15A20603   1.493   6.281   2.137
  181SLPC  H15B20604   1.500   6.354   2.288
  181SLPC  H15C20605   1.366   6.393   2.169
  181SLPC   C1220606   1.703   6.456   2.148
  181SLPC  H12A20607   1.727   6.366   2.093
  181SLPC  H12B20608   1.726   6.439   2.252
  181SLPC   C1120609   1.789   6.576   2.104
  181SLPC  H11A20610   1.753   6.616   2.007
  181SLPC  H11B20611   1.892   6.538   2.085
  181SLPC     P20612   1.884   6.667   2.325
  181SLPC   O1320613   1.870   6.533   2.380
  181SLPC   O1420614   2.020   6.715   2.293
  181SLPC   O1220615   1.793   6.693   2.195
  181SLPC   O1120616   1.813   6.766   2.424
  181SLPC    C120617   1.725   6.720   2.523
  181SLPC    HA20618   1.632   6.782   2.522
  181SLPC    HB20619   1.688   6.616   2.513
  181SLPC    C220620   1.791   6.741   2.664
  181SLPC    HS20621   1.879   6.674   2.672
  181SLPC   O2120622   1.697   6.736   2.776
  181SLPC   C2120623   1.636   6.617   2.793
  181SLPC   O2220624   1.641   6.519   2.723
  181SLPC   C2220625   1.554   6.630   2.915
  181SLPC   H2R20626   1.543   6.528   2.958
  181SLPC   H2S20627   1.609   6.697   2.984
  181SLPC    C320628   1.848   0.064   2.670
  181SLPC    HX20629   1.775   0.138   2.631
  181SLPC    HY20630   1.933   0.066   2.598
  181SLPC   O3120631   1.894   0.090   2.802
  181SLPC   C3120632   1.922   0.214   2.832
  181SLPC   O3220633   1.895   0.314   2.767
  181SLPC   C3220634   1.979   0.223   2.970
  181SLPC   H2X20635   2.076   0.170   2.959
  181SLPC   H2Y20636   1.909   0.189   3.049
  181SLPC   C2320637   1.411   6.681   2.887
  181SLPC   H3R20638   1.370   6.631   2.796
  181SLPC   H3S20639   1.406   6.791   2.877
  181SLPC   C2420640   1.318   6.665   3.012
  181SLPC   H4R20641   1.328   6.559   3.046
  181SLPC   H4S20642   1.210   6.678   2.991
  181SLPC   C2520643   1.354   6.761   3.134
  181SLPC   H5R20644   1.332   0.044   3.099
  181SLPC   H5S20645   1.462   6.756   3.160
  181SLPC   C2620646   1.265   6.728   3.256
  181SLPC   H6R20647   1.269   6.619   3.276
  181SLPC   H6S20648   1.160   6.750   3.229
  181SLPC   C2720649   1.295   6.806   3.382
  181SLPC   H7R20650   1.314   0.094   3.361
  181SLPC   H7S20651   1.394   6.777   3.423
  181SLPC   C2820652   1.197   6.786   3.502
  181SLPC   H8R20653   1.200   6.681   3.537
  181SLPC   H8S20654   1.095   6.804   3.462
  181SLPC   C2920655   1.232   0.057   3.617
  181SLPC   H9R20656   1.201   0.161   3.599
  181SLPC  C21020657   1.282   0.015   3.734
  181SLPC  H10R20658   1.286   0.091   3.814
  181SLPC  C21120659   1.309   6.693   3.778
  181SLPC  H11R20660   1.419   6.677   3.770
  181SLPC  H11S20661   1.288   6.615   3.702
  181SLPC  C21220662   1.275   6.657   3.918
  181SLPC  H12R20663   1.232   6.558   3.940
  181SLPC  C21320664   1.314   6.718   4.032
  181SLPC  H13R20665   1.268   6.686   4.127
  181SLPC  C21420666   1.395   0.024   4.050
  181SLPC  H14R20667   1.457   0.049   3.961
  181SLPC  H14S20668   1.474   0.009   4.126
  181SLPC  C21520669   1.310   0.143   4.097
  181SLPC  H15R20670   1.212   0.131   4.046
  181SLPC  H15S20671   1.362   0.232   4.054
  181SLPC  C21620672   1.294   0.159   4.250
  181SLPC  H16R20673   1.246   0.260   4.255
  181SLPC  H16S20674   1.384   0.153   4.316
  181SLPC  C21720675   1.203   0.056   4.323
  181SLPC  H17R20676   1.256   6.778   4.333
  181SLPC  H17S20677   1.119   0.024   4.259
  181SLPC  C21820678   1.155   0.099   4.459
  181SLPC  H18R20679   1.110   0.010   4.508
  181SLPC  H18S20680   1.071   0.171   4.460
  181SLPC  H18T20681   1.230   0.137   4.532
  181SLPC   C3320682   2.012   0.372   3.006
  181SLPC   H3X20683   1.914   0.421   3.023
  181SLPC   H3Y20684   2.054   0.427   2.919
  181SLPC   C3420685   2.096   0.387   3.132
  181SLPC   H4X20686   2.046   0.336   3.217
  181SLPC   H4Y20687   2.106   0.497   3.147
  181SLPC   C3520688   2.241   0.323   3.132
  181SLPC   H5X20689   2.297   0.361   3.044
  181SLPC   H5Y20690   2.235   0.214   3.116
  181SLPC   C3620691   2.321   0.353   3.261
  181SLPC   H6X20692   2.257   0.306   3.338
  181SLPC   H6Y20693   2.319   0.461   3.287
  181SLPC   C3720694   2.459   0.280   3.255
  181SLPC   H7X20695   2.522   0.336   3.328
  181SLPC   H7Y20696   2.495   0.291   3.150
  181SLPC   C3820697   2.444   0.130   3.280
  181SLPC   H8X20698   2.389   0.074   3.201
  181SLPC   H8Y20699   2.393   0.111   3.377
  181SLPC   C3920700   2.575   0.061   3.284
  181SLPC   H9X20701   2.634   0.086   3.375
  181SLPC   H9Y20702   2.637   0.085   3.195
  181SLPC  C31020703   2.552   6.727   3.288
  181SLPC  H10X20704   2.509   6.694   3.192
  181SLPC  H10Y20705   2.479   6.704   3.369
  181SLPC  C31120706   2.679   6.645   3.332
  181SLPC  H11X20707   2.755   6.656   3.252
  181SLPC  H11Y20708   2.661   6.536   3.340
  181SLPC  C31220709   2.745   6.681   3.462
  181SLPC  H12X20710   2.798   6.778   3.449
  181SLPC  H12Y20711   2.818   6.600   3.486
  181SLPC  C31320712   2.652   6.696   3.584
  181SLPC  H13X20713   2.606   6.595   3.593
  181SLPC  H13Y20714   2.577   6.771   3.552
  181SLPC  C31420715   2.742   6.735   3.706
  181SLPC  H14X20716   2.788   0.014   3.686
  181SLPC  H14Y20717   2.827   6.664   3.709
  181SLPC  C31520718   2.657   6.724   3.837
  181SLPC  H15X20719   2.619   6.621   3.849
  181SLPC  H15Y20720   2.565   6.785   3.833
  181SLPC  C31620721   2.739   6.761   3.962
  181SLPC  H16X20722   2.680   6.792   4.051
  181SLPC  H16Y20723   2.799   0.033   3.944
  181SLPC  C31720724   2.824   6.641   4.009
  181SLPC  H17X20725   2.907   6.621   3.939
  181SLPC  H17Y20726   2.759   6.551   4.014
  181SLPC  C31820727   2.880   6.657   4.153
  181SLPC  H18X20728   2.921   6.565   4.200
  181SLPC  H18Y20729   2.802   6.691   4.224
  181SLPC  H18Z20730   2.962   6.731   4.156
  182SLPC     N20731   2.312   6.583   2.027
  182SLPC   C1320732   2.384   6.665   1.925
  182SLPC  H13A20733   2.341   6.764   1.923
  182SLPC  H13B20734   2.490   6.675   1.946
  182SLPC  H13C20735   2.361   6.618   1.831
  182SLPC   C1420736   2.167   6.592   2.001
  182SLPC  H14A20737   2.168   6.565   1.896
  182SLPC  H14B20738   2.112   6.516   2.054
  182SLPC  H14C20739   2.120   6.687   2.024
  182SLPC   C1520740   2.333   6.646   2.169
  182SLPC  H15A20741   2.439   6.643   2.188
  182SLPC  H15B20742   2.290   6.745   2.168
  182SLPC  H15C20743   2.278   6.582   2.236
  182SLPC   C1220744   2.360   6.439   2.021
  182SLPC  H12A20745   2.329   6.399   1.925
  182SLPC  H12B20746   2.308   6.376   2.092
  182SLPC   C1120747   2.512   6.420   2.038
  182SLPC  H11A20748   2.551   6.484   2.120
  182SLPC  H11B20749   2.561   6.445   1.941
  182SLPC     P20750   2.575   6.214   2.189
  182SLPC   O1320751   2.500   6.088   2.200
  182SLPC   O1420752   2.721   6.201   2.203
  182SLPC   O1220753   2.534   6.282   2.050
  182SLPC   O1120754   2.524   6.317   2.292
  182SLPC    C120755   2.403   6.306   2.362
  182SLPC    HA20756   2.359   6.402   2.397
  182SLPC    HB20757   2.329   6.266   2.288
  182SLPC    C220758   2.423   6.217   2.486
  182SLPC    HS20759   2.428   6.117   2.438
  182SLPC   O2120760   2.310   6.231   2.577
  182SLPC   C2120761   2.231   6.124   2.591
  182SLPC   O2220762   2.241   6.023   2.530
  182SLPC   C2220763   2.127   6.150   2.697
  182SLPC   H2R20764   2.028   6.143   2.647
  182SLPC   H2S20765   2.129   6.063   2.766
  182SLPC    C320766   2.561   6.235   2.554
  182SLPC    HX20767   2.566   6.346   2.563
  182SLPC    HY20768   2.648   6.197   2.497
  182SLPC   O3120769   2.569   6.175   2.682
  182SLPC   C3120770   2.576   6.039   2.692
  182SLPC   O3220771   2.575   5.959   2.604
  182SLPC   C3220772   2.569   6.004   2.841
  182SLPC   H2X20773   2.470   5.960   2.861
  182SLPC   H2Y20774   2.590   6.089   2.909
  182SLPC   C2320775   2.138   6.288   2.773
  182SLPC   H3R20776   2.138   6.375   2.703
  182SLPC   H3S20777   2.222   6.293   2.845
  182SLPC   C2420778   2.008   6.315   2.860
  182SLPC   H4R20779   1.995   6.234   2.935
  182SLPC   H4S20780   1.932   6.298   2.781
  182SLPC   C2520781   1.993   6.457   2.921
  182SLPC   H5R20782   1.897   6.459   2.976
  182SLPC   H5S20783   1.991   6.527   2.835
  182SLPC   C2620784   2.102   6.498   3.013
  182SLPC   H6R20785   2.202   6.498   2.965
  182SLPC   H6S20786   2.087   6.427   3.097
  182SLPC   C2720787   2.060   6.639   3.070
  182SLPC   H7R20788   1.959   6.631   3.117
  182SLPC   H7S20789   2.044   6.704   2.981
  182SLPC   C2820790   2.170   6.692   3.171
  182SLPC   H8R20791   2.153   6.801   3.173
  182SLPC   H8S20792   2.268   6.670   3.123
  182SLPC   C2920793   2.168   6.614   3.300
  182SLPC   H9R20794   2.222   6.518   3.305
  182SLPC  C21020795   2.113   6.657   3.411
  182SLPC  H10R20796   2.113   6.596   3.502
  182SLPC  C21120797   2.023   6.773   3.438
  182SLPC  H11R20798   1.949   6.733   3.509
  182SLPC  H11S20799   1.970   6.798   3.344
  182SLPC  C21220800   2.091   0.086   3.481
  182SLPC  H12R20801   2.094   0.174   3.414
  182SLPC  C21320802   2.122   0.109   3.614
  182SLPC  H13R20803   2.168   0.202   3.652
  182SLPC  C21420804   2.107   0.010   3.729
  182SLPC  H14R20805   2.014   6.770   3.722
  182SLPC  H14S20806   2.099   0.060   3.828
  182SLPC  C21520807   2.228   6.741   3.741
  182SLPC  H15R20808   2.319   6.799   3.769
  182SLPC  H15S20809   2.256   6.688   3.647
  182SLPC  C21620810   2.211   6.633   3.853
  182SLPC  H16R20811   2.297   6.565   3.843
  182SLPC  H16S20812   2.122   6.572   3.827
  182SLPC  C21720813   2.192   6.689   3.997
  182SLPC  H17R20814   2.164   6.609   4.068
  182SLPC  H17S20815   2.131   6.781   4.008
  182SLPC  C21820816   2.334   6.728   4.048
  182SLPC  H18R20817   2.318   6.738   4.158
  182SLPC  H18S20818   2.368   0.007   4.010
  182SLPC  H18T20819   2.414   6.653   4.029
  182SLPC   C3320820   2.650   5.873   2.877
  182SLPC   H3X20821   2.753   5.880   2.836
  182SLPC   H3Y20822   2.598   5.788   2.829
  182SLPC   C3420823   2.651   5.848   3.027
  182SLPC   H4X20824   2.542   5.843   3.050
  182SLPC   H4Y20825   2.693   5.936   3.079
  182SLPC   C3520826   2.706   5.710   3.065
  182SLPC   H5X20827   2.816   5.695   3.057
  182SLPC   H5Y20828   2.650   5.635   3.006
  182SLPC   C3620829   2.682   5.676   3.213
  182SLPC   H6X20830   2.660   5.567   3.222
  182SLPC   H6Y20831   2.593   5.733   3.248
  182SLPC   C3720832   2.800   5.724   3.305
  182SLPC   H7X20833   2.798   5.835   3.309
  182SLPC   H7Y20834   2.890   5.674   3.263
  182SLPC   C3820835   2.774   5.665   3.448
  182SLPC   H8X20836   2.787   5.555   3.445
  182SLPC   H8Y20837   2.674   5.702   3.479
  182SLPC   C3920838   2.875   5.723   3.556
  182SLPC   H9X20839   2.840   5.736   3.661
  182SLPC   H9Y20840   2.894   5.826   3.518
  182SLPC  C31020841   3.010   5.644   3.560
  182SLPC  H10X20842   3.044   5.637   3.454
  182SLPC  H10Y20843   2.997   5.540   3.597
  182SLPC  C31120844   3.120   5.704   3.656
  182SLPC  H11X20845   3.127   5.813   3.637
  182SLPC  H11Y20846   3.203   5.646   3.612
  182SLPC  C31220847   3.086   5.677   3.801
  182SLPC  H12X20848   3.079   5.569   3.829
  182SLPC  H12Y20849   2.984   5.716   3.822
  182SLPC  C31320850   3.194   5.737   3.905
  182SLPC  H13X20851   3.194   5.846   3.885
  182SLPC  H13Y20852   3.292   5.689   3.882
  182SLPC  C31420853   3.158   5.710   4.053
  182SLPC  H14X20854   3.080   5.631   4.067
  182SLPC  H14Y20855   3.110   5.804   4.087
  182SLPC  C31520856   3.283   5.670   4.135
  182SLPC  H15X20857   3.365   5.744   4.123
  182SLPC  H15Y20858   3.314   5.572   4.094
  182SLPC  C31620859   3.256   5.677   4.284
  182SLPC  H16X20860   3.170   5.612   4.309
  182SLPC  H16Y20861   3.224   5.778   4.318
  182SLPC  C31720862   3.374   5.640   4.374
  182SLPC  H17X20863   3.450   5.721   4.368
  182SLPC  H17Y20864   3.432   5.554   4.333
  182SLPC  C31820865   3.334   5.622   4.517
  182SLPC  H18X20866   3.417   5.639   4.588
  182SLPC  H18Y20867   3.297   5.518   4.519
  182SLPC  H18Z20868   3.253   5.697   4.530
  183SLPC     N20869   5.685   2.693   2.343
  183SLPC   C1320870   5.548   2.752   2.360
  183SLPC  H13A20871   5.539   2.857   2.337
  183SLPC  H13B20872   5.470   2.702   2.304
  183SLPC  H13C20873   5.521   2.749   2.464
  183SLPC   C1420874   5.774   2.804   2.391
  183SLPC  H14A20875   5.752   2.900   2.347
  183SLPC  H14B20876   5.763   2.818   2.498
  183SLPC  H14C20877   5.877   2.777   2.372
  183SLPC   C1520878   5.716   2.662   2.193
  183SLPC  H15A20879   5.813   2.620   2.171
  183SLPC  H15B20880   5.649   2.589   2.148
  183SLPC  H15C20881   5.712   2.748   2.128
  183SLPC   C1220882   5.701   2.570   2.430
  183SLPC  H12A20883   5.806   2.542   2.432
  183SLPC  H12B20884   5.646   2.491   2.382
  183SLPC   C1120885   5.674   2.577   2.577
  183SLPC  H11A20886   5.713   2.667   2.630
  183SLPC  H11B20887   5.725   2.484   2.609
  183SLPC     P20888   5.442   2.454   2.590
  183SLPC   O1320889   5.337   2.466   2.690
  183SLPC   O1420890   5.400   2.419   2.453
  183SLPC   O1220891   5.535   2.583   2.597
  183SLPC   O1120892   5.546   2.343   2.633
  183SLPC    C120893   5.560   2.291   2.764
  183SLPC    HA20894   5.540   2.369   2.841
  183SLPC    HB20895   5.485   2.210   2.781
  183SLPC    C220896   5.705   2.235   2.792
  183SLPC    HS20897   5.710   2.144   2.855
  183SLPC   O2120898   5.794   2.337   2.840
  183SLPC   C2120899   5.773   2.375   2.962
  183SLPC   O2220900   5.705   2.321   3.043
  183SLPC   C2220901   5.875   2.486   2.991
  183SLPC   H2R20902   5.979   2.451   2.974
  183SLPC   H2S20903   5.850   2.568   2.921
  183SLPC    C320904   5.765   2.177   2.655
  183SLPC    HX20905   5.778   2.257   2.580
  183SLPC    HY20906   5.690   2.107   2.615
  183SLPC   O3120907   5.894   2.112   2.668
  183SLPC   C3120908   6.001   2.196   2.656
  183SLPC   O3220909   6.001   2.315   2.628
  183SLPC   C3220910   6.136   2.126   2.696
  183SLPC   H2X20911   6.190   2.117   2.599
  183SLPC   H2Y20912   6.111   2.022   2.725
  183SLPC   C2320913   5.854   2.539   3.132
  183SLPC   H3R20914   5.898   2.466   3.203
  183SLPC   H3S20915   5.746   2.547   3.158
  183SLPC   C2420916   5.918   2.676   3.158
  183SLPC   H4R20917   5.920   2.741   3.069
  183SLPC   H4S20918   6.023   2.672   3.193
  183SLPC   C2520919   5.835   2.767   3.252
  183SLPC   H5R20920   5.736   2.795   3.211
  183SLPC   H5S20921   5.897   2.858   3.266
  183SLPC   C2620922   5.818   2.701   3.389
  183SLPC   H6R20923   5.924   2.685   3.415
  183SLPC   H6S20924   5.790   2.593   3.391
  183SLPC   C2720925   5.748   2.779   3.501
  183SLPC   H7R20926   5.646   2.743   3.476
  183SLPC   H7S20927   5.751   2.889   3.489
  183SLPC   C2820928   5.801   2.744   3.642
  183SLPC   H8R20929   5.815   2.634   3.646
  183SLPC   H8S20930   5.720   2.770   3.714
  183SLPC   C2920931   5.929   2.813   3.669
  183SLPC   H9R20932   5.980   2.834   3.574
  183SLPC  C21020933   5.978   2.852   3.787
  183SLPC  H10R20934   6.074   2.903   3.805
  183SLPC  C21120935   5.902   2.807   3.913
  183SLPC  H11R20936   5.986   2.803   3.986
  183SLPC  H11S20937   5.853   2.708   3.908
  183SLPC  C21220938   5.797   2.912   3.946
  183SLPC  H12R20939   5.711   2.911   3.877
  183SLPC  C21320940   5.797   2.998   4.050
  183SLPC  H13R20941   5.720   3.077   4.054
  183SLPC  C21420942   5.914   3.010   4.151
  183SLPC  H14R20943   5.928   3.120   4.156
  183SLPC  H14S20944   6.014   2.975   4.114
  183SLPC  C21520945   5.870   2.956   4.291
  183SLPC  H15R20946   5.762   2.975   4.310
  183SLPC  H15S20947   5.935   2.989   4.375
  183SLPC  C21620948   5.880   2.804   4.280
  183SLPC  H16R20949   5.837   2.769   4.184
  183SLPC  H16S20950   5.819   2.761   4.363
  183SLPC  C21720951   6.020   2.744   4.291
  183SLPC  H17R20952   6.077   2.800   4.367
  183SLPC  H17S20953   6.083   2.758   4.201
  183SLPC  C21820954   6.015   2.598   4.330
  183SLPC  H18R20955   6.121   2.567   4.342
  183SLPC  H18S20956   5.962   2.532   4.258
  183SLPC  H18T20957   5.960   2.603   4.426
  183SLPC   C3320958   6.216   2.198   2.809
  183SLPC   H3X20959   6.194   2.306   2.797
  183SLPC   H3Y20960   6.327   2.188   2.807
  183SLPC   C3420961   6.146   2.156   2.946
  183SLPC   H4X20962   6.173   2.053   2.978
  183SLPC   H4Y20963   6.035   2.161   2.952
  183SLPC   C3520964   6.190   2.260   3.054
  183SLPC   H5X20965   6.185   2.365   3.017
  183SLPC   H5Y20966   6.297   2.241   3.080
  183SLPC   C3620967   6.112   2.234   3.172
  183SLPC   H6X20968   6.124   2.130   3.208
  183SLPC   H6Y20969   6.002   2.238   3.157
  183SLPC   C3720970   6.141   2.330   3.284
  183SLPC   H7X20971   6.129   2.437   3.255
  183SLPC   H7Y20972   6.249   2.314   3.305
  183SLPC   C3820973   6.062   2.304   3.413
  183SLPC   H8X20974   6.091   2.202   3.446
  183SLPC   H8Y20975   5.955   2.286   3.391
  183SLPC   C3920976   6.073   2.413   3.527
  183SLPC   H9X20977   6.002   2.393   3.611
  183SLPC   H9Y20978   6.059   2.509   3.473
  183SLPC  C31020979   6.208   2.408   3.598
  183SLPC  H10X20980   6.288   2.446   3.531
  183SLPC  H10Y20981   6.236   2.304   3.628
  183SLPC  C31120982   6.215   2.489   3.725
  183SLPC  H11X20983   6.242   2.595   3.710
  183SLPC  H11Y20984   6.298   2.439   3.779
  183SLPC  C31220985   6.096   2.484   3.815
  183SLPC  H12X20986   6.009   2.516   3.754
  183SLPC  H12Y20987   6.112   2.571   3.883
  183SLPC  C31320988   6.061   2.358   3.887
  183SLPC  H13X20989   6.027   2.280   3.815
  183SLPC  H13Y20990   5.973   2.384   3.950
  183SLPC  C31420991   6.167   2.306   3.987
  183SLPC  H14X20992   6.210   2.380   4.058
  183SLPC  H14Y20993   6.255   2.277   3.926
  183SLPC  C31520994   6.116   2.178   4.060
  183SLPC  H15X20995   6.208   2.140   4.110
  183SLPC  H15Y20996   6.062   2.109   3.992
  183SLPC  C31620997   6.012   2.222   4.167
  183SLPC  H16X20998   5.916   2.232   4.112
  183SLPC  H16Y20999   6.032   2.316   4.222
  183SLPC  C31721000   5.979   2.113   4.269
  183SLPC  H17X21001   5.944   2.026   4.210
  183SLPC  H17Y21002   5.895   2.149   4.333
  183SLPC  C31821003   6.110   2.070   4.334
  183SLPC  H18X21004   6.169   2.161   4.358
  183SLPC  H18Y21005   6.162   2.001   4.263
  183SLPC  H18Z21006   6.093   2.011   4.427
  184SLPC     N21007   6.707   1.446   2.023
  184SLPC   C1321008   6.777   1.569   1.974
  184SLPC  H13A21009   6.702   1.638   1.937
  184SLPC  H13B21010   0.017   1.609   2.054
  184SLPC  H13C21011   0.033   1.555   1.898
  184SLPC   C1421012   6.811   1.343   2.061
  184SLPC  H14A21013   0.059   1.382   2.135
  184SLPC  H14B21014   6.776   1.254   2.111
  184SLPC  H14C21015   0.046   1.298   1.979
  184SLPC   C1521016   6.637   1.386   1.906
  184SLPC  H15A21017   6.702   1.361   1.824
  184SLPC  H15B21018   6.592   1.291   1.932
  184SLPC  H15C21019   6.556   1.440   1.859
  184SLPC   C1221020   6.618   1.482   2.141
  184SLPC  H12A21021   6.555   1.397   2.163
  184SLPC  H12B21022   6.561   1.567   2.108
  184SLPC   C1121023   6.679   1.515   2.282
  184SLPC  H11A21024   6.740   1.425   2.306
  184SLPC  H11B21025   6.592   1.527   2.351
  184SLPC     P21026   0.028   1.676   2.391
  184SLPC   O1321027   0.125   1.573   2.410
  184SLPC   O1421028   0.079   1.814   2.373
  184SLPC   O1221029   6.759   1.633   2.272
  184SLPC   O1121030   6.756   1.665   2.518
  184SLPC    C121031   6.636   1.728   2.547
  184SLPC    HA21032   6.602   1.797   2.467
  184SLPC    HB21033   6.557   1.654   2.571
  184SLPC    C221034   6.643   1.815   2.679
  184SLPC    HS21035   6.726   1.889   2.669
  184SLPC   O2121036   6.683   1.731   2.787
  184SLPC   C2121037   6.809   1.695   2.801
  184SLPC   O2221038   0.083   1.745   2.747
  184SLPC   C2221039   6.803   1.572   2.896
  184SLPC   H2R21040   6.733   1.597   2.977
  184SLPC   H2S21041   6.767   1.483   2.840
  184SLPC    C321042   6.509   1.892   2.698
  184SLPC    HX21043   6.423   1.824   2.683
  184SLPC    HY21044   6.495   1.972   2.622
  184SLPC   O3121045   6.501   1.953   2.831
  184SLPC   C3121046   6.452   1.871   2.925
  184SLPC   O3221047   6.431   1.750   2.919
  184SLPC   C3221048   6.453   1.968   3.045
  184SLPC   H2X21049   6.415   2.070   3.022
  184SLPC   H2Y21050   6.562   1.970   3.065
  184SLPC   C2321051   0.120   1.532   2.949
  184SLPC   H3R21052   0.163   1.610   3.016
  184SLPC   H3S21053   0.181   1.513   2.858
  184SLPC   C2421054   0.115   1.407   3.038
  184SLPC   H4R21055   0.221   1.373   3.046
  184SLPC   H4S21056   0.065   1.322   2.987
  184SLPC   C2521057   0.065   1.434   3.178
  184SLPC   H5R21058   6.777   1.460   3.173
  184SLPC   H5S21059   0.116   1.518   3.231
  184SLPC   C2621060   0.086   1.313   3.269
  184SLPC   H6R21061   0.192   1.315   3.304
  184SLPC   H6S21062   0.069   1.225   3.203
  184SLPC   C2721063   6.814   1.313   3.381
  184SLPC   H7R21064   6.707   1.298   3.355
  184SLPC   H7S21065   6.813   1.415   3.425
  184SLPC   C2821066   0.026   1.206   3.490
  184SLPC   H8R21067   0.132   1.222   3.519
  184SLPC   H8S21068   0.022   1.107   3.438
  184SLPC   C2921069   6.744   1.204   3.601
  184SLPC   H9R21070   6.657   1.153   3.557
  184SLPC  C21021071   6.747   1.264   3.720
  184SLPC  H10R21072   6.667   1.240   3.791
  184SLPC  C21121073   0.048   1.333   3.772
  184SLPC  H11R21074   0.049   1.434   3.727
  184SLPC  H11S21075   0.145   1.287   3.742
  184SLPC  C21221076   0.040   1.361   3.919
  184SLPC  H12R21077   6.768   1.418   3.943
  184SLPC  C21321078   0.120   1.337   4.025
  184SLPC  H13R21079   0.102   1.375   4.126
  184SLPC  C21421080   0.261   1.280   4.018
  184SLPC  H14R21081   0.279   1.233   3.919
  184SLPC  H14S21082   0.257   1.193   4.086
  184SLPC  C21521083   0.380   1.363   4.052
  184SLPC  H15R21084   0.390   1.441   3.973
  184SLPC  H15S21085   0.466   1.294   4.041
  184SLPC  C21621086   0.383   1.440   4.193
  184SLPC  H16R21087   0.303   1.516   4.182
  184SLPC  H16S21088   0.487   1.472   4.216
  184SLPC  C21721089   0.352   1.359   4.319
  184SLPC  H17R21090   0.251   1.314   4.315
  184SLPC  H17S21091   0.339   1.440   4.393
  184SLPC  C21821092   0.450   1.250   4.373
  184SLPC  H18R21093   0.448   1.168   4.298
  184SLPC  H18S21094   0.417   1.212   4.472
  184SLPC  H18T21095   0.555   1.284   4.382
  184SLPC   C3321096   6.380   1.923   3.171
  184SLPC   H3X21097   6.409   1.820   3.200
  184SLPC   H3Y21098   6.269   1.921   3.166
  184SLPC   C3421099   6.417   2.003   3.290
  184SLPC   H4X21100   6.374   2.105   3.280
  184SLPC   H4Y21101   6.525   2.011   3.316
  184SLPC   C3521102   6.354   1.962   3.419
  184SLPC   H5X21103   6.382   1.857   3.441
  184SLPC   H5Y21104   6.243   1.957   3.422
  184SLPC   C3621105   6.407   2.057   3.531
  184SLPC   H6X21106   6.384   2.159   3.496
  184SLPC   H6Y21107   6.513   2.040   3.560
  184SLPC   C3721108   6.327   2.046   3.658
  184SLPC   H7X21109   6.222   2.014   3.643
  184SLPC   H7Y21110   6.336   2.134   3.725
  184SLPC   C3821111   6.383   1.928   3.742
  184SLPC   H8X21112   6.494   1.929   3.736
  184SLPC   H8Y21113   6.355   1.829   3.700
  184SLPC   C3921114   6.349   1.942   3.895
  184SLPC   H9X21115   6.240   1.917   3.901
  184SLPC   H9Y21116   6.369   2.042   3.938
  184SLPC  C31021117   6.429   1.849   3.982
  184SLPC  H10X21118   6.528   1.896   3.996
  184SLPC  H10Y21119   6.432   1.751   3.930
  184SLPC  C31121120   6.366   1.819   4.123
  184SLPC  H11X21121   6.256   1.806   4.112
  184SLPC  H11Y21122   6.365   1.907   4.191
  184SLPC  C31221123   6.422   1.705   4.202
  184SLPC  H12X21124   6.417   1.611   4.144
  184SLPC  H12Y21125   6.358   1.686   4.291
  184SLPC  C31321126   6.559   1.731   4.257
  184SLPC  H13X21127   6.545   1.801   4.341
  184SLPC  H13Y21128   6.623   1.774   4.177
  184SLPC  C31421129   6.644   1.613   4.304
  184SLPC  H14X21130   6.741   1.653   4.340
  184SLPC  H14Y21131   6.653   1.538   4.223
  184SLPC  C31521132   6.587   1.526   4.421
  184SLPC  H15X21133   6.507   1.458   4.384
  184SLPC  H15Y21134   6.554   1.607   4.489
  184SLPC  C31621135   6.688   1.455   4.507
  184SLPC  H16X21136   6.779   1.518   4.514
  184SLPC  H16Y21137   6.718   1.356   4.465
  184SLPC  C31721138   6.655   1.403   4.652
  184SLPC  H17X21139   6.617   1.486   4.716
  184SLPC  H17Y21140   6.750   1.354   4.683
  184SLPC  C31821141   6.535   1.311   4.638
  184SLPC  H18X21142   6.505   1.277   4.740
  184SLPC  H18Y21143   6.559   1.225   4.573
  184SLPC  H18Z21144   6.454   1.367   4.587
  185POPC     N21145   2.012   5.621   6.549
  185POPC   C1221146   1.882   5.655   6.486
  185POPC  H12A21147   1.858   5.572   6.421
  185POPC  H12B21148   1.888   5.741   6.420
  185POPC   C1321149   1.997   5.482   6.616
  185POPC  H13A21150   1.911   5.479   6.682
  185POPC  H13B21151   1.979   5.405   6.543
  185POPC  H13C21152   2.088   5.458   6.670
  185POPC   C1421153   2.125   5.621   6.453
  185POPC  H14A21154   2.104   5.538   6.387
  185POPC  H14B21155   2.127   5.708   6.390
  185POPC  H14C21156   2.223   5.614   6.497
  185POPC   C1521157   2.050   5.714   6.658
  185POPC  H15A21158   2.155   5.706   6.678
  185POPC  H15B21159   1.991   5.702   6.748
  185POPC  H15C21160   2.033   5.816   6.626
  185POPC   C1121161   1.767   5.679   6.589
  185POPC  H11A21162   1.780   5.595   6.659
  185POPC  H11B21163   1.671   5.669   6.534
  185POPC     P21164   1.662   5.886   6.720
  185POPC   O1321165   1.711   5.942   6.848
  185POPC   O1421166   1.548   5.797   6.740
  185POPC   O1221167   1.780   5.811   6.656
  185POPC   O1121168   1.627   5.991   6.616
  185POPC    C121169   1.717   6.055   6.525
  185POPC    HA21170   1.817   6.006   6.528
  185POPC    HB21171   1.743   6.161   6.542
  185POPC    C221172   1.654   6.061   6.383
  185POPC    HS21173   1.563   6.121   6.407
  185POPC   O2121174   1.624   5.920   6.349
  185POPC   C2121175   1.534   5.905   6.246
  185POPC   O2221176   1.463   5.991   6.204
  185POPC   C2221177   1.529   5.754   6.208
  185POPC   H2R21178   1.436   5.743   6.148
  185POPC   H2S21179   1.518   5.690   6.298
  185POPC    C321180   1.751   6.123   6.275
  185POPC    HX21181   1.842   6.061   6.284
  185POPC    HY21182   1.773   6.229   6.302
  185POPC   O3121183   1.706   6.103   6.136
  185POPC   C3121184   1.662   6.208   6.080
  185POPC   O3221185   1.651   6.321   6.126
  185POPC   C3221186   1.635   6.164   5.938
  185POPC   H2X21187   1.536   6.116   5.922
  185POPC   H2Y21188   1.720   6.094   5.921
  185POPC   C2321189   1.649   5.705   6.127
  185POPC   H3R21190   1.628   5.598   6.108
  185POPC   H3S21191   1.743   5.728   6.181
  185POPC   C2421192   1.671   5.783   5.991
  185POPC   H4R21193   1.764   5.742   5.946
  185POPC   H4S21194   1.682   5.886   6.031
  185POPC   C2521195   1.559   5.777   5.897
  185POPC   H5R21196   1.483   5.847   5.939
  185POPC   H5S21197   1.518   5.674   5.889
  185POPC   C2621198   1.580   5.838   5.757
  185POPC   H6R21199   1.637   5.933   5.768
  185POPC   H6S21200   1.481   5.871   5.719
  185POPC   C2721201   1.650   5.748   5.659
  185POPC   H7R21202   1.582   5.662   5.644
  185POPC   H7S21203   1.754   5.722   5.690
  185POPC   C2821204   1.685   5.814   5.522
  185POPC   H8R21205   1.775   5.760   5.486
  185POPC   H8S21206   1.712   5.921   5.534
  185POPC   C2921207   1.576   5.815   5.420
  185POPC   H9121208   1.475   5.831   5.460
  185POPC  C21021209   1.596   5.800   5.292
  185POPC  H10121210   1.514   5.821   5.221
  185POPC  C21121211   1.729   5.791   5.224
  185POPC  H11R21212   1.726   5.701   5.158
  185POPC  H11S21213   1.810   5.796   5.299
  185POPC  C21221214   1.746   5.906   5.124
  185POPC  H12R21215   1.793   5.994   5.174
  185POPC  H12S21216   1.655   5.949   5.076
  185POPC  C21321217   1.843   5.862   5.013
  185POPC  H13R21218   1.781   5.794   4.950
  185POPC  H13S21219   1.926   5.803   5.056
  185POPC  C21421220   1.893   5.978   4.924
  185POPC  H14R21221   1.975   6.031   4.976
  185POPC  H14S21222   1.811   6.052   4.919
  185POPC  C21521223   1.940   5.931   4.783
  185POPC  H15R21224   1.921   6.018   4.717
  185POPC  H15S21225   1.866   5.857   4.748
  185POPC  C21621226   2.086   5.891   4.785
  185POPC  H16R21227   2.098   5.821   4.870
  185POPC  H16S21228   2.150   5.978   4.815
  185POPC  C21721229   2.132   5.822   4.655
  185POPC  H17R21230   2.242   5.807   4.651
  185POPC  H17S21231   2.104   5.887   4.569
  185POPC  C21821232   2.069   5.681   4.624
  185POPC  H18R21233   2.126   5.633   4.541
  185POPC  H18S21234   1.959   5.689   4.611
  185POPC  H18T21235   2.079   5.615   4.713
  185POPC   C3321236   1.635   6.288   5.840
  185POPC   H3X21237   1.735   6.335   5.853
  185POPC   H3Y21238   1.558   6.366   5.861
  185POPC   C3421239   1.621   6.252   5.694
  185POPC   H4X21240   1.693   6.172   5.666
  185POPC   H4Y21241   1.632   6.343   5.632
  185POPC   C3521242   1.481   6.190   5.657
  185POPC   H5X21243   1.410   6.274   5.665
  185POPC   H5Y21244   1.456   6.121   5.740
  185POPC   C3621245   1.489   6.132   5.512
  185POPC   H6X21246   1.394   6.078   5.488
  185POPC   H6Y21247   1.571   6.057   5.518
  185POPC   C3721248   1.516   6.244   5.402
  185POPC   H7X21249   1.607   6.306   5.415
  185POPC   H7Y21250   1.432   6.316   5.418
  185POPC   C3821251   1.495   6.195   5.262
  185POPC   H8X21252   1.415   6.118   5.252
  185POPC   H8Y21253   1.586   6.141   5.228
  185POPC   C3921254   1.484   6.314   5.159
  185POPC   H9X21255   1.583   6.364   5.160
  185POPC   H9Y21256   1.398   6.381   5.180
  185POPC  C31021257   1.471   6.274   5.009
  185POPC  H10X21258   1.565   6.229   4.971
  185POPC  H10Y21259   1.444   6.360   4.943
  185POPC  C31121260   1.351   6.179   4.998
  185POPC  H11X21261   1.275   6.230   5.061
  185POPC  H11Y21262   1.379   6.080   5.038
  185POPC  C31221263   1.311   6.154   4.849
  185POPC  H12X21264   1.294   6.252   4.799
  185POPC  H12Y21265   1.215   6.098   4.849
  185POPC  C31321266   1.414   6.078   4.768
  185POPC  H13X21267   1.454   5.996   4.832
  185POPC  H13Y21268   1.497   6.150   4.752
  185POPC  C31421269   1.377   6.028   4.624
  185POPC  H14X21270   1.293   5.956   4.630
  185POPC  H14Y21271   1.465   5.974   4.582
  185POPC  C31521272   1.343   6.137   4.529
  185POPC  H15X21273   1.421   6.215   4.515
  185POPC  H15Y21274   1.244   6.176   4.559
  185POPC  C31621275   1.303   6.093   4.380
  185POPC  H16X21276   1.362   6.005   4.346
  185POPC  H16Y21277   1.338   6.176   4.315
  185POPC  H16Z21278   1.194   6.074   4.371
  186POPC     N21279   4.266   5.127   6.693
  186POPC   C1221280   4.247   5.269   6.656
  186POPC  H12A21281   4.192   5.268   6.563
  186POPC  H12B21282   4.343   5.315   6.636
  186POPC   C1321283   4.142   5.050   6.672
  186POPC  H13A21284   4.155   4.951   6.712
  186POPC  H13B21285   4.056   5.105   6.708
  186POPC  H13C21286   4.130   5.038   6.565
  186POPC   C1421287   4.372   5.058   6.614
  186POPC  H14A21288   4.338   5.054   6.511
  186POPC  H14B21289   4.465   5.112   6.627
  186POPC  H14C21290   4.375   4.958   6.653
  186POPC   C1521291   4.299   5.108   6.844
  186POPC  H15A21292   4.311   5.002   6.861
  186POPC  H15B21293   4.224   5.152   6.908
  186POPC  H15C21294   4.395   5.151   6.868
  186POPC   C1121295   4.169   5.367   6.748
  186POPC  H11A21296   4.179   5.475   6.724
  186POPC  H11B21297   4.221   5.345   6.843
  186POPC     P21298   3.934   5.371   6.634
  186POPC   O1321299   3.892   5.508   6.669
  186POPC   O1421300   3.832   5.268   6.626
  186POPC   O1221301   4.031   5.327   6.755
  186POPC   O1121302   4.021   5.361   6.501
  186POPC    C121303   4.068   5.488   6.448
  186POPC    HA21304   4.153   5.462   6.382
  186POPC    HB21305   4.120   5.551   6.523
  186POPC    C221306   3.967   5.577   6.369
  186POPC    HS21307   3.900   5.628   6.442
  186POPC   O2121308   3.902   5.483   6.275
  186POPC   C2121309   3.783   5.514   6.245
  186POPC   O2221310   3.726   5.617   6.277
  186POPC   C2221311   3.720   5.392   6.179
  186POPC   H2R21312   3.663   5.346   6.262
  186POPC   H2S21313   3.801   5.322   6.148
  186POPC    C321314   4.049   5.690   6.287
  186POPC    HX21315   4.114   5.629   6.222
  186POPC    HY21316   4.092   5.748   6.372
  186POPC   O3121317   3.966   5.771   6.194
  186POPC   C3121318   4.032   5.847   6.109
  186POPC   O3221319   4.148   5.849   6.093
  186POPC   C3221320   3.925   5.913   6.018
  186POPC   H2X21321   3.951   6.020   6.007
  186POPC   H2Y21322   3.823   5.900   6.060
  186POPC   C2321323   3.610   5.426   6.063
  186POPC   H3R21324   3.659   5.504   6.002
  186POPC   H3S21325   3.522   5.453   6.125
  186POPC   C2421326   3.564   5.295   5.986
  186POPC   H4R21327   3.502   5.244   6.063
  186POPC   H4S21328   3.651   5.239   5.946
  186POPC   C2521329   3.466   5.339   5.878
  186POPC   H5R21330   3.374   5.383   5.922
  186POPC   H5S21331   3.435   5.244   5.829
  186POPC   C2621332   3.524   5.427   5.771
  186POPC   H6R21333   3.619   5.377   5.743
  186POPC   H6S21334   3.548   5.530   5.804
  186POPC   C2721335   3.426   5.435   5.653
  186POPC   H7R21336   3.326   5.476   5.678
  186POPC   H7S21337   3.401   5.331   5.622
  186POPC   C2821338   3.483   5.515   5.531
  186POPC   H8R21339   3.570   5.453   5.501
  186POPC   H8S21340   3.529   5.611   5.562
  186POPC   C2921341   3.381   5.514   5.422
  186POPC   H9121342   3.315   5.426   5.426
  186POPC  C21021343   3.358   5.610   5.343
  186POPC  H10121344   3.273   5.593   5.274
  186POPC  C21121345   3.432   5.743   5.328
  186POPC  H11R21346   3.494   5.771   5.416
  186POPC  H11S21347   3.359   5.826   5.315
  186POPC  C21221348   3.523   5.755   5.197
  186POPC  H12R21349   3.587   5.666   5.178
  186POPC  H12S21350   3.588   5.845   5.205
  186POPC  C21321351   3.426   5.773   5.080
  186POPC  H13R21352   3.349   5.849   5.105
  186POPC  H13S21353   3.371   5.677   5.071
  186POPC  C21421354   3.485   5.819   4.953
  186POPC  H14R21355   3.412   5.815   4.870
  186POPC  H14S21356   3.561   5.746   4.915
  186POPC  C21521357   3.553   5.954   4.958
  186POPC  H15R21358   3.632   5.957   5.035
  186POPC  H15S21359   3.477   6.027   4.992
  186POPC  C21621360   3.610   5.996   4.825
  186POPC  H16R21361   3.699   5.934   4.800
  186POPC  H16S21362   3.645   6.097   4.854
  186POPC  C21721363   3.501   6.014   4.718
  186POPC  H17R21364   3.404   6.022   4.771
  186POPC  H17S21365   3.504   5.920   4.658
  186POPC  C21821366   3.517   6.142   4.632
  186POPC  H18R21367   3.554   6.229   4.690
  186POPC  H18S21368   3.419   6.169   4.586
  186POPC  H18T21369   3.586   6.122   4.548
  186POPC   C3321370   3.933   5.843   5.873
  186POPC   H3X21371   3.914   5.734   5.888
  186POPC   H3Y21372   4.038   5.864   5.846
  186POPC   C3421373   3.838   5.907   5.768
  186POPC   H4X21374   3.854   6.016   5.766
  186POPC   H4Y21375   3.734   5.895   5.808
  186POPC   C3521376   3.845   5.861   5.627
  186POPC   H5X21377   3.839   5.750   5.630
  186POPC   H5Y21378   3.939   5.895   5.578
  186POPC   C3621379   3.719   5.901   5.548
  186POPC   H6X21380   3.627   5.865   5.599
  186POPC   H6Y21381   3.723   5.847   5.451
  186POPC   C3721382   3.699   6.053   5.526
  186POPC   H7X21383   3.690   6.105   5.623
  186POPC   H7Y21384   3.598   6.058   5.478
  186POPC   C3821385   3.805   6.120   5.435
  186POPC   H8X21386   3.898   6.092   5.489
  186POPC   H8Y21387   3.787   6.229   5.449
  186POPC   C3921388   3.813   6.067   5.289
  186POPC   H9X21389   3.709   6.053   5.254
  186POPC   H9Y21390   3.853   5.963   5.294
  186POPC  C31021391   3.894   6.154   5.199
  186POPC  H10X21392   4.000   6.163   5.231
  186POPC  H10Y21393   3.858   6.259   5.193
  186POPC  C31121394   3.888   6.103   5.052
  186POPC  H11X21395   3.792   6.144   5.015
  186POPC  H11Y21396   3.872   5.993   5.044
  186POPC  C31221397   4.009   6.142   4.968
  186POPC  H12X21398   4.102   6.102   5.016
  186POPC  H12Y21399   4.013   6.250   4.994
  186POPC  C31321400   3.983   6.100   4.820
  186POPC  H13X21401   3.880   6.130   4.791
  186POPC  H13Y21402   3.980   5.990   4.807
  186POPC  C31421403   4.093   6.160   4.729
  186POPC  H14X21404   4.090   6.108   4.631
  186POPC  H14Y21405   4.197   6.156   4.766
  186POPC  C31521406   4.060   6.305   4.702
  186POPC  H15X21407   4.058   6.353   4.802
  186POPC  H15Y21408   3.954   6.300   4.669
  186POPC  C31621409   4.148   6.382   4.605
  186POPC  H16X21410   4.126   6.491   4.610
  186POPC  H16Y21411   4.142   6.341   4.502
  186POPC  H16Z21412   4.253   6.362   4.636
  187POPC     N21413   6.297   4.580   1.964
  187POPC   C1221414   6.317   4.693   2.062
  187POPC  H12A21415   6.292   4.788   2.015
  187POPC  H12B21416   6.421   4.688   2.092
  187POPC   C1321417   6.329   4.451   2.028
  187POPC  H13A21418   6.309   4.380   1.950
  187POPC  H13B21419   6.432   4.436   2.057
  187POPC  H13C21420   6.269   4.436   2.116
  187POPC   C1421421   6.156   4.578   1.912
  187POPC  H14A21422   6.131   4.669   1.859
  187POPC  H14B21423   6.139   4.507   1.832
  187POPC  H14C21424   6.086   4.558   1.992
  187POPC   C1521425   6.391   4.606   1.844
  187POPC  H15A21426   6.355   4.563   1.752
  187POPC  H15B21427   6.494   4.578   1.858
  187POPC  H15C21428   6.400   4.713   1.828
  187POPC   C1121429   6.232   4.689   2.198
  187POPC  H11A21430   6.257   4.780   2.256
  187POPC  H11B21431   6.257   4.596   2.254
  187POPC     P21432   6.017   4.820   2.163
  187POPC   O1321433   5.875   4.782   2.135
  187POPC   O1421434   6.075   4.918   2.067
  187POPC   O1221435   6.097   4.688   2.168
  187POPC   O1121436   6.029   4.878   2.308
  187POPC    C121437   5.976   4.814   2.426
  187POPC    HA21438   6.033   4.720   2.443
  187POPC    HB21439   5.867   4.795   2.416
  187POPC    C221440   5.983   4.907   2.550
  187POPC    HS21441   6.089   4.941   2.550
  187POPC   O2121442   5.945   4.835   2.665
  187POPC   C2121443   6.012   4.852   2.775
  187POPC   O2221444   6.107   4.919   2.798
  187POPC   C2221445   5.931   4.778   2.879
  187POPC   H2R21446   5.951   4.670   2.864
  187POPC   H2S21447   5.822   4.799   2.866
  187POPC    C321448   5.880   5.021   2.523
  187POPC    HX21449   5.783   4.969   2.540
  187POPC    HY21450   5.898   5.065   2.422
  187POPC   O3121451   5.894   5.123   2.626
  187POPC   C3121452   6.002   5.191   2.609
  187POPC   O3221453   6.081   5.179   2.513
  187POPC   C3221454   5.996   5.309   2.701
  187POPC   H2X21455   5.969   5.405   2.654
  187POPC   H2Y21456   6.097   5.300   2.747
  187POPC   C2321457   5.960   4.820   3.024
  187POPC   H3R21458   5.913   4.918   3.045
  187POPC   H3S21459   6.071   4.829   3.026
  187POPC   C2421460   5.903   4.721   3.135
  187POPC   H4R21461   5.932   4.616   3.117
  187POPC   H4S21462   5.795   4.748   3.132
  187POPC   C2521463   5.967   4.749   3.275
  187POPC   H5R21464   5.955   4.858   3.292
  187POPC   H5S21465   6.074   4.724   3.265
  187POPC   C2621466   5.910   4.668   3.394
  187POPC   H6R21467   5.933   4.561   3.378
  187POPC   H6S21468   5.799   4.682   3.395
  187POPC   C2721469   5.984   4.697   3.531
  187POPC   H7R21470   6.093   4.689   3.515
  187POPC   H7S21471   5.944   4.622   3.603
  187POPC   C2821472   5.958   4.835   3.589
  187POPC   H8R21473   5.982   4.903   3.504
  187POPC   H8S21474   6.021   4.861   3.676
  187POPC   C2921475   5.815   4.860   3.629
  187POPC   H9121476   5.749   4.864   3.541
  187POPC  C21021477   5.770   4.860   3.757
  187POPC  H10121478   5.663   4.885   3.772
  187POPC  C21121479   5.849   4.866   3.884
  187POPC  H11R21480   5.958   4.872   3.867
  187POPC  H11S21481   5.827   4.770   3.936
  187POPC  C21221482   5.794   4.983   3.977
  187POPC  H12R21483   5.684   4.977   3.992
  187POPC  H12S21484   5.829   5.077   3.929
  187POPC  C21321485   5.843   4.983   4.121
  187POPC  H13R21486   5.953   4.975   4.133
  187POPC  H13S21487   5.801   4.899   4.181
  187POPC  C21421488   5.793   5.111   4.186
  187POPC  H14R21489   5.685   5.102   4.210
  187POPC  H14S21490   5.805   5.203   4.124
  187POPC  C21521491   5.863   5.142   4.319
  187POPC  H15R21492   5.970   5.171   4.309
  187POPC  H15S21493   5.864   5.049   4.380
  187POPC  C21621494   5.791   5.250   4.405
  187POPC  H16R21495   5.794   5.355   4.367
  187POPC  H16S21496   5.856   5.264   4.493
  187POPC  C21721497   5.653   5.219   4.455
  187POPC  H17R21498   5.660   5.135   4.527
  187POPC  H17S21499   5.589   5.185   4.371
  187POPC  C21821500   5.596   5.344   4.521
  187POPC  H18R21501   5.646   5.352   4.620
  187POPC  H18S21502   5.490   5.322   4.549
  187POPC  H18T21503   5.602   5.434   4.456
  187POPC   C3321504   5.898   5.289   2.824
  187POPC   H3X21505   5.928   5.200   2.883
  187POPC   H3Y21506   5.799   5.266   2.780
  187POPC   C3421507   5.893   5.413   2.913
  187POPC   H4X21508   5.805   5.413   2.980
  187POPC   H4Y21509   5.899   5.507   2.853
  187POPC   C3521510   6.010   5.424   3.019
  187POPC   H5X21511   6.095   5.462   2.958
  187POPC   H5Y21512   6.036   5.322   3.056
  187POPC   C3621513   5.974   5.534   3.125
  187POPC   H6X21514   5.875   5.504   3.165
  187POPC   H6Y21515   5.960   5.628   3.068
  187POPC   C3721516   6.070   5.548   3.244
  187POPC   H7X21517   6.170   5.592   3.223
  187POPC   H7Y21518   6.092   5.447   3.286
  187POPC   C3821519   6.003   5.615   3.359
  187POPC   H8X21520   5.935   5.546   3.412
  187POPC   H8Y21521   5.947   5.706   3.328
  187POPC   C3921522   6.108   5.659   3.467
  187POPC   H9X21523   6.174   5.741   3.429
  187POPC   H9Y21524   6.179   5.575   3.483
  187POPC  C31021525   6.067   5.695   3.613
  187POPC  H10X21526   6.023   5.608   3.666
  187POPC  H10Y21527   6.001   5.784   3.613
  187POPC  C31121528   6.185   5.743   3.706
  187POPC  H11X21529   6.241   5.833   3.673
  187POPC  H11Y21530   6.262   5.666   3.689
  187POPC  C31221531   6.148   5.752   3.852
  187POPC  H12X21532   6.061   5.685   3.865
  187POPC  H12Y21533   6.107   5.852   3.876
  187POPC  C31321534   6.259   5.735   3.956
  187POPC  H13X21535   6.315   5.640   3.941
  187POPC  H13Y21536   6.210   5.730   4.055
  187POPC  C31421537   6.347   5.863   3.957
  187POPC  H14X21538   6.285   5.955   3.971
  187POPC  H14Y21539   6.384   5.875   3.853
  187POPC  C31521540   6.446   5.865   4.075
  187POPC  H15X21541   6.502   5.770   4.089
  187POPC  H15Y21542   6.384   5.873   4.166
  187POPC  C31621543   6.536   5.982   4.098
  187POPC  H16X21544   6.628   5.963   4.157
  187POPC  H16Y21545   6.472   6.061   4.142
  187POPC  H16Z21546   6.581   6.011   4.001
  188POPC     N21547   5.447   4.305   1.582
  188POPC   C1221548   5.298   4.323   1.592
  188POPC  H12A21549   5.261   4.226   1.620
  188POPC  H12B21550   5.257   4.341   1.494
  188POPC   C1321551   5.469   4.172   1.512
  188POPC  H13A21552   5.442   4.176   1.407
  188POPC  H13B21553   5.575   4.152   1.510
  188POPC  H13C21554   5.409   4.101   1.566
  188POPC   C1421555   5.511   4.414   1.500
  188POPC  H14A21556   5.482   4.501   1.557
  188POPC  H14B21557   5.617   4.398   1.501
  188POPC  H14C21558   5.468   4.423   1.402
  188POPC   C1521559   5.516   4.286   1.719
  188POPC  H15A21560   5.619   4.264   1.695
  188POPC  H15B21561   5.463   4.209   1.773
  188POPC  H15C21562   5.513   4.378   1.776
  188POPC   C1121563   5.241   4.426   1.694
  188POPC  H11A21564   5.253   4.390   1.798
  188POPC  H11B21565   5.130   4.416   1.684
  188POPC     P21566   5.363   4.647   1.765
  188POPC   O1321567   5.296   4.778   1.761
  188POPC   O1421568   5.509   4.636   1.754
  188POPC   O1221569   5.286   4.560   1.660
  188POPC   O1121570   5.321   4.581   1.901
  188POPC    C121571   5.199   4.611   1.967
  188POPC    HA21572   5.148   4.515   1.992
  188POPC    HB21573   5.130   4.667   1.902
  188POPC    C221574   5.224   4.692   2.094
  188POPC    HS21575   5.274   4.782   2.052
  188POPC   O2121576   5.291   4.615   2.193
  188POPC   C2121577   5.399   4.666   2.235
  188POPC   O2221578   5.444   4.782   2.220
  188POPC   C2221579   5.476   4.557   2.307
  188POPC   H2R21580   5.579   4.596   2.322
  188POPC   H2S21581   5.480   4.464   2.247
  188POPC    C321582   5.085   4.736   2.154
  188POPC    HX21583   5.030   4.641   2.175
  188POPC    HY21584   5.029   4.793   2.076
  188POPC   O3121585   5.096   4.814   2.273
  188POPC   C3121586   5.024   4.781   2.381
  188POPC   O3221587   4.938   4.693   2.385
  188POPC   C3221588   5.060   4.882   2.488
  188POPC   H2X21589   5.034   4.983   2.451
  188POPC   H2Y21590   5.168   4.869   2.511
  188POPC   C2321591   5.423   4.533   2.447
  188POPC   H3R21592   5.473   4.444   2.491
  188POPC   H3S21593   5.320   4.492   2.455
  188POPC   C2421594   5.434   4.652   2.538
  188POPC   H4R21595   5.383   4.742   2.496
  188POPC   H4S21596   5.541   4.677   2.550
  188POPC   C2521597   5.378   4.631   2.677
  188POPC   H5R21598   5.408   4.527   2.700
  188POPC   H5S21599   5.268   4.636   2.666
  188POPC   C2621600   5.422   4.731   2.786
  188POPC   H6R21601   5.381   4.832   2.766
  188POPC   H6S21602   5.532   4.734   2.775
  188POPC   C2721603   5.379   4.698   2.927
  188POPC   H7R21604   5.423   4.601   2.957
  188POPC   H7S21605   5.268   4.690   2.920
  188POPC   C2821606   5.400   4.815   3.023
  188POPC   H8R21607   5.374   4.912   2.975
  188POPC   H8S21608   5.509   4.824   3.037
  188POPC   C2921609   5.322   4.793   3.154
  188POPC   H9121610   5.215   4.778   3.137
  188POPC  C21021611   5.370   4.796   3.277
  188POPC  H10121612   5.308   4.778   3.365
  188POPC  C21121613   5.504   4.825   3.326
  188POPC  H11R21614   5.568   4.843   3.237
  188POPC  H11S21615   5.532   4.732   3.379
  188POPC  C21221616   5.502   4.947   3.422
  188POPC  H12R21617   5.453   5.037   3.380
  188POPC  H12S21618   5.605   4.985   3.439
  188POPC  C21321619   5.450   4.917   3.567
  188POPC  H13R21620   5.498   4.835   3.624
  188POPC  H13S21621   5.342   4.889   3.564
  188POPC  C21421622   5.473   5.044   3.651
  188POPC  H14R21623   5.430   5.126   3.590
  188POPC  H14S21624   5.582   5.068   3.650
  188POPC  C21521625   5.431   5.032   3.798
  188POPC  H15R21626   5.466   4.936   3.841
  188POPC  H15S21627   5.320   5.039   3.805
  188POPC  C21621628   5.488   5.146   3.875
  188POPC  H16R21629   5.454   5.239   3.825
  188POPC  H16S21630   5.599   5.141   3.868
  188POPC  C21721631   5.451   5.161   4.025
  188POPC  H17R21632   5.509   5.081   4.074
  188POPC  H17S21633   5.346   5.140   4.055
  188POPC  C21821634   5.475   5.304   4.079
  188POPC  H18R21635   5.581   5.337   4.070
  188POPC  H18S21636   5.441   5.310   4.184
  188POPC  H18T21637   5.424   5.377   4.014
  188POPC   C3321638   4.988   4.863   2.624
  188POPC   H3X21639   4.984   4.755   2.647
  188POPC   H3Y21640   4.887   4.908   2.615
  188POPC   C3421641   5.074   4.925   2.730
  188POPC   H4X21642   5.136   5.006   2.687
  188POPC   H4Y21643   5.144   4.850   2.774
  188POPC   C3521644   4.984   5.000   2.831
  188POPC   H5X21645   4.902   4.935   2.867
  188POPC   H5Y21646   4.954   5.092   2.776
  188POPC   C3621647   5.058   5.032   2.962
  188POPC   H6X21648   5.145   5.092   2.928
  188POPC   H6Y21649   5.099   4.941   3.010
  188POPC   C3721650   4.966   5.115   3.051
  188POPC   H7X21651   4.870   5.066   3.078
  188POPC   H7Y21652   4.941   5.208   2.995
  188POPC   C3821653   5.029   5.155   3.184
  188POPC   H8X21654   4.963   5.221   3.245
  188POPC   H8Y21655   5.130   5.198   3.167
  188POPC   C3921656   5.052   5.040   3.278
  188POPC   H9X21657   5.108   4.958   3.227
  188POPC   H9Y21658   4.955   4.998   3.312
  188POPC  C31021659   5.122   5.083   3.413
  188POPC  H10X21660   5.192   5.167   3.397
  188POPC  H10Y21661   5.177   4.990   3.440
  188POPC  C31121662   5.015   5.129   3.513
  188POPC  H11X21663   4.961   5.037   3.545
  188POPC  H11Y21664   4.934   5.199   3.483
  188POPC  C31221665   5.093   5.186   3.641
  188POPC  H12X21666   5.171   5.257   3.605
  188POPC  H12Y21667   5.147   5.100   3.685
  188POPC  C31321668   5.001   5.252   3.752
  188POPC  H13X21669   4.928   5.172   3.778
  188POPC  H13Y21670   4.942   5.332   3.702
  188POPC  C31421671   5.084   5.296   3.870
  188POPC  H14X21672   5.159   5.367   3.827
  188POPC  H14Y21673   5.137   5.206   3.908
  188POPC  C31521674   5.010   5.373   3.985
  188POPC  H15X21675   4.969   5.293   4.050
  188POPC  H15Y21676   4.928   5.437   3.945
  188POPC  C31621677   5.114   5.460   4.064
  188POPC  H16X21678   5.209   5.402   4.068
  188POPC  H16Y21679   5.078   5.471   4.168
  188POPC  H16Z21680   5.135   5.556   4.011
  189SAPI   C1221681   1.908   4.917   6.360
  189SAPI    H221682   1.882   4.958   6.261
  189SAPI    O221683   2.031   4.858   6.337
  189SAPI   HO221684   2.069   4.819   6.417
  189SAPI   C1321685   1.928   5.047   6.437
  189SAPI    H321686   1.828   5.094   6.444
  189SAPI    O321687   1.989   5.150   6.360
  189SAPI   HO321688   2.077   5.118   6.338
  189SAPI   C1421689   1.973   5.028   6.581
  189SAPI    H421690   2.082   5.008   6.582
  189SAPI    O421691   1.954   5.147   6.658
  189SAPI   HO421692   2.043   5.174   6.679
  189SAPI   C1521693   1.902   4.903   6.651
  189SAPI    H521694   1.802   4.945   6.675
  189SAPI    O521695   1.955   4.862   6.778
  189SAPI   HO521696   1.897   4.874   6.854
  189SAPI   C1621697   1.855   4.789   6.562
  189SAPI    H621698   1.946   4.729   6.543
  189SAPI    O621699   1.750   4.715   6.630
  189SAPI   HO621700   1.760   4.628   6.590
  189SAPI   C1121701   1.804   4.832   6.424
  189SAPI    H121702   1.713   4.895   6.436
  189SAPI     P21703   1.644   4.682   6.269
  189SAPI   O1321704   1.533   4.748   6.336
  189SAPI   O1421705   1.634   4.533   6.260
  189SAPI   O1221706   1.785   4.715   6.346
  189SAPI   O1121707   1.636   4.738   6.116
  189SAPI    C121708   1.693   4.866   6.091
  189SAPI    HA21709   1.802   4.861   6.114
  189SAPI    HB21710   1.692   4.873   5.980
  189SAPI    C221711   1.625   4.987   6.146
  189SAPI    HS21712   1.639   4.998   6.255
  189SAPI   O2121713   1.487   4.982   6.110
  189SAPI   C2121714   1.416   5.068   6.189
  189SAPI   O2221715   1.459   5.133   6.278
  189SAPI   C2221716   1.284   5.082   6.114
  189SAPI   H2R21717   1.292   5.085   6.003
  189SAPI   H2S21718   1.225   4.992   6.145
  189SAPI    C321719   1.692   5.115   6.084
  189SAPI    HX21720   1.651   5.208   6.131
  189SAPI    HY21721   1.661   5.111   5.978
  189SAPI   O3121722   1.833   5.112   6.082
  189SAPI   C3121723   1.896   5.222   6.051
  189SAPI   O3221724   1.834   5.319   6.012
  189SAPI   C3221725   2.048   5.224   6.050
  189SAPI   H2X21726   2.076   5.123   6.087
  189SAPI   H2Y21727   2.071   5.299   6.128
  189SAPI   C2321728   1.211   5.210   6.151
  189SAPI   H3R21729   1.239   5.245   6.253
  189SAPI   H3S21730   1.101   5.197   6.139
  189SAPI   C2421731   1.232   5.316   6.043
  189SAPI   H4R21732   1.170   5.402   6.074
  189SAPI   H4S21733   1.183   5.299   5.944
  189SAPI   C2521734   1.377   5.355   6.027
  189SAPI   H5R21735   1.421   5.399   6.118
  189SAPI   C2621736   1.460   5.340   5.923
  189SAPI   H6R21737   1.556   5.390   5.940
  189SAPI   C2721738   1.426   5.266   5.800
  189SAPI   H7R21739   1.323   5.223   5.806
  189SAPI   H7S21740   1.490   5.176   5.794
  189SAPI   C2821741   1.441   5.349   5.676
  189SAPI   H8R21742   1.351   5.412   5.662
  189SAPI   C2921743   1.548   5.350   5.591
  189SAPI   H9R21744   1.548   5.414   5.502
  189SAPI  C21021745   1.674   5.270   5.605
  189SAPI  H10R21746   1.720   5.250   5.506
  189SAPI  H10S21747   1.654   5.168   5.644
  189SAPI  C21121748   1.771   5.351   5.683
  189SAPI  H11R21749   1.744   5.357   5.790
  189SAPI  C21221750   1.862   5.440   5.650
  189SAPI  H12R21751   1.929   5.486   5.724
  189SAPI  C21321752   1.911   5.462   5.503
  189SAPI  H13R21753   1.885   5.568   5.479
  189SAPI  H13S21754   1.838   5.411   5.436
  189SAPI  C21421755   2.050   5.429   5.486
  189SAPI  H14R21756   2.074   5.335   5.536
  189SAPI  C21521757   2.135   5.500   5.408
  189SAPI  H15R21758   2.240   5.475   5.385
  189SAPI  C21621759   2.104   5.624   5.332
  189SAPI  H16R21760   2.169   5.704   5.374
  189SAPI  H16S21761   1.998   5.660   5.338
  189SAPI  C21721762   2.143   5.595   5.184
  189SAPI  H17R21763   2.239   5.540   5.185
  189SAPI  H17S21764   2.160   5.687   5.124
  189SAPI  C21821765   2.030   5.513   5.127
  189SAPI  H18R21766   1.930   5.548   5.161
  189SAPI  H18S21767   2.041   5.408   5.163
  189SAPI  C21921768   2.025   5.525   4.974
  189SAPI  H19R21769   2.118   5.482   4.933
  189SAPI  H19S21770   2.021   5.634   4.952
  189SAPI  C22021771   1.901   5.468   4.909
  189SAPI  H20R21772   1.891   5.371   4.961
  189SAPI  H20S21773   1.904   5.446   4.800
  189SAPI  H20T21774   1.806   5.520   4.934
  189SAPI   C3321775   2.110   5.266   5.914
  189SAPI   H3X21776   2.056   5.355   5.877
  189SAPI   H3Y21777   2.087   5.188   5.838
  189SAPI   C3421778   2.261   5.290   5.926
  189SAPI   H4X21779   2.313   5.198   5.961
  189SAPI   H4Y21780   2.282   5.372   5.999
  189SAPI   C3521781   2.310   5.359   5.789
  189SAPI   H5X21782   2.238   5.436   5.753
  189SAPI   H5Y21783   2.322   5.282   5.710
  189SAPI   C3621784   2.448   5.429   5.813
  189SAPI   H6X21785   2.501   5.375   5.894
  189SAPI   H6Y21786   2.426   5.533   5.845
  189SAPI   C3721787   2.543   5.439   5.693
  189SAPI   H7X21788   2.554   5.347   5.632
  189SAPI   H7Y21789   2.645   5.460   5.731
  189SAPI   C3821790   2.503   5.549   5.593
  189SAPI   H8X21791   2.492   5.641   5.655
  189SAPI   H8Y21792   2.397   5.541   5.563
  189SAPI   C3921793   2.604   5.572   5.486
  189SAPI   H9X21794   2.633   5.475   5.440
  189SAPI   H9Y21795   2.691   5.617   5.539
  189SAPI  C31021796   2.557   5.669   5.374
  189SAPI  H10X21797   2.461   5.630   5.333
  189SAPI  H10Y21798   2.642   5.672   5.303
  189SAPI  C31121799   2.529   5.811   5.423
  189SAPI  H11X21800   2.608   5.846   5.493
  189SAPI  H11Y21801   2.431   5.812   5.476
  189SAPI  C31221802   2.520   5.916   5.306
  189SAPI  H12X21803   2.493   6.017   5.345
  189SAPI  H12Y21804   2.444   5.876   5.236
  189SAPI  C31321805   2.650   5.931   5.220
  189SAPI  H13X21806   2.653   5.836   5.163
  189SAPI  H13Y21807   2.735   5.929   5.291
  189SAPI  C31421808   2.658   6.042   5.122
  189SAPI  H14X21809   2.762   6.066   5.090
  189SAPI  H14Y21810   2.635   6.136   5.176
  189SAPI  C31521811   2.568   6.033   5.002
  189SAPI  H15X21812   2.468   6.026   5.049
  189SAPI  H15Y21813   2.599   5.954   4.930
  189SAPI  C31621814   2.570   6.166   4.921
  189SAPI  H16X21815   2.670   6.197   4.884
  189SAPI  H16Y21816   2.524   6.239   4.990
  189SAPI  C31721817   2.477   6.177   4.799
  189SAPI  H17X21818   2.377   6.144   4.834
  189SAPI  H17Y21819   2.501   6.097   4.725
  189SAPI  C31821820   2.462   6.311   4.722
  189SAPI  H18X21821   2.415   6.286   4.625
  189SAPI  H18Y21822   2.564   6.351   4.705
  189SAPI  H18Z21823   2.410   6.389   4.782
  190SAPI   C1221824   0.980   2.657   6.640
  190SAPI    H221825   0.974   2.645   6.530
  190SAPI    O221826   0.895   2.562   6.704
  190SAPI   HO221827   0.822   2.551   6.643
  190SAPI   C1321828   1.126   2.648   6.679
  190SAPI    H321829   1.180   2.737   6.640
  190SAPI    O321830   1.191   2.533   6.625
  190SAPI   HO321831   1.281   2.527   6.657
  190SAPI   C1421832   1.142   2.648   6.828
  190SAPI    H421833   1.096   2.555   6.869
  190SAPI    O421834   1.280   2.637   6.871
  190SAPI   HO421835   1.308   2.559   6.920
  190SAPI   C1521836   1.072   2.763   6.903
  190SAPI    H521837   1.147   2.844   6.917
  190SAPI    O521838   1.035   2.719   7.035
  190SAPI   HO521839   0.963   2.656   7.026
  190SAPI   C1621840   0.956   2.822   6.832
  190SAPI    H621841   0.862   2.794   6.882
  190SAPI    O621842   0.952   2.963   6.858
  190SAPI   HO621843   0.985   3.015   6.785
  190SAPI   C1121844   0.941   2.798   6.676
  190SAPI    H121845   1.011   2.865   6.621
  190SAPI     P21846   0.775   2.954   6.522
  190SAPI   O1321847   0.871   3.060   6.539
  190SAPI   O1421848   0.634   2.990   6.527
  190SAPI   O1221849   0.808   2.834   6.626
  190SAPI   O1121850   0.816   2.887   6.385
  190SAPI    C121851   0.729   2.815   6.298
  190SAPI    HA21852   0.640   2.769   6.346
  190SAPI    HB21853   0.701   2.875   6.209
  190SAPI    C221854   0.810   2.695   6.242
  190SAPI    HS21855   0.847   2.643   6.333
  190SAPI   O2121856   0.901   2.742   6.149
  190SAPI   C2121857   1.014   2.684   6.145
  190SAPI   O2221858   1.055   2.590   6.214
  190SAPI   C2221859   1.094   2.745   6.031
  190SAPI   H2R21860   1.144   2.833   6.077
  190SAPI   H2S21861   1.172   2.675   5.994
  190SAPI    C321862   0.706   2.600   6.163
  190SAPI    HX21863   0.685   2.661   6.073
  190SAPI    HY21864   0.616   2.582   6.226
  190SAPI   O3121865   0.762   2.476   6.111
  190SAPI   C3121866   0.779   2.375   6.201
  190SAPI   O3221867   0.748   2.395   6.318
  190SAPI   C3221868   0.838   2.252   6.140
  190SAPI   H2X21869   0.838   2.175   6.221
  190SAPI   H2Y21870   0.939   2.284   6.107
  190SAPI   C2321871   1.008   2.785   5.904
  190SAPI   H3R21872   1.063   2.856   5.839
  190SAPI   H3S21873   0.929   2.848   5.948
  190SAPI   C2421874   0.976   2.659   5.815
  190SAPI   H4R21875   0.905   2.697   5.739
  190SAPI   H4S21876   0.922   2.590   5.883
  190SAPI   C2521877   1.096   2.582   5.753
  190SAPI   H5R21878   1.153   2.516   5.820
  190SAPI   C2621879   1.130   2.592   5.619
  190SAPI   H6R21880   1.223   2.541   5.589
  190SAPI   C2721881   1.058   2.675   5.520
  190SAPI   H7R21882   1.126   2.695   5.435
  190SAPI   H7S21883   1.030   2.773   5.566
  190SAPI   C2821884   0.935   2.606   5.459
  190SAPI   H8R21885   0.847   2.583   5.520
  190SAPI   C2921886   0.924   2.581   5.324
  190SAPI   H9R21887   0.824   2.550   5.290
  190SAPI  C21021888   1.030   2.621   5.226
  190SAPI  H10R21889   1.127   2.581   5.263
  190SAPI  H10S21890   1.033   2.732   5.230
  190SAPI  C21121891   1.000   2.574   5.081
  190SAPI  H11R21892   0.913   2.510   5.062
  190SAPI  C21221893   1.069   2.618   4.976
  190SAPI  H12R21894   1.036   2.582   4.877
  190SAPI  C21321895   1.196   2.703   4.973
  190SAPI  H13R21896   1.254   2.650   4.894
  190SAPI  H13S21897   1.255   2.697   5.067
  190SAPI  C21421898   1.184   2.847   4.920
  190SAPI  H14R21899   1.120   2.915   4.977
  190SAPI  C21521900   1.245   2.903   4.812
  190SAPI  H15R21901   1.221   3.003   4.776
  190SAPI  C21621902   1.336   2.828   4.718
  190SAPI  H16R21903   1.342   2.717   4.726
  190SAPI  H16S21904   1.444   2.850   4.730
  190SAPI  C21721905   1.297   2.855   4.576
  190SAPI  H17R21906   1.377   2.813   4.512
  190SAPI  H17S21907   1.297   2.965   4.560
  190SAPI  C21821908   1.152   2.790   4.537
  190SAPI  H18R21909   1.076   2.818   4.614
  190SAPI  H18S21910   1.173   2.681   4.530
  190SAPI  C21921911   1.104   2.832   4.395
  190SAPI  H19R21912   1.167   2.804   4.309
  190SAPI  H19S21913   1.100   2.942   4.410
  190SAPI  C22021914   0.967   2.777   4.366
  190SAPI  H20R21915   0.897   2.784   4.452
  190SAPI  H20S21916   0.988   2.676   4.324
  190SAPI  H20T21917   0.926   2.840   4.284
  190SAPI   C3321918   0.769   2.198   6.012
  190SAPI   H3X21919   0.659   2.193   6.030
  190SAPI   H3Y21920   0.802   2.092   6.006
  190SAPI   C3421921   0.798   2.271   5.877
  190SAPI   H4X21922   0.907   2.293   5.872
  190SAPI   H4Y21923   0.741   2.366   5.885
  190SAPI   C3521924   0.751   2.207   5.737
  190SAPI   H5X21925   0.759   2.293   5.667
  190SAPI   H5Y21926   0.643   2.180   5.741
  190SAPI   C3621927   0.842   2.090   5.703
  190SAPI   H6X21928   0.831   2.021   5.789
  190SAPI   H6Y21929   0.947   2.124   5.715
  190SAPI   C3721930   0.818   2.034   5.569
  190SAPI   H7X21931   0.731   1.965   5.555
  190SAPI   H7Y21932   0.909   1.974   5.549
  190SAPI   C3821933   0.813   2.135   5.456
  190SAPI   H8X21934   0.905   2.197   5.449
  190SAPI   H8Y21935   0.720   2.196   5.455
  190SAPI   C3921936   0.800   2.066   5.312
  190SAPI   H9X21937   0.717   1.992   5.310
  190SAPI   H9Y21938   0.894   2.009   5.297
  190SAPI  C31021939   0.804   2.171   5.199
  190SAPI  H10X21940   0.898   2.229   5.216
  190SAPI  H10Y21941   0.725   2.249   5.204
  190SAPI  C31121942   0.806   2.112   5.059
  190SAPI  H11X21943   0.713   2.129   5.001
  190SAPI  H11Y21944   0.797   2.002   5.075
  190SAPI  C31221945   0.935   2.147   4.983
  190SAPI  H12X21946   1.020   2.105   5.041
  190SAPI  H12Y21947   0.943   2.258   4.971
  190SAPI  C31321948   0.936   2.079   4.853
  190SAPI  H13X21949   0.856   2.116   4.785
  190SAPI  H13Y21950   0.929   1.970   4.874
  190SAPI  C31421951   1.059   2.092   4.762
  190SAPI  H14X21952   1.063   1.997   4.704
  190SAPI  H14Y21953   1.131   2.096   4.847
  190SAPI  C31521954   1.074   2.205   4.658
  190SAPI  H15X21955   1.066   2.301   4.713
  190SAPI  H15Y21956   0.988   2.199   4.588
  190SAPI  C31621957   1.204   2.191   4.578
  190SAPI  H16X21958   1.288   2.160   4.644
  190SAPI  H16Y21959   1.239   2.286   4.533
  190SAPI  C31721960   1.186   2.093   4.461
  190SAPI  H17X21961   1.110   2.133   4.391
  190SAPI  H17Y21962   1.155   1.991   4.492
  190SAPI  C31821963   1.322   2.079   4.391
  190SAPI  H18X21964   1.393   2.079   4.477
  190SAPI  H18Y21965   1.347   2.174   4.339
  190SAPI  H18Z21966   1.333   1.986   4.332
  191SAPI   C1221967   4.654   4.403   2.055
  191SAPI    H221968   4.677   4.381   2.161
  191SAPI    O221969   4.585   4.529   2.047
  191SAPI   HO221970   4.491   4.513   2.038
  191SAPI   C1321971   4.770   4.400   1.971
  191SAPI    H321972   4.811   4.297   1.976
  191SAPI    O321973   4.869   4.493   2.013
  191SAPI   HO321974   4.844   4.580   1.983
  191SAPI   C1421975   4.738   4.419   1.820
  191SAPI    H421976   4.711   4.527   1.816
  191SAPI    O421977   4.848   4.406   1.735
  191SAPI   HO421978   4.870   4.315   1.756
  191SAPI   C1521979   4.610   4.353   1.768
  191SAPI    H521980   4.645   4.257   1.725
  191SAPI    O521981   4.553   4.419   1.652
  191SAPI   HO521982   4.514   4.503   1.678
  191SAPI   C1621983   4.506   4.318   1.872
  191SAPI    H621984   4.435   4.403   1.876
  191SAPI    O621985   4.432   4.204   1.829
  191SAPI   HO621986   4.480   4.127   1.862
  191SAPI   C1121987   4.560   4.293   2.012
  191SAPI    H121988   4.615   4.197   2.009
  191SAPI     P21989   4.388   4.144   2.164
  191SAPI   O1321990   4.412   4.028   2.078
  191SAPI   O1421991   4.245   4.161   2.190
  191SAPI   O1221992   4.447   4.285   2.096
  191SAPI   O1121993   4.466   4.116   2.298
  191SAPI    C121994   4.610   4.096   2.309
  191SAPI    HA21995   4.668   4.160   2.238
  191SAPI    HB21996   4.646   4.127   2.410
  191SAPI    C221997   4.645   3.947   2.284
  191SAPI    HS21998   4.642   3.925   2.175
  191SAPI   O2121999   4.549   3.869   2.363
  191SAPI   C2122000   4.507   3.765   2.301
  191SAPI   O2222001   4.557   3.719   2.201
  191SAPI   C2222002   4.399   3.697   2.383
  191SAPI   H2R22003   4.331   3.776   2.421
  191SAPI   H2S22004   4.333   3.635   2.318
  191SAPI    C322005   4.792   3.911   2.320
  191SAPI    HX22006   4.869   3.965   2.262
  191SAPI    HY22007   4.815   3.807   2.289
  191SAPI   O3122008   4.817   3.933   2.468
  191SAPI   C3122009   4.816   3.824   2.536
  191SAPI   O3222010   4.786   3.717   2.492
  191SAPI   C3222011   4.853   3.852   2.682
  191SAPI   H2X22012   4.786   3.931   2.722
  191SAPI   H2Y22013   4.959   3.887   2.688
  191SAPI   C2322014   4.446   3.603   2.494
  191SAPI   H3R22015   4.504   3.665   2.566
  191SAPI   H3S22016   4.495   3.511   2.456
  191SAPI   C2422017   4.336   3.563   2.583
  191SAPI   H4R22018   4.254   3.519   2.522
  191SAPI   H4S22019   4.293   3.650   2.638
  191SAPI   C2522020   4.400   3.457   2.671
  191SAPI   H5R22021   4.442   3.373   2.615
  191SAPI   C2622022   4.419   3.459   2.803
  191SAPI   H6R22023   4.475   3.373   2.840
  191SAPI   C2722024   4.390   3.566   2.906
  191SAPI   H7R22025   4.385   3.668   2.864
  191SAPI   H7S22026   4.462   3.566   2.990
  191SAPI   C2822027   4.255   3.553   2.971
  191SAPI   H8R22028   4.191   3.487   2.911
  191SAPI   C2922029   4.219   3.619   3.083
  191SAPI   H9R22030   4.119   3.594   3.122
  191SAPI  C21022031   4.301   3.703   3.181
  191SAPI  H10R22032   4.235   3.776   3.233
  191SAPI  H10S22033   4.369   3.768   3.121
  191SAPI  C21122034   4.372   3.605   3.270
  191SAPI  H11R22035   4.402   3.509   3.227
  191SAPI  C21222036   4.403   3.630   3.399
  191SAPI  H12R22037   4.442   3.553   3.467
  191SAPI  C21322038   4.375   3.757   3.474
  191SAPI  H13R22039   4.338   3.837   3.407
  191SAPI  H13S22040   4.471   3.808   3.499
  191SAPI  C21422041   4.282   3.730   3.592
  191SAPI  H14R22042   4.190   3.680   3.558
  191SAPI  C21522043   4.301   3.736   3.725
  191SAPI  H15R22044   4.217   3.704   3.789
  191SAPI  C21622045   4.430   3.776   3.793
  191SAPI  H16R22046   4.484   3.847   3.727
  191SAPI  H16S22047   4.494   3.685   3.798
  191SAPI  C21722048   4.399   3.836   3.934
  191SAPI  H17R22049   4.312   3.905   3.934
  191SAPI  H17S22050   4.479   3.908   3.963
  191SAPI  C21822051   4.353   3.734   4.040
  191SAPI  H18R22052   4.443   3.693   4.091
  191SAPI  H18S22053   4.301   3.645   3.997
  191SAPI  C21922054   4.269   3.801   4.145
  191SAPI  H19R22055   4.218   3.721   4.202
  191SAPI  H19S22056   4.184   3.858   4.101
  191SAPI  C22022057   4.339   3.899   4.241
  191SAPI  H20R22058   4.397   3.838   4.314
  191SAPI  H20S22059   4.281   3.975   4.298
  191SAPI  H20T22060   4.418   3.952   4.184
  191SAPI   C3322061   4.851   3.726   2.779
  191SAPI   H3X22062   4.917   3.649   2.734
  191SAPI   H3Y22063   4.747   3.688   2.781
  191SAPI   C3422064   4.909   3.750   2.920
  191SAPI   H4X22065   5.012   3.791   2.911
  191SAPI   H4Y22066   4.914   3.658   2.983
  191SAPI   C3522067   4.804   3.828   2.997
  191SAPI   H5X22068   4.722   3.756   3.018
  191SAPI   H5Y22069   4.769   3.923   2.951
  191SAPI   C3622070   4.882   3.864   3.124
  191SAPI   H6X22071   4.973   3.917   3.091
  191SAPI   H6Y22072   4.904   3.768   3.176
  191SAPI   C3722073   4.814   3.968   3.213
  191SAPI   H7X22074   4.736   3.905   3.261
  191SAPI   H7Y22075   4.770   4.060   3.168
  191SAPI   C3822076   4.915   4.025   3.311
  191SAPI   H8X22077   4.974   4.115   3.282
  191SAPI   H8Y22078   4.982   3.937   3.322
  191SAPI   C3922079   4.854   4.060   3.449
  191SAPI   H9X22080   4.793   3.974   3.485
  191SAPI   H9Y22081   4.792   4.153   3.452
  191SAPI  C31022082   4.969   4.093   3.540
  191SAPI  H10X22083   5.039   4.165   3.492
  191SAPI  H10Y22084   5.036   4.011   3.575
  191SAPI  C31122085   4.929   4.154   3.677
  191SAPI  H11X22086   4.868   4.081   3.735
  191SAPI  H11Y22087   4.864   4.243   3.664
  191SAPI  C31222088   5.048   4.193   3.773
  191SAPI  H12X22089   5.122   4.252   3.714
  191SAPI  H12Y22090   5.095   4.101   3.813
  191SAPI  C31322091   4.993   4.272   3.901
  191SAPI  H13X22092   4.887   4.245   3.921
  191SAPI  H13Y22093   4.987   4.380   3.876
  191SAPI  C31422094   5.079   4.251   4.026
  191SAPI  H14X22095   5.186   4.279   4.013
  191SAPI  H14Y22096   5.077   4.143   4.051
  191SAPI  C31522097   5.030   4.330   4.155
  191SAPI  H15X22098   5.006   4.432   4.120
  191SAPI  H15Y22099   5.113   4.330   4.229
  191SAPI  C31622100   4.904   4.275   4.211
  191SAPI  H16X22101   4.920   4.168   4.239
  191SAPI  H16Y22102   4.826   4.272   4.132
  191SAPI  C31722103   4.846   4.354   4.335
  191SAPI  H17X22104   4.911   4.332   4.422
  191SAPI  H17Y22105   4.740   4.329   4.358
  191SAPI  C31822106   4.855   4.512   4.324
  191SAPI  H18X22107   4.964   4.517   4.302
  191SAPI  H18Y22108   4.828   4.571   4.415
  191SAPI  H18Z22109   4.791   4.542   4.239
  192SAPI   C1222110   0.286   6.795   1.966
  192SAPI    H222111   0.250   6.705   1.912
  192SAPI    O222112   0.412   0.019   1.911
  192SAPI   HO222113   0.480   6.776   1.936
  192SAPI   C1322114   0.184   0.088   1.948
  192SAPI    H322115   0.089   0.066   2.003
  192SAPI    O322116   0.147   0.108   1.815
  192SAPI   HO322117   0.224   0.105   1.758
  192SAPI   C1422118   0.238   0.218   2.018
  192SAPI    H422119   0.329   0.238   1.957
  192SAPI    O422120   0.158   0.333   2.003
  192SAPI   HO422121   0.185   0.400   1.939
  192SAPI   C1522122   0.302   0.178   2.157
  192SAPI    H522123   0.209   0.174   2.217
  192SAPI    O522124   0.377   0.287   2.205
  192SAPI   HO522125   0.322   0.358   2.239
  192SAPI   C1622126   0.354   0.046   2.191
  192SAPI    H622127   0.464   0.050   2.175
  192SAPI    O622128   0.341   0.015   2.330
  192SAPI   HO622129   0.425   6.799   2.361
  192SAPI   C1122130   0.303   6.749   2.103
  192SAPI    H122131   0.207   6.708   2.141
  192SAPI     P22132   0.357   6.488   2.122
  192SAPI   O1322133   0.471   6.408   2.071
  192SAPI   O1422134   0.222   6.470   2.059
  192SAPI   O1222135   0.401   6.643   2.095
  192SAPI   O1122136   0.359   6.489   2.278
  192SAPI    C122137   0.366   6.374   2.362
  192SAPI    HA22138   0.267   6.324   2.369
  192SAPI    HB22139   0.423   6.289   2.320
  192SAPI    C222140   0.408   6.403   2.504
  192SAPI    HS22141   0.434   6.303   2.545
  192SAPI   O2122142   0.311   6.475   2.591
  192SAPI   C2122143   0.213   6.385   2.620
  192SAPI   O2222144   0.215   6.270   2.591
  192SAPI   C2222145   0.103   6.458   2.702
  192SAPI   H2R22146   0.026   6.489   2.627
  192SAPI   H2S22147   0.068   6.384   2.777
  192SAPI    C322148   0.551   6.469   2.504
  192SAPI    HX22149   0.533   6.576   2.480
  192SAPI    HY22150   0.620   6.423   2.430
  192SAPI   O3122151   0.615   6.454   2.625
  192SAPI   C3122152   0.712   6.536   2.654
  192SAPI   O3222153   0.748   6.632   2.586
  192SAPI   C3222154   0.781   6.509   2.784
  192SAPI   H2X22155   0.890   6.521   2.772
  192SAPI   H2Y22156   0.746   6.413   2.827
  192SAPI   C2322157   0.140   6.576   2.791
  192SAPI   H3R22158   0.160   6.661   2.722
  192SAPI   H3S22159   0.241   6.557   2.833
  192SAPI   C2422160   0.041   6.621   2.898
  192SAPI   H4R22161   0.023   6.537   2.969
  192SAPI   H4S22162   6.767   6.635   2.839
  192SAPI   C2522163   0.090   6.753   2.964
  192SAPI   H5R22164   0.059   0.029   2.920
  192SAPI   C2622165   0.164   6.759   3.076
  192SAPI   H6R22166   0.200   0.035   3.117
  192SAPI   C2722167   0.213   6.639   3.149
  192SAPI   H7R22168   0.207   6.550   3.081
  192SAPI   H7S22169   0.138   6.619   3.229
  192SAPI   C2822170   0.354   6.653   3.196
  192SAPI   H8R22171   0.430   6.680   3.121
  192SAPI   C2922172   0.386   6.645   3.325
  192SAPI   H9R22173   0.492   6.670   3.342
  192SAPI  C21022174   0.300   6.628   3.443
  192SAPI  H10R22175   0.365   6.594   3.526
  192SAPI  H10S22176   0.227   6.545   3.434
  192SAPI  C21122177   0.215   6.753   3.477
  192SAPI  H11R22178   0.132   6.761   3.405
  192SAPI  C21222179   0.231   0.007   3.589
  192SAPI  H12R22180   0.157   0.084   3.618
  192SAPI  C21322181   0.343   6.808   3.677
  192SAPI  H13R22182   0.387   0.089   3.693
  192SAPI  H13S22183   0.420   6.748   3.624
  192SAPI  C21422184   0.305   6.741   3.807
  192SAPI  H14R22185   0.275   6.636   3.799
  192SAPI  C21522186   0.313   6.800   3.930
  192SAPI  H15R22187   0.299   6.736   4.019
  192SAPI  C21622188   0.367   0.117   3.959
  192SAPI  H16R22189   0.319   0.190   3.890
  192SAPI  H16S22190   0.474   0.133   3.933
  192SAPI  C21722191   0.338   0.159   4.107
  192SAPI  H17R22192   0.229   0.154   4.127
  192SAPI  H17S22193   0.365   0.267   4.110
  192SAPI  C21822194   0.417   0.081   4.213
  192SAPI  H18R22195   0.525   0.073   4.188
  192SAPI  H18S22196   0.367   6.802   4.218
  192SAPI  C21922197   0.407   0.147   4.355
  192SAPI  H19R22198   0.313   0.108   4.399
  192SAPI  H19S22199   0.411   0.258   4.349
  192SAPI  C22022200   0.536   0.115   4.431
  192SAPI  H20R22201   0.543   0.159   4.533
  192SAPI  H20S22202   0.628   0.135   4.372
  192SAPI  H20T22203   0.540   0.005   4.446
  192SAPI   C3322204   0.748   6.620   2.885
  192SAPI   H3X22205   0.638   6.630   2.895
  192SAPI   H3Y22206   0.796   6.716   2.857
  192SAPI   C3422207   0.816   6.582   3.025
  192SAPI   H4X22208   0.919   6.552   2.997
  192SAPI   H4Y22209   0.768   6.489   3.062
  192SAPI   C3522210   0.817   6.682   3.138
  192SAPI   H5X22211   0.726   6.745   3.131
  192SAPI   H5Y22212   0.908   6.745   3.133
  192SAPI   C3622213   0.808   6.617   3.275
  192SAPI   H6X22214   0.895   6.550   3.293
  192SAPI   H6Y22215   0.719   6.551   3.274
  192SAPI   C3722216   0.786   6.715   3.390
  192SAPI   H7X22217   0.696   6.776   3.367
  192SAPI   H7Y22218   0.869   6.787   3.403
  192SAPI   C3822219   0.751   6.639   3.516
  192SAPI   H8X22220   0.843   6.579   3.531
  192SAPI   H8Y22221   0.664   6.571   3.502
  192SAPI   C3922222   0.735   6.739   3.635
  192SAPI   H9X22223   0.706   6.684   3.727
  192SAPI   H9Y22224   0.647   6.803   3.612
  192SAPI  C31022225   0.846   0.015   3.674
  192SAPI  H10X22226   0.874   0.079   3.587
  192SAPI  H10Y22227   0.940   6.779   3.695
  192SAPI  C31122228   0.816   0.115   3.787
  192SAPI  H11X22229   0.783   0.045   3.867
  192SAPI  H11Y22230   0.741   0.187   3.749
  192SAPI  C31222231   0.942   0.182   3.833
  192SAPI  H12X22232   0.988   0.227   3.742
  192SAPI  H12Y22233   1.010   0.108   3.880
  192SAPI  C31322234   0.914   0.297   3.932
  192SAPI  H13X22235   0.848   0.376   3.890
  192SAPI  H13Y22236   1.014   0.346   3.941
  192SAPI  C31422237   0.852   0.248   4.061
  192SAPI  H14X22238   0.929   0.177   4.097
  192SAPI  H14Y22239   0.752   0.206   4.034
  192SAPI  C31522240   0.831   0.351   4.170
  192SAPI  H15X22241   0.756   0.310   4.240
  192SAPI  H15Y22242   0.778   0.441   4.133
  192SAPI  C31622243   0.956   0.379   4.250
  192SAPI  H16X22244   1.042   0.417   4.190
  192SAPI  H16Y22245   0.979   0.284   4.301
  192SAPI  C31722246   0.925   0.474   4.363
  192SAPI  H17X22247   0.869   0.431   4.449
  192SAPI  H17Y22248   0.870   0.565   4.331
  192SAPI  C31822249   1.055   0.511   4.434
  192SAPI  H18X22250   1.137   0.518   4.359
  192SAPI  H18Y22251   1.093   0.425   4.494
  192SAPI  H18Z22252   1.056   0.600   4.500
  193SOD    SOD22253   2.998   4.941   2.236
  194SOD    SOD22254   0.467   4.693   8.445
  195SOD    SOD22255   2.486   5.833   8.132
  196SOD    SOD22256   3.684   1.224   2.165
  197SOD    SOD22257   2.607   0.963   6.556
  198SOD    SOD22258   0.429   2.660   7.612
  199SOD    SOD22259   1.547   0.801   0.893
  200SOD    SOD22260   0.511   0.690   1.569
  201SOD    SOD22261   6.448   6.529   2.264
  202SOD    SOD22262   5.761   1.607   1.324
  203SOD    SOD22263   3.682   6.777   2.119
  204SOD    SOD22264   2.604   2.859   1.629
  205SOD    SOD22265   4.890   5.530   1.110
  206SOD    SOD22266   3.230   4.375   2.113
  207SOD    SOD22267   0.925   2.381   2.152
  208SOD    SOD22268   3.823   0.272   6.575
  209SOD    SOD22269   4.457   3.383   1.885
  210SOD    SOD22270   2.801   3.670   6.257
  211SOD    SOD22271   0.666   3.203   0.859
  212SOD    SOD22272   2.678   5.251   0.789
  213SOD    SOD22273   6.107   3.686   0.105
  214SOD    SOD22274   3.154   3.165   7.991
  215SOD    SOD22275   6.317   6.131   1.583
  216SOD    SOD22276   1.721   5.379   6.906
  217SOD    SOD22277   0.197   2.023   1.992
  218SOD    SOD22278   0.056   0.865   7.644
  219SOD    SOD22279   3.740   4.769   6.755
  220SOD    SOD22280   3.198   5.624   7.587
  221SOD    SOD22281   1.542   4.674   7.289
  222SOD    SOD22282   2.122   1.934   1.879
  223SOD    SOD22283   4.320   5.067   2.139
  224SOD    SOD22284   5.970   5.735   8.743
  225SOD    SOD22285   5.921   6.471   6.436
  226SOD    SOD22286   4.713   4.406   1.118
  227SOD    SOD22287   4.116   4.135   6.952
  228SOD    SOD22288   0.300   4.704   7.954
  229SOD    SOD22289   4.239   0.159   8.786
  230SOD    SOD22290   4.991   6.070   7.229
  231SOD    SOD22291   0.476   3.568   7.216
  232SOD    SOD22292   3.233   5.194   8.511
  233SOD    SOD22293   2.833   1.720   2.200
  234CLA    CLA22294   4.701   5.781   7.775
  235CLA    CLA22295   3.989   4.046   1.235
  236CLA    CLA22296   0.792   2.803   0.440
  237CLA    CLA22297   2.166   4.002   8.273
  238CLA    CLA22298   5.891   5.226   8.793
  239CLA    CLA22299   0.824   3.100   1.901
  240CLA    CLA22300   2.740   5.890   0.680
  241CLA    CLA22301   1.349   1.502   8.225
  242CLA    CLA22302   2.999   0.982   1.543
  243CLA    CLA22303   5.646   0.714   0.439
  244CLA    CLA22304   1.508   5.873   0.046
  245CLA    CLA22305   3.663   5.964   7.508
  246CLA    CLA22306   0.940   6.537   7.325
  247CLA    CLA22307   5.918   5.632   7.757
  248CLA    CLA22308   2.530   4.402   8.057
  249CLA    CLA22309   6.165   4.605   0.049
  250CLA    CLA22310   6.485   2.874   0.762
  251TIP3   OH222311   6.315   0.327   0.808
  251TIP3    H122312   6.375   0.277   0.864
  251TIP3    H222313   6.279   0.262   0.747
  252TIP3   OH222314   3.326   3.824   0.351
  252TIP3    H122315   3.385   3.825   0.276
  252TIP3    H222316   3.294   3.734   0.356
  253TIP3   OH222317   4.121   5.693   0.193
  253TIP3    H122318   4.191   5.735   0.243
  253TIP3    H222319   4.055   5.761   0.181
  254TIP3   OH222320   1.191   3.791   8.541
  254TIP3    H122321   1.262   3.727   8.547
  254TIP3    H222322   1.199   3.828   8.453
  255TIP3   OH222323   1.046   1.168   0.090
  255TIP3    H122324   1.067   1.203   0.003
  255TIP3    H222325   0.951   1.156   0.089
  256TIP3   OH222326   6.092   2.359   1.237
  256TIP3    H122327   6.055   2.446   1.250
  256TIP3    H222328   6.144   2.366   1.157
  257TIP3   OH222329   6.285   0.286   7.326
  257TIP3    H122330   6.294   0.365   7.273
  257TIP3    H222331   6.246   0.222   7.266
  258TIP3   OH222332   5.867   3.306   6.592
  258TIP3    H122333   5.860   3.391   6.550
  258TIP3    H222334   5.950   3.308   6.639
  259TIP3   OH222335   2.488   3.018   7.242
  259TIP3    H122336   2.579   3.029   7.213
  259TIP3    H222337   2.470   2.925   7.228
  260TIP3   OH222338   0.906   5.573   7.342
  260TIP3    H122339   0.891   5.503   7.279
  260TIP3    H222340   0.965   5.535   7.407
  261TIP3   OH222341   2.737   3.060   7.131
  261TIP3    H122342   2.760   3.126   7.066
  261TIP3    H222343   2.819   3.013   7.149
  262TIP3   OH222344   4.007   5.208   7.927
  262TIP3    H122345   4.004   5.292   7.881
  262TIP3    H222346   3.929   5.208   7.982
  263TIP3   OH222347   5.837   1.954   8.708
  263TIP3    H122348   5.933   1.953   8.710
  263TIP3    H222349   5.815   1.909   8.626
  264TIP3   OH222350   1.143   5.438   0.302
  264TIP3    H122351   1.172   5.358   0.259
  264TIP3    H222352   1.223   5.481   0.331
  265TIP3   OH222353   5.441   2.946   1.005
  265TIP3    H122354   5.434   2.917   1.096
  265TIP3    H222355   5.379   3.018   0.998
  266TIP3   OH222356   1.678   5.878   8.420
  266TIP3    H122357   1.646   5.804   8.369
  266TIP3    H222358   1.626   5.953   8.390
  267TIP3   OH222359   0.210   5.743   0.195
  267TIP3    H122360   0.204   5.831   0.232
  267TIP3    H222361   0.169   5.751   0.108
  268TIP3   OH222362   5.760   0.815   0.935
  268TIP3    H122363   5.827   0.844   0.997
  268TIP3    H222364   5.753   0.886   0.872
  269TIP3   OH222365   3.115   1.990   2.555
  269TIP3    H122366   3.181   2.035   2.502
  269TIP3    H222367   3.152   1.990   2.643
  270TIP3   OH222368   2.112   6.120   7.633
  270TIP3    H122369   2.112   6.167   7.550
  270TIP3    H222370   2.020   6.099   7.650
  271TIP3   OH222371   6.042   6.197   6.069
  271TIP3    H122372   5.972   6.167   6.127
  271TIP3    H222373   6.055   6.124   6.008
  272TIP3   OH222374   2.568   0.260   7.910
  272TIP3    H122375   2.480   0.242   7.875
  272TIP3    H222376   2.625   0.201   7.861
  273TIP3   OH222377   0.843   0.505   6.889
  273TIP3    H122378   0.899   0.431   6.867
  273TIP3    H222379   0.833   0.553   6.806
  274TIP3   OH222380   5.346   6.389   6.930
  274TIP3    H122381   5.274   6.436   6.888
  274TIP3    H222382   5.415   6.386   6.863
  275TIP3   OH222383   4.318   2.739   0.527
  275TIP3    H122384   4.297   2.816   0.473
  275TIP3    H222385   4.403   2.759   0.565
  276TIP3   OH222386   6.616   0.067   1.674
  276TIP3    H122387   6.568   0.004   1.619
  276TIP3    H222388   6.550   0.132   1.698
  277TIP3   OH222389   6.715   0.346   2.114
  277TIP3    H122390   6.806   0.339   2.084
  277TIP3    H222391   6.722   0.388   2.200
  278TIP3   OH222392   5.031   6.224   8.517
  278TIP3    H122393   5.082   6.144   8.506
  278TIP3    H222394   5.051   6.255   8.605
  279TIP3   OH222395   5.783   3.672   0.833
  279TIP3    H122396   5.705   3.639   0.788
  279TIP3    H222397   5.855   3.623   0.794
  280TIP3   OH222398   4.293   6.045   1.700
  280TIP3    H122399   4.316   5.952   1.696
  280TIP3    H222400   4.214   6.048   1.753
  281TIP3   OH222401   5.541   0.861   1.121
  281TIP3    H122402   5.613   0.802   1.103
  281TIP3    H222403   5.505   0.831   1.205
  282TIP3   OH222404   3.539   0.594   8.519
  282TIP3    H122405   3.504   0.684   8.520
  282TIP3    H222406   3.628   0.603   8.554
  283TIP3   OH222407   6.360   3.840   1.804
  283TIP3    H122408   6.338   3.853   1.712
  283TIP3    H222409   6.455   3.828   1.805
  284TIP3   OH222410   5.958   2.116   0.274
  284TIP3    H122411   5.904   2.145   0.347
  284TIP3    H222412   6.010   2.194   0.251
  285TIP3   OH222413   5.339   2.061   7.422
  285TIP3    H122414   5.382   2.134   7.466
  285TIP3    H222415   5.249   2.064   7.452
  286TIP3   OH222416   3.779   4.399   6.796
  286TIP3    H122417   3.718   4.468   6.820
  286TIP3    H222418   3.850   4.445   6.751
  287TIP3   OH222419   6.184   1.221   6.936
  287TIP3    H122420   6.205   1.294   6.995
  287TIP3    H222421   6.152   1.264   6.856
  288TIP3   OH222422   0.633   3.063   7.232
  288TIP3    H122423   0.708   3.011   7.202
  288TIP3    H222424   0.557   3.009   7.213
  289TIP3   OH222425   3.390   4.661   8.590
  289TIP3    H122426   3.321   4.660   8.525
  289TIP3    H222427   3.350   4.625   8.669
  290TIP3   OH222428   3.911   5.809   0.784
  290TIP3    H122429   3.895   5.903   0.792
  290TIP3    H222430   3.932   5.797   0.691
  291TIP3   OH222431   1.601   4.919   0.740
  291TIP3    H122432   1.630   4.828   0.730
  291TIP3    H222433   1.614   4.938   0.833
  292TIP3   OH222434   4.211   0.791   1.045
  292TIP3    H122435   4.145   0.724   1.032
  292TIP3    H222436   4.162   0.871   1.065
  293TIP3   OH222437   5.777   5.091   1.189
  293TIP3    H122438   5.722   5.040   1.249
  293TIP3    H222439   5.774   5.042   1.107
  294TIP3   OH222440   2.223   3.285   8.162
  294TIP3    H122441   2.287   3.214   8.166
  294TIP3    H222442   2.262   3.349   8.103
  295TIP3   OH222443   5.157   6.678   0.118
  295TIP3    H122444   5.064   6.659   0.105
  295TIP3    H222445   5.190   6.701   0.030
  296TIP3   OH222446   5.148   4.554   6.655
  296TIP3    H122447   5.065   4.515   6.629
  296TIP3    H222448   5.202   4.479   6.682
  297TIP3   OH222449   6.269   0.961   1.583
  297TIP3    H122450   6.309   0.904   1.649
  297TIP3    H222451   6.307   0.933   1.500
  298TIP3   OH222452   4.598   2.564   1.185
  298TIP3    H122453   4.593   2.501   1.113
  298TIP3    H222454   4.549   2.522   1.256
  299TIP3   OH222455   2.210   6.584   7.994
  299TIP3    H122456   2.194   6.647   7.924
  299TIP3    H222457   2.296   6.547   7.974
  300TIP3   OH222458   4.130   3.987   7.140
  300TIP3    H122459   4.173   4.046   7.202
  300TIP3    H222460   4.192   3.915   7.130
  301TIP3   OH222461   5.601   2.266   2.348
  301TIP3    H122462   5.611   2.316   2.267
  301TIP3    H222463   5.516   2.294   2.383
  302TIP3   OH222464   1.003   0.319   6.761
  302TIP3    H122465   1.079   0.268   6.789
  302TIP3    H222466   0.979   0.282   6.676
  303TIP3   OH222467   5.268   0.626   8.477
  303TIP3    H122468   5.210   0.700   8.462
  303TIP3    H222469   5.301   0.602   8.391
  304TIP3   OH222470   4.980   3.195   1.021
  304TIP3    H122471   4.923   3.253   0.970
  304TIP3    H222472   4.934   3.181   1.103
  305TIP3   OH222473   3.480   2.329   0.728
  305TIP3    H122474   3.412   2.367   0.782
  305TIP3    H222475   3.504   2.248   0.773
  306TIP3   OH222476   6.138   2.551   7.942
  306TIP3    H122477   6.177   2.573   7.857
  306TIP3    H222478   6.061   2.499   7.921
  307TIP3   OH222479   6.115   6.506   7.747
  307TIP3    H122480   6.201   6.482   7.781
  307TIP3    H222481   6.123   6.496   7.652
  308TIP3   OH222482   0.131   5.297   8.185
  308TIP3    H122483   0.040   5.270   8.197
  308TIP3    H222484   0.179   5.246   8.250
  309TIP3   OH222485   6.547   1.860   0.283
  309TIP3    H122486   6.544   1.771   0.248
  309TIP3    H222487   6.529   1.916   0.207
  310TIP3   OH222488   2.656   4.426   0.898
  310TIP3    H122489   2.644   4.482   0.975
  310TIP3    H222490   2.745   4.443   0.869
  311TIP3   OH222491   5.611   0.591   1.224
  311TIP3    H122492   5.521   0.604   1.194
  311TIP3    H222493   5.603   0.566   1.316
  312TIP3   OH222494   0.785   1.324   6.443
  312TIP3    H122495   0.758   1.233   6.453
  312TIP3    H222496   0.782   1.360   6.532
  313TIP3   OH222497   0.770   4.238   7.495
  313TIP3    H122498   0.757   4.241   7.400
  313TIP3    H222499   0.840   4.174   7.507
  314TIP3   OH222500   6.694   1.166   1.701
  314TIP3    H122501   6.603   1.159   1.731
  314TIP3    H222502   6.746   1.127   1.771
  315TIP3   OH222503   6.572   3.029   1.007
  315TIP3    H122504   6.505   3.097   1.003
  315TIP3    H222505   6.563   2.981   0.924
  316TIP3   OH222506   0.011   0.339   7.427
  316TIP3    H122507   6.740   0.331   7.397
  316TIP3    H222508   0.061   0.359   7.348
  317TIP3   OH222509   0.385   2.535   8.180
  317TIP3    H122510   0.443   2.472   8.136
  317TIP3    H222511   0.445   2.596   8.224
  318TIP3   OH222512   4.982   2.501   2.881
  318TIP3    H122513   4.894   2.464   2.867
  318TIP3    H222514   5.032   2.430   2.921
  319TIP3   OH222515   4.460   4.463   7.493
  319TIP3    H122516   4.534   4.498   7.543
  319TIP3    H222517   4.389   4.524   7.509
  320TIP3   OH222518   6.641   5.912   1.719
  320TIP3    H122519   6.638   5.822   1.752
  320TIP3    H222520   6.681   5.962   1.790
  321TIP3   OH222521   0.724   4.999   6.464
  321TIP3    H122522   0.666   4.994   6.540
  321TIP3    H222523   0.783   4.924   6.475
  322TIP3   OH222524   1.697   4.324   7.246
  322TIP3    H122525   1.691   4.410   7.204
  322TIP3    H222526   1.670   4.262   7.178
  323TIP3   OH222527   0.031   4.299   1.492
  323TIP3    H122528   0.049   4.384   1.531
  323TIP3    H222529   6.803   4.320   1.411
  324TIP3   OH222530   6.277   6.122   8.480
  324TIP3    H122531   6.249   6.096   8.568
  324TIP3    H222532   6.372   6.133   8.488
  325TIP3   OH222533   1.404   1.610   7.547
  325TIP3    H122534   1.429   1.574   7.631
  325TIP3    H222535   1.414   1.537   7.485
  326TIP3   OH222536   1.313   3.292   6.202
  326TIP3    H122537   1.277   3.379   6.185
  326TIP3    H222538   1.406   3.300   6.178
  327TIP3   OH222539   2.683   3.082   8.105
  327TIP3    H122540   2.702   3.174   8.084
  327TIP3    H222541   2.669   3.040   8.020
  328TIP3   OH222542   4.500   6.021   7.077
  328TIP3    H122543   4.473   5.998   6.988
  328TIP3    H222544   4.476   5.946   7.130
  329TIP3   OH222545   1.964   0.848   1.565
  329TIP3    H122546   2.033   0.908   1.537
  329TIP3    H222547   1.905   0.901   1.618
  330TIP3   OH222548   3.419   3.249   6.983
  330TIP3    H122549   3.364   3.322   6.956
  330TIP3    H222550   3.508   3.279   6.964
  331TIP3   OH222551   1.486   6.635   1.298
  331TIP3    H122552   1.568   6.625   1.346
  331TIP3    H222553   1.466   6.548   1.265
  332TIP3   OH222554   6.420   4.306   8.288
  332TIP3    H122555   6.473   4.332   8.364
  332TIP3    H222556   6.480   4.260   8.230
  333TIP3   OH222557   0.734   2.298   2.054
  333TIP3    H122558   0.642   2.315   2.072
  333TIP3    H222559   0.739   2.203   2.042
  334TIP3   OH222560   5.608   4.978   1.609
  334TIP3    H122561   5.522   5.020   1.604
  334TIP3    H222562   5.671   5.048   1.594
  335TIP3   OH222563   5.830   4.448   7.547
  335TIP3    H122564   5.781   4.484   7.621
  335TIP3    H222565   5.771   4.457   7.473
  336TIP3   OH222566   5.433   3.903   6.870
  336TIP3    H122567   5.468   3.821   6.905
  336TIP3    H222568   5.443   3.895   6.775
  337TIP3   OH222569   2.838   3.903   6.347
  337TIP3    H122570   2.874   3.880   6.433
  337TIP3    H222571   2.785   3.981   6.364
  338TIP3   OH222572   3.354   0.893   6.780
  338TIP3    H122573   3.437   0.929   6.749
  338TIP3    H222574   3.317   0.963   6.834
  339TIP3   OH222575   3.155   4.150   8.201
  339TIP3    H122576   3.244   4.138   8.235
  339TIP3    H222577   3.111   4.204   8.266
  340TIP3   OH222578   4.329   3.992   1.490
  340TIP3    H122579   4.393   3.952   1.550
  340TIP3    H222580   4.325   4.083   1.517
  341TIP3   OH222581   0.363   4.200   1.045
  341TIP3    H122582   0.346   4.164   1.133
  341TIP3    H222583   0.276   4.214   1.008
  342TIP3   OH222584   4.532   2.227   1.441
  342TIP3    H122585   4.599   2.159   1.447
  342TIP3    H222586   4.571   2.303   1.483
  343TIP3   OH222587   3.440   5.092   8.095
  343TIP3    H122588   3.352   5.058   8.112
  343TIP3    H222589   3.492   5.014   8.075
  344TIP3   OH222590   6.108   2.384   1.918
  344TIP3    H122591   6.111   2.460   1.860
  344TIP3    H222592   6.200   2.359   1.929
  345TIP3   OH222593   3.682   0.007   7.560
  345TIP3    H122594   3.617   0.057   7.609
  345TIP3    H222595   3.656   0.016   7.468
  346TIP3   OH222596   6.507   6.120   6.668
  346TIP3    H122597   6.546   6.100   6.583
  346TIP3    H222598   6.416   6.090   6.661
  347TIP3   OH222599   4.792   1.267   0.049
  347TIP3    H122600   4.760   1.177   0.041
  347TIP3    H222601   4.713   1.320   0.057
  348TIP3   OH222602   5.105   0.283   8.731
  348TIP3    H122603   5.054   0.204   8.715
  348TIP3    H222604   5.056   0.353   8.686
  349TIP3   OH222605   4.056   5.104   7.614
  349TIP3    H122606   4.071   5.083   7.706
  349TIP3    H222607   4.072   5.198   7.608
  350TIP3   OH222608   5.589   2.367   6.936
  350TIP3    H122609   5.595   2.461   6.919
  350TIP3    H222610   5.660   2.329   6.884
  351TIP3   OH222611   4.027   4.090   7.351
  351TIP3    H122612   4.013   4.036   7.274
  351TIP3    H222613   3.956   4.154   7.349
  352TIP3   OH222614   2.462   1.640   8.036
  352TIP3    H122615   2.472   1.735   8.044
  352TIP3    H222616   2.551   1.608   8.024
  353TIP3   OH222617   1.962   0.709   0.677
  353TIP3    H122618   2.032   0.688   0.739
  353TIP3    H222619   1.901   0.635   0.686
  354TIP3   OH222620   6.784   3.337   6.970
  354TIP3    H122621   0.041   3.291   6.937
  354TIP3    H222622   6.709   3.285   6.939
  355TIP3   OH222623   2.217   3.438   1.137
  355TIP3    H122624   2.266   3.362   1.168
  355TIP3    H222625   2.152   3.454   1.206
  356TIP3   OH222626   3.215   2.522   0.596
  356TIP3    H122627   3.225   2.614   0.571
  356TIP3    H222628   3.251   2.473   0.522
  357TIP3   OH222629   0.840   5.173   6.763
  357TIP3    H122630   0.875   5.086   6.786
  357TIP3    H222631   0.906   5.211   6.706
  358TIP3   OH222632   4.869   0.887   1.818
  358TIP3    H122633   4.818   0.825   1.767
  358TIP3    H222634   4.960   0.870   1.793
  359TIP3   OH222635   1.670   0.460   6.977
  359TIP3    H122636   1.701   0.465   7.068
  359TIP3    H222637   1.724   0.391   6.938
  360TIP3   OH222638   0.730   2.984   0.936
  360TIP3    H122639   0.770   2.917   0.880
  360TIP3    H222640   0.652   2.941   0.971
  361TIP3   OH222641   6.173   0.183   0.630
  361TIP3    H122642   6.138   0.140   0.552
  361TIP3    H222643   6.100   0.181   0.692
  362TIP3   OH222644   0.223   1.227   1.138
  362TIP3    H122645   0.173   1.248   1.059
  362TIP3    H222646   0.312   1.259   1.120
  363TIP3   OH222647   0.129   4.043   8.115
  363TIP3    H122648   0.157   4.088   8.195
  363TIP3    H222649   0.201   3.983   8.095
  364TIP3   OH222650   4.252   0.491   8.065
  364TIP3    H122651   4.256   0.581   8.097
  364TIP3    H222652   4.188   0.448   8.122
  365TIP3   OH222653   6.704   1.861   7.066
  365TIP3    H122654   6.695   1.932   7.003
  365TIP3    H222655   6.795   1.834   7.059
  366TIP3   OH222656   0.342   2.021   0.212
  366TIP3    H122657   0.407   1.969   0.259
  366TIP3    H222658   0.308   2.083   0.277
  367TIP3   OH222659   0.896   5.978   1.490
  367TIP3    H122660   0.839   6.045   1.528
  367TIP3    H222661   0.934   5.932   1.565
  368TIP3   OH222662   1.436   2.835   7.838
  368TIP3    H122663   1.362   2.886   7.870
  368TIP3    H222664   1.424   2.748   7.875
  369TIP3   OH222665   3.717   0.507   7.581
  369TIP3    H122666   3.741   0.416   7.596
  369TIP3    H222667   3.641   0.502   7.522
  370TIP3   OH222668   6.227   6.327   6.691
  370TIP3    H122669   6.231   6.232   6.682
  370TIP3    H222670   6.246   6.342   6.784
  371TIP3   OH222671   6.598   1.699   0.644
  371TIP3    H122672   6.564   1.655   0.722
  371TIP3    H222673   6.522   1.741   0.605
  372TIP3   OH222674   1.907   4.448   1.485
  372TIP3    H122675   1.849   4.388   1.532
  372TIP3    H222676   1.892   4.429   1.393
  373TIP3   OH222677   2.012   1.157   1.200
  373TIP3    H122678   1.918   1.159   1.219
  373TIP3    H222679   2.028   1.070   1.163
  374TIP3   OH222680   4.538   6.707   2.297
  374TIP3    H122681   4.499   6.777   2.350
  374TIP3    H222682   4.578   6.648   2.361
  375TIP3   OH222683   0.345   3.452   6.995
  375TIP3    H122684   0.306   3.367   6.973
  375TIP3    H222685   0.276   3.515   6.975
  376TIP3   OH222686   4.671   4.606   0.757
  376TIP3    H122687   4.586   4.649   0.755
  376TIP3    H222688   4.650   4.512   0.761
  377TIP3   OH222689   3.381   2.126   8.005
  377TIP3    H122690   3.387   2.179   7.926
  377TIP3    H222691   3.470   2.123   8.040
  378TIP3   OH222692   3.133   2.869   1.519
  378TIP3    H122693   3.038   2.871   1.506
  378TIP3    H222694   3.150   2.786   1.563
  379TIP3   OH222695   3.518   1.413   2.526
  379TIP3    H122696   3.578   1.477   2.485
  379TIP3    H222697   3.525   1.431   2.620
  380TIP3   OH222698   5.208   2.537   6.385
  380TIP3    H122699   5.186   2.506   6.472
  380TIP3    H222700   5.159   2.619   6.375
  381TIP3   OH222701   5.902   2.641   7.711
  381TIP3    H122702   5.892   2.562   7.659
  381TIP3    H222703   5.995   2.662   7.704
  382TIP3   OH222704   0.665   5.539   0.064
  382TIP3    H122705   0.760   5.545   0.052
  382TIP3    H222706   0.648   5.586   0.145
  383TIP3   OH222707   0.952   0.883   0.852
  383TIP3    H122708   1.013   0.953   0.875
  383TIP3    H222709   0.996   0.803   0.879
  384TIP3   OH222710   3.068   6.134   0.305
  384TIP3    H122711   3.145   6.126   0.362
  384TIP3    H222712   2.999   6.086   0.351
  385TIP3   OH222713   6.592   2.131   7.816
  385TIP3    H122714   6.525   2.066   7.839
  385TIP3    H222715   6.604   2.181   7.897
  386TIP3   OH222716   3.355   1.737   1.560
  386TIP3    H122717   3.276   1.684   1.569
  386TIP3    H222718   3.327   1.815   1.513
  387TIP3   OH222719   3.159   6.728   2.404
  387TIP3    H122720   3.072   6.752   2.371
  387TIP3    H222721   3.172   6.638   2.375
  388TIP3   OH222722   4.462   5.485   2.299
  388TIP3    H122723   4.393   5.547   2.279
  388TIP3    H222724   4.543   5.534   2.285
  389TIP3   OH222725   6.013   0.244   1.098
  389TIP3    H122726   5.965   0.305   1.154
  389TIP3    H222727   6.007   0.160   1.143
  390TIP3   OH222728   6.447   2.756   8.462
  390TIP3    H122729   6.420   2.838   8.503
  390TIP3    H222730   6.430   2.690   8.529
  391TIP3   OH222731   0.773   0.707   1.192
  391TIP3    H122732   0.692   0.732   1.148
  391TIP3    H222733   0.777   0.612   1.184
  392TIP3   OH222734   4.827   1.342   0.356
  392TIP3    H122735   4.851   1.253   0.330
  392TIP3    H222736   4.856   1.397   0.284
  393TIP3   OH222737   2.361   4.779   1.005
  393TIP3    H122738   2.365   4.798   0.911
  393TIP3    H222739   2.275   4.739   1.018
  394TIP3   OH222740   4.965   5.141   1.561
  394TIP3    H122741   4.971   5.233   1.585
  394TIP3    H222742   5.020   5.132   1.483
  395TIP3   OH222743   5.125   4.714   0.214
  395TIP3    H122744   5.179   4.788   0.240
  395TIP3    H222745   5.056   4.710   0.279
  396TIP3   OH222746   1.116   5.351   0.732
  396TIP3    H122747   1.076   5.419   0.679
  396TIP3    H222748   1.042   5.305   0.771
  397TIP3   OH222749   6.124   1.760   7.417
  397TIP3    H122750   6.056   1.767   7.350
  397TIP3    H222751   6.091   1.813   7.490
  398TIP3   OH222752   6.763   5.030   1.202
  398TIP3    H122753   6.686   5.080   1.174
  398TIP3    H222754   6.756   5.025   1.297
  399TIP3   OH222755   4.074   6.052   8.606
  399TIP3    H122756   4.089   6.101   8.525
  399TIP3    H222757   4.001   6.098   8.648
  400TIP3   OH222758   6.179   6.056   0.796
  400TIP3    H122759   6.231   6.124   0.838
  400TIP3    H222760   6.126   6.103   0.731
  401TIP3   OH222761   3.839   3.865   0.669
  401TIP3    H122762   3.843   3.907   0.755
  401TIP3    H222763   3.828   3.938   0.608
  402TIP3   OH222764   1.736   3.973   1.203
  402TIP3    H122765   1.653   3.932   1.227
  402TIP3    H222766   1.788   3.970   1.283
  403TIP3   OH222767   3.826   1.161   1.445
  403TIP3    H122768   3.741   1.192   1.475
  403TIP3    H222769   3.824   1.066   1.461
  404TIP3   OH222770   1.772   5.716   7.257
  404TIP3    H122771   1.694   5.768   7.276
  404TIP3    H222772   1.798   5.742   7.169
  405TIP3   OH222773   5.179   4.168   8.232
  405TIP3    H122774   5.217   4.099   8.178
  405TIP3    H222775   5.110   4.124   8.283
  406TIP3   OH222776   5.082   5.405   1.069
  406TIP3    H122777   5.121   5.419   0.983
  406TIP3    H222778   5.156   5.381   1.125
  407TIP3   OH222779   1.818   2.587   0.939
  407TIP3    H122780   1.797   2.643   1.013
  407TIP3    H222781   1.788   2.636   0.862
  408TIP3   OH222782   6.615   4.646   6.786
  408TIP3    H122783   6.616   4.731   6.831
  408TIP3    H222784   6.702   4.639   6.747
  409TIP3   OH222785   0.338   6.118   1.955
  409TIP3    H122786   0.423   6.152   1.929
  409TIP3    H222787   0.357   6.054   2.024
  410TIP3   OH222788   4.039   3.521   8.163
  410TIP3    H122789   3.996   3.499   8.081
  410TIP3    H222790   4.131   3.535   8.140
  411TIP3   OH222791   4.065   6.173   8.371
  411TIP3    H122792   4.038   6.124   8.292
  411TIP3    H222793   4.143   6.220   8.344
  412TIP3   OH222794   0.117   6.364   7.687
  412TIP3    H122795   0.090   6.452   7.659
  412TIP3    H222796   0.203   6.352   7.647
  413TIP3   OH222797   0.451   5.220   8.665
  413TIP3    H122798   0.475   5.304   8.703
  413TIP3    H222799   0.422   5.167   8.740
  414TIP3   OH222800   3.400   5.753   0.927
  414TIP3    H122801   3.483   5.786   0.961
  414TIP3    H222802   3.336   5.821   0.949
  415TIP3   OH222803   4.914   2.567   2.020
  415TIP3    H122804   4.893   2.475   2.004
  415TIP3    H222805   4.903   2.610   1.935
  416TIP3   OH222806   4.506   3.341   0.915
  416TIP3    H122807   4.566   3.267   0.901
  416TIP3    H222808   4.423   3.311   0.877
  417TIP3   OH222809   4.576   4.954   7.422
  417TIP3    H122810   4.483   4.975   7.408
  417TIP3    H222811   4.623   5.009   7.360
  418TIP3   OH222812   2.289   5.959   8.051
  418TIP3    H122813   2.327   6.011   7.981
  418TIP3    H222814   2.222   6.015   8.089
  419TIP3   OH222815   4.314   4.696   8.747
  419TIP3    H122816   4.370   4.771   8.727
  419TIP3    H222817   4.225   4.728   8.731
  420TIP3   OH222818   1.156   6.570   0.580
  420TIP3    H122819   1.215   6.584   0.654
  420TIP3    H222820   1.188   6.628   0.511
  421TIP3   OH222821   5.393   3.185   8.452
  421TIP3    H122822   5.299   3.200   8.460
  421TIP3    H222823   5.428   3.204   8.539
  422TIP3   OH222824   2.842   3.719   0.174
  422TIP3    H122825   2.884   3.634   0.190
  422TIP3    H222826   2.754   3.710   0.211
  423TIP3   OH222827   0.812   0.915   6.738
  423TIP3    H122828   0.901   0.946   6.757
  423TIP3    H222829   0.819   0.819   6.743
  424TIP3   OH222830   1.845   6.223   6.757
  424TIP3    H122831   1.880   6.270   6.681
  424TIP3    H222832   1.881   6.134   6.748
  425TIP3   OH222833   1.726   5.292   6.694
  425TIP3    H122834   1.787   5.220   6.679
  425TIP3    H222835   1.652   5.273   6.637
  426TIP3   OH222836   5.877   0.074   0.173
  426TIP3    H122837   5.952   0.121   0.212
  426TIP3    H222838   5.851   0.012   0.241
  427TIP3   OH222839   4.527   2.675   1.516
  427TIP3    H122840   4.477   2.609   1.468
  427TIP3    H222841   4.526   2.752   1.459
  428TIP3   OH222842   0.934   1.085   6.953
  428TIP3    H122843   0.998   1.036   6.902
  428TIP3    H222844   0.985   1.154   6.996
  429TIP3   OH222845   2.851   0.440   0.549
  429TIP3    H122846   2.937   0.434   0.592
  429TIP3    H222847   2.869   0.426   0.456
  430TIP3   OH222848   1.496   2.295   0.731
  430TIP3    H122849   1.550   2.322   0.805
  430TIP3    H222850   1.556   2.294   0.656
  431TIP3   OH222851   0.045   0.738   1.823
  431TIP3    H122852   0.008   0.678   1.758
  431TIP3    H222853   0.124   0.695   1.854
  432TIP3   OH222854   0.297   0.897   7.535
  432TIP3    H122855   0.363   0.904   7.604
  432TIP3    H222856   0.322   0.820   7.485
  433TIP3   OH222857   0.601   3.824   0.649
  433TIP3    H122858   0.576   3.738   0.614
  433TIP3    H222859   0.553   3.886   0.594
  434TIP3   OH222860   3.721   5.006   7.531
  434TIP3    H122861   3.745   4.991   7.623
  434TIP3    H222862   3.628   4.986   7.527
  435TIP3   OH222863   2.306   2.525   0.783
  435TIP3    H122864   2.295   2.597   0.721
  435TIP3    H222865   2.219   2.486   0.789
  436TIP3   OH222866   4.280   5.091   0.071
  436TIP3    H122867   4.354   5.032   0.059
  436TIP3    H222868   4.221   5.070   8.798
  437TIP3   OH222869   3.606   1.193   1.620
  437TIP3    H122870   3.590   1.106   1.657
  437TIP3    H222871   3.541   1.202   1.551
  438TIP3   OH222872   5.530   3.798   1.611
  438TIP3    H122873   5.462   3.851   1.653
  438TIP3    H222874   5.482   3.742   1.549
  439TIP3   OH222875   2.073   2.507   7.140
  439TIP3    H122876   2.003   2.572   7.147
  439TIP3    H222877   2.030   2.423   7.156
  440TIP3   OH222878   3.292   4.722   8.198
  440TIP3    H122879   3.301   4.759   8.110
  440TIP3    H222880   3.198   4.719   8.214
  441TIP3   OH222881   6.134   1.592   8.344
  441TIP3    H122882   6.191   1.668   8.332
  441TIP3    H222883   6.193   1.517   8.348
  442TIP3   OH222884   0.365   4.386   7.257
  442TIP3    H122885   0.371   4.463   7.313
  442TIP3    H222886   0.407   4.413   7.175
  443TIP3   OH222887   2.126   1.751   8.260
  443TIP3    H122888   2.178   1.806   8.201
  443TIP3    H222889   2.149   1.662   8.235
  444TIP3   OH222890   6.044   3.251   1.659
  444TIP3    H122891   5.992   3.221   1.585
  444TIP3    H222892   6.092   3.327   1.625
  445TIP3   OH222893   0.888   5.034   2.151
  445TIP3    H122894   0.825   4.963   2.163
  445TIP3    H222895   0.837   5.107   2.118
  446TIP3   OH222896   2.467   0.612   6.406
  446TIP3    H122897   2.376   0.637   6.424
  446TIP3    H222898   2.505   0.690   6.367
  447TIP3   OH222899   0.111   4.277   0.936
  447TIP3    H122900   0.060   4.200   0.960
  447TIP3    H222901   0.069   4.349   0.983
  448TIP3   OH222902   5.149   4.494   8.002
  448TIP3    H122903   5.123   4.468   8.090
  448TIP3    H222904   5.101   4.435   7.944
  449TIP3   OH222905   3.156   1.910   8.401
  449TIP3    H122906   3.235   1.936   8.355
  449TIP3    H222907   3.181   1.912   8.494
  450TIP3   OH222908   6.397   5.828   0.371
  450TIP3    H122909   6.467   5.770   0.341
  450TIP3    H222910   6.432   5.916   0.360
  451TIP3   OH222911   3.775   1.455   0.673
  451TIP3    H122912   3.718   1.531   0.663
  451TIP3    H222913   3.811   1.462   0.761
  452TIP3   OH222914   1.305   3.446   1.366
  452TIP3    H122915   1.363   3.478   1.297
  452TIP3    H222916   1.323   3.505   1.440
  453TIP3   OH222917   0.104   5.938   8.336
  453TIP3    H122918   0.141   5.920   8.250
  453TIP3    H222919   0.129   5.862   8.389
  454TIP3   OH222920   4.246   2.067   2.193
  454TIP3    H122921   4.297   2.068   2.274
  454TIP3    H222922   4.251   2.157   2.160
  455TIP3   OH222923   1.263   2.923   1.553
  455TIP3    H122924   1.196   2.880   1.605
  455TIP3    H222925   1.258   3.015   1.579
  456TIP3   OH222926   6.306   0.016   7.726
  456TIP3    H122927   6.293   6.790   7.643
  456TIP3    H222928   6.229   0.073   7.734
  457TIP3   OH222929   3.559   6.773   6.970
  457TIP3    H122930   3.595   0.039   6.948
  457TIP3    H222931   3.468   6.791   6.995
  458TIP3   OH222932   3.932   5.996   1.253
  458TIP3    H122933   3.933   6.053   1.330
  458TIP3    H222934   4.000   5.931   1.270
  459TIP3   OH222935   0.752   1.143   1.129
  459TIP3    H122936   0.828   1.186   1.088
  459TIP3    H222937   0.754   1.173   1.220
  460TIP3   OH222938   4.299   2.957   8.390
  460TIP3    H122939   4.370   2.942   8.328
  460TIP3    H222940   4.320   3.041   8.431
  461TIP3   OH222941   2.605   4.084   1.428
  461TIP3    H122942   2.591   4.022   1.357
  461TIP3    H222943   2.622   4.167   1.384
  462TIP3   OH222944   1.477   0.350   0.506
  462TIP3    H122945   1.530   0.349   0.426
  462TIP3    H222946   1.444   0.439   0.512
  463TIP3   OH222947   1.488   6.698   1.583
  463TIP3    H122948   1.411   6.640   1.578
  463TIP3    H222949   1.456   6.775   1.630
  464TIP3   OH222950   1.358   1.928   7.277
  464TIP3    H122951   1.321   1.909   7.363
  464TIP3    H222952   1.438   1.876   7.272
  465TIP3   OH222953   4.853   0.827   1.198
  465TIP3    H122954   4.816   0.902   1.246
  465TIP3    H222955   4.882   0.865   1.115
  466TIP3   OH222956   4.489   6.686   7.442
  466TIP3    H122957   4.397   6.665   7.424
  466TIP3    H222958   4.486   6.740   7.521
  467TIP3   OH222959   5.335   5.963   7.583
  467TIP3    H122960   5.264   5.899   7.593
  467TIP3    H222961   5.405   5.929   7.639
  468TIP3   OH222962   5.448   1.493   0.644
  468TIP3    H122963   5.538   1.505   0.614
  468TIP3    H222964   5.449   1.522   0.735
  469TIP3   OH222965   2.710   4.805   0.800
  469TIP3    H122966   2.777   4.742   0.827
  469TIP3    H222967   2.635   4.752   0.775
  470TIP3   OH222968   5.028   5.134   8.454
  470TIP3    H122969   5.056   5.099   8.539
  470TIP3    H222970   5.073   5.080   8.389
  471TIP3   OH222971   4.174   2.016   7.934
  471TIP3    H122972   4.136   2.085   7.987
  471TIP3    H222973   4.098   1.968   7.900
  472TIP3   OH222974   5.024   2.530   7.211
  472TIP3    H122975   5.102   2.522   7.155
  472TIP3    H222976   4.963   2.583   7.158
  473TIP3   OH222977   4.313   2.774   7.907
  473TIP3    H122978   4.273   2.860   7.892
  473TIP3    H222979   4.265   2.715   7.848
  474TIP3   OH222980   2.555   3.714   6.175
  474TIP3    H122981   2.489   3.746   6.114
  474TIP3    H222982   2.507   3.662   6.239
  475TIP3   OH222983   1.195   6.497   8.114
  475TIP3    H122984   1.189   6.515   8.208
  475TIP3    H222985   1.122   6.438   8.097
  476TIP3   OH222986   4.518   2.498   8.086
  476TIP3    H122987   4.595   2.460   8.128
  476TIP3    H222988   4.553   2.540   8.007
  477TIP3   OH222989   4.429   2.787   1.110
  477TIP3    H122990   4.486   2.711   1.124
  477TIP3    H222991   4.362   2.754   1.050
  478TIP3   OH222992   6.706   5.832   0.599
  478TIP3    H122993   6.666   5.917   0.618
  478TIP3    H222994   6.706   5.826   0.503
  479TIP3   OH222995   1.778   6.234   0.913
  479TIP3    H122996   1.745   6.251   0.825
  479TIP3    H222997   1.759   6.315   0.961
  480TIP3   OH222998   4.666   4.104   7.893
  480TIP3    H122999   4.679   4.161   7.969
  480TIP3    H223000   4.640   4.163   7.823
  481TIP3   OH223001   6.008   6.549   1.241
  481TIP3    H123002   6.042   6.621   1.294
  481TIP3    H223003   5.949   6.592   1.179
  482TIP3   OH223004   6.223   4.829   7.728
  482TIP3    H123005   6.151   4.767   7.715
  482TIP3    H223006   6.281   4.785   7.791
  483TIP3   OH223007   1.732   1.592   7.723
  483TIP3    H123008   1.716   1.668   7.668
  483TIP3    H223009   1.660   1.532   7.703
  484TIP3   OH223010   2.640   6.562   1.358
  484TIP3    H123011   2.705   6.563   1.287
  484TIP3    H223012   2.654   6.478   1.402
  485TIP3   OH223013   3.522   3.651   7.045
  485TIP3    H123014   3.597   3.680   7.096
  485TIP3    H223015   3.457   3.720   7.056
  486TIP3   OH223016   3.441   5.539   0.216
  486TIP3    H123017   3.502   5.484   0.167
  486TIP3    H223018   3.488   5.560   0.297
  487TIP3   OH223019   4.433   3.159   0.102
  487TIP3    H123020   4.401   3.069   0.092
  487TIP3    H223021   4.354   3.211   0.118
  488TIP3   OH223022   0.485   3.424   2.009
  488TIP3    H123023   0.571   3.397   2.043
  488TIP3    H223024   0.461   3.499   2.064
  489TIP3   OH223025   3.201   3.851   6.795
  489TIP3    H123026   3.138   3.831   6.864
  489TIP3    H223027   3.189   3.781   6.731
  490TIP3   OH223028   5.202   2.299   1.951
  490TIP3    H123029   5.137   2.229   1.963
  490TIP3    H223030   5.255   2.297   2.031
  491TIP3   OH223031   5.468   3.781   8.154
  491TIP3    H123032   5.520   3.829   8.220
  491TIP3    H223033   5.503   3.811   8.070
  492TIP3   OH223034   5.770   0.601   8.121
  492TIP3    H123035   5.712   0.537   8.080
  492TIP3    H223036   5.711   0.659   8.169
  493TIP3   OH223037   2.702   2.341   6.741
  493TIP3    H123038   2.694   2.266   6.799
  493TIP3    H223039   2.773   2.318   6.682
  494TIP3   OH223040   1.330   4.256   8.524
  494TIP3    H123041   1.256   4.199   8.544
  494TIP3    H223042   1.406   4.198   8.529
  495TIP3   OH223043   3.342   1.161   7.529
  495TIP3    H123044   3.247   1.176   7.520
  495TIP3    H223045   3.353   1.067   7.510
  496TIP3   OH223046   5.914   0.203   0.472
  496TIP3    H123047   5.975   0.274   0.490
  496TIP3    H223048   5.857   0.237   0.403
  497TIP3   OH223049   6.612   5.943   2.252
  497TIP3    H123050   6.652   5.866   2.212
  497TIP3    H223051   6.674   6.014   2.234
  498TIP3   OH223052   6.299   0.479   7.113
  498TIP3    H123053   6.259   0.501   7.029
  498TIP3    H223054   6.355   0.554   7.132
  499TIP3   OH223055   2.731   4.990   8.348
  499TIP3    H123056   2.641   5.003   8.378
  499TIP3    H223057   2.722   4.940   8.267
  500TIP3   OH223058   1.168   2.028   6.968
  500TIP3    H123059   1.233   2.042   6.899
  500TIP3    H223060   1.177   1.936   6.991
  501TIP3   OH223061   4.112   5.142   7.220
  501TIP3    H123062   4.035   5.130   7.275
  501TIP3    H223063   4.079   5.190   7.143
  502TIP3   OH223064   6.243   3.214   7.713
  502TIP3    H123065   6.259   3.134   7.663
  502TIP3    H223066   6.329   3.236   7.749
  503TIP3   OH223067   3.064   3.574   7.437
  503TIP3    H123068   3.091   3.525   7.360
  503TIP3    H223069   2.993   3.631   7.406
  504TIP3   OH223070   5.283   0.486   7.591
  504TIP3    H123071   5.309   0.411   7.645
  504TIP3    H223072   5.264   0.556   7.653
  505TIP3   OH223073   0.702   4.358   0.238
  505TIP3    H123074   0.759   4.399   0.173
  505TIP3    H223075   0.710   4.264   0.221
  506TIP3   OH223076   4.948   0.290   0.581
  506TIP3    H123077   4.927   0.205   0.619
  506TIP3    H223078   5.043   0.288   0.569
  507TIP3   OH223079   2.459   5.347   2.287
  507TIP3    H123080   2.480   5.322   2.197
  507TIP3    H223081   2.532   5.401   2.315
  508TIP3   OH223082   0.987   3.576   0.670
  508TIP3    H123083   1.068   3.526   0.664
  508TIP3    H223084   1.013   3.667   0.655
  509TIP3   OH223085   5.155   0.351   1.357
  509TIP3    H123086   5.184   0.266   1.324
  509TIP3    H223087   5.100   0.386   1.287
  510TIP3   OH223088   0.703   3.299   2.125
  510TIP3    H123089   0.746   3.231   2.073
  510TIP3    H223090   0.775   3.342   2.172
  511TIP3   OH223091   1.520   1.327   8.632
  511TIP3    H123092   1.441   1.292   8.590
  511TIP3    H223093   1.590   1.305   8.571
  512TIP3   OH223094   6.370   3.024   1.215
  512TIP3    H123095   6.375   2.949   1.274
  512TIP3    H223096   6.439   3.009   1.151
  513TIP3   OH223097   1.715   1.948   0.715
  513TIP3    H123098   1.713   1.869   0.661
  513TIP3    H223099   1.628   1.954   0.753
  514TIP3   OH223100   3.245   2.834   0.560
  514TIP3    H123101   3.333   2.799   0.565
  514TIP3    H223102   3.256   2.929   0.557
  515TIP3   OH223103   5.134   2.432   8.321
  515TIP3    H123104   5.141   2.472   8.234
  515TIP3    H223105   5.052   2.382   8.317
  516TIP3   OH223106   4.746   1.897   8.558
  516TIP3    H123107   4.810   1.964   8.581
  516TIP3    H223108   4.727   1.913   8.465
  517TIP3   OH223109   1.739   4.662   6.933
  517TIP3    H123110   1.743   4.711   6.850
  517TIP3    H223111   1.783   4.579   6.914
  518TIP3   OH223112   2.779   6.721   6.930
  518TIP3    H123113   2.704   6.745   6.985
  518TIP3    H223114   2.784   6.791   6.866
  519TIP3   OH223115   2.506   0.445   7.505
  519TIP3    H123116   2.443   0.393   7.556
  519TIP3    H223117   2.458   0.471   7.426
  520TIP3   OH223118   2.317   4.256   6.667
  520TIP3    H123119   2.294   4.285   6.578
  520TIP3    H223120   2.298   4.332   6.722
  521TIP3   OH223121   6.117   4.002   8.238
  521TIP3    H123122   6.211   4.017   8.248
  521TIP3    H223123   6.110   3.933   8.172
  522TIP3   OH223124   6.803   0.957   7.439
  522TIP3    H123125   0.061   0.999   7.402
  522TIP3    H223126   6.766   0.906   7.367
  523TIP3   OH223127   2.531   6.438   0.210
  523TIP3    H123128   2.615   6.441   0.164
  523TIP3    H223129   2.533   6.355   0.259
  524TIP3   OH223130   0.915   1.094   0.454
  524TIP3    H123131   0.843   1.149   0.424
  524TIP3    H223132   0.895   1.007   0.421
  525TIP3   OH223133   0.072   0.984   1.578
  525TIP3    H123134   0.043   1.051   1.640
  525TIP3    H223135   6.815   0.928   1.565
  526TIP3   OH223136   6.231   2.759   6.430
  526TIP3    H123137   6.160   2.795   6.483
  526TIP3    H223138   6.277   2.836   6.396
  527TIP3   OH223139   5.139   6.010   2.259
  527TIP3    H123140   5.116   5.976   2.345
  527TIP3    H223141   5.225   6.051   2.271
  528TIP3   OH223142   2.590   6.231   1.785
  528TIP3    H123143   2.571   6.226   1.879
  528TIP3    H223144   2.507   6.253   1.745
  529TIP3   OH223145   4.693   6.802   1.232
  529TIP3    H123146   4.603   6.807   1.263
  529TIP3    H223147   4.691   6.734   1.164
  530TIP3   OH223148   0.349   5.781   7.348
  530TIP3    H123149   0.431   5.743   7.380
  530TIP3    H223150   0.376   5.851   7.289
  531TIP3   OH223151   2.797   0.312   7.568
  531TIP3    H123152   2.730   0.255   7.605
  531TIP3    H223153   2.749   0.373   7.512
  532TIP3   OH223154   4.580   3.539   0.724
  532TIP3    H123155   4.567   3.445   0.710
  532TIP3    H223156   4.520   3.562   0.795
  533TIP3   OH223157   0.617   4.722   6.496
  533TIP3    H123158   0.597   4.810   6.530
  533TIP3    H223159   0.556   4.711   6.423
  534TIP3   OH223160   1.080   4.878   1.061
  534TIP3    H123161   1.148   4.931   1.102
  534TIP3    H223162   1.089   4.895   0.967
  535TIP3   OH223163   2.904   6.480   1.723
  535TIP3    H123164   2.813   6.508   1.731
  535TIP3    H223165   2.910   6.445   1.634
  536TIP3   OH223166   3.306   5.436   1.940
  536TIP3    H123167   3.301   5.458   1.847
  536TIP3    H223168   3.396   5.405   1.953
  537TIP3   OH223169   4.487   4.969   8.035
  537TIP3    H123170   4.464   4.892   7.982
  537TIP3    H223171   4.421   4.970   8.105
  538TIP3   OH223172   1.716   6.799   0.430
  538TIP3    H123173   1.803   6.782   0.466
  538TIP3    H223174   1.732   0.038   0.355
  539TIP3   OH223175   3.895   5.450   1.115
  539TIP3    H123176   3.865   5.366   1.081
  539TIP3    H223177   3.991   5.445   1.110
  540TIP3   OH223178   2.957   1.384   7.169
  540TIP3    H123179   3.007   1.404   7.248
  540TIP3    H223180   3.022   1.350   7.108
  541TIP3   OH223181   1.964   5.202   1.916
  541TIP3    H123182   1.892   5.264   1.905
  541TIP3    H223183   1.987   5.209   2.009
  542TIP3   OH223184   1.275   4.985   0.801
  542TIP3    H123185   1.327   5.056   0.839
  542TIP3    H223186   1.340   4.918   0.779
  543TIP3   OH223187   3.726   2.641   0.873
  543TIP3    H123188   3.720   2.604   0.961
  543TIP3    H223189   3.660   2.711   0.871
  544TIP3   OH223190   2.661   0.851   1.868
  544TIP3    H123191   2.613   0.930   1.843
  544TIP3    H223192   2.752   0.881   1.880
  545TIP3   OH223193   6.559   2.930   2.334
  545TIP3    H123194   6.603   2.994   2.389
  545TIP3    H223195   6.585   2.845   2.370
  546TIP3   OH223196   0.231   1.797   1.670
  546TIP3    H123197   0.189   1.846   1.599
  546TIP3    H223198   0.214   1.706   1.650
  547TIP3   OH223199   4.793   0.650   0.772
  547TIP3    H123200   4.880   0.662   0.734
  547TIP3    H223201   4.751   0.586   0.715
  548TIP3   OH223202   1.495   0.031   7.126
  548TIP3    H123203   1.529   6.775   7.077
  548TIP3    H223204   1.462   0.090   7.058
  549TIP3   OH223205   1.402   4.801   7.145
  549TIP3    H123206   1.431   4.819   7.055
  549TIP3    H223207   1.323   4.747   7.134
  550TIP3   OH223208   3.411   0.767   8.256
  550TIP3    H123209   3.487   0.772   8.314
  550TIP3    H223210   3.339   0.741   8.313
  551TIP3   OH223211   4.302   6.159   1.320
  551TIP3    H123212   4.334   6.084   1.271
  551TIP3    H223213   4.210   6.169   1.293
  552TIP3   OH223214   0.951   2.494   8.348
  552TIP3    H123215   0.864   2.511   8.313
  552TIP3    H223216   0.987   2.425   8.293
  553TIP3   OH223217   6.784   6.009   1.954
  553TIP3    H123218   6.818   5.941   2.012
  553TIP3    H223219   0.003   6.090   1.988
  554TIP3   OH223220   5.688   1.534   6.354
  554TIP3    H123221   5.593   1.544   6.362
  554TIP3    H223222   5.724   1.619   6.380
  555TIP3   OH223223   6.695   3.424   2.149
  555TIP3    H123224   6.665   3.445   2.237
  555TIP3    H223225   6.787   3.448   2.148
  556TIP3   OH223226   0.846   2.068   1.667
  556TIP3    H123227   0.890   2.151   1.686
  556TIP3    H223228   0.914   2.013   1.628
  557TIP3   OH223229   3.731   2.745   6.902
  557TIP3    H123230   3.821   2.728   6.873
  557TIP3    H223231   3.686   2.661   6.888
  558TIP3   OH223232   2.877   3.494   1.230
  558TIP3    H123233   2.832   3.574   1.257
  558TIP3    H223234   2.969   3.509   1.254
  559TIP3   OH223235   0.180   1.094   0.308
  559TIP3    H123236   0.261   1.078   0.357
  559TIP3    H223237   0.198   1.059   0.221
  560TIP3   OH223238   6.438   3.880   7.892
  560TIP3    H123239   6.482   3.903   7.974
  560TIP3    H223240   6.471   3.944   7.829
  561TIP3   OH223241   3.636   1.055   0.333
  561TIP3    H123242   3.571   1.121   0.309
  561TIP3    H223243   3.629   0.988   0.265
  562TIP3   OH223244   0.724   0.290   0.787
  562TIP3    H123245   0.687   0.227   0.848
  562TIP3    H223246   0.771   0.237   0.723
  563TIP3   OH223247   1.064   2.442   7.491
  563TIP3    H123248   1.140   2.440   7.549
  563TIP3    H223249   1.010   2.513   7.526
  564TIP3   OH223250   2.211   1.325   2.546
  564TIP3    H123251   2.253   1.402   2.509
  564TIP3    H223252   2.121   1.328   2.512
  565TIP3   OH223253   1.756   2.427   0.663
  565TIP3    H123254   1.787   2.345   0.624
  565TIP3    H223255   1.771   2.493   0.595
  566TIP3   OH223256   2.713   1.100   6.718
  566TIP3    H123257   2.767   1.176   6.743
  566TIP3    H223258   2.701   1.051   6.799
  567TIP3   OH223259   6.531   4.152   2.042
  567TIP3    H123260   6.575   4.111   2.117
  567TIP3    H223261   6.455   4.096   2.026
  568TIP3   OH223262   5.938   5.855   7.490
  568TIP3    H123263   5.986   5.891   7.566
  568TIP3    H223264   5.976   5.768   7.478
  569TIP3   OH223265   1.687   2.484   7.786
  569TIP3    H123266   1.758   2.464   7.847
  569TIP3    H223267   1.717   2.562   7.739
  570TIP3   OH223268   3.071   1.407   7.428
  570TIP3    H123269   3.049   1.318   7.458
  570TIP3    H223270   3.095   1.453   7.508
  571TIP3   OH223271   4.064   1.139   8.535
  571TIP3    H123272   3.991   1.174   8.586
  571TIP3    H223273   4.141   1.183   8.570
  572TIP3   OH223274   4.852   1.147   6.942
  572TIP3    H123275   4.858   1.066   6.993
  572TIP3    H223276   4.769   1.186   6.970
  573TIP3   OH223277   6.464   3.853   0.669
  573TIP3    H123278   6.516   3.933   0.672
  573TIP3    H223279   6.500   3.798   0.738
  574TIP3   OH223280   3.488   2.035   7.001
  574TIP3    H123281   3.484   2.127   6.977
  574TIP3    H223282   3.397   2.008   7.008
  575TIP3   OH223283   6.221   4.448   7.286
  575TIP3    H123284   6.211   4.531   7.238
  575TIP3    H223285   6.156   4.390   7.247
  576TIP3   OH223286   4.675   6.445   1.919
  576TIP3    H123287   4.761   6.420   1.950
  576TIP3    H223288   4.665   6.536   1.947
  577TIP3   OH223289   2.785   3.937   0.867
  577TIP3    H123290   2.735   3.951   0.787
  577TIP3    H223291   2.803   3.843   0.869
  578TIP3   OH223292   3.028   0.562   1.275
  578TIP3    H123293   3.078   0.504   1.331
  578TIP3    H223294   3.030   0.520   1.189
  579TIP3   OH223295   6.651   4.770   1.408
  579TIP3    H123296   6.586   4.804   1.470
  579TIP3    H223297   6.603   4.764   1.325
  580TIP3   OH223298   3.973   6.598   7.565
  580TIP3    H123299   3.966   6.631   7.654
  580TIP3    H223300   3.883   6.580   7.538
  581TIP3   OH223301   6.601   3.642   7.614
  581TIP3    H123302   6.607   3.638   7.710
  581TIP3    H223303   6.688   3.617   7.584
  582TIP3   OH223304   5.141   4.782   0.682
  582TIP3    H123305   5.087   4.732   0.743
  582TIP3    H223306   5.189   4.716   0.632
  583TIP3   OH223307   4.974   0.399   1.144
  583TIP3    H123308   4.972   0.305   1.130
  583TIP3    H223309   4.895   0.432   1.101
  584TIP3   OH223310   0.032   6.651   1.776
  584TIP3    H123311   6.816   6.739   1.787
  584TIP3    H223312   0.014   6.608   1.860
  585TIP3   OH223313   4.550   2.722   8.452
  585TIP3    H123314   4.454   2.715   8.459
  585TIP3    H223315   4.580   2.631   8.442
  586TIP3   OH223316   3.550   4.567   0.109
  586TIP3    H123317   3.584   4.633   0.169
  586TIP3    H223318   3.628   4.523   0.075
  587TIP3   OH223319   4.729   1.793   0.587
  587TIP3    H123320   4.771   1.719   0.543
  587TIP3    H223321   4.641   1.762   0.608
  588TIP3   OH223322   2.141   0.651   1.396
  588TIP3    H123323   2.200   0.591   1.443
  588TIP3    H223324   2.111   0.712   1.463
  589TIP3   OH223325   3.900   0.285   6.803
  589TIP3    H123326   3.904   0.367   6.852
  589TIP3    H223327   3.989   0.251   6.806
  590TIP3   OH223328   2.415   5.507   6.515
  590TIP3    H123329   2.389   5.460   6.594
  590TIP3    H223330   2.375   5.458   6.443
  591TIP3   OH223331   3.346   4.098   6.965
  591TIP3    H123332   3.262   4.129   6.930
  591TIP3    H223333   3.409   4.120   6.897
  592TIP3   OH223334   5.821   4.560   8.524
  592TIP3    H123335   5.865   4.621   8.584
  592TIP3    H223336   5.730   4.559   8.553
  593TIP3   OH223337   0.493   2.433   1.554
  593TIP3    H123338   0.510   2.504   1.492
  593TIP3    H223339   0.563   2.370   1.537
  594TIP3   OH223340   5.984   0.375   7.876
  594TIP3    H123341   6.005   0.372   7.969
  594TIP3    H223342   6.009   0.463   7.848
  595TIP3   OH223343   5.606   6.599   8.292
  595TIP3    H123344   5.581   6.658   8.220
  595TIP3    H223345   5.677   6.646   8.337
  596TIP3   OH223346   4.284   1.379   7.374
  596TIP3    H123347   4.199   1.344   7.400
  596TIP3    H223348   4.341   1.362   7.449
  597TIP3   OH223349   2.929   3.142   1.118
  597TIP3    H123350   2.930   3.046   1.117
  597TIP3    H223351   2.976   3.166   1.198
  598TIP3   OH223352   1.339   3.308   0.570
  598TIP3    H123353   1.319   3.246   0.500
  598TIP3    H223354   1.338   3.394   0.527
  599TIP3   OH223355   3.571   4.333   1.029
  599TIP3    H123356   3.545   4.423   1.011
  599TIP3    H223357   3.490   4.289   1.056
  600TIP3   OH223358   2.494   5.472   7.372
  600TIP3    H123359   2.514   5.461   7.465
  600TIP3    H223360   2.579   5.477   7.329
  601TIP3   OH223361   1.674   0.048   7.757
  601TIP3    H123362   1.603   0.080   7.813
  601TIP3    H223363   1.689   0.120   7.696
  602TIP3   OH223364   1.750   4.448   7.801
  602TIP3    H123365   1.784   4.518   7.857
  602TIP3    H223366   1.827   4.397   7.778
  603TIP3   OH223367   6.567   2.103   2.034
  603TIP3    H123368   6.584   2.018   2.074
  603TIP3    H223369   6.649   2.151   2.041
  604TIP3   OH223370   1.669   4.840   1.434
  604TIP3    H123371   1.578   4.814   1.420
  604TIP3    H223372   1.667   4.936   1.428
  605TIP3   OH223373   0.698   6.379   7.812
  605TIP3    H123374   0.722   6.286   7.809
  605TIP3    H223375   0.744   6.412   7.889
  606TIP3   OH223376   0.561   5.705   0.670
  606TIP3    H123377   0.599   5.617   0.668
  606TIP3    H223378   0.514   5.712   0.587
  607TIP3   OH223379   3.500   4.819   7.960
  607TIP3    H123380   3.494   4.724   7.949
  607TIP3    H223381   3.554   4.831   8.038
  608TIP3   OH223382   4.279   3.809   0.107
  608TIP3    H123383   4.261   3.865   0.031
  608TIP3    H223384   4.246   3.859   0.181
  609TIP3   OH223385   2.262   5.632   1.253
  609TIP3    H123386   2.265   5.706   1.314
  609TIP3    H223387   2.270   5.672   1.166
  610TIP3   OH223388   5.383   3.983   0.871
  610TIP3    H123389   5.460   3.973   0.814
  610TIP3    H223390   5.317   4.024   0.815
  611TIP3   OH223391   3.176   3.618   2.099
  611TIP3    H123392   3.128   3.605   2.180
  611TIP3    H223393   3.138   3.555   2.038
  612TIP3   OH223394   0.298   6.486   1.281
  612TIP3    H123395   0.247   6.409   1.305
  612TIP3    H223396   0.366   6.492   1.349
  613TIP3   OH223397   1.804   2.609   7.230
  613TIP3    H123398   1.737   2.652   7.284
  613TIP3    H223399   1.785   2.516   7.237
  614TIP3   OH223400   6.793   1.682   7.386
  614TIP3    H123401   6.812   1.626   7.311
  614TIP3    H223402   6.708   1.652   7.418
  615TIP3   OH223403   1.360   6.177   7.924
  615TIP3    H123404   1.367   6.083   7.935
  615TIP3    H223405   1.323   6.208   8.007
  616TIP3   OH223406   2.630   5.251   1.183
  616TIP3    H123407   2.566   5.183   1.163
  616TIP3    H223408   2.715   5.209   1.170
  617TIP3   OH223409   1.269   4.632   6.861
  617TIP3    H123410   1.244   4.653   6.951
  617TIP3    H223411   1.225   4.698   6.808
  618TIP3   OH223412   4.371   1.680   2.466
  618TIP3    H123413   4.360   1.708   2.557
  618TIP3    H223414   4.446   1.620   2.469
  619TIP3   OH223415   1.275   1.034   2.281
  619TIP3    H123416   1.236   1.121   2.277
  619TIP3    H223417   1.369   1.048   2.278
  620TIP3   OH223418   0.869   4.904   1.645
  620TIP3    H123419   0.794   4.898   1.586
  620TIP3    H223420   0.893   4.997   1.642
  621TIP3   OH223421   1.709   2.398   8.453
  621TIP3    H123422   1.763   2.403   8.532
  621TIP3    H223423   1.620   2.416   8.482
  622TIP3   OH223424   4.944   0.499   1.489
  622TIP3    H123425   4.955   0.594   1.491
  622TIP3    H223426   5.019   0.467   1.440
  623TIP3   OH223427   4.716   2.622   0.470
  623TIP3    H123428   4.757   2.686   0.412
  623TIP3    H223429   4.750   2.537   0.440
  624TIP3   OH223430   3.824   0.726   8.284
  624TIP3    H123431   3.914   0.745   8.256
  624TIP3    H223432   3.774   0.802   8.256
  625TIP3   OH223433   1.008   2.649   8.783
  625TIP3    H123434   1.000   2.607   0.068
  625TIP3    H223435   1.094   2.692   8.785
  626TIP3   OH223436   3.040   3.295   0.764
  626TIP3    H123437   3.018   3.287   0.671
  626TIP3    H223438   2.956   3.291   0.809
  627TIP3   OH223439   3.204   6.134   1.237
  627TIP3    H123440   3.225   6.100   1.324
  627TIP3    H223441   3.237   6.224   1.238
  628TIP3   OH223442   1.129   5.065   7.759
  628TIP3    H123443   1.096   5.115   7.683
  628TIP3    H223444   1.220   5.046   7.737
  629TIP3   OH223445   5.885   5.371   7.497
  629TIP3    H123446   5.870   5.282   7.527
  629TIP3    H223447   5.915   5.418   7.575
  630TIP3   OH223448   6.307   6.729   0.687
  630TIP3    H123449   6.247   6.661   0.655
  630TIP3    H223450   6.285   6.807   0.636
  631TIP3   OH223451   3.226   0.232   7.138
  631TIP3    H123452   3.162   0.282   7.087
  631TIP3    H223453   3.306   0.283   7.132
  632TIP3   OH223454   3.079   2.405   2.142
  632TIP3    H123455   3.145   2.470   2.166
  632TIP3    H223456   3.107   2.325   2.185
  633TIP3   OH223457   0.126   6.701   0.417
  633TIP3    H123458   0.151   6.610   0.402
  633TIP3    H223459   0.207   6.751   0.406
  634TIP3   OH223460   3.895   3.220   8.504
  634TIP3    H123461   3.854   3.195   8.587
  634TIP3    H223462   3.989   3.207   8.519
  635TIP3   OH223463   3.594   2.103   1.312
  635TIP3    H123464   3.624   2.165   1.379
  635TIP3    H223465   3.672   2.088   1.258
  636TIP3   OH223466   1.426   2.610   7.155
  636TIP3    H123467   1.409   2.674   7.086
  636TIP3    H223468   1.411   2.525   7.113
  637TIP3   OH223469   1.216   5.040   8.245
  637TIP3    H123470   1.219   5.093   8.166
  637TIP3    H223471   1.233   5.102   8.316
  638TIP3   OH223472   6.790   3.284   8.284
  638TIP3    H123473   6.789   3.268   8.190
  638TIP3    H223474   6.698   3.286   8.309
  639TIP3   OH223475   5.920   0.770   7.963
  639TIP3    H123476   5.872   0.708   8.017
  639TIP3    H223477   5.863   0.785   7.887
  640TIP3   OH223478   5.882   2.626   1.029
  640TIP3    H123479   5.936   2.652   1.103
  640TIP3    H223480   5.944   2.590   0.965
  641TIP3   OH223481   2.789   4.310   8.170
  641TIP3    H123482   2.803   4.215   8.174
  641TIP3    H223483   2.696   4.320   8.154
  642TIP3   OH223484   0.471   6.429   0.594
  642TIP3    H123485   0.481   6.487   0.669
  642TIP3    H223486   0.561   6.401   0.573
  643TIP3   OH223487   1.096   6.079   8.731
  643TIP3    H123488   1.116   5.998   8.779
  643TIP3    H223489   1.007   6.101   8.757
  644TIP3   OH223490   1.341   5.244   0.875
  644TIP3    H123491   1.260   5.258   0.826
  644TIP3    H223492   1.357   5.327   0.920
  645TIP3   OH223493   3.663   3.534   1.169
  645TIP3    H123494   3.745   3.562   1.210
  645TIP3    H223495   3.625   3.472   1.230
  646TIP3   OH223496   5.136   6.180   1.624
  646TIP3    H123497   5.103   6.265   1.651
  646TIP3    H223498   5.092   6.163   1.540
  647TIP3   OH223499   6.505   2.849   6.670
  647TIP3    H123500   6.573   2.905   6.633
  647TIP3    H223501   6.454   2.907   6.726
  648TIP3   OH223502   0.757   2.715   8.580
  648TIP3    H123503   0.702   2.749   8.651
  648TIP3    H223504   0.846   2.742   8.604
  649TIP3   OH223505   4.621   3.867   8.255
  649TIP3    H123506   4.680   3.903   8.322
  649TIP3    H223507   4.670   3.876   8.173
  650TIP3   OH223508   1.361   3.641   0.671
  650TIP3    H123509   1.319   3.663   0.754
  650TIP3    H223510   1.440   3.696   0.669
  651TIP3   OH223511   1.515   4.018   6.519
  651TIP3    H123512   1.456   3.945   6.535
  651TIP3    H223513   1.603   3.983   6.536
  652TIP3   OH223514   6.081   0.211   1.659
  652TIP3    H123515   6.026   0.290   1.663
  652TIP3    H223516   6.096   0.187   1.750
  653TIP3   OH223517   6.385   4.139   1.786
  653TIP3    H123518   6.302   4.153   1.831
  653TIP3    H223519   6.392   4.044   1.776
  654TIP3   OH223520   2.684   4.596   1.398
  654TIP3    H123521   2.669   4.620   1.306
  654TIP3    H223522   2.657   4.505   1.404
  655TIP3   OH223523   3.454   5.756   8.410
  655TIP3    H123524   3.548   5.742   8.409
  655TIP3    H223525   3.444   5.850   8.395
  656TIP3   OH223526   0.180   3.773   0.694
  656TIP3    H123527   0.159   3.688   0.735
  656TIP3    H223528   0.230   3.820   0.760
  657TIP3   OH223529   5.479   3.075   2.079
  657TIP3    H123530   5.470   3.152   2.024
  657TIP3    H223531   5.450   3.104   2.165
  658TIP3   OH223532   5.993   3.676   8.214
  658TIP3    H123533   6.032   3.727   8.142
  658TIP3    H223534   5.942   3.608   8.171
  659TIP3   OH223535   4.736   2.894   1.356
  659TIP3    H123536   4.661   2.947   1.382
  659TIP3    H223537   4.745   2.910   1.262
  660TIP3   OH223538   5.673   0.226   8.614
  660TIP3    H123539   5.616   0.303   8.619
  660TIP3    H223540   5.705   0.214   8.704
  661TIP3   OH223541   5.310   5.171   8.622
  661TIP3    H123542   5.284   5.129   8.704
  661TIP3    H223543   5.326   5.098   8.562
  662TIP3   OH223544   1.345   5.173   8.023
  662TIP3    H123545   1.419   5.115   8.003
  662TIP3    H223546   1.319   5.209   7.938
  663TIP3   OH223547   3.606   0.223   1.000
  663TIP3    H123548   3.697   0.236   1.027
  663TIP3    H223549   3.603   0.256   0.910
  664TIP3   OH223550   6.149   3.234   2.607
  664TIP3    H123551   6.103   3.255   2.688
  664TIP3    H223552   6.138   3.139   2.597
  665TIP3   OH223553   4.875   6.793   8.458
  665TIP3    H123554   4.858   6.789   8.552
  665TIP3    H223555   4.919   6.711   8.438
  666TIP3   OH223556   6.580   0.487   1.325
  666TIP3    H123557   6.489   0.474   1.300
  666TIP3    H223558   6.579   0.564   1.383
  667TIP3   OH223559   6.738   2.134   1.692
  667TIP3    H123560   6.752   2.149   1.598
  667TIP3    H223561   6.664   2.191   1.715
  668TIP3   OH223562   5.952   5.775   8.124
  668TIP3    H123563   6.027   5.737   8.079
  668TIP3    H223564   5.990   5.833   8.189
  669TIP3   OH223565   5.956   3.534   7.917
  669TIP3    H123566   5.879   3.514   7.971
  669TIP3    H223567   5.994   3.449   7.897
  670TIP3   OH223568   2.032   6.540   6.346
  670TIP3    H123569   2.065   6.629   6.344
  670TIP3    H223570   1.939   6.548   6.324
  671TIP3   OH223571   2.979   4.684   0.893
  671TIP3    H123572   2.990   4.589   0.887
  671TIP3    H223573   3.068   4.719   0.895
  672TIP3   OH223574   1.276   5.004   0.281
  672TIP3    H123575   1.370   5.015   0.295
  672TIP3    H223576   1.253   5.067   0.213
  673TIP3   OH223577   0.183   5.885   2.301
  673TIP3    H123578   0.159   5.970   2.337
  673TIP3    H223579   0.253   5.853   2.358
  674TIP3   OH223580   6.392   2.358   2.566
  674TIP3    H123581   6.467   2.301   2.547
  674TIP3    H223582   6.426   2.423   2.627
  675TIP3   OH223583   3.308   5.857   0.016
  675TIP3    H123584   3.243   5.894   8.756
  675TIP3    H223585   3.256   5.811   0.082
  676TIP3   OH223586   5.739   1.658   0.881
  676TIP3    H123587   5.645   1.668   0.864
  676TIP3    H223588   5.748   1.678   0.974
  677TIP3   OH223589   3.793   3.964   6.605
  677TIP3    H123590   3.730   3.902   6.567
  677TIP3    H223591   3.876   3.941   6.564
  678TIP3   OH223592   5.536   6.529   7.736
  678TIP3    H123593   5.607   6.467   7.719
  678TIP3    H223594   5.581   6.613   7.749
  679TIP3   OH223595   5.372   1.760   7.996
  679TIP3    H123596   5.349   1.703   7.923
  679TIP3    H223597   5.424   1.830   7.957
  680TIP3   OH223598   1.467   0.592   0.337
  680TIP3    H123599   1.413   0.655   0.385
  680TIP3    H223600   1.543   0.577   0.394
  681TIP3   OH223601   3.640   5.428   0.070
  681TIP3    H123602   3.729   5.463   0.062
  681TIP3    H223603   3.653   5.333   0.076
  682TIP3   OH223604   0.354   6.509   0.165
  682TIP3    H123605   0.449   6.502   0.175
  682TIP3    H223606   0.342   6.572   0.094
  683TIP3   OH223607   2.561   0.282   7.217
  683TIP3    H123608   2.641   0.264   7.167
  683TIP3    H223609   2.587   0.352   7.278
  684TIP3   OH223610   4.728   0.899   2.655
  684TIP3    H123611   4.662   0.831   2.641
  684TIP3    H223612   4.689   0.978   2.618
  685TIP3   OH223613   5.968   1.128   8.534
  685TIP3    H123614   5.962   1.064   8.463
  685TIP3    H223615   5.931   1.208   8.498
  686TIP3   OH223616   4.185   1.482   8.434
  686TIP3    H123617   4.101   1.492   8.479
  686TIP3    H223618   4.183   1.547   8.364
  687TIP3   OH223619   1.508   0.662   7.587
  687TIP3    H123620   1.459   0.732   7.630
  687TIP3    H223621   1.539   0.607   7.659
  688TIP3   OH223622   1.203   0.861   1.257
  688TIP3    H123623   1.263   0.929   1.226
  688TIP3    H223624   1.119   0.883   1.217
  689TIP3   OH223625   0.906   1.465   7.922
  689TIP3    H123626   0.837   1.437   7.862
  689TIP3    H223627   0.898   1.561   7.923
  690TIP3   OH223628   3.042   1.683   7.216
  690TIP3    H123629   3.130   1.720   7.205
  690TIP3    H223630   3.042   1.605   7.161
  691TIP3   OH223631   1.677   1.416   8.180
  691TIP3    H123632   1.734   1.491   8.200
  691TIP3    H223633   1.589   1.452   8.184
  692TIP3   OH223634   2.951   6.298   2.252
  692TIP3    H123635   2.968   6.358   2.179
  692TIP3    H223636   2.862   6.267   2.237
  693TIP3   OH223637   3.714   1.984   1.595
  693TIP3    H123638   3.793   2.000   1.543
  693TIP3    H223639   3.702   1.889   1.591
  694TIP3   OH223640   4.791   1.579   8.194
  694TIP3    H123641   4.804   1.663   8.150
  694TIP3    H223642   4.788   1.515   8.123
  695TIP3   OH223643   3.415   2.951   0.009
  695TIP3    H123644   3.475   2.919   0.076
  695TIP3    H223645   3.414   3.046   0.020
  696TIP3   OH223646   1.926   4.421   0.443
  696TIP3    H123647   1.981   4.458   0.375
  696TIP3    H223648   1.924   4.327   0.425
  697TIP3   OH223649   2.896   0.815   0.129
  697TIP3    H123650   2.892   0.828   0.224
  697TIP3    H223651   2.932   0.897   0.095
  698TIP3   OH223652   4.701   0.210   7.170
  698TIP3    H123653   4.688   0.223   7.076
  698TIP3    H223654   4.680   0.118   7.185
  699TIP3   OH223655   1.475   5.896   7.028
  699TIP3    H123656   1.550   5.900   6.968
  699TIP3    H223657   1.429   5.816   7.003
  700TIP3   OH223658   3.350   2.340   1.118
  700TIP3    H123659   3.318   2.354   1.029
  700TIP3    H223660   3.351   2.427   1.157
  701TIP3   OH223661   1.909   6.788   0.619
  701TIP3    H123662   1.936   6.697   0.614
  701TIP3    H223663   1.983   0.018   0.585
  702TIP3   OH223664   6.656   1.354   8.653
  702TIP3    H123665   6.607   1.274   8.676
  702TIP3    H223666   6.705   1.376   8.733
  703TIP3   OH223667   0.267   5.008   2.457
  703TIP3    H123668   0.362   5.012   2.468
  703TIP3    H223669   0.243   4.924   2.496
  704TIP3   OH223670   4.571   2.970   8.580
  704TIP3    H123671   4.639   2.942   8.641
  704TIP3    H223672   4.558   2.893   8.523
  705TIP3   OH223673   0.348   5.559   7.169
  705TIP3    H123674   0.362   5.636   7.225
  705TIP3    H223675   0.326   5.596   7.083
  706TIP3   OH223676   1.136   0.886   0.267
  706TIP3    H123677   1.063   0.941   0.240
  706TIP3    H223678   1.096   0.812   0.313
  707TIP3   OH223679   4.730   0.497   8.484
  707TIP3    H123680   4.708   0.588   8.463
  707TIP3    H223681   4.779   0.467   8.407
  708TIP3   OH223682   1.881   3.608   6.820
  708TIP3    H123683   1.906   3.660   6.744
  708TIP3    H223684   1.787   3.592   6.808
  709TIP3   OH223685   4.263   2.136   1.895
  709TIP3    H123686   4.345   2.088   1.879
  709TIP3    H223687   4.197   2.067   1.906
  710TIP3   OH223688   0.619   5.592   7.174
  710TIP3    H123689   0.526   5.570   7.174
  710TIP3    H223690   0.629   5.657   7.104
  711TIP3   OH223691   2.386   4.641   8.168
  711TIP3    H123692   2.292   4.654   8.173
  711TIP3    H223693   2.397   4.553   8.131
  712TIP3   OH223694   5.647   4.186   0.999
  712TIP3    H123695   5.593   4.212   1.073
  712TIP3    H223696   5.716   4.253   0.995
  713TIP3   OH223697   3.751   4.582   1.189
  713TIP3    H123698   3.782   4.532   1.265
  713TIP3    H223699   3.773   4.527   1.114
  714TIP3   OH223700   5.771   0.883   1.870
  714TIP3    H123701   5.691   0.933   1.883
  714TIP3    H223702   5.747   0.793   1.891
  715TIP3   OH223703   4.938   0.388   2.379
  715TIP3    H123704   4.846   0.367   2.366
  715TIP3    H223705   4.984   0.306   2.361
  716TIP3   OH223706   6.223   6.048   8.745
  716TIP3    H123707   6.294   6.001   8.788
  716TIP3    H223708   6.160   6.065   0.015
  717TIP3   OH223709   2.105   3.907   6.776
  717TIP3    H123710   2.088   3.883   6.867
  717TIP3    H223711   2.049   3.849   6.725
  718TIP3   OH223712   2.925   5.957   6.713
  718TIP3    H123713   2.899   5.897   6.643
  718TIP3    H223714   3.011   5.990   6.686
  719TIP3   OH223715   4.673   2.158   0.106
  719TIP3    H123716   4.642   2.082   0.057
  719TIP3    H223717   4.768   2.156   0.095
  720TIP3   OH223718   3.806   3.655   0.816
  720TIP3    H123719   3.818   3.718   0.745
  720TIP3    H223720   3.738   3.695   0.871
  721TIP3   OH223721   1.798   1.186   8.052
  721TIP3    H123722   1.841   1.202   7.968
  721TIP3    H223723   1.763   1.272   8.078
  722TIP3   OH223724   4.784   3.245   8.564
  722TIP3    H123725   4.698   3.220   8.532
  722TIP3    H223726   4.767   3.293   8.645
  723TIP3   OH223727   1.351   2.784   1.315
  723TIP3    H123728   1.320   2.835   1.390
  723TIP3    H223729   1.442   2.765   1.335
  724TIP3   OH223730   3.547   0.431   1.547
  724TIP3    H123731   3.550   0.476   1.463
  724TIP3    H223732   3.634   0.392   1.556
  725TIP3   OH223733   6.671   5.391   0.969
  725TIP3    H123734   6.625   5.446   0.907
  725TIP3    H223735   6.724   5.452   1.020
  726TIP3   OH223736   2.550   2.484   8.441
  726TIP3    H123737   2.512   2.401   8.413
  726TIP3    H223738   2.644   2.474   8.423
  727TIP3   OH223739   5.027   1.280   8.730
  727TIP3    H123740   4.936   1.277   8.758
  727TIP3    H223741   5.055   1.188   8.727
  728TIP3   OH223742   3.892   5.509   0.032
  728TIP3    H123743   3.943   5.571   0.085
  728TIP3    H223744   3.950   5.435   0.017
  729TIP3   OH223745   1.491   0.544   0.074
  729TIP3    H123746   1.476   0.555   0.168
  729TIP3    H223747   1.567   0.486   0.068
  730TIP3   OH223748   3.527   6.439   7.446
  730TIP3    H123749   3.531   6.388   7.365
  730TIP3    H223750   3.495   6.378   7.512
  731TIP3   OH223751   6.778   4.089   6.800
  731TIP3    H123752   6.689   4.119   6.815
  731TIP3    H223753   6.811   4.146   6.730
  732TIP3   OH223754   0.053   4.068   0.571
  732TIP3    H123755   0.127   4.105   0.618
  732TIP3    H223756   0.089   3.993   0.524
  733TIP3   OH223757   3.273   2.172   0.029
  733TIP3    H123758   3.364   2.170   0.001
  733TIP3    H223759   3.262   2.258   0.069
  734TIP3   OH223760   5.178   1.946   8.320
  734TIP3    H123761   5.162   1.852   8.333
  734TIP3    H223762   5.221   1.974   8.401
  735TIP3   OH223763   4.636   6.525   0.951
  735TIP3    H123764   4.679   6.550   0.868
  735TIP3    H223765   4.665   6.435   0.966
  736TIP3   OH223766   0.183   3.834   8.535
  736TIP3    H123767   0.118   3.904   8.545
  736TIP3    H223768   0.197   3.828   8.440
  737TIP3   OH223769   2.928   5.630   1.098
  737TIP3    H123770   2.921   5.566   1.027
  737TIP3    H223771   2.841   5.668   1.105
  738TIP3   OH223772   4.170   0.377   0.006
  738TIP3    H123773   4.085   0.420   0.015
  738TIP3    H223774   4.228   0.445   8.770
  739TIP3   OH223775   3.345   4.025   0.540
  739TIP3    H123776   3.341   3.979   0.624
  739TIP3    H223777   3.324   3.958   0.475
  740TIP3   OH223778   3.307   1.071   1.249
  740TIP3    H123779   3.259   0.992   1.275
  740TIP3    H223780   3.392   1.040   1.221
  741TIP3   OH223781   5.992   3.201   2.323
  741TIP3    H123782   6.036   3.116   2.324
  741TIP3    H223783   5.899   3.180   2.320
  742TIP3   OH223784   6.394   4.969   8.045
  742TIP3    H123785   6.334   4.984   7.973
  742TIP3    H223786   6.337   4.955   8.121
  743TIP3   OH223787   4.680   1.988   1.400
  743TIP3    H123788   4.654   1.958   1.313
  743TIP3    H223789   4.614   1.951   1.459
  744TIP3   OH223790   5.269   5.894   6.667
  744TIP3    H123791   5.357   5.914   6.701
  744TIP3    H223792   5.239   5.820   6.719
  745TIP3   OH223793   3.974   3.459   6.590
  745TIP3    H123794   4.035   3.462   6.517
  745TIP3    H223795   3.957   3.551   6.611
  746TIP3   OH223796   6.410   2.495   7.090
  746TIP3    H123797   6.478   2.555   7.121
  746TIP3    H223798   6.453   2.444   7.022
  747TIP3   OH223799   1.848   4.014   0.157
  747TIP3    H123800   1.805   3.950   0.100
  747TIP3    H223801   1.935   4.025   0.120
  748TIP3   OH223802   5.972   0.252   1.376
  748TIP3    H123803   5.885   0.244   1.335
  748TIP3    H223804   5.957   0.304   1.455
  749TIP3   OH223805   4.636   0.073   8.579
  749TIP3    H123806   4.663   0.034   8.496
  749TIP3    H223807   4.715   0.117   8.612
  750TIP3   OH223808   2.350   2.609   6.246
  750TIP3    H123809   2.327   2.530   6.198
  750TIP3    H223810   2.445   2.613   6.243
  751TIP3   OH223811   2.361   2.089   1.027
  751TIP3    H123812   2.411   2.036   0.965
  751TIP3    H223813   2.426   2.118   1.091
  752TIP3   OH223814   0.957   4.755   0.665
  752TIP3    H123815   1.022   4.737   0.733
  752TIP3    H223816   1.009   4.783   0.589
  753TIP3   OH223817   4.022   1.978   1.906
  753TIP3    H123818   3.986   2.045   1.964
  753TIP3    H223819   4.015   1.896   1.956
  754TIP3   OH223820   4.773   2.377   1.491
  754TIP3    H123821   4.783   2.330   1.409
  754TIP3    H223822   4.832   2.452   1.483
  755TIP3   OH223823   1.674   1.331   6.428
  755TIP3    H123824   1.613   1.396   6.462
  755TIP3    H223825   1.687   1.270   6.500
  756TIP3   OH223826   1.160   5.379   7.190
  756TIP3    H123827   1.086   5.328   7.222
  756TIP3    H223828   1.191   5.330   7.113
  757TIP3   OH223829   2.305   1.478   7.085
  757TIP3    H123830   2.359   1.431   7.148
  757TIP3    H223831   2.249   1.534   7.138
  758TIP3   OH223832   5.761   1.438   0.728
  758TIP3    H123833   5.797   1.518   0.765
  758TIP3    H223834   5.686   1.417   0.783
  759TIP3   OH223835   4.965   1.876   0.664
  759TIP3    H123836   5.004   1.844   0.582
  759TIP3    H223837   4.871   1.856   0.655
  760TIP3   OH223838   3.033   3.357   2.321
  760TIP3    H123839   3.112   3.318   2.284
  760TIP3    H223840   2.967   3.287   2.314
  761TIP3   OH223841   0.848   2.412   0.844
  761TIP3    H123842   0.934   2.383   0.874
  761TIP3    H223843   0.786   2.350   0.883
  762TIP3   OH223844   4.849   6.602   0.204
  762TIP3    H123845   4.820   6.511   0.212
  762TIP3    H223846   4.859   6.631   0.295
  763TIP3   OH223847   0.338   0.289   0.937
  763TIP3    H123848   0.387   0.364   0.970
  763TIP3    H223849   0.272   0.327   0.879
  764TIP3   OH223850   1.815   3.386   1.521
  764TIP3    H123851   1.857   3.440   1.455
  764TIP3    H223852   1.859   3.301   1.515
  765TIP3   OH223853   0.456   5.944   0.770
  765TIP3    H123854   0.377   5.904   0.806
  765TIP3    H223855   0.512   5.869   0.747
  766TIP3   OH223856   6.729   2.773   8.115
  766TIP3    H123857   6.697   2.851   8.161
  766TIP3    H223858   0.001   2.766   8.140
  767TIP3   OH223859   0.218   1.284   6.762
  767TIP3    H123860   0.290   1.312   6.819
  767TIP3    H223861   0.172   1.218   6.812
  768TIP3   OH223862   6.353   0.132   1.534
  768TIP3    H123863   6.263   0.128   1.568
  768TIP3    H223864   6.396   0.199   1.587
  769TIP3   OH223865   2.866   6.818   1.037
  769TIP3    H123866   2.845   6.734   1.077
  769TIP3    H223867   2.934   0.036   1.093
  770TIP3   OH223868   3.089   5.280   7.836
  770TIP3    H123869   3.019   5.293   7.771
  770TIP3    H223870   3.168   5.270   7.783
  771TIP3   OH223871   2.308   2.113   0.380
  771TIP3    H123872   2.359   2.119   0.300
  771TIP3    H223873   2.333   2.029   0.419
  772TIP3   OH223874   0.394   0.719   8.466
  772TIP3    H123875   0.327   0.787   8.456
  772TIP3    H223876   0.423   0.701   8.377
  773TIP3   OH223877   6.750   5.895   6.681
  773TIP3    H123878   0.003   5.843   6.647
  773TIP3    H223879   6.683   5.890   6.613
  774TIP3   OH223880   1.056   5.060   0.624
  774TIP3    H123881   1.053   5.003   0.547
  774TIP3    H223882   1.138   5.038   0.668
  775TIP3   OH223883   4.474   0.603   8.688
  775TIP3    H123884   4.528   0.569   8.617
  775TIP3    H223885   4.535   0.614   8.761
  776TIP3   OH223886   2.451   4.005   7.266
  776TIP3    H123887   2.403   4.082   7.300
  776TIP3    H223888   2.474   4.029   7.177
  777TIP3   OH223889   1.308   3.269   0.179
  777TIP3    H123890   1.355   3.224   0.109
  777TIP3    H223891   1.345   3.357   0.180
  778TIP3   OH223892   2.543   2.478   0.923
  778TIP3    H123893   2.527   2.459   1.015
  778TIP3    H223894   2.456   2.486   0.885
  779TIP3   OH223895   1.741   0.794   8.663
  779TIP3    H123896   1.742   0.889   8.650
  779TIP3    H223897   1.675   0.779   8.730
  780TIP3   OH223898   3.509   6.212   7.624
  780TIP3    H123899   3.448   6.165   7.680
  780TIP3    H223900   3.574   6.146   7.600
  781TIP3   OH223901   0.835   3.881   8.524
  781TIP3    H123902   0.784   3.800   8.515
  781TIP3    H223903   0.843   3.894   8.618
  782TIP3   OH223904   6.332   2.703   0.543
  782TIP3    H123905   6.309   2.632   0.603
  782TIP3    H223906   6.385   2.763   0.595
  783TIP3   OH223907   0.548   4.962   6.665
  783TIP3    H123908   0.461   4.935   6.695
  783TIP3    H223909   0.570   5.037   6.721
  784TIP3   OH223910   1.863   0.420   0.860
  784TIP3    H123911   1.917   0.342   0.846
  784TIP3    H223912   1.788   0.407   0.802
  785TIP3   OH223913   6.056   3.699   1.294
  785TIP3    H123914   6.127   3.696   1.230
  785TIP3    H223915   5.986   3.647   1.254
  786TIP3   OH223916   3.204   1.481   7.647
  786TIP3    H123917   3.215   1.557   7.704
  786TIP3    H223918   3.286   1.432   7.656
  787TIP3   OH223919   4.680   5.765   1.196
  787TIP3    H123920   4.709   5.856   1.204
  787TIP3    H223921   4.633   5.748   1.278
  788TIP3   OH223922   5.088   2.819   1.574
  788TIP3    H123923   5.087   2.884   1.504
  788TIP3    H223924   5.173   2.775   1.566
  789TIP3   OH223925   5.377   3.559   8.271
  789TIP3    H123926   5.393   3.648   8.241
  789TIP3    H223927   5.350   3.570   8.363
  790TIP3   OH223928   5.951   6.327   6.783
  790TIP3    H123929   6.028   6.322   6.726
  790TIP3    H223930   5.891   6.386   6.738
  791TIP3   OH223931   2.691   0.770   7.705
  791TIP3    H123932   2.660   0.683   7.730
  791TIP3    H223933   2.783   0.771   7.730
  792TIP3   OH223934   4.271   4.169   1.127
  792TIP3    H123935   4.181   4.160   1.157
  792TIP3    H223936   4.275   4.120   1.045
  793TIP3   OH223937   4.894   5.599   0.571
  793TIP3    H123938   4.916   5.518   0.526
  793TIP3    H223939   4.802   5.588   0.595
  794TIP3   OH223940   3.427   4.525   6.985
  794TIP3    H123941   3.491   4.481   7.042
  794TIP3    H223942   3.397   4.599   7.037
  795TIP3   OH223943   4.545   1.963   1.152
  795TIP3    H123944   4.532   1.949   1.058
  795TIP3    H223945   4.531   2.057   1.165
  796TIP3   OH223946   2.719   0.752   7.083
  796TIP3    H123947   2.721   0.819   7.015
  796TIP3    H223948   2.802   0.763   7.130
  797TIP3   OH223949   3.599   2.696   7.956
  797TIP3    H123950   3.554   2.754   7.895
  797TIP3    H223951   3.616   2.616   7.906
  798TIP3   OH223952   5.202   6.664   1.032
  798TIP3    H123953   5.282   6.617   1.055
  798TIP3    H223954   5.222   6.756   1.046
  799TIP3   OH223955   4.113   5.335   7.508
  799TIP3    H123956   4.041   5.389   7.475
  799TIP3    H223957   4.164   5.394   7.563
  800TIP3   OH223958   1.127   3.050   2.521
  800TIP3    H123959   1.185   3.119   2.488
  800TIP3    H223960   1.063   3.096   2.575
  801TIP3   OH223961   2.692   5.975   6.857
  801TIP3    H123962   2.775   5.974   6.810
  801TIP3    H223963   2.646   6.051   6.822
  802TIP3   OH223964   6.709   5.647   1.798
  802TIP3    H123965   6.615   5.629   1.802
  802TIP3    H223966   6.747   5.587   1.862
  803TIP3   OH223967   1.087   5.935   6.991
  803TIP3    H123968   1.065   6.025   7.017
  803TIP3    H223969   1.081   5.884   7.072
  804TIP3   OH223970   6.254   2.062   0.920
  804TIP3    H123971   6.270   1.994   0.854
  804TIP3    H223972   6.298   2.140   0.886
  805TIP3   OH223973   6.506   1.869   0.933
  805TIP3    H123974   6.521   1.956   0.896
  805TIP3    H223975   6.435   1.832   0.880
  806TIP3   OH223976   6.544   3.602   7.222
  806TIP3    H123977   6.558   3.661   7.148
  806TIP3    H223978   6.514   3.660   7.292
  807TIP3   OH223979   1.681   5.419   7.124
  807TIP3    H123980   1.766   5.397   7.161
  807TIP3    H223981   1.635   5.465   7.194
  808TIP3   OH223982   0.088   2.379   8.430
  808TIP3    H123983   0.086   2.359   8.523
  808TIP3    H223984   0.157   2.445   8.420
  809TIP3   OH223985   2.774   4.496   6.817
  809TIP3    H123986   2.782   4.415   6.868
  809TIP3    H223987   2.706   4.477   6.753
  810TIP3   OH223988   2.418   2.652   6.690
  810TIP3    H123989   2.472   2.730   6.678
  810TIP3    H223990   2.330   2.678   6.662
  811TIP3   OH223991   0.904   4.710   7.752
  811TIP3    H123992   0.830   4.768   7.731
  811TIP3    H223993   0.919   4.723   7.845
  812TIP3   OH223994   3.973   2.450   6.907
  812TIP3    H123995   3.917   2.379   6.939
  812TIP3    H223996   4.020   2.411   6.833
  813TIP3   OH223997   5.084   0.748   8.302
  813TIP3    H123998   5.123   0.720   8.219
  813TIP3    H223999   4.997   0.780   8.278
  814TIP3   OH224000   3.735   0.821   2.172
  814TIP3    H124001   3.737   0.744   2.115
  814TIP3    H224002   3.824   0.855   2.169
  815TIP3   OH224003   1.605   3.271   0.348
  815TIP3    H124004   1.606   3.362   0.378
  815TIP3    H224005   1.632   3.220   0.424
  816TIP3   OH224006   0.579   2.467   6.885
  816TIP3    H124007   0.506   2.408   6.866
  816TIP3    H224008   0.595   2.513   6.803
  817TIP3   OH224009   2.517   6.653   0.404
  817TIP3    H124010   2.515   6.587   0.333
  817TIP3    H224011   2.566   6.726   0.367
  818TIP3   OH224012   5.417   1.135   1.263
  818TIP3    H124013   5.366   1.095   1.333
  818TIP3    H224014   5.503   1.093   1.269
  819TIP3   OH224015   1.585   4.600   1.595
  819TIP3    H124016   1.678   4.610   1.612
  819TIP3    H224017   1.550   4.556   1.672
  820TIP3   OH224018   0.679   6.637   2.164
  820TIP3    H124019   0.584   6.641   2.150
  820TIP3    H224020   0.691   6.670   2.253
  821TIP3   OH224021   1.146   5.216   0.111
  821TIP3    H124022   1.063   5.171   0.094
  821TIP3    H224023   1.128   5.308   0.089
  822TIP3   OH224024   3.411   5.741   7.615
  822TIP3    H124025   3.471   5.709   7.681
  822TIP3    H224026   3.454   5.819   7.579
  823TIP3   OH224027   6.230   1.732   6.494
  823TIP3    H124028   6.175   1.664   6.534
  823TIP3    H224029   6.272   1.688   6.421
  824TIP3   OH224030   6.281   6.034   7.562
  824TIP3    H124031   6.262   5.940   7.561
  824TIP3    H224032   6.292   6.055   7.654
  825TIP3   OH224033   0.436   3.939   8.565
  825TIP3    H124034   0.447   3.926   8.659
  825TIP3    H224035   0.361   3.883   8.542
  826TIP3   OH224036   4.642   6.471   7.509
  826TIP3    H124037   4.590   6.548   7.487
  826TIP3    H224038   4.713   6.504   7.564
  827TIP3   OH224039   3.327   4.316   8.636
  827TIP3    H124040   3.286   4.364   8.564
  827TIP3    H224041   3.417   4.350   8.638
  828TIP3   OH224042   1.953   5.867   7.411
  828TIP3    H124043   1.911   5.885   7.495
  828TIP3    H224044   1.892   5.810   7.365
  829TIP3   OH224045   1.625   5.601   0.746
  829TIP3    H124046   1.557   5.536   0.729
  829TIP3    H224047   1.580   5.685   0.740
  830TIP3   OH224048   0.877   2.799   1.898
  830TIP3    H124049   0.842   2.887   1.910
  830TIP3    H224050   0.913   2.800   1.809
  831TIP3   OH224051   1.972   3.784   6.069
  831TIP3    H124052   1.925   3.773   5.987
  831TIP3    H224053   1.967   3.877   6.088
  832TIP3   OH224054   3.857   5.708   7.770
  832TIP3    H124055   3.846   5.801   7.788
  832TIP3    H224056   3.793   5.688   7.702
  833TIP3   OH224057   6.729   6.053   0.859
  833TIP3    H124058   6.715   6.119   0.927
  833TIP3    H224059   6.716   5.969   0.904
  834TIP3   OH224060   4.649   4.226   1.475
  834TIP3    H124061   4.635   4.299   1.535
  834TIP3    H224062   4.606   4.252   1.394
  835TIP3   OH224063   5.543   2.462   0.327
  835TIP3    H124064   5.464   2.484   0.376
  835TIP3    H224065   5.513   2.404   0.257
  836TIP3   OH224066   0.869   3.915   0.323
  836TIP3    H124067   0.911   3.878   0.245
  836TIP3    H224068   0.777   3.889   0.315
  837TIP3   OH224069   5.673   1.991   0.589
  837TIP3    H124070   5.751   1.963   0.637
  837TIP3    H224071   5.605   1.998   0.656
  838TIP3   OH224072   3.482   6.182   2.087
  838TIP3    H124073   3.531   6.262   2.108
  838TIP3    H224074   3.550   6.117   2.070
  839TIP3   OH224075   4.402   1.931   0.517
  839TIP3    H124076   4.489   1.971   0.519
  839TIP3    H224077   4.409   1.855   0.575
  840TIP3   OH224078   4.831   1.389   8.011
  840TIP3    H124079   4.744   1.353   7.992
  840TIP3    H224080   4.887   1.355   7.941
  841TIP3   OH224081   3.141   0.148   1.005
  841TIP3    H124082   3.222   0.134   0.955
  841TIP3    H224083   3.071   0.137   0.941
  842TIP3   OH224084   5.530   6.571   0.779
  842TIP3    H124085   5.563   6.640   0.835
  842TIP3    H224086   5.485   6.617   0.708
  843TIP3   OH224087   2.544   4.603   1.127
  843TIP3    H124088   2.474   4.553   1.169
  843TIP3    H224089   2.500   4.678   1.086
  844TIP3   OH224090   4.165   5.443   1.059
  844TIP3    H124091   4.231   5.453   0.990
  844TIP3    H224092   4.212   5.459   1.140
  845TIP3   OH224093   4.677   5.764   0.320
  845TIP3    H124094   4.718   5.798   0.399
  845TIP3    H224095   4.595   5.812   0.312
  846TIP3   OH224096   5.026   2.698   0.847
  846TIP3    H124097   5.095   2.670   0.906
  846TIP3    H224098   5.012   2.790   0.870
  847TIP3   OH224099   4.219   3.883   6.607
  847TIP3    H124100   4.230   3.970   6.568
  847TIP3    H224101   4.236   3.822   6.534
  848TIP3   OH224102   4.158   4.381   1.912
  848TIP3    H124103   4.185   4.473   1.916
  848TIP3    H224104   4.214   4.337   1.976
  849TIP3   OH224105   3.146   0.699   7.231
  849TIP3    H124106   3.094   0.695   7.151
  849TIP3    H224107   3.235   0.719   7.202
  850TIP3   OH224108   5.072   0.419   7.442
  850TIP3    H124109   5.146   0.471   7.476
  850TIP3    H224110   5.065   0.445   7.350
  851TIP3   OH224111   6.428   3.764   7.399
  851TIP3    H124112   6.471   3.745   7.482
  851TIP3    H224113   6.351   3.815   7.423
  852TIP3   OH224114   1.654   1.496   7.226
  852TIP3    H124115   1.618   1.429   7.283
  852TIP3    H224116   1.711   1.448   7.166
  853TIP3   OH224117   0.891   2.333   7.197
  853TIP3    H124118   0.978   2.305   7.170
  853TIP3    H224119   0.877   2.416   7.151
  854TIP3   OH224120   3.262   5.490   8.779
  854TIP3    H124121   3.186   5.446   0.015
  854TIP3    H224122   3.310   5.524   0.055
  855TIP3   OH224123   0.723   5.917   0.238
  855TIP3    H124124   0.771   5.968   0.303
  855TIP3    H224125   0.644   5.969   0.221
  856TIP3   OH224126   0.589   2.636   7.437
  856TIP3    H124127   0.654   2.703   7.457
  856TIP3    H224128   0.637   2.554   7.440
  857TIP3   OH224129   6.033   3.520   1.622
  857TIP3    H124130   6.014   3.569   1.702
  857TIP3    H224131   5.946   3.497   1.587
  858TIP3   OH224132   1.627   2.210   8.281
  858TIP3    H124133   1.568   2.276   8.245
  858TIP3    H224134   1.667   2.253   8.357
  859TIP3   OH224135   6.021   1.274   0.128
  859TIP3    H124136   5.965   1.295   0.053
  859TIP3    H224137   5.988   1.190   0.160
  860TIP3   OH224138   3.949   3.475   0.995
  860TIP3    H124139   3.914   3.511   0.914
  860TIP3    H224140   3.885   3.500   1.062
  861TIP3   OH224141   5.673   1.479   0.061
  861TIP3    H124142   5.623   1.420   0.118
  861TIP3    H224143   5.729   1.528   0.121
  862TIP3   OH224144   6.442   2.095   6.830
  862TIP3    H124145   6.462   2.136   6.746
  862TIP3    H224146   6.388   2.019   6.808
  863TIP3   OH224147   3.657   2.183   0.502
  863TIP3    H124148   3.693   2.217   0.585
  863TIP3    H224149   3.583   2.129   0.529
  864TIP3   OH224150   6.671   6.351   8.391
  864TIP3    H124151   6.666   6.425   8.452
  864TIP3    H224152   6.764   6.346   8.367
  865TIP3   OH224153   5.361   3.077   1.398
  865TIP3    H124154   5.411   3.055   1.477
  865TIP3    H224155   5.373   3.001   1.340
  866TIP3   OH224156   6.182   5.686   0.340
  866TIP3    H124157   6.104   5.737   0.363
  866TIP3    H224158   6.255   5.746   0.356
  867TIP3   OH224159   6.092   6.506   7.284
  867TIP3    H124160   6.167   6.466   7.328
  867TIP3    H224161   6.131   6.563   7.218
  868TIP3   OH224162   6.807   5.097   2.468
  868TIP3    H124163   6.768   5.017   2.502
  868TIP3    H224164   0.081   5.087   2.484
  869TIP3   OH224165   6.373   4.876   2.511
  869TIP3    H124166   6.377   4.913   2.600
  869TIP3    H224167   6.319   4.939   2.462
  870TIP3   OH224168   4.078   0.118   1.416
  870TIP3    H124169   4.137   0.194   1.407
  870TIP3    H224170   4.124   0.059   1.476
  871TIP3   OH224171   4.498   3.164   7.284
  871TIP3    H124172   4.543   3.103   7.341
  871TIP3    H224173   4.439   3.213   7.342
  872TIP3   OH224174   2.162   0.305   0.214
  872TIP3    H124175   2.150   0.386   0.263
  872TIP3    H224176   2.254   0.284   0.224
  873TIP3   OH224177   6.264   2.820   0.122
  873TIP3    H124178   6.337   2.770   0.086
  873TIP3    H224179   6.199   2.822   0.052
  874TIP3   OH224180   5.744   0.195   1.223
  874TIP3    H124181   5.721   0.102   1.227
  874TIP3    H224182   5.704   0.226   1.142
  875TIP3   OH224183   4.157   3.887   8.050
  875TIP3    H124184   4.099   3.829   8.100
  875TIP3    H224185   4.213   3.927   8.116
  876TIP3   OH224186   2.086   5.737   8.019
  876TIP3    H124187   2.085   5.687   8.100
  876TIP3    H224188   2.173   5.776   8.015
  877TIP3   OH224189   5.643   3.045   1.626
  877TIP3    H124190   5.714   3.010   1.678
  877TIP3    H224191   5.676   3.128   1.591
  878TIP3   OH224192   2.874   0.708   6.737
  878TIP3    H124193   2.795   0.733   6.689
  878TIP3    H224194   2.944   0.760   6.697
  879TIP3   OH224195   0.363   3.136   8.194
  879TIP3    H124196   0.432   3.072   8.209
  879TIP3    H224197   0.375   3.166   8.104
  880TIP3   OH224198   4.371   6.187   0.840
  880TIP3    H124199   4.383   6.092   0.838
  880TIP3    H224200   4.434   6.220   0.776
  881TIP3   OH224201   5.900   2.442   7.513
  881TIP3    H124202   5.820   2.401   7.479
  881TIP3    H224203   5.967   2.374   7.502
  882TIP3   OH224204   1.452   2.464   8.226
  882TIP3    H124205   1.455   2.468   8.322
  882TIP3    H224206   1.409   2.545   8.200
  883TIP3   OH224207   0.512   6.098   8.697
  883TIP3    H124208   0.472   6.177   8.733
  883TIP3    H224209   0.461   6.026   8.734
  884TIP3   OH224210   0.483   4.391   0.092
  884TIP3    H124211   0.477   4.482   0.119
  884TIP3    H224212   0.567   4.360   0.128
  885TIP3   OH224213   2.098   0.500   8.747
  885TIP3    H124214   2.065   0.423   8.792
  885TIP3    H224215   2.027   0.564   8.755
  886TIP3   OH224216   3.234   5.327   2.308
  886TIP3    H124217   3.328   5.307   2.311
  886TIP3    H224218   3.214   5.363   2.394
  887TIP3   OH224219   4.604   3.021   1.039
  887TIP3    H124220   4.521   2.975   1.047
  887TIP3    H224221   4.613   3.069   1.121
  888TIP3   OH224222   4.467   0.228   8.773
  888TIP3    H124223   4.513   0.294   0.024
  888TIP3    H224224   4.529   0.203   8.704
  889TIP3   OH224225   0.640   3.459   0.692
  889TIP3    H124226   0.563   3.501   0.653
  889TIP3    H224227   0.693   3.433   0.616
  890TIP3   OH224228   5.953   1.246   1.519
  890TIP3    H124229   5.887   1.307   1.487
  890TIP3    H224230   5.926   1.226   1.609
  891TIP3   OH224231   0.850   0.355   0.159
  891TIP3    H124232   0.827   0.438   0.117
  891TIP3    H224233   0.834   0.370   0.252
  892TIP3   OH224234   5.961   2.876   2.778
  892TIP3    H124235   5.870   2.888   2.748
  892TIP3    H224236   6.014   2.906   2.705
  893TIP3   OH224237   6.536   1.637   7.839
  893TIP3    H124238   6.606   1.626   7.775
  893TIP3    H224239   6.488   1.554   7.836
  894TIP3   OH224240   5.049   3.140   0.155
  894TIP3    H124241   5.022   3.051   0.178
  894TIP3    H224242   4.973   3.177   0.110
  895TIP3   OH224243   6.500   3.213   8.402
  895TIP3    H124244   6.487   3.257   8.485
  895TIP3    H224245   6.426   3.240   8.348
  896TIP3   OH224246   4.726   6.055   1.215
  896TIP3    H124247   4.746   6.099   1.298
  896TIP3    H224248   4.666   6.115   1.171
  897TIP3   OH224249   6.383   0.455   8.548
  897TIP3    H124250   6.308   0.457   8.607
  897TIP3    H224251   6.349   0.413   8.468
  898TIP3   OH224252   6.015   6.223   8.701
  898TIP3    H124253   6.074   6.148   8.696
  898TIP3    H224254   5.951   6.200   8.769
  899TIP3   OH224255   5.619   2.585   0.586
  899TIP3    H124256   5.614   2.636   0.505
  899TIP3    H224257   5.656   2.645   0.650
  900TIP3   OH224258   6.493   1.323   0.267
  900TIP3    H124259   6.521   1.370   0.346
  900TIP3    H224260   6.400   1.305   0.282
  901TIP3   OH224261   3.935   6.388   7.111
  901TIP3    H124262   3.878   6.458   7.143
  901TIP3    H224263   3.874   6.316   7.090
  902TIP3   OH224264   2.120   2.312   8.400
  902TIP3    H124265   2.113   2.258   8.322
  902TIP3    H224266   2.077   2.261   8.469
  903TIP3   OH224267   3.365   5.996   7.377
  903TIP3    H124268   3.457   5.973   7.393
  903TIP3    H224269   3.369   6.083   7.337
  904TIP3   OH224270   0.745   0.513   8.334
  904TIP3    H124271   0.782   0.436   8.377
  904TIP3    H224272   0.820   0.569   8.314
  905TIP3   OH224273   0.691   1.608   6.917
  905TIP3    H124274   0.775   1.634   6.954
  905TIP3    H224275   0.643   1.690   6.905
  906TIP3   OH224276   3.748   6.250   0.185
  906TIP3    H124277   3.781   6.337   0.166
  906TIP3    H224278   3.813   6.213   0.246
  907TIP3   OH224279   2.773   5.959   0.056
  907TIP3    H124280   2.815   5.906   0.124
  907TIP3    H224281   2.773   5.904   8.778
  908TIP3   OH224282   4.407   1.897   8.525
  908TIP3    H124283   4.405   1.951   8.445
  908TIP3    H224284   4.338   1.935   8.580
  909TIP3   OH224285   0.563   4.648   6.755
  909TIP3    H124286   0.533   4.732   6.789
  909TIP3    H224287   0.616   4.670   6.678
  910TIP3   OH224288   6.428   5.676   1.851
  910TIP3    H124289   6.340   5.639   1.849
  910TIP3    H224290   6.451   5.679   1.944
  911TIP3   OH224291   0.334   1.641   8.140
  911TIP3    H124292   0.301   1.730   8.132
  911TIP3    H224293   0.282   1.602   8.210
  912TIP3   OH224294   6.403   6.028   2.577
  912TIP3    H124295   6.312   6.031   2.549
  912TIP3    H224296   6.417   5.939   2.607
  913TIP3   OH224297   0.556   0.537   8.146
  913TIP3    H124298   0.646   0.519   8.174
  913TIP3    H224299   0.503   0.471   8.191
  914TIP3   OH224300   5.062   6.341   0.520
  914TIP3    H124301   5.135   6.288   0.553
  914TIP3    H224302   5.024   6.380   0.598
  915TIP3   OH224303   0.403   4.682   1.710
  915TIP3    H124304   0.309   4.676   1.727
  915TIP3    H224305   0.424   4.602   1.661
  916TIP3   OH224306   0.861   6.639   0.692
  916TIP3    H124307   0.909   6.561   0.667
  916TIP3    H224308   0.799   6.653   0.620
  917TIP3   OH224309   3.395   3.221   0.045
  917TIP3    H124310   3.460   3.291   0.040
  917TIP3    H224311   3.329   3.245   8.780
  918TIP3   OH224312   0.687   4.316   1.148
  918TIP3    H124313   0.689   4.380   1.219
  918TIP3    H224314   0.618   4.347   1.090
  919TIP3   OH224315   2.820   2.544   6.484
  919TIP3    H124316   2.733   2.562   6.450
  919TIP3    H224317   2.826   2.448   6.487
  920TIP3   OH224318   6.058   3.376   6.787
  920TIP3    H124319   6.107   3.347   6.864
  920TIP3    H224320   6.075   3.470   6.781
  921TIP3   OH224321   4.693   6.416   7.243
  921TIP3    H124322   4.613   6.363   7.241
  921TIP3    H224323   4.685   6.467   7.324
  922TIP3   OH224324   6.310   0.904   0.056
  922TIP3    H124325   6.243   0.953   0.009
  922TIP3    H224326   6.284   0.812   0.046
  923TIP3   OH224327   5.210   2.792   6.554
  923TIP3    H124328   5.284   2.737   6.528
  923TIP3    H224329   5.152   2.790   6.477
  924TIP3   OH224330   2.202   3.676   1.826
  924TIP3    H124331   2.203   3.767   1.856
  924TIP3    H224332   2.282   3.638   1.861
  925TIP3   OH224333   0.296   4.184   0.164
  925TIP3    H124334   0.359   4.245   0.127
  925TIP3    H224335   0.282   4.214   0.253
  926TIP3   OH224336   6.599   3.930   1.878
  926TIP3    H124337   6.585   4.023   1.893
  926TIP3    H224338   6.679   3.927   1.825
  927TIP3   OH224339   6.327   1.011   6.800
  927TIP3    H124340   6.422   1.010   6.813
  927TIP3    H224341   6.297   1.085   6.852
  928TIP3   OH224342   0.012   5.063   7.640
  928TIP3    H124343   6.748   5.016   7.638
  928TIP3    H224344   6.813   5.147   7.596
  929TIP3   OH224345   3.784   5.818   8.182
  929TIP3    H124346   3.777   5.786   8.272
  929TIP3    H224347   3.715   5.771   8.135
  930TIP3   OH224348   1.885   5.803   7.019
  930TIP3    H124349   1.824   5.860   6.973
  930TIP3    H224350   1.961   5.860   7.038
  931TIP3   OH224351   1.164   2.461   1.182
  931TIP3    H124352   1.122   2.411   1.251
  931TIP3    H224353   1.255   2.471   1.211
  932TIP3   OH224354   6.379   1.192   2.022
  932TIP3    H124355   6.296   1.149   2.004
  932TIP3    H224356   6.376   1.213   2.115
  933TIP3   OH224357   0.557   1.605   7.512
  933TIP3    H124358   0.549   1.634   7.604
  933TIP3    H224359   0.528   1.514   7.513
  934TIP3   OH224360   1.388   0.374   7.661
  934TIP3    H124361   1.364   0.297   7.609
  934TIP3    H224362   1.351   0.448   7.612
  935TIP3   OH224363   6.121   6.530   6.574
  935TIP3    H124364   6.133   6.610   6.626
  935TIP3    H224365   6.163   6.462   6.625
  936TIP3   OH224366   2.417   2.247   8.314
  936TIP3    H124367   2.401   2.157   8.342
  936TIP3    H224368   2.409   2.244   8.218
  937TIP3   OH224369   5.668   0.564   0.949
  937TIP3    H124370   5.645   0.548   1.040
  937TIP3    H224371   5.716   0.647   0.951
  938TIP3   OH224372   0.427   3.988   0.505
  938TIP3    H124373   0.480   3.983   0.425
  938TIP3    H224374   0.341   3.954   0.478
  939TIP3   OH224375   4.471   0.816   7.241
  939TIP3    H124376   4.446   0.723   7.239
  939TIP3    H224377   4.447   0.850   7.155
  940TIP3   OH224378   3.956   3.659   0.488
  940TIP3    H124379   3.998   3.724   0.432
  940TIP3    H224380   3.896   3.709   0.543
  941TIP3   OH224381   3.887   6.070   0.980
  941TIP3    H124382   3.971   6.116   0.980
  941TIP3    H224383   3.866   6.059   1.073
  942TIP3   OH224384   0.572   0.258   8.442
  942TIP3    H124385   0.633   0.323   8.478
  942TIP3    H224386   0.622   0.213   8.375
  943TIP3   OH224387   1.532   3.570   7.832
  943TIP3    H124388   1.563   3.640   7.775
  943TIP3    H224389   1.590   3.573   7.908
  944TIP3   OH224390   4.237   5.350   8.658
  944TIP3    H124391   4.206   5.348   8.567
  944TIP3    H224392   4.316   5.297   8.657
  945TIP3   OH224393   2.388   4.550   6.371
  945TIP3    H124394   2.346   4.514   6.293
  945TIP3    H224395   2.468   4.498   6.382
  946TIP3   OH224396   6.720   6.367   0.540
  946TIP3    H124397   6.730   6.462   0.545
  946TIP3    H224398   6.658   6.346   0.610
  947TIP3   OH224399   2.446   2.062   7.486
  947TIP3    H124400   2.424   2.046   7.578
  947TIP3    H224401   2.397   1.997   7.437
  948TIP3   OH224402   1.553   0.562   6.681
  948TIP3    H124403   1.599   0.480   6.662
  948TIP3    H224404   1.504   0.581   6.601
  949TIP3   OH224405   5.089   4.446   8.273
  949TIP3    H124406   5.137   4.363   8.274
  949TIP3    H224407   5.095   4.479   8.363
  950TIP3   OH224408   4.980   0.772   1.489
  950TIP3    H124409   4.966   0.865   1.471
  950TIP3    H224410   5.056   0.770   1.547
  951TIP3   OH224411   0.911   6.549   1.532
  951TIP3    H124412   0.858   6.531   1.454
  951TIP3    H224413   0.932   6.463   1.567
  952TIP3   OH224414   6.798   2.731   2.043
  952TIP3    H124415   6.711   2.710   2.008
  952TIP3    H224416   6.802   2.684   2.126
  953TIP3   OH224417   3.419   3.001   7.529
  953TIP3    H124418   3.389   3.090   7.548
  953TIP3    H224419   3.346   2.946   7.557
  954TIP3   OH224420   6.017   5.273   2.237
  954TIP3    H124421   6.045   5.235   2.320
  954TIP3    H224422   5.949   5.335   2.262
  955TIP3   OH224423   6.482   4.162   8.056
  955TIP3    H124424   6.447   4.102   8.122
  955TIP3    H224425   6.575   4.140   8.052
  956TIP3   OH224426   6.443   1.417   1.115
  956TIP3    H124427   6.348   1.424   1.106
  956TIP3    H224428   6.462   1.325   1.096
  957TIP3   OH224429   2.477   3.338   1.588
  957TIP3    H124430   2.539   3.406   1.560
  957TIP3    H224431   2.393   3.365   1.550
  958TIP3   OH224432   5.089   3.679   7.996
  958TIP3    H124433   4.999   3.672   7.964
  958TIP3    H224434   5.097   3.608   8.060
  959TIP3   OH224435   3.414   3.674   1.997
  959TIP3    H124436   3.328   3.650   2.033
  959TIP3    H224437   3.437   3.754   2.045
  960TIP3   OH224438   5.266   0.138   1.033
  960TIP3    H124439   5.301   0.164   0.948
  960TIP3    H224440   5.171   0.148   1.025
  961TIP3   OH224441   4.665   4.558   7.664
  961TIP3    H124442   4.618   4.616   7.724
  961TIP3    H224443   4.733   4.614   7.626
  962TIP3   OH224444   4.959   3.042   0.444
  962TIP3    H124445   4.981   2.950   0.458
  962TIP3    H224446   5.030   3.076   0.389
  963TIP3   OH224447   3.137   5.559   1.277
  963TIP3    H124448   3.084   5.487   1.311
  963TIP3    H224449   3.080   5.604   1.214
  964TIP3   OH224450   6.496   1.204   8.352
  964TIP3    H124451   6.557   1.161   8.293
  964TIP3    H224452   6.418   1.148   8.352
  965TIP3   OH224453   2.865   3.376   2.071
  965TIP3    H124454   2.791   3.426   2.036
  965TIP3    H224455   2.824   3.301   2.115
  966TIP3   OH224456   4.384   4.065   7.711
  966TIP3    H124457   4.300   4.050   7.668
  966TIP3    H224458   4.413   4.150   7.680
  967TIP3   OH224459   5.374   2.411   1.704
  967TIP3    H124460   5.284   2.440   1.714
  967TIP3    H224461   5.369   2.335   1.646
  968TIP3   OH224462   3.405   6.641   8.715
  968TIP3    H124463   3.334   6.696   8.682
  968TIP3    H224464   3.372   6.552   8.711
  969TIP3   OH224465   0.316   2.626   0.807
  969TIP3    H124466   0.399   2.673   0.806
  969TIP3    H224467   0.301   2.602   0.716
  970TIP3   OH224468   2.874   2.779   0.506
  970TIP3    H124469   2.894   2.702   0.560
  970TIP3    H224470   2.783   2.766   0.479
  971TIP3   OH224471   5.801   4.193   0.114
  971TIP3    H124472   5.879   4.181   0.169
  971TIP3    H224473   5.835   4.223   0.030
  972TIP3   OH224474   6.131   3.643   7.438
  972TIP3    H124475   6.139   3.734   7.466
  972TIP3    H224476   6.141   3.592   7.518
  973TIP3   OH224477   2.218   6.732   0.421
  973TIP3    H124478   2.193   6.641   0.429
  973TIP3    H224479   2.312   6.730   0.406
  974TIP3   OH224480   0.260   1.862   2.576
  974TIP3    H124481   0.187   1.846   2.515
  974TIP3    H224482   0.228   1.830   2.660
  975TIP3   OH224483   5.168   6.612   1.342
  975TIP3    H124484   5.080   6.575   1.347
  975TIP3    H224485   5.227   6.537   1.337
  976TIP3   OH224486   3.691   1.634   7.207
  976TIP3    H124487   3.772   1.585   7.193
  976TIP3    H224488   3.647   1.633   7.122
  977TIP3   OH224489   0.662   6.703   6.964
  977TIP3    H124490   0.644   6.783   6.914
  977TIP3    H224491   0.737   6.664   6.920
  978TIP3   OH224492   6.162   4.611   8.384
  978TIP3    H124493   6.119   4.693   8.409
  978TIP3    H224494   6.133   4.595   8.294
  979TIP3   OH224495   0.073   0.306   1.170
  979TIP3    H124496   6.816   0.272   1.217
  979TIP3    H224497   0.041   0.323   1.081
  980TIP3   OH224498   1.535   6.528   8.585
  980TIP3    H124499   1.544   6.614   8.544
  980TIP3    H224500   1.609   6.478   8.552
  981TIP3   OH224501   5.304   5.503   8.154
  981TIP3    H124502   5.366   5.539   8.217
  981TIP3    H224503   5.304   5.566   8.082
  982TIP3   OH224504   4.804   1.707   7.272
  982TIP3    H124505   4.771   1.797   7.268
  982TIP3    H224506   4.883   1.709   7.218
  983TIP3   OH224507   0.421   0.643   0.549
  983TIP3    H124508   0.475   0.589   0.491
  983TIP3    H224509   0.477   0.662   0.624
  984TIP3   OH224510   6.505   1.771   7.221
  984TIP3    H124511   6.513   1.837   7.290
  984TIP3    H224512   6.576   1.791   7.160
  985TIP3   OH224513   0.663   3.243   7.864
  985TIP3    H124514   0.639   3.265   7.774
  985TIP3    H224515   0.757   3.223   7.859
  986TIP3   OH224516   0.021   4.999   0.638
  986TIP3    H124517   0.014   4.959   0.552
  986TIP3    H224518   0.112   5.030   0.643
  987TIP3   OH224519   0.419   5.423   7.756
  987TIP3    H124520   0.467   5.436   7.838
  987TIP3    H224521   0.463   5.479   7.693
  988TIP3   OH224522   6.716   4.482   0.883
  988TIP3    H124523   6.757   4.438   0.808
  988TIP3    H224524   6.628   4.447   0.887
  989TIP3   OH224525   2.563   2.621   7.795
  989TIP3    H124526   2.486   2.646   7.743
  989TIP3    H224527   2.552   2.667   7.878
  990TIP3   OH224528   5.033   1.957   7.517
  990TIP3    H124529   4.943   1.926   7.526
  990TIP3    H224530   5.025   2.053   7.511
  991TIP3   OH224531   1.199   0.140   6.859
  991TIP3    H124532   1.250   0.061   6.843
  991TIP3    H224533   1.264   0.205   6.886
  992TIP3   OH224534   1.807   0.526   8.132
  992TIP3    H124535   1.822   0.594   8.197
  992TIP3    H224536   1.870   0.458   8.154
  993TIP3   OH224537   4.396   2.830   0.159
  993TIP3    H124538   4.361   2.741   0.167
  993TIP3    H224539   4.423   2.853   0.248
  994TIP3   OH224540   6.543   1.437   7.518
  994TIP3    H124541   6.523   1.445   7.612
  994TIP3    H224542   6.467   1.474   7.474
  995TIP3   OH224543   2.088   1.645   7.157
  995TIP3    H124544   2.004   1.624   7.115
  995TIP3    H224545   2.095   1.740   7.150
  996TIP3   OH224546   5.490   2.219   0.214
  996TIP3    H124547   5.536   2.168   0.280
  996TIP3    H224548   5.515   2.179   0.130
  997TIP3   OH224549   5.130   5.761   2.143
  997TIP3    H124550   5.134   5.853   2.166
  997TIP3    H224551   5.046   5.750   2.099
  998TIP3   OH224552   1.629   0.229   8.389
  998TIP3    H124553   1.582   0.289   8.448
  998TIP3    H224554   1.721   0.251   8.401
  999TIP3   OH224555   3.729   4.466   7.849
  999TIP3    H124556   3.680   4.450   7.768
  999TIP3    H224557   3.804   4.407   7.843
 1000TIP3   OH224558   4.089   1.604   0.859
 1000TIP3    H124559   4.155   1.537   0.842
 1000TIP3    H224560   4.035   1.568   0.930
 1001TIP3   OH224561   6.203   5.426   0.235
 1001TIP3    H124562   6.223   5.501   0.291
 1001TIP3    H224563   6.264   5.434   0.162
 1002TIP3   OH224564   0.853   5.881   0.831
 1002TIP3    H124565   0.779   5.837   0.871
 1002TIP3    H224566   0.814   5.945   0.771
 1003TIP3   OH224567   2.800   6.583   0.793
 1003TIP3    H124568   2.809   6.519   0.863
 1003TIP3    H224569   2.883   6.630   0.793
 1004TIP3   OH224570   6.588   3.603   0.113
 1004TIP3    H124571   6.623   3.535   0.170
 1004TIP3    H224572   6.526   3.556   0.056
 1005TIP3   OH224573   5.063   0.177   8.415
 1005TIP3    H124574   4.997   0.110   8.430
 1005TIP3    H224575   5.145   0.137   8.447
 1006TIP3   OH224576   2.209   3.683   1.014
 1006TIP3    H124577   2.229   3.590   1.030
 1006TIP3    H224578   2.126   3.682   0.968
 1007TIP3   OH224579   2.657   1.773   1.536
 1007TIP3    H124580   2.668   1.751   1.628
 1007TIP3    H224581   2.578   1.826   1.533
 1008TIP3   OH224582   1.044   5.581   2.101
 1008TIP3    H124583   0.973   5.623   2.053
 1008TIP3    H224584   1.087   5.652   2.148
 1009TIP3   OH224585   2.197   4.584   0.827
 1009TIP3    H124586   2.117   4.555   0.870
 1009TIP3    H224587   2.253   4.507   0.825
 1010TIP3   OH224588   5.656   0.518   7.631
 1010TIP3    H124589   5.578   0.542   7.580
 1010TIP3    H224590   5.721   0.495   7.565
 1011TIP3   OH224591   3.145   5.041   6.252
 1011TIP3    H124592   3.089   5.036   6.174
 1011TIP3    H224593   3.170   4.951   6.270
 1012TIP3   OH224594   3.864   1.487   0.401
 1012TIP3    H124595   3.797   1.433   0.360
 1012TIP3    H224596   3.846   1.480   0.495
 1013TIP3   OH224597   3.470   6.785   1.663
 1013TIP3    H124598   3.566   6.775   1.665
 1013TIP3    H224599   3.437   6.699   1.689
 1014TIP3   OH224600   5.656   5.582   7.929
 1014TIP3    H124601   5.726   5.628   7.882
 1014TIP3    H224602   5.576   5.628   7.905
 1015TIP3   OH224603   2.215   1.893   1.647
 1015TIP3    H124604   2.213   1.830   1.575
 1015TIP3    H224605   2.308   1.909   1.662
 1016TIP3   OH224606   5.013   1.032   1.481
 1016TIP3    H124607   5.029   1.043   1.387
 1016TIP3    H224608   4.941   1.092   1.500
 1017TIP3   OH224609   1.470   2.613   0.933
 1017TIP3    H124610   1.470   2.673   0.858
 1017TIP3    H224611   1.414   2.541   0.905
 1018TIP3   OH224612   2.885   5.140   1.119
 1018TIP3    H124613   2.977   5.142   1.145
 1018TIP3    H224614   2.883   5.088   1.039
 1019TIP3   OH224615   0.888   3.389   8.250
 1019TIP3    H124616   0.818   3.324   8.260
 1019TIP3    H224617   0.907   3.417   8.340
 1020TIP3   OH224618   1.655   6.085   0.505
 1020TIP3    H124619   1.620   6.082   0.416
 1020TIP3    H224620   1.597   6.028   0.556
 1021TIP3   OH224621   1.484   3.332   8.291
 1021TIP3    H124622   1.432   3.356   8.214
 1021TIP3    H224623   1.574   3.336   8.260
 1022TIP3   OH224624   1.101   0.354   1.428
 1022TIP3    H124625   1.109   0.273   1.378
 1022TIP3    H224626   1.020   0.344   1.478
 1023TIP3   OH224627   1.587   0.795   7.354
 1023TIP3    H124628   1.552   0.720   7.402
 1023TIP3    H224629   1.510   0.846   7.328
 1024TIP3   OH224630   3.931   6.612   0.721
 1024TIP3    H124631   3.980   6.530   0.733
 1024TIP3    H224632   3.839   6.587   0.734
 1025TIP3   OH224633   5.043   5.818   0.226
 1025TIP3    H124634   5.009   5.733   0.201
 1025TIP3    H224635   5.113   5.836   0.163
 1026TIP3   OH224636   5.737   2.732   0.819
 1026TIP3    H124637   5.801   2.760   0.753
 1026TIP3    H224638   5.790   2.706   0.894
 1027TIP3   OH224639   5.261   6.719   1.643
 1027TIP3    H124640   5.206   6.691   1.716
 1027TIP3    H224641   5.242   6.657   1.573
 1028TIP3   OH224642   3.377   6.081   1.470
 1028TIP3    H124643   3.311   6.093   1.538
 1028TIP3    H224644   3.395   5.987   1.471
 1029TIP3   OH224645   2.262   2.298   1.356
 1029TIP3    H124646   2.209   2.250   1.419
 1029TIP3    H224647   2.332   2.236   1.332
 1030TIP3   OH224648   0.689   2.488   6.539
 1030TIP3    H124649   0.594   2.497   6.554
 1030TIP3    H224650   0.696   2.453   6.450
 1031TIP3   OH224651   1.905   2.635   1.193
 1031TIP3    H124652   1.985   2.686   1.180
 1031TIP3    H224653   1.897   2.581   1.114
 1032TIP3   OH224654   5.399   3.553   0.947
 1032TIP3    H124655   5.307   3.554   0.922
 1032TIP3    H224656   5.411   3.636   0.994
 1033TIP3   OH224657   5.781   1.606   1.755
 1033TIP3    H124658   5.689   1.631   1.766
 1033TIP3    H224659   5.829   1.688   1.759
 1034TIP3   OH224660   1.985   5.024   2.246
 1034TIP3    H124661   1.952   4.946   2.291
 1034TIP3    H224662   1.926   5.094   2.274
 1035TIP3   OH224663   1.689   0.064   0.762
 1035TIP3    H124664   1.764   0.014   0.732
 1035TIP3    H224665   1.614   0.005   0.751
 1036TIP3   OH224666   4.015   2.329   8.586
 1036TIP3    H124667   3.961   2.331   8.665
 1036TIP3    H224668   3.952   2.328   8.514
 1037TIP3   OH224669   6.368   0.003   1.961
 1037TIP3    H124670   6.312   0.080   1.961
 1037TIP3    H224671   6.457   0.039   1.957
 1038TIP3   OH224672   3.169   5.740   8.313
 1038TIP3    H124673   3.123   5.740   8.397
 1038TIP3    H224674   3.257   5.709   8.335
 1039TIP3   OH224675   2.805   0.426   0.830
 1039TIP3    H124676   2.793   0.422   0.735
 1039TIP3    H224677   2.860   0.350   0.851
 1040TIP3   OH224678   5.422   3.796   1.105
 1040TIP3    H124679   5.381   3.856   1.043
 1040TIP3    H224680   5.471   3.852   1.165
 1041TIP3   OH224681   3.173   0.846   1.005
 1041TIP3    H124682   3.182   0.873   1.097
 1041TIP3    H224683   3.088   0.803   1.001
 1042TIP3   OH224684   6.391   6.044   2.108
 1042TIP3    H124685   6.465   5.988   2.131
 1042TIP3    H224686   6.314   5.991   2.128
 1043TIP3   OH224687   0.320   6.313   8.773
 1043TIP3    H124688   0.224   6.312   8.774
 1043TIP3    H224689   0.345   6.384   0.032
 1044TIP3   OH224690   0.067   4.617   8.706
 1044TIP3    H124691   0.125   4.577   8.641
 1044TIP3    H224692   0.009   4.673   8.653
 1045TIP3   OH224693   5.810   0.421   0.755
 1045TIP3    H124694   5.753   0.475   0.810
 1045TIP3    H224695   5.850   0.483   0.694
 1046TIP3   OH224696   2.813   4.245   0.546
 1046TIP3    H124697   2.774   4.158   0.557
 1046TIP3    H224698   2.906   4.232   0.564
 1047TIP3   OH224699   5.757   5.768   8.341
 1047TIP3    H124700   5.752   5.849   8.292
 1047TIP3    H224701   5.795   5.705   8.280
 1048TIP3   OH224702   2.355   3.837   7.701
 1048TIP3    H124703   2.385   3.923   7.671
 1048TIP3    H224704   2.369   3.779   7.627
 1049TIP3   OH224705   3.247   2.434   0.078
 1049TIP3    H124706   3.293   2.478   0.006
 1049TIP3    H224707   3.161   2.476   0.081
 1050TIP3   OH224708   2.031   1.998   2.089
 1050TIP3    H124709   1.972   1.979   2.161
 1050TIP3    H224710   2.085   2.070   2.121
 1051TIP3   OH224711   0.344   3.430   7.328
 1051TIP3    H124712   0.298   3.363   7.276
 1051TIP3    H224713   0.274   3.481   7.368
 1052TIP3   OH224714   6.727   0.444   8.450
 1052TIP3    H124715   6.788   0.479   8.515
 1052TIP3    H224716   6.640   0.468   8.483
 1053TIP3   OH224717   0.889   2.622   7.587
 1053TIP3    H124718   0.843   2.698   7.551
 1053TIP3    H224719   0.857   2.616   7.677
 1054TIP3   OH224720   4.910   1.076   0.277
 1054TIP3    H124721   4.968   1.057   0.203
 1054TIP3    H224722   4.944   1.022   0.349
 1055TIP3   OH224723   5.699   6.777   7.479
 1055TIP3    H124724   5.787   6.747   7.502
 1055TIP3    H224725   5.645   6.698   7.481
 1056TIP3   OH224726   2.216   6.568   1.639
 1056TIP3    H124727   2.153   6.640   1.628
 1056TIP3    H224728   2.174   6.492   1.599
 1057TIP3   OH224729   2.007   2.111   6.219
 1057TIP3    H124730   1.940   2.050   6.188
 1057TIP3    H224731   1.962   2.162   6.287
 1058TIP3   OH224732   0.222   0.870   0.831
 1058TIP3    H124733   0.188   0.931   0.766
 1058TIP3    H224734   0.309   0.904   0.853
 1059TIP3   OH224735   3.592   1.683   8.032
 1059TIP3    H124736   3.573   1.758   7.975
 1059TIP3    H224737   3.679   1.700   8.066
 1060TIP3   OH224738   1.199   6.526   8.392
 1060TIP3    H124739   1.103   6.531   8.387
 1060TIP3    H224740   1.217   6.485   8.476
 1061TIP3   OH224741   6.586   5.414   7.076
 1061TIP3    H124742   6.546   5.377   6.997
 1061TIP3    H224743   6.580   5.344   7.141
 1062TIP3   OH224744   0.627   3.183   1.282
 1062TIP3    H124745   0.563   3.180   1.353
 1062TIP3    H224746   0.706   3.142   1.318
 1063TIP3   OH224747   1.014   6.295   8.096
 1063TIP3    H124748   0.990   6.222   8.039
 1063TIP3    H224749   0.942   6.301   8.159
 1064TIP3   OH224750   5.381   6.106   2.305
 1064TIP3    H124751   5.430   6.130   2.226
 1064TIP3    H224752   5.445   6.058   2.358
 1065TIP3   OH224753   4.028   2.159   8.155
 1065TIP3    H124754   4.091   2.226   8.180
 1065TIP3    H224755   4.013   2.109   8.236
 1066TIP3   OH224756   6.437   2.178   8.589
 1066TIP3    H124757   6.474   2.134   8.513
 1066TIP3    H224758   6.373   2.116   8.624
 1067TIP3   OH224759   5.074   1.152   8.246
 1067TIP3    H124760   5.168   1.143   8.231
 1067TIP3    H224761   5.064   1.238   8.287
 1068TIP3   OH224762   3.535   4.912   7.260
 1068TIP3    H124763   3.582   4.968   7.199
 1068TIP3    H224764   3.513   4.969   7.333
 1069TIP3   OH224765   5.402   3.324   8.694
 1069TIP3    H124766   5.426   3.401   8.745
 1069TIP3    H224767   5.377   3.258   8.759
 1070TIP3   OH224768   4.026   0.765   8.005
 1070TIP3    H124769   3.983   0.718   7.934
 1070TIP3    H224770   4.119   0.749   7.991
 1071TIP3   OH224771   4.330   4.000   8.208
 1071TIP3    H124772   4.424   3.982   8.195
 1071TIP3    H224773   4.308   3.954   8.289
 1072TIP3   OH224774   0.764   0.482   7.354
 1072TIP3    H124775   0.827   0.524   7.412
 1072TIP3    H224776   0.817   0.423   7.300
 1073TIP3   OH224777   0.725   4.878   0.283
 1073TIP3    H124778   0.676   4.932   0.222
 1073TIP3    H224779   0.809   4.923   0.293
 1074TIP3   OH224780   6.644   0.740   7.978
 1074TIP3    H124781   6.660   0.819   8.030
 1074TIP3    H224782   6.552   0.746   7.953
 1075TIP3   OH224783   2.163   5.231   7.209
 1075TIP3    H124784   2.204   5.316   7.191
 1075TIP3    H224785   2.133   5.201   7.124
 1076TIP3   OH224786   2.254   3.704   6.920
 1076TIP3    H124787   2.205   3.622   6.917
 1076TIP3    H224788   2.293   3.712   6.833
 1077TIP3   OH224789   2.053   5.740   0.596
 1077TIP3    H124790   1.961   5.765   0.600
 1077TIP3    H224791   2.101   5.819   0.620
 1078TIP3   OH224792   5.544   1.755   7.623
 1078TIP3    H124793   5.587   1.829   7.665
 1078TIP3    H224794   5.531   1.782   7.533
 1079TIP3   OH224795   3.039   1.053   0.351
 1079TIP3    H124796   3.072   1.015   0.270
 1079TIP3    H224797   3.118   1.079   0.399
 1080TIP3   OH224798   5.957   4.052   6.836
 1080TIP3    H124799   5.932   3.988   6.769
 1080TIP3    H224800   5.876   4.101   6.852
 1081TIP3   OH224801   1.456   0.613   8.512
 1081TIP3    H124802   1.545   0.600   8.546
 1081TIP3    H224803   1.406   0.538   8.545
 1082TIP3   OH224804   2.124   0.378   7.086
 1082TIP3    H124805   2.071   0.380   7.166
 1082TIP3    H224806   2.192   0.313   7.104
 1083TIP3   OH224807   2.064   4.957   0.477
 1083TIP3    H124808   1.973   4.983   0.469
 1083TIP3    H224809   2.065   4.890   0.545
 1084TIP3   OH224810   6.533   6.712   0.163
 1084TIP3    H124811   6.567   6.637   0.114
 1084TIP3    H224812   6.488   6.765   0.097
 1085TIP3   OH224813   4.003   4.235   2.234
 1085TIP3    H124814   3.955   4.177   2.293
 1085TIP3    H224815   4.082   4.186   2.211
 1086TIP3   OH224816   2.635   6.500   7.470
 1086TIP3    H124817   2.693   6.431   7.438
 1086TIP3    H224818   2.589   6.461   7.544
 1087TIP3   OH224819   3.622   6.600   6.749
 1087TIP3    H124820   3.706   6.623   6.709
 1087TIP3    H224821   3.613   6.660   6.823
 1088TIP3   OH224822   4.369   5.777   1.303
 1088TIP3    H124823   4.390   5.684   1.306
 1088TIP3    H224824   4.360   5.802   1.395
 1089TIP3   OH224825   3.325   4.785   7.084
 1089TIP3    H124826   3.306   4.852   7.019
 1089TIP3    H224827   3.397   4.821   7.135
 1090TIP3   OH224828   6.189   3.470   7.649
 1090TIP3    H124829   6.218   3.521   7.724
 1090TIP3    H224830   6.190   3.379   7.679
 1091TIP3   OH224831   3.112   3.067   1.798
 1091TIP3    H124832   3.172   3.107   1.861
 1091TIP3    H224833   3.168   3.011   1.744
 1092TIP3   OH224834   3.818   4.064   7.586
 1092TIP3    H124835   3.765   4.042   7.662
 1092TIP3    H224836   3.831   4.159   7.593
 1093TIP3   OH224837   5.294   5.033   7.159
 1093TIP3    H124838   5.285   5.025   7.064
 1093TIP3    H224839   5.388   5.048   7.172
 1094TIP3   OH224840   6.563   2.135   8.322
 1094TIP3    H124841   6.548   2.163   8.232
 1094TIP3    H224842   6.656   2.154   8.338
 1095TIP3   OH224843   6.506   2.713   0.046
 1095TIP3    H124844   6.568   2.705   0.119
 1095TIP3    H224845   6.525   2.639   8.790
 1096TIP3   OH224846   4.788   5.183   7.297
 1096TIP3    H124847   4.826   5.098   7.321
 1096TIP3    H224848   4.698   5.163   7.273
 1097TIP3   OH224849   2.666   0.121   1.880
 1097TIP3    H124850   2.622   0.174   1.946
 1097TIP3    H224851   2.648   0.165   1.798
 1098TIP3   OH224852   1.344   4.766   7.791
 1098TIP3    H124853   1.293   4.755   7.712
 1098TIP3    H224854   1.375   4.857   7.788
 1099TIP3   OH224855   5.364   4.958   7.426
 1099TIP3    H124856   5.332   4.956   7.336
 1099TIP3    H224857   5.458   4.972   7.418
 1100TIP3   OH224858   5.452   0.018   8.714
 1100TIP3    H124859   5.462   6.751   8.754
 1100TIP3    H224860   5.520   0.072   8.756
 1101TIP3   OH224861   1.369   1.100   1.381
 1101TIP3    H124862   1.442   1.100   1.444
 1101TIP3    H224863   1.412   1.102   1.295
 1102TIP3   OH224864   6.388   4.258   8.750
 1102TIP3    H124865   6.410   4.284   0.040
 1102TIP3    H224866   6.293   4.267   8.745
 1103TIP3   OH224867   4.521   5.660   8.107
 1103TIP3    H124868   4.527   5.726   8.176
 1103TIP3    H224869   4.601   5.608   8.116
 1104TIP3   OH224870   0.680   2.787   7.126
 1104TIP3    H124871   0.655   2.818   7.039
 1104TIP3    H224872   0.609   2.729   7.152
 1105TIP3   OH224873   1.835   0.293   6.838
 1105TIP3    H124874   1.925   0.263   6.847
 1105TIP3    H224875   1.789   0.219   6.798
 1106TIP3   OH224876   5.622   3.251   8.306
 1106TIP3    H124877   5.657   3.165   8.286
 1106TIP3    H224878   5.549   3.234   8.366
 1107TIP3   OH224879   3.115   3.154   1.493
 1107TIP3    H124880   3.138   3.062   1.479
 1107TIP3    H224881   3.066   3.154   1.575
 1108TIP3   OH224882   2.374   4.902   6.618
 1108TIP3    H124883   2.332   4.930   6.700
 1108TIP3    H224884   2.408   4.983   6.581
 1109TIP3   OH224885   0.441   5.271   7.413
 1109TIP3    H124886   0.494   5.227   7.347
 1109TIP3    H224887   0.448   5.215   7.491
 1110TIP3   OH224888   2.819   3.216   0.888
 1110TIP3    H124889   2.848   3.182   0.972
 1110TIP3    H224890   2.783   3.140   0.842
 1111TIP3   OH224891   4.048   6.265   7.974
 1111TIP3    H124892   3.985   6.235   8.039
 1111TIP3    H224893   4.023   6.219   7.894
 1112TIP3   OH224894   2.994   2.279   0.791
 1112TIP3    H124895   2.946   2.247   0.715
 1112TIP3    H224896   2.928   2.316   0.849
 1113TIP3   OH224897   5.338   2.686   1.488
 1113TIP3    H124898   5.426   2.656   1.469
 1113TIP3    H224899   5.282   2.609   1.475
 1114TIP3   OH224900   6.305   5.485   8.453
 1114TIP3    H124901   6.213   5.458   8.452
 1114TIP3    H224902   6.313   5.546   8.380
 1115TIP3   OH224903   6.812   1.074   2.269
 1115TIP3    H124904   6.716   1.078   2.271
 1115TIP3    H224905   0.017   1.051   2.358
 1116TIP3   OH224906   1.694   0.319   8.006
 1116TIP3    H124907   1.721   0.408   8.030
 1116TIP3    H224908   1.612   0.306   8.054
 1117TIP3   OH224909   3.790   4.592   0.501
 1117TIP3    H124910   3.873   4.566   0.541
 1117TIP3    H224911   3.774   4.525   0.434
 1118TIP3   OH224912   0.736   5.332   8.070
 1118TIP3    H124913   0.741   5.354   8.163
 1118TIP3    H224914   0.643   5.338   8.049
 1119TIP3   OH224915   5.171   4.835   6.745
 1119TIP3    H124916   5.155   4.874   6.659
 1119TIP3    H224917   5.137   4.746   6.737
 1120TIP3   OH224918   3.383   3.075   1.184
 1120TIP3    H124919   3.311   3.046   1.128
 1120TIP3    H224920   3.457   3.086   1.124
 1121TIP3   OH224921   6.799   0.326   1.647
 1121TIP3    H124922   0.020   0.289   1.568
 1121TIP3    H224923   0.035   0.295   1.718
 1122TIP3   OH224924   6.033   0.253   6.789
 1122TIP3    H124925   5.999   0.164   6.784
 1122TIP3    H224926   6.103   0.256   6.723
 1123TIP3   OH224927   1.108   2.736   1.701
 1123TIP3    H124928   1.058   2.689   1.634
 1123TIP3    H224929   1.145   2.666   1.755
 1124TIP3   OH224930   6.093   2.866   8.705
 1124TIP3    H124931   6.069   2.773   8.707
 1124TIP3    H224932   6.097   2.888   8.612
 1125TIP3   OH224933   2.238   2.216   7.119
 1125TIP3    H124934   2.282   2.245   7.198
 1125TIP3    H224935   2.145   2.237   7.133
 1126TIP3   OH224936   5.946   0.091   8.045
 1126TIP3    H124937   6.009   0.033   8.002
 1126TIP3    H224938   5.887   0.118   7.975
 1127TIP3   OH224939   3.145   0.450   8.439
 1127TIP3    H124940   3.067   0.396   8.443
 1127TIP3    H224941   3.187   0.425   8.357
 1128TIP3   OH224942   3.447   0.316   1.202
 1128TIP3    H124943   3.499   0.277   1.132
 1128TIP3    H224944   3.424   0.243   1.259
 1129TIP3   OH224945   3.218   2.237   7.599
 1129TIP3    H124946   3.152   2.306   7.597
 1129TIP3    H224947   3.252   2.235   7.509
 1130TIP3   OH224948   2.580   5.677   0.862
 1130TIP3    H124949   2.543   5.612   0.801
 1130TIP3    H224950   2.646   5.722   0.810
 1131TIP3   OH224951   2.768   6.242   7.512
 1131TIP3    H124952   2.820   6.165   7.489
 1131TIP3    H224953   2.679   6.221   7.484
 1132TIP3   OH224954   2.271   3.933   0.925
 1132TIP3    H124955   2.267   3.846   0.966
 1132TIP3    H224956   2.200   3.933   0.861
 1133TIP3   OH224957   4.164   1.963   6.842
 1133TIP3    H124958   4.206   2.027   6.784
 1133TIP3    H224959   4.144   1.889   6.785
 1134TIP3   OH224960   1.411   0.759   8.121
 1134TIP3    H124961   1.475   0.830   8.131
 1134TIP3    H224962   1.332   0.803   8.088
 1135TIP3   OH224963   5.987   6.489   8.351
 1135TIP3    H124964   5.985   6.580   8.319
 1135TIP3    H224965   5.955   6.438   8.277
 1136TIP3   OH224966   3.180   0.718   8.781
 1136TIP3    H124967   3.230   0.638   8.766
 1136TIP3    H224968   3.089   0.692   8.770
 1137TIP3   OH224969   0.627   6.535   7.381
 1137TIP3    H124970   0.664   6.583   7.455
 1137TIP3    H224971   0.697   6.532   7.317
 1138TIP3   OH224972   1.325   5.944   1.107
 1138TIP3    H124973   1.269   5.875   1.072
 1138TIP3    H224974   1.284   5.970   1.189
 1139TIP3   OH224975   4.579   2.195   0.716
 1139TIP3    H124976   4.575   2.290   0.729
 1139TIP3    H224977   4.572   2.184   0.621
 1140TIP3   OH224978   5.420   4.393   7.832
 1140TIP3    H124979   5.335   4.431   7.856
 1140TIP3    H224980   5.438   4.329   7.901
 1141TIP3   OH224981   2.441   6.171   8.725
 1141TIP3    H124982   2.350   6.142   8.713
 1141TIP3    H224983   2.473   6.186   8.636
 1142TIP3   OH224984   3.124   1.157   8.620
 1142TIP3    H124985   3.032   1.156   8.645
 1142TIP3    H224986   3.148   1.065   8.613
 1143TIP3   OH224987   2.346   3.628   6.324
 1143TIP3    H124988   2.349   3.618   6.419
 1143TIP3    H224989   2.254   3.612   6.302
 1144TIP3   OH224990   2.544   3.066   0.060
 1144TIP3    H124991   2.475   3.042   0.122
 1144TIP3    H224992   2.623   3.071   0.114
 1145TIP3   OH224993   2.421   3.130   8.626
 1145TIP3    H124994   2.400   3.067   8.557
 1145TIP3    H224995   2.460   3.077   8.695
 1146TIP3   OH224996   6.614   0.055   8.588
 1146TIP3    H124997   6.710   0.063   8.582
 1146TIP3    H224998   6.590   0.117   8.657
 1147TIP3   OH224999   3.892   0.734   0.406
 1147TIP3    H125000   3.965   0.794   0.419
 1147TIP3    H225001   3.819   0.773   0.453
 1148TIP3   OH225002   1.758   3.136   0.527
 1148TIP3    H125003   1.837   3.148   0.580
 1148TIP3    H225004   1.687   3.162   0.586
 1149TIP3   OH225005   2.742   2.148   0.359
 1149TIP3    H125006   2.719   2.117   0.272
 1149TIP3    H225007   2.837   2.154   0.359
 1150TIP3   OH225008   1.884   2.431   8.213
 1150TIP3    H125009   1.820   2.400   8.276
 1150TIP3    H225010   1.967   2.394   8.242
 1151TIP3   OH225011   0.926   4.588   7.502
 1151TIP3    H125012   0.930   4.607   7.596
 1151TIP3    H225013   0.842   4.544   7.490
 1152TIP3   OH225014   5.234   2.582   0.979
 1152TIP3    H125015   5.314   2.631   0.958
 1152TIP3    H225016   5.264   2.512   1.036
 1153TIP3   OH225017   0.628   5.209   0.333
 1153TIP3    H125018   0.576   5.281   0.369
 1153TIP3    H225019   0.708   5.209   0.386
 1154TIP3   OH225020   6.760   3.096   2.690
 1154TIP3    H125021   6.786   3.121   2.779
 1154TIP3    H225022   6.716   3.173   2.655
 1155TIP3   OH225023   5.369   2.735   7.945
 1155TIP3    H125024   5.444   2.720   7.887
 1155TIP3    H225025   5.358   2.830   7.946
 1156TIP3   OH225026   6.732   2.505   7.523
 1156TIP3    H125027   6.816   2.490   7.481
 1156TIP3    H225028   6.711   2.422   7.566
 1157TIP3   OH225029   1.763   6.689   7.048
 1157TIP3    H125030   1.817   6.739   6.986
 1157TIP3    H225031   1.683   6.670   6.999
 1158TIP3   OH225032   3.917   6.419   0.352
 1158TIP3    H125033   3.918   6.507   0.316
 1158TIP3    H225034   4.008   6.390   0.347
 1159TIP3   OH225035   0.854   4.951   7.260
 1159TIP3    H125036   0.905   4.874   7.285
 1159TIP3    H225037   0.786   4.917   7.202
 1160TIP3   OH225038   3.865   0.901   1.583
 1160TIP3    H125039   3.907   0.864   1.506
 1160TIP3    H225040   3.821   0.827   1.625
 1161TIP3   OH225041   1.179   0.569   7.567
 1161TIP3    H125042   1.105   0.575   7.507
 1161TIP3    H225043   1.140   0.549   7.652
 1162TIP3   OH225044   3.868   2.306   0.903
 1162TIP3    H125045   3.861   2.239   0.835
 1162TIP3    H225046   3.917   2.377   0.861
 1163TIP3   OH225047   0.452   2.351   2.080
 1163TIP3    H125048   0.385   2.399   2.129
 1163TIP3    H225049   0.415   2.263   2.069
 1164TIP3   OH225050   4.088   3.847   1.468
 1164TIP3    H125051   4.042   3.893   1.398
 1164TIP3    H225052   4.178   3.879   1.463
 1165TIP3   OH225053   3.081   6.661   8.011
 1165TIP3    H125054   3.003   6.635   8.061
 1165TIP3    H225055   3.147   6.595   8.034
 1166TIP3   OH225056   4.673   2.223   6.850
 1166TIP3    H125057   4.650   2.185   6.765
 1166TIP3    H225058   4.589   2.241   6.892
 1167TIP3   OH225059   3.614   0.492   0.086
 1167TIP3    H125060   3.518   0.488   0.079
 1167TIP3    H225061   3.645   0.426   0.025
 1168TIP3   OH225062   0.052   2.475   7.071
 1168TIP3    H125063   0.010   2.436   6.995
 1168TIP3    H225064   0.138   2.503   7.039
 1169TIP3   OH225065   2.260   1.324   8.785
 1169TIP3    H125066   2.314   1.311   8.708
 1169TIP3    H225067   2.322   1.342   0.055
 1170TIP3   OH225068   5.868   2.072   6.519
 1170TIP3    H125069   5.794   2.118   6.559
 1170TIP3    H225070   5.892   2.126   6.444
 1171TIP3   OH225071   1.754   5.697   8.071
 1171TIP3    H125072   1.740   5.756   7.998
 1171TIP3    H225073   1.822   5.739   8.124
 1172TIP3   OH225074   2.847   3.006   0.674
 1172TIP3    H125075   2.860   2.939   0.607
 1172TIP3    H225076   2.912   2.986   0.742
 1173TIP3   OH225077   4.116   5.539   0.414
 1173TIP3    H125078   4.089   5.563   0.326
 1173TIP3    H225079   4.192   5.482   0.402
 1174TIP3   OH225080   2.478   2.435   0.459
 1174TIP3    H125081   2.390   2.437   0.497
 1174TIP3    H225082   2.472   2.372   0.388
 1175TIP3   OH225083   5.794   0.853   0.055
 1175TIP3    H125084   5.792   0.833   8.762
 1175TIP3    H225085   5.704   0.843   0.084
 1176TIP3   OH225086   1.013   0.683   0.376
 1176TIP3    H125087   1.037   0.595   0.346
 1176TIP3    H225088   0.981   0.670   0.465
 1177TIP3   OH225089   3.219   1.989   1.408
 1177TIP3    H125090   3.202   2.004   1.501
 1177TIP3    H225091   3.139   1.947   1.375
 1178TIP3   OH225092   3.502   6.787   1.103
 1178TIP3    H125093   3.536   0.053   1.079
 1178TIP3    H225094   3.431   6.771   1.041
 1179TIP3   OH225095   4.868   0.163   1.267
 1179TIP3    H125096   4.815   0.090   1.236
 1179TIP3    H225097   4.805   0.227   1.300
 1180TIP3   OH225098   3.869   4.441   6.303
 1180TIP3    H125099   3.958   4.415   6.279
 1180TIP3    H225100   3.865   4.431   6.398
 1181TIP3   OH225101   1.001   0.147   8.321
 1181TIP3    H125102   0.975   0.095   8.245
 1181TIP3    H225103   1.097   0.147   8.318
 1182TIP3   OH225104   5.378   5.718   8.644
 1182TIP3    H125105   5.333   5.732   8.561
 1182TIP3    H225106   5.397   5.624   8.645
 1183TIP3   OH225107   4.661   2.228   2.242
 1183TIP3    H125108   4.672   2.146   2.195
 1183TIP3    H225109   4.692   2.209   2.331
 1184TIP3   OH225110   2.429   1.996   0.143
 1184TIP3    H125111   2.383   1.983   0.060
 1184TIP3    H225112   2.500   2.057   0.121
 1185TIP3   OH225113   2.504   2.237   1.523
 1185TIP3    H125114   2.522   2.161   1.467
 1185TIP3    H225115   2.501   2.201   1.612
 1186TIP3   OH225116   4.104   6.784   1.978
 1186TIP3    H125117   4.030   6.732   2.008
 1186TIP3    H225118   4.082   0.054   2.002
 1187TIP3   OH225119   1.435   0.539   7.154
 1187TIP3    H125120   1.416   0.606   7.220
 1187TIP3    H225121   1.435   0.456   7.202
 1188TIP3   OH225122   4.073   2.799   8.521
 1188TIP3    H125123   4.087   2.730   8.586
 1188TIP3    H225124   4.159   2.840   8.511
 1189TIP3   OH225125   5.404   6.121   1.608
 1189TIP3    H125126   5.319   6.164   1.605
 1189TIP3    H225127   5.460   6.176   1.553
 1190TIP3   OH225128   5.464   0.685   0.695
 1190TIP3    H125129   5.516   0.706   0.617
 1190TIP3    H225130   5.377   0.663   0.661
 1191TIP3   OH225131   1.848   5.978   0.946
 1191TIP3    H125132   1.915   5.978   1.015
 1191TIP3    H225133   1.812   6.067   0.948
 1192TIP3   OH225134   6.406   2.380   1.351
 1192TIP3    H125135   6.448   2.324   1.285
 1192TIP3    H225136   6.371   2.319   1.415
 1193TIP3   OH225137   1.984   2.189   0.304
 1193TIP3    H125138   1.946   2.195   0.392
 1193TIP3    H225139   1.980   2.096   0.283
 1194TIP3   OH225140   4.392   4.655   1.718
 1194TIP3    H125141   4.341   4.643   1.798
 1194TIP3    H225142   4.442   4.735   1.732
 1195TIP3   OH225143   6.788   0.691   6.949
 1195TIP3    H125144   6.818   0.773   6.910
 1195TIP3    H225145   6.697   0.683   6.922
 1196TIP3   OH225146   1.262   2.749   0.006
 1196TIP3    H125147   1.321   2.727   8.734
 1196TIP3    H225148   1.307   2.716   0.084
 1197TIP3   OH225149   4.582   2.227   1.932
 1197TIP3    H125150   4.552   2.143   1.898
 1197TIP3    H225151   4.514   2.289   1.907
 1198TIP3   OH225152   2.867   4.311   1.494
 1198TIP3    H125153   2.867   4.311   1.398
 1198TIP3    H225154   2.793   4.367   1.518
 1199TIP3   OH225155   5.601   2.373   7.820
 1199TIP3    H125156   5.543   2.425   7.765
 1199TIP3    H225157   5.582   2.401   7.909
 1200TIP3   OH225158   4.893   3.925   7.358
 1200TIP3    H125159   4.936   3.996   7.405
 1200TIP3    H225160   4.925   3.933   7.268
 1201TIP3   OH225161   1.810   3.797   8.324
 1201TIP3    H125162   1.902   3.824   8.328
 1201TIP3    H225163   1.762   3.877   8.303
 1202TIP3   OH225164   0.412   0.969   6.825
 1202TIP3    H125165   0.335   0.993   6.876
 1202TIP3    H225166   0.417   0.873   6.833
 1203TIP3   OH225167   5.920   0.631   0.271
 1203TIP3    H125168   5.885   0.579   0.199
 1203TIP3    H225169   5.843   0.665   0.316
 1204TIP3   OH225170   2.585   3.456   7.302
 1204TIP3    H125171   2.578   3.377   7.355
 1204TIP3    H225172   2.658   3.438   7.243
 1205TIP3   OH225173   3.574   2.364   8.499
 1205TIP3    H125174   3.653   2.404   8.462
 1205TIP3    H225175   3.504   2.425   8.477
 1206TIP3   OH225176   0.846   0.245   7.902
 1206TIP3    H125177   0.938   0.227   7.881
 1206TIP3    H225178   0.799   0.167   7.875
 1207TIP3   OH225179   6.180   1.065   1.900
 1207TIP3    H125180   6.150   1.051   1.810
 1207TIP3    H225181   6.104   1.044   1.954
 1208TIP3   OH225182   3.618   6.255   7.932
 1208TIP3    H125183   3.534   6.216   7.910
 1208TIP3    H225184   3.681   6.183   7.926
 1209TIP3   OH225185   1.711   2.044   2.337
 1209TIP3    H125186   1.669   1.990   2.404
 1209TIP3    H225187   1.647   2.111   2.315
 1210TIP3   OH225188   3.472   4.600   1.290
 1210TIP3    H125189   3.488   4.510   1.319
 1210TIP3    H225190   3.559   4.632   1.264
 1211TIP3   OH225191   5.402   5.261   0.277
 1211TIP3    H125192   5.343   5.334   0.293
 1211TIP3    H225193   5.475   5.301   0.228
 1212TIP3   OH225194   2.125   6.494   7.423
 1212TIP3    H125195   2.081   6.511   7.340
 1212TIP3    H225196   2.146   6.400   7.420
 1213TIP3   OH225197   1.446   2.197   1.077
 1213TIP3    H125198   1.474   2.255   1.006
 1213TIP3    H225199   1.442   2.110   1.037
 1214TIP3   OH225200   6.667   0.226   1.319
 1214TIP3    H125201   6.635   0.315   1.331
 1214TIP3    H225202   6.588   0.173   1.306
 1215TIP3   OH225203   4.548   5.120   1.589
 1215TIP3    H125204   4.572   5.028   1.598
 1215TIP3    H225205   4.563   5.157   1.676
 1216TIP3   OH225206   3.608   0.942   7.318
 1216TIP3    H125207   3.552   0.873   7.353
 1216TIP3    H225208   3.694   0.901   7.308
 1217TIP3   OH225209   0.798   2.376   0.102
 1217TIP3    H125210   0.822   2.283   0.110
 1217TIP3    H225211   0.772   2.386   0.011
 1218TIP3   OH225212   6.627   2.162   7.307
 1218TIP3    H125213   6.630   2.207   7.223
 1218TIP3    H225214   6.718   2.162   7.338
 1219TIP3   OH225215   1.624   1.298   7.422
 1219TIP3    H125216   1.710   1.255   7.425
 1219TIP3    H225217   1.570   1.248   7.483
 1220TIP3   OH225218   6.425   6.303   0.664
 1220TIP3    H125219   6.423   6.385   0.714
 1220TIP3    H225220   6.346   6.306   0.610
 1221TIP3   OH225221   6.381   2.048   2.390
 1221TIP3    H125222   6.476   2.058   2.388
 1221TIP3    H225223   6.347   2.123   2.342
 1222TIP3   OH225224   5.003   3.071   8.283
 1222TIP3    H125225   4.960   3.096   8.201
 1222TIP3    H225226   4.938   3.017   8.328
 1223TIP3   OH225227   0.177   2.256   2.021
 1223TIP3    H125228   0.155   2.336   2.067
 1223TIP3    H225229   0.179   2.281   1.928
 1224TIP3   OH225230   0.771   4.090   0.752
 1224TIP3    H125231   0.712   4.091   0.828
 1224TIP3    H225232   0.858   4.082   0.789
 1225TIP3   OH225233   2.439   1.900   7.177
 1225TIP3    H125234   2.487   1.819   7.194
 1225TIP3    H225235   2.412   1.893   7.085
 1226TIP3   OH225236   4.846   5.181   0.909
 1226TIP3    H125237   4.924   5.178   0.853
 1226TIP3    H225238   4.881   5.176   0.998
 1227TIP3   OH225239   0.157   2.024   2.229
 1227TIP3    H125240   0.117   1.957   2.284
 1227TIP3    H225241   0.247   2.030   2.260
 1228TIP3   OH225242   3.826   5.700   0.255
 1228TIP3    H125243   3.784   5.621   0.291
 1228TIP3    H225244   3.805   5.769   0.318
 1229TIP3   OH225245   5.631   6.171   8.036
 1229TIP3    H125246   5.550   6.214   8.062
 1229TIP3    H225247   5.622   6.156   7.942
 1230TIP3   OH225248   0.705   1.071   6.504
 1230TIP3    H125249   0.619   1.113   6.509
 1230TIP3    H225250   0.721   1.040   6.593
 1231TIP3   OH225251   1.814   1.539   0.997
 1231TIP3    H125252   1.890   1.489   1.026
 1231TIP3    H225253   1.760   1.548   1.076
 1232TIP3   OH225254   4.797   3.976   1.492
 1232TIP3    H125255   4.758   4.057   1.461
 1232TIP3    H225256   4.730   3.909   1.477
 1233TIP3   OH225257   0.583   3.869   0.290
 1233TIP3    H125258   0.580   3.773   0.286
 1233TIP3    H225259   0.539   3.898   0.211
 1234TIP3   OH225260   4.733   4.775   0.204
 1234TIP3    H125261   4.734   4.770   0.300
 1234TIP3    H225262   4.704   4.865   0.186
 1235TIP3   OH225263   2.196   6.039   1.940
 1235TIP3    H125264   2.113   6.011   1.902
 1235TIP3    H225265   2.171   6.083   2.021
 1236TIP3   OH225266   1.096   6.171   1.812
 1236TIP3    H125267   1.122   6.232   1.881
 1236TIP3    H225268   1.117   6.085   1.846
 1237TIP3   OH225269   3.956   5.502   0.763
 1237TIP3    H125270   3.947   5.429   0.824
 1237TIP3    H225271   3.909   5.574   0.805
 1238TIP3   OH225272   5.889   1.872   0.150
 1238TIP3    H125273   5.851   1.913   0.072
 1238TIP3    H225274   5.929   1.945   0.198
 1239TIP3   OH225275   1.537   6.143   7.574
 1239TIP3    H125276   1.618   6.175   7.613
 1239TIP3    H225277   1.537   6.177   7.485
 1240TIP3   OH225278   3.091   6.289   0.733
 1240TIP3    H125279   3.029   6.299   0.805
 1240TIP3    H225280   3.118   6.197   0.738
 1241TIP3   OH225281   3.087   2.387   1.724
 1241TIP3    H125282   3.051   2.323   1.663
 1241TIP3    H225283   3.013   2.445   1.745
 1242TIP3   OH225284   4.918   2.899   8.624
 1242TIP3    H125285   5.006   2.915   8.657
 1242TIP3    H225286   4.865   2.885   8.702
 1243TIP3   OH225287   2.223   6.643   2.454
 1243TIP3    H125288   2.268   6.726   2.470
 1243TIP3    H225289   2.166   6.660   2.379
 1244TIP3   OH225290   2.474   0.795   6.930
 1244TIP3    H125291   2.394   0.846   6.924
 1244TIP3    H225292   2.508   0.813   7.018
 1245TIP3   OH225293   1.217   4.471   7.798
 1245TIP3    H125294   1.231   4.553   7.847
 1245TIP3    H225295   1.137   4.435   7.836
 1246TIP3   OH225296   4.709   1.605   7.658
 1246TIP3    H125297   4.688   1.590   7.750
 1246TIP3    H225298   4.626   1.630   7.618
 1247TIP3   OH225299   4.031   4.192   1.513
 1247TIP3    H125300   4.037   4.129   1.441
 1247TIP3    H225301   4.120   4.196   1.548
 1248TIP3   OH225302   2.151   1.024   7.320
 1248TIP3    H125303   2.179   1.072   7.241
 1248TIP3    H225304   2.232   1.011   7.370
 1249TIP3   OH225305   2.212   6.216   0.192
 1249TIP3    H125306   2.118   6.229   0.202
 1249TIP3    H225307   2.242   6.296   0.147
 1250TIP3   OH225308   5.531   3.109   0.801
 1250TIP3    H125309   5.525   3.056   0.880
 1250TIP3    H225310   5.440   3.118   0.771
 1251TIP3   OH225311   1.518   5.644   1.218
 1251TIP3    H125312   1.590   5.583   1.205
 1251TIP3    H225313   1.543   5.722   1.168
 1252TIP3   OH225314   3.810   2.792   2.348
 1252TIP3    H125315   3.744   2.764   2.286
 1252TIP3    H225316   3.811   2.888   2.341
 1253TIP3   OH225317   5.247   0.329   8.233
 1253TIP3    H125318   5.198   0.314   8.314
 1253TIP3    H225319   5.193   0.290   8.165
 1254TIP3   OH225320   0.801   6.323   7.154
 1254TIP3    H125321   0.736   6.385   7.120
 1254TIP3    H225322   0.859   6.377   7.208
 1255TIP3   OH225323   3.154   2.908   8.759
 1255TIP3    H125324   3.248   2.906   8.777
 1255TIP3    H225325   3.135   3.000   8.741
 1256TIP3   OH225326   0.163   0.040   1.068
 1256TIP3    H125327   0.220   0.100   1.021
 1256TIP3    H225328   0.149   0.080   1.153
 1257TIP3   OH225329   4.049   2.245   2.610
 1257TIP3    H125330   4.137   2.275   2.587
 1257TIP3    H225331   4.004   2.324   2.641
 1258TIP3   OH225332   3.656   2.100   8.064
 1258TIP3    H125333   3.682   2.009   8.070
 1258TIP3    H225334   3.633   2.124   8.154
 1259TIP3   OH225335   3.276   4.469   1.036
 1259TIP3    H125336   3.278   4.428   1.122
 1259TIP3    H225337   3.244   4.400   0.977
 1260TIP3   OH225338   2.915   6.232   6.998
 1260TIP3    H125339   2.914   6.321   7.032
 1260TIP3    H225340   3.004   6.219   6.966
 1261TIP3   OH225341   3.149   4.225   1.487
 1261TIP3    H125342   3.074   4.282   1.504
 1261TIP3    H225343   3.202   4.231   1.567
 1262TIP3   OH225344   1.585   1.089   7.194
 1262TIP3    H125345   1.624   1.101   7.281
 1262TIP3    H225346   1.659   1.070   7.137
 1263TIP3   OH225347   6.656   4.098   0.719
 1263TIP3    H125348   6.618   4.181   0.690
 1263TIP3    H225349   6.727   4.081   0.657
 1264TIP3   OH225350   4.110   1.307   1.597
 1264TIP3    H125351   4.052   1.342   1.530
 1264TIP3    H225352   4.055   1.296   1.674
 1265TIP3   OH225353   4.773   5.032   8.262
 1265TIP3    H125354   4.860   5.034   8.301
 1265TIP3    H225355   4.785   4.985   8.180
 1266TIP3   OH225356   1.549   1.037   2.227
 1266TIP3    H125357   1.599   0.969   2.273
 1266TIP3    H225358   1.568   1.023   2.135
 1267TIP3   OH225359   1.804   1.036   7.047
 1267TIP3    H125360   1.871   0.984   7.092
 1267TIP3    H225361   1.840   1.050   6.959
 1268TIP3   OH225362   5.162   3.084   2.174
 1268TIP3    H125363   5.136   3.060   2.263
 1268TIP3    H225364   5.256   3.100   2.180
 1269TIP3   OH225365   2.531   5.462   7.640
 1269TIP3    H125366   2.470   5.469   7.713
 1269TIP3    H225367   2.599   5.527   7.659
 1270TIP3   OH225368   5.766   4.270   7.120
 1270TIP3    H125369   5.725   4.356   7.127
 1270TIP3    H225370   5.739   4.237   7.034
 1271TIP3   OH225371   3.658   0.623   7.157
 1271TIP3    H125372   3.654   0.633   7.062
 1271TIP3    H225373   3.736   0.672   7.182
 1272TIP3   OH225374   3.108   6.351   7.904
 1272TIP3    H125375   3.025   6.341   7.856
 1272TIP3    H225376   3.146   6.432   7.870
 1273TIP3   OH225377   3.735   1.201   6.620
 1273TIP3    H125378   3.731   1.269   6.688
 1273TIP3    H225379   3.752   1.249   6.539
 1274TIP3   OH225380   5.019   5.890   1.912
 1274TIP3    H125381   5.005   5.880   1.818
 1274TIP3    H225382   4.963   5.823   1.952
 1275TIP3   OH225383   2.793   0.632   1.712
 1275TIP3    H125384   2.790   0.711   1.657
 1275TIP3    H225385   2.804   0.666   1.801
 1276TIP3   OH225386   3.751   2.072   0.787
 1276TIP3    H125387   3.723   2.101   0.873
 1276TIP3    H225388   3.677   2.020   0.754
 1277TIP3   OH225389   5.209   5.680   1.747
 1277TIP3    H125390   5.156   5.620   1.800
 1277TIP3    H225391   5.297   5.672   1.782
 1278TIP3   OH225392   1.977   5.944   8.794
 1278TIP3    H125393   1.920   5.892   0.050
 1278TIP3    H225394   1.917   5.989   8.735
 1279TIP3   OH225395   1.918   2.929   7.352
 1279TIP3    H125396   1.864   3.002   7.381
 1279TIP3    H225397   1.917   2.933   7.257
 1280TIP3   OH225398   1.138   0.679   0.922
 1280TIP3    H125399   1.087   0.599   0.912
 1280TIP3    H225400   1.152   0.687   1.016
 1281TIP3   OH225401   5.310   5.329   7.461
 1281TIP3    H125402   5.245   5.321   7.531
 1281TIP3    H225403   5.315   5.424   7.445
 1282TIP3   OH225404   1.536   5.968   7.774
 1282TIP3    H125405   1.523   6.040   7.712
 1282TIP3    H225406   1.462   5.909   7.759
 1283TIP3   OH225407   6.143   3.541   2.633
 1283TIP3    H125408   6.130   3.569   2.724
 1283TIP3    H225409   6.238   3.542   2.621
 1284TIP3   OH225410   6.263   6.710   1.148
 1284TIP3    H125411   6.354   6.711   1.119
 1284TIP3    H225412   6.217   6.657   1.082
 1285TIP3   OH225413   6.493   0.447   7.515
 1285TIP3    H125414   6.476   0.465   7.608
 1285TIP3    H225415   6.458   0.359   7.500
 1286TIP3   OH225416   6.170   2.604   7.635
 1286TIP3    H125417   6.253   2.578   7.597
 1286TIP3    H225418   6.105   2.546   7.596
 1287TIP3   OH225419   5.482   6.328   0.892
 1287TIP3    H125420   5.402   6.304   0.844
 1287TIP3    H225421   5.500   6.418   0.865
 1288TIP3   OH225422   3.111   4.714   8.479
 1288TIP3    H125423   3.044   4.666   8.430
 1288TIP3    H225424   3.074   4.801   8.493
 1289TIP3   OH225425   3.771   2.685   1.766
 1289TIP3    H125426   3.826   2.624   1.814
 1289TIP3    H225427   3.681   2.659   1.788
 1290TIP3   OH225428   4.503   4.340   6.887
 1290TIP3    H125429   4.496   4.428   6.851
 1290TIP3    H225430   4.473   4.283   6.816
 1291TIP3   OH225431   2.973   5.606   8.160
 1291TIP3    H125432   3.052   5.654   8.184
 1291TIP3    H225433   2.989   5.516   8.190
 1292TIP3   OH225434   1.950   4.414   2.680
 1292TIP3    H125435   1.883   4.397   2.613
 1292TIP3    H225436   1.945   4.340   2.740
 1293TIP3   OH225437   1.009   5.447   2.364
 1293TIP3    H125438   0.913   5.450   2.360
 1293TIP3    H225439   1.037   5.493   2.285
 1294TIP3   OH225440   1.668   1.947   8.128
 1294TIP3    H125441   1.660   2.034   8.168
 1294TIP3    H225442   1.585   1.904   8.146
 1295TIP3   OH225443   0.312   5.230   8.419
 1295TIP3    H125444   0.358   5.211   8.500
 1295TIP3    H225445   0.380   5.237   8.353
 1296TIP3   OH225446   0.143   3.466   7.904
 1296TIP3    H125447   0.195   3.411   7.845
 1296TIP3    H225448   0.083   3.406   7.946
 1297TIP3   OH225449   1.760   1.364   0.773
 1297TIP3    H125450   1.806   1.300   0.826
 1297TIP3    H225451   1.756   1.443   0.828
 1298TIP3   OH225452   0.930   3.225   7.822
 1298TIP3    H125453   0.963   3.260   7.905
 1298TIP3    H225454   0.995   3.252   7.757
 1299TIP3   OH225455   3.583   0.343   7.946
 1299TIP3    H125456   3.625   0.412   7.895
 1299TIP3    H225457   3.550   0.281   7.882
 1300TIP3   OH225458   6.215   3.356   8.678
 1300TIP3    H125459   6.148   3.343   8.611
 1300TIP3    H225460   6.165   3.381   8.756
 1301TIP3   OH225461   6.802   4.399   0.642
 1301TIP3    H125462   0.040   4.327   0.616
 1301TIP3    H225463   6.803   4.459   0.568
 1302TIP3   OH225464   5.077   0.134   7.449
 1302TIP3    H125465   5.101   0.225   7.468
 1302TIP3    H225466   5.027   0.140   7.367
 1303TIP3   OH225467   1.486   0.378   1.715
 1303TIP3    H125468   1.467   0.379   1.809
 1303TIP3    H225469   1.556   0.442   1.704
 1304TIP3   OH225470   6.507   5.992   1.128
 1304TIP3    H125471   6.474   5.910   1.165
 1304TIP3    H225472   6.583   5.965   1.076
 1305TIP3   OH225473   6.243   3.579   6.737
 1305TIP3    H125474   6.275   3.604   6.650
 1305TIP3    H225475   6.294   3.501   6.760
 1306TIP3   OH225476   6.775   3.260   7.981
 1306TIP3    H125477   6.721   3.308   7.918
 1306TIP3    H225478   6.754   3.168   7.965
 1307TIP3   OH225479   1.384   2.185   0.434
 1307TIP3    H125480   1.344   2.106   0.397
 1307TIP3    H225481   1.364   2.181   0.527
 1308TIP3   OH225482   5.477   0.667   1.765
 1308TIP3    H125483   5.544   0.639   1.828
 1308TIP3    H225484   5.396   0.670   1.816
 1309TIP3   OH225485   3.510   0.894   8.502
 1309TIP3    H125486   3.441   0.949   8.466
 1309TIP3    H225487   3.591   0.936   8.476
 1310TIP3   OH225488   3.089   1.590   6.507
 1310TIP3    H125489   3.085   1.495   6.517
 1310TIP3    H225490   3.145   1.620   6.579
 1311TIP3   OH225491   3.417   4.540   7.956
 1311TIP3    H125492   3.457   4.453   7.963
 1311TIP3    H225493   3.349   4.529   7.889
 1312TIP3   OH225494   5.496   0.116   2.044
 1312TIP3    H125495   5.483   0.137   2.137
 1312TIP3    H225496   5.524   0.199   2.005
 1313TIP3   OH225497   6.120   5.361   0.924
 1313TIP3    H125498   6.072   5.336   1.004
 1313TIP3    H225499   6.209   5.330   0.939
 1314TIP3   OH225500   3.096   2.971   0.788
 1314TIP3    H125501   3.083   3.043   0.727
 1314TIP3    H225502   3.130   2.899   0.734
 1315TIP3   OH225503   0.241   6.276   8.004
 1315TIP3    H125504   0.268   6.351   7.951
 1315TIP3    H225505   0.317   6.219   8.007
 1316TIP3   OH225506   2.711   4.804   7.648
 1316TIP3    H125507   2.787   4.747   7.656
 1316TIP3    H225508   2.648   4.754   7.597
 1317TIP3   OH225509   5.819   1.756   1.130
 1317TIP3    H125510   5.799   1.845   1.159
 1317TIP3    H225511   5.906   1.762   1.091
 1318TIP3   OH225512   5.018   3.049   1.954
 1318TIP3    H125513   5.086   3.020   1.893
 1318TIP3    H225514   5.063   3.054   2.039
 1319TIP3   OH225515   0.820   2.801   8.085
 1319TIP3    H125516   0.865   2.816   8.168
 1319TIP3    H225517   0.767   2.879   8.072
 1320TIP3   OH225518   5.000   2.328   6.153
 1320TIP3    H125519   4.952   2.395   6.202
 1320TIP3    H225520   4.962   2.245   6.181
 1321TIP3   OH225521   3.465   0.230   8.188
 1321TIP3    H125522   3.544   0.216   8.240
 1321TIP3    H225523   3.482   0.310   8.139
 1322TIP3   OH225524   2.835   6.122   1.720
 1322TIP3    H125525   2.742   6.125   1.742
 1322TIP3    H225526   2.878   6.176   1.786
 1323TIP3   OH225527   4.204   2.612   8.128
 1323TIP3    H125528   4.126   2.622   8.073
 1323TIP3    H225529   4.277   2.606   8.066
 1324TIP3   OH225530   1.391   0.405   6.445
 1324TIP3    H125531   1.412   0.498   6.434
 1324TIP3    H225532   1.316   0.405   6.505
 1325TIP3   OH225533   6.360   1.190   8.625
 1325TIP3    H125534   6.290   1.163   8.684
 1325TIP3    H225535   6.439   1.154   8.664
 1326TIP3   OH225536   5.724   3.360   2.547
 1326TIP3    H125537   5.658   3.414   2.592
 1326TIP3    H225538   5.720   3.275   2.591
 1327TIP3   OH225539   4.053   2.898   1.703
 1327TIP3    H125540   3.958   2.898   1.686
 1327TIP3    H225541   4.063   2.841   1.779
 1328TIP3   OH225542   3.423   5.088   0.991
 1328TIP3    H125543   3.466   5.139   1.059
 1328TIP3    H225544   3.335   5.072   1.026
 1329TIP3   OH225545   5.440   5.356   0.588
 1329TIP3    H125546   5.352   5.382   0.562
 1329TIP3    H225547   5.483   5.331   0.506
 1330TIP3   OH225548   6.373   4.598   7.873
 1330TIP3    H125549   6.300   4.544   7.842
 1330TIP3    H225550   6.394   4.563   7.960
 1331TIP3   OH225551   4.961   5.043   1.110
 1331TIP3    H125552   5.047   5.040   1.068
 1331TIP3    H225553   4.934   4.951   1.117
 1332TIP3   OH225554   5.401   5.456   8.687
 1332TIP3    H125555   5.370   5.369   8.664
 1332TIP3    H225556   5.496   5.447   8.694
 1333TIP3   OH225557   2.214   2.499   8.205
 1333TIP3    H125558   2.229   2.426   8.264
 1333TIP3    H225559   2.301   2.527   8.178
 1334TIP3   OH225560   4.934   4.662   0.791
 1334TIP3    H125561   4.943   4.639   0.883
 1334TIP3    H225562   4.849   4.627   0.766
 1335TIP3   OH225563   1.162   6.532   2.273
 1335TIP3    H125564   1.077   6.507   2.310
 1335TIP3    H225565   1.169   6.626   2.291
 1336TIP3   OH225566   1.333   0.860   8.502
 1336TIP3    H125567   1.374   0.775   8.487
 1336TIP3    H225568   1.288   0.851   8.586
 1337TIP3   OH225569   3.099   1.234   1.147
 1337TIP3    H125570   3.041   1.164   1.116
 1337TIP3    H225571   3.183   1.189   1.164
 1338TIP3   OH225572   3.625   1.653   0.591
 1338TIP3    H125573   3.576   1.723   0.634
 1338TIP3    H225574   3.653   1.691   0.508
 1339TIP3   OH225575   4.049   0.967   2.233
 1339TIP3    H125576   4.029   0.883   2.275
 1339TIP3    H225577   4.140   0.984   2.258
 1340TIP3   OH225578   3.065   1.136   7.465
 1340TIP3    H125579   3.077   1.072   7.394
 1340TIP3    H225580   3.036   1.084   7.540
 1341TIP3   OH225581   5.596   2.637   7.446
 1341TIP3    H125582   5.564   2.610   7.360
 1341TIP3    H225583   5.595   2.732   7.443
 1342TIP3   OH225584   1.384   6.095   8.656
 1342TIP3    H125585   1.422   6.031   8.717
 1342TIP3    H225586   1.290   6.094   8.675
 1343TIP3   OH225587   6.650   2.403   0.670
 1343TIP3    H125588   6.682   2.380   0.757
 1343TIP3    H225589   6.685   2.491   0.654
 1344TIP3   OH225590   5.379   0.977   0.520
 1344TIP3    H125591   5.323   0.965   0.443
 1344TIP3    H225592   5.435   0.900   0.521
 1345TIP3   OH225593   4.687   0.458   7.533
 1345TIP3    H125594   4.775   0.442   7.567
 1345TIP3    H225595   4.693   0.437   7.440
 1346TIP3   OH225596   1.500   4.771   8.787
 1346TIP3    H125597   1.432   4.758   0.052
 1346TIP3    H225598   1.481   4.856   8.748
 1347TIP3   OH225599   5.148   1.500   7.930
 1347TIP3    H125600   5.197   1.544   7.861
 1347TIP3    H225601   5.083   1.565   7.958
 1348TIP3   OH225602   2.237   5.731   8.597
 1348TIP3    H125603   2.263   5.743   8.688
 1348TIP3    H225604   2.187   5.650   8.596
 1349TIP3   OH225605   6.389   0.330   0.165
 1349TIP3    H125606   6.436   0.294   0.240
 1349TIP3    H225607   6.326   0.262   0.141
 1350TIP3   OH225608   5.804   2.096   1.499
 1350TIP3    H125609   5.837   2.184   1.481
 1350TIP3    H225610   5.736   2.109   1.565
 1351TIP3   OH225611   2.185   0.069   1.418
 1351TIP3    H125612   2.253   0.029   1.363
 1351TIP3    H225613   2.197   0.164   1.406
 1352TIP3   OH225614   5.755   0.980   0.727
 1352TIP3    H125615   5.815   0.986   0.653
 1352TIP3    H225616   5.674   0.945   0.689
 1353TIP3   OH225617   5.789   2.717   0.039
 1353TIP3    H125618   5.802   2.755   8.752
 1353TIP3    H225619   5.842   2.638   0.038
 1354TIP3   OH225620   1.933   0.357   6.567
 1354TIP3    H125621   1.948   0.277   6.517
 1354TIP3    H225622   1.841   0.378   6.552
 1355TIP3   OH225623   6.029   6.531   0.201
 1355TIP3    H125624   6.038   6.543   0.106
 1355TIP3    H225625   6.117   6.549   0.236
 1356TIP3   OH225626   3.550   2.214   7.397
 1356TIP3    H125627   3.628   2.193   7.346
 1356TIP3    H225628   3.477   2.188   7.341
 1357TIP3   OH225629   4.152   2.809   1.457
 1357TIP3    H125630   4.092   2.744   1.419
 1357TIP3    H225631   4.117   2.825   1.545
 1358TIP3   OH225632   6.531   4.768   6.495
 1358TIP3    H125633   6.569   4.691   6.537
 1358TIP3    H225634   6.463   4.798   6.556
 1359TIP3   OH225635   2.394   2.204   8.045
 1359TIP3    H125636   2.477   2.248   8.027
 1359TIP3    H225637   2.331   2.249   7.988
 1360TIP3   OH225638   5.794   4.141   1.645
 1360TIP3    H125639   5.810   4.048   1.626
 1360TIP3    H225640   5.831   4.154   1.732
 1361TIP3   OH225641   5.172   0.289   0.205
 1361TIP3    H125642   5.090   0.255   0.241
 1361TIP3    H225643   5.161   0.284   0.111
 1362TIP3   OH225644   5.170   6.149   0.705
 1362TIP3    H125645   5.261   6.163   0.676
 1362TIP3    H225646   5.161   6.204   0.783
 1363TIP3   OH225647   5.111   4.290   7.390
 1363TIP3    H125648   5.194   4.322   7.423
 1363TIP3    H225649   5.072   4.242   7.463
 1364TIP3   OH225650   1.278   5.146   8.488
 1364TIP3    H125651   1.330   5.096   8.551
 1364TIP3    H225652   1.320   5.232   8.485
 1365TIP3   OH225653   1.976   6.681   1.634
 1365TIP3    H125654   1.966   6.615   1.704
 1365TIP3    H225655   1.914   6.750   1.658
 1366TIP3   OH225656   4.933   6.297   6.864
 1366TIP3    H125657   4.936   6.205   6.887
 1366TIP3    H225658   4.963   6.301   6.773
 1367TIP3   OH225659   6.776   3.897   7.155
 1367TIP3    H125660   6.765   3.934   7.243
 1367TIP3    H225661   6.815   3.811   7.171
 1368TIP3   OH225662   0.185   1.800   1.160
 1368TIP3    H125663   0.174   1.799   1.065
 1368TIP3    H225664   0.137   1.723   1.191
 1369TIP3   OH225665   6.625   5.890   7.828
 1369TIP3    H125666   6.669   5.970   7.857
 1369TIP3    H225667   6.646   5.884   7.735
 1370TIP3   OH225668   0.978   2.414   0.322
 1370TIP3    H125669   0.956   2.438   0.412
 1370TIP3    H225670   0.893   2.398   0.280
 1371TIP3   OH225671   5.114   6.022   1.030
 1371TIP3    H125672   5.069   5.974   1.100
 1371TIP3    H225673   5.151   5.953   0.974
 1372TIP3   OH225674   4.794   3.826   7.047
 1372TIP3    H125675   4.854   3.900   7.057
 1372TIP3    H225676   4.794   3.809   6.953
 1373TIP3   OH225677   4.489   1.148   0.804
 1373TIP3    H125678   4.433   1.118   0.732
 1373TIP3    H225679   4.512   1.238   0.780
 1374TIP3   OH225680   3.103   5.147   2.142
 1374TIP3    H125681   3.053   5.216   2.098
 1374TIP3    H225682   3.142   5.191   2.218
 1375TIP3   OH225683   3.553   0.064   6.407
 1375TIP3    H125684   3.599   0.018   6.337
 1375TIP3    H225685   3.498   6.817   6.448
 1376TIP3   OH225686   2.586   4.000   7.787
 1376TIP3    H125687   2.638   3.955   7.720
 1376TIP3    H225688   2.623   3.970   7.870
 1377TIP3   OH225689   2.267   6.253   1.424
 1377TIP3    H125690   2.255   6.196   1.348
 1377TIP3    H225691   2.295   6.337   1.388
 1378TIP3   OH225692   3.471   5.810   1.692
 1378TIP3    H125693   3.459   5.805   1.787
 1378TIP3    H225694   3.389   5.847   1.660
 1379TIP3   OH225695   3.196   0.302   8.182
 1379TIP3    H125696   3.290   0.290   8.170
 1379TIP3    H225697   3.162   0.213   8.190
 1380TIP3   OH225698   4.411   3.615   0.925
 1380TIP3    H125699   4.397   3.688   0.984
 1380TIP3    H225700   4.324   3.594   0.891
 1381TIP3   OH225701   0.184   0.539   1.264
 1381TIP3    H125702   0.166   0.449   1.236
 1381TIP3    H225703   0.164   0.593   1.187
 1382TIP3   OH225704   0.458   0.169   1.205
 1382TIP3    H125705   0.389   0.126   1.256
 1382TIP3    H225706   0.414   0.243   1.162
 1383TIP3   OH225707   0.366   6.083   0.534
 1383TIP3    H125708   0.388   6.047   0.620
 1383TIP3    H225709   0.278   6.119   0.545
 1384TIP3   OH225710   4.051   0.196   2.152
 1384TIP3    H125711   3.999   0.187   2.232
 1384TIP3    H225712   3.993   0.240   2.090
 1385TIP3   OH225713   0.462   3.978   6.354
 1385TIP3    H125714   0.516   4.034   6.410
 1385TIP3    H225715   0.450   3.897   6.403
 1386TIP3   OH225716   4.503   2.235   0.462
 1386TIP3    H125717   4.535   2.150   0.431
 1386TIP3    H225718   4.527   2.297   0.393
 1387TIP3   OH225719   0.389   1.958   1.446
 1387TIP3    H125720   0.320   2.003   1.397
 1387TIP3    H225721   0.462   2.019   1.447
 1388TIP3   OH225722   2.153   1.594   0.034
 1388TIP3    H125723   2.193   1.507   0.040
 1388TIP3    H225724   2.157   1.617   8.742
 1389TIP3   OH225725   3.497   6.657   7.714
 1389TIP3    H125726   3.561   6.642   7.645
 1389TIP3    H225727   3.547   6.655   7.795
 1390TIP3   OH225728   1.212   3.036   0.014
 1390TIP3    H125729   1.289   3.090   8.796
 1390TIP3    H225730   1.247   2.947   0.022
 1391TIP3   OH225731   3.233   4.251   7.958
 1391TIP3    H125732   3.212   4.209   8.041
 1391TIP3    H225733   3.329   4.255   7.956
 1392TIP3   OH225734   0.787   5.531   6.460
 1392TIP3    H125735   0.726   5.543   6.387
 1392TIP3    H225736   0.813   5.439   6.454
 1393TIP3   OH225737   2.680   4.457   7.719
 1393TIP3    H125738   2.734   4.462   7.797
 1393TIP3    H225739   2.619   4.531   7.727
 1394TIP3   OH225740   0.255   5.577   0.419
 1394TIP3    H125741   0.280   5.648   0.360
 1394TIP3    H225742   0.172   5.606   0.457
 1395TIP3   OH225743   0.086   3.598   7.031
 1395TIP3    H125744   0.017   3.648   6.990
 1395TIP3    H225745   0.063   3.506   7.015
 1396TIP3   OH225746   6.772   4.765   8.299
 1396TIP3    H125747   6.683   4.798   8.313
 1396TIP3    H225748   6.760   4.687   8.244
 1397TIP3   OH225749   1.187   3.686   0.259
 1397TIP3    H125750   1.127   3.611   0.257
 1397TIP3    H225751   1.158   3.742   0.186
 1398TIP3   OH225752   6.686   1.382   0.480
 1398TIP3    H125753   6.767   1.427   0.506
 1398TIP3    H225754   6.716   1.297   0.447
 1399TIP3   OH225755   0.981   4.427   6.469
 1399TIP3    H125756   1.068   4.456   6.497
 1399TIP3    H225757   0.989   4.415   6.375
 1400TIP3   OH225758   0.335   3.107   2.402
 1400TIP3    H125759   0.293   3.074   2.482
 1400TIP3    H225760   0.309   3.200   2.399
 1401TIP3   OH225761   5.117   3.387   7.262
 1401TIP3    H125762   5.156   3.412   7.178
 1401TIP3    H225763   5.171   3.314   7.292
 1402TIP3   OH225764   6.790   3.051   8.784
 1402TIP3    H125765   6.707   3.099   8.796
 1402TIP3    H225766   0.032   3.095   0.043
 1403TIP3   OH225767   4.967   3.640   0.354
 1403TIP3    H125768   4.927   3.698   0.289
 1403TIP3    H225769   5.003   3.568   0.302
 1404TIP3   OH225770   2.470   5.991   1.950
 1404TIP3    H125771   2.496   6.023   2.037
 1404TIP3    H225772   2.376   6.009   1.946
 1405TIP3   OH225773   6.171   0.205   8.462
 1405TIP3    H125774   6.159   0.152   8.541
 1405TIP3    H225775   6.177   0.141   8.391
 1406TIP3   OH225776   0.430   4.236   8.500
 1406TIP3    H125777   0.524   4.254   8.502
 1406TIP3    H225778   0.423   4.144   8.524
 1407TIP3   OH225779   6.138   6.774   8.553
 1407TIP3    H125780   6.094   6.764   8.469
 1407TIP3    H225781   6.074   6.743   8.617
 1408TIP3   OH225782   0.669   0.911   0.407
 1408TIP3    H125783   0.694   0.855   0.480
 1408TIP3    H225784   0.594   0.961   0.438
 1409TIP3   OH225785   6.517   5.067   2.007
 1409TIP3    H125786   6.496   5.160   2.023
 1409TIP3    H225787   6.562   5.039   2.086
 1410TIP3   OH225788   1.717   6.517   7.244
 1410TIP3    H125789   1.722   6.569   7.163
 1410TIP3    H225790   1.744   6.577   7.313
 1411TIP3   OH225791   0.407   2.996   6.357
 1411TIP3    H125792   0.489   3.010   6.404
 1411TIP3    H225793   0.396   3.075   6.304
 1412TIP3   OH225794   2.411   3.110   8.139
 1412TIP3    H125795   2.504   3.087   8.136
 1412TIP3    H225796   2.371   3.052   8.074
 1413TIP3   OH225797   4.424   1.678   1.191
 1413TIP3    H125798   4.376   1.761   1.192
 1413TIP3    H225799   4.505   1.697   1.238
 1414TIP3   OH225800   3.623   3.220   7.943
 1414TIP3    H125801   3.647   3.241   7.852
 1414TIP3    H225802   3.707   3.200   7.985
 1415TIP3   OH225803   4.545   3.690   0.036
 1415TIP3    H125804   4.502   3.633   8.773
 1415TIP3    H225805   4.473   3.727   0.088
 1416TIP3   OH225806   1.394   1.797   6.823
 1416TIP3    H125807   1.337   1.761   6.891
 1416TIP3    H225808   1.450   1.859   6.870
 1417TIP3   OH225809   3.504   5.867   1.984
 1417TIP3    H125810   3.597   5.891   1.981
 1417TIP3    H225811   3.482   5.872   2.077
 1418TIP3   OH225812   1.983   4.319   7.693
 1418TIP3    H125813   2.066   4.277   7.668
 1418TIP3    H225814   1.943   4.344   7.610
 1419TIP3   OH225815   0.524   6.499   8.258
 1419TIP3    H125816   0.509   6.470   8.348
 1419TIP3    H225817   0.501   6.424   8.204
 1420TIP3   OH225818   3.335   6.379   0.638
 1420TIP3    H125819   3.262   6.364   0.699
 1420TIP3    H225820   3.302   6.447   0.579
 1421TIP3   OH225821   4.893   0.909   0.530
 1421TIP3    H125822   4.980   0.941   0.553
 1421TIP3    H225823   4.834   0.980   0.556
 1422TIP3   OH225824   1.165   2.297   7.071
 1422TIP3    H125825   1.248   2.333   7.040
 1422TIP3    H225826   1.156   2.214   7.025
 1423TIP3   OH225827   1.151   4.612   8.665
 1423TIP3    H125828   1.125   4.520   8.657
 1423TIP3    H225829   1.244   4.613   8.642
 1424TIP3   OH225830   5.765   1.467   1.509
 1424TIP3    H125831   5.779   1.500   1.598
 1424TIP3    H225832   5.694   1.404   1.517
 1425TIP3   OH225833   2.530   0.297   1.383
 1425TIP3    H125834   2.519   0.260   1.471
 1425TIP3    H225835   2.613   0.260   1.352
 1426TIP3   OH225836   6.642   0.944   8.690
 1426TIP3    H125837   6.592   1.005   8.744
 1426TIP3    H225838   6.628   0.858   8.732
 1427TIP3   OH225839   1.529   3.988   0.701
 1427TIP3    H125840   1.441   4.010   0.671
 1427TIP3    H225841   1.534   4.023   0.790
 1428TIP3   OH225842   1.748   4.110   7.712
 1428TIP3    H125843   1.707   4.088   7.629
 1428TIP3    H225844   1.799   4.189   7.694
 1429TIP3   OH225845   5.513   4.909   0.360
 1429TIP3    H125846   5.564   4.873   0.287
 1429TIP3    H225847   5.499   4.835   0.419
 1430TIP3   OH225848   4.398   0.394   1.107
 1430TIP3    H125849   4.429   0.423   1.192
 1430TIP3    H225850   4.444   0.449   1.044
 1431TIP3   OH225851   4.807   6.669   8.703
 1431TIP3    H125852   4.799   6.579   8.671
 1431TIP3    H225853   4.751   6.672   8.781
 1432TIP3   OH225854   2.690   1.119   0.786
 1432TIP3    H125855   2.650   1.119   0.699
 1432TIP3    H225856   2.626   1.075   0.842
 1433TIP3   OH225857   4.660   0.654   1.270
 1433TIP3    H125858   4.735   0.707   1.244
 1433TIP3    H225859   4.585   0.699   1.232
 1434TIP3   OH225860   2.284   3.259   7.793
 1434TIP3    H125861   2.281   3.319   7.868
 1434TIP3    H225862   2.357   3.200   7.813
 1435TIP3   OH225863   3.169   6.513   1.855
 1435TIP3    H125864   3.094   6.515   1.795
 1435TIP3    H225865   3.244   6.535   1.799
 1436TIP3   OH225866   5.732   6.422   1.202
 1436TIP3    H125867   5.821   6.418   1.167
 1436TIP3    H225868   5.731   6.498   1.259
 1437TIP3   OH225869   0.457   3.710   7.459
 1437TIP3    H125870   0.547   3.680   7.449
 1437TIP3    H225871   0.465   3.795   7.502
 1438TIP3   OH225872   2.077   1.018   6.408
 1438TIP3    H125873   2.049   0.930   6.435
 1438TIP3    H225874   2.024   1.077   6.462
 1439TIP3   OH225875   2.557   6.501   8.373
 1439TIP3    H125876   2.480   6.475   8.425
 1439TIP3    H225877   2.623   6.524   8.438
 1440TIP3   OH225878   4.307   6.197   7.716
 1440TIP3    H125879   4.270   6.140   7.650
 1440TIP3    H225880   4.380   6.241   7.673
 1441TIP3   OH225881   5.321   4.976   1.236
 1441TIP3    H125882   5.233   4.968   1.273
 1441TIP3    H225883   5.332   5.070   1.220
 1442TIP3   OH225884   5.553   2.077   1.630
 1442TIP3    H125885   5.533   1.989   1.596
 1442TIP3    H225886   5.469   2.110   1.662
 1443TIP3   OH225887   2.377   5.404   8.129
 1443TIP3    H125888   2.464   5.431   8.158
 1443TIP3    H225889   2.323   5.413   8.207
 1444TIP3   OH225890   4.300   0.802   1.527
 1444TIP3    H125891   4.291   0.891   1.494
 1444TIP3    H225892   4.238   0.751   1.473
 1445TIP3   OH225893   1.353   5.609   7.504
 1445TIP3    H125894   1.438   5.603   7.548
 1445TIP3    H225895   1.339   5.703   7.493
 1446TIP3   OH225896   0.308   6.675   8.357
 1446TIP3    H125897   0.376   6.619   8.394
 1446TIP3    H225898   0.347   6.763   8.358
 1447TIP3   OH225899   3.550   6.221   8.216
 1447TIP3    H125900   3.456   6.234   8.201
 1447TIP3    H225901   3.588   6.223   8.128
 1448TIP3   OH225902   1.491   3.141   7.463
 1448TIP3    H125903   1.524   3.176   7.546
 1448TIP3    H225904   1.446   3.060   7.486
 1449TIP3   OH225905   5.521   5.998   6.921
 1449TIP3    H125906   5.475   6.071   6.963
 1449TIP3    H225907   5.461   5.924   6.931
 1450TIP3   OH225908   0.883   0.426   0.461
 1450TIP3    H125909   0.921   0.349   0.504
 1450TIP3    H225910   0.886   0.494   0.527
 1451TIP3   OH225911   3.093   5.944   8.660
 1451TIP3    H125912   3.128   6.014   8.606
 1451TIP3    H225913   3.017   5.983   8.704
 1452TIP3   OH225914   3.673   5.229   7.828
 1452TIP3    H125915   3.682   5.226   7.923
 1452TIP3    H225916   3.715   5.149   7.797
 1453TIP3   OH225917   2.470   2.592   8.109
 1453TIP3    H125918   2.556   2.557   8.085
 1453TIP3    H225919   2.485   2.686   8.122
 1454TIP3   OH225920   1.907   1.656   6.961
 1454TIP3    H125921   1.979   1.677   6.901
 1454TIP3    H225922   1.841   1.614   6.905
 1455TIP3   OH225923   4.797   1.179   1.593
 1455TIP3    H125924   4.864   1.234   1.635
 1455TIP3    H225925   4.763   1.125   1.664
 1456TIP3   OH225926   4.763   5.707   1.465
 1456TIP3    H125927   4.709   5.780   1.495
 1456TIP3    H225928   4.713   5.629   1.489
 1457TIP3   OH225929   2.388   5.383   6.817
 1457TIP3    H125930   2.431   5.335   6.888
 1457TIP3    H225931   2.414   5.474   6.830
 1458TIP3   OH225932   1.922   5.652   8.607
 1458TIP3    H125933   1.866   5.692   8.674
 1458TIP3    H225934   1.984   5.721   8.583
 1459TIP3   OH225935   1.064   6.371   0.320
 1459TIP3    H125936   0.972   6.348   0.332
 1459TIP3    H225937   1.063   6.446   0.261
 1460TIP3   OH225938   1.189   1.659   8.457
 1460TIP3    H125939   1.228   1.663   8.370
 1460TIP3    H225940   1.244   1.716   8.511
 1461TIP3   OH225941   5.988   2.407   7.144
 1461TIP3    H125942   6.063   2.394   7.086
 1461TIP3    H225943   5.938   2.326   7.137
 1462TIP3   OH225944   0.647   1.975   1.123
 1462TIP3    H125945   0.583   2.041   1.150
 1462TIP3    H225946   0.614   1.893   1.159
 1463TIP3   OH225947   1.400   4.988   7.617
 1463TIP3    H125948   1.396   5.053   7.547
 1463TIP3    H225949   1.466   5.023   7.678
 1464TIP3   OH225950   0.437   0.513   1.445
 1464TIP3    H125951   0.492   0.435   1.451
 1464TIP3    H225952   0.361   0.486   1.395
 1465TIP3   OH225953   1.256   3.523   7.844
 1465TIP3    H125954   1.351   3.530   7.843
 1465TIP3    H225955   1.238   3.437   7.806
 1466TIP3   OH225956   5.790   0.359   8.358
 1466TIP3    H125957   5.782   0.305   8.437
 1466TIP3    H225958   5.743   0.310   8.290
 1467TIP3   OH225959   6.800   4.807   0.169
 1467TIP3    H125960   6.741   4.750   0.121
 1467TIP3    H225961   0.061   4.806   0.118
 1468TIP3   OH225962   2.287   3.062   1.456
 1468TIP3    H125963   2.276   3.153   1.484
 1468TIP3    H225964   2.342   3.067   1.378
 1469TIP3   OH225965   3.413   5.264   8.631
 1469TIP3    H125966   3.411   5.319   8.710
 1469TIP3    H225967   3.488   5.207   8.644
 1470TIP3   OH225968   4.355   5.270   7.081
 1470TIP3    H125969   4.261   5.275   7.097
 1470TIP3    H225970   4.386   5.360   7.092
 1471TIP3   OH225971   3.116   3.013   7.373
 1471TIP3    H125972   3.066   2.996   7.294
 1471TIP3    H225973   3.152   3.102   7.361
 1472TIP3   OH225974   2.000   6.391   6.941
 1472TIP3    H125975   1.939   6.319   6.930
 1472TIP3    H225976   2.087   6.350   6.942
 1473TIP3   OH225977   0.161   3.552   0.447
 1473TIP3    H125978   0.172   3.522   0.538
 1473TIP3    H225979   0.233   3.512   0.399
 1474TIP3   OH225980   1.104   4.456   7.104
 1474TIP3    H125981   1.018   4.413   7.097
 1474TIP3    H225982   1.085   4.549   7.091
 1475TIP3   OH225983   6.665   6.259   0.293
 1475TIP3    H125984   6.674   6.288   0.384
 1475TIP3    H225985   6.719   6.321   0.243
 1476TIP3   OH225986   2.567   2.578   6.399
 1476TIP3    H125987   2.557   2.645   6.467
 1476TIP3    H225988   2.510   2.507   6.426
 1477TIP3   OH225989   4.345   5.973   7.887
 1477TIP3    H125990   4.431   6.004   7.916
 1477TIP3    H225991   4.305   6.048   7.845
 1478TIP3   OH225992   1.589   4.541   7.101
 1478TIP3    H125993   1.533   4.482   7.050
 1478TIP3    H225994   1.641   4.588   7.036
 1479TIP3   OH225995   6.777   1.246   7.571
 1479TIP3    H125996   6.776   1.152   7.587
 1479TIP3    H225997   6.700   1.279   7.617
 1480TIP3   OH225998   2.256   0.320   1.374
 1480TIP3    H125999   2.351   0.305   1.375
 1480TIP3    H226000   2.239   0.371   1.453
 1481TIP3   OH226001   4.132   1.435   0.355
 1481TIP3    H126002   4.040   1.450   0.375
 1481TIP3    H226003   4.130   1.389   0.271
 1482TIP3   OH226004   0.699   4.298   8.365
 1482TIP3    H126005   0.757   4.227   8.334
 1482TIP3    H226006   0.758   4.360   8.407
 1483TIP3   OH226007   5.236   3.815   6.329
 1483TIP3    H126008   5.266   3.805   6.419
 1483TIP3    H226009   5.145   3.846   6.337
 1484TIP3   OH226010   3.075   0.381   6.984
 1484TIP3    H126011   3.128   0.438   6.929
 1484TIP3    H226012   3.005   0.351   6.927
 1485TIP3   OH226013   0.416   4.775   1.297
 1485TIP3    H126014   0.388   4.683   1.298
 1485TIP3    H226015   0.334   4.824   1.293
 1486TIP3   OH226016   1.927   2.099   1.331
 1486TIP3    H126017   2.006   2.093   1.385
 1486TIP3    H226018   1.862   2.141   1.388
 1487TIP3   OH226019   3.371   4.958   6.478
 1487TIP3    H126020   3.391   4.891   6.544
 1487TIP3    H226021   3.323   4.911   6.410
 1488TIP3   OH226022   0.356   5.344   1.779
 1488TIP3    H126023   0.426   5.308   1.725
 1488TIP3    H226024   0.395   5.355   1.865
 1489TIP3   OH226025   4.582   4.070   0.925
 1489TIP3    H126026   4.589   4.148   0.980
 1489TIP3    H226027   4.494   4.074   0.889
 1490TIP3   OH226028   3.441   5.842   1.227
 1490TIP3    H126029   3.345   5.834   1.227
 1490TIP3    H226030   3.472   5.752   1.241
 1491TIP3   OH226031   4.149   4.100   7.873
 1491TIP3    H126032   4.228   4.103   7.819
 1491TIP3    H226033   4.151   4.014   7.915
 1492TIP3   OH226034   0.285   5.754   0.891
 1492TIP3    H126035   0.269   5.664   0.864
 1492TIP3    H226036   0.209   5.802   0.857
 1493TIP3   OH226037   6.679   5.263   7.853
 1493TIP3    H126038   6.692   5.221   7.768
 1493TIP3    H226039   6.704   5.354   7.839
 1494TIP3   OH226040   2.049   1.659   1.228
 1494TIP3    H126041   2.063   1.717   1.153
 1494TIP3    H226042   2.036   1.572   1.190
 1495TIP3   OH226043   2.704   5.678   1.909
 1495TIP3    H126044   2.733   5.724   1.988
 1495TIP3    H226045   2.658   5.601   1.943
 1496TIP3   OH226046   0.364   1.189   0.498
 1496TIP3    H126047   0.387   1.204   0.589
 1496TIP3    H226048   0.328   1.273   0.468
 1497TIP3   OH226049   6.080   2.213   8.523
 1497TIP3    H126050   6.095   2.220   8.617
 1497TIP3    H226051   6.102   2.122   8.502
 1498TIP3   OH226052   4.113   5.671   0.639
 1498TIP3    H126053   4.122   5.619   0.559
 1498TIP3    H226054   4.053   5.620   0.693
 1499TIP3   OH226055   2.673   0.590   1.204
 1499TIP3    H126056   2.700   0.546   1.285
 1499TIP3    H226057   2.580   0.570   1.196
 1500TIP3   OH226058   3.054   2.088   8.100
 1500TIP3    H126059   3.124   2.135   8.145
 1500TIP3    H226060   3.007   2.155   8.051
 1501TIP3   OH226061   4.244   4.432   0.017
 1501TIP3    H126062   4.294   4.397   0.091
 1501TIP3    H226063   4.297   4.505   8.785
 1502TIP3   OH226064   3.199   5.914   7.871
 1502TIP3    H126065   3.176   5.975   7.801
 1502TIP3    H226066   3.290   5.933   7.890
 1503TIP3   OH226067   0.182   0.293   8.495
 1503TIP3    H126068   0.109   0.295   8.434
 1503TIP3    H226069   0.201   0.385   8.513
 1504TIP3   OH226070   4.392   0.056   7.058
 1504TIP3    H126071   4.379   0.041   6.964
 1504TIP3    H226072   4.307   0.037   7.098
 1505TIP3   OH226073   0.529   3.389   1.623
 1505TIP3    H126074   0.506   3.462   1.681
 1505TIP3    H226075   0.616   3.362   1.652
 1506TIP3   OH226076   2.591   0.979   0.383
 1506TIP3    H126077   2.621   0.934   0.304
 1506TIP3    H226078   2.670   1.019   0.419
 1507TIP3   OH226079   2.359   2.965   7.550
 1507TIP3    H126080   2.364   2.904   7.477
 1507TIP3    H226081   2.279   3.015   7.534
 1508TIP3   OH226082   2.015   1.210   1.806
 1508TIP3    H126083   1.956   1.269   1.853
 1508TIP3    H226084   2.099   1.221   1.850
 1509TIP3   OH226085   1.851   6.316   7.412
 1509TIP3    H126086   1.834   6.402   7.374
 1509TIP3    H226087   1.802   6.255   7.357
 1510TIP3   OH226088   6.420   2.519   0.310
 1510TIP3    H126089   6.507   2.546   0.280
 1510TIP3    H226090   6.392   2.590   0.368
 1511TIP3   OH226091   4.822   5.890   8.234
 1511TIP3    H126092   4.745   5.872   8.288
 1511TIP3    H226093   4.812   5.981   8.206
 1512TIP3   OH226094   0.756   3.350   6.466
 1512TIP3    H126095   0.801   3.432   6.444
 1512TIP3    H226096   0.817   3.281   6.440
 1513TIP3   OH226097   6.114   2.087   1.812
 1513TIP3    H126098   6.147   2.170   1.847
 1513TIP3    H226099   6.094   2.107   1.720
 1514TIP3   OH226100   1.495   4.851   6.889
 1514TIP3    H126101   1.472   4.816   6.802
 1514TIP3    H226102   1.570   4.798   6.916
 1515TIP3   OH226103   1.244   4.587   7.556
 1515TIP3    H126104   1.233   4.535   7.636
 1515TIP3    H226105   1.167   4.566   7.503
 1516TIP3   OH226106   4.317   0.744   7.893
 1516TIP3    H126107   4.356   0.657   7.897
 1516TIP3    H226108   4.291   0.755   7.801
 1517TIP3   OH226109   6.064   0.291   0.182
 1517TIP3    H126110   6.026   0.353   0.120
 1517TIP3    H226111   6.059   0.336   0.267
 1518TIP3   OH226112   4.582   5.490   7.849
 1518TIP3    H126113   4.615   5.578   7.829
 1518TIP3    H226114   4.553   5.495   7.940
 1519TIP3   OH226115   0.698   4.748   8.409
 1519TIP3    H126116   0.793   4.738   8.419
 1519TIP3    H226117   0.687   4.835   8.371
 1520TIP3   OH226118   6.386   1.044   7.779
 1520TIP3    H126119   6.313   0.999   7.735
 1520TIP3    H226120   6.386   1.007   7.867
 1521TIP3   OH226121   0.799   1.438   0.046
 1521TIP3    H126122   0.760   1.525   0.057
 1521TIP3    H226123   0.875   1.438   0.104
 1522TIP3   OH226124   3.652   2.938   7.091
 1522TIP3    H126125   3.556   2.937   7.097
 1522TIP3    H226126   3.672   2.869   7.028
 1523TIP3   OH226127   0.315   5.169   7.677
 1523TIP3    H126128   0.321   5.254   7.720
 1523TIP3    H226129   0.223   5.161   7.653
 1524TIP3   OH226130   3.893   1.020   1.829
 1524TIP3    H126131   3.879   0.976   1.745
 1524TIP3    H226132   3.917   1.110   1.805
 1525TIP3   OH226133   2.044   3.040   0.382
 1525TIP3    H126134   2.111   3.101   0.413
 1525TIP3    H226135   2.063   2.957   0.425
 1526TIP3   OH226136   0.168   5.382   0.597
 1526TIP3    H126137   0.218   5.457   0.564
 1526TIP3    H226138   0.081   5.392   0.558
 1527TIP3   OH226139   3.670   1.732   1.955
 1527TIP3    H126140   3.747   1.698   1.909
 1527TIP3    H226141   3.706   1.781   2.029
 1528TIP3   OH226142   6.080   6.562   0.633
 1528TIP3    H126143   6.036   6.506   0.697
 1528TIP3    H226144   6.010   6.619   0.600
 1529TIP3   OH226145   1.692   0.234   7.566
 1529TIP3    H126146   1.714   0.324   7.544
 1529TIP3    H226147   1.600   0.226   7.543
 1530TIP3   OH226148   6.495   3.734   2.084
 1530TIP3    H126149   6.554   3.809   2.077
 1530TIP3    H226150   6.512   3.683   2.005
 1531TIP3   OH226151   5.878   5.931   0.652
 1531TIP3    H126152   5.895   6.019   0.686
 1531TIP3    H226153   5.820   5.891   0.717
 1532TIP3   OH226154   2.281   0.432   8.070
 1532TIP3    H126155   2.278   0.493   7.997
 1532TIP3    H226156   2.346   0.470   8.130
 1533TIP3   OH226157   3.280   2.073   1.134
 1533TIP3    H126158   3.305   2.165   1.130
 1533TIP3    H226159   3.267   2.056   1.227
 1534TIP3   OH226160   1.065   2.972   7.558
 1534TIP3    H126161   1.091   2.892   7.512
 1534TIP3    H226162   1.024   2.942   7.639
 1535TIP3   OH226163   2.751   3.399   0.546
 1535TIP3    H126164   2.660   3.415   0.572
 1535TIP3    H226165   2.761   3.304   0.549
 1536TIP3   OH226166   6.011   2.359   6.598
 1536TIP3    H126167   6.056   2.317   6.525
 1536TIP3    H226168   5.941   2.410   6.556
 1537TIP3   OH226169   0.090   6.255   2.010
 1537TIP3    H126170   0.166   6.199   1.996
 1537TIP3    H226171   0.126   6.344   2.012
 1538TIP3   OH226172   4.236   1.236   0.981
 1538TIP3    H126173   4.285   1.241   1.062
 1538TIP3    H226174   4.286   1.291   0.919
 1539TIP3   OH226175   0.204   4.768   8.462
 1539TIP3    H126176   0.156   4.767   8.379
 1539TIP3    H226177   0.136   4.771   8.529
 1540TIP3   OH226178   0.062   6.249   8.671
 1540TIP3    H126179   6.803   6.238   8.724
 1540TIP3    H226180   0.093   6.160   8.656
 1541TIP3   OH226181   3.406   3.045   7.948
 1541TIP3    H126182   3.445   2.996   7.875
 1541TIP3    H226183   3.472   3.110   7.971
 1542TIP3   OH226184   4.663   6.264   7.814
 1542TIP3    H126185   4.731   6.277   7.748
 1542TIP3    H226186   4.597   6.330   7.795
 1543TIP3   OH226187   3.031   0.758   8.127
 1543TIP3    H126188   2.942   0.758   8.092
 1543TIP3    H226189   3.077   0.691   8.075
 1544TIP3   OH226190   0.833   2.541   6.991
 1544TIP3    H126191   0.746   2.501   6.991
 1544TIP3    H226192   0.850   2.562   6.899
 1545TIP3   OH226193   4.580   0.278   6.942
 1545TIP3    H126194   4.629   0.203   6.908
 1545TIP3    H226195   4.491   0.264   6.910
 1546TIP3   OH226196   2.345   6.535   0.662
 1546TIP3    H126197   2.359   6.456   0.715
 1546TIP3    H226198   2.338   6.503   0.572
 1547TIP3   OH226199   3.045   2.915   7.629
 1547TIP3    H126200   3.011   2.826   7.624
 1547TIP3    H226201   3.038   2.949   7.540
 1548TIP3   OH226202   2.406   3.387   0.104
 1548TIP3    H126203   2.389   3.356   0.015
 1548TIP3    H226204   2.432   3.479   0.092
 1549TIP3   OH226205   1.098   5.162   6.535
 1549TIP3    H126206   1.040   5.156   6.459
 1549TIP3    H226207   1.160   5.091   6.522
 1550TIP3   OH226208   0.186   6.469   1.624
 1550TIP3    H126209   0.252   6.537   1.611
 1550TIP3    H226210   0.105   6.516   1.643
 1551TIP3   OH226211   3.799   2.718   0.257
 1551TIP3    H126212   3.775   2.791   0.199
 1551TIP3    H226213   3.721   2.663   0.258
 1552TIP3   OH226214   1.869   2.484   1.496
 1552TIP3    H126215   1.940   2.471   1.559
 1552TIP3    H226216   1.898   2.557   1.442
 1553TIP3   OH226217   3.412   2.582   8.736
 1553TIP3    H126218   3.506   2.572   8.724
 1553TIP3    H226219   3.386   2.645   8.669
 1554TIP3   OH226220   5.602   5.733   6.609
 1554TIP3    H126221   5.657   5.696   6.540
 1554TIP3    H226222   5.514   5.701   6.590
 1555TIP3   OH226223   0.007   2.145   8.318
 1555TIP3    H126224   0.051   2.069   8.356
 1555TIP3    H226225   0.053   2.220   8.355
 1556TIP3   OH226226   0.416   3.907   6.938
 1556TIP3    H126227   0.321   3.904   6.930
 1556TIP3    H226228   0.443   3.981   6.882
 1557TIP3   OH226229   2.959   2.738   8.174
 1557TIP3    H126230   3.015   2.681   8.121
 1557TIP3    H226231   3.013   2.816   8.191
 1558TIP3   OH226232   6.444   6.348   7.176
 1558TIP3    H126233   6.445   6.298   7.094
 1558TIP3    H226234   6.520   6.406   7.170
 1559TIP3   OH226235   3.334   2.440   1.781
 1559TIP3    H126236   3.377   2.377   1.723
 1559TIP3    H226237   3.241   2.420   1.772
 1560TIP3   OH226238   1.055   5.182   2.313
 1560TIP3    H126239   0.973   5.143   2.284
 1560TIP3    H226240   1.035   5.274   2.326
 1561TIP3   OH226241   1.087   4.427   2.103
 1561TIP3    H126242   1.089   4.471   2.188
 1561TIP3    H226243   1.175   4.437   2.068
 1562TIP3   OH226244   5.862   3.478   1.215
 1562TIP3    H126245   5.817   3.496   1.297
 1562TIP3    H226246   5.792   3.448   1.156
 1563TIP3   OH226247   0.082   3.321   0.965
 1563TIP3    H126248   0.145   3.305   1.035
 1563TIP3    H226249   6.816   3.319   1.008
 1564TIP3   OH226250   3.152   5.197   8.728
 1564TIP3    H126251   3.194   5.184   0.013
 1564TIP3    H226252   3.069   5.239   8.749
 1565TIP3   OH226253   2.700   3.729   8.451
 1565TIP3    H126254   2.688   3.659   8.515
 1565TIP3    H226255   2.647   3.802   8.484
 1566TIP3   OH226256   1.684   0.311   0.301
 1566TIP3    H126257   1.600   0.307   0.256
 1566TIP3    H226258   1.728   0.230   0.279
 1567TIP3   OH226259   3.461   4.505   7.405
 1567TIP3    H126260   3.503   4.451   7.339
 1567TIP3    H226261   3.515   4.584   7.410
 1568TIP3   OH226262   0.406   1.052   8.297
 1568TIP3    H126263   0.397   0.962   8.267
 1568TIP3    H226264   0.450   1.097   8.225
 1569TIP3   OH226265   0.680   3.882   8.771
 1569TIP3    H126266   0.674   3.790   8.743
 1569TIP3    H226267   0.591   3.906   8.793
 1570TIP3   OH226268   0.525   1.865   0.353
 1570TIP3    H126269   0.536   1.775   0.382
 1570TIP3    H226270   0.605   1.886   0.305
 1571TIP3   OH226271   4.659   5.917   1.571
 1571TIP3    H126272   4.615   5.914   1.656
 1571TIP3    H226273   4.629   5.998   1.531
 1572TIP3   OH226274   6.268   2.201   0.654
 1572TIP3    H126275   6.332   2.224   0.586
 1572TIP3    H226276   6.207   2.141   0.610
 1573TIP3   OH226277   5.514   6.682   0.502
 1573TIP3    H126278   5.560   6.658   0.422
 1573TIP3    H226279   5.428   6.641   0.493
 1574TIP3   OH226280   0.451   0.131   1.609
 1574TIP3    H126281   0.445   0.046   1.652
 1574TIP3    H226282   0.480   0.191   1.678
 1575TIP3   OH226283   5.268   1.362   1.294
 1575TIP3    H126284   5.188   1.370   1.243
 1575TIP3    H226285   5.330   1.320   1.236
 1576TIP3   OH226286   4.207   4.915   1.333
 1576TIP3    H126287   4.276   4.877   1.279
 1576TIP3    H226288   4.229   5.008   1.338
 1577TIP3   OH226289   1.434   0.082   1.377
 1577TIP3    H126290   1.465   6.813   1.357
 1577TIP3    H226291   1.481   0.107   1.456
 1578TIP3   OH226292   4.701   4.278   7.677
 1578TIP3    H126293   4.726   4.260   7.586
 1578TIP3    H226294   4.675   4.370   7.676
 1579TIP3   OH226295   3.333   5.639   6.428
 1579TIP3    H126296   3.259   5.685   6.468
 1579TIP3    H226297   3.294   5.563   6.385
 1580TIP3   OH226298   0.270   1.382   8.753
 1580TIP3    H126299   0.282   1.289   8.736
 1580TIP3    H226300   0.208   1.385   0.026
 1581TIP3   OH226301   5.796   6.168   1.556
 1581TIP3    H126302   5.793   6.246   1.611
 1581TIP3    H226303   5.762   6.098   1.611
 1582TIP3   OH226304   6.398   1.570   6.316
 1582TIP3    H126305   6.470   1.541   6.374
 1582TIP3    H226306   6.347   1.490   6.300
 1583TIP3   OH226307   2.014   6.803   6.980
 1583TIP3    H126308   2.010   0.045   7.053
 1583TIP3    H226309   2.070   0.025   6.915
 1584TIP3   OH226310   3.589   0.032   2.327
 1584TIP3    H126311   3.561   0.114   2.285
 1584TIP3    H226312   3.527   0.020   2.399
 1585TIP3   OH226313   4.338   6.108   0.258
 1585TIP3    H126314   4.306   6.126   0.169
 1585TIP3    H226315   4.433   6.098   0.247
 1586TIP3   OH226316   4.067   6.805   7.411
 1586TIP3    H126317   4.013   6.743   7.460
 1586TIP3    H226318   4.024   6.812   7.326
 1587TIP3   OH226319   3.156   3.527   1.286
 1587TIP3    H126320   3.185   3.615   1.312
 1587TIP3    H226321   3.199   3.468   1.348
 1588TIP3   OH226322   5.057   1.548   1.470
 1588TIP3    H126323   5.077   1.528   1.378
 1588TIP3    H226324   5.072   1.465   1.516
 1589TIP3   OH226325   0.820   2.669   0.928
 1589TIP3    H126326   0.829   2.581   0.890
 1589TIP3    H226327   0.832   2.728   0.854
 1590TIP3   OH226328   0.075   1.309   1.341
 1590TIP3    H126329   0.123   1.278   1.264
 1590TIP3    H226330   0.129   1.281   1.416
 1591TIP3   OH226331   3.842   6.195   1.963
 1591TIP3    H126332   3.771   6.135   1.981
 1591TIP3    H226333   3.911   6.170   2.024
 1592TIP3   OH226334   2.585   4.865   8.158
 1592TIP3    H126335   2.547   4.948   8.131
 1592TIP3    H226336   2.512   4.803   8.158
 1593TIP3   OH226337   5.857   4.361   0.957
 1593TIP3    H126338   5.888   4.339   0.869
 1593TIP3    H226339   5.861   4.456   0.961
 1594TIP3   OH226340   4.807   2.728   8.090
 1594TIP3    H126341   4.790   2.766   8.176
 1594TIP3    H226342   4.739   2.766   8.034
 1595TIP3   OH226343   5.936   3.053   7.548
 1595TIP3    H126344   5.936   3.071   7.454
 1595TIP3    H226345   6.009   2.992   7.561
 1596TIP3   OH226346   5.045   6.520   8.081
 1596TIP3    H126347   5.057   6.429   8.109
 1596TIP3    H226348   5.060   6.518   7.987
 1597TIP3   OH226349   1.191   4.890   1.535
 1597TIP3    H126350   1.097   4.881   1.550
 1597TIP3    H226351   1.223   4.933   1.614
 1598TIP3   OH226352   5.551   2.715   2.827
 1598TIP3    H126353   5.509   2.656   2.765
 1598TIP3    H226354   5.603   2.775   2.773
 1599TIP3   OH226355   2.300   3.377   0.363
 1599TIP3    H126356   2.351   3.376   0.282
 1599TIP3    H226357   2.221   3.427   0.339
 1600TIP3   OH226358   6.017   6.483   1.513
 1600TIP3    H126359   5.968   6.452   1.436
 1600TIP3    H226360   5.982   6.571   1.529
 1601TIP3   OH226361   5.992   1.550   1.320
 1601TIP3    H126362   6.045   1.512   1.250
 1601TIP3    H226363   6.035   1.521   1.401
 1602TIP3   OH226364   0.624   2.123   7.855
 1602TIP3    H126365   0.666   2.134   7.770
 1602TIP3    H226366   0.669   2.185   7.913
 1603TIP3   OH226367   2.736   1.444   7.971
 1603TIP3    H126368   2.721   1.443   7.876
 1603TIP3    H226369   2.780   1.527   7.987
 1604TIP3   OH226370   3.069   2.319   1.428
 1604TIP3    H126371   3.055   2.292   1.337
 1604TIP3    H226372   3.164   2.321   1.439
 1605TIP3   OH226373   0.503   1.632   7.788
 1605TIP3    H126374   0.533   1.716   7.823
 1605TIP3    H226375   0.409   1.631   7.805
 1606TIP3   OH226376   2.192   5.341   2.396
 1606TIP3    H126377   2.188   5.351   2.491
 1606TIP3    H226378   2.284   5.321   2.377
 1607TIP3   OH226379   0.750   3.555   7.745
 1607TIP3    H126380   0.743   3.638   7.698
 1607TIP3    H226381   0.785   3.494   7.680
 1608TIP3   OH226382   0.273   1.818   1.946
 1608TIP3    H126383   0.247   1.782   1.862
 1608TIP3    H226384   0.350   1.768   1.971
 1609TIP3   OH226385   4.547   3.095   6.809
 1609TIP3    H126386   4.561   3.169   6.750
 1609TIP3    H226387   4.541   3.135   6.896
 1610TIP3   OH226388   0.334   6.261   0.781
 1610TIP3    H126389   0.362   6.297   0.866
 1610TIP3    H226390   0.401   6.292   0.720
 1611TIP3   OH226391   6.090   6.159   7.365
 1611TIP3    H126392   6.121   6.160   7.274
 1611TIP3    H226393   6.141   6.090   7.407
 1612TIP3   OH226394   3.951   3.881   6.377
 1612TIP3    H126395   4.040   3.850   6.392
 1612TIP3    H226396   3.960   3.976   6.370
 1613TIP3   OH226397   6.257   4.293   7.958
 1613TIP3    H126398   6.193   4.252   8.016
 1613TIP3    H226399   6.341   4.259   7.989
 1614TIP3   OH226400   0.596   3.529   2.296
 1614TIP3    H126401   0.608   3.450   2.243
 1614TIP3    H226402   0.525   3.576   2.253
 1615TIP3   OH226403   4.320   5.761   7.434
 1615TIP3    H126404   4.360   5.732   7.516
 1615TIP3    H226405   4.334   5.856   7.434
 1616TIP3   OH226406   6.352   4.294   7.493
 1616TIP3    H126407   6.270   4.336   7.464
 1616TIP3    H226408   6.329   4.254   7.577
 1617TIP3   OH226409   2.642   4.690   0.109
 1617TIP3    H126410   2.718   4.660   0.058
 1617TIP3    H226411   2.667   4.777   0.140
 1618TIP3   OH226412   1.600   5.572   6.873
 1618TIP3    H126413   1.571   5.646   6.820
 1618TIP3    H226414   1.519   5.526   6.895
 1619TIP3   OH226415   6.487   3.042   7.651
 1619TIP3    H126416   6.507   2.953   7.621
 1619TIP3    H226417   6.537   3.099   7.593
 1620TIP3   OH226418   4.412   5.195   2.319
 1620TIP3    H126419   4.464   5.140   2.378
 1620TIP3    H226420   4.450   5.282   2.327
 1621TIP3   OH226421   0.124   4.259   0.391
 1621TIP3    H126422   0.183   4.314   0.443
 1621TIP3    H226423   0.097   4.189   0.450
 1622TIP3   OH226424   4.582   4.121   6.238
 1622TIP3    H126425   4.560   4.193   6.298
 1622TIP3    H226426   4.514   4.055   6.255
 1623TIP3   OH226427   3.328   2.385   0.362
 1623TIP3    H126428   3.413   2.420   0.334
 1623TIP3    H226429   3.270   2.403   0.288
 1624TIP3   OH226430   4.510   5.932   8.792
 1624TIP3    H126431   4.604   5.935   8.772
 1624TIP3    H226432   4.479   5.852   8.750
 1625TIP3   OH226433   4.678   0.084   7.673
 1625TIP3    H126434   4.635   0.099   7.589
 1625TIP3    H226435   4.607   0.054   7.731
 1626TIP3   OH226436   1.167   5.272   1.171
 1626TIP3    H126437   1.252   5.313   1.155
 1626TIP3    H226438   1.103   5.333   1.135
 1627TIP3   OH226439   2.560   2.746   7.199
 1627TIP3    H126440   2.645   2.790   7.207
 1627TIP3    H226441   2.582   2.654   7.184
 1628TIP3   OH226442   4.659   1.020   1.877
 1628TIP3    H126443   4.673   1.072   1.957
 1628TIP3    H226444   4.745   0.985   1.856
 1629TIP3   OH226445   1.995   6.173   8.423
 1629TIP3    H126446   2.022   6.227   8.349
 1629TIP3    H226447   2.005   6.230   8.499
 1630TIP3   OH226448   4.848   1.367   6.613
 1630TIP3    H126449   4.825   1.344   6.523
 1630TIP3    H226450   4.768   1.404   6.650
 1631TIP3   OH226451   1.713   5.160   0.184
 1631TIP3    H126452   1.737   5.128   0.097
 1631TIP3    H226453   1.637   5.216   0.169
 1632TIP3   OH226454   1.995   1.034   7.578
 1632TIP3    H126455   2.072   1.004   7.626
 1632TIP3    H226456   2.030   1.070   7.497
 1633TIP3   OH226457   4.020   5.167   0.307
 1633TIP3    H126458   3.983   5.226   0.373
 1633TIP3    H226459   4.074   5.223   0.252
 1634TIP3   OH226460   4.274   4.392   8.020
 1634TIP3    H126461   4.273   4.409   7.926
 1634TIP3    H226462   4.185   4.363   8.041
 1635TIP3   OH226463   1.191   0.490   6.628
 1635TIP3    H126464   1.200   0.553   6.700
 1635TIP3    H226465   1.097   0.479   6.616
 1636TIP3   OH226466   6.092   2.708   0.851
 1636TIP3    H126467   6.090   2.791   0.803
 1636TIP3    H226468   6.180   2.704   0.888
 1637TIP3   OH226469   6.698   1.906   8.188
 1637TIP3    H126470   6.658   1.886   8.272
 1637TIP3    H226471   6.716   2.000   8.191
 1638TIP3   OH226472   3.834   1.764   0.437
 1638TIP3    H126473   3.846   1.678   0.397
 1638TIP3    H226474   3.866   1.753   0.527
 1639TIP3   OH226475   3.750   4.123   7.156
 1639TIP3    H126476   3.699   4.110   7.236
 1639TIP3    H226477   3.739   4.042   7.106
 1640TIP3   OH226478   6.034   5.932   1.830
 1640TIP3    H126479   5.962   5.985   1.864
 1640TIP3    H226480   5.994   5.878   1.762
 1641TIP3   OH226481   6.304   3.622   0.226
 1641TIP3    H126482   6.344   3.575   0.299
 1641TIP3    H226483   6.376   3.672   0.188
 1642TIP3   OH226484   1.468   6.604   0.358
 1642TIP3    H126485   1.500   6.515   0.369
 1642TIP3    H226486   1.544   6.654   0.328
 1643TIP3   OH226487   4.223   3.344   8.006
 1643TIP3    H126488   4.130   3.324   8.018
 1643TIP3    H226489   4.265   3.315   8.087
 1644TIP3   OH226490   3.639   4.927   8.207
 1644TIP3    H126491   3.698   4.862   8.246
 1644TIP3    H226492   3.597   4.970   8.281
 1645TIP3   OH226493   1.599   4.639   1.148
 1645TIP3    H126494   1.523   4.696   1.160
 1645TIP3    H226495   1.674   4.699   1.147
 1646TIP3   OH226496   4.679   3.396   1.859
 1646TIP3    H126497   4.736   3.451   1.913
 1646TIP3    H226498   4.721   3.395   1.773
 1647TIP3   OH226499   3.438   1.199   0.200
 1647TIP3    H126500   3.366   1.231   0.146
 1647TIP3    H226501   3.443   1.106   0.181
 1648TIP3   OH226502   1.578   2.745   7.328
 1648TIP3    H126503   1.508   2.771   7.387
 1648TIP3    H226504   1.539   2.679   7.271
 1649TIP3   OH226505   2.736   0.590   0.193
 1649TIP3    H126506   2.759   0.639   0.272
 1649TIP3    H226507   2.806   0.609   0.131
 1650TIP3   OH226508   0.508   4.171   7.077
 1650TIP3    H126509   0.518   4.137   6.989
 1650TIP3    H226510   0.515   4.266   7.068
 1651TIP3   OH226511   0.367   2.719   0.133
 1651TIP3    H126512   0.307   2.725   0.207
 1651TIP3    H226513   0.321   2.664   0.070
 1652TIP3   OH226514   5.003   3.889   8.314
 1652TIP3    H126515   5.015   3.794   8.319
 1652TIP3    H226516   4.965   3.904   8.227
 1653TIP3   OH226517   4.111   3.194   8.267
 1653TIP3    H126518   4.054   3.271   8.267
 1653TIP3    H226519   4.196   3.228   8.295
 1654TIP3   OH226520   1.037   2.307   1.667
 1654TIP3    H126521   1.099   2.359   1.718
 1654TIP3    H226522   0.952   2.325   1.708
 1655TIP3   OH226523   5.367   4.073   7.294
 1655TIP3    H126524   5.384   4.149   7.349
 1655TIP3    H226525   5.447   4.063   7.241
 1656TIP3   OH226526   4.203   5.602   2.189
 1656TIP3    H126527   4.121   5.572   2.228
 1656TIP3    H226528   4.195   5.697   2.186
 1657TIP3   OH226529   5.447   2.846   1.733
 1657TIP3    H126530   5.500   2.843   1.812
 1657TIP3    H226531   5.503   2.809   1.665
 1658TIP3   OH226532   0.312   2.931   1.842
 1658TIP3    H126533   0.256   3.007   1.860
 1658TIP3    H226534   0.372   2.961   1.773
 1659TIP3   OH226535   5.490   6.213   0.305
 1659TIP3    H126536   5.555   6.220   0.236
 1659TIP3    H226537   5.542   6.205   0.386
 1660TIP3   OH226538   6.636   0.008   0.480
 1660TIP3    H126539   6.676   6.741   0.491
 1660TIP3    H226540   6.667   0.039   0.395
 1661TIP3   OH226541   2.595   1.676   7.232
 1661TIP3    H126542   2.520   1.618   7.248
 1661TIP3    H226543   2.669   1.630   7.272
 1662TIP3   OH226544   2.938   4.964   0.599
 1662TIP3    H126545   2.865   5.025   0.604
 1662TIP3    H226546   2.897   4.879   0.584
 1663TIP3   OH226547   5.273   6.552   7.848
 1663TIP3    H126548   5.275   6.647   7.832
 1663TIP3    H226549   5.365   6.525   7.839
 1664TIP3   OH226550   5.602   4.806   8.072
 1664TIP3    H126551   5.660   4.830   8.145
 1664TIP3    H226552   5.535   4.874   8.072
 1665TIP3   OH226553   6.597   6.698   2.219
 1665TIP3    H126554   6.595   6.705   2.123
 1665TIP3    H226555   6.662   6.763   2.247
 1666TIP3   OH226556   4.834   3.305   0.112
 1666TIP3    H126557   4.816   3.339   0.200
 1666TIP3    H226558   4.753   3.318   0.063
 1667TIP3   OH226559   5.824   1.723   6.511
 1667TIP3    H126560   5.776   1.739   6.592
 1667TIP3    H226561   5.905   1.679   6.539
 1668TIP3   OH226562   4.738   4.172   1.166
 1668TIP3    H126563   4.677   4.107   1.200
 1668TIP3    H226564   4.814   4.121   1.136
 1669TIP3   OH226565   2.820   0.746   0.414
 1669TIP3    H126566   2.833   0.670   0.470
 1669TIP3    H226567   2.763   0.804   0.465
 1670TIP3   OH226568   2.364   0.293   8.584
 1670TIP3    H126569   2.386   0.264   8.495
 1670TIP3    H226570   2.358   0.211   8.634
 1671TIP3   OH226571   2.614   4.024   0.308
 1671TIP3    H126572   2.581   3.941   0.273
 1671TIP3    H226573   2.701   4.002   0.343
 1672TIP3   OH226574   0.400   3.530   8.395
 1672TIP3    H126575   0.427   3.530   8.303
 1672TIP3    H226576   0.305   3.539   8.392
 1673TIP3   OH226577   1.437   2.483   8.488
 1673TIP3    H126578   1.450   2.537   8.567
 1673TIP3    H226579   1.368   2.421   8.513
 1674TIP3   OH226580   6.388   0.796   2.367
 1674TIP3    H126581   6.329   0.862   2.331
 1674TIP3    H226582   6.414   0.832   2.452
 1675TIP3   OH226583   0.127   3.133   1.868
 1675TIP3    H126584   0.111   3.191   1.943
 1675TIP3    H226585   0.149   3.192   1.796
 1676TIP3   OH226586   0.931   1.085   8.416
 1676TIP3    H126587   0.981   1.099   8.335
 1676TIP3    H226588   0.843   1.064   8.386
 1677TIP3   OH226589   0.936   5.431   1.459
 1677TIP3    H126590   0.919   5.397   1.371
 1677TIP3    H226591   0.923   5.526   1.451
 1678TIP3   OH226592   1.102   3.123   6.639
 1678TIP3    H126593   1.017   3.095   6.606
 1678TIP3    H226594   1.156   3.135   6.561
 1679TIP3   OH226595   4.159   1.222   6.849
 1679TIP3    H126596   4.198   1.290   6.794
 1679TIP3    H226597   4.194   1.239   6.936
 1680TIP3   OH226598   3.829   0.563   8.558
 1680TIP3    H126599   3.851   0.627   8.626
 1680TIP3    H226600   3.817   0.615   8.479
 1681TIP3   OH226601   3.684   1.623   0.092
 1681TIP3    H126602   3.769   1.652   0.126
 1681TIP3    H226603   3.676   1.667   0.008
 1682TIP3   OH226604   0.001   2.617   0.645
 1682TIP3    H126605   6.792   2.649   0.731
 1682TIP3    H226606   0.022   2.696   0.596
 1683TIP3   OH226607   2.488   3.116   2.500
 1683TIP3    H126608   2.519   3.150   2.416
 1683TIP3    H226609   2.429   3.044   2.477
 1684TIP3   OH226610   6.486   3.817   0.411
 1684TIP3    H126611   6.484   3.814   0.506
 1684TIP3    H226612   6.579   3.804   0.388
 1685TIP3   OH226613   1.414   4.847   1.388
 1685TIP3    H126614   1.331   4.880   1.424
 1685TIP3    H226615   1.394   4.758   1.360
 1686TIP3   OH226616   3.648   2.956   0.222
 1686TIP3    H126617   3.677   3.022   0.158
 1686TIP3    H226618   3.672   2.992   0.307
 1687TIP3   OH226619   0.113   4.177   8.740
 1687TIP3    H126620   0.054   4.105   8.720
 1687TIP3    H226621   0.156   4.151   0.022
 1688TIP3   OH226622   4.293   0.292   1.414
 1688TIP3    H126623   4.359   0.240   1.459
 1688TIP3    H226624   4.339   0.370   1.384
 1689TIP3   OH226625   1.839   2.831   0.772
 1689TIP3    H126626   1.791   2.832   0.689
 1689TIP3    H226627   1.797   2.899   0.825
 1690TIP3   OH226628   2.654   2.897   8.644
 1690TIP3    H126629   2.716   2.852   8.701
 1690TIP3    H226630   2.602   2.952   8.703
 1691TIP3   OH226631   1.835   3.149   0.016
 1691TIP3    H126632   1.858   3.173   0.105
 1691TIP3    H226633   1.770   3.080   0.026
 1692TIP3   OH226634   1.886   2.509   2.062
 1692TIP3    H126635   1.831   2.577   2.102
 1692TIP3    H226636   1.855   2.428   2.101
 1693TIP3   OH226637   5.855   4.984   0.930
 1693TIP3    H126638   5.951   4.986   0.930
 1693TIP3    H226639   5.833   4.902   0.887
 1694TIP3   OH226640   4.866   3.497   8.202
 1694TIP3    H126641   4.958   3.497   8.229
 1694TIP3    H226642   4.849   3.407   8.175
 1695TIP3   OH226643   4.097   1.085   7.837
 1695TIP3    H126644   4.107   1.054   7.747
 1695TIP3    H226645   4.007   1.117   7.842
 1696TIP3   OH226646   6.693   3.975   8.029
 1696TIP3    H126647   6.681   3.902   8.090
 1696TIP3    H226648   6.786   3.995   8.033
 1697TIP3   OH226649   6.648   4.082   1.002
 1697TIP3    H126650   6.642   4.082   0.907
 1697TIP3    H226651   6.596   4.157   1.030
 1698TIP3   OH226652   3.364   4.416   0.269
 1698TIP3    H126653   3.416   4.440   0.193
 1698TIP3    H226654   3.429   4.406   0.339
 1699TIP3   OH226655   2.794   6.782   8.352
 1699TIP3    H126656   2.740   6.814   8.279
 1699TIP3    H226657   2.730   6.744   8.413
 1700TIP3   OH226658   3.823   0.360   1.558
 1700TIP3    H126659   3.865   0.343   1.642
 1700TIP3    H226660   3.869   0.304   1.496
 1701TIP3   OH226661   3.621   5.831   7.097
 1701TIP3    H126662   3.677   5.869   7.164
 1701TIP3    H226663   3.658   5.861   7.014
 1702TIP3   OH226664   1.499   3.600   1.879
 1702TIP3    H126665   1.471   3.510   1.893
 1702TIP3    H226666   1.551   3.596   1.799
 1703TIP3   OH226667   2.256   3.721   7.204
 1703TIP3    H126668   2.239   3.732   7.110
 1703TIP3    H226669   2.198   3.784   7.246
 1704TIP3   OH226670   6.447   2.397   6.836
 1704TIP3    H126671   6.434   2.312   6.793
 1704TIP3    H226672   6.466   2.457   6.764
 1705TIP3   OH226673   5.593   6.766   1.201
 1705TIP3    H126674   5.544   6.794   1.278
 1705TIP3    H226675   5.539   6.698   1.161
 1706TIP3   OH226676   6.045   6.188   7.981
 1706TIP3    H126677   6.070   6.226   7.897
 1706TIP3    H226678   6.036   6.095   7.964
 1707TIP3   OH226679   3.243   6.726   1.493
 1707TIP3    H126680   3.277   6.649   1.449
 1707TIP3    H226681   3.318   6.762   1.540
 1708TIP3   OH226682   6.269   0.836   7.015
 1708TIP3    H126683   6.228   0.781   6.948
 1708TIP3    H226684   6.291   0.917   6.969
 1709TIP3   OH226685   2.726   6.635   7.918
 1709TIP3    H126686   2.798   6.624   7.856
 1709TIP3    H226687   2.764   6.619   8.004
 1710TIP3   OH226688   3.423   4.977   7.507
 1710TIP3    H126689   3.416   4.966   7.602
 1710TIP3    H226690   3.345   4.932   7.472
 1711TIP3   OH226691   0.550   1.257   8.179
 1711TIP3    H126692   0.489   1.315   8.134
 1711TIP3    H226693   0.624   1.313   8.202
 1712TIP3   OH226694   3.659   3.953   7.788
 1712TIP3    H126695   3.571   3.980   7.762
 1712TIP3    H226696   3.644   3.890   7.859
 1713TIP3   OH226697   2.998   1.782   7.490
 1713TIP3    H126698   3.009   1.770   7.396
 1713TIP3    H226699   3.084   1.809   7.522
 1714TIP3   OH226700   5.381   6.296   0.610
 1714TIP3    H126701   5.470   6.275   0.582
 1714TIP3    H226702   5.370   6.389   0.586
 1715TIP3   OH226703   0.092   5.521   6.865
 1715TIP3    H126704   0.144   5.594   6.899
 1715TIP3    H226705   0.022   5.562   6.815
 1716TIP3   OH226706   2.846   2.552   1.722
 1716TIP3    H126707   2.849   2.634   1.771
 1716TIP3    H226708   2.771   2.505   1.758
 1717TIP3   OH226709   0.006   4.303   6.628
 1717TIP3    H126710   0.087   4.308   6.578
 1717TIP3    H226711   6.810   4.393   6.657
 1718TIP3   OH226712   1.979   1.258   7.096
 1718TIP3    H126713   1.902   1.205   7.075
 1718TIP3    H226714   2.041   1.239   7.025
 1719TIP3   OH226715   0.564   2.828   8.779
 1719TIP3    H126716   0.510   2.767   0.028
 1719TIP3    H226717   0.623   2.866   0.043
 1720TIP3   OH226718   1.775   5.718   0.030
 1720TIP3    H126719   1.809   5.730   0.119
 1720TIP3    H226720   1.682   5.741   0.038
 1721TIP3   OH226721   2.600   0.325   0.572
 1721TIP3    H126722   2.602   0.261   0.642
 1721TIP3    H226723   2.691   0.355   0.563
 1722TIP3   OH226724   6.696   2.966   1.812
 1722TIP3    H126725   6.777   3.007   1.782
 1722TIP3    H226726   6.696   2.978   1.907
 1723TIP3   OH226727   2.985   3.759   7.935
 1723TIP3    H126728   2.910   3.703   7.952
 1723TIP3    H226729   2.949   3.848   7.931
 1724TIP3   OH226730   6.086   3.721   0.747
 1724TIP3    H126731   6.071   3.754   0.835
 1724TIP3    H226732   6.048   3.633   0.748
 1725TIP3   OH226733   1.766   0.215   1.440
 1725TIP3    H126734   1.809   0.156   1.377
 1725TIP3    H226735   1.838   0.264   1.479
 1726TIP3   OH226736   5.310   5.974   0.072
 1726TIP3    H126737   5.398   5.939   0.058
 1726TIP3    H226738   5.307   5.997   0.165
 1727TIP3   OH226739   6.631   3.048   7.902
 1727TIP3    H126740   6.580   2.973   7.931
 1727TIP3    H226741   6.587   3.079   7.823
 1728TIP3   OH226742   6.427   4.805   1.595
 1728TIP3    H126743   6.348   4.830   1.546
 1728TIP3    H226744   6.409   4.831   1.685
 1729TIP3   OH226745   4.610   5.256   6.855
 1729TIP3    H126746   4.691   5.297   6.827
 1729TIP3    H226747   4.541   5.315   6.823
 1730TIP3   OH226748   0.492   2.379   0.997
 1730TIP3    H126749   0.507   2.395   0.904
 1730TIP3    H226750   0.492   2.466   1.037
 1731TIP3   OH226751   0.305   0.062   7.944
 1731TIP3    H126752   0.355   0.122   7.889
 1731TIP3    H226753   0.324   0.089   8.034
 1732TIP3   OH226754   0.179   0.447   7.188
 1732TIP3    H126755   0.226   0.527   7.162
 1732TIP3    H226756   0.125   0.426   7.112
 1733TIP3   OH226757   6.348   2.551   2.046
 1733TIP3    H126758   6.389   2.464   2.048
 1733TIP3    H226759   6.418   2.610   2.075
 1734TIP3   OH226760   3.450   6.408   2.385
 1734TIP3    H126761   3.423   6.319   2.366
 1734TIP3    H226762   3.369   6.454   2.404
 1735TIP3   OH226763   0.320   6.397   7.146
 1735TIP3    H126764   0.311   6.302   7.138
 1735TIP3    H226765   0.252   6.422   7.208
 1736TIP3   OH226766   3.425   5.041   1.461
 1736TIP3    H126767   3.366   4.967   1.441
 1736TIP3    H226768   3.509   5.000   1.482
 1737TIP3   OH226769   5.006   1.276   0.747
 1737TIP3    H126770   5.050   1.196   0.716
 1737TIP3    H226771   5.076   1.328   0.786
 1738TIP3   OH226772   0.090   6.548   2.360
 1738TIP3    H126773   0.180   6.581   2.350
 1738TIP3    H226774   0.035   6.619   2.327
 1739TIP3   OH226775   6.608   2.383   1.760
 1739TIP3    H126776   6.553   2.406   1.685
 1739TIP3    H226777   6.693   2.423   1.740
 1740TIP3   OH226778   3.235   3.250   7.286
 1740TIP3    H126779   3.303   3.317   7.292
 1740TIP3    H226780   3.162   3.293   7.241
 1741TIP3   OH226781   0.562   2.234   8.186
 1741TIP3    H126782   0.467   2.230   8.176
 1741TIP3    H226783   0.590   2.143   8.180
 1742TIP3   OH226784   5.588   6.804   2.652
 1742TIP3    H126785   5.683   6.807   2.638
 1742TIP3    H226786   5.560   0.076   2.642
 1743TIP3   OH226787   4.439   6.819   1.579
 1743TIP3    H126788   4.499   6.800   1.652
 1743TIP3    H226789   4.357   0.025   1.622
 1744TIP3   OH226790   5.437   4.328   8.761
 1744TIP3    H126791   5.468   4.241   8.787
 1744TIP3    H226792   5.432   4.325   8.666
 1745TIP3   OH226793   3.428   1.367   7.713
 1745TIP3    H126794   3.439   1.347   7.806
 1745TIP3    H226795   3.434   1.282   7.669
 1746TIP3   OH226796   6.585   4.735   0.962
 1746TIP3    H126797   6.622   4.655   0.923
 1746TIP3    H226798   6.655   4.800   0.954
 1747TIP3   OH226799   3.898   1.937   8.627
 1747TIP3    H126800   3.854   1.964   8.708
 1747TIP3    H226801   3.991   1.938   8.648
 1748TIP3   OH226802   1.800   3.610   1.361
 1748TIP3    H126803   1.729   3.629   1.299
 1748TIP3    H226804   1.818   3.695   1.403
 1749TIP3   OH226805   6.767   4.267   8.170
 1749TIP3    H126806   6.810   4.288   8.253
 1749TIP3    H226807   6.812   4.189   8.138
 1750TIP3   OH226808   3.599   4.345   8.587
 1750TIP3    H126809   3.602   4.418   8.525
 1750TIP3    H226810   3.607   4.267   8.532
 1751TIP3   OH226811   5.262   1.070   7.820
 1751TIP3    H126812   5.290   1.139   7.760
 1751TIP3    H226813   5.199   1.112   7.878
 1752TIP3   OH226814   0.345   1.386   8.028
 1752TIP3    H126815   0.265   1.345   8.062
 1752TIP3    H226816   0.326   1.480   8.028
 1753TIP3   OH226817   2.224   5.971   0.122
 1753TIP3    H126818   2.145   5.968   0.068
 1753TIP3    H226819   2.216   6.051   0.173
 1754TIP3   OH226820   2.039   6.546   7.160
 1754TIP3    H126821   2.035   6.471   7.102
 1754TIP3    H226822   1.993   6.616   7.113
 1755TIP3   OH226823   1.008   3.816   7.263
 1755TIP3    H126824   1.033   3.907   7.244
 1755TIP3    H226825   1.088   3.777   7.298
 1756TIP3   OH226826   2.623   4.022   8.433
 1756TIP3    H126827   2.575   4.009   8.351
 1756TIP3    H226828   2.555   4.025   8.500
 1757TIP3   OH226829   1.041   0.129   8.712
 1757TIP3    H126830   0.954   0.116   8.750
 1757TIP3    H226831   1.101   0.125   8.787
 1758TIP3   OH226832   3.043   4.287   7.335
 1758TIP3    H126833   2.950   4.268   7.350
 1758TIP3    H226834   3.048   4.316   7.245
 1759TIP3   OH226835   6.710   1.124   0.393
 1759TIP3    H126836   6.804   1.106   0.382
 1759TIP3    H226837   6.666   1.049   0.355
 1760TIP3   OH226838   5.715   3.131   7.894
 1760TIP3    H126839   5.742   3.052   7.849
 1760TIP3    H226840   5.717   3.199   7.827
 1761TIP3   OH226841   5.989   5.908   0.357
 1761TIP3    H126842   6.034   5.992   0.363
 1761TIP3    H226843   5.989   5.875   0.446
 1762TIP3   OH226844   0.686   3.746   1.552
 1762TIP3    H126845   0.738   3.725   1.629
 1762TIP3    H226846   0.687   3.665   1.500
 1763TIP3   OH226847   4.800   2.555   0.905
 1763TIP3    H126848   4.882   2.598   0.880
 1763TIP3    H226849   4.823   2.462   0.914
 1764TIP3   OH226850   6.430   4.065   2.739
 1764TIP3    H126851   6.347   4.099   2.705
 1764TIP3    H226852   6.497   4.115   2.691
 1765TIP3   OH226853   4.112   3.970   7.606
 1765TIP3    H126854   4.144   3.949   7.518
 1765TIP3    H226855   4.023   4.002   7.592
 1766TIP3   OH226856   6.679   5.593   7.429
 1766TIP3    H126857   6.734   5.670   7.444
 1766TIP3    H226858   6.699   5.568   7.339
 1767TIP3   OH226859   1.713   5.440   0.049
 1767TIP3    H126860   1.711   5.526   0.007
 1767TIP3    H226861   1.674   5.454   0.135
 1768TIP3   OH226862   0.572   5.207   6.770
 1768TIP3    H126863   0.565   5.267   6.844
 1768TIP3    H226864   0.665   5.188   6.763
 1769TIP3   OH226865   0.616   4.708   0.736
 1769TIP3    H126866   0.528   4.691   0.702
 1769TIP3    H226867   0.669   4.635   0.703
 1770TIP3   OH226868   6.661   0.923   0.786
 1770TIP3    H126869   6.594   0.959   0.727
 1770TIP3    H226870   6.722   0.879   0.728
 1771TIP3   OH226871   1.439   2.438   1.228
 1771TIP3    H126872   1.489   2.421   1.307
 1771TIP3    H226873   1.464   2.367   1.168
 1772TIP3   OH226874   2.949   0.951   7.645
 1772TIP3    H126875   2.877   0.995   7.690
 1772TIP3    H226876   2.966   0.873   7.697
 1773TIP3   OH226877   5.978   6.790   8.321
 1773TIP3    H126878   5.970   0.021   8.240
 1773TIP3    H226879   5.894   6.801   8.365
 1774TIP3   OH226880   3.209   4.930   6.866
 1774TIP3    H126881   3.160   4.987   6.807
 1774TIP3    H226882   3.206   4.844   6.825
 1775TIP3   OH226883   6.046   0.142   7.714
 1775TIP3    H126884   6.003   0.204   7.773
 1775TIP3    H226885   6.051   0.189   7.630
 1776TIP3   OH226886   4.876   2.294   2.007
 1776TIP3    H126887   4.791   2.253   1.990
 1776TIP3    H226888   4.929   2.223   2.044
 1777TIP3   OH226889   5.385   1.282   0.460
 1777TIP3    H126890   5.357   1.341   0.530
 1777TIP3    H226891   5.398   1.198   0.503
 1778TIP3   OH226892   2.482   6.479   7.928
 1778TIP3    H126893   2.510   6.388   7.926
 1778TIP3    H226894   2.563   6.530   7.930
 1779TIP3   OH226895   0.417   3.397   7.882
 1779TIP3    H126896   0.358   3.346   7.827
 1779TIP3    H226897   0.501   3.351   7.875
 1780TIP3   OH226898   1.566   3.520   7.039
 1780TIP3    H126899   1.593   3.611   7.051
 1780TIP3    H226900   1.526   3.495   7.122
 1781TIP3   OH226901   1.643   1.057   6.566
 1781TIP3    H126902   1.693   1.074   6.647
 1781TIP3    H226903   1.567   1.115   6.572
 1782TIP3   OH226904   5.184   0.957   0.315
 1782TIP3    H126905   5.195   1.037   0.264
 1782TIP3    H226906   5.190   0.886   0.251
 1783TIP3   OH226907   3.899   4.093   0.131
 1783TIP3    H126908   3.926   4.065   0.044
 1783TIP3    H226909   3.942   4.178   0.143
 1784TIP3   OH226910   1.550   1.234   7.924
 1784TIP3    H126911   1.618   1.202   7.983
 1784TIP3    H226912   1.471   1.239   7.978
 1785TIP3   OH226913   0.151   1.040   7.758
 1785TIP3    H126914   0.116   1.129   7.754
 1785TIP3    H226915   0.246   1.051   7.758
 1786TIP3   OH226916   1.845   1.645   0.123
 1786TIP3    H126917   1.757   1.674   0.147
 1786TIP3    H226918   1.843   1.637   0.028
 1787TIP3   OH226919   0.145   0.995   1.280
 1787TIP3    H126920   0.197   1.075   1.273
 1787TIP3    H226921   0.119   0.976   1.189
 1788TIP3   OH226922   2.436   1.161   6.145
 1788TIP3    H126923   2.402   1.124   6.226
 1788TIP3    H226924   2.359   1.174   6.089
 1789TIP3   OH226925   6.597   6.187   2.489
 1789TIP3    H126926   6.660   6.119   2.467
 1789TIP3    H226927   6.534   6.144   2.547
 1790TIP3   OH226928   1.254   6.748   0.407
 1790TIP3    H126929   1.296   6.816   0.459
 1790TIP3    H226930   1.324   6.687   0.386
 1791TIP3   OH226931   1.471   2.282   7.568
 1791TIP3    H126932   1.406   2.343   7.603
 1791TIP3    H226933   1.441   2.264   7.479
 1792TIP3   OH226934   6.247   6.446   6.939
 1792TIP3    H126935   6.311   6.500   6.893
 1792TIP3    H226936   6.210   6.505   7.005
 1793TIP3   OH226937   4.353   5.414   0.418
 1793TIP3    H126938   4.406   5.340   0.449
 1793TIP3    H226939   4.406   5.453   0.349
 1794TIP3   OH226940   6.661   3.395   1.158
 1794TIP3    H126941   6.576   3.437   1.163
 1794TIP3    H226942   6.668   3.343   1.238
 1795TIP3   OH226943   3.197   2.707   1.264
 1795TIP3    H126944   3.242   2.786   1.294
 1795TIP3    H226945   3.117   2.703   1.317
 1796TIP3   OH226946   5.334   3.080   6.416
 1796TIP3    H126947   5.313   3.021   6.488
 1796TIP3    H226948   5.404   3.035   6.367
 1797TIP3   OH226949   4.652   4.646   1.134
 1797TIP3    H126950   4.709   4.723   1.130
 1797TIP3    H226951   4.577   4.675   1.185
 1798TIP3   OH226952   4.857   6.145   8.036
 1798TIP3    H126953   4.786   6.208   8.023
 1798TIP3    H226954   4.892   6.165   8.123
 1799TIP3   OH226955   4.421   5.747   6.049
 1799TIP3    H126956   4.335   5.782   6.025
 1799TIP3    H226957   4.403   5.680   6.115
 1800TIP3   OH226958   3.943   1.730   0.092
 1800TIP3    H126959   4.013   1.668   0.070
 1800TIP3    H226960   3.986   1.798   0.144
 1801TIP3   OH226961   6.372   6.722   8.344
 1801TIP3    H126962   6.291   6.770   8.362
 1801TIP3    H226963   6.356   6.634   8.380
 1802TIP3   OH226964   1.127   4.225   6.766
 1802TIP3    H126965   1.156   4.176   6.843
 1802TIP3    H226966   1.198   4.288   6.750
 1803TIP3   OH226967   3.442   6.594   1.322
 1803TIP3    H126968   3.528   6.593   1.363
 1803TIP3    H226969   3.445   6.667   1.261
 1804TIP3   OH226970   4.492   2.739   2.458
 1804TIP3    H126971   4.557   2.670   2.446
 1804TIP3    H226972   4.537   2.803   2.514
 1805TIP3   OH226973   2.677   6.168   1.261
 1805TIP3    H126974   2.725   6.106   1.208
 1805TIP3    H226975   2.590   6.171   1.221
 1806TIP3   OH226976   4.822   5.549   7.009
 1806TIP3    H126977   4.788   5.489   7.076
 1806TIP3    H226978   4.841   5.630   7.056
 1807TIP3   OH226979   6.284   3.908   1.562
 1807TIP3    H126980   6.190   3.916   1.541
 1807TIP3    H226981   6.328   3.944   1.486
 1808TIP3   OH226982   3.393   6.753   8.281
 1808TIP3    H126983   3.311   6.783   8.320
 1808TIP3    H226984   3.366   6.686   8.218
 1809TIP3   OH226985   2.687   5.333   1.737
 1809TIP3    H126986   2.659   5.418   1.772
 1809TIP3    H226987   2.703   5.350   1.644
 1810TIP3   OH226988   2.193   5.034   2.062
 1810TIP3    H126989   2.233   4.976   2.127
 1810TIP3    H226990   2.099   5.027   2.078
 1811TIP3   OH226991   1.781   3.780   5.878
 1811TIP3    H126992   1.730   3.802   5.800
 1811TIP3    H226993   1.736   3.703   5.915
 1812TIP3   OH226994   3.618   3.248   1.092
 1812TIP3    H126995   3.697   3.200   1.114
 1812TIP3    H226996   3.593   3.292   1.173
 1813TIP3   OH226997   6.558   5.746   1.531
 1813TIP3    H126998   6.466   5.726   1.549
 1813TIP3    H226999   6.582   5.809   1.599
 1814TIP3   OH227000   1.365   5.261   7.753
 1814TIP3    H127001   1.444   5.268   7.699
 1814TIP3    H227002   1.297   5.304   7.702
 1815TIP3   OH227003   2.258   1.276   1.947
 1815TIP3    H127004   2.279   1.304   2.036
 1815TIP3    H227005   2.332   1.306   1.894
 1816TIP3   OH227006   3.183   5.824   2.146
 1816TIP3    H127007   3.245   5.838   2.217
 1816TIP3    H227008   3.124   5.900   2.150
 1817TIP3   OH227009   0.294   2.817   0.446
 1817TIP3    H127010   0.207   2.846   0.472
 1817TIP3    H227011   0.306   2.733   0.490
 1818TIP3   OH227012   6.698   5.918   7.563
 1818TIP3    H127013   6.634   5.906   7.493
 1818TIP3    H227014   6.764   5.850   7.547
 1819TIP3   OH227015   3.041   5.336   1.726
 1819TIP3    H127016   3.126   5.380   1.718
 1819TIP3    H227017   2.979   5.407   1.742
 1820TIP3   OH227018   6.158   3.318   7.029
 1820TIP3    H127019   6.151   3.351   7.118
 1820TIP3    H227020   6.241   3.271   7.026
 1821TIP3   OH227021   2.835   5.277   0.311
 1821TIP3    H127022   2.742   5.265   0.292
 1821TIP3    H227023   2.847   5.237   0.397
 1822TIP3   OH227024   3.387   5.820   0.547
 1822TIP3    H127025   3.402   5.806   0.453
 1822TIP3    H227026   3.298   5.854   0.552
 1823TIP3   OH227027   5.167   1.845   7.722
 1823TIP3    H127028   5.232   1.911   7.746
 1823TIP3    H227029   5.112   1.888   7.656
 1824TIP3   OH227030   1.876   5.242   8.731
 1824TIP3    H127031   1.868   5.284   8.645
 1824TIP3    H227032   1.832   5.302   8.791
 1825TIP3   OH227033   5.019   0.137   0.925
 1825TIP3    H127034   5.043   0.105   0.838
 1825TIP3    H227035   4.923   0.141   0.925
 1826TIP3   OH227036   0.977   4.783   8.478
 1826TIP3    H127037   0.984   4.732   8.559
 1826TIP3    H227038   1.056   4.759   8.429
 1827TIP3   OH227039   3.539   0.304   8.694
 1827TIP3    H127040   3.543   0.278   8.602
 1827TIP3    H227041   3.535   0.221   8.742
 1828TIP3   OH227042   0.521   0.980   8.029
 1828TIP3    H127043   0.590   0.915   8.014
 1828TIP3    H227044   0.530   1.042   7.956
 1829TIP3   OH227045   1.803   0.610   0.251
 1829TIP3    H127046   1.883   0.599   0.303
 1829TIP3    H227047   1.808   0.701   0.220
 1830TIP3   OH227048   5.075   5.764   8.241
 1830TIP3    H127049   5.001   5.823   8.257
 1830TIP3    H227050   5.034   5.681   8.214
 1831TIP3   OH227051   1.946   1.071   6.797
 1831TIP3    H127052   2.031   1.027   6.799
 1831TIP3    H227053   1.968   1.164   6.792
 1832TIP3   OH227054   2.227   3.738   8.031
 1832TIP3    H127055   2.253   3.799   7.962
 1832TIP3    H227056   2.194   3.793   8.101
 1833TIP3   OH227057   1.751   4.961   6.958
 1833TIP3    H127058   1.741   4.928   7.047
 1833TIP3    H227059   1.674   5.017   6.945
 1834TIP3   OH227060   0.150   1.391   7.455
 1834TIP3    H127061   0.064   1.366   7.489
 1834TIP3    H227062   0.142   1.382   7.361
 1835TIP3   OH227063   1.811   0.372   0.574
 1835TIP3    H127064   1.775   0.311   0.509
 1835TIP3    H227065   1.905   0.373   0.556
 1836TIP3   OH227066   1.609   5.017   8.030
 1836TIP3    H127067   1.627   4.926   8.050
 1836TIP3    H227068   1.693   5.061   8.040
 1837TIP3   OH227069   1.036   6.204   7.013
 1837TIP3    H127070   0.968   6.219   7.078
 1837TIP3    H227071   1.006   6.250   6.935
 1838TIP3   OH227072   3.383   6.792   2.511
 1838TIP3    H127073   3.356   0.035   2.578
 1838TIP3    H227074   3.302   6.773   2.463
 1839TIP3   OH227075   4.308   2.467   0.523
 1839TIP3    H127076   4.302   2.562   0.535
 1839TIP3    H227077   4.395   2.453   0.485
 1840TIP3   OH227078   5.857   4.322   8.654
 1840TIP3    H127079   5.774   4.288   8.620
 1840TIP3    H227080   5.859   4.413   8.625
 1841TIP3   OH227081   1.302   6.605   7.114
 1841TIP3    H127082   1.377   6.620   7.057
 1841TIP3    H227083   1.332   6.632   7.201
 1842TIP3   OH227084   1.484   0.844   1.127
 1842TIP3    H127085   1.524   0.930   1.141
 1842TIP3    H227086   1.480   0.804   1.214
 1843TIP3   OH227087   4.890   1.550   0.521
 1843TIP3    H127088   4.980   1.526   0.546
 1843TIP3    H227089   4.857   1.473   0.476
 1844TIP3   OH227090   4.156   4.740   1.047
 1844TIP3    H127091   4.124   4.790   1.123
 1844TIP3    H227092   4.249   4.761   1.042
 1845TIP3   OH227093   1.940   1.757   7.794
 1845TIP3    H127094   1.872   1.691   7.781
 1845TIP3    H227095   1.960   1.788   7.706
 1846TIP3   OH227096   6.502   5.986   8.262
 1846TIP3    H127097   6.502   5.931   8.184
 1846TIP3    H227098   6.529   5.927   8.333
 1847TIP3   OH227099   1.051   1.127   7.276
 1847TIP3    H127100   1.122   1.156   7.333
 1847TIP3    H227101   1.063   1.177   7.195
 1848TIP3   OH227102   1.817   5.281   1.247
 1848TIP3    H127103   1.771   5.363   1.230
 1848TIP3    H227104   1.903   5.307   1.279
 1849TIP3   OH227105   0.890   6.536   2.365
 1849TIP3    H127106   0.885   6.597   2.439
 1849TIP3    H227107   0.817   6.562   2.308
 1850TIP3   OH227108   0.136   4.656   0.851
 1850TIP3    H127109   0.109   4.566   0.866
 1850TIP3    H227110   0.054   4.705   0.848
 1851TIP3   OH227111   2.754   4.616   8.150
 1851TIP3    H127112   2.730   4.528   8.121
 1851TIP3    H227113   2.672   4.664   8.150
 1852TIP3   OH227114   4.274   6.307   2.327
 1852TIP3    H127115   4.205   6.347   2.275
 1852TIP3    H227116   4.252   6.215   2.331
 1853TIP3   OH227117   1.958   2.440   7.577
 1853TIP3    H127118   1.887   2.485   7.530
 1853TIP3    H227119   2.002   2.508   7.627
 1854TIP3   OH227120   4.831   6.038   0.701
 1854TIP3    H127121   4.907   6.005   0.748
 1854TIP3    H227122   4.859   6.042   0.609
 1855TIP3   OH227123   6.644   5.591   8.156
 1855TIP3    H127124   6.594   5.518   8.118
 1855TIP3    H227125   6.586   5.667   8.147
 1856TIP3   OH227126   3.434   6.106   6.815
 1856TIP3    H127127   3.396   6.181   6.769
 1856TIP3    H227128   3.427   6.034   6.754
 1857TIP3   OH227129   5.266   3.359   0.480
 1857TIP3    H127130   5.292   3.268   0.492
 1857TIP3    H227131   5.325   3.392   0.412
 1858TIP3   OH227132   3.081   5.633   6.678
 1858TIP3    H127133   3.081   5.698   6.607
 1858TIP3    H227134   3.118   5.678   6.753
 1859TIP3   OH227135   6.664   3.940   1.454
 1859TIP3    H127136   6.644   4.028   1.486
 1859TIP3    H227137   6.589   3.917   1.399
 1860TIP3   OH227138   1.110   3.330   6.806
 1860TIP3    H127139   1.090   3.398   6.741
 1860TIP3    H227140   1.122   3.251   6.754
 1861TIP3   OH227141   0.173   0.359   7.910
 1861TIP3    H127142   0.100   0.375   7.849
 1861TIP3    H227143   0.240   0.317   7.856
 1862TIP3   OH227144   4.659   0.980   0.657
 1862TIP3    H127145   4.688   0.910   0.715
 1862TIP3    H227146   4.613   1.042   0.714
 1863TIP3   OH227147   4.624   3.550   7.324
 1863TIP3    H127148   4.692   3.596   7.374
 1863TIP3    H227149   4.559   3.525   7.390
 1864TIP3   OH227150   5.516   1.288   1.537
 1864TIP3    H127151   5.444   1.252   1.590
 1864TIP3    H227152   5.529   1.223   1.468
 1865TIP3   OH227153   4.480   5.192   0.257
 1865TIP3    H127154   4.401   5.173   0.207
 1865TIP3    H227155   4.489   5.288   0.252
 1866TIP3   OH227156   0.808   6.376   0.405
 1866TIP3    H127157   0.784   6.468   0.389
 1866TIP3    H227158   0.862   6.379   0.484
 1867TIP3   OH227159   6.174   5.795   7.685
 1867TIP3    H127160   6.086   5.762   7.701
 1867TIP3    H227161   6.230   5.718   7.688
 1868TIP3   OH227162   3.895   3.658   1.240
 1868TIP3    H127163   3.958   3.693   1.177
 1868TIP3    H227164   3.938   3.669   1.325
 1869TIP3   OH227165   6.085   5.614   7.416
 1869TIP3    H127166   6.060   5.562   7.493
 1869TIP3    H227167   6.176   5.590   7.401
 1870TIP3   OH227168   3.794   3.161   8.234
 1870TIP3    H127169   3.855   3.088   8.224
 1870TIP3    H227170   3.808   3.192   8.323
 1871TIP3   OH227171   3.792   5.201   8.094
 1871TIP3    H127172   3.757   5.126   8.143
 1871TIP3    H227173   3.772   5.277   8.149
 1872TIP3   OH227174   2.373   5.381   1.270
 1872TIP3    H127175   2.468   5.394   1.266
 1872TIP3    H227176   2.337   5.470   1.266
 1873TIP3   OH227177   1.408   2.824   0.414
 1873TIP3    H127178   1.344   2.894   0.400
 1873TIP3    H227179   1.357   2.753   0.455
 1874TIP3   OH227180   1.600   0.158   1.643
 1874TIP3    H127181   1.562   0.246   1.655
 1874TIP3    H227182   1.653   0.165   1.563
 1875TIP3   OH227183   5.597   6.229   1.383
 1875TIP3    H127184   5.634   6.285   1.315
 1875TIP3    H227185   5.667   6.220   1.447
 1876TIP3   OH227186   2.888   3.545   6.922
 1876TIP3    H127187   2.918   3.556   6.832
 1876TIP3    H227188   2.888   3.634   6.958
 1877TIP3   OH227189   6.368   5.590   7.737
 1877TIP3    H127190   6.354   5.568   7.645
 1877TIP3    H227191   6.445   5.648   7.736
 1878TIP3   OH227192   3.052   6.427   8.607
 1878TIP3    H127193   3.052   6.394   8.697
 1878TIP3    H227194   2.986   6.496   8.607
 1879TIP3   OH227195   4.721   0.078   6.511
 1879TIP3    H127196   4.807   0.097   6.550
 1879TIP3    H227197   4.666   0.152   6.538
 1880TIP3   OH227198   1.167   3.526   0.914
 1880TIP3    H127199   1.077   3.556   0.921
 1880TIP3    H227200   1.220   3.602   0.939
 1881TIP3   OH227201   0.948   5.852   2.486
 1881TIP3    H127202   0.917   5.862   2.396
 1881TIP3    H227203   1.028   5.906   2.489
 1882TIP3   OH227204   2.970   1.542   7.840
 1882TIP3    H127205   3.048   1.522   7.788
 1882TIP3    H227206   2.906   1.572   7.775
 1883TIP3   OH227207   2.731   5.487   7.012
 1883TIP3    H127208   2.775   5.509   6.930
 1883TIP3    H227209   2.661   5.552   7.020
 1884TIP3   OH227210   0.091   3.884   1.369
 1884TIP3    H127211   0.003   3.906   1.399
 1884TIP3    H227212   0.149   3.933   1.428
 1885TIP3   OH227213   2.605   0.799   0.708
 1885TIP3    H127214   2.699   0.813   0.714
 1885TIP3    H227215   2.592   0.754   0.624
 1886TIP3   OH227216   4.766   4.286   8.108
 1886TIP3    H127217   4.833   4.281   8.177
 1886TIP3    H227218   4.685   4.306   8.155
 1887TIP3   OH227219   1.959   1.570   0.378
 1887TIP3    H127220   1.942   1.617   0.297
 1887TIP3    H227221   2.054   1.560   0.381
 1888TIP3   OH227222   2.948   3.909   8.422
 1888TIP3    H127223   3.025   3.862   8.453
 1888TIP3    H227224   2.876   3.875   8.476
 1889TIP3   OH227225   4.003   4.802   2.300
 1889TIP3    H127226   4.010   4.769   2.210
 1889TIP3    H227227   3.953   4.883   2.291
 1890TIP3   OH227228   0.474   2.167   1.168
 1890TIP3    H127229   0.479   2.242   1.110
 1890TIP3    H227230   0.420   2.196   1.241
 1891TIP3   OH227231   5.734   6.598   8.700
 1891TIP3    H127232   5.722   6.508   8.669
 1891TIP3    H227233   5.661   6.612   8.760
 1892TIP3   OH227234   1.041   1.281   0.634
 1892TIP3    H127235   1.010   1.221   0.566
 1892TIP3    H227236   1.052   1.365   0.589
 1893TIP3   OH227237   5.452   1.825   0.015
 1893TIP3    H127238   5.446   1.861   8.727
 1893TIP3    H227239   5.417   1.736   0.007
 1894TIP3   OH227240   4.297   2.530   6.880
 1894TIP3    H127241   4.327   2.549   6.791
 1894TIP3    H227242   4.221   2.474   6.868
 1895TIP3   OH227243   2.692   2.603   7.535
 1895TIP3    H127244   2.618   2.557   7.496
 1895TIP3    H227245   2.663   2.622   7.625
 1896TIP3   OH227246   2.010   4.942   1.836
 1896TIP3    H127247   2.023   5.036   1.851
 1896TIP3    H227248   1.937   4.919   1.894
 1897TIP3   OH227249   4.882   1.454   6.970
 1897TIP3    H127250   4.939   1.391   6.927
 1897TIP3    H227251   4.807   1.403   6.999
 1898TIP3   OH227252   5.389   0.920   8.420
 1898TIP3    H127253   5.414   0.993   8.364
 1898TIP3    H227254   5.446   0.848   8.393
 1899TIP3   OH227255   0.195   1.731   7.522
 1899TIP3    H127256   0.199   1.638   7.502
 1899TIP3    H227257   0.118   1.763   7.475
 1900TIP3   OH227258   3.367   5.798   7.167
 1900TIP3    H127259   3.462   5.794   7.154
 1900TIP3    H227260   3.356   5.838   7.253
 1901TIP3   OH227261   3.670   1.204   1.138
 1901TIP3    H127262   3.735   1.271   1.113
 1901TIP3    H227263   3.594   1.255   1.166
 1902TIP3   OH227264   2.833   5.142   7.323
 1902TIP3    H127265   2.766   5.129   7.391
 1902TIP3    H227266   2.877   5.057   7.317
 1903TIP3   OH227267   3.481   5.207   6.430
 1903TIP3    H127268   3.422   5.137   6.457
 1903TIP3    H227269   3.569   5.171   6.443
 1904TIP3   OH227270   2.498   6.237   8.432
 1904TIP3    H127271   2.537   6.281   8.356
 1904TIP3    H227272   2.531   6.147   8.426
 1905TIP3   OH227273   4.803   3.999   0.771
 1905TIP3    H127274   4.735   4.018   0.836
 1905TIP3    H227275   4.794   4.069   0.706
 1906TIP3   OH227276   0.025   3.053   2.368
 1906TIP3    H127277   0.063   3.033   2.454
 1906TIP3    H227278   6.793   3.132   2.383
 1907TIP3   OH227279   2.653   5.029   0.241
 1907TIP3    H127280   2.724   5.056   0.182
 1907TIP3    H227281   2.573   5.057   0.197
 1908TIP3   OH227282   4.403   2.181   6.940
 1908TIP3    H127283   4.341   2.175   6.867
 1908TIP3    H227284   4.348   2.183   7.018
 1909TIP3   OH227285   2.915   3.718   6.030
 1909TIP3    H127286   2.892   3.768   5.952
 1909TIP3    H227287   3.010   3.716   6.031
 1910TIP3   OH227288   1.339   3.199   7.841
 1910TIP3    H127289   1.262   3.144   7.851
 1910TIP3    H227290   1.396   3.174   7.913
 1911TIP3   OH227291   1.338   6.334   0.730
 1911TIP3    H127292   1.326   6.316   0.824
 1911TIP3    H227293   1.432   6.319   0.716
 1912TIP3   OH227294   5.344   3.538   7.562
 1912TIP3    H127295   5.412   3.505   7.504
 1912TIP3    H227296   5.384   3.538   7.649
 1913TIP3   OH227297   0.371   5.141   1.271
 1913TIP3    H127298   0.453   5.101   1.243
 1913TIP3    H227299   0.310   5.124   1.199
 1914TIP3   OH227300   2.373   5.967   7.324
 1914TIP3    H127301   2.299   5.922   7.283
 1914TIP3    H227302   2.423   5.898   7.366
 1915TIP3   OH227303   0.080   3.493   1.860
 1915TIP3    H127304   0.043   3.404   1.865
 1915TIP3    H227305   0.105   3.513   1.950
 1916TIP3   OH227306   1.395   3.618   8.598
 1916TIP3    H127307   1.472   3.668   8.571
 1916TIP3    H227308   1.403   3.611   8.693
 1917TIP3   OH227309   2.553   5.633   8.493
 1917TIP3    H127310   2.495   5.671   8.558
 1917TIP3    H227311   2.567   5.543   8.523
 1918TIP3   OH227312   6.418   1.537   1.781
 1918TIP3    H127313   6.401   1.500   1.695
 1918TIP3    H227314   6.334   1.575   1.808
 1919TIP3   OH227315   1.915   5.201   1.000
 1919TIP3    H127316   1.832   5.239   1.030
 1919TIP3    H227317   1.930   5.127   1.058
 1920TIP3   OH227318   3.109   6.658   7.178
 1920TIP3    H127319   3.119   6.570   7.141
 1920TIP3    H227320   3.172   6.660   7.250
 1921TIP3   OH227321   2.188   5.835   7.158
 1921TIP3    H127322   2.119   5.898   7.182
 1921TIP3    H227323   2.224   5.870   7.076
 1922TIP3   OH227324   2.134   3.378   8.739
 1922TIP3    H127325   2.169   3.309   8.795
 1922TIP3    H227326   2.114   3.335   8.656
 1923TIP3   OH227327   6.308   4.023   2.192
 1923TIP3    H127328   6.277   4.110   2.216
 1923TIP3    H227329   6.396   4.018   2.230
 1924TIP3   OH227330   1.607   3.539   0.462
 1924TIP3    H127331   1.513   3.533   0.443
 1924TIP3    H227332   1.616   3.620   0.511
 1925TIP3   OH227333   5.240   6.331   2.385
 1925TIP3    H127334   5.169   6.334   2.321
 1925TIP3    H227335   5.286   6.249   2.367
 1926TIP3   OH227336   4.650   6.576   2.536
 1926TIP3    H127337   4.578   6.518   2.561
 1926TIP3    H227338   4.643   6.650   2.596
 1927TIP3   OH227339   1.175   6.244   2.105
 1927TIP3    H127340   1.107   6.246   2.172
 1927TIP3    H227341   1.248   6.199   2.147
 1928TIP3   OH227342   2.461   2.790   0.867
 1928TIP3    H127343   2.388   2.779   0.806
 1928TIP3    H227344   2.507   2.706   0.864
 1929TIP3   OH227345   1.699   0.088   6.650
 1929TIP3    H127346   1.786   0.052   6.629
 1929TIP3    H227347   1.646   0.011   6.669
 1930TIP3   OH227348   6.356   0.141   1.254
 1930TIP3    H127349   6.355   0.146   1.350
 1930TIP3    H227350   6.339   0.049   1.235
 1931TIP3   OH227351   2.560   0.358   1.014
 1931TIP3    H127352   2.624   0.421   0.982
 1931TIP3    H227353   2.477   0.405   1.013
 1932TIP3   OH227354   6.175   5.843   7.257
 1932TIP3    H127355   6.131   5.799   7.330
 1932TIP3    H227356   6.111   5.906   7.225
 1933TIP3   OH227357   3.932   1.529   2.680
 1933TIP3    H127358   3.837   1.522   2.687
 1933TIP3    H227359   3.952   1.491   2.595
 1934TIP3   OH227360   0.189   1.959   7.103
 1934TIP3    H127361   0.192   1.977   7.009
 1934TIP3    H227362   0.237   1.877   7.113
 1935TIP3   OH227363   6.206   5.061   7.571
 1935TIP3    H127364   6.197   4.986   7.630
 1935TIP3    H227365   6.235   5.023   7.488
 1936TIP3   OH227366   3.917   4.901   1.420
 1936TIP3    H127367   4.012   4.901   1.407
 1936TIP3    H227368   3.904   4.849   1.500
 1937TIP3   OH227369   5.321   6.565   8.333
 1937TIP3    H127370   5.408   6.531   8.315
 1937TIP3    H227371   5.312   6.639   8.273
 1938TIP3   OH227372   4.356   0.948   2.255
 1938TIP3    H127373   4.357   0.972   2.163
 1938TIP3    H227374   4.415   1.010   2.297
 1939TIP3   OH227375   3.201   1.317   8.144
 1939TIP3    H127376   3.275   1.260   8.167
 1939TIP3    H227377   3.234   1.406   8.158
 1940TIP3   OH227378   0.415   5.823   0.454
 1940TIP3    H127379   0.415   5.917   0.439
 1940TIP3    H227380   0.334   5.806   0.503
 1941TIP3   OH227381   4.451   6.819   7.786
 1941TIP3    H127382   4.451   6.805   7.881
 1941TIP3    H227383   4.420   6.735   7.750
 1942TIP3   OH227384   2.148   6.775   7.828
 1942TIP3    H127385   2.062   6.799   7.863
 1942TIP3    H227386   2.136   6.773   7.733
 1943TIP3   OH227387   1.923   2.396   7.937
 1943TIP3    H127388   1.915   2.421   8.029
 1943TIP3    H227389   1.895   2.304   7.935
 1944TIP3   OH227390   4.873   1.177   7.272
 1944TIP3    H127391   4.807   1.117   7.236
 1944TIP3    H227392   4.823   1.254   7.299
 1945TIP3   OH227393   3.063   2.649   2.424
 1945TIP3    H127394   2.979   2.603   2.419
 1945TIP3    H227395   3.125   2.583   2.457
 1946TIP3   OH227396   0.461   0.480   1.065
 1946TIP3    H127397   0.443   0.563   1.108
 1946TIP3    H227398   0.554   0.465   1.078
 1947TIP3   OH227399   2.326   1.681   0.256
 1947TIP3    H127400   2.280   1.765   0.245
 1947TIP3    H227401   2.267   1.617   0.216
 1948TIP3   OH227402   4.531   0.280   0.239
 1948TIP3    H127403   4.495   0.366   0.261
 1948TIP3    H227404   4.454   0.224   0.231
 1949TIP3   OH227405   1.079   3.274   0.590
 1949TIP3    H127406   1.078   3.273   0.494
 1949TIP3    H227407   1.171   3.264   0.613
 1950TIP3   OH227408   0.771   2.303   1.325
 1950TIP3    H127409   0.789   2.336   1.237
 1950TIP3    H227410   0.780   2.380   1.382
 1951TIP3   OH227411   1.384   3.781   6.529
 1951TIP3    H127412   1.296   3.749   6.508
 1951TIP3    H227413   1.439   3.703   6.528
 1952TIP3   OH227414   4.088   1.239   8.258
 1952TIP3    H127415   4.075   1.272   8.346
 1952TIP3    H227416   4.139   1.158   8.269
 1953TIP3   OH227417   5.580   1.540   8.097
 1953TIP3    H127418   5.581   1.496   8.183
 1953TIP3    H227419   5.503   1.596   8.100
 1954TIP3   OH227420   0.655   1.839   7.896
 1954TIP3    H127421   0.736   1.841   7.845
 1954TIP3    H227422   0.632   1.931   7.909
 1955TIP3   OH227423   5.037   2.457   1.166
 1955TIP3    H127424   4.997   2.541   1.142
 1955TIP3    H227425   5.131   2.471   1.153
 1956TIP3   OH227426   0.615   1.154   6.760
 1956TIP3    H127427   0.559   1.086   6.797
 1956TIP3    H227428   0.704   1.122   6.774
 1957TIP3   OH227429   1.110   0.191   0.735
 1957TIP3    H127430   1.134   0.168   0.825
 1957TIP3    H227431   1.026   0.147   0.720
 1958TIP3   OH227432   1.075   3.125   1.704
 1958TIP3    H127433   1.148   3.158   1.756
 1958TIP3    H227434   1.000   3.128   1.764
 1959TIP3   OH227435   4.625   3.312   6.189
 1959TIP3    H127436   4.597   3.399   6.161
 1959TIP3    H227437   4.683   3.327   6.263
 1960TIP3   OH227438   6.032   3.276   7.878
 1960TIP3    H127439   6.027   3.193   7.925
 1960TIP3    H227440   6.108   3.268   7.821
 1961TIP3   OH227441   3.470   0.742   7.996
 1961TIP3    H127442   3.561   0.769   8.006
 1961TIP3    H227443   3.444   0.712   8.084
 1962TIP3   OH227444   6.015   4.771   8.594
 1962TIP3    H127445   5.950   4.813   8.651
 1962TIP3    H227446   6.078   4.731   8.654
 1963TIP3   OH227447   5.881   3.703   0.026
 1963TIP3    H127448   5.871   3.745   8.741
 1963TIP3    H227449   5.792   3.691   0.058
 1964TIP3   OH227450   0.394   5.874   8.774
 1964TIP3    H127451   0.444   5.840   8.699
 1964TIP3    H227452   0.434   5.832   0.050
 1965TIP3   OH227453   1.954   0.369   1.608
 1965TIP3    H127454   1.982   0.285   1.643
 1965TIP3    H227455   2.022   0.431   1.635
 1966TIP3   OH227456   0.739   1.440   8.225
 1966TIP3    H127457   0.699   1.521   8.194
 1966TIP3    H227458   0.827   1.440   8.187
 1967TIP3   OH227459   2.707   5.048   0.896
 1967TIP3    H127460   2.705   5.038   0.991
 1967TIP3    H227461   2.682   4.961   0.862
 1968TIP3   OH227462   3.391   5.337   6.770
 1968TIP3    H127463   3.319   5.353   6.710
 1968TIP3    H227464   3.380   5.402   6.840
 1969TIP3   OH227465   4.377   2.931   2.057
 1969TIP3    H127466   4.357   2.901   1.969
 1969TIP3    H227467   4.423   2.859   2.098
 1970TIP3   OH227468   3.776   4.705   6.982
 1970TIP3    H127469   3.860   4.662   6.998
 1970TIP3    H227470   3.771   4.774   7.048
 1971TIP3   OH227471   0.564   4.205   0.618
 1971TIP3    H127472   0.639   4.163   0.660
 1971TIP3    H227473   0.502   4.135   0.602
 1972TIP3   OH227474   4.230   3.015   8.076
 1972TIP3    H127475   4.176   3.068   8.134
 1972TIP3    H227476   4.247   2.935   8.125
 1973TIP3   OH227477   0.983   1.141   7.685
 1973TIP3    H127478   0.970   1.150   7.780
 1973TIP3    H227479   0.953   1.224   7.649
 1974TIP3   OH227480   2.680   5.338   0.566
 1974TIP3    H127481   2.643   5.408   0.513
 1974TIP3    H227482   2.636   5.258   0.535
 1975TIP3   OH227483   1.359   0.115   0.634
 1975TIP3    H127484   1.275   0.156   0.616
 1975TIP3    H227485   1.424   0.179   0.606
 1976TIP3   OH227486   3.759   0.003   1.657
 1976TIP3    H127487   3.776   0.087   1.699
 1976TIP3    H227488   3.837   6.771   1.673
 1977TIP3   OH227489   2.643   0.479   6.557
 1977TIP3    H127490   2.594   0.548   6.514
 1977TIP3    H227491   2.722   0.468   6.504
 1978TIP3   OH227492   3.896   0.193   0.490
 1978TIP3    H127493   3.882   0.143   0.570
 1978TIP3    H227494   3.961   0.259   0.515
 1979TIP3   OH227495   5.137   3.299   2.382
 1979TIP3    H127496   5.114   3.207   2.394
 1979TIP3    H227497   5.225   3.307   2.421
 1980TIP3   OH227498   0.536   5.275   0.924
 1980TIP3    H127499   0.446   5.241   0.925
 1980TIP3    H227500   0.558   5.280   0.831
 1981TIP3   OH227501   6.280   6.486   0.017
 1981TIP3    H127502   6.216   6.437   8.765
 1981TIP3    H227503   6.312   6.555   8.759
 1982TIP3   OH227504   4.879   0.882   7.053
 1982TIP3    H127505   4.926   0.813   7.006
 1982TIP3    H227506   4.867   0.846   7.141
 1983TIP3   OH227507   5.463   3.498   1.780
 1983TIP3    H127508   5.410   3.454   1.847
 1983TIP3    H227509   5.509   3.427   1.736
 1984TIP3   OH227510   5.586   4.018   7.110
 1984TIP3    H127511   5.645   3.976   7.047
 1984TIP3    H227512   5.632   4.097   7.138
 1985TIP3   OH227513   0.001   6.541   1.006
 1985TIP3    H127514   0.077   6.544   1.063
 1985TIP3    H227515   0.035   6.561   0.918
 1986TIP3   OH227516   1.696   4.601   7.451
 1986TIP3    H127517   1.772   4.638   7.496
 1986TIP3    H227518   1.637   4.574   7.522
 1987TIP3   OH227519   0.340   2.474   7.511
 1987TIP3    H127520   0.264   2.445   7.460
 1987TIP3    H227521   0.384   2.392   7.536
 1988TIP3   OH227522   0.486   6.069   1.052
 1988TIP3    H127523   0.512   6.156   1.022
 1988TIP3    H227524   0.459   6.023   0.972
 1989TIP3   OH227525   0.045   3.936   1.752
 1989TIP3    H127526   0.041   3.935   1.657
 1989TIP3    H227527   0.097   3.859   1.775
 1990TIP3   OH227528   0.978   6.391   0.648
 1990TIP3    H127529   1.007   6.353   0.731
 1990TIP3    H227530   1.054   6.441   0.617
 1991TIP3   OH227531   2.430   4.127   8.748
 1991TIP3    H127532   2.401   4.143   8.658
 1991TIP3    H227533   2.485   4.203   8.769
 1992TIP3   OH227534   2.104   4.666   8.246
 1992TIP3    H127535   2.104   4.659   8.341
 1992TIP3    H227536   2.100   4.760   8.229
 1993TIP3   OH227537   1.674   6.594   7.671
 1993TIP3    H127538   1.637   6.670   7.716
 1993TIP3    H227539   1.609   6.570   7.605
 1994TIP3   OH227540   6.312   1.764   8.244
 1994TIP3    H127541   6.296   1.842   8.190
 1994TIP3    H227542   6.351   1.701   8.184
 1995TIP3   OH227543   1.074   3.015   8.205
 1995TIP3    H127544   1.144   2.966   8.248
 1995TIP3    H227545   0.993   2.983   8.246
 1996TIP3   OH227546   0.630   3.337   7.224
 1996TIP3    H127547   0.625   3.242   7.220
 1996TIP3    H227548   0.722   3.357   7.208
 1997TIP3   OH227549   3.325   6.639   7.388
 1997TIP3    H127550   3.402   6.609   7.340
 1997TIP3    H227551   3.332   6.597   7.474
 1998TIP3   OH227552   3.363   4.180   7.503
 1998TIP3    H127553   3.277   4.196   7.542
 1998TIP3    H227554   3.346   4.115   7.434
 1999TIP3   OH227555   3.235   5.318   8.088
 1999TIP3    H127556   3.322   5.301   8.051
 1999TIP3    H227557   3.175   5.275   8.028
 2000TIP3   OH227558   6.147   1.928   8.562
 2000TIP3    H127559   6.227   1.877   8.575
 2000TIP3    H227560   6.078   1.863   8.547
 2001TIP3   OH227561   4.393   5.312   8.129
 2001TIP3    H127562   4.362   5.403   8.130
 2001TIP3    H227563   4.314   5.260   8.131
 2002TIP3   OH227564   4.585   1.459   8.798
 2002TIP3    H127565   4.516   1.468   8.733
 2002TIP3    H227566   4.583   1.541   0.046
 2003TIP3   OH227567   3.708   3.086   1.407
 2003TIP3    H127568   3.681   2.994   1.407
 2003TIP3    H227569   3.790   3.086   1.357
 2004TIP3   OH227570   4.284   2.650   8.401
 2004TIP3    H127571   4.306   2.641   8.308
 2004TIP3    H227572   4.195   2.617   8.408
 2005TIP3   OH227573   6.196   5.732   0.059
 2005TIP3    H127574   6.285   5.767   0.059
 2005TIP3    H227575   6.183   5.699   0.148
 2006TIP3   OH227576   3.004   3.115   7.819
 2006TIP3    H127577   3.036   3.049   7.757
 2006TIP3    H227578   2.922   3.146   7.779
 2007TIP3   OH227579   4.428   3.532   8.660
 2007TIP3    H127580   4.442   3.519   8.566
 2007TIP3    H227581   4.338   3.502   8.675
 2008TIP3   OH227582   1.465   5.909   8.040
 2008TIP3    H127583   1.510   5.878   8.119
 2008TIP3    H227584   1.530   5.900   7.971
 2009TIP3   OH227585   5.682   5.466   6.993
 2009TIP3    H127586   5.643   5.497   7.075
 2009TIP3    H227587   5.664   5.372   6.991
 2010TIP3   OH227588   5.310   3.854   7.463
 2010TIP3    H127589   5.235   3.873   7.519
 2010TIP3    H227590   5.316   3.929   7.405
 2011TIP3   OH227591   5.286   1.349   8.164
 2011TIP3    H127592   5.239   1.364   8.082
 2011TIP3    H227593   5.287   1.435   8.207
 2012TIP3   OH227594   4.331   0.266   7.228
 2012TIP3    H127595   4.377   0.192   7.188
 2012TIP3    H227596   4.244   0.265   7.187
 2013TIP3   OH227597   5.828   1.232   7.109
 2013TIP3    H127598   5.771   1.191   7.045
 2013TIP3    H227599   5.780   1.225   7.192
 2014TIP3   OH227600   0.947   3.402   8.582
 2014TIP3    H127601   0.866   3.372   8.622
 2014TIP3    H227602   0.999   3.322   8.572
 2015TIP3   OH227603   3.295   0.002   7.028
 2015TIP3    H127604   3.239   6.763   7.080
 2015TIP3    H227605   3.267   0.090   7.052
 2016TIP3   OH227606   0.088   3.257   0.195
 2016TIP3    H127607   0.166   3.303   0.165
 2016TIP3    H227608   0.111   3.224   0.282
 2017TIP3   OH227609   6.313   3.000   8.654
 2017TIP3    H127610   6.244   2.946   8.692
 2017TIP3    H227611   6.273   3.039   8.576
 2018TIP3   OH227612   3.869   0.917   1.306
 2018TIP3    H127613   3.947   0.949   1.260
 2018TIP3    H227614   3.846   0.837   1.260
 2019TIP3   OH227615   2.425   6.331   7.191
 2019TIP3    H127616   2.482   6.302   7.119
 2019TIP3    H227617   2.395   6.417   7.164
 2020TIP3   OH227618   5.999   6.731   1.844
 2020TIP3    H127619   6.014   6.717   1.937
 2020TIP3    H227620   6.077   6.693   1.802
 2021TIP3   OH227621   4.635   5.460   7.479
 2021TIP3    H127622   4.542   5.438   7.483
 2021TIP3    H227623   4.669   5.434   7.564
 2022TIP3   OH227624   4.514   1.698   0.109
 2022TIP3    H127625   4.584   1.698   0.174
 2022TIP3    H227626   4.436   1.723   0.158
 2023TIP3   OH227627   1.919   4.695   7.601
 2023TIP3    H127628   1.981   4.643   7.551
 2023TIP3    H227629   1.956   4.700   7.689
 2024TIP3   OH227630   1.951   2.000   8.339
 2024TIP3    H127631   1.891   2.041   8.277
 2024TIP3    H227632   2.037   2.004   8.296
 2025TIP3   OH227633   1.887   5.985   1.263
 2025TIP3    H127634   1.911   5.941   1.345
 2025TIP3    H227635   1.801   5.948   1.241
 2026TIP3   OH227636   0.702   4.976   6.997
 2026TIP3    H127637   0.632   4.912   6.985
 2026TIP3    H227638   0.744   4.983   6.912
 2027TIP3   OH227639   0.527   4.434   7.036
 2027TIP3    H127640   0.507   4.504   6.974
 2027TIP3    H227641   0.622   4.426   7.033
 2028TIP3   OH227642   2.837   3.123   1.845
 2028TIP3    H127643   2.929   3.147   1.830
 2028TIP3    H227644   2.834   3.094   1.936
 2029TIP3   OH227645   4.018   4.541   0.667
 2029TIP3    H127646   4.038   4.469   0.726
 2029TIP3    H227647   4.052   4.619   0.712
 2030TIP3   OH227648   5.812   6.040   1.943
 2030TIP3    H127649   5.796   6.087   2.025
 2030TIP3    H227650   5.732   6.054   1.891
 2031TIP3   OH227651   4.210   3.832   8.375
 2031TIP3    H127652   4.119   3.806   8.361
 2031TIP3    H227653   4.224   3.821   8.469
 2032TIP3   OH227654   4.968   6.412   1.356
 2032TIP3    H127655   4.957   6.453   1.442
 2032TIP3    H227656   4.975   6.318   1.376
 2033TIP3   OH227657   4.104   0.053   0.845
 2033TIP3    H127658   4.027   0.058   0.788
 2033TIP3    H227659   4.169   0.006   0.794
 2034TIP3   OH227660   0.136   4.501   2.516
 2034TIP3    H127661   0.187   4.443   2.459
 2034TIP3    H227662   0.105   4.444   2.586
 2035TIP3   OH227663   2.186   6.483   0.101
 2035TIP3    H127664   2.240   6.550   0.060
 2035TIP3    H227665   2.102   6.489   0.056
 2036TIP3   OH227666   3.686   6.383   1.795
 2036TIP3    H127667   3.739   6.329   1.854
 2036TIP3    H227668   3.710   6.353   1.707
 2037TIP3   OH227669   4.204   2.576   7.751
 2037TIP3    H127670   4.137   2.643   7.740
 2037TIP3    H227671   4.235   2.557   7.663
 2038TIP3   OH227672   5.063   2.052   6.952
 2038TIP3    H127673   5.064   2.010   6.867
 2038TIP3    H227674   5.131   2.007   7.002
 2039TIP3   OH227675   3.931   2.533   0.744
 2039TIP3    H127676   3.920   2.559   0.652
 2039TIP3    H227677   3.849   2.557   0.786
 2040TIP3   OH227678   2.266   5.061   7.697
 2040TIP3    H127679   2.221   5.119   7.636
 2040TIP3    H227680   2.195   5.017   7.744
 2041TIP3   OH227681   0.468   2.320   8.769
 2041TIP3    H127682   0.495   2.348   8.682
 2041TIP3    H227683   0.373   2.326   8.768
 2042TIP3   OH227684   4.362   0.739   7.630
 2042TIP3    H127685   4.457   0.727   7.638
 2042TIP3    H227686   4.330   0.657   7.592
 2043TIP3   OH227687   3.888   1.913   8.051
 2043TIP3    H127688   3.891   1.906   7.956
 2043TIP3    H227689   3.915   2.002   8.070
 2044TIP3   OH227690   2.590   3.873   7.440
 2044TIP3    H127691   2.553   3.923   7.368
 2044TIP3    H227692   2.524   3.806   7.459
 2045TIP3   OH227693   5.499   1.595   1.365
 2045TIP3    H127694   5.496   1.671   1.423
 2045TIP3    H227695   5.455   1.525   1.414
 2046TIP3   OH227696   2.049   0.209   0.813
 2046TIP3    H127697   2.108   0.284   0.813
 2046TIP3    H227698   2.077   0.156   0.739
 2047TIP3   OH227699   0.063   6.632   8.265
 2047TIP3    H127700   0.156   6.648   8.283
 2047TIP3    H227701   0.051   6.538   8.283
 2048TIP3   OH227702   6.040   5.930   1.003
 2048TIP3    H127703   6.092   5.956   0.927
 2048TIP3    H227704   6.048   5.835   1.007
 2049TIP3   OH227705   6.141   1.355   0.631
 2049TIP3    H127706   6.061   1.303   0.630
 2049TIP3    H227707   6.208   1.295   0.663
 2050TIP3   OH227708   6.219   4.833   6.912
 2050TIP3    H127709   6.210   4.770   6.840
 2050TIP3    H227710   6.289   4.892   6.884
 2051TIP3   OH227711   6.184   5.345   7.578
 2051TIP3    H127712   6.274   5.357   7.608
 2051TIP3    H227713   6.166   5.252   7.593
 2052TIP3   OH227714   2.266   2.242   8.692
 2052TIP3    H127715   2.268   2.275   8.602
 2052TIP3    H227716   2.326   2.300   8.739
 2053TIP3   OH227717   6.573   0.710   1.496
 2053TIP3    H127718   6.645   0.750   1.447
 2053TIP3    H227719   6.497   0.765   1.476
 2054TIP3   OH227720   0.404   6.393   7.753
 2054TIP3    H127721   0.408   6.480   7.791
 2054TIP3    H227722   0.494   6.359   7.762
 2055TIP3   OH227723   3.545   4.896   6.776
 2055TIP3    H127724   3.463   4.908   6.824
 2055TIP3    H227725   3.569   4.985   6.747
 2056TIP3   OH227726   6.420   0.863   1.809
 2056TIP3    H127727   6.437   0.956   1.822
 2056TIP3    H227728   6.374   0.836   1.888
 2057TIP3   OH227729   5.052   2.958   0.921
 2057TIP3    H127730   5.064   2.918   1.007
 2057TIP3    H227731   5.007   3.041   0.940
 2058TIP3   OH227732   6.407   3.494   1.217
 2058TIP3    H127733   6.380   3.536   1.299
 2058TIP3    H227734   6.374   3.551   1.148
 2059TIP3   OH227735   0.307   6.678   8.729
 2059TIP3    H127736   0.235   6.644   8.676
 2059TIP3    H227737   0.381   6.683   8.668
 2060TIP3   OH227738   5.397   6.336   8.762
 2060TIP3    H127739   5.368   6.303   8.677
 2060TIP3    H227740   5.321   6.382   8.797
 2061TIP3   OH227741   6.241   0.088   0.121
 2061TIP3    H127742   6.247   0.038   0.040
 2061TIP3    H227743   6.159   0.136   0.114
 2062TIP3   OH227744   6.470   2.786   2.114
 2062TIP3    H127745   6.391   2.829   2.080
 2062TIP3    H227746   6.494   2.839   2.190
 2063TIP3   OH227747   0.059   2.022   8.573
 2063TIP3    H127748   0.095   2.044   8.659
 2063TIP3    H227749   6.803   1.967   8.591
 2064TIP3   OH227750   3.245   0.958   8.049
 2064TIP3    H127751   3.303   0.976   8.123
 2064TIP3    H227752   3.193   0.883   8.076
 2065TIP3   OH227753   4.905   4.825   0.496
 2065TIP3    H127754   4.867   4.912   0.481
 2065TIP3    H227755   4.969   4.839   0.565
 2066TIP3   OH227756   0.507   6.682   1.375
 2066TIP3    H127757   0.560   6.613   1.334
 2066TIP3    H227758   0.465   6.727   1.302
 2067TIP3   OH227759   5.585   1.470   8.350
 2067TIP3    H127760   5.645   1.403   8.384
 2067TIP3    H227761   5.540   1.503   8.427
 2068TIP3   OH227762   0.082   4.991   8.251
 2068TIP3    H127763   0.064   5.043   8.329
 2068TIP3    H227764   0.057   4.902   8.275
 2069TIP3   OH227765   4.279   3.599   0.424
 2069TIP3    H127766   4.354   3.596   0.484
 2069TIP3    H227767   4.289   3.681   0.376
 2070TIP3   OH227768   5.568   0.338   1.444
 2070TIP3    H127769   5.648   0.289   1.424
 2070TIP3    H227770   5.520   0.338   1.361
 2071TIP3   OH227771   5.302   2.762   8.518
 2071TIP3    H127772   5.363   2.702   8.562
 2071TIP3    H227773   5.358   2.829   8.480
 2072TIP3   OH227774   5.134   6.632   0.763
 2072TIP3    H127775   5.074   6.558   0.765
 2072TIP3    H227776   5.175   6.632   0.849
 2073TIP3   OH227777   5.866   4.314   8.343
 2073TIP3    H127778   5.776   4.303   8.376
 2073TIP3    H227779   5.904   4.379   8.402
 2074TIP3   OH227780   1.002   3.630   7.823
 2074TIP3    H127781   0.946   3.552   7.820
 2074TIP3    H227782   1.091   3.594   7.822
 2075TIP3   OH227783   2.266   4.844   6.190
 2075TIP3    H127784   2.177   4.809   6.186
 2075TIP3    H227785   2.258   4.928   6.235
 2076TIP3   OH227786   1.515   2.176   1.533
 2076TIP3    H127787   1.578   2.229   1.484
 2076TIP3    H227788   1.442   2.164   1.472
 2077TIP3   OH227789   4.786   4.020   0.033
 2077TIP3    H127790   4.799   3.935   8.792
 2077TIP3    H227791   4.806   4.084   8.765
 2078TIP3   OH227792   4.168   5.866   7.067
 2078TIP3    H127793   4.162   5.772   7.048
 2078TIP3    H227794   4.250   5.893   7.025
 2079TIP3   OH227795   4.039   1.400   1.087
 2079TIP3    H127796   4.062   1.339   1.016
 2079TIP3    H227797   4.119   1.406   1.139
 2080TIP3   OH227798   3.910   4.642   6.680
 2080TIP3    H127799   3.943   4.588   6.608
 2080TIP3    H227800   3.985   4.654   6.737
 2081TIP3   OH227801   1.190   6.542   8.783
 2081TIP3    H127802   1.206   6.612   8.720
 2081TIP3    H227803   1.240   6.467   8.749
 2082TIP3   OH227804   6.327   1.416   8.449
 2082TIP3    H127805   6.314   1.331   8.491
 2082TIP3    H227806   6.382   1.397   8.373
 2083TIP3   OH227807   4.748   0.200   0.956
 2083TIP3    H127808   4.762   0.290   0.986
 2083TIP3    H227809   4.658   0.180   0.981
 2084TIP3   OH227810   0.764   6.539   0.998
 2084TIP3    H127811   0.840   6.587   0.966
 2084TIP3    H227812   0.709   6.607   1.040
 2085TIP3   OH227813   2.283   2.533   0.075
 2085TIP3    H127814   2.258   2.616   0.035
 2085TIP3    H227815   2.201   2.487   0.091
 2086TIP3   OH227816   1.818   2.213   1.585
 2086TIP3    H127817   1.752   2.246   1.647
 2086TIP3    H227818   1.880   2.285   1.576
 2087TIP3   OH227819   4.196   3.964   8.707
 2087TIP3    H127820   4.109   3.997   8.685
 2087TIP3    H227821   4.256   4.017   8.654
 2088TIP3   OH227822   3.082   0.184   7.373
 2088TIP3    H127823   3.011   0.243   7.398
 2088TIP3    H227824   3.100   0.205   7.282
 2089TIP3   OH227825   1.602   6.780   8.502
 2089TIP3    H127826   1.679   6.810   8.454
 2089TIP3    H227827   1.529   6.793   8.441
 2090TIP3   OH227828   2.799   2.107   1.636
 2090TIP3    H127829   2.892   2.101   1.657
 2090TIP3    H227830   2.757   2.127   1.720
 2091TIP3   OH227831   0.725   1.687   8.776
 2091TIP3    H127832   0.819   1.695   8.784
 2091TIP3    H227833   0.711   1.661   8.684
 2092TIP3   OH227834   5.036   2.876   1.200
 2092TIP3    H127835   4.956   2.835   1.165
 2092TIP3    H227836   5.006   2.959   1.237
 2093TIP3   OH227837   0.965   5.082   8.495
 2093TIP3    H127838   1.059   5.093   8.478
 2093TIP3    H227839   0.952   4.987   8.494
 2094TIP3   OH227840   1.970   0.636   1.751
 2094TIP3    H127841   1.962   0.701   1.681
 2094TIP3    H227842   1.946   0.683   1.831
 2095TIP3   OH227843   1.653   0.338   6.535
 2095TIP3    H127844   1.656   0.244   6.551
 2095TIP3    H227845   1.566   0.353   6.496
 2096TIP3   OH227846   1.812   1.102   7.381
 2096TIP3    H127847   1.894   1.148   7.363
 2096TIP3    H227848   1.832   1.047   7.457
 2097TIP3   OH227849   3.040   0.370   0.316
 2097TIP3    H127850   3.078   0.286   0.290
 2097TIP3    H227851   3.115   0.428   0.329
 2098TIP3   OH227852   4.743   4.722   1.948
 2098TIP3    H127853   4.673   4.683   2.001
 2098TIP3    H227854   4.728   4.816   1.954
 2099TIP3   OH227855   4.570   1.125   2.344
 2099TIP3    H127856   4.571   1.208   2.296
 2099TIP3    H227857   4.646   1.130   2.403
 2100TIP3   OH227858   2.339   5.511   7.860
 2100TIP3    H127859   2.244   5.521   7.865
 2100TIP3    H227860   2.356   5.429   7.906
 2101TIP3   OH227861   5.697   5.876   1.607
 2101TIP3    H127862   5.732   5.801   1.655
 2101TIP3    H227863   5.647   5.925   1.672
 2102TIP3   OH227864   3.050   4.526   1.310
 2102TIP3    H127865   3.119   4.538   1.375
 2102TIP3    H227866   3.029   4.615   1.280
 2103TIP3   OH227867   6.635   2.759   1.651
 2103TIP3    H127868   6.644   2.836   1.707
 2103TIP3    H227869   6.725   2.729   1.637
 2104TIP3   OH227870   6.783   2.617   8.642
 2104TIP3    H127871   6.724   2.568   8.585
 2104TIP3    H227872   0.035   2.644   8.586
 2105TIP3   OH227873   3.677   6.701   1.382
 2105TIP3    H127874   3.718   6.769   1.328
 2105TIP3    H227875   3.695   6.727   1.472
 2106TIP3   OH227876   6.046   3.917   1.457
 2106TIP3    H127877   6.055   3.842   1.398
 2106TIP3    H227878   5.957   3.910   1.491
 2107TIP3   OH227879   0.425   2.888   6.667
 2107TIP3    H127880   0.408   2.973   6.707
 2107TIP3    H227881   0.500   2.904   6.609
 2108TIP3   OH227882   5.344   2.449   1.184
 2108TIP3    H127883   5.348   2.419   1.275
 2108TIP3    H227884   5.435   2.470   1.162
 2109TIP3   OH227885   5.587   4.430   0.388
 2109TIP3    H127886   5.578   4.454   0.296
 2109TIP3    H227887   5.639   4.350   0.387
 2110TIP3   OH227888   5.314   1.784   0.697
 2110TIP3    H127889   5.313   1.861   0.753
 2110TIP3    H227890   5.384   1.801   0.634
 2111TIP3   OH227891   4.497   0.718   1.696
 2111TIP3    H127892   4.420   0.727   1.641
 2111TIP3    H227893   4.535   0.806   1.699
 2112TIP3   OH227894   1.082   2.928   6.345
 2112TIP3    H127895   1.104   3.012   6.303
 2112TIP3    H227896   0.987   2.923   6.340
 2113TIP3   OH227897   2.853   3.929   0.356
 2113TIP3    H127898   2.921   3.993   0.336
 2113TIP3    H227899   2.882   3.849   0.312
 2114TIP3   OH227900   2.115   4.685   1.144
 2114TIP3    H127901   2.055   4.670   1.217
 2114TIP3    H227902   2.104   4.609   1.087
 2115TIP3   OH227903   1.226   1.634   1.288
 2115TIP3    H127904   1.318   1.660   1.286
 2115TIP3    H227905   1.181   1.709   1.326
 2116TIP3   OH227906   2.956   1.533   0.512
 2116TIP3    H127907   2.947   1.560   0.420
 2116TIP3    H227908   3.003   1.604   0.554
 2117TIP3   OH227909   4.183   3.242   1.599
 2117TIP3    H127910   4.182   3.266   1.691
 2117TIP3    H227911   4.266   3.277   1.565
 2118TIP3   OH227912   6.288   2.064   7.658
 2118TIP3    H127913   6.365   2.099   7.613
 2118TIP3    H227914   6.319   1.985   7.702
 2119TIP3   OH227915   4.629   0.829   0.893
 2119TIP3    H127916   4.703   0.772   0.873
 2119TIP3    H227917   4.667   0.901   0.943
 2120TIP3   OH227918   0.070   0.755   7.847
 2120TIP3    H127919   6.814   0.722   7.895
 2120TIP3    H227920   0.145   0.714   7.889
 2121TIP3   OH227921   3.270   1.883   7.960
 2121TIP3    H127922   3.254   1.812   8.023
 2121TIP3    H227923   3.270   1.962   8.014
 2122TIP3   OH227924   0.377   2.163   0.636
 2122TIP3    H127925   0.341   2.184   0.549
 2122TIP3    H227926   0.376   2.067   0.639
 2123TIP3   OH227927   4.632   5.439   0.298
 2123TIP3    H127928   4.640   5.419   0.205
 2123TIP3    H227929   4.623   5.535   0.301
 2124TIP3   OH227930   2.329   6.583   7.100
 2124TIP3    H127931   2.235   6.601   7.104
 2124TIP3    H227932   2.359   6.596   7.190
 2125TIP3   OH227933   4.411   5.530   8.363
 2125TIP3    H127934   4.347   5.596   8.337
 2125TIP3    H227935   4.468   5.520   8.287
 2126TIP3   OH227936   4.954   0.106   7.211
 2126TIP3    H127937   4.886   0.173   7.205
 2126TIP3    H227938   4.979   0.089   7.120
 2127TIP3   OH227939   5.614   0.055   0.672
 2127TIP3    H127940   5.561   6.811   0.624
 2127TIP3    H227941   5.604   0.137   0.622
 2128TIP3   OH227942   3.781   5.148   8.409
 2128TIP3    H127943   3.830   5.221   8.447
 2128TIP3    H227944   3.739   5.106   8.484
 2129TIP3   OH227945   4.129   0.611   8.614
 2129TIP3    H127946   4.078   0.668   8.671
 2129TIP3    H227947   4.210   0.659   8.596
 2130TIP3   OH227948   0.022   2.093   0.978
 2130TIP3    H127949   0.023   2.174   0.926
 2130TIP3    H227950   6.786   2.033   0.928
 2131TIP3   OH227951   1.346   4.239   7.691
 2131TIP3    H127952   1.414   4.260   7.628
 2131TIP3    H227953   1.280   4.307   7.680
 2132TIP3   OH227954   2.311   3.755   8.367
 2132TIP3    H127955   2.364   3.824   8.407
 2132TIP3    H227956   2.231   3.799   8.339
 2133TIP3   OH227957   2.274   0.936   0.730
 2133TIP3    H127958   2.194   0.923   0.780
 2133TIP3    H227959   2.323   0.854   0.742
 2134TIP3   OH227960   0.385   5.050   0.071
 2134TIP3    H127961   0.369   5.000   0.151
 2134TIP3    H227962   0.327   5.010   0.006
 2135TIP3   OH227963   2.275   1.784   1.028
 2135TIP3    H127964   2.218   1.851   1.067
 2135TIP3    H227965   2.218   1.734   0.971
 2136TIP3   OH227966   6.529   0.910   0.285
 2136TIP3    H127967   6.459   0.893   0.223
 2136TIP3    H227968   6.593   0.841   0.268
 2137TIP3   OH227969   0.355   1.867   0.643
 2137TIP3    H127970   0.343   1.848   0.736
 2137TIP3    H227971   0.442   1.833   0.623
 2138TIP3   OH227972   1.635   4.221   6.993
 2138TIP3    H127973   1.674   4.138   6.963
 2138TIP3    H227974   1.541   4.211   6.974
 2139TIP3   OH227975   0.581   6.333   1.465
 2139TIP3    H127976   0.533   6.295   1.392
 2139TIP3    H227977   0.516   6.342   1.535
 2140TIP3   OH227978   5.070   3.744   2.077
 2140TIP3    H127979   5.129   3.720   2.149
 2140TIP3    H227980   5.115   3.815   2.032
 2141TIP3   OH227981   0.744   0.016   0.897
 2141TIP3    H127982   0.707   6.770   0.838
 2141TIP3    H227983   0.839   0.008   0.885
 2142TIP3   OH227984   5.490   3.633   6.618
 2142TIP3    H127985   5.575   3.638   6.663
 2142TIP3    H227986   5.507   3.578   6.541
 2143TIP3   OH227987   6.037   2.361   0.775
 2143TIP3    H127988   6.087   2.439   0.800
 2143TIP3    H227989   6.100   2.303   0.734
 2144TIP3   OH227990   0.715   5.063   1.882
 2144TIP3    H127991   0.756   5.149   1.895
 2144TIP3    H227992   0.636   5.082   1.832
 2145TIP3   OH227993   4.518   1.660   7.304
 2145TIP3    H127994   4.483   1.647   7.392
 2145TIP3    H227995   4.612   1.666   7.316
 2146TIP3   OH227996   4.430   1.415   1.151
 2146TIP3    H127997   4.452   1.508   1.162
 2146TIP3    H227998   4.373   1.395   1.225
 2147TIP3   OH227999   1.567   5.925   7.298
 2147TIP3    H128000   1.504   5.930   7.371
 2147TIP3    H228001   1.522   5.968   7.225
 2148TIP3   OH228002   0.687   1.115   7.870
 2148TIP3    H128003   0.769   1.082   7.905
 2148TIP3    H228004   0.687   1.208   7.891
 2149TIP3   OH228005   1.096   5.260   8.116
 2149TIP3    H128006   1.071   5.348   8.086
 2149TIP3    H228007   1.180   5.243   8.072
 2150TIP3   OH228008   0.158   6.509   0.751
 2150TIP3    H128009   0.251   6.512   0.731
 2150TIP3    H228010   0.122   6.444   0.690
 2151TIP3   OH228011   6.788   2.020   6.836
 2151TIP3    H128012   0.062   2.020   6.818
 2151TIP3    H228013   6.760   2.109   6.817
 2152TIP3   OH228014   5.574   0.319   0.632
 2152TIP3    H128015   5.668   0.332   0.621
 2152TIP3    H228016   5.552   0.373   0.708
 2153TIP3   OH228017   4.911   2.140   8.595
 2153TIP3    H128018   4.923   2.145   8.500
 2153TIP3    H228019   4.879   2.227   8.620
 2154TIP3   OH228020   4.810   3.698   0.153
 2154TIP3    H128021   4.714   3.701   0.148
 2154TIP3    H228022   4.837   3.658   0.070
 2155TIP3   OH228023   1.415   1.997   6.633
 2155TIP3    H128024   1.404   2.078   6.684
 2155TIP3    H228025   1.373   1.930   6.687
 2156TIP3   OH228026   0.466   4.836   8.001
 2156TIP3    H128027   0.560   4.822   7.991
 2156TIP3    H228028   0.457   4.931   8.005
 2157TIP3   OH228029   6.812   3.841   7.466
 2157TIP3    H128030   0.057   3.910   7.449
 2157TIP3    H228031   6.803   3.841   7.562
 2158TIP3   OH228032   5.352   0.784   6.739
 2158TIP3    H128033   5.263   0.759   6.715
 2158TIP3    H228034   5.407   0.716   6.700
 2159TIP3   OH228035   6.388   3.166   1.808
 2159TIP3    H128036   6.330   3.126   1.743
 2159TIP3    H228037   6.389   3.259   1.784
 2160TIP3   OH228038   1.482   2.617   8.718
 2160TIP3    H128039   1.454   2.594   0.007
 2160TIP3    H228040   1.578   2.617   8.723
 2161TIP3   OH228041   2.816   2.973   8.361
 2161TIP3    H128042   2.762   3.028   8.418
 2161TIP3    H228043   2.776   2.981   8.274
 2162TIP3   OH228044   6.280   6.624   0.310
 2162TIP3    H128045   6.266   6.696   0.371
 2162TIP3    H228046   6.370   6.634   0.280
 2163TIP3   OH228047   1.416   1.544   0.969
 2163TIP3    H128048   1.343   1.605   0.981
 2163TIP3    H228049   1.445   1.559   0.879
 2164TIP3   OH228050   5.436   3.721   0.526
 2164TIP3    H128051   5.437   3.816   0.515
 2164TIP3    H228052   5.343   3.697   0.524
 2165TIP3   OH228053   2.250   4.491   6.830
 2165TIP3    H128054   2.269   4.547   6.905
 2165TIP3    H228055   2.161   4.514   6.805
 2166TIP3   OH228056   4.923   0.691   7.795
 2166TIP3    H128057   4.872   0.709   7.716
 2166TIP3    H228058   4.958   0.776   7.821
 2167TIP3   OH228059   2.640   4.299   1.196
 2167TIP3    H128060   2.631   4.245   1.118
 2167TIP3    H228061   2.553   4.336   1.210
 2168TIP3   OH228062   3.954   4.062   8.643
 2168TIP3    H128063   3.935   4.143   8.595
 2168TIP3    H228064   3.902   3.995   8.600
 2169TIP3   OH228065   1.959   5.977   0.338
 2169TIP3    H128066   1.959   5.891   0.296
 2169TIP3    H228067   1.868   5.989   0.366
 2170TIP3   OH228068   0.604   4.126   0.962
 2170TIP3    H128069   0.621   4.174   1.044
 2170TIP3    H228070   0.509   4.128   0.953
 2171TIP3   OH228071   6.557   0.421   2.373
 2171TIP3    H128072   6.498   0.374   2.431
 2171TIP3    H228073   6.644   0.405   2.411
 2172TIP3   OH228074   2.464   5.199   7.007
 2172TIP3    H128075   2.520   5.125   6.983
 2172TIP3    H228076   2.454   5.192   7.102
 2173TIP3   OH228077   3.790   3.127   8.778
 2173TIP3    H128078   3.822   3.151   0.064
 2173TIP3    H228079   3.815   3.035   8.768
 2174TIP3   OH228080   1.931   1.837   7.532
 2174TIP3    H128081   1.885   1.758   7.504
 2174TIP3    H228082   1.870   1.909   7.512
 2175TIP3   OH228083   5.150   5.647   0.668
 2175TIP3    H128084   5.192   5.574   0.714
 2175TIP3    H228085   5.058   5.619   0.659
 2176TIP3   OH228086   4.599   5.249   0.842
 2176TIP3    H128087   4.688   5.228   0.870
 2176TIP3    H228088   4.609   5.331   0.794
 2177TIP3   OH228089   1.103   2.347   1.408
 2177TIP3    H128090   1.147   2.429   1.429
 2177TIP3    H228091   1.068   2.316   1.492
 2178TIP3   OH228092   2.914   4.779   1.171
 2178TIP3    H128093   2.828   4.799   1.207
 2178TIP3    H228094   2.900   4.771   1.076
 2179TIP3   OH228095   1.186   2.695   7.651
 2179TIP3    H128096   1.104   2.650   7.629
 2179TIP3    H228097   1.252   2.650   7.599
 2180TIP3   OH228098   0.179   2.734   7.221
 2180TIP3    H128099   0.111   2.757   7.285
 2180TIP3    H228100   0.134   2.739   7.136
 2181TIP3   OH228101   0.752   1.409   6.697
 2181TIP3    H128102   0.709   1.330   6.731
 2181TIP3    H228103   0.758   1.467   6.773
 2182TIP3   OH228104   5.511   5.678   8.225
 2182TIP3    H128105   5.581   5.718   8.277
 2182TIP3    H228106   5.544   5.682   8.135
 2183TIP3   OH228107   3.506   0.351   7.091
 2183TIP3    H128108   3.569   0.419   7.068
 2183TIP3    H228109   3.531   0.277   7.036
 2184TIP3   OH228110   0.751   3.208   2.428
 2184TIP3    H128111   0.702   3.129   2.403
 2184TIP3    H228112   0.683   3.270   2.456
 2185TIP3   OH228113   5.320   3.024   7.887
 2185TIP3    H128114   5.309   3.091   7.955
 2185TIP3    H228115   5.234   3.015   7.847
 2186TIP3   OH228116   4.636   6.572   1.432
 2186TIP3    H128117   4.609   6.663   1.427
 2186TIP3    H228118   4.612   6.535   1.347
 2187TIP3   OH228119   5.369   1.554   0.089
 2187TIP3    H128120   5.410   1.567   0.175
 2187TIP3    H228121   5.427   1.493   0.044
 2188TIP3   OH228122   4.313   2.944   8.714
 2188TIP3    H128123   4.319   2.905   0.000
 2188TIP3    H228124   4.404   2.948   8.683
 2189TIP3   OH228125   5.234   3.949   1.476
 2189TIP3    H128126   5.271   3.910   1.555
 2189TIP3    H228127   5.153   3.901   1.461
 2190TIP3   OH228128   6.278   6.636   1.409
 2190TIP3    H128129   6.215   6.698   1.445
 2190TIP3    H228130   6.278   6.652   1.315
 2191TIP3   OH228131   0.478   0.882   8.707
 2191TIP3    H128132   0.553   0.929   8.672
 2191TIP3    H228133   0.456   0.817   8.640
 2192TIP3   OH228134   0.464   6.211   8.255
 2192TIP3    H128135   0.388   6.202   8.312
 2192TIP3    H228136   0.537   6.179   8.308
 2193TIP3   OH228137   1.043   2.391   8.708
 2193TIP3    H128138   1.014   2.481   8.719
 2193TIP3    H228139   0.994   2.342   8.774
 2194TIP3   OH228140   5.852   3.153   2.033
 2194TIP3    H128141   5.845   3.142   2.127
 2194TIP3    H228142   5.790   3.223   2.012
 2195TIP3   OH228143   3.379   2.873   1.360
 2195TIP3    H128144   3.400   2.947   1.302
 2195TIP3    H228145   3.331   2.912   1.433
 2196TIP3   OH228146   0.226   4.923   7.744
 2196TIP3    H128147   0.298   4.982   7.722
 2196TIP3    H228148   0.147   4.971   7.721
 2197TIP3   OH228149   6.184   1.436   1.044
 2197TIP3    H128150   6.089   1.425   1.044
 2197TIP3    H228151   6.201   1.497   0.972
 2198TIP3   OH228152   6.250   6.677   7.483
 2198TIP3    H128153   6.168   6.628   7.478
 2198TIP3    H228154   6.289   6.667   7.396
 2199TIP3   OH228155   5.352   5.590   1.178
 2199TIP3    H128156   5.276   5.628   1.221
 2199TIP3    H228157   5.414   5.573   1.249
 2200TIP3   OH228158   2.944   1.717   0.904
 2200TIP3    H128159   3.029   1.712   0.947
 2200TIP3    H228160   2.948   1.798   0.853
 2201TIP3   OH228161   1.099   0.518   8.440
 2201TIP3    H128162   1.121   0.461   8.514
 2201TIP3    H228163   1.180   0.526   8.390
 2202TIP3   OH228164   3.092   4.817   1.660
 2202TIP3    H128165   3.158   4.768   1.609
 2202TIP3    H228166   3.061   4.754   1.725
 2203TIP3   OH228167   2.856   5.213   1.934
 2203TIP3    H128168   2.894   5.156   1.868
 2203TIP3    H228169   2.794   5.268   1.886
 2204TIP3   OH228170   3.686   3.691   6.746
 2204TIP3    H128171   3.625   3.762   6.725
 2204TIP3    H228172   3.722   3.665   6.662
 2205TIP3   OH228173   1.633   5.833   1.068
 2205TIP3    H128174   1.719   5.803   1.039
 2205TIP3    H228175   1.576   5.817   0.993
 2206TIP3   OH228176   0.686   3.618   8.666
 2206TIP3    H128177   0.683   3.596   8.573
 2206TIP3    H228178   0.779   3.631   8.685
 2207TIP3   OH228179   0.452   6.643   0.793
 2207TIP3    H128180   0.415   6.724   0.756
 2207TIP3    H228181   0.400   6.626   0.871
 2208TIP3   OH228182   0.145   0.566   0.596
 2208TIP3    H128183   0.126   0.517   0.676
 2208TIP3    H228184   0.238   0.587   0.603
 2209TIP3   OH228185   5.719   5.171   0.778
 2209TIP3    H128186   5.713   5.105   0.708
 2209TIP3    H228187   5.766   5.127   0.848
 2210TIP3   OH228188   1.405   0.121   2.059
 2210TIP3    H128189   1.381   0.213   2.053
 2210TIP3    H228190   1.466   0.117   2.133
 2211TIP3   OH228191   4.254   2.286   8.475
 2211TIP3    H128192   4.192   2.335   8.530
 2211TIP3    H228193   4.268   2.204   8.523
 2212TIP3   OH228194   4.379   4.364   0.404
 2212TIP3    H128195   4.324   4.441   0.416
 2212TIP3    H228196   4.413   4.372   0.315
 2213TIP3   OH228197   1.243   4.039   7.508
 2213TIP3    H128198   1.264   4.037   7.414
 2213TIP3    H228199   1.326   4.057   7.551
 2214TIP3   OH228200   0.988   0.382   1.142
 2214TIP3    H128201   1.031   0.444   1.202
 2214TIP3    H228202   1.023   0.296   1.168
 2215TIP3   OH228203   6.036   2.601   8.668
 2215TIP3    H128204   6.072   2.563   8.588
 2215TIP3    H228205   5.969   2.539   8.696
 2216TIP3   OH228206   0.176   3.775   1.111
 2216TIP3    H128207   0.201   3.838   1.043
 2216TIP3    H228208   0.141   3.829   1.182
 2217TIP3   OH228209   0.819   5.490   0.973
 2217TIP3    H128210   0.839   5.434   0.899
 2217TIP3    H228211   0.841   5.437   1.050
 2218TIP3   OH228212   5.190   2.476   1.409
 2218TIP3    H128213   5.179   2.411   1.478
 2218TIP3    H228214   5.125   2.452   1.343
 2219TIP3   OH228215   2.212   0.712   7.283
 2219TIP3    H128216   2.206   0.808   7.283
 2219TIP3    H228217   2.209   0.688   7.376
 2220TIP3   OH228218   6.515   6.583   1.818
 2220TIP3    H128219   6.548   6.610   1.733
 2220TIP3    H228220   6.487   6.665   1.859
 2221TIP3   OH228221   5.441   2.143   8.237
 2221TIP3    H128222   5.421   2.174   8.325
 2221TIP3    H228223   5.509   2.078   8.249
 2222TIP3   OH228224   0.369   1.474   7.230
 2222TIP3    H128225   0.324   1.397   7.194
 2222TIP3    H228226   0.361   1.540   7.161
 2223TIP3   OH228227   6.711   5.261   0.708
 2223TIP3    H128228   6.717   5.167   0.690
 2223TIP3    H228229   6.702   5.266   0.803
 2224TIP3   OH228230   5.936   6.368   0.850
 2224TIP3    H128231   5.954   6.290   0.902
 2224TIP3    H228232   5.912   6.434   0.915
 2225TIP3   OH228233   3.142   2.479   8.417
 2225TIP3    H128234   3.238   2.475   8.420
 2225TIP3    H228235   3.117   2.520   8.500
 2226TIP3   OH228236   4.286   1.312   2.151
 2226TIP3    H128237   4.321   1.292   2.064
 2226TIP3    H228238   4.364   1.329   2.205
 2227TIP3   OH228239   0.147   5.035   0.308
 2227TIP3    H128240   0.152   5.115   0.256
 2227TIP3    H228241   0.065   4.993   0.280
 2228TIP3   OH228242   5.772   3.915   0.424
 2228TIP3    H128243   5.776   3.934   0.518
 2228TIP3    H228244   5.694   3.860   0.414
 2229TIP3   OH228245   6.544   6.167   8.558
 2229TIP3    H128246   6.598   6.224   8.503
 2229TIP3    H228247   6.580   6.080   8.545
 2230TIP3   OH228248   2.469   2.423   7.561
 2230TIP3    H128249   2.416   2.496   7.594
 2230TIP3    H228250   2.417   2.387   7.489
 2231TIP3   OH228251   3.661   5.485   7.770
 2231TIP3    H128252   3.693   5.495   7.680
 2231TIP3    H228253   3.677   5.393   7.791
 2232TIP3   OH228254   5.340   4.036   7.817
 2232TIP3    H128255   5.371   4.072   7.901
 2232TIP3    H228256   5.245   4.030   7.828
 2233TIP3   OH228257   5.694   4.758   7.297
 2233TIP3    H128258   5.622   4.699   7.318
 2233TIP3    H228259   5.681   4.834   7.355
 2234TIP3   OH228260   5.047   2.219   0.439
 2234TIP3    H128261   5.040   2.125   0.457
 2234TIP3    H228262   5.109   2.225   0.366
 2235TIP3   OH228263   2.685   0.539   8.604
 2235TIP3    H128264   2.686   0.509   8.513
 2235TIP3    H228265   2.601   0.585   8.614
 2236TIP3   OH228266   2.345   2.965   0.223
 2236TIP3    H128267   2.349   2.870   0.213
 2236TIP3    H228268   2.337   2.978   0.318
 2237TIP3   OH228269   3.005   4.298   8.359
 2237TIP3    H128270   2.971   4.270   8.444
 2237TIP3    H228271   2.928   4.324   8.309
 2238TIP3   OH228272   4.368   6.025   8.470
 2238TIP3    H128273   4.325   6.041   8.386
 2238TIP3    H228274   4.299   6.033   8.535
 2239TIP3   OH228275   2.604   2.193   6.482
 2239TIP3    H128276   2.685   2.235   6.512
 2239TIP3    H228277   2.534   2.250   6.514
 2240TIP3   OH228278   1.216   4.217   6.247
 2240TIP3    H128279   1.268   4.292   6.217
 2240TIP3    H228280   1.126   4.243   6.230
 2241TIP3   OH228281   4.825   2.284   1.211
 2241TIP3    H128282   4.857   2.197   1.186
 2241TIP3    H228283   4.904   2.339   1.211
 2242TIP3   OH228284   1.475   0.172   8.167
 2242TIP3    H128285   1.393   0.213   8.192
 2242TIP3    H228286   1.532   0.183   8.243
 2243TIP3   OH228287   6.424   4.232   0.584
 2243TIP3    H128288   6.344   4.182   0.602
 2243TIP3    H228289   6.429   4.237   0.489
 2244TIP3   OH228290   6.009   0.391   8.164
 2244TIP3    H128291   6.051   0.325   8.219
 2244TIP3    H228292   5.920   0.398   8.197
 2245TIP3   OH228293   1.802   0.473   1.218
 2245TIP3    H128294   1.814   0.419   1.296
 2245TIP3    H228295   1.717   0.447   1.183
 2246TIP3   OH228296   6.195   3.622   1.051
 2246TIP3    H128297   6.172   3.712   1.027
 2246TIP3    H228298   6.187   3.573   0.969
 2247TIP3   OH228299   6.023   4.668   7.057
 2247TIP3    H128300   6.078   4.735   7.016
 2247TIP3    H228301   6.007   4.701   7.145
 2248TIP3   OH228302   4.419   6.809   8.046
 2248TIP3    H128303   4.373   6.727   8.065
 2248TIP3    H228304   4.408   0.041   8.126
 2249TIP3   OH228305   5.663   3.338   1.967
 2249TIP3    H128306   5.640   3.428   1.992
 2249TIP3    H228307   5.584   3.305   1.924
 2250TIP3   OH228308   6.170   1.033   0.512
 2250TIP3    H128309   6.108   1.047   0.584
 2250TIP3    H228310   6.144   0.949   0.474
 2251TIP3   OH228311   3.097   5.842   7.596
 2251TIP3    H128312   3.140   5.927   7.607
 2251TIP3    H228313   3.004   5.863   7.593
 2252TIP3   OH228314   5.551   1.046   1.895
 2252TIP3    H128315   5.502   1.052   1.977
 2252TIP3    H228316   5.505   1.104   1.835
 2253TIP3   OH228317   1.770   5.337   0.521
 2253TIP3    H128318   1.822   5.305   0.595
 2253TIP3    H228319   1.685   5.295   0.531
 2254TIP3   OH228320   2.345   1.159   7.113
 2254TIP3    H128321   2.417   1.147   7.051
 2254TIP3    H228322   2.273   1.192   7.059
 2255TIP3   OH228323   4.347   4.548   0.850
 2255TIP3    H128324   4.410   4.616   0.874
 2255TIP3    H228325   4.279   4.594   0.801
 2256TIP3   OH228326   4.410   0.194   1.924
 2256TIP3    H128327   4.479   0.258   1.909
 2256TIP3    H228328   4.448   0.132   1.986
 2257TIP3   OH228329   2.370   2.670   0.298
 2257TIP3    H128330   2.464   2.654   0.304
 2257TIP3    H228331   2.338   2.599   0.242
 2258TIP3   OH228332   4.357   6.487   0.905
 2258TIP3    H128333   4.371   6.393   0.917
 2258TIP3    H228334   4.441   6.526   0.929
 2259TIP3   OH228335   3.480   0.572   0.707
 2259TIP3    H128336   3.417   0.614   0.648
 2259TIP3    H228337   3.433   0.560   0.789
 2260TIP3   OH228338   0.570   6.464   7.080
 2260TIP3    H128339   0.475   6.459   7.070
 2260TIP3    H228340   0.595   6.540   7.027
 2261TIP3   OH228341   5.873   3.158   0.394
 2261TIP3    H128342   5.910   3.071   0.377
 2261TIP3    H228343   5.801   3.166   0.331
 2262TIP3   OH228344   6.785   0.996   1.041
 2262TIP3    H128345   6.748   0.929   0.984
 2262TIP3    H228346   6.789   1.075   0.986
 2263TIP3   OH228347   5.967   0.598   2.224
 2263TIP3    H128348   6.034   0.644   2.172
 2263TIP3    H228349   5.900   0.574   2.160
 2264TIP3   OH228350   5.357   4.251   1.234
 2264TIP3    H128351   5.272   4.237   1.276
 2264TIP3    H228352   5.350   4.338   1.194
 2265TIP3   OH228353   0.161   6.026   0.756
 2265TIP3    H128354   0.204   6.111   0.751
 2265TIP3    H228355   0.068   6.046   0.769
 2266TIP3   OH228356   0.536   4.451   0.905
 2266TIP3    H128357   0.563   4.479   0.818
 2266TIP3    H228358   0.588   4.505   0.966
 2267TIP3   OH228359   3.697   2.452   7.844
 2267TIP3    H128360   3.654   2.406   7.773
 2267TIP3    H228361   3.717   2.384   7.908
 2268TIP3   OH228362   5.662   6.748   0.931
 2268TIP3    H128363   5.646   6.777   1.021
 2268TIP3    H228364   5.668   0.009   0.881
 2269TIP3   OH228365   5.493   0.291   7.332
 2269TIP3    H128366   5.543   0.366   7.301
 2269TIP3    H228367   5.550   0.249   7.396
 2270TIP3   OH228368   5.882   1.853   8.456
 2270TIP3    H128369   5.846   1.765   8.445
 2270TIP3    H228370   5.878   1.890   8.368
 2271TIP3   OH228371   1.993   5.308   1.630
 2271TIP3    H128372   2.061   5.253   1.590
 2271TIP3    H228373   1.996   5.286   1.723
 2272TIP3   OH228374   3.884   5.086   1.769
 2272TIP3    H128375   3.979   5.082   1.762
 2272TIP3    H228376   3.854   5.005   1.728
 2273TIP3   OH228377   2.846   5.993   0.417
 2273TIP3    H128378   2.795   5.970   0.495
 2273TIP3    H228379   2.913   5.925   0.412
 2274TIP3   OH228380   0.786   0.092   7.631
 2274TIP3    H128381   0.823   0.181   7.634
 2274TIP3    H228382   0.795   0.065   7.540
 2275TIP3   OH228383   5.311   0.243   7.877
 2275TIP3    H128384   5.354   0.274   7.797
 2275TIP3    H228385   5.296   0.150   7.861
 2276TIP3   OH228386   5.052   0.042   0.654
 2276TIP3    H128387   5.097   6.779   0.673
 2276TIP3    H228388   5.079   0.064   0.565
 2277TIP3   OH228389   5.225   2.130   2.756
 2277TIP3    H128390   5.231   2.222   2.782
 2277TIP3    H228391   5.134   2.119   2.728
 2278TIP3   OH228392   3.465   1.834   0.756
 2278TIP3    H128393   3.392   1.876   0.711
 2278TIP3    H228394   3.436   1.826   0.847
 2279TIP3   OH228395   3.105   3.489   0.343
 2279TIP3    H128396   3.176   3.431   0.316
 2279TIP3    H228397   3.142   3.540   0.415
 2280TIP3   OH228398   2.967   2.398   7.657
 2280TIP3    H128399   2.912   2.446   7.719
 2280TIP3    H228400   3.015   2.465   7.609
 2281TIP3   OH228401   3.544   4.998   8.451
 2281TIP3    H128402   3.539   4.936   8.524
 2281TIP3    H228403   3.480   5.065   8.472
 2282TIP3   OH228404   4.733   0.387   1.364
 2282TIP3    H128405   4.700   0.463   1.316
 2282TIP3    H228406   4.812   0.418   1.407
 2283TIP3   OH228407   1.649   0.800   0.673
 2283TIP3    H128408   1.670   0.734   0.606
 2283TIP3    H228409   1.689   0.881   0.639
 2284TIP3   OH228410   4.006   0.438   7.736
 2284TIP3    H128411   4.091   0.423   7.776
 2284TIP3    H228412   3.979   0.352   7.704
 2285TIP3   OH228413   4.278   5.219   1.524
 2285TIP3    H128414   4.363   5.215   1.569
 2285TIP3    H228415   4.221   5.163   1.575
 2286TIP3   OH228416   5.518   4.024   1.199
 2286TIP3    H128417   5.467   4.104   1.214
 2286TIP3    H228418   5.561   4.039   1.115
 2287TIP3   OH228419   1.076   2.178   0.700
 2287TIP3    H128420   1.077   2.273   0.711
 2287TIP3    H228421   1.062   2.164   0.606
 2288TIP3   OH228422   0.011   0.817   0.553
 2288TIP3    H128423   6.811   0.778   0.468
 2288TIP3    H228424   0.063   0.750   0.598
 2289TIP3   OH228425   3.554   0.960   7.817
 2289TIP3    H128426   3.471   0.956   7.770
 2289TIP3    H228427   3.543   0.898   7.890
 2290TIP3   OH228428   4.121   6.452   2.145
 2290TIP3    H128429   4.095   6.407   2.065
 2290TIP3    H228430   4.194   6.509   2.118
 2291TIP3   OH228431   1.788   3.592   8.081
 2291TIP3    H128432   1.862   3.571   8.024
 2291TIP3    H228433   1.779   3.687   8.074
 2292TIP3   OH228434   6.160   6.249   8.237
 2292TIP3    H128435   6.156   6.221   8.145
 2292TIP3    H228436   6.254   6.250   8.257
 2293TIP3   OH228437   6.203   0.782   8.557
 2293TIP3    H128438   6.217   0.793   8.463
 2293TIP3    H228439   6.182   0.689   8.567
 2294TIP3   OH228440   0.268   3.948   0.891
 2294TIP3    H128441   0.227   4.013   0.834
 2294TIP3    H228442   0.361   3.973   0.893
 2295TIP3   OH228443   4.259   6.529   8.590
 2295TIP3    H128444   4.164   6.529   8.578
 2295TIP3    H228445   4.288   6.447   8.552
 2296TIP3   OH228446   4.328   2.456   0.946
 2296TIP3    H128447   4.417   2.476   0.918
 2296TIP3    H228448   4.305   2.377   0.897
 2297TIP3   OH228449   2.840   0.036   0.604
 2297TIP3    H128450   2.832   6.760   0.607
 2297TIP3    H228451   2.754   0.068   0.632
 2298TIP3   OH228452   6.099   3.829   7.988
 2298TIP3    H128453   6.102   3.918   7.951
 2298TIP3    H228454   6.087   3.772   7.912
 2299TIP3   OH228455   2.083   4.301   8.613
 2299TIP3    H128456   2.108   4.296   8.521
 2299TIP3    H228457   2.088   4.211   8.645
 2300TIP3   OH228458   2.606   4.967   6.949
 2300TIP3    H128459   2.619   4.876   6.976
 2300TIP3    H228460   2.693   4.995   6.919
 2301TIP3   OH228461   1.673   5.263   8.431
 2301TIP3    H128462   1.720   5.183   8.406
 2301TIP3    H228463   1.740   5.330   8.435
 2302TIP3   OH228464   0.305   6.572   6.929
 2302TIP3    H128465   0.315   6.661   6.962
 2302TIP3    H228466   0.277   6.521   7.005
 2303TIP3   OH228467   0.983   4.918   7.936
 2303TIP3    H128468   1.020   4.971   7.866
 2303TIP3    H228469   1.057   4.901   7.995
 2304TIP3   OH228470   3.513   1.029   0.602
 2304TIP3    H128471   3.485   0.972   0.530
 2304TIP3    H228472   3.608   1.023   0.601
 2305TIP3   OH228473   0.526   2.394   0.708
 2305TIP3    H128474   0.470   2.332   0.661
 2305TIP3    H228475   0.516   2.477   0.661
 2306TIP3   OH228476   1.851   3.022   8.549
 2306TIP3    H128477   1.816   3.110   8.562
 2306TIP3    H228478   1.934   3.022   8.596
 2307TIP3   OH228479   3.979   4.654   7.667
 2307TIP3    H128480   3.899   4.684   7.710
 2307TIP3    H228481   3.978   4.697   7.581
 2308TIP3   OH228482   4.298   6.524   7.289
 2308TIP3    H128483   4.230   6.531   7.222
 2308TIP3    H228484   4.257   6.477   7.361
 2309TIP3   OH228485   1.695   4.268   6.213
 2309TIP3    H128486   1.669   4.359   6.201
 2309TIP3    H228487   1.788   4.267   6.189
 2310TIP3   OH228488   6.288   5.921   7.909
 2310TIP3    H128489   6.215   5.888   7.856
 2310TIP3    H228490   6.315   6.002   7.865
 2311TIP3   OH228491   5.173   4.703   7.266
 2311TIP3    H128492   5.217   4.724   7.184
 2311TIP3    H228493   5.130   4.619   7.251
 2312TIP3   OH228494   6.233   0.910   1.119
 2312TIP3    H128495   6.206   0.999   1.097
 2312TIP3    H228496   6.184   0.854   1.058
 2313TIP3   OH228497   0.159   4.863   8.042
 2313TIP3    H128498   0.077   4.882   7.997
 2313TIP3    H228499   0.156   4.915   8.122
 2314TIP3   OH228500   3.350   2.302   1.441
 2314TIP3    H128501   3.387   2.218   1.415
 2314TIP3    H228502   3.417   2.366   1.417
 2315TIP3   OH228503   1.714   3.910   8.709
 2315TIP3    H128504   1.743   3.833   8.659
 2315TIP3    H228505   1.720   3.983   8.647
 2316TIP3   OH228506   6.514   5.222   2.479
 2316TIP3    H128507   6.460   5.166   2.423
 2316TIP3    H228508   6.602   5.184   2.473
 2317TIP3   OH228509   0.196   3.775   0.098
 2317TIP3    H128510   0.165   3.775   0.008
 2317TIP3    H228511   0.142   3.841   0.142
 2318TIP3   OH228512   6.245   1.557   0.269
 2318TIP3    H128513   6.248   1.467   0.303
 2318TIP3    H228514   6.175   1.599   0.319
 2319TIP3   OH228515   5.869   5.553   2.212
 2319TIP3    H128516   5.833   5.640   2.193
 2319TIP3    H228517   5.808   5.516   2.276
 2320TIP3   OH228518   0.974   3.812   0.086
 2320TIP3    H128519   1.043   3.877   0.072
 2320TIP3    H228520   0.963   3.770   0.001
 2321TIP3   OH228521   1.784   5.712   0.542
 2321TIP3    H128522   1.714   5.657   0.580
 2321TIP3    H228523   1.770   5.798   0.581
 2322TIP3   OH228524   4.213   0.110   8.553
 2322TIP3    H128525   4.277   0.045   8.523
 2322TIP3    H228526   4.128   0.065   8.548
 2323TIP3   OH228527   1.263   0.513   8.682
 2323TIP3    H128528   1.182   0.553   8.714
 2323TIP3    H228529   1.329   0.536   8.748
 2324TIP3   OH228530   1.973   1.337   0.118
 2324TIP3    H128531   2.046   1.331   0.057
 2324TIP3    H228532   1.926   1.416   0.092
 2325TIP3   OH228533   2.503   4.803   6.357
 2325TIP3    H128534   2.461   4.722   6.386
 2325TIP3    H228535   2.441   4.841   6.295
 2326TIP3   OH228536   0.615   0.085   0.405
 2326TIP3    H128537   0.640   0.113   0.317
 2326TIP3    H228538   0.541   0.141   0.428
 2327TIP3   OH228539   0.997   3.262   7.037
 2327TIP3    H128540   1.045   3.283   6.957
 2327TIP3    H228541   1.065   3.255   7.104
 2328TIP3   OH228542   0.753   5.313   7.549
 2328TIP3    H128543   0.706   5.395   7.565
 2328TIP3    H228544   0.794   5.292   7.633
 2329TIP3   OH228545   4.113   3.349   7.116
 2329TIP3    H128546   4.188   3.338   7.058
 2329TIP3    H228547   4.117   3.441   7.142
 2330TIP3   OH228548   4.700   2.774   1.682
 2330TIP3    H128549   4.640   2.732   1.621
 2330TIP3    H228550   4.733   2.850   1.634
 2331TIP3   OH228551   0.545   2.774   0.801
 2331TIP3    H128552   0.604   2.776   0.725
 2331TIP3    H228553   0.491   2.852   0.792
 2332TIP3   OH228554   2.166   5.698   7.581
 2332TIP3    H128555   2.117   5.764   7.531
 2332TIP3    H228556   2.192   5.633   7.516
 2333TIP3   OH228557   1.679   4.031   1.844
 2333TIP3    H128558   1.653   4.046   1.935
 2333TIP3    H228559   1.758   3.977   1.851
 2334TIP3   OH228560   2.822   2.994   6.642
 2334TIP3    H128561   2.912   3.023   6.652
 2334TIP3    H228562   2.793   3.035   6.560
 2335TIP3   OH228563   0.316   3.001   0.117
 2335TIP3    H128564   0.329   2.909   0.091
 2335TIP3    H228565   0.312   3.048   0.034
 2336TIP3   OH228566   2.072   2.872   1.398
 2336TIP3    H128567   2.142   2.937   1.404
 2336TIP3    H228568   2.098   2.802   1.458
 2337TIP3   OH228569   6.548   3.804   8.448
 2337TIP3    H128570   6.460   3.766   8.444
 2337TIP3    H228571   6.543   3.868   8.519
 2338TIP3   OH228572   4.480   1.108   1.657
 2338TIP3    H128573   4.522   1.058   1.727
 2338TIP3    H228574   4.474   1.197   1.691
 2339TIP3   OH228575   3.740   3.425   7.375
 2339TIP3    H128576   3.797   3.397   7.447
 2339TIP3    H228577   3.741   3.352   7.313
 2340TIP3   OH228578   3.988   1.282   0.808
 2340TIP3    H128579   3.929   1.308   0.738
 2340TIP3    H228580   3.962   1.192   0.829
 2341TIP3   OH228581   6.284   1.842   0.761
 2341TIP3    H128582   6.286   1.749   0.785
 2341TIP3    H228583   6.298   1.842   0.666
 2342TIP3   OH228584   6.057   1.283   7.540
 2342TIP3    H128585   6.056   1.203   7.488
 2342TIP3    H228586   5.967   1.294   7.569
 2343TIP3   OH228587   6.599   1.287   1.385
 2343TIP3    H128588   6.671   1.223   1.391
 2343TIP3    H228589   6.643   1.371   1.372
 2344TIP3   OH228590   4.360   4.732   0.477
 2344TIP3    H128591   4.375   4.742   0.383
 2344TIP3    H228592   4.434   4.776   0.518
 2345TIP3   OH228593   3.003   4.855   2.004
 2345TIP3    H128594   2.999   4.929   1.944
 2345TIP3    H228595   3.009   4.778   1.948
 2346TIP3   OH228596   4.351   6.444   0.047
 2346TIP3    H128597   4.349   6.357   0.009
 2346TIP3    H228598   4.345   6.503   8.772
 2347TIP3   OH228599   5.242   4.544   0.554
 2347TIP3    H128600   5.185   4.494   0.613
 2347TIP3    H228601   5.224   4.508   0.467
 2348TIP3   OH228602   1.686   0.088   1.057
 2348TIP3    H128603   1.709   0.163   1.003
 2348TIP3    H228604   1.762   0.074   1.114
 2349TIP3   OH228605   4.381   2.972   0.798
 2349TIP3    H128606   4.317   2.906   0.824
 2349TIP3    H228607   4.441   2.925   0.739
 2350TIP3   OH228608   2.633   0.158   0.779
 2350TIP3    H128609   2.616   0.216   0.853
 2350TIP3    H228610   2.583   0.078   0.799
 2351TIP3   OH228611   4.719   2.923   0.798
 2351TIP3    H128612   4.650   2.932   0.864
 2351TIP3    H228613   4.744   3.013   0.777
 2352TIP3   OH228614   6.731   6.116   7.192
 2352TIP3    H128615   6.647   6.132   7.235
 2352TIP3    H228616   6.792   6.099   7.264
 2353TIP3   OH228617   0.494   1.668   2.050
 2353TIP3    H128618   0.583   1.693   2.026
 2353TIP3    H228619   0.504   1.621   2.133
 2354TIP3   OH228620   6.090   5.158   1.973
 2354TIP3    H128621   6.060   5.201   2.054
 2354TIP3    H228622   6.096   5.065   1.996
 2355TIP3   OH228623   6.819   2.101   0.599
 2355TIP3    H128624   0.042   2.046   0.665
 2355TIP3    H228625   0.013   2.054   0.517
 2356TIP3   OH228626   3.308   0.025   6.757
 2356TIP3    H128627   3.312   0.021   6.852
 2356TIP3    H228628   3.215   0.030   6.737
 2357TIP3   OH228629   5.587   2.170   8.765
 2357TIP3    H128630   5.591   2.235   8.695
 2357TIP3    H228631   5.666   2.117   8.753
 2358TIP3   OH228632   4.544   6.751   8.779
 2358TIP3    H128633   4.559   6.801   8.699
 2358TIP3    H228634   4.603   6.791   0.043
 2359TIP3   OH228635   1.883   5.385   7.690
 2359TIP3    H128636   1.950   5.451   7.706
 2359TIP3    H228637   1.810   5.411   7.745
 2360TIP3   OH228638   1.998   2.391   6.731
 2360TIP3    H128639   1.967   2.326   6.668
 2360TIP3    H228640   2.045   2.340   6.797
 2361TIP3   OH228641   5.080   5.184   0.775
 2361TIP3    H128642   5.085   5.275   0.807
 2361TIP3    H228643   5.164   5.169   0.733
 2362TIP3   OH228644   2.263   0.429   1.640
 2362TIP3    H128645   2.308   0.513   1.633
 2362TIP3    H228646   2.289   0.394   1.725
 2363TIP3   OH228647   3.795   6.117   8.752
 2363TIP3    H128648   3.789   6.027   8.785
 2363TIP3    H228649   3.786   6.172   0.030
 2364TIP3   OH228650   4.183   4.481   7.744
 2364TIP3    H128651   4.182   4.398   7.696
 2364TIP3    H228652   4.118   4.535   7.700
 2365TIP3   OH228653   6.487   6.406   1.133
 2365TIP3    H128654   6.518   6.404   1.224
 2365TIP3    H228655   6.485   6.499   1.110
 2366TIP3   OH228656   5.490   0.717   2.555
 2366TIP3    H128657   5.531   0.787   2.606
 2366TIP3    H228658   5.399   0.718   2.582
 2367TIP3   OH228659   2.473   2.302   7.019
 2367TIP3    H128660   2.393   2.253   7.042
 2367TIP3    H228661   2.442   2.374   6.965
 2368TIP3   OH228662   1.033   1.856   0.507
 2368TIP3    H128663   0.940   1.848   0.527
 2368TIP3    H228664   1.044   1.947   0.479
 2369TIP3   OH228665   2.397   3.201   0.890
 2369TIP3    H128666   2.466   3.137   0.873
 2369TIP3    H228667   2.419   3.275   0.834
 2370TIP3   OH228668   3.902   0.123   2.403
 2370TIP3    H128669   3.851   0.043   2.415
 2370TIP3    H228670   3.847   0.192   2.441
 2371TIP3   OH228671   1.832   2.106   6.676
 2371TIP3    H128672   1.826   2.148   6.590
 2371TIP3    H228673   1.879   2.025   6.660
 2372TIP3   OH228674   5.706   4.036   2.281
 2372TIP3    H128675   5.672   4.060   2.195
 2372TIP3    H228676   5.720   4.119   2.326
 2373TIP3   OH228677   4.231   4.697   7.936
 2373TIP3    H128678   4.237   4.625   7.872
 2373TIP3    H228679   4.143   4.689   7.972
 2374TIP3   OH228680   1.431   6.165   0.989
 2374TIP3    H128681   1.499   6.130   0.932
 2374TIP3    H228682   1.387   6.088   1.024
 2375TIP3   OH228683   2.117   6.346   7.890
 2375TIP3    H128684   2.152   6.429   7.921
 2375TIP3    H228685   2.041   6.370   7.837
 2376TIP3   OH228686   3.947   0.022   8.572
 2376TIP3    H128687   3.957   0.029   8.667
 2376TIP3    H228688   3.938   0.112   8.542
 2377TIP3   OH228689   6.586   1.590   1.451
 2377TIP3    H128690   6.497   1.623   1.467
 2377TIP3    H228691   6.639   1.630   1.520
 2378TIP3   OH228692   4.023   5.960   0.155
 2378TIP3    H128693   3.970   6.003   0.222
 2378TIP3    H228694   3.964   5.952   0.079
 2379TIP3   OH228695   4.566   3.775   7.187
 2379TIP3    H128696   4.567   3.686   7.223
 2379TIP3    H228697   4.644   3.779   7.131
 2380TIP3   OH228698   2.518   5.194   2.077
 2380TIP3    H128699   2.443   5.134   2.074
 2380TIP3    H228700   2.591   5.138   2.103
 2381TIP3   OH228701   3.984   0.125   0.042
 2381TIP3    H128702   3.983   0.070   0.120
 2381TIP3    H228703   3.963   0.213   0.074
 2382TIP3   OH228704   6.095   4.895   6.619
 2382TIP3    H128705   6.081   4.803   6.597
 2382TIP3    H228706   6.043   4.943   6.555
 2383TIP3   OH228707   0.788   2.832   7.432
 2383TIP3    H128708   0.863   2.829   7.372
 2383TIP3    H228709   0.749   2.918   7.417
 2384TIP3   OH228710   4.960   4.734   1.068
 2384TIP3    H128711   5.051   4.747   1.094
 2384TIP3    H228712   4.932   4.657   1.117
 2385TIP3   OH228713   0.681   3.506   1.323
 2385TIP3    H128714   0.620   3.433   1.326
 2385TIP3    H228715   0.657   3.554   1.244
 2386TIP3   OH228716   1.299   6.510   1.720
 2386TIP3    H128717   1.256   6.529   1.803
 2386TIP3    H228718   1.229   6.518   1.655
 2387TIP3   OH228719   3.583   6.132   0.362
 2387TIP3    H128720   3.628   6.175   0.434
 2387TIP3    H228721   3.642   6.139   0.288
 2388TIP3   OH228722   1.484   4.439   8.054
 2388TIP3    H128723   1.446   4.454   8.141
 2388TIP3    H228724   1.424   4.376   8.013
 2389TIP3   OH228725   2.195   6.028   2.236
 2389TIP3    H128726   2.186   6.015   2.331
 2389TIP3    H228727   2.289   6.042   2.223
 2390TIP3   OH228728   1.711   2.994   1.000
 2390TIP3    H128729   1.625   2.955   1.017
 2390TIP3    H228730   1.762   2.976   1.078
 2391TIP3   OH228731   0.490   3.200   1.031
 2391TIP3    H128732   0.554   3.204   1.102
 2391TIP3    H228733   0.417   3.254   1.060
 2392TIP3   OH228734   3.408   1.850   1.042
 2392TIP3    H128735   3.474   1.876   1.106
 2392TIP3    H228736   3.334   1.908   1.059
 2393TIP3   OH228737   2.955   0.267   8.443
 2393TIP3    H128738   2.898   0.223   8.506
 2393TIP3    H228739   2.897   0.325   8.394
 2394TIP3   OH228740   5.188   6.288   0.930
 2394TIP3    H128741   5.141   6.332   1.001
 2394TIP3    H228742   5.191   6.196   0.957
 2395TIP3   OH228743   2.594   3.363   8.365
 2395TIP3    H128744   2.505   3.399   8.376
 2395TIP3    H228745   2.597   3.334   8.274
 2396TIP3   OH228746   2.046   6.803   8.627
 2396TIP3    H128747   2.093   0.015   8.704
 2396TIP3    H228748   1.959   0.023   8.634
 2397TIP3   OH228749   6.226   2.671   1.844
 2397TIP3    H128750   6.297   2.685   1.781
 2397TIP3    H228751   6.270   2.641   1.923
 2398TIP3   OH228752   1.831   4.355   8.733
 2398TIP3    H128753   1.773   4.362   8.657
 2398TIP3    H228754   1.919   4.357   8.697
 2399TIP3   OH228755   2.254   1.890   8.049
 2399TIP3    H128756   2.175   1.925   8.007
 2399TIP3    H228757   2.320   1.889   7.979
 2400TIP3   OH228758   1.759   1.057   8.612
 2400TIP3    H128759   1.761   1.125   8.544
 2400TIP3    H228760   1.718   1.099   8.687
 2401TIP3   OH228761   1.556   6.801   7.381
 2401TIP3    H128762   1.558   6.817   7.286
 2401TIP3    H228763   1.648   6.790   7.405
 2402TIP3   OH228764   6.007   2.967   1.105
 2402TIP3    H128765   5.923   2.971   1.060
 2402TIP3    H228766   6.069   3.008   1.044
 2403TIP3   OH228767   2.056   2.637   7.756
 2403TIP3    H128768   2.062   2.638   7.851
 2403TIP3    H228769   2.014   2.720   7.733
 2404TIP3   OH228770   1.941   2.923   8.278
 2404TIP3    H128771   1.935   2.922   8.373
 2404TIP3    H228772   1.930   2.831   8.252
 2405TIP3   OH228773   1.934   4.747   1.361
 2405TIP3    H128774   1.964   4.836   1.342
 2405TIP3    H228775   1.845   4.759   1.395
 2406TIP3   OH228776   5.675   0.211   7.508
 2406TIP3    H128777   5.684   0.123   7.473
 2406TIP3    H228778   5.734   0.264   7.454
 2407TIP3   OH228779   2.623   2.212   7.681
 2407TIP3    H128780   2.554   2.272   7.654
 2407TIP3    H228781   2.635   2.229   7.775
 2408TIP3   OH228782   4.458   4.283   7.274
 2408TIP3    H128783   4.477   4.332   7.354
 2408TIP3    H228784   4.540   4.237   7.255
 2409TIP3   OH228785   4.920   4.525   0.300
 2409TIP3    H128786   4.834   4.497   0.268
 2409TIP3    H228787   4.903   4.606   0.348
 2410TIP3   OH228788   0.976   0.376   7.184
 2410TIP3    H128789   1.023   0.450   7.144
 2410TIP3    H228790   0.914   0.348   7.117
 2411TIP3   OH228791   1.758   6.103   7.217
 2411TIP3    H128792   1.689   6.052   7.259
 2411TIP3    H228793   1.712   6.163   7.159
 2412TIP3   OH228794   3.063   3.566   6.708
 2412TIP3    H128795   3.032   3.523   6.629
 2412TIP3    H228796   3.158   3.560   6.702
 2413TIP3   OH228797   0.809   3.353   1.695
 2413TIP3    H128798   0.804   3.294   1.770
 2413TIP3    H228799   0.901   3.350   1.669
 2414TIP3   OH228800   1.795   2.233   7.637
 2414TIP3    H128801   1.851   2.311   7.630
 2414TIP3    H228802   1.782   2.221   7.731
 2415TIP3   OH228803   0.164   1.258   1.826
 2415TIP3    H128804   0.195   1.332   1.878
 2415TIP3    H228805   0.211   1.265   1.743
 2416TIP3   OH228806   4.880   1.122   2.151
 2416TIP3    H128807   4.814   1.150   2.087
 2416TIP3    H228808   4.905   1.202   2.196
 2417TIP3   OH228809   1.805   0.983   2.014
 2417TIP3    H128810   1.806   1.056   2.076
 2417TIP3    H228811   1.892   0.943   2.022
 2418TIP3   OH228812   2.560   4.376   8.739
 2418TIP3    H128813   2.629   4.442   8.737
 2418TIP3    H228814   2.479   4.425   8.725
 2419TIP3   OH228815   4.401   1.345   7.614
 2419TIP3    H128816   4.392   1.345   7.709
 2419TIP3    H228817   4.463   1.274   7.596
 2420TIP3   OH228818   5.732   6.003   0.350
 2420TIP3    H128819   5.816   5.960   0.360
 2420TIP3    H228820   5.715   6.042   0.436
 2421TIP3   OH228821   5.375   6.089   7.842
 2421TIP3    H128822   5.287   6.060   7.817
 2421TIP3    H228823   5.361   6.174   7.885
 2422TIP3   OH228824   2.549   6.061   8.101
 2422TIP3    H128825   2.642   6.083   8.094
 2422TIP3    H228826   2.504   6.133   8.057
 2423TIP3   OH228827   2.714   6.417   1.039
 2423TIP3    H128828   2.672   6.344   1.084
 2423TIP3    H228829   2.656   6.436   0.965
 2424TIP3   OH228830   1.971   4.779   2.365
 2424TIP3    H128831   1.902   4.717   2.388
 2424TIP3    H228832   2.052   4.737   2.396
 2425TIP3   OH228833   5.808   0.450   7.425
 2425TIP3    H128834   5.891   0.493   7.402
 2425TIP3    H228835   5.759   0.448   7.342
 2426TIP3   OH228836   4.509   0.312   1.599
 2426TIP3    H128837   4.524   0.331   1.692
 2426TIP3    H228838   4.595   0.321   1.559
 2427TIP3   OH228839   0.720   0.903   8.601
 2427TIP3    H128840   0.710   0.923   8.508
 2427TIP3    H228841   0.800   0.853   8.607
 2428TIP3   OH228842   4.784   6.044   7.676
 2428TIP3    H128843   4.781   5.950   7.694
 2428TIP3    H228844   4.745   6.085   7.753
 2429TIP3   OH228845   2.920   5.207   8.519
 2429TIP3    H128846   2.844   5.223   8.462
 2429TIP3    H228847   2.927   5.112   8.523
 2430TIP3   OH228848   2.064   2.195   8.146
 2430TIP3    H128849   2.099   2.117   8.102
 2430TIP3    H228850   2.043   2.255   8.074
 2431TIP3   OH228851   4.413   0.483   6.787
 2431TIP3    H128852   4.451   0.471   6.699
 2431TIP3    H228853   4.379   0.396   6.810
 2432TIP3   OH228854   1.106   3.159   8.546
 2432TIP3    H128855   1.146   3.147   8.632
 2432TIP3    H228856   1.165   3.114   8.486
 2433TIP3   OH228857   6.511   6.556   8.112
 2433TIP3    H128858   6.594   6.539   8.067
 2433TIP3    H228859   6.535   6.565   8.204
 2434TIP3   OH228860   3.579   2.977   8.332
 2434TIP3    H128861   3.537   3.050   8.377
 2434TIP3    H228862   3.670   3.005   8.321
 2435TIP3   OH228863   0.106   3.742   7.954
 2435TIP3    H128864   0.141   3.766   8.040
 2435TIP3    H228865   0.122   3.648   7.947
 2436TIP3   OH228866   5.393   5.290   1.705
 2436TIP3    H128867   5.363   5.204   1.675
 2436TIP3    H228868   5.348   5.302   1.789
 2437TIP3   OH228869   3.926   1.305   1.846
 2437TIP3    H128870   3.844   1.302   1.895
 2437TIP3    H228871   3.991   1.334   1.909
 2438TIP3   OH228872   1.470   1.931   1.034
 2438TIP3    H128873   1.461   1.891   0.948
 2438TIP3    H228874   1.460   1.859   1.096
 2439TIP3   OH228875   4.521   3.171   1.996
 2439TIP3    H128876   4.605   3.135   1.967
 2439TIP3    H228877   4.475   3.097   2.034
 2440TIP3   OH228878   4.377   3.931   6.311
 2440TIP3    H128879   4.310   3.862   6.315
 2440TIP3    H228880   4.340   4.002   6.364
 2441TIP3   OH228881   0.068   6.541   8.598
 2441TIP3    H128882   0.054   6.447   8.608
 2441TIP3    H228883   6.813   6.571   8.546
 2442TIP3   OH228884   5.871   1.219   2.201
 2442TIP3    H128885   5.955   1.263   2.215
 2442TIP3    H228886   5.894   1.136   2.161
 2443TIP3   OH228887   0.136   2.273   0.783
 2443TIP3    H128888   0.078   2.257   0.709
 2443TIP3    H228889   0.224   2.275   0.744
 2444TIP3   OH228890   2.059   2.676   8.046
 2444TIP3    H128891   2.077   2.596   8.097
 2444TIP3    H228892   1.990   2.720   8.094
 2445TIP3   OH228893   2.726   1.416   0.557
 2445TIP3    H128894   2.761   1.383   0.640
 2445TIP3    H228895   2.792   1.479   0.528
 2446TIP3   OH228896   6.790   6.684   0.008
 2446TIP3    H128897   0.026   6.762   0.009
 2446TIP3    H228898   6.804   6.645   8.722
 2447TIP3   OH228899   3.797   4.150   0.616
 2447TIP3    H128900   3.787   4.138   0.521
 2447TIP3    H228901   3.746   4.228   0.636
 2448TIP3   OH228902   1.241   2.581   1.488
 2448TIP3    H128903   1.193   2.657   1.521
 2448TIP3    H228904   1.290   2.615   1.413
 2449TIP3   OH228905   4.554   5.825   1.819
 2449TIP3    H128906   4.499   5.773   1.761
 2449TIP3    H228907   4.590   5.761   1.881
 2450TIP3   OH228908   4.184   0.637   6.910
 2450TIP3    H128909   4.242   0.560   6.908
 2450TIP3    H228910   4.243   0.710   6.928
 2451TIP3   OH228911   2.001   1.779   2.308
 2451TIP3    H128912   2.044   1.694   2.296
 2451TIP3    H228913   1.936   1.784   2.238
 2452TIP3   OH228914   2.176   4.221   7.235
 2452TIP3    H128915   2.103   4.168   7.267
 2452TIP3    H228916   2.191   4.285   7.305
 2453TIP3   OH228917   5.085   6.401   7.724
 2453TIP3    H128918   5.145   6.429   7.793
 2453TIP3    H228919   5.135   6.337   7.674
 2454TIP3   OH228920   3.087   5.382   0.197
 2454TIP3    H128921   3.158   5.320   0.215
 2454TIP3    H228922   3.020   5.330   0.153
 2455TIP3   OH228923   2.787   1.748   1.175
 2455TIP3    H128924   2.820   1.723   1.089
 2455TIP3    H228925   2.739   1.829   1.160
 2456TIP3   OH228926   5.261   3.362   6.478
 2456TIP3    H128927   5.309   3.289   6.439
 2456TIP3    H228928   5.172   3.353   6.445
 2457TIP3   OH228929   0.723   6.150   1.597
 2457TIP3    H128930   0.661   6.207   1.552
 2457TIP3    H228931   0.705   6.163   1.690
 2458TIP3   OH228932   5.375   6.270   8.509
 2458TIP3    H128933   5.445   6.216   8.473
 2458TIP3    H228934   5.397   6.359   8.483
 2459TIP3   OH228935   6.031   1.189   7.842
 2459TIP3    H128936   5.984   1.144   7.773
 2459TIP3    H228937   6.070   1.265   7.799
 2460TIP3   OH228938   4.338   0.558   8.405
 2460TIP3    H128939   4.407   0.501   8.371
 2460TIP3    H228940   4.263   0.500   8.418
 2461TIP3   OH228941   4.503   0.160   1.040
 2461TIP3    H128942   4.473   0.251   1.044
 2461TIP3    H228943   4.476   0.122   1.123
 2462TIP3   OH228944   6.351   1.612   7.404
 2462TIP3    H128945   6.262   1.646   7.404
 2462TIP3    H228946   6.394   1.657   7.330
 2463TIP3   OH228947   4.605   5.958   8.007
 2463TIP3    H128948   4.611   5.875   8.056
 2463TIP3    H228949   4.613   5.932   7.916
 2464TIP3   OH228950   5.506   1.813   2.680
 2464TIP3    H128951   5.591   1.802   2.723
 2464TIP3    H228952   5.526   1.865   2.602
 2465TIP3   OH228953   0.822   4.523   8.526
 2465TIP3    H128954   0.755   4.585   8.497
 2465TIP3    H228955   0.799   4.505   8.618
 2466TIP3   OH228956   3.144   0.518   0.593
 2466TIP3    H128957   3.180   0.587   0.538
 2466TIP3    H228958   3.125   0.561   0.677
 2467TIP3   OH228959   0.933   6.813   8.103
 2467TIP3    H128960   0.980   6.809   8.020
 2467TIP3    H228961   0.895   6.726   8.114
 2468TIP3   OH228962   6.128   6.020   1.507
 2468TIP3    H128963   6.128   5.988   1.417
 2468TIP3    H228964   6.100   5.945   1.559
 2469TIP3   OH228965   5.330   5.799   0.540
 2469TIP3    H128966   5.377   5.756   0.468
 2469TIP3    H228967   5.263   5.735   0.565
 2470TIP3   OH228968   6.752   1.909   7.615
 2470TIP3    H128969   6.803   1.950   7.545
 2470TIP3    H228970   6.713   1.982   7.663
 2471TIP3   OH228971   5.806   5.438   0.956
 2471TIP3    H128972   5.735   5.467   1.014
 2471TIP3    H228973   5.772   5.452   0.867
 2472TIP3   OH228974   5.192   3.497   2.195
 2472TIP3    H128975   5.236   3.574   2.232
 2472TIP3    H228976   5.189   3.434   2.267
 2473TIP3   OH228977   2.829   2.553   7.839
 2473TIP3    H128978   2.740   2.550   7.803
 2473TIP3    H228979   2.832   2.634   7.889
 2474TIP3   OH228980   2.221   6.218   6.897
 2474TIP3    H128981   2.278   6.183   6.966
 2474TIP3    H228982   2.250   6.174   6.817
 2475TIP3   OH228983   4.640   3.541   1.132
 2475TIP3    H128984   4.638   3.463   1.076
 2475TIP3    H228985   4.577   3.601   1.093
 2476TIP3   OH228986   5.417   1.133   8.216
 2476TIP3    H128987   5.370   1.212   8.188
 2476TIP3    H228988   5.449   1.093   8.135
 2477TIP3   OH228989   3.143   3.978   6.245
 2477TIP3    H128990   3.049   3.995   6.249
 2477TIP3    H228991   3.176   4.004   6.331
 2478TIP3   OH228992   5.142   6.260   8.200
 2478TIP3    H128993   5.185   6.298   8.276
 2478TIP3    H228994   5.168   6.168   8.201
 2479TIP3   OH228995   4.733   3.567   1.603
 2479TIP3    H128996   4.783   3.641   1.637
 2479TIP3    H228997   4.662   3.608   1.553
 2480TIP3   OH228998   6.290   6.635   2.151
 2480TIP3    H128999   6.306   6.684   2.071
 2480TIP3    H229000   6.201   6.659   2.177
 2481TIP3   OH229001   0.608   2.838   6.865
 2481TIP3    H129002   0.528   2.847   6.813
 2481TIP3    H229003   0.679   2.836   6.801
 2482TIP3   OH229004   2.502   4.625   6.790
 2482TIP3    H129005   2.444   4.581   6.852
 2482TIP3    H229006   2.448   4.693   6.751
 2483TIP3   OH229007   2.728   5.789   8.651
 2483TIP3    H129008   2.754   5.742   8.572
 2483TIP3    H229009   2.695   5.721   8.710
 2484TIP3   OH229010   1.073   4.037   7.117
 2484TIP3    H129011   1.164   4.066   7.109
 2484TIP3    H229012   1.026   4.087   7.049
 2485TIP3   OH229013   3.821   5.077   1.229
 2485TIP3    H129014   3.727   5.067   1.211
 2485TIP3    H229015   3.844   5.001   1.281
 2486TIP3   OH229016   3.264   4.473   7.738
 2486TIP3    H129017   3.261   4.378   7.750
 2486TIP3    H229018   3.252   4.486   7.644
 2487TIP3   OH229019   2.089   0.206   2.385
 2487TIP3    H129020   2.094   0.117   2.349
 2487TIP3    H229021   2.171   0.216   2.434
 2488TIP3   OH229022   3.224   4.394   6.869
 2488TIP3    H129023   3.256   4.341   6.796
 2488TIP3    H229024   3.297   4.453   6.890
 2489TIP3   OH229025   5.239   0.653   1.907
 2489TIP3    H129026   5.153   0.613   1.894
 2489TIP3    H229027   5.228   0.710   1.983
 2490TIP3   OH229028   6.691   0.672   0.304
 2490TIP3    H129029   6.758   0.618   0.261
 2490TIP3    H229030   6.611   0.620   0.297
 2491TIP3   OH229031   3.718   5.503   7.208
 2491TIP3    H129032   3.643   5.527   7.263
 2491TIP3    H229033   3.684   5.432   7.152
 2492TIP3   OH229034   1.278   4.102   0.630
 2492TIP3    H129035   1.224   4.097   0.709
 2492TIP3    H229036   1.221   4.070   0.560
 2493TIP3   OH229037   2.052   3.404   8.397
 2493TIP3    H129038   2.090   3.331   8.348
 2493TIP3    H229039   1.980   3.366   8.446
 2494TIP3   OH229040   4.786   1.717   0.898
 2494TIP3    H129041   4.694   1.741   0.894
 2494TIP3    H229042   4.787   1.624   0.876
 2495TIP3   OH229043   1.136   5.796   8.572
 2495TIP3    H129044   1.152   5.806   8.666
 2495TIP3    H229045   1.222   5.783   8.534
 2496TIP3   OH229046   0.052   4.595   1.175
 2496TIP3    H129047   0.129   4.593   1.119
 2496TIP3    H229048   0.061   4.676   1.225
 2497TIP3   OH229049   2.346   3.473   8.361
 2497TIP3    H129050   2.341   3.564   8.331
 2497TIP3    H229051   2.276   3.428   8.313
 2498TIP3   OH229052   5.644   3.739   7.730
 2498TIP3    H129053   5.652   3.805   7.661
 2498TIP3    H229054   5.558   3.754   7.769
 2499TIP3   OH229055   4.782   6.325   0.212
 2499TIP3    H129056   4.711   6.345   0.150
 2499TIP3    H229057   4.854   6.295   0.156
 2500TIP3   OH229058   4.908   5.492   0.042
 2500TIP3    H129059   4.997   5.520   0.021
 2500TIP3    H229060   4.852   5.563   0.009
 2501TIP3   OH229061   0.508   5.455   0.406
 2501TIP3    H129062   0.544   5.529   0.357
 2501TIP3    H229063   0.420   5.483   0.431
 2502TIP3   OH229064   3.673   2.117   1.842
 2502TIP3    H129065   3.672   2.207   1.810
 2502TIP3    H229066   3.712   2.066   1.771
 2503TIP3   OH229067   2.741   0.291   0.213
 2503TIP3    H129068   2.829   0.261   0.239
 2503TIP3    H229069   2.742   0.386   0.229
 2504TIP3   OH229070   5.120   2.557   8.574
 2504TIP3    H129071   5.142   2.650   8.567
 2504TIP3    H229072   5.126   2.524   8.485
 2505TIP3   OH229073   1.257   4.952   6.584
 2505TIP3    H129074   1.334   4.896   6.575
 2505TIP3    H229075   1.198   4.902   6.641
 2506TIP3   OH229076   5.705   4.628   1.997
 2506TIP3    H129077   5.780   4.679   2.026
 2506TIP3    H229078   5.685   4.661   1.910
 2507TIP3   OH229079   5.237   1.844   2.772
 2507TIP3    H129080   5.330   1.851   2.752
 2507TIP3    H229081   5.211   1.933   2.797
 2508TIP3   OH229082   2.967   5.888   1.765
 2508TIP3    H129083   2.907   5.829   1.811
 2508TIP3    H229084   2.915   5.967   1.750
 2509TIP3   OH229085   0.325   2.731   6.381
 2509TIP3    H129086   0.272   2.715   6.303
 2509TIP3    H229087   0.343   2.826   6.378
 2510TIP3   OH229088   1.976   5.148   7.029
 2510TIP3    H129089   1.945   5.094   6.956
 2510TIP3    H229090   1.901   5.155   7.088
 2511TIP3   OH229091   1.005   3.891   7.998
 2511TIP3    H129092   0.946   3.817   8.015
 2511TIP3    H229093   0.961   3.942   7.930
 2512TIP3   OH229094   4.290   5.987   8.173
 2512TIP3    H129095   4.326   5.949   8.093
 2512TIP3    H229096   4.200   6.008   8.151
 2513TIP3   OH229097   5.771   6.040   8.240
 2513TIP3    H129098   5.833   6.078   8.304
 2513TIP3    H229099   5.767   6.105   8.170
 2514TIP3   OH229100   6.000   1.993   0.798
 2514TIP3    H129101   5.947   2.059   0.842
 2514TIP3    H229102   6.088   2.004   0.834
 2515TIP3   OH229103   3.806   3.164   7.613
 2515TIP3    H129104   3.794   3.089   7.671
 2515TIP3    H229105   3.901   3.174   7.607
 2516TIP3   OH229106   5.911   1.467   0.294
 2516TIP3    H129107   5.996   1.507   0.312
 2516TIP3    H229108   5.928   1.402   0.226
 2517TIP3   OH229109   3.540   3.808   8.227
 2517TIP3    H129110   3.487   3.881   8.196
 2517TIP3    H229111   3.477   3.748   8.267
 2518TIP3   OH229112   3.286   2.890   8.141
 2518TIP3    H129113   3.262   2.817   8.084
 2518TIP3    H229114   3.323   2.955   8.082
 2519TIP3   OH229115   0.153   0.079   0.052
 2519TIP3    H129116   0.224   0.024   0.020
 2519TIP3    H229117   0.176   0.168   0.023
 2520TIP3   OH229118   0.562   2.513   7.734
 2520TIP3    H129119   0.623   2.534   7.805
 2520TIP3    H229120   0.605   2.442   7.686
 2521TIP3   OH229121   0.659   3.850   0.933
 2521TIP3    H129122   0.647   3.833   0.839
 2521TIP3    H229123   0.687   3.941   0.938
 2522TIP3   OH229124   0.025   0.013   2.340
 2522TIP3    H129125   0.007   0.069   2.415
 2522TIP3    H229126   0.119   6.817   2.344
 2523TIP3   OH229127   0.605   6.333   0.174
 2523TIP3    H129128   0.671   6.326   0.243
 2523TIP3    H229129   0.549   6.256   0.186
 2524TIP3   OH229130   2.761   4.766   6.736
 2524TIP3    H129131   2.823   4.820   6.786
 2524TIP3    H229132   2.799   4.678   6.737
 2525TIP3   OH229133   6.246   5.408   1.615
 2525TIP3    H129134   6.268   5.500   1.599
 2525TIP3    H229135   6.222   5.374   1.529
 2526TIP3   OH229136   0.577   3.289   8.430
 2526TIP3    H129137   0.509   3.351   8.456
 2526TIP3    H229138   0.569   3.284   8.335
 2527TIP3   OH229139   3.290   2.660   7.569
 2527TIP3    H129140   3.328   2.650   7.482
 2527TIP3    H229141   3.196   2.645   7.556
 2528TIP3   OH229142   5.454   1.869   0.462
 2528TIP3    H129143   5.456   1.791   0.407
 2528TIP3    H229144   5.545   1.887   0.483
 2529TIP3   OH229145   6.485   5.625   0.891
 2529TIP3    H129146   6.402   5.629   0.938
 2529TIP3    H229147   6.463   5.650   0.801
 2530TIP3   OH229148   1.548   1.651   6.641
 2530TIP3    H129149   1.521   1.689   6.557
 2530TIP3    H229150   1.477   1.674   6.701
 2531TIP3   OH229151   1.505   1.729   1.290
 2531TIP3    H129152   1.569   1.659   1.274
 2531TIP3    H229153   1.553   1.794   1.342
 2532TIP3   OH229154   5.040   5.975   7.006
 2532TIP3    H129155   4.968   5.984   6.943
 2532TIP3    H229156   5.107   5.925   6.960
 2533TIP3   OH229157   3.500   0.925   0.866
 2533TIP3    H129158   3.424   0.983   0.867
 2533TIP3    H229159   3.532   0.930   0.776
 2534TIP3   OH229160   3.036   6.791   1.679
 2534TIP3    H129161   3.074   0.049   1.720
 2534TIP3    H229162   3.106   6.755   1.625
 2535TIP3   OH229163   5.909   4.038   8.421
 2535TIP3    H129164   5.915   4.134   8.416
 2535TIP3    H229165   5.952   4.007   8.342
 2536TIP3   OH229166   1.679   0.433   8.560
 2536TIP3    H129167   1.680   0.432   8.656
 2536TIP3    H229168   1.750   0.492   8.536
 2537TIP3   OH229169   2.924   6.663   8.659
 2537TIP3    H129170   3.005   6.654   8.709
 2537TIP3    H229171   2.917   6.756   8.640
 2538TIP3   OH229172   3.275   6.457   6.230
 2538TIP3    H129173   3.328   6.500   6.297
 2538TIP3    H229174   3.244   6.377   6.271
 2539TIP3   OH229175   0.176   2.466   0.980
 2539TIP3    H129176   0.200   2.381   0.943
 2539TIP3    H229177   0.236   2.528   0.938
 2540TIP3   OH229178   3.213   6.350   0.202
 2540TIP3    H129179   3.183   6.277   0.256
 2540TIP3    H229180   3.296   6.321   0.164
 2541TIP3   OH229181   2.560   4.375   7.485
 2541TIP3    H129182   2.561   4.348   7.577
 2541TIP3    H229183   2.552   4.471   7.489
 2542TIP3   OH229184   3.809   6.648   7.157
 2542TIP3    H129185   3.775   6.692   7.080
 2542TIP3    H229186   3.867   6.713   7.198
 2543TIP3   OH229187   2.273   3.830   0.307
 2543TIP3    H129188   2.186   3.844   0.344
 2543TIP3    H229189   2.314   3.766   0.364
 2544TIP3   OH229190   4.599   0.951   8.540
 2544TIP3    H129191   4.646   0.891   8.482
 2544TIP3    H229192   4.651   1.031   8.540
 2545TIP3   OH229193   4.734   2.911   7.913
 2545TIP3    H129194   4.826   2.926   7.890
 2545TIP3    H229195   4.699   2.998   7.930
 2546TIP3   OH229196   1.534   5.306   8.652
 2546TIP3    H129197   1.566   5.393   8.676
 2546TIP3    H229198   1.600   5.273   8.591
 2547TIP3   OH229199   4.561   4.874   0.618
 2547TIP3    H129200   4.636   4.894   0.675
 2547TIP3    H229201   4.524   4.959   0.596
 2548TIP3   OH229202   3.610   6.242   1.455
 2548TIP3    H129203   3.538   6.189   1.420
 2548TIP3    H229204   3.642   6.291   1.380
 2549TIP3   OH229205   1.844   4.244   2.509
 2549TIP3    H129206   1.855   4.151   2.491
 2549TIP3    H229207   1.840   4.285   2.422
 2550TIP3   OH229208   2.053   6.479   1.031
 2550TIP3    H129209   2.088   6.560   0.993
 2550TIP3    H229210   1.968   6.468   0.989
 2551TIP3   OH229211   5.774   1.290   8.060
 2551TIP3    H129212   5.732   1.370   8.092
 2551TIP3    H229213   5.838   1.319   7.996
 2552TIP3   OH229214   1.104   2.042   1.575
 2552TIP3    H129215   1.080   2.131   1.601
 2552TIP3    H229216   1.155   2.008   1.648
 2553TIP3   OH229217   2.358   2.742   0.598
 2553TIP3    H129218   2.398   2.717   0.515
 2553TIP3    H229219   2.358   2.838   0.597
 2554TIP3   OH229220   5.608   2.630   7.176
 2554TIP3    H129221   5.599   2.628   7.081
 2554TIP3    H229222   5.695   2.596   7.193
 2555TIP3   OH229223   3.900   1.060   0.408
 2555TIP3    H129224   3.817   1.050   0.361
 2555TIP3    H229225   3.966   1.064   0.339
 2556TIP3   OH229226   1.831   5.544   1.194
 2556TIP3    H129227   1.812   5.618   1.252
 2556TIP3    H229228   1.923   5.524   1.210
 2557TIP3   OH229229   5.724   0.981   2.450
 2557TIP3    H129230   5.652   0.973   2.387
 2557TIP3    H229231   5.683   0.966   2.535
 2558TIP3   OH229232   6.252   0.817   7.396
 2558TIP3    H129233   6.211   0.787   7.477
 2558TIP3    H229234   6.186   0.803   7.329
 2559TIP3   OH229235   1.331   3.972   1.586
 2559TIP3    H129236   1.342   3.908   1.656
 2559TIP3    H229237   1.353   4.056   1.626
 2560TIP3   OH229238   3.345   0.102   0.831
 2560TIP3    H129239   3.429   0.132   0.864
 2560TIP3    H229240   3.318   0.169   0.768
 2561TIP3   OH229241   3.883   1.078   8.146
 2561TIP3    H129242   3.925   1.156   8.181
 2561TIP3    H229243   3.955   1.020   8.124
 2562TIP3   OH229244   0.621   3.322   8.154
 2562TIP3    H129245   0.630   3.300   8.061
 2562TIP3    H229246   0.652   3.412   8.161
 2563TIP3   OH229247   0.701   4.596   1.066
 2563TIP3    H129248   0.731   4.585   1.156
 2563TIP3    H229249   0.781   4.593   1.013
 2564TIP3   OH229250   2.210   0.966   7.731
 2564TIP3    H129251   2.306   0.965   7.735
 2564TIP3    H229252   2.184   1.034   7.793
 2565TIP3   OH229253   3.615   0.976   6.727
 2565TIP3    H129254   3.657   1.052   6.688
 2565TIP3    H229255   3.679   0.905   6.716
 2566TIP3   OH229256   5.862   5.542   8.142
 2566TIP3    H129257   5.790   5.545   8.078
 2566TIP3    H229258   5.919   5.614   8.117
 2567TIP3   OH229259   4.597   0.339   7.779
 2567TIP3    H129260   4.624   0.253   7.746
 2567TIP3    H229261   4.593   0.395   7.701
 2568TIP3   OH229262   3.922   4.013   0.909
 2568TIP3    H129263   3.922   3.994   1.003
 2568TIP3    H229264   3.950   4.104   0.902
 2569TIP3   OH229265   4.833   2.754   7.414
 2569TIP3    H129266   4.852   2.685   7.350
 2569TIP3    H229267   4.791   2.823   7.363
 2570TIP3   OH229268   1.553   1.762   7.223
 2570TIP3    H129269   1.595   1.676   7.224
 2570TIP3    H229270   1.599   1.810   7.155
 2571TIP3   OH229271   4.392   1.472   8.598
 2571TIP3    H129272   4.463   1.528   8.564
 2571TIP3    H229273   4.323   1.479   8.532
 2572TIP3   OH229274   4.452   4.690   8.112
 2572TIP3    H129275   4.538   4.687   8.070
 2572TIP3    H229276   4.389   4.680   8.040
 2573TIP3   OH229277   4.703   2.896   0.018
 2573TIP3    H129278   4.644   2.822   0.032
 2573TIP3    H229279   4.681   2.958   0.088
 2574TIP3   OH229280   5.899   5.819   5.974
 2574TIP3    H129281   5.838   5.751   5.947
 2574TIP3    H229282   5.864   5.852   6.057
 2575TIP3   OH229283   3.447   5.494   8.303
 2575TIP3    H129284   3.470   5.575   8.347
 2575TIP3    H229285   3.368   5.464   8.347
 2576TIP3   OH229286   0.066   3.072   1.438
 2576TIP3    H129287   0.014   3.063   1.358
 2576TIP3    H229288   0.012   3.125   1.496
 2577TIP3   OH229289   4.185   2.382   0.283
 2577TIP3    H129290   4.103   2.332   0.285
 2577TIP3    H229291   4.213   2.385   0.375
 2578TIP3   OH229292   3.227   3.816   7.761
 2578TIP3    H129293   3.164   3.799   7.831
 2578TIP3    H229294   3.174   3.845   7.687
 2579TIP3   OH229295   1.419   4.518   6.483
 2579TIP3    H129296   1.402   4.579   6.412
 2579TIP3    H229297   1.462   4.444   6.441
 2580TIP3   OH229298   6.751   4.027   8.642
 2580TIP3    H129299   6.697   3.986   8.709
 2580TIP3    H229300   6.696   4.096   8.606
 2581TIP3   OH229301   4.604   6.746   1.819
 2581TIP3    H129302   4.595   6.798   1.899
 2581TIP3    H229303   4.699   6.734   1.809
 2582TIP3   OH229304   5.618   1.240   2.126
 2582TIP3    H129305   5.710   1.252   2.148
 2582TIP3    H229306   5.595   1.156   2.165
 2583TIP3   OH229307   2.123   5.541   2.024
 2583TIP3    H129308   2.175   5.581   2.094
 2583TIP3    H229309   2.083   5.615   1.979
 2584TIP3   OH229310   1.409   0.020   1.804
 2584TIP3    H129311   1.487   0.068   1.775
 2584TIP3    H229312   1.391   0.054   1.892
 2585TIP3   OH229313   0.771   2.339   1.780
 2585TIP3    H129314   0.749   2.328   1.873
 2585TIP3    H229315   0.766   2.434   1.766
 2586TIP3   OH229316   2.643   1.595   2.135
 2586TIP3    H129317   2.641   1.563   2.045
 2586TIP3    H229318   2.555   1.628   2.151
 2587TIP3   OH229319   2.131   2.793   0.783
 2587TIP3    H129320   2.155   2.740   0.707
 2587TIP3    H229321   2.038   2.778   0.795
 2588TIP3   OH229322   2.636   0.700   8.253
 2588TIP3    H129323   2.541   0.694   8.258
 2588TIP3    H229324   2.653   0.764   8.184
 2589TIP3   OH229325   2.942   6.581   0.258
 2589TIP3    H129326   2.972   6.517   0.322
 2589TIP3    H229327   2.885   6.640   0.308
 2590TIP3   OH229328   1.829   3.791   1.837
 2590TIP3    H129329   1.857   3.766   1.925
 2590TIP3    H229330   1.786   3.713   1.802
 2591TIP3   OH229331   2.064   4.752   0.650
 2591TIP3    H129332   2.137   4.690   0.650
 2591TIP3    H229333   2.055   4.779   0.742
 2592TIP3   OH229334   6.670   0.106   7.937
 2592TIP3    H129335   6.727   0.170   7.980
 2592TIP3    H229336   6.598   0.092   8.000
 2593TIP3   OH229337   5.291   1.620   8.213
 2593TIP3    H129338   5.299   1.700   8.161
 2593TIP3    H229339   5.273   1.652   8.302
 2594TIP3   OH229340   3.765   6.597   8.215
 2594TIP3    H129341   3.707   6.635   8.281
 2594TIP3    H229342   3.817   6.533   8.263
 2595TIP3   OH229343   4.041   3.391   6.838
 2595TIP3    H129344   4.036   3.426   6.749
 2595TIP3    H229345   4.127   3.351   6.843
 2596TIP3   OH229346   1.839   5.174   7.975
 2596TIP3    H129347   1.886   5.146   7.896
 2596TIP3    H229348   1.900   5.232   8.020
 2597TIP3   OH229349   1.841   2.585   0.456
 2597TIP3    H129350   1.935   2.606   0.450
 2597TIP3    H229351   1.797   2.667   0.432
 2598TIP3   OH229352   0.811   5.471   1.747
 2598TIP3    H129353   0.772   5.386   1.727
 2598TIP3    H229354   0.792   5.485   1.839
 2599TIP3   OH229355   3.360   4.032   1.646
 2599TIP3    H129356   3.438   4.055   1.697
 2599TIP3    H229357   3.394   4.008   1.560
 2600TIP3   OH229358   3.437   2.563   1.340
 2600TIP3    H129359   3.362   2.617   1.314
 2600TIP3    H229360   3.469   2.603   1.421
 2601TIP3   OH229361   3.678   1.053   2.330
 2601TIP3    H129362   3.729   1.070   2.409
 2601TIP3    H229363   3.699   0.963   2.306
 2602TIP3   OH229364   2.922   1.942   0.734
 2602TIP3    H129365   2.873   1.909   0.659
 2602TIP3    H229366   2.878   2.024   0.757
 2603TIP3   OH229367   4.338   0.802   8.523
 2603TIP3    H129368   4.349   0.711   8.497
 2603TIP3    H229369   4.426   0.832   8.546
 2604TIP3   OH229370   1.155   2.078   8.664
 2604TIP3    H129371   1.064   2.102   8.649
 2604TIP3    H229372   1.205   2.138   8.609
 2605TIP3   OH229373   2.547   5.469   1.974
 2605TIP3    H129374   2.557   5.383   2.016
 2605TIP3    H229375   2.466   5.462   1.923
 2606TIP3   OH229376   4.123   2.842   2.270
 2606TIP3    H129377   4.036   2.876   2.295
 2606TIP3    H229378   4.163   2.914   2.221
 2607TIP3   OH229379   6.265   3.735   8.381
 2607TIP3    H129380   6.191   3.753   8.439
 2607TIP3    H229381   6.225   3.728   8.294
 2608TIP3   OH229382   6.407   1.143   1.727
 2608TIP3    H129383   6.354   1.138   1.806
 2608TIP3    H229384   6.359   1.090   1.663
 2609TIP3   OH229385   2.666   3.130   0.505
 2609TIP3    H129386   2.713   3.073   0.566
 2609TIP3    H229387   2.712   3.120   0.422
 2610TIP3   OH229388   0.010   6.473   0.224
 2610TIP3    H129389   0.096   6.511   0.207
 2610TIP3    H229390   6.774   6.505   0.153
 2611TIP3   OH229391   4.307   6.325   7.981
 2611TIP3    H129392   4.221   6.287   7.995
 2611TIP3    H229393   4.319   6.322   7.886
 2612TIP3   OH229394   0.093   0.291   8.226
 2612TIP3    H129395   0.096   0.320   8.135
 2612TIP3    H229396   0.056   0.203   8.222
 2613TIP3   OH229397   5.380   3.260   1.207
 2613TIP3    H129398   5.427   3.207   1.272
 2613TIP3    H229399   5.318   3.311   1.259
 2614TIP3   OH229400   2.279   1.763   0.688
 2614TIP3    H129401   2.214   1.822   0.649
 2614TIP3    H229402   2.300   1.700   0.619
 2615TIP3   OH229403   2.243   5.190   0.617
 2615TIP3    H129404   2.204   5.120   0.565
 2615TIP3    H229405   2.185   5.265   0.603
 2616TIP3   OH229406   2.207   3.073   7.114
 2616TIP3    H129407   2.276   3.076   7.181
 2616TIP3    H229408   2.147   3.005   7.145
 2617TIP3   OH229409   4.118   6.187   0.498
 2617TIP3    H129410   4.166   6.144   0.569
 2617TIP3    H229411   4.171   6.173   0.420
 2618TIP3   OH229412   3.687   6.577   2.335
 2618TIP3    H129413   3.610   6.531   2.370
 2618TIP3    H229414   3.670   6.670   2.353
 2619TIP3   OH229415   6.115   6.442   8.588
 2619TIP3    H129416   6.075   6.455   8.502
 2619TIP3    H229417   6.065   6.370   8.627
 2620TIP3   OH229418   2.657   0.824   2.206
 2620TIP3    H129419   2.693   0.911   2.224
 2620TIP3    H229420   2.723   0.782   2.150
 2621TIP3   OH229421   6.160   5.057   1.111
 2621TIP3    H129422   6.107   5.131   1.140
 2621TIP3    H229423   6.174   5.073   1.018
 2622TIP3   OH229424   4.086   3.217   7.597
 2622TIP3    H129425   4.073   3.232   7.503
 2622TIP3    H229426   4.164   3.268   7.618
 2623TIP3   OH229427   1.807   5.984   8.159
 2623TIP3    H129428   1.845   6.072   8.152
 2623TIP3    H229429   1.770   5.982   8.247
 2624TIP3   OH229430   5.918   2.640   7.270
 2624TIP3    H129431   5.914   2.611   7.361
 2624TIP3    H229432   5.955   2.566   7.222
 2625TIP3   OH229433   4.814   0.396   8.052
 2625TIP3    H129434   4.814   0.311   8.008
 2625TIP3    H229435   4.731   0.398   8.101
 2626TIP3   OH229436   3.975   2.009   8.355
 2626TIP3    H129437   3.937   1.982   8.439
 2626TIP3    H229438   4.044   1.944   8.338
 2627TIP3   OH229439   5.878   0.486   0.073
 2627TIP3    H129440   5.789   0.464   0.097
 2627TIP3    H229441   5.871   0.523   8.785
 2628TIP3   OH229442   6.508   3.312   7.538
 2628TIP3    H129443   6.476   3.391   7.581
 2628TIP3    H229444   6.490   3.328   7.445
 2629TIP3   OH229445   6.048   6.785   1.450
 2629TIP3    H129446   5.993   6.784   1.529
 2629TIP3    H229447   6.025   0.047   1.406
 2630TIP3   OH229448   1.365   4.782   1.098
 2630TIP3    H129449   1.351   4.763   1.005
 2630TIP3    H229450   1.362   4.878   1.103
 2631TIP3   OH229451   0.388   2.027   2.384
 2631TIP3    H129452   0.363   1.976   2.460
 2631TIP3    H229453   0.420   2.110   2.420
 2632TIP3   OH229454   4.472   5.498   1.297
 2632TIP3    H129455   4.507   5.440   1.229
 2632TIP3    H229456   4.382   5.468   1.310
 2633TIP3   OH229457   6.769   5.560   7.184
 2633TIP3    H129458   6.701   5.529   7.124
 2633TIP3    H229459   0.001   5.622   7.131
 2634TIP3   OH229460   2.128   2.807   1.107
 2634TIP3    H129461   2.153   2.853   1.187
 2634TIP3    H229462   2.124   2.876   1.041
 2635TIP3   OH229463   2.771   1.712   7.996
 2635TIP3    H129464   2.791   1.743   8.084
 2635TIP3    H229465   2.830   1.763   7.939
 2636TIP3   OH229466   1.223   3.598   6.824
 2636TIP3    H129467   1.167   3.585   6.747
 2636TIP3    H229468   1.291   3.531   6.816
 2637TIP3   OH229469   0.242   3.955   6.163
 2637TIP3    H129470   0.303   4.002   6.220
 2637TIP3    H229471   0.274   3.865   6.163
 2638TIP3   OH229472   5.397   2.512   7.670
 2638TIP3    H129473   5.450   2.591   7.663
 2638TIP3    H229474   5.313   2.536   7.631
 2639TIP3   OH229475   1.540   3.019   6.909
 2639TIP3    H129476   1.586   3.097   6.877
 2639TIP3    H229477   1.561   3.014   7.002
 2640TIP3   OH229478   3.747   1.604   8.401
 2640TIP3    H129479   3.783   1.632   8.317
 2640TIP3    H229480   3.663   1.564   8.379
 2641TIP3   OH229481   1.657   6.598   6.479
 2641TIP3    H129482   1.576   6.558   6.447
 2641TIP3    H229483   1.636   6.630   6.566
 2642TIP3   OH229484   4.284   4.976   1.070
 2642TIP3    H129485   4.324   4.984   0.983
 2642TIP3    H229486   4.210   5.037   1.068
 2643TIP3   OH229487   5.234   2.381   2.908
 2643TIP3    H129488   5.306   2.375   2.971
 2643TIP3    H229489   5.272   2.425   2.832
 2644TIP3   OH229490   6.533   5.354   1.757
 2644TIP3    H129491   6.518   5.262   1.737
 2644TIP3    H229492   6.488   5.368   1.841
 2645TIP3   OH229493   2.085   5.179   7.516
 2645TIP3    H129494   2.099   5.173   7.421
 2645TIP3    H229495   2.094   5.272   7.536
 2646TIP3   OH229496   1.628   1.110   1.571
 2646TIP3    H129497   1.550   1.064   1.604
 2646TIP3    H229498   1.699   1.076   1.625
 2647TIP3   OH229499   0.511   4.874   8.598
 2647TIP3    H129500   0.467   4.899   8.679
 2647TIP3    H229501   0.604   4.874   8.621
 2648TIP3   OH229502   0.704   1.252   8.648
 2648TIP3    H129503   0.632   1.303   8.613
 2648TIP3    H229504   0.754   1.313   8.702
 2649TIP3   OH229505   6.555   6.181   1.951
 2649TIP3    H129506   6.626   6.116   1.956
 2649TIP3    H229507   6.480   6.137   1.990
 2650TIP3   OH229508   0.206   3.652   1.450
 2650TIP3    H129509   0.161   3.726   1.410
 2650TIP3    H229510   0.142   3.615   1.511
 2651TIP3   OH229511   0.898   0.618   0.646
 2651TIP3    H129512   0.837   0.692   0.657
 2651TIP3    H229513   0.893   0.570   0.729
 2652TIP3   OH229514   4.831   6.435   7.712
 2652TIP3    H129515   4.926   6.429   7.712
 2652TIP3    H229516   4.811   6.509   7.769
 2653TIP3   OH229517   2.496   3.451   0.571
 2653TIP3    H129518   2.439   3.464   0.647
 2653TIP3    H229519   2.436   3.427   0.501
 2654TIP3   OH229520   5.607   4.507   7.021
 2654TIP3    H129521   5.636   4.598   7.015
 2654TIP3    H229522   5.539   4.499   6.954
 2655TIP3   OH229523   0.761   5.487   0.658
 2655TIP3    H129524   0.822   5.503   0.586
 2655TIP3    H229525   0.720   5.403   0.637
 2656TIP3   OH229526   3.370   3.298   7.582
 2656TIP3    H129527   3.315   3.358   7.632
 2656TIP3    H229528   3.454   3.297   7.629
 2657TIP3   OH229529   4.798   5.349   1.208
 2657TIP3    H129530   4.808   5.267   1.258
 2657TIP3    H229531   4.709   5.344   1.174
 2658TIP3   OH229532   5.191   1.551   8.666
 2658TIP3    H129533   5.108   1.563   8.713
 2658TIP3    H229534   5.251   1.515   8.732
 2659TIP3   OH229535   2.423   1.963   8.446
 2659TIP3    H129536   2.365   1.955   8.521
 2659TIP3    H229537   2.435   1.873   8.415
 2660TIP3   OH229538   4.890   1.972   7.193
 2660TIP3    H129539   4.926   2.003   7.110
 2660TIP3    H229540   4.877   2.052   7.245
 2661TIP3   OH229541   3.793   4.062   0.357
 2661TIP3    H129542   3.707   4.103   0.347
 2661TIP3    H229543   3.834   4.072   0.271
 2662TIP3   OH229544   3.215   5.775   6.876
 2662TIP3    H129545   3.275   5.818   6.815
 2662TIP3    H229546   3.269   5.749   6.950
 2663TIP3   OH229547   1.912   5.695   0.300
 2663TIP3    H129548   1.866   5.687   0.384
 2663TIP3    H229549   1.956   5.610   0.290
 2664TIP3   OH229550   2.671   2.428   0.671
 2664TIP3    H129551   2.619   2.429   0.590
 2664TIP3    H229552   2.605   2.432   0.741
 2665TIP3   OH229553   6.124   4.642   6.595
 2665TIP3    H129554   6.203   4.651   6.648
 2665TIP3    H229555   6.131   4.555   6.556
 2666TIP3   OH229556   5.127   3.554   0.830
 2666TIP3    H129557   5.081   3.594   0.756
 2666TIP3    H229558   5.133   3.461   0.807
 2667TIP3   OH229559   3.375   0.871   7.625
 2667TIP3    H129560   3.288   0.881   7.663
 2667TIP3    H229561   3.365   0.799   7.563
 2668TIP3   OH229562   2.994   3.733   7.115
 2668TIP3    H129563   3.055   3.786   7.167
 2668TIP3    H229564   2.910   3.744   7.159
 2669TIP3   OH229565   5.391   2.299   6.553
 2669TIP3    H129566   5.302   2.310   6.587
 2669TIP3    H229567   5.380   2.282   6.460
 2670TIP3   OH229568   2.526   0.863   6.323
 2670TIP3    H129569   2.436   0.892   6.310
 2670TIP3    H229570   2.577   0.944   6.319
 2671TIP3   OH229571   6.066   1.749   6.783
 2671TIP3    H129572   6.078   1.832   6.736
 2671TIP3    H229573   6.038   1.688   6.715
 2672TIP3   OH229574   0.997   6.290   1.575
 2672TIP3    H129575   1.024   6.260   1.662
 2672TIP3    H229576   0.941   6.220   1.542
 2673TIP3   OH229577   1.041   4.911   7.465
 2673TIP3    H129578   1.035   4.822   7.497
 2673TIP3    H229579   0.968   4.958   7.506
 2674TIP3   OH229580   4.313   2.915   1.775
 2674TIP3    H129581   4.292   2.822   1.786
 2674TIP3    H229582   4.234   2.954   1.739
 2675TIP3   OH229583   6.598   2.553   8.181
 2675TIP3    H129584   6.524   2.559   8.121
 2675TIP3    H229585   6.646   2.635   8.169
 2676TIP3   OH229586   0.180   4.600   2.152
 2676TIP3    H129587   0.195   4.690   2.124
 2676TIP3    H229588   0.116   4.606   2.222
 2677TIP3   OH229589   4.927   6.283   1.984
 2677TIP3    H129590   5.007   6.308   2.030
 2677TIP3    H229591   4.886   6.217   2.040
 2678TIP3   OH229592   0.881   0.321   8.494
 2678TIP3    H129593   0.915   0.290   8.578
 2678TIP3    H229594   0.943   0.287   8.430
 2679TIP3   OH229595   2.077   0.911   1.091
 2679TIP3    H129596   2.060   0.917   0.997
 2679TIP3    H229597   2.024   0.837   1.121
 2680TIP3   OH229598   2.093   6.421   8.249
 2680TIP3    H129599   2.146   6.465   8.182
 2680TIP3    H229600   2.120   6.463   8.332
 2681TIP3   OH229601   6.474   4.382   0.809
 2681TIP3    H129602   6.386   4.397   0.843
 2681TIP3    H229603   6.460   4.363   0.716
 2682TIP3   OH229604   4.130   2.359   6.679
 2682TIP3    H129605   4.166   2.395   6.598
 2682TIP3    H229606   4.158   2.267   6.679
 2683TIP3   OH229607   6.525   1.515   0.866
 2683TIP3    H129608   6.564   1.429   0.850
 2683TIP3    H229609   6.515   1.519   0.961
 2684TIP3   OH229610   4.882   2.364   0.718
 2684TIP3    H129611   4.836   2.368   0.634
 2684TIP3    H229612   4.959   2.419   0.706
 2685TIP3   OH229613   5.156   0.568   2.392
 2685TIP3    H129614   5.230   0.512   2.416
 2685TIP3    H229615   5.080   0.510   2.393
 2686TIP3   OH229616   6.487   5.803   8.051
 2686TIP3    H129617   6.534   5.825   7.970
 2686TIP3    H229618   6.396   5.827   8.033
 2687TIP3   OH229619   1.878   4.658   1.651
 2687TIP3    H129620   1.846   4.588   1.709
 2687TIP3    H229621   1.917   4.611   1.577
 2688TIP3   OH229622   0.988   4.587   8.079
 2688TIP3    H129623   0.984   4.513   8.019
 2688TIP3    H229624   1.081   4.607   8.087
 2689TIP3   OH229625   1.215   4.172   1.866
 2689TIP3    H129626   1.205   4.267   1.871
 2689TIP3    H229627   1.299   4.155   1.909
 2690TIP3   OH229628   6.593   4.878   6.952
 2690TIP3    H129629   6.532   4.952   6.949
 2690TIP3    H229630   6.599   4.855   7.044
 2691TIP3   OH229631   5.952   6.764   8.749
 2691TIP3    H129632   5.913   6.802   0.027
 2691TIP3    H229633   5.889   6.698   8.721
 2692TIP3   OH229634   6.041   1.992   1.545
 2692TIP3    H129635   6.096   1.963   1.472
 2692TIP3    H229636   5.961   2.025   1.502
 2693TIP3   OH229637   0.517   4.546   8.627
 2693TIP3    H129638   0.565   4.590   8.697
 2693TIP3    H229639   0.470   4.475   8.672
 2694TIP3   OH229640   4.151   1.870   0.376
 2694TIP3    H129641   4.084   1.888   0.442
 2694TIP3    H229642   4.233   1.897   0.419
 2695TIP3   OH229643   3.436   3.260   1.568
 2695TIP3    H129644   3.406   3.169   1.573
 2695TIP3    H229645   3.360   3.308   1.536
 2696TIP3   OH229646   1.500   3.842   0.283
 2696TIP3    H129647   1.466   3.912   0.228
 2696TIP3    H229648   1.558   3.792   0.226
 2697TIP3   OH229649   0.952   4.241   1.046
 2697TIP3    H129650   0.883   4.190   1.090
 2697TIP3    H229651   1.024   4.243   1.109
 2698TIP3   OH229652   0.726   0.433   1.233
 2698TIP3    H129653   0.674   0.381   1.294
 2698TIP3    H229654   0.811   0.389   1.231
 2699TIP3   OH229655   0.988   5.085   1.355
 2699TIP3    H129656   1.048   5.145   1.309
 2699TIP3    H229657   0.978   5.124   1.442
 2700TIP3   OH229658   6.655   0.083   1.963
 2700TIP3    H129659   6.706   0.081   1.883
 2700TIP3    H229660   6.684   0.162   2.009
 2701TIP3   OH229661   1.837   1.029   1.745
 2701TIP3    H129662   1.908   1.089   1.768
 2701TIP3    H229663   1.790   1.014   1.827
 2702TIP3   OH229664   0.681   4.868   7.734
 2702TIP3    H129665   0.680   4.944   7.792
 2702TIP3    H229666   0.677   4.905   7.646
 2703TIP3   OH229667   1.064   4.088   8.527
 2703TIP3    H129668   1.047   3.994   8.533
 2703TIP3    H229669   1.007   4.118   8.456
 2704TIP3   OH229670   6.725   2.729   2.428
 2704TIP3    H129671   6.814   2.744   2.395
 2704TIP3    H229672   6.687   2.668   2.364
 2705TIP3   OH229673   3.997   1.785   0.643
 2705TIP3    H129674   3.975   1.863   0.693
 2705TIP3    H229675   4.031   1.723   0.708
 2706TIP3   OH229676   0.847   5.682   1.947
 2706TIP3    H129677   0.784   5.612   1.966
 2706TIP3    H229678   0.805   5.736   1.881
 2707TIP3   OH229679   6.180   6.184   7.090
 2707TIP3    H129680   6.219   6.270   7.074
 2707TIP3    H229681   6.094   6.188   7.049
 2708TIP3   OH229682   1.562   3.221   0.705
 2708TIP3    H129683   1.490   3.263   0.658
 2708TIP3    H229684   1.519   3.157   0.761
 2709TIP3   OH229685   1.255   1.918   1.396
 2709TIP3    H129686   1.287   1.994   1.348
 2709TIP3    H229687   1.194   1.955   1.461
 2710TIP3   OH229688   2.000   4.236   1.827
 2710TIP3    H129689   1.974   4.272   1.912
 2710TIP3    H229690   2.064   4.168   1.848
 2711TIP3   OH229691   2.874   5.638   8.436
 2711TIP3    H129692   2.940   5.589   8.484
 2711TIP3    H229693   2.857   5.586   8.357
 2712TIP3   OH229694   1.921   6.254   1.251
 2712TIP3    H129695   1.939   6.160   1.244
 2712TIP3    H229696   1.852   6.260   1.317
 2713TIP3   OH229697   0.377   3.601   8.103
 2713TIP3    H129698   0.463   3.626   8.071
 2713TIP3    H229699   0.344   3.539   8.038
 2714TIP3   OH229700   1.481   5.032   8.642
 2714TIP3    H129701   1.540   5.004   8.572
 2714TIP3    H229702   1.505   5.123   8.659
 2715TIP3   OH229703   6.071   1.681   2.635
 2715TIP3    H129704   5.977   1.697   2.632
 2715TIP3    H229705   6.105   1.726   2.558
 2716TIP3   OH229706   6.511   1.612   0.157
 2716TIP3    H129707   6.513   1.560   0.077
 2716TIP3    H229708   6.426   1.593   0.197
 2717TIP3   OH229709   2.128   4.540   2.432
 2717TIP3    H129710   2.089   4.488   2.502
 2717TIP3    H229711   2.133   4.480   2.358
 2718TIP3   OH229712   6.600   2.786   7.642
 2718TIP3    H129713   6.621   2.724   7.572
 2718TIP3    H229714   6.632   2.743   7.722
 2719TIP3   OH229715   6.483   6.262   6.914
 2719TIP3    H129716   6.474   6.351   6.879
 2719TIP3    H229717   6.485   6.206   6.837
 2720TIP3   OH229718   6.394   0.388   8.234
 2720TIP3    H129719   6.451   0.331   8.284
 2720TIP3    H229720   6.311   0.342   8.230
 2721TIP3   OH229721   6.562   4.189   1.487
 2721TIP3    H129722   6.594   4.275   1.460
 2721TIP3    H229723   6.467   4.200   1.493
 2722TIP3   OH229724   0.695   0.343   7.071
 2722TIP3    H129725   0.626   0.367   7.134
 2722TIP3    H229726   0.738   0.426   7.050
 2723TIP3   OH229727   2.319   5.652   0.500
 2723TIP3    H129728   2.366   5.615   0.425
 2723TIP3    H229729   2.237   5.686   0.462
 2724TIP3   OH229730   1.607   4.288   6.463
 2724TIP3    H129731   1.594   4.198   6.494
 2724TIP3    H229732   1.618   4.279   6.368
 2725TIP3   OH229733   3.860   1.881   2.875
 2725TIP3    H129734   3.930   1.824   2.908
 2725TIP3    H229735   3.906   1.960   2.845
 2726TIP3   OH229736   2.015   1.973   7.954
 2726TIP3    H129737   1.962   1.898   7.926
 2726TIP3    H229738   2.014   2.032   7.879
 2727TIP3   OH229739   1.647   2.975   8.721
 2727TIP3    H129740   1.632   2.881   8.729
 2727TIP3    H229741   1.732   2.983   8.678
 2728TIP3   OH229742   1.325   5.496   8.549
 2728TIP3    H129743   1.401   5.545   8.579
 2728TIP3    H229744   1.355   5.449   8.472
 2729TIP3   OH229745   5.557   1.271   0.213
 2729TIP3    H129746   5.510   1.193   0.185
 2729TIP3    H229747   5.518   1.294   0.297
 2730TIP3   OH229748   4.024   4.861   7.481
 2730TIP3    H129749   4.061   4.885   7.397
 2730TIP3    H229750   4.027   4.942   7.533
 2731TIP3   OH229751   3.428   1.383   0.941
 2731TIP3    H129752   3.457   1.344   0.858
 2731TIP3    H229753   3.339   1.412   0.923
 2732TIP3   OH229754   5.101   6.166   6.595
 2732TIP3    H129755   5.131   6.075   6.596
 2732TIP3    H229756   5.007   6.160   6.581
 2733TIP3   OH229757   3.413   2.663   0.234
 2733TIP3    H129758   3.328   2.683   0.273
 2733TIP3    H229759   3.396   2.660   0.140
 2734TIP3   OH229760   2.802   5.888   7.576
 2734TIP3    H129761   2.815   5.932   7.492
 2734TIP3    H229762   2.732   5.937   7.619
 2735TIP3   OH229763   3.016   0.632   0.860
 2735TIP3    H129764   3.048   0.581   0.934
 2735TIP3    H229765   2.925   0.607   0.850
 2736TIP3   OH229766   0.504   1.317   1.037
 2736TIP3    H129767   0.592   1.309   1.075
 2736TIP3    H229768   0.519   1.356   0.951
 2737TIP3   OH229769   4.107   4.401   0.910
 2737TIP3    H129770   4.175   4.459   0.944
 2737TIP3    H229771   4.036   4.409   0.974
 2738TIP3   OH229772   3.457   0.139   7.732
 2738TIP3    H129773   3.404   0.083   7.788
 2738TIP3    H229774   3.394   0.195   7.686
 2739TIP3   OH229775   5.092   4.909   8.337
 2739TIP3    H129776   5.012   4.873   8.375
 2739TIP3    H229777   5.105   4.858   8.257
 2740TIP3   OH229778   5.316   3.531   8.532
 2740TIP3    H129779   5.374   3.458   8.555
 2740TIP3    H229780   5.283   3.562   8.617
 2741TIP3   OH229781   5.245   3.446   7.027
 2741TIP3    H129782   5.191   3.413   6.955
 2741TIP3    H229783   5.289   3.522   6.991
 2742TIP3   OH229784   0.271   1.294   8.358
 2742TIP3    H129785   0.312   1.208   8.345
 2742TIP3    H229786   0.177   1.275   8.359
 2743TIP3   OH229787   4.399   1.275   8.374
 2743TIP3    H129788   4.455   1.344   8.340
 2743TIP3    H229789   4.329   1.321   8.420
 2744TIP3   OH229790   2.884   6.643   7.705
 2744TIP3    H129791   2.968   6.678   7.735
 2744TIP3    H229792   2.873   6.678   7.617
 2745TIP3   OH229793   5.824   2.846   0.554
 2745TIP3    H129794   5.755   2.907   0.529
 2745TIP3    H229795   5.822   2.778   0.486
 2746TIP3   OH229796   4.942   5.873   7.345
 2746TIP3    H129797   5.025   5.825   7.343
 2746TIP3    H229798   4.900   5.847   7.427
 2747TIP3   OH229799   6.637   0.611   7.360
 2747TIP3    H129800   6.579   0.636   7.288
 2747TIP3    H229801   6.595   0.533   7.398
 2748TIP3   OH229802   1.030   4.341   0.382
 2748TIP3    H129803   1.015   4.404   0.452
 2748TIP3    H229804   0.991   4.260   0.413
 2749TIP3   OH229805   3.847   0.768   7.335
 2749TIP3    H129806   3.888   0.738   7.416
 2749TIP3    H229807   3.914   0.821   7.292
 2750TIP3   OH229808   5.288   1.230   6.466
 2750TIP3    H129809   5.221   1.284   6.508
 2750TIP3    H229810   5.257   1.221   6.376
 2751TIP3   OH229811   1.385   4.412   6.968
 2751TIP3    H129812   1.443   4.393   6.895
 2751TIP3    H229813   1.318   4.470   6.932
 2752TIP3   OH229814   2.961   2.635   0.892
 2752TIP3    H129815   2.965   2.615   0.798
 2752TIP3    H229816   2.924   2.556   0.931
 2753TIP3   OH229817   1.331   4.740   0.203
 2753TIP3    H129818   1.368   4.712   0.287
 2753TIP3    H229819   1.299   4.829   0.219
 2754TIP3   OH229820   4.291   4.233   7.082
 2754TIP3    H129821   4.325   4.262   7.167
 2754TIP3    H229822   4.359   4.256   7.019
 2755TIP3   OH229823   2.204   2.338   7.899
 2755TIP3    H129824   2.253   2.407   7.944
 2755TIP3    H229825   2.127   2.383   7.864
 2756TIP3   OH229826   4.867   6.663   7.868
 2756TIP3    H129827   4.912   6.704   7.794
 2756TIP3    H229828   4.922   6.684   7.944
 2757TIP3   OH229829   1.560   6.035   1.304
 2757TIP3    H129830   1.546   6.003   1.215
 2757TIP3    H229831   1.509   6.115   1.310
 2758TIP3   OH229832   3.487   2.165   0.949
 2758TIP3    H129833   3.484   2.229   1.021
 2758TIP3    H229834   3.417   2.103   0.969
 2759TIP3   OH229835   6.452   6.083   0.362
 2759TIP3    H129836   6.509   6.061   0.436
 2759TIP3    H229837   6.493   6.160   0.322
 2760TIP3   OH229838   6.125   2.552   1.528
 2760TIP3    H129839   6.218   2.569   1.538
 2760TIP3    H229840   6.082   2.626   1.572
 2761TIP3   OH229841   6.697   2.714   0.290
 2761TIP3    H129842   6.692   2.621   0.313
 2761TIP3    H229843   6.790   2.730   0.277
 2762TIP3   OH229844   4.069   4.916   6.974
 2762TIP3    H129845   4.130   4.886   6.908
 2762TIP3    H229846   4.060   4.842   7.034
 2763TIP3   OH229847   4.966   0.893   8.008
 2763TIP3    H129848   4.928   0.970   7.966
 2763TIP3    H229849   4.897   0.860   8.064
 2764TIP3   OH229850   4.678   5.458   8.153
 2764TIP3    H129851   4.773   5.457   8.166
 2764TIP3    H229852   4.658   5.373   8.113
 2765TIP3   OH229853   0.884   2.131   8.267
 2765TIP3    H129854   0.834   2.193   8.214
 2765TIP3    H229855   0.835   2.049   8.261
 2766TIP3   OH229856   2.452   3.642   1.208
 2766TIP3    H129857   2.397   3.565   1.198
 2766TIP3    H229858   2.472   3.668   1.118
 2767TIP3   OH229859   5.004   2.924   7.868
 2767TIP3    H129860   4.997   2.841   7.915
 2767TIP3    H229861   5.021   2.899   7.777
 2768TIP3   OH229862   6.062   0.740   0.991
 2768TIP3    H129863   6.011   0.718   1.069
 2768TIP3    H229864   6.071   0.657   0.944
 2769TIP3   OH229865   5.517   0.239   6.783
 2769TIP3    H129866   5.587   0.224   6.847
 2769TIP3    H229867   5.561   0.235   6.698
 2770TIP3   OH229868   3.772   1.191   0.114
 2770TIP3    H129869   3.858   1.221   0.084
 2770TIP3    H229870   3.733   1.268   0.156
 2771TIP3   OH229871   6.695   0.456   8.028
 2771TIP3    H129872   6.710   0.468   7.934
 2771TIP3    H229873   6.606   0.486   8.043
 2772TIP3   OH229874   3.246   5.524   1.700
 2772TIP3    H129875   3.247   5.546   1.607
 2772TIP3    H229876   3.225   5.606   1.744
 2773TIP3   OH229877   3.406   1.908   8.262
 2773TIP3    H129878   3.431   2.000   8.264
 2773TIP3    H229879   3.485   1.861   8.290
 2774TIP3   OH229880   5.640   5.443   7.248
 2774TIP3    H129881   5.724   5.486   7.236
 2774TIP3    H229882   5.588   5.505   7.299
 2775TIP3   OH229883   1.862   2.255   6.416
 2775TIP3    H129884   1.883   2.348   6.422
 2775TIP3    H229885   1.768   2.254   6.397
 2776TIP3   OH229886   2.599   0.381   1.727
 2776TIP3    H129887   2.685   0.339   1.732
 2776TIP3    H229888   2.545   0.320   1.676
 2777TIP3   OH229889   6.763   2.200   2.220
 2777TIP3    H129890   0.029   2.181   2.182
 2777TIP3    H229891   6.755   2.295   2.214
 2778TIP3   OH229892   0.477   0.152   8.680
 2778TIP3    H129893   0.384   0.159   8.701
 2778TIP3    H229894   0.488   0.207   8.602
 2779TIP3   OH229895   2.921   1.057   1.088
 2779TIP3    H129896   2.841   1.077   1.040
 2779TIP3    H229897   2.913   0.964   1.109
 2780TIP3   OH229898   6.393   5.303   0.961
 2780TIP3    H129899   6.481   5.335   0.982
 2780TIP3    H229900   6.408   5.238   0.892
 2781TIP3   OH229901   2.983   1.599   0.244
 2781TIP3    H129902   2.921   1.667   0.218
 2781TIP3    H229903   2.999   1.549   0.164
 2782TIP3   OH229904   3.122   1.752   0.583
 2782TIP3    H129905   3.123   1.832   0.635
 2782TIP3    H229906   3.215   1.735   0.564
 2783TIP3   OH229907   5.862   0.960   0.460
 2783TIP3    H129908   5.891   0.970   0.369
 2783TIP3    H229909   5.828   0.871   0.465
 2784TIP3   OH229910   1.304   2.914   7.185
 2784TIP3    H129911   1.398   2.895   7.189
 2784TIP3    H229912   1.289   2.940   7.094
 2785TIP3   OH229913   4.452   3.550   2.036
 2785TIP3    H129914   4.500   3.621   2.080
 2785TIP3    H229915   4.398   3.595   1.972
 2786TIP3   OH229916   3.999   6.559   8.551
 2786TIP3    H129917   3.966   6.498   8.486
 2786TIP3    H229918   3.963   6.644   8.526
 2787TIP3   OH229919   5.312   2.052   1.767
 2787TIP3    H129920   5.262   2.118   1.817
 2787TIP3    H229921   5.279   1.968   1.800
 2788TIP3   OH229922   5.315   2.274   0.884
 2788TIP3    H129923   5.277   2.309   0.965
 2788TIP3    H229924   5.249   2.214   0.851
 2789TIP3   OH229925   4.423   5.955   6.838
 2789TIP3    H129926   4.484   5.995   6.776
 2789TIP3    H229927   4.372   5.893   6.785
 2790TIP3   OH229928   3.319   4.239   0.828
 2790TIP3    H129929   3.231   4.244   0.865
 2790TIP3    H229930   3.327   4.149   0.798
 2791TIP3   OH229931   1.848   3.170   0.816
 2791TIP3    H129932   1.771   3.122   0.847
 2791TIP3    H229933   1.923   3.121   0.851
 2792TIP3   OH229934   5.232   5.017   0.599
 2792TIP3    H129935   5.179   4.939   0.617
 2792TIP3    H229936   5.322   4.984   0.594
 2793TIP3   OH229937   0.821   3.788   7.069
 2793TIP3    H129938   0.815   3.879   7.042
 2793TIP3    H229939   0.892   3.786   7.133
 2794TIP3   OH229940   2.905   2.609   7.199
 2794TIP3    H129941   2.814   2.579   7.190
 2794TIP3    H229942   2.958   2.530   7.189
 2795TIP3   OH229943   0.434   4.524   8.038
 2795TIP3    H129944   0.516   4.477   8.030
 2795TIP3    H229945   0.367   4.460   8.013
 2796TIP3   OH229946   1.618   5.114   7.780
 2796TIP3    H129947   1.706   5.143   7.758
 2796TIP3    H229948   1.628   5.072   7.866
 2797TIP3   OH229949   0.175   4.066   1.536
 2797TIP3    H129950   0.126   4.147   1.521
 2797TIP3    H229951   0.228   4.084   1.615
 2798TIP3   OH229952   0.734   4.105   0.164
 2798TIP3    H129953   0.780   4.068   0.240
 2798TIP3    H229954   0.717   4.030   0.108
 2799TIP3   OH229955   4.950   1.669   1.958
 2799TIP3    H129956   4.905   1.597   1.912
 2799TIP3    H229957   4.922   1.660   2.049
 2800TIP3   OH229958   0.124   2.079   0.027
 2800TIP3    H129959   0.200   2.039   0.069
 2800TIP3    H229960   0.074   2.117   0.099
 2801TIP3   OH229961   4.155   3.166   8.631
 2801TIP3    H129962   4.174   3.077   8.599
 2801TIP3    H229963   4.167   3.160   8.726
 2802TIP3   OH229964   6.639   5.175   8.139
 2802TIP3    H129965   6.709   5.126   8.095
 2802TIP3    H229966   6.599   5.228   8.070
 2803TIP3   OH229967   6.599   4.380   7.570
 2803TIP3    H129968   6.638   4.298   7.541
 2803TIP3    H229969   6.510   4.378   7.535
 2804TIP3   OH229970   4.732   5.127   1.371
 2804TIP3    H129971   4.665   5.094   1.430
 2804TIP3    H229972   4.810   5.138   1.426
 2805TIP3   OH229973   3.530   5.578   6.975
 2805TIP3    H129974   3.541   5.602   6.883
 2805TIP3    H229975   3.581   5.643   7.023
 2806TIP3   OH229976   0.412   4.953   7.284
 2806TIP3    H129977   0.391   4.929   7.194
 2806TIP3    H229978   0.482   4.893   7.309
 2807TIP3   OH229979   6.217   4.386   0.918
 2807TIP3    H129980   6.217   4.300   0.877
 2807TIP3    H229981   6.245   4.370   1.008
 2808TIP3   OH229982   1.366   5.513   0.423
 2808TIP3    H129983   1.377   5.447   0.492
 2808TIP3    H229984   1.455   5.530   0.393
 2809TIP3   OH229985   3.690   5.628   7.541
 2809TIP3    H129986   3.703   5.721   7.525
 2809TIP3    H229987   3.619   5.603   7.482
 2810TIP3   OH229988   6.263   5.275   8.231
 2810TIP3    H129989   6.199   5.284   8.161
 2810TIP3    H229990   6.289   5.365   8.251
 2811TIP3   OH229991   6.755   6.330   1.747
 2811TIP3    H129992   6.763   6.271   1.821
 2811TIP3    H229993   0.025   6.359   1.729
 2812TIP3   OH229994   2.413   4.788   8.412
 2812TIP3    H129995   2.473   4.757   8.480
 2812TIP3    H229996   2.382   4.708   8.369
 2813TIP3   OH229997   2.276   0.924   6.274
 2813TIP3    H129998   2.269   0.829   6.265
 2813TIP3    H229999   2.198   0.950   6.324
 2814TIP3   OH230000   5.667   1.506   7.621
 2814TIP3    H130001   5.642   1.597   7.605
 2814TIP3    H230002   5.689   1.503   7.714
 2815TIP3   OH230003   3.991   2.556   2.020
 2815TIP3    H130004   3.989   2.644   1.984
 2815TIP3    H230005   4.084   2.534   2.027
 2816TIP3   OH230006   1.944   3.445   7.209
 2816TIP3    H130007   1.904   3.528   7.182
 2816TIP3    H230008   1.968   3.403   7.127
 2817TIP3   OH230009   1.767   3.158   7.387
 2817TIP3    H130010   1.790   3.225   7.452
 2817TIP3    H230011   1.677   3.134   7.408
 2818TIP3   OH230012   5.688   0.997   8.596
 2818TIP3    H130013   5.699   1.028   8.506
 2818TIP3    H230014   5.676   1.077   8.647
 2819TIP3   OH230015   2.707   3.969   0.603
 2819TIP3    H130016   2.624   3.923   0.589
 2819TIP3    H230017   2.770   3.922   0.549
 2820TIP3   OH230018   0.535   4.100   7.681
 2820TIP3    H130019   0.498   4.136   7.600
 2820TIP3    H230020   0.460   4.065   7.729
 2821TIP3   OH230021   2.892   5.543   7.268
 2821TIP3    H130022   2.899   5.617   7.208
 2821TIP3    H230023   2.852   5.473   7.217
 2822TIP3   OH230024   2.383   6.600   7.370
 2822TIP3    H130025   2.299   6.571   7.405
 2822TIP3    H230026   2.447   6.569   7.434
 2823TIP3   OH230027   2.116   3.488   6.881
 2823TIP3    H130028   2.033   3.527   6.855
 2823TIP3    H230029   2.091   3.417   6.940
 2824TIP3   OH230030   2.453   0.239   0.243
 2824TIP3    H130031   2.416   0.188   0.170
 2824TIP3    H230032   2.541   0.262   0.214
 2825TIP3   OH230033   0.981   2.201   7.595
 2825TIP3    H130034   1.013   2.271   7.538
 2825TIP3    H230035   1.030   2.212   7.677
 2826TIP3   OH230036   4.486   2.341   7.725
 2826TIP3    H130037   4.549   2.327   7.796
 2826TIP3    H230038   4.466   2.434   7.729
 2827TIP3   OH230039   1.990   2.896   7.686
 2827TIP3    H130040   2.009   2.987   7.664
 2827TIP3    H230041   1.949   2.860   7.608
 2828TIP3   OH230042   4.743   2.652   7.044
 2828TIP3    H130043   4.680   2.584   7.066
 2828TIP3    H230044   4.704   2.733   7.078
 2829TIP3   OH230045   2.568   0.285   8.193
 2829TIP3    H130046   2.647   0.329   8.225
 2829TIP3    H230047   2.569   0.302   8.098
 2830TIP3   OH230048   6.127   4.628   1.004
 2830TIP3    H130049   6.158   4.549   0.960
 2830TIP3    H230050   6.126   4.605   1.097
 2831TIP3   OH230051   1.453   1.069   0.235
 2831TIP3    H130052   1.450   1.040   0.144
 2831TIP3    H230053   1.375   1.123   0.245
 2832TIP3   OH230054   3.658   6.223   8.516
 2832TIP3    H130055   3.689   6.154   8.456
 2832TIP3    H230056   3.661   6.183   8.602
 2833TIP3   OH230057   5.128   6.516   6.838
 2833TIP3    H130058   5.136   6.480   6.750
 2833TIP3    H230059   5.052   6.574   6.832
 2834TIP3   OH230060   2.894   2.713   8.452
 2834TIP3    H130061   2.818   2.771   8.464
 2834TIP3    H230062   2.920   2.725   8.361
 2835TIP3   OH230063   5.975   3.058   7.271
 2835TIP3    H130064   6.069   3.079   7.272
 2835TIP3    H230065   5.950   3.065   7.179
 2836TIP3   OH230066   5.158   1.438   1.890
 2836TIP3    H130067   5.146   1.504   1.958
 2836TIP3    H230068   5.172   1.357   1.938
 2837TIP3   OH230069   5.533   2.386   8.090
 2837TIP3    H130070   5.564   2.448   8.155
 2837TIP3    H230071   5.512   2.307   8.139
 2838TIP3   OH230072   3.023   4.951   0.341
 2838TIP3    H130073   2.986   4.938   0.428
 2838TIP3    H230074   3.096   5.011   0.354
 2839TIP3   OH230075   3.430   2.866   6.753
 2839TIP3    H130076   3.385   2.826   6.679
 2839TIP3    H230077   3.522   2.841   6.741
 2840TIP3   OH230078   4.991   3.209   1.722
 2840TIP3    H130079   5.058   3.277   1.723
 2840TIP3    H230080   5.017   3.148   1.790
 2841TIP3   OH230081   3.744   0.705   1.751
 2841TIP3    H130082   3.671   0.657   1.712
 2841TIP3    H230083   3.750   0.672   1.841
 2842TIP3   OH230084   1.108   5.920   6.726
 2842TIP3    H130085   1.039   5.979   6.693
 2842TIP3    H230086   1.095   5.918   6.820
 2843TIP3   OH230087   2.672   6.021   8.455
 2843TIP3    H130088   2.680   5.969   8.535
 2843TIP3    H230089   2.744   5.991   8.399
 2844TIP3   OH230090   2.462   3.240   7.421
 2844TIP3    H130091   2.429   3.205   7.504
 2844TIP3    H230092   2.446   3.170   7.358
 2845TIP3   OH230093   5.895   1.883   8.121
 2845TIP3    H130094   5.954   1.814   8.153
 2845TIP3    H230095   5.862   1.849   8.038
 2846TIP3   OH230096   2.688   0.107   8.779
 2846TIP3    H130097   2.658   0.047   0.047
 2846TIP3    H230098   2.784   0.103   8.785
 2847TIP3   OH230099   6.572   3.230   0.430
 2847TIP3    H130100   6.622   3.216   0.349
 2847TIP3    H230101   6.578   3.146   0.476
 2848TIP3   OH230102   1.430   1.469   2.302
 2848TIP3    H130103   1.348   1.426   2.325
 2848TIP3    H230104   1.426   1.554   2.347
 2849TIP3   OH230105   1.213   6.249   1.406
 2849TIP3    H130106   1.143   6.269   1.468
 2849TIP3    H230107   1.206   6.155   1.391
 2850TIP3   OH230108   2.459   5.611   0.271
 2850TIP3    H130109   2.495   5.669   0.337
 2850TIP3    H230110   2.374   5.649   0.250
 2851TIP3   OH230111   4.257   4.943   8.221
 2851TIP3    H130112   4.299   4.876   8.276
 2851TIP3    H230113   4.166   4.945   8.251
 2852TIP3   OH230114   0.803   1.641   0.318
 2852TIP3    H130115   0.820   1.727   0.355
 2852TIP3    H230116   0.889   1.611   0.287
 2853TIP3   OH230117   6.704   5.637   8.442
 2853TIP3    H130118   6.691   5.559   8.496
 2853TIP3    H230119   6.684   5.608   8.353
 2854TIP3   OH230120   4.354   6.533   7.707
 2854TIP3    H130121   4.293   6.495   7.644
 2854TIP3    H230122   4.313   6.518   7.792
 2855TIP3   OH230123   2.526   5.050   7.812
 2855TIP3    H130124   2.438   5.054   7.775
 2855TIP3    H230125   2.521   5.102   7.893
 2856TIP3   OH230126   0.923   6.111   7.911
 2856TIP3    H130127   0.996   6.060   7.876
 2856TIP3    H230128   0.850   6.092   7.851
 2857TIP3   OH230129   0.101   6.160   7.399
 2857TIP3    H130130   0.051   6.126   7.473
 2857TIP3    H230131   0.192   6.163   7.430
 2858TIP3   OH230132   1.168   6.817   0.131
 2858TIP3    H130133   1.202   6.785   0.214
 2858TIP3    H230134   1.239   6.804   0.069
 2859TIP3   OH230135   5.723   5.247   8.395
 2859TIP3    H130136   5.705   5.339   8.414
 2859TIP3    H230137   5.692   5.200   8.472
 2860TIP3   OH230138   0.122   2.794   1.687
 2860TIP3    H130139   0.168   2.806   1.604
 2860TIP3    H230140   0.167   2.852   1.748
 2861TIP3   OH230141   2.850   2.435   8.374
 2861TIP3    H130142   2.875   2.517   8.416
 2861TIP3    H230143   2.904   2.369   8.418
 2862TIP3   OH230144   5.987   2.179   8.158
 2862TIP3    H130145   5.936   2.258   8.140
 2862TIP3    H230146   5.922   2.112   8.179
 2863TIP3   OH230147   6.206   1.384   7.323
 2863TIP3    H130148   6.248   1.466   7.349
 2863TIP3    H230149   6.144   1.366   7.393
 2864TIP3   OH230150   3.297   1.943   0.231
 2864TIP3    H130151   3.272   1.851   0.237
 2864TIP3    H230152   3.301   1.960   0.137
 2865TIP3   OH230153   3.408   4.055   8.483
 2865TIP3    H130154   3.479   4.025   8.540
 2865TIP3    H230155   3.331   4.008   8.513
 2866TIP3   OH230156   4.946   2.924   7.594
 2866TIP3    H130157   5.020   2.976   7.563
 2866TIP3    H230158   4.928   2.862   7.523
 2867TIP3   OH230159   1.231   1.621   0.736
 2867TIP3    H130160   1.269   1.541   0.774
 2867TIP3    H230161   1.213   1.677   0.811
 2868TIP3   OH230162   3.734   3.959   8.320
 2868TIP3    H130163   3.648   3.923   8.298
 2868TIP3    H230164   3.746   4.032   8.259
 2869TIP3   OH230165   1.232   1.218   0.274
 2869TIP3    H130166   1.163   1.222   0.207
 2869TIP3    H230167   1.185   1.207   0.356
 2870TIP3   OH230168   1.748   3.344   8.215
 2870TIP3    H130169   1.757   3.434   8.184
 2870TIP3    H230170   1.837   3.309   8.215
 2871TIP3   OH230171   2.292   0.537   2.352
 2871TIP3    H130172   2.247   0.580   2.279
 2871TIP3    H230173   2.384   0.557   2.340
 2872TIP3   OH230174   5.766   4.849   7.864
 2872TIP3    H130175   5.687   4.831   7.915
 2872TIP3    H230176   5.768   4.945   7.856
 2873TIP3   OH230177   3.772   2.872   1.572
 2873TIP3    H130178   3.722   2.925   1.634
 2873TIP3    H230179   3.791   2.791   1.620
 2874TIP3   OH230180   0.307   6.640   1.048
 2874TIP3    H130181   0.252   6.717   1.056
 2874TIP3    H230182   0.308   6.602   1.136
 2875TIP3   OH230183   4.388   2.894   1.363
 2875TIP3    H130184   4.309   2.854   1.398
 2875TIP3    H230185   4.394   2.859   1.274
 2876TIP3   OH230186   2.334   1.122   7.990
 2876TIP3    H130187   2.372   1.194   8.040
 2876TIP3    H230188   2.254   1.159   7.953
 2877TIP3   OH230189   4.561   1.669   1.860
 2877TIP3    H130190   4.631   1.732   1.876
 2877TIP3    H230191   4.540   1.678   1.767
 2878TIP3   OH230192   1.145   3.221   7.609
 2878TIP3    H130193   1.133   3.127   7.599
 2878TIP3    H230194   1.226   3.241   7.562
 2879TIP3   OH230195   2.197   5.429   8.636
 2879TIP3    H130196   2.113   5.397   8.601
 2879TIP3    H230197   2.255   5.352   8.631
 2880TIP3   OH230198   3.581   6.791   0.743
 2880TIP3    H130199   3.499   6.819   0.702
 2880TIP3    H230200   3.557   6.713   0.793
 2881TIP3   OH230201   2.717   0.601   7.378
 2881TIP3    H130202   2.703   0.694   7.361
 2881TIP3    H230203   2.630   0.567   7.399
 2882TIP3   OH230204   6.680   5.793   0.329
 2882TIP3    H130205   6.741   5.779   0.256
 2882TIP3    H230206   6.639   5.707   0.342
 2883TIP3   OH230207   5.878   6.361   8.138
 2883TIP3    H130208   5.803   6.386   8.085
 2883TIP3    H230209   5.935   6.313   8.077
 2884TIP3   OH230210   6.505   4.711   7.647
 2884TIP3    H130211   6.469   4.799   7.656
 2884TIP3    H230212   6.441   4.655   7.690
 2885TIP3   OH230213   0.669   2.601   1.732
 2885TIP3    H130214   0.622   2.643   1.660
 2885TIP3    H230215   0.624   2.631   1.811
 2886TIP3   OH230216   1.222   5.975   7.773
 2886TIP3    H130217   1.247   5.922   7.698
 2886TIP3    H230218   1.240   6.065   7.747
 2887TIP3   OH230219   4.203   5.166   0.504
 2887TIP3    H130220   4.167   5.174   0.416
 2887TIP3    H230221   4.294   5.194   0.495
 2888TIP3   OH230222   3.194   0.916   8.523
 2888TIP3    H130223   3.190   0.867   8.605
 2888TIP3    H230224   3.203   0.849   8.455
 2889TIP3   OH230225   2.767   3.157   2.551
 2889TIP3    H130226   2.815   3.179   2.470
 2889TIP3    H230227   2.680   3.131   2.521
 2890TIP3   OH230228   1.141   1.809   8.137
 2890TIP3    H130229   1.054   1.780   8.165
 2890TIP3    H230230   1.152   1.770   8.050
 2891TIP3   OH230231   6.148   1.280   1.317
 2891TIP3    H130232   6.229   1.232   1.330
 2891TIP3    H230233   6.099   1.268   1.399
 2892TIP3   OH230234   2.493   1.967   1.687
 2892TIP3    H130235   2.495   2.030   1.760
 2892TIP3    H230236   2.538   1.890   1.721
 2893TIP3   OH230237   2.926   0.166   0.838
 2893TIP3    H130238   2.899   0.138   0.751
 2893TIP3    H230239   2.877   0.110   0.898
 2894TIP3   OH230240   1.232   6.738   8.597
 2894TIP3    H130241   1.303   6.752   8.534
 2894TIP3    H230242   1.176   6.815   8.589
 2895TIP3   OH230243   5.406   2.033   0.726
 2895TIP3    H130244   5.381   2.033   0.818
 2895TIP3    H230245   5.347   2.096   0.685
 2896TIP3   OH230246   5.953   3.462   0.686
 2896TIP3    H130247   5.914   3.386   0.729
 2896TIP3    H230248   5.987   3.428   0.603
 2897TIP3   OH230249   6.516   0.270   8.734
 2897TIP3    H130250   6.493   0.347   8.681
 2897TIP3    H230251   6.471   0.285   0.017
 2898TIP3   OH230252   6.751   2.730   0.874
 2898TIP3    H130253   6.668   2.759   0.837
 2898TIP3    H230254   6.791   2.809   0.910
 2899TIP3   OH230255   0.747   6.659   0.429
 2899TIP3    H130256   0.690   6.735   0.423
 2899TIP3    H230257   0.834   6.692   0.408
 2900TIP3   OH230258   2.932   4.644   7.619
 2900TIP3    H130259   2.873   4.575   7.651
 2900TIP3    H230260   2.974   4.606   7.543
 2901TIP3   OH230261   1.059   2.299   0.960
 2901TIP3    H130262   1.098   2.341   1.036
 2901TIP3    H230263   1.039   2.210   0.989
 2902TIP3   OH230264   4.239   4.836   7.193
 2902TIP3    H130265   4.280   4.898   7.253
 2902TIP3    H230266   4.203   4.890   7.123
 2903TIP3   OH230267   4.194   2.220   7.132
 2903TIP3    H130268   4.154   2.294   7.178
 2903TIP3    H230269   4.121   2.163   7.111
 2904TIP3   OH230270   1.323   3.800   1.788
 2904TIP3    H130271   1.377   3.729   1.822
 2904TIP3    H230272   1.233   3.771   1.803
 2905TIP3   OH230273   2.447   5.740   7.442
 2905TIP3    H130274   2.467   5.732   7.535
 2905TIP3    H230275   2.437   5.650   7.412
 2906TIP3   OH230276   1.624   0.978   8.110
 2906TIP3    H130277   1.638   0.961   8.203
 2906TIP3    H230278   1.695   1.037   8.086
 2907TIP3   OH230279   5.155   5.757   7.594
 2907TIP3    H130280   5.076   5.704   7.585
 2907TIP3    H230281   5.212   5.707   7.652
 2908TIP3   OH230282   0.198   2.311   8.693
 2908TIP3    H130283   0.149   2.268   8.763
 2908TIP3    H230284   0.232   2.238   8.641
 2909TIP3   OH230285   5.337   6.537   1.935
 2909TIP3    H130286   5.305   6.447   1.942
 2909TIP3    H230287   5.257   6.590   1.927
 2910TIP3   OH230288   0.631   1.384   7.874
 2910TIP3    H130289   0.580   1.461   7.851
 2910TIP3    H230290   0.605   1.364   7.964
 2911TIP3   OH230291   3.246   4.978   8.577
 2911TIP3    H130292   3.249   4.884   8.560
 2911TIP3    H230293   3.184   4.988   8.649
 2912TIP3   OH230294   2.421   5.694   1.814
 2912TIP3    H130295   2.389   5.694   1.904
 2912TIP3    H230296   2.511   5.726   1.822
 2913TIP3   OH230297   2.457   1.500   0.882
 2913TIP3    H130298   2.416   1.586   0.875
 2913TIP3    H230299   2.542   1.516   0.922
 2914TIP3   OH230300   6.267   6.318   1.407
 2914TIP3    H130301   6.273   6.413   1.407
 2914TIP3    H230302   6.173   6.300   1.408
 2915TIP3   OH230303   2.349   4.101   0.435
 2915TIP3    H130304   2.439   4.094   0.404
 2915TIP3    H230305   2.306   4.022   0.404
 2916TIP3   OH230306   2.963   3.681   8.608
 2916TIP3    H130307   3.005   3.726   8.681
 2916TIP3    H230308   2.875   3.659   8.640
 2917TIP3   OH230309   2.454   1.706   1.251
 2917TIP3    H130310   2.395   1.696   1.177
 2917TIP3    H230311   2.541   1.720   1.212
 2918TIP3   OH230312   4.976   2.268   7.247
 2918TIP3    H130313   5.067   2.245   7.224
 2918TIP3    H230314   4.979   2.363   7.262
 2919TIP3   OH230315   4.435   6.627   0.490
 2919TIP3    H130316   4.486   6.556   0.452
 2919TIP3    H230317   4.450   6.702   0.431
 2920TIP3   OH230318   2.033   2.202   7.395
 2920TIP3    H130319   2.005   2.252   7.472
 2920TIP3    H230320   1.990   2.245   7.321
 2921TIP3   OH230321   4.796   2.316   7.933
 2921TIP3    H130322   4.812   2.333   7.840
 2921TIP3    H230323   4.882   2.327   7.975
 2922TIP3   OH230324   1.233   5.409   1.421
 2922TIP3    H130325   1.142   5.438   1.423
 2922TIP3    H230326   1.283   5.487   1.443
 2923TIP3   OH230327   5.199   2.191   0.195
 2923TIP3    H130328   5.282   2.212   0.238
 2923TIP3    H230329   5.215   2.107   0.152
 2924TIP3   OH230330   5.192   3.403   1.697
 2924TIP3    H130331   5.287   3.405   1.686
 2924TIP3    H230332   5.175   3.457   1.774
 2925TIP3   OH230333   5.369   2.660   3.019
 2925TIP3    H130334   5.456   2.670   2.980
 2925TIP3    H230335   5.370   2.574   3.060
 2926TIP3   OH230336   2.038   3.527   1.657
 2926TIP3    H130337   1.981   3.496   1.728
 2926TIP3    H230338   2.097   3.588   1.699
 2927TIP3   OH230339   6.214   3.487   1.984
 2927TIP3    H130340   6.210   3.534   2.067
 2927TIP3    H230341   6.138   3.518   1.935
 2928TIP3   OH230342   6.189   1.954   6.350
 2928TIP3    H130343   6.174   1.881   6.411
 2928TIP3    H230344   6.254   1.919   6.288
 2929TIP3   OH230345   1.153   5.056   2.001
 2929TIP3    H130346   1.198   5.108   2.067
 2929TIP3    H230347   1.084   5.010   2.050
 2930TIP3   OH230348   3.180   5.468   2.543
 2930TIP3    H130349   3.085   5.466   2.549
 2930TIP3    H230350   3.198   5.539   2.481
 2931TIP3   OH230351   3.344   2.414   8.026
 2931TIP3    H130352   3.347   2.370   7.941
 2931TIP3    H230353   3.290   2.357   8.081
 2932TIP3   OH230354   0.352   3.423   1.387
 2932TIP3    H130355   0.427   3.420   1.447
 2932TIP3    H230356   0.305   3.503   1.412
 2933TIP3   OH230357   3.669   2.805   6.617
 2933TIP3    H130358   3.761   2.818   6.641
 2933TIP3    H230359   3.658   2.710   6.617
 2934TIP3   OH230360   4.601   4.676   1.433
 2934TIP3    H130361   4.591   4.717   1.519
 2934TIP3    H230362   4.679   4.717   1.396
 2935TIP3   OH230363   6.380   0.608   1.021
 2935TIP3    H130364   6.315   0.539   1.034
 2935TIP3    H230365   6.329   0.684   0.994
 2936TIP3   OH230366   0.650   5.195   7.183
 2936TIP3    H130367   0.687   5.121   7.136
 2936TIP3    H230368   0.721   5.225   7.241
 2937TIP3   OH230369   4.411   2.848   7.609
 2937TIP3    H130370   4.401   2.919   7.546
 2937TIP3    H230371   4.344   2.784   7.585
 2938TIP3   OH230372   1.845   4.143   0.425
 2938TIP3    H130373   1.853   4.091   0.505
 2938TIP3    H230374   1.852   4.080   0.354
 2939TIP3   OH230375   6.196   0.174   8.189
 2939TIP3    H130376   6.113   0.176   8.141
 2939TIP3    H230377   6.246   0.103   8.148
 2940TIP3   OH230378   3.951   1.745   2.070
 2940TIP3    H130379   3.933   1.681   2.000
 2940TIP3    H230380   3.936   1.696   2.151
 2941TIP3   OH230381   2.763   6.659   6.227
 2941TIP3    H130382   2.746   6.565   6.233
 2941TIP3    H230383   2.858   6.666   6.218
 2942TIP3   OH230384   1.951   5.906   8.465
 2942TIP3    H130385   1.970   5.999   8.454
 2942TIP3    H230386   1.855   5.900   8.463
 2943TIP3   OH230387   1.193   5.843   7.998
 2943TIP3    H130388   1.167   5.899   7.925
 2943TIP3    H230389   1.288   5.852   8.002
 2944TIP3   OH230390   2.349   4.190   8.491
 2944TIP3    H130391   2.297   4.142   8.427
 2944TIP3    H230392   2.330   4.282   8.474
 2945TIP3   OH230393   5.933   5.596   0.137
 2945TIP3    H130394   5.870   5.567   0.203
 2945TIP3    H230395   6.012   5.546   0.155
 2946TIP3   OH230396   3.435   3.333   0.570
 2946TIP3    H130397   3.500   3.337   0.499
 2946TIP3    H230398   3.485   3.308   0.647
 2947TIP3   OH230399   0.937   0.771   8.634
 2947TIP3    H130400   0.989   0.771   8.715
 2947TIP3    H230401   0.976   0.701   8.581
 2948TIP3   OH230402   6.633   6.380   7.787
 2948TIP3    H130403   6.657   6.467   7.820
 2948TIP3    H230404   6.712   6.327   7.801
 2949TIP3   OH230405   6.284   2.644   8.253
 2949TIP3    H130406   6.334   2.564   8.238
 2949TIP3    H230407   6.345   2.701   8.300
 2950TIP3   OH230408   6.514   1.931   7.427
 2950TIP3    H130409   6.570   2.008   7.419
 2950TIP3    H230410   6.570   1.863   7.464
 2951TIP3   OH230411   3.738   2.601   8.689
 2951TIP3    H130412   3.758   2.562   8.604
 2951TIP3    H230413   3.725   2.694   8.670
 2952TIP3   OH230414   6.550   6.449   0.011
 2952TIP3    H130415   6.547   6.481   8.721
 2952TIP3    H230416   6.458   6.439   0.035
 2953TIP3   OH230417   1.404   3.151   1.257
 2953TIP3    H130418   1.339   3.092   1.220
 2953TIP3    H230419   1.353   3.212   1.311
 2954TIP3   OH230420   6.393   1.375   1.578
 2954TIP3    H130421   6.393   1.282   1.603
 2954TIP3    H230422   6.445   1.378   1.497
 2955TIP3   OH230423   2.982   6.313   1.026
 2955TIP3    H130424   2.893   6.347   1.040
 2955TIP3    H230425   2.972   6.218   1.023
 2956TIP3   OH230426   1.073   3.419   1.655
 2956TIP3    H130427   1.102   3.425   1.746
 2956TIP3    H230428   1.111   3.495   1.612
 2957TIP3   OH230429   1.497   6.392   1.161
 2957TIP3    H130430   1.478   6.333   1.087
 2957TIP3    H230431   1.584   6.427   1.142
 2958TIP3   OH230432   4.024   1.710   7.593
 2958TIP3    H130433   4.062   1.645   7.651
 2958TIP3    H230434   3.935   1.724   7.626
 2959TIP3   OH230435   2.603   0.879   1.141
 2959TIP3    H130436   2.543   0.831   1.198
 2959TIP3    H230437   2.556   0.888   1.058
 2960TIP3   OH230438   5.056   5.392   1.621
 2960TIP3    H130439   5.090   5.468   1.574
 2960TIP3    H230440   5.086   5.404   1.711
 2961TIP3   OH230441   1.915   5.239   0.720
 2961TIP3    H130442   1.909   5.249   0.815
 2961TIP3    H230443   1.946   5.149   0.707
 2962TIP3   OH230444   2.860   4.529   7.120
 2962TIP3    H130445   2.912   4.450   7.106
 2962TIP3    H230446   2.923   4.594   7.151
 2963TIP3   OH230447   6.776   2.946   1.195
 2963TIP3    H130448   6.710   2.965   1.130
 2963TIP3    H230449   6.732   2.888   1.258
 2964TIP3   OH230450   5.632   5.886   7.660
 2964TIP3    H130451   5.699   5.911   7.595
 2964TIP3    H230452   5.627   5.790   7.652
 2965TIP3   OH230453   0.709   0.917   8.299
 2965TIP3    H130454   0.627   0.966   8.309
 2965TIP3    H230455   0.688   0.850   8.234
 2966TIP3   OH230456   2.368   1.153   0.378
 2966TIP3    H130457   2.289   1.101   0.391
 2966TIP3    H230458   2.430   1.093   0.336
 2967TIP3   OH230459   6.442   1.060   0.586
 2967TIP3    H130460   6.358   1.050   0.540
 2967TIP3    H230461   6.508   1.049   0.518
 2968TIP3   OH230462   5.458   0.291   7.649
 2968TIP3    H130463   5.406   0.218   7.614
 2968TIP3    H230464   5.537   0.292   7.595
 2969TIP3   OH230465   6.477   6.388   7.569
 2969TIP3    H130466   6.553   6.384   7.511
 2969TIP3    H230467   6.514   6.385   7.658
 2970TIP3   OH230468   4.981   1.725   1.177
 2970TIP3    H130469   4.946   1.785   1.111
 2970TIP3    H230470   5.044   1.671   1.129
 2971TIP3   OH230471   1.822   1.592   7.432
 2971TIP3    H130472   1.754   1.549   7.380
 2971TIP3    H230473   1.882   1.522   7.456
 2972TIP3   OH230474   4.689   4.681   0.457
 2972TIP3    H130475   4.756   4.725   0.509
 2972TIP3    H230476   4.615   4.671   0.516
 2973TIP3   OH230477   1.560   3.810   8.438
 2973TIP3    H130478   1.488   3.775   8.386
 2973TIP3    H230479   1.638   3.797   8.383
 2974TIP3   OH230480   4.287   1.916   1.334
 2974TIP3    H130481   4.353   1.948   1.394
 2974TIP3    H230482   4.216   1.979   1.339
 2975TIP3   OH230483   1.281   0.923   0.006
 2975TIP3    H130484   1.244   0.998   8.761
 2975TIP3    H230485   1.243   0.927   0.094
 2976TIP3   OH230486   2.915   0.982   1.839
 2976TIP3    H130487   2.987   1.018   1.890
 2976TIP3    H230488   2.949   0.977   1.749
 2977TIP3   OH230489   6.297   5.177   1.753
 2977TIP3    H130490   6.243   5.185   1.832
 2977TIP3    H230491   6.284   5.260   1.707
 2978TIP3   OH230492   2.002   1.917   1.140
 2978TIP3    H130493   1.978   1.975   1.212
 2978TIP3    H230494   1.923   1.911   1.087
 2979TIP3   OH230495   2.252   6.474   0.397
 2979TIP3    H130496   2.227   6.466   0.305
 2979TIP3    H230497   2.299   6.394   0.417
 2980TIP3   OH230498   0.455   6.086   0.237
 2980TIP3    H130499   0.374   6.075   0.187
 2980TIP3    H230500   0.427   6.083   0.328
 2981TIP3   OH230501   5.292   5.729   8.395
 2981TIP3    H130502   5.367   5.744   8.338
 2981TIP3    H230503   5.218   5.720   8.336
 2982TIP3   OH230504   0.362   6.209   7.497
 2982TIP3    H130505   0.384   6.271   7.567
 2982TIP3    H230506   0.442   6.201   7.446
 2983TIP3   OH230507   4.320   3.800   7.094
 2983TIP3    H130508   4.388   3.800   7.162
 2983TIP3    H230509   4.359   3.750   7.022
 2984TIP3   OH230510   4.785   6.353   0.477
 2984TIP3    H130511   4.875   6.327   0.495
 2984TIP3    H230512   4.773   6.340   0.383
 2985TIP3   OH230513   4.545   2.847   5.866
 2985TIP3    H130514   4.564   2.754   5.876
 2985TIP3    H230515   4.481   2.865   5.935
 2986TIP3   OH230516   0.900   4.132   0.501
 2986TIP3    H130517   0.944   4.054   0.466
 2986TIP3    H230518   0.825   4.097   0.549
 2987TIP3   OH230519   6.173   2.168   2.150
 2987TIP3    H130520   6.176   2.074   2.132
 2987TIP3    H230521   6.113   2.203   2.084
 2988TIP3   OH230522   4.561   2.474   0.751
 2988TIP3    H130523   4.551   2.543   0.685
 2988TIP3    H230524   4.644   2.494   0.794
 2989TIP3   OH230525   1.972   0.561   7.235
 2989TIP3    H130526   1.914   0.569   7.311
 2989TIP3    H230527   2.046   0.617   7.255
 2990TIP3   OH230528   0.885   6.478   8.511
 2990TIP3    H130529   0.940   6.401   8.498
 2990TIP3    H230530   0.846   6.465   8.598
 2991TIP3   OH230531   4.258   3.044   7.416
 2991TIP3    H130532   4.185   3.093   7.380
 2991TIP3    H230533   4.239   2.953   7.396
 2992TIP3   OH230534   5.457   2.105   2.068
 2992TIP3    H130535   5.411   2.169   2.122
 2992TIP3    H230536   5.531   2.153   2.030
 2993TIP3   OH230537   5.007   6.443   1.088
 2993TIP3    H130538   5.074   6.509   1.069
 2993TIP3    H230539   5.002   6.441   1.184
 2994TIP3   OH230540   1.887   1.023   8.252
 2994TIP3    H130541   1.858   1.099   8.202
 2994TIP3    H230542   1.951   1.058   8.314
 2995TIP3   OH230543   6.103   5.049   0.852
 2995TIP3    H130544   6.133   4.959   0.841
 2995TIP3    H230545   6.116   5.090   0.767
 2996TIP3   OH230546   3.061   4.593   6.768
 2996TIP3    H130547   2.970   4.578   6.795
 2996TIP3    H230548   3.110   4.526   6.816
 2997TIP3   OH230549   6.063   3.411   0.143
 2997TIP3    H130550   6.051   3.397   0.237
 2997TIP3    H230551   6.048   3.324   0.104
 2998TIP3   OH230552   4.722   0.033   0.707
 2998TIP3    H130553   4.746   0.071   0.791
 2998TIP3    H230554   4.673   0.102   0.662
 2999TIP3   OH230555   3.268   6.406   1.266
 2999TIP3    H130556   3.337   6.467   1.290
 2999TIP3    H230557   3.243   6.431   1.176
 3000TIP3   OH230558   2.475   1.527   0.597
 3000TIP3    H130559   2.492   1.526   0.691
 3000TIP3    H230560   2.548   1.476   0.559
 3001TIP3   OH230561   3.758   0.258   8.311
 3001TIP3    H130562   3.793   0.336   8.267
 3001TIP3    H230563   3.782   0.271   8.403
 3002TIP3   OH230564   4.538   1.410   0.795
 3002TIP3    H130565   4.625   1.437   0.768
 3002TIP3    H230566   4.500   1.487   0.837
 3003TIP3   OH230567   6.380   5.427   1.252
 3003TIP3    H130568   6.447   5.422   1.183
 3003TIP3    H230569   6.419   5.483   1.319
 3004TIP3   OH230570   5.976   4.786   7.350
 3004TIP3    H130571   5.960   4.761   7.441
 3004TIP3    H230572   5.892   4.771   7.306
 3005TIP3   OH230573   5.749   6.126   7.772
 3005TIP3    H130574   5.826   6.100   7.822
 3005TIP3    H230575   5.695   6.047   7.768
 3006TIP3   OH230576   2.847   4.912   8.664
 3006TIP3    H130577   2.918   4.875   8.715
 3006TIP3    H230578   2.879   4.914   8.574
 3007TIP3   OH230579   0.283   2.120   1.795
 3007TIP3    H130580   0.262   2.079   1.712
 3007TIP3    H230581   0.377   2.137   1.790
 3008TIP3   OH230582   4.593   3.985   1.859
 3008TIP3    H130583   4.563   3.941   1.938
 3008TIP3    H230584   4.686   4.001   1.874
 3009TIP3   OH230585   5.746   1.887   7.854
 3009TIP3    H130586   5.779   1.937   7.779
 3009TIP3    H230587   5.714   1.954   7.914
 3010TIP3   OH230588   2.249   4.392   8.170
 3010TIP3    H130589   2.216   4.327   8.108
 3010TIP3    H230590   2.343   4.393   8.155
 3011TIP3   OH230591   4.457   4.322   0.138
 3011TIP3    H130592   4.533   4.380   0.132
 3011TIP3    H230593   4.491   4.236   0.114
 3012TIP3   OH230594   3.159   4.521   7.436
 3012TIP3    H130595   3.255   4.519   7.425
 3012TIP3    H230596   3.131   4.431   7.422
 3013TIP3   OH230597   6.740   3.412   7.242
 3013TIP3    H130598   6.681   3.488   7.245
 3013TIP3    H230599   6.739   3.384   7.150
 3014TIP3   OH230600   1.105   1.954   7.490
 3014TIP3    H130601   1.099   2.038   7.445
 3014TIP3    H230602   1.014   1.928   7.506
 3015TIP3   OH230603   0.672   3.477   0.210
 3015TIP3    H130604   0.601   3.540   0.221
 3015TIP3    H230605   0.670   3.424   0.290
 3016TIP3   OH230606   4.654   5.711   0.682
 3016TIP3    H130607   4.600   5.775   0.637
 3016TIP3    H230608   4.730   5.761   0.713
 3017TIP3   OH230609   3.227   3.398   1.513
 3017TIP3    H130610   3.183   3.317   1.490
 3017TIP3    H230611   3.164   3.446   1.567
 3018TIP3   OH230612   3.166   5.857   1.192
 3018TIP3    H130613   3.100   5.812   1.245
 3018TIP3    H230614   3.143   5.950   1.199
 3019TIP3   OH230615   2.158   1.542   7.414
 3019TIP3    H130616   2.247   1.510   7.399
 3019TIP3    H230617   2.138   1.593   7.336
 3020TIP3   OH230618   6.400   4.605   8.169
 3020TIP3    H130619   6.347   4.532   8.200
 3020TIP3    H230620   6.345   4.682   8.182
 3021TIP3   OH230621   1.397   3.672   8.270
 3021TIP3    H130622   1.323   3.732   8.266
 3021TIP3    H230623   1.366   3.591   8.229
 3022TIP3   OH230624   2.423   5.034   1.192
 3022TIP3    H130625   2.367   4.972   1.238
 3022TIP3    H230626   2.365   5.080   1.131
 3023TIP3   OH230627   3.719   6.346   6.860
 3023TIP3    H130628   3.803   6.339   6.815
 3023TIP3    H230629   3.673   6.416   6.814
 3024TIP3   OH230630   4.827   3.874   0.485
 3024TIP3    H130631   4.772   3.875   0.563
 3024TIP3    H230632   4.812   3.787   0.447
 3025TIP3   OH230633   4.767   6.068   7.163
 3025TIP3    H130634   4.684   6.061   7.210
 3025TIP3    H230635   4.760   6.006   7.091
 3026TIP3   OH230636   1.671   1.984   8.618
 3026TIP3    H130637   1.731   2.020   8.683
 3026TIP3    H230638   1.611   2.057   8.598
 3027TIP3   OH230639   6.491   0.183   0.957
 3027TIP3    H130640   6.546   0.111   0.925
 3027TIP3    H230641   6.470   0.159   1.047
 3028TIP3   OH230642   5.561   2.904   8.566
 3028TIP3    H130643   5.635   2.843   8.566
 3028TIP3    H230644   5.601   2.990   8.582
 3029TIP3   OH230645   4.814   2.747   1.105
 3029TIP3    H130646   4.756   2.690   1.156
 3029TIP3    H230647   4.799   2.721   1.014
 3030TIP3   OH230648   0.237   0.236   0.586
 3030TIP3    H130649   0.233   0.191   0.502
 3030TIP3    H230650   0.324   0.276   0.589
 3031TIP3   OH230651   6.236   2.250   8.096
 3031TIP3    H130652   6.147   2.223   8.119
 3031TIP3    H230653   6.231   2.269   8.002
 3032TIP3   OH230654   3.116   5.823   6.496
 3032TIP3    H130655   3.133   5.916   6.507
 3032TIP3    H230656   3.048   5.819   6.428
 3033TIP3   OH230657   0.995   4.334   6.137
 3033TIP3    H130658   1.012   4.412   6.085
 3033TIP3    H230659   0.900   4.322   6.133
 3034TIP3   OH230660   4.462   0.176   7.474
 3034TIP3    H130661   4.425   0.215   7.395
 3034TIP3    H230662   4.402   0.202   7.544
 3035TIP3   OH230663   1.104   2.854   0.425
 3035TIP3    H130664   1.008   2.854   0.426
 3035TIP3    H230665   1.129   2.774   0.469
 3036TIP3   OH230666   5.270   2.247   6.948
 3036TIP3    H130667   5.358   2.218   6.971
 3036TIP3    H230668   5.212   2.186   6.994
 3037TIP3   OH230669   3.717   5.854   6.703
 3037TIP3    H130670   3.691   5.765   6.727
 3037TIP3    H230671   3.699   5.859   6.609
 3038TIP3   OH230672   0.844   5.725   1.366
 3038TIP3    H130673   0.835   5.820   1.366
 3038TIP3    H230674   0.773   5.694   1.422
 3039TIP3   OH230675   3.130   0.134   7.931
 3039TIP3    H130676   3.108   0.045   7.959
 3039TIP3    H230677   3.049   0.168   7.895
 3040TIP3   OH230678   1.287   6.677   7.922
 3040TIP3    H130679   1.247   6.603   7.967
 3040TIP3    H230680   1.371   6.644   7.891
 3041TIP3   OH230681   3.182   6.532   8.379
 3041TIP3    H130682   3.140   6.503   8.460
 3041TIP3    H230683   3.257   6.584   8.409
 3042TIP3   OH230684   0.876   0.077   0.170
 3042TIP3    H130685   0.820   0.054   0.096
 3042TIP3    H230686   0.862   0.171   0.183
 3043TIP3   OH230687   5.197   1.489   7.444
 3043TIP3    H130688   5.109   1.498   7.481
 3043TIP3    H230689   5.223   1.578   7.420
 3044TIP3   OH230690   5.209   3.480   1.418
 3044TIP3    H130691   5.142   3.541   1.390
 3044TIP3    H230692   5.176   3.443   1.500
 3045TIP3   OH230693   3.564   2.392   8.165
 3045TIP3    H130694   3.645   2.431   8.132
 3045TIP3    H230695   3.496   2.420   8.104
 3046TIP3   OH230696   6.372   4.948   6.658
 3046TIP3    H130697   6.392   5.035   6.623
 3046TIP3    H230698   6.280   4.933   6.634
 3047TIP3   OH230699   5.284   2.036   7.129
 3047TIP3    H130700   5.293   2.063   7.221
 3047TIP3    H230701   5.374   2.032   7.096
 3048TIP3   OH230702   6.157   0.767   0.389
 3048TIP3    H130703   6.226   0.766   0.322
 3048TIP3    H230704   6.086   0.717   0.351
 3049TIP3   OH230705   1.923   1.371   6.763
 3049TIP3    H130706   1.939   1.445   6.704
 3049TIP3    H230707   1.831   1.379   6.788
 3050TIP3   OH230708   6.708   4.609   1.874
 3050TIP3    H130709   6.698   4.595   1.968
 3050TIP3    H230710   6.703   4.522   1.836
 3051TIP3   OH230711   1.413   2.549   7.882
 3051TIP3    H130712   1.408   2.553   7.978
 3051TIP3    H230713   1.500   2.513   7.864
 3052TIP3   OH230714   1.664   5.518   7.848
 3052TIP3    H130715   1.690   5.601   7.887
 3052TIP3    H230716   1.655   5.458   7.922
 3053TIP3   OH230717   1.072   5.224   7.545
 3053TIP3    H130718   1.092   5.318   7.544
 3053TIP3    H230719   1.078   5.198   7.453
 3054TIP3   OH230720   6.339   4.711   7.145
 3054TIP3    H130721   6.326   4.766   7.068
 3054TIP3    H230722   6.431   4.724   7.169
 3055TIP3   OH230723   5.435   3.781   0.174
 3055TIP3    H130724   5.424   3.872   0.145
 3055TIP3    H230725   5.383   3.775   0.254
 3056TIP3   OH230726   2.252   1.215   1.641
 3056TIP3    H130727   2.243   1.264   1.559
 3056TIP3    H230728   2.196   1.138   1.630
 3057TIP3   OH230729   6.308   1.689   1.440
 3057TIP3    H130730   6.253   1.734   1.375
 3057TIP3    H230731   6.246   1.647   1.499
 3058TIP3   OH230732   4.555   5.375   1.511
 3058TIP3    H130733   4.594   5.288   1.515
 3058TIP3    H230734   4.545   5.392   1.417
 3059TIP3   OH230735   4.956   5.709   0.976
 3059TIP3    H130736   5.028   5.762   0.942
 3059TIP3    H230737   4.878   5.760   0.957
 3060TIP3   OH230738   5.523   3.975   7.608
 3060TIP3    H130739   5.478   4.015   7.682
 3060TIP3    H230740   5.457   3.973   7.538
 3061TIP3   OH230741   3.979   2.136   1.699
 3061TIP3    H130742   3.992   2.222   1.739
 3061TIP3    H230743   3.994   2.074   1.770
 3062TIP3   OH230744   1.850   3.471   0.426
 3062TIP3    H130745   1.769   3.515   0.454
 3062TIP3    H230746   1.822   3.412   0.356
 3063TIP3   OH230747   3.265   1.874   7.168
 3063TIP3    H130748   3.281   1.849   7.076
 3063TIP3    H230749   3.342   1.841   7.215
 3064TIP3   OH230750   2.326   0.574   6.849
 3064TIP3    H130751   2.342   0.481   6.864
 3064TIP3    H230752   2.404   0.618   6.883
 3065TIP3   OH230753   4.017   6.001   7.580
 3065TIP3    H130754   4.088   5.951   7.540
 3065TIP3    H230755   3.937   5.965   7.540
 3066TIP3   OH230756   6.713   2.415   0.932
 3066TIP3    H130757   6.807   2.418   0.950
 3066TIP3    H230758   6.683   2.504   0.947
 3067TIP3   OH230759   0.379   0.261   7.741
 3067TIP3    H130760   0.458   0.207   7.738
 3067TIP3    H230761   0.409   0.349   7.719
 3068TIP3   OH230762   2.289   0.237   7.862
 3068TIP3    H130763   2.289   0.280   7.948
 3068TIP3    H230764   2.229   0.164   7.872
 3069TIP3   OH230765   5.389   2.589   2.065
 3069TIP3    H130766   5.302   2.602   2.101
 3069TIP3    H230767   5.406   2.668   2.014
 3070TIP3   OH230768   2.227   3.902   6.351
 3070TIP3    H130769   2.196   3.982   6.307
 3070TIP3    H230770   2.288   3.863   6.289
 3071TIP3   OH230771   3.041   4.355   7.063
 3071TIP3    H130772   3.033   4.265   7.030
 3071TIP3    H230773   3.107   4.395   7.007
 3072TIP3   OH230774   6.096   2.625   2.705
 3072TIP3    H130775   6.156   2.627   2.779
 3072TIP3    H230776   6.022   2.680   2.734
 3073TIP3   OH230777   1.562   1.345   6.983
 3073TIP3    H130778   1.531   1.406   7.051
 3073TIP3    H230779   1.508   1.267   6.995
 3074TIP3   OH230780   4.813   2.365   0.445
 3074TIP3    H130781   4.749   2.332   0.382
 3074TIP3    H230782   4.880   2.296   0.448
 3075TIP3   OH230783   5.482   2.778   7.699
 3075TIP3    H130784   5.565   2.823   7.717
 3075TIP3    H230785   5.439   2.833   7.634
 3076TIP3   OH230786   5.507   4.767   1.427
 3076TIP3    H130787   5.558   4.793   1.504
 3076TIP3    H230788   5.430   4.824   1.428
 3077TIP3   OH230789   6.512   4.240   1.189
 3077TIP3    H130790   6.582   4.282   1.239
 3077TIP3    H230791   6.496   4.157   1.234
 3078TIP3   OH230792   1.856   2.406   8.678
 3078TIP3    H130793   1.785   2.386   8.739
 3078TIP3    H230794   1.924   2.341   8.697
 3079TIP3   OH230795   5.638   6.289   0.086
 3079TIP3    H130796   5.705   6.279   0.019
 3079TIP3    H230797   5.556   6.295   0.036
 3080TIP3   OH230798   5.790   4.744   1.196
 3080TIP3    H130799   5.784   4.664   1.249
 3080TIP3    H230800   5.878   4.777   1.211
 3081TIP3   OH230801   0.001   0.795   7.232
 3081TIP3    H130802   0.066   0.757   7.172
 3081TIP3    H230803   6.764   0.721   7.255
 3082TIP3   OH230804   1.077   5.574   8.075
 3082TIP3    H130805   1.057   5.556   8.167
 3082TIP3    H230806   1.134   5.651   8.077
 3083TIP3   OH230807   6.336   1.759   8.644
 3083TIP3    H130808   6.418   1.710   8.635
 3083TIP3    H230809   6.302   1.734   8.730
 3084TIP3   OH230810   6.228   4.492   6.982
 3084TIP3    H130811   6.162   4.557   7.008
 3084TIP3    H230812   6.176   4.415   6.958
 3085TIP3   OH230813   3.209   3.735   8.061
 3085TIP3    H130814   3.286   3.775   8.022
 3085TIP3    H230815   3.145   3.730   7.990
 3086TIP3   OH230816   5.412   5.523   6.592
 3086TIP3    H130817   5.431   5.449   6.650
 3086TIP3    H230818   5.319   5.539   6.604
 3087TIP3   OH230819   4.655   2.745   2.823
 3087TIP3    H130820   4.632   2.659   2.858
 3087TIP3    H230821   4.728   2.728   2.764
 3088TIP3   OH230822   5.721   3.712   8.007
 3088TIP3    H130823   5.717   3.724   7.912
 3088TIP3    H230824   5.701   3.619   8.020
 3089TIP3   OH230825   0.716   0.794   7.975
 3089TIP3    H130826   0.688   0.781   7.885
 3089TIP3    H230827   0.792   0.736   7.986
 3090TIP3   OH230828   2.044   0.078   2.078
 3090TIP3    H130829   2.127   0.126   2.081
 3090TIP3    H230830   2.044   0.025   2.157
 3091TIP3   OH230831   2.473   1.490   7.628
 3091TIP3    H130832   2.519   1.573   7.626
 3091TIP3    H230833   2.398   1.505   7.686
 3092TIP3   OH230834   0.356   1.609   8.645
 3092TIP3    H130835   0.324   1.538   8.700
 3092TIP3    H230836   0.338   1.689   8.695
 3093TIP3   OH230837   4.706   4.398   8.788
 3093TIP3    H130838   4.659   4.350   8.720
 3093TIP3    H230839   4.799   4.380   8.770
 3094TIP3   OH230840   6.383   5.003   0.218
 3094TIP3    H130841   6.300   5.046   0.195
 3094TIP3    H230842   6.395   4.936   0.151
 3095TIP3   OH230843   3.450   1.393   1.199
 3095TIP3    H130844   3.394   1.464   1.231
 3095TIP3    H230845   3.442   1.396   1.104
 3096TIP3   OH230846   3.945   0.050   7.170
 3096TIP3    H130847   3.965   0.143   7.181
 3096TIP3    H230848   3.938   0.037   7.076
 3097TIP3   OH230849   6.019   1.064   7.340
 3097TIP3    H130850   6.020   1.000   7.411
 3097TIP3    H230851   5.947   1.036   7.284
 3098TIP3   OH230852   6.191   1.424   8.056
 3098TIP3    H130853   6.279   1.456   8.075
 3098TIP3    H230854   6.185   1.425   7.961
 3099TIP3   OH230855   3.312   2.732   7.830
 3099TIP3    H130856   3.358   2.809   7.794
 3099TIP3    H230857   3.294   2.678   7.754
 3100TIP3   OH230858   1.499   2.757   0.691
 3100TIP3    H130859   1.577   2.747   0.637
 3100TIP3    H230860   1.437   2.805   0.635
 3101TIP3   OH230861   5.914   5.162   6.985
 3101TIP3    H130862   5.921   5.152   7.080
 3101TIP3    H230863   5.931   5.075   6.950
 3102TIP3   OH230864   5.761   2.737   8.531
 3102TIP3    H130865   5.820   2.724   8.457
 3102TIP3    H230866   5.723   2.650   8.547
 3103TIP3   OH230867   1.623   6.231   7.933
 3103TIP3    H130868   1.565   6.303   7.957
 3103TIP3    H230869   1.564   6.160   7.908
 3104TIP3   OH230870   4.436   0.623   0.973
 3104TIP3    H130871   4.369   0.673   1.021
 3104TIP3    H230872   4.486   0.688   0.926
 3105TIP3   OH230873   0.335   5.997   7.696
 3105TIP3    H130874   0.305   6.077   7.653
 3105TIP3    H230875   0.403   6.026   7.756
 3106TIP3   OH230876   4.639   1.063   7.178
 3106TIP3    H130877   4.574   1.078   7.110
 3106TIP3    H230878   4.601   0.995   7.234
 3107TIP3   OH230879   6.676   2.234   1.155
 3107TIP3    H130880   6.679   2.308   1.095
 3107TIP3    H230881   6.752   2.180   1.131
 3108TIP3   OH230882   4.834   4.082   6.382
 3108TIP3    H130883   4.882   4.002   6.359
 3108TIP3    H230884   4.756   4.079   6.327
 3109TIP3   OH230885   1.660   3.467   0.798
 3109TIP3    H130886   1.750   3.452   0.770
 3109TIP3    H230887   1.613   3.388   0.773
 3110TIP3   OH230888   2.973   2.209   0.079
 3110TIP3    H130889   3.001   2.279   0.019
 3110TIP3    H230890   2.993   2.243   0.166
 3111TIP3   OH230891   2.451   1.459   7.352
 3111TIP3    H130892   2.472   1.498   7.437
 3111TIP3    H230893   2.500   1.377   7.351
 3112TIP3   OH230894   2.792   5.603   6.782
 3112TIP3    H130895   2.741   5.660   6.723
 3112TIP3    H230896   2.882   5.611   6.751
 3113TIP3   OH230897   1.035   5.798   7.220
 3113TIP3    H130898   1.103   5.824   7.281
 3113TIP3    H230899   1.002   5.715   7.255
 3114TIP3   OH230900   5.855   0.625   8.622
 3114TIP3    H130901   5.872   0.667   8.538
 3114TIP3    H230902   5.763   0.599   8.618
 3115TIP3   OH230903   2.120   5.927   6.347
 3115TIP3    H130904   2.107   5.864   6.276
 3115TIP3    H230905   2.172   5.997   6.307
 3116TIP3   OH230906   1.444   1.721   6.393
 3116TIP3    H130907   1.371   1.780   6.376
 3116TIP3    H230908   1.517   1.759   6.344
 3117TIP3   OH230909   2.852   0.880   0.732
 3117TIP3    H130910   2.881   0.961   0.772
 3117TIP3    H230911   2.920   0.858   0.669
 3118TIP3   OH230912   2.959   3.294   8.185
 3118TIP3    H130913   2.998   3.380   8.170
 3118TIP3    H230914   3.003   3.260   8.262
 3119TIP3   OH230915   3.703   5.327   6.940
 3119TIP3    H130916   3.718   5.420   6.921
 3119TIP3    H230917   3.650   5.296   6.867
 3120TIP3   OH230918   5.324   5.455   6.928
 3120TIP3    H130919   5.371   5.397   6.868
 3120TIP3    H230920   5.272   5.512   6.871
 3121TIP3   OH230921   4.480   4.344   1.011
 3121TIP3    H130922   4.413   4.304   1.066
 3121TIP3    H230923   4.431   4.405   0.955
 3122TIP3   OH230924   5.919   1.009   7.611
 3122TIP3    H130925   5.858   0.938   7.629
 3122TIP3    H230926   5.865   1.080   7.577
 3123TIP3   OH230927   2.251   3.824   1.498
 3123TIP3    H130928   2.211   3.812   1.412
 3123TIP3    H230929   2.181   3.860   1.552
 3124TIP3   OH230930   0.225   2.552   0.537
 3124TIP3    H130931   0.250   2.469   0.495
 3124TIP3    H230932   0.144   2.532   0.584
 3125TIP3   OH230933   3.922   4.335   7.614
 3125TIP3    H130934   3.903   4.428   7.604
 3125TIP3    H230935   4.009   4.323   7.575
 3126TIP3   OH230936   4.811   5.400   7.742
 3126TIP3    H130937   4.824   5.314   7.783
 3126TIP3    H230938   4.739   5.439   7.790
 3127TIP3   OH230939   3.858   4.728   7.919
 3127TIP3    H130940   3.798   4.745   7.992
 3127TIP3    H230941   3.864   4.632   7.915
 3128TIP3   OH230942   0.237   4.215   6.803
 3128TIP3    H130943   0.241   4.310   6.791
 3128TIP3    H230944   0.329   4.188   6.805
 3129TIP3   OH230945   5.160   1.782   1.821
 3129TIP3    H130946   5.217   1.721   1.776
 3129TIP3    H230947   5.081   1.732   1.841
 3130TIP3   OH230948   1.562   5.157   0.576
 3130TIP3    H130949   1.553   5.073   0.620
 3130TIP3    H230950   1.477   5.199   0.586
 3131TIP3   OH230951   5.670   0.244   0.963
 3131TIP3    H130952   5.581   0.279   0.962
 3131TIP3    H230953   5.712   0.283   0.886
 3132TIP3   OH230954   0.961   1.665   2.203
 3132TIP3    H130955   0.907   1.743   2.216
 3132TIP3    H230956   1.029   1.692   2.141
 3133TIP3   OH230957   0.330   4.704   0.656
 3133TIP3    H130958   0.251   4.690   0.709
 3133TIP3    H230959   0.322   4.794   0.625
 3134TIP3   OH230960   3.530   6.239   7.274
 3134TIP3    H130961   3.515   6.236   7.179
 3134TIP3    H230962   3.573   6.156   7.294
 3135TIP3   OH230963   1.856   6.790   8.355
 3135TIP3    H130964   1.949   6.812   8.356
 3135TIP3    H230965   1.816   0.036   8.298
 3136TIP3   OH230966   6.662   2.605   7.202
 3136TIP3    H130967   6.722   2.539   7.167
 3136TIP3    H230968   6.719   2.665   7.250
 3137TIP3   OH230969   1.297   5.261   0.549
 3137TIP3    H130970   1.253   5.261   0.633
 3137TIP3    H230971   1.231   5.229   0.487
 3138TIP3   OH230972   4.317   3.539   1.476
 3138TIP3    H130973   4.354   3.626   1.461
 3138TIP3    H230974   4.288   3.510   1.390
 3139TIP3   OH230975   5.262   4.023   0.297
 3139TIP3    H130976   5.276   4.110   0.333
 3139TIP3    H230977   5.254   3.966   0.374
 3140TIP3   OH230978   4.109   5.020   8.673
 3140TIP3    H130979   4.070   4.937   8.700
 3140TIP3    H230980   4.093   5.025   8.579
 3141TIP3   OH230981   2.984   3.467   1.686
 3141TIP3    H130982   2.901   3.419   1.682
 3141TIP3    H230983   3.022   3.445   1.771
 3142TIP3   OH230984   4.554   5.705   6.856
 3142TIP3    H130985   4.495   5.664   6.919
 3142TIP3    H230986   4.525   5.797   6.852
 3143TIP3   OH230987   2.800   0.883   7.364
 3143TIP3    H130988   2.831   0.842   7.445
 3143TIP3    H230989   2.863   0.952   7.347
 3144TIP3   OH230990   0.815   5.089   1.084
 3144TIP3    H130991   0.722   5.076   1.064
 3144TIP3    H230992   0.831   5.033   1.160
 3145TIP3   OH230993   0.229   1.440   2.608
 3145TIP3    H130994   0.191   1.495   2.540
 3145TIP3    H230995   0.316   1.477   2.623
 3146TIP3   OH230996   1.246   2.843   8.337
 3146TIP3    H130997   1.177   2.823   8.401
 3146TIP3    H230998   1.328   2.832   8.386
 3147TIP3   OH230999   2.088   5.458   0.579
 3147TIP3    H131000   2.108   5.552   0.585
 3147TIP3    H231001   2.032   5.441   0.654
 3148TIP3   OH231002   3.184   0.244   8.680
 3148TIP3    H131003   3.249   0.246   8.750
 3148TIP3    H231004   3.221   0.299   8.611
 3149TIP3   OH231005   6.708   2.978   6.861
 3149TIP3    H131006   6.661   3.061   6.857
 3149TIP3    H231007   6.792   2.994   6.817
 3150TIP3   OH231008   4.587   2.389   0.249
 3150TIP3    H131009   4.614   2.469   0.204
 3150TIP3    H231010   4.623   2.318   0.195
 3151TIP3   OH231011   2.715   2.067   0.071
 3151TIP3    H131012   2.711   2.046   8.778
 3151TIP3    H231013   2.798   2.112   0.083
 3152TIP3   OH231014   5.676   5.375   0.473
 3152TIP3    H131015   5.630   5.407   0.550
 3152TIP3    H231016   5.695   5.283   0.493
 3153TIP3   OH231017   0.949   3.556   0.229
 3153TIP3    H131018   0.859   3.533   0.251
 3153TIP3    H231019   0.941   3.630   0.169
 3154TIP3   OH231020   0.298   1.483   1.977
 3154TIP3    H131021   0.299   1.444   2.064
 3154TIP3    H231022   0.358   1.557   1.984
 3155TIP3   OH231023   6.495   1.927   1.448
 3155TIP3    H131024   6.533   1.947   1.362
 3155TIP3    H231025   6.447   1.845   1.434
 3156TIP3   OH231026   0.949   4.515   0.994
 3156TIP3    H131027   0.929   4.422   0.983
 3156TIP3    H231028   1.027   4.516   1.049
 3157TIP3   OH231029   3.254   6.407   7.098
 3157TIP3    H131030   3.350   6.399   7.098
 3157TIP3    H231031   3.228   6.384   7.009
 3158TIP3   OH231032   3.873   0.384   0.146
 3158TIP3    H131033   3.803   0.441   0.115
 3158TIP3    H231034   3.921   0.437   0.209
 3159TIP3   OH231035   6.769   2.557   1.389
 3159TIP3    H131036   0.034   2.553   1.344
 3159TIP3    H231037   6.780   2.500   1.465
 3160TIP3   OH231038   2.287   5.157   8.627
 3160TIP3    H131039   2.273   5.112   8.710
 3160TIP3    H231040   2.225   5.116   8.567
 3161TIP3   OH231041   5.233   2.550   7.035
 3161TIP3    H131042   5.237   2.622   6.972
 3161TIP3    H231043   5.260   2.473   6.985
 3162TIP3   OH231044   1.342   4.262   1.413
 3162TIP3    H131045   1.414   4.215   1.455
 3162TIP3    H231046   1.377   4.350   1.397
 3163TIP3   OH231047   3.433   1.202   8.273
 3163TIP3    H131048   3.398   1.162   8.353
 3163TIP3    H231049   3.522   1.228   8.296
 3164TIP3   OH231050   4.616   6.084   0.259
 3164TIP3    H131051   4.663   6.080   0.176
 3164TIP3    H231052   4.678   6.126   0.319
 3165TIP3   OH231053   1.189   1.972   7.739
 3165TIP3    H131054   1.266   1.916   7.733
 3165TIP3    H231055   1.164   1.989   7.648
 3166TIP3   OH231056   4.239   2.280   0.728
 3166TIP3    H131057   4.230   2.363   0.682
 3166TIP3    H231058   4.311   2.235   0.684
 3167TIP3   OH231059   2.759   1.131   8.189
 3167TIP3    H131060   2.834   1.093   8.234
 3167TIP3    H231061   2.797   1.188   8.122
 3168TIP3   OH231062   3.867   2.366   0.010
 3168TIP3    H131063   3.815   2.445   8.798
 3168TIP3    H231064   3.866   2.350   0.104
 3169TIP3   OH231065   2.812   2.877   1.707
 3169TIP3    H131066   2.828   2.819   1.782
 3169TIP3    H231067   2.838   2.964   1.738
 3170TIP3   OH231068   5.823   3.954   8.125
 3170TIP3    H131069   5.792   3.873   8.084
 3170TIP3    H231070   5.887   3.990   8.063
 3171TIP3   OH231071   1.311   6.361   8.602
 3171TIP3    H131072   1.353   6.279   8.628
 3171TIP3    H231073   1.383   6.421   8.587
 3172TIP3   OH231074   4.950   3.842   6.278
 3172TIP3    H131075   4.971   3.897   6.203
 3172TIP3    H231076   4.937   3.755   6.241
 3173TIP3   OH231077   0.400   5.920   1.388
 3173TIP3    H131078   0.322   5.891   1.341
 3173TIP3    H231079   0.472   5.874   1.345
 3174TIP3   OH231080   6.385   6.728   8.704
 3174TIP3    H131081   6.318   6.707   8.638
 3174TIP3    H231082   6.451   6.778   8.657
 3175TIP3   OH231083   5.162   3.401   8.175
 3175TIP3    H131084   5.150   3.341   8.101
 3175TIP3    H231085   5.256   3.415   8.180
 3176TIP3   OH231086   2.313   1.509   7.847
 3176TIP3    H131087   2.373   1.528   7.919
 3176TIP3    H231088   2.234   1.558   7.868
 3177TIP3   OH231089   5.675   6.188   0.538
 3177TIP3    H131090   5.741   6.257   0.530
 3177TIP3    H231091   5.668   6.172   0.632
 3178TIP3   OH231092   6.192   6.100   2.397
 3178TIP3    H131093   6.254   6.172   2.388
 3178TIP3    H231094   6.125   6.116   2.331
 3179TIP3   OH231095   0.679   3.028   8.488
 3179TIP3    H131096   0.706   2.994   8.574
 3179TIP3    H231097   0.670   3.122   8.501
 3180TIP3   OH231098   3.315   2.124   7.270
 3180TIP3    H131099   3.313   2.182   7.194
 3180TIP3    H231100   3.279   2.041   7.238
 3181TIP3   OH231101   0.928   0.332   7.634
 3181TIP3    H131102   1.003   0.284   7.598
 3181TIP3    H231103   0.948   0.342   7.727
 3182TIP3   OH231104   1.066   2.705   8.492
 3182TIP3    H131105   1.026   2.630   8.449
 3182TIP3    H231106   1.067   2.682   8.585
 3183TIP3   OH231107   0.816   2.504   1.491
 3183TIP3    H131108   0.758   2.540   1.559
 3183TIP3    H231109   0.856   2.581   1.451
 3184TIP3   OH231110   4.665   6.390   8.761
 3184TIP3    H131111   4.729   6.393   8.689
 3184TIP3    H231112   4.580   6.387   8.717
 3185TIP3   OH231113   5.012   6.325   8.778
 3185TIP3    H131114   5.037   6.252   0.034
 3185TIP3    H231115   5.042   6.403   0.026
 3186TIP3   OH231116   4.755   4.803   7.599
 3186TIP3    H131117   4.815   4.876   7.615
 3186TIP3    H231118   4.683   4.842   7.549
 3187TIP3   OH231119   6.028   4.269   8.125
 3187TIP3    H131120   6.043   4.363   8.138
 3187TIP3    H231121   5.986   4.240   8.206
 3188TIP3   OH231122   0.377   2.569   6.584
 3188TIP3    H131123   0.352   2.483   6.551
 3188TIP3    H231124   0.367   2.628   6.509
 3189TIP3   OH231125   0.443   6.205   1.275
 3189TIP3    H131126   0.433   6.152   1.195
 3189TIP3    H231127   0.387   6.161   1.339
 3190TIP3   OH231128   1.787   5.924   0.696
 3190TIP3    H131129   1.820   5.946   0.783
 3190TIP3    H231130   1.788   6.007   0.648
 3191TIP3   OH231131   5.365   4.341   0.807
 3191TIP3    H131132   5.400   4.259   0.842
 3191TIP3    H231133   5.443   4.395   0.792
 3192TIP3   OH231134   2.658   2.628   0.400
 3192TIP3    H131135   2.596   2.566   0.438
 3192TIP3    H231136   2.689   2.586   0.320
 3193TIP3   OH231137   6.174   5.163   0.146
 3193TIP3    H131138   6.168   5.249   0.187
 3193TIP3    H231139   6.091   5.153   0.098
 3194TIP3   OH231140   0.922   1.365   1.071
 3194TIP3    H131141   1.009   1.333   1.093
 3194TIP3    H231142   0.909   1.441   1.128
 3195TIP3   OH231143   0.837   4.646   0.446
 3195TIP3    H131144   0.879   4.674   0.527
 3195TIP3    H231145   0.815   4.728   0.401
 3196TIP3   OH231146   4.950   1.488   0.147
 3196TIP3    H131147   5.021   1.534   0.191
 3196TIP3    H231148   4.994   1.431   0.084
 3197TIP3   OH231149   5.840   3.419   8.330
 3197TIP3    H131150   5.771   3.362   8.295
 3197TIP3    H231151   5.794   3.497   8.360
 3198TIP3   OH231152   3.497   2.758   0.910
 3198TIP3    H131153   3.406   2.735   0.930
 3198TIP3    H231154   3.529   2.798   0.991
 3199TIP3   OH231155   0.458   3.618   0.529
 3199TIP3    H131156   0.400   3.588   0.599
 3199TIP3    H231157   0.453   3.549   0.463
 3200TIP3   OH231158   1.618   2.340   0.020
 3200TIP3    H131159   1.587   2.366   0.106
 3200TIP3    H231160   1.543   2.356   8.762
 3201TIP3   OH231161   4.427   3.508   7.526
 3201TIP3    H131162   4.479   3.528   7.604
 3201TIP3    H231163   4.408   3.415   7.533
 3202TIP3   OH231164   2.059   2.385   1.159
 3202TIP3    H131165   2.131   2.444   1.136
 3202TIP3    H231166   2.082   2.354   1.247
 3203TIP3   OH231167   2.134   3.504   6.614
 3203TIP3    H131168   2.188   3.571   6.572
 3203TIP3    H231169   2.159   3.508   6.706
 3204TIP3   OH231170   0.244   1.712   7.788
 3204TIP3    H131171   0.161   1.702   7.836
 3204TIP3    H231172   0.217   1.736   7.700
 3205TIP3   OH231173   1.502   6.084   1.686
 3205TIP3    H131174   1.498   6.162   1.631
 3205TIP3    H231175   1.480   6.115   1.774
 3206TIP3   OH231176   2.906   5.654   1.481
 3206TIP3    H131177   2.999   5.643   1.463
 3206TIP3    H231178   2.882   5.737   1.438
 3207TIP3   OH231179   6.161   5.029   7.930
 3207TIP3    H131180   6.121   4.965   7.872
 3207TIP3    H231181   6.117   5.016   8.014
 3208TIP3   OH231182   3.001   0.202   1.473
 3208TIP3    H131183   3.001   0.125   1.417
 3208TIP3    H231184   3.078   0.252   1.446
 3209TIP3   OH231185   4.587   1.684   8.518
 3209TIP3    H131186   4.520   1.752   8.526
 3209TIP3    H231187   4.670   1.733   8.511
 3210TIP3   OH231188   0.247   0.613   8.012
 3210TIP3    H131189   0.235   0.518   8.011
 3210TIP3    H231190   0.237   0.638   8.104
 3211TIP3   OH231191   5.089   1.415   6.494
 3211TIP3    H131192   5.116   1.502   6.525
 3211TIP3    H231193   4.994   1.415   6.506
 3212TIP3   OH231194   5.484   1.819   1.553
 3212TIP3    H131195   5.486   1.797   1.646
 3212TIP3    H231196   5.394   1.849   1.537
 3213TIP3   OH231197   0.974   4.830   1.901
 3213TIP3    H131198   0.941   4.891   1.834
 3213TIP3    H231199   0.902   4.823   1.964
 3214TIP3   OH231200   2.046   4.274   1.299
 3214TIP3    H131201   1.958   4.236   1.309
 3214TIP3    H231202   2.075   4.245   1.213
 3215TIP3   OH231203   5.045   6.116   0.143
 3215TIP3    H131204   5.090   6.127   0.226
 3215TIP3    H231205   5.087   6.040   0.102
 3216TIP3   OH231206   3.065   3.150   8.411
 3216TIP3    H131207   2.984   3.100   8.407
 3216TIP3    H231208   3.134   3.084   8.405
 3217TIP3   OH231209   3.230   3.137   0.590
 3217TIP3    H131210   3.308   3.152   0.536
 3217TIP3    H231211   3.243   3.194   0.666
 3218TIP3   OH231212   1.223   6.209   0.481
 3218TIP3    H131213   1.261   6.263   0.549
 3218TIP3    H231214   1.171   6.269   0.428
 3219TIP3   OH231215   6.343   6.458   8.439
 3219TIP3    H131216   6.355   6.369   8.406
 3219TIP3    H231217   6.275   6.450   8.506
 3220TIP3   OH231218   3.031   1.266   1.428
 3220TIP3    H131219   3.086   1.256   1.350
 3220TIP3    H231220   3.022   1.176   1.462
 3221TIP3   OH231221   0.958   4.350   0.691
 3221TIP3    H131222   0.945   4.286   0.620
 3221TIP3    H231223   0.877   4.401   0.691
 3222TIP3   OH231224   1.244   3.665   7.339
 3222TIP3    H131225   1.317   3.604   7.326
 3222TIP3    H231226   1.277   3.730   7.401
 3223TIP3   OH231227   2.203   1.182   0.648
 3223TIP3    H131228   2.223   1.092   0.672
 3223TIP3    H231229   2.256   1.199   0.570
 3224TIP3   OH231230   1.744   4.732   8.372
 3224TIP3    H131231   1.659   4.687   8.378
 3224TIP3    H231232   1.809   4.662   8.382
 3225TIP3   OH231233   5.880   5.294   1.783
 3225TIP3    H131234   5.890   5.366   1.846
 3225TIP3    H231235   5.953   5.235   1.803
 3226TIP3   OH231236   6.097   0.448   8.613
 3226TIP3    H131237   6.076   0.368   8.564
 3226TIP3    H231238   6.013   0.489   8.629
 3227TIP3   OH231239   6.546   6.441   2.044
 3227TIP3    H131240   6.562   6.501   1.971
 3227TIP3    H231241   6.559   6.354   2.007
 3228TIP3   OH231242   2.462   0.608   0.194
 3228TIP3    H131243   2.549   0.573   0.174
 3228TIP3    H231244   2.402   0.556   0.141
 3229TIP3   OH231245   4.494   2.706   2.128
 3229TIP3    H131246   4.526   2.626   2.085
 3229TIP3    H231247   4.572   2.744   2.168
 3230TIP3   OH231248   1.080   1.179   1.449
 3230TIP3    H131249   1.169   1.160   1.421
 3230TIP3    H231250   1.088   1.201   1.542
 3231TIP3   OH231251   1.268   4.890   1.802
 3231TIP3    H131252   1.195   4.897   1.864
 3231TIP3    H231253   1.286   4.796   1.798
 3232TIP3   OH231254   0.246   4.340   7.679
 3232TIP3    H131255   0.204   4.257   7.701
 3232TIP3    H231256   0.301   4.319   7.603
 3233TIP3   OH231257   1.562   1.737   0.120
 3233TIP3    H131258   1.530   1.685   0.046
 3233TIP3    H231259   1.484   1.761   0.169
 3234TIP3   OH231260   5.205   6.677   7.045
 3234TIP3    H131261   5.178   6.622   6.972
 3234TIP3    H231262   5.142   6.659   7.115
 3235TIP3   OH231263   3.995   5.801   8.525
 3235TIP3    H131264   4.026   5.873   8.580
 3235TIP3    H231265   4.043   5.724   8.556
 3236TIP3   OH231266   4.527   5.967   0.530
 3236TIP3    H131267   4.555   6.024   0.459
 3236TIP3    H231268   4.519   6.024   0.605
 3237TIP3   OH231269   5.137   5.056   7.574
 3237TIP3    H131270   5.212   5.042   7.516
 3237TIP3    H231271   5.135   5.151   7.589
 3238TIP3   OH231272   4.047   2.825   0.686
 3238TIP3    H131273   3.968   2.806   0.635
 3238TIP3    H231274   4.099   2.882   0.630
 3239TIP3   OH231275   1.685   6.175   6.963
 3239TIP3    H131276   1.729   6.216   6.888
 3239TIP3    H231277   1.682   6.082   6.941
 3240TIP3   OH231278   6.072   3.061   8.033
 3240TIP3    H131279   6.164   3.080   8.049
 3240TIP3    H231280   6.064   2.967   8.047
 3241TIP3   OH231281   6.324   2.171   1.536
 3241TIP3    H131282   6.379   2.098   1.567
 3241TIP3    H231283   6.235   2.148   1.565
 3242TIP3   OH231284   3.646   5.586   6.715
 3242TIP3    H131285   3.602   5.552   6.638
 3242TIP3    H231286   3.737   5.558   6.705
 3243TIP3   OH231287   4.892   1.938   0.302
 3243TIP3    H131288   4.979   1.934   0.341
 3243TIP3    H231289   4.904   1.984   0.220
 3244TIP3   OH231290   2.174   5.408   8.340
 3244TIP3    H131291   2.194   5.395   8.433
 3244TIP3    H231292   2.137   5.324   8.312
 3245TIP3   OH231293   2.865   6.436   2.007
 3245TIP3    H131294   2.776   6.400   2.010
 3245TIP3    H231295   2.896   6.416   1.918
 3246TIP3   OH231296   6.234   6.385   0.501
 3246TIP3    H131297   6.161   6.430   0.543
 3246TIP3    H231298   6.257   6.441   0.426
 3247TIP3   OH231299   1.640   5.893   1.525
 3247TIP3    H131300   1.608   5.935   1.445
 3247TIP3    H231301   1.598   5.941   1.596
 3248TIP3   OH231302   0.757   2.428   8.620
 3248TIP3    H131303   0.690   2.392   8.561
 3248TIP3    H231304   0.744   2.523   8.617
 3249TIP3   OH231305   4.237   1.833   0.870
 3249TIP3    H131306   4.175   1.905   0.877
 3249TIP3    H231307   4.183   1.755   0.861
 3250TIP3   OH231308   1.768   2.036   7.460
 3250TIP3    H131309   1.809   2.060   7.377
 3250TIP3    H231310   1.764   2.119   7.509
 3251TIP3   OH231311   2.713   2.007   1.397
 3251TIP3    H131312   2.737   1.929   1.447
 3251TIP3    H231313   2.729   2.080   1.456
 3252TIP3   OH231314   5.852   2.830   8.234
 3252TIP3    H131315   5.928   2.789   8.192
 3252TIP3    H231316   5.866   2.924   8.222
 3253TIP3   OH231317   0.819   0.021   1.265
 3253TIP3    H131318   0.758   6.768   1.282
 3253TIP3    H231319   0.798   0.049   1.176
 3254TIP3   OH231320   2.451   0.722   8.589
 3254TIP3    H131321   2.388   0.777   8.635
 3254TIP3    H231322   2.397   0.666   8.533
 3255TIP3   OH231323   6.718   4.266   0.220
 3255TIP3    H131324   6.736   4.308   0.136
 3255TIP3    H231325   6.790   4.295   0.277
 3256TIP3   OH231326   1.657   1.932   1.403
 3256TIP3    H131327   1.621   2.017   1.380
 3256TIP3    H231328   1.710   1.949   1.482
 3257TIP3   OH231329   2.602   4.285   1.932
 3257TIP3    H131330   2.516   4.243   1.924
 3257TIP3    H231331   2.589   4.373   1.898
 3258TIP3   OH231332   5.587   3.444   7.194
 3258TIP3    H131333   5.608   3.462   7.286
 3258TIP3    H231334   5.491   3.443   7.192
 3259TIP3   OH231335   0.051   0.657   7.540
 3259TIP3    H131336   0.107   0.580   7.553
 3259TIP3    H231337   6.817   0.635   7.464
 3260TIP3   OH231338   2.054   3.179   7.664
 3260TIP3    H131339   2.124   3.231   7.705
 3260TIP3    H231340   1.975   3.232   7.677
 3261TIP3   OH231341   5.649   5.585   2.414
 3261TIP3    H131342   5.683   5.653   2.472
 3261TIP3    H231343   5.576   5.627   2.368
 3262TIP3   OH231344   0.918   5.195   1.607
 3262TIP3    H131345   0.976   5.206   1.682
 3262TIP3    H231346   0.902   5.284   1.576
 3263TIP3   OH231347   3.524   2.809   8.569
 3263TIP3    H131348   3.594   2.848   8.517
 3263TIP3    H231349   3.506   2.873   8.638
 3264TIP3   OH231350   1.246   6.462   7.354
 3264TIP3    H131351   1.158   6.495   7.370
 3264TIP3    H231352   1.242   6.423   7.267
 3265TIP3   OH231353   3.737   1.974   7.078
 3265TIP3    H131354   3.724   1.933   6.993
 3265TIP3    H231355   3.653   2.014   7.099
 3266TIP3   OH231356   0.259   3.192   7.228
 3266TIP3    H131357   0.240   3.206   7.135
 3266TIP3    H231358   0.325   3.123   7.229
 3267TIP3   OH231359   2.185   6.233   1.113
 3267TIP3    H131360   2.098   6.232   1.153
 3267TIP3    H231361   2.179   6.300   1.045
 3268TIP3   OH231362   2.039   3.935   1.710
 3268TIP3    H131363   2.105   3.958   1.775
 3268TIP3    H231364   1.979   3.876   1.755
 3269TIP3   OH231365   6.175   2.223   6.386
 3269TIP3    H131366   6.170   2.132   6.356
 3269TIP3    H231367   6.216   2.270   6.314
 3270TIP3   OH231368   6.526   5.551   0.325
 3270TIP3    H131369   6.485   5.490   0.386
 3270TIP3    H231370   6.492   5.525   0.239
 3271TIP3   OH231371   3.421   1.716   7.553
 3271TIP3    H131372   3.327   1.719   7.571
 3271TIP3    H231373   3.461   1.757   7.629
 3272TIP3   OH231374   2.274   0.318   1.047
 3272TIP3    H131375   2.305   0.299   1.136
 3272TIP3    H231376   2.183   0.345   1.059
 3273TIP3   OH231377   1.634   1.366   1.468
 3273TIP3    H131378   1.607   1.276   1.485
 3273TIP3    H231379   1.722   1.372   1.506
 3274TIP3   OH231380   2.885   1.769   1.982
 3274TIP3    H131381   2.870   1.813   1.899
 3274TIP3    H231382   2.963   1.715   1.967
 3275TIP3   OH231383   4.531   5.202   8.337
 3275TIP3    H131384   4.601   5.154   8.293
 3275TIP3    H231385   4.480   5.241   8.266
 3276TIP3   OH231386   3.407   5.266   0.380
 3276TIP3    H131387   3.434   5.277   0.472
 3276TIP3    H231388   3.487   5.236   0.336
 3277TIP3   OH231389   6.100   3.173   1.916
 3277TIP3    H131390   6.008   3.162   1.941
 3277TIP3    H231391   6.097   3.200   1.824
 3278TIP3   OH231392   1.839   5.776   1.873
 3278TIP3    H131393   1.819   5.682   1.866
 3278TIP3    H231394   1.921   5.787   1.825
 3279TIP3   OH231395   3.815   0.696   0.862
 3279TIP3    H131396   3.889   0.655   0.906
 3279TIP3    H231397   3.752   0.713   0.933
 3280TIP3   OH231398   1.847   5.523   1.556
 3280TIP3    H131399   1.851   5.538   1.651
 3280TIP3    H231400   1.911   5.454   1.540
 3281TIP3   OH231401   5.509   5.841   2.045
 3281TIP3    H131402   5.468   5.771   2.095
 3281TIP3    H231403   5.603   5.826   2.055
 3282TIP3   OH231404   3.039   2.537   0.361
 3282TIP3    H131405   3.015   2.550   0.269
 3282TIP3    H231406   2.981   2.595   0.410
 3283TIP3   OH231407   6.043   2.834   2.148
 3283TIP3    H131408   6.126   2.818   2.105
 3283TIP3    H231409   6.065   2.887   2.225
 3284TIP3   OH231410   0.431   4.154   7.438
 3284TIP3    H131411   0.451   4.206   7.360
 3284TIP3    H231412   0.392   4.074   7.405
 3285TIP3   OH231413   5.282   6.783   8.157
 3285TIP3    H131414   5.193   6.778   8.191
 3285TIP3    H231415   5.309   0.053   8.172
 3286TIP3   OH231416   6.512   3.317   8.669
 3286TIP3    H131417   6.514   3.235   8.720
 3286TIP3    H231418   6.422   3.347   8.677
 3287TIP3   OH231419   3.122   5.673   8.592
 3287TIP3    H131420   3.094   5.760   8.619
 3287TIP3    H231421   3.152   5.631   8.673
 3288TIP3   OH231422   2.249   2.964   7.977
 3288TIP3    H131423   2.276   2.970   7.885
 3288TIP3    H231424   2.156   2.942   7.973
 3289TIP3   OH231425   4.400   6.348   6.507
 3289TIP3    H131426   4.459   6.420   6.484
 3289TIP3    H231427   4.402   6.290   6.431
 3290TIP3   OH231428   6.017   0.076   7.373
 3290TIP3    H131429   6.018   0.143   7.442
 3290TIP3    H231430   6.072   0.112   7.303
 3291TIP3   OH231431   3.288   1.629   1.267
 3291TIP3    H131432   3.353   1.697   1.287
 3291TIP3    H231433   3.228   1.630   1.342
 3292TIP3   OH231434   4.637   5.820   7.468
 3292TIP3    H131435   4.655   5.726   7.463
 3292TIP3    H231436   4.637   5.839   7.562
 3293TIP3   OH231437   2.581   3.771   0.236
 3293TIP3    H131438   2.552   3.748   0.324
 3293TIP3    H231439   2.508   3.746   0.179
 3294TIP3   OH231440   6.748   4.861   0.433
 3294TIP3    H131441   6.655   4.879   0.449
 3294TIP3    H231442   6.751   4.834   0.342
 3295TIP3   OH231443   6.588   4.482   8.458
 3295TIP3    H131444   6.633   4.519   8.383
 3295TIP3    H231445   6.513   4.539   8.472
 3296TIP3   OH231446   2.483   0.140   1.621
 3296TIP3    H131447   2.450   0.141   1.711
 3296TIP3    H231448   2.450   0.058   1.585
 3297TIP3   OH231449   2.999   3.023   2.608
 3297TIP3    H131450   3.056   3.060   2.675
 3297TIP3    H231451   2.925   3.083   2.602
 3298TIP3   OH231452   1.634   3.784   0.558
 3298TIP3    H131453   1.616   3.803   0.466
 3298TIP3    H231454   1.591   3.854   0.606
 3299TIP3   OH231455   4.159   3.828   0.796
 3299TIP3    H131456   4.077   3.867   0.765
 3299TIP3    H231457   4.139   3.735   0.806
 3300TIP3   OH231458   4.029   5.755   7.342
 3300TIP3    H131459   4.023   5.671   7.388
 3300TIP3    H231460   4.124   5.771   7.335
 3301TIP3   OH231461   1.950   5.391   0.277
 3301TIP3    H131462   1.875   5.336   0.252
 3301TIP3    H231463   1.937   5.409   0.370
 3302TIP3   OH231464   4.035   4.954   8.373
 3302TIP3    H131465   3.976   5.029   8.386
 3302TIP3    H231466   3.981   4.877   8.392
 3303TIP3   OH231467   2.612   1.766   1.806
 3303TIP3    H131468   2.623   1.810   1.890
 3303TIP3    H231469   2.613   1.673   1.827
 3304TIP3   OH231470   1.225   5.805   8.288
 3304TIP3    H131471   1.191   5.876   8.233
 3304TIP3    H231472   1.147   5.763   8.324
 3305TIP3   OH231473   5.049   0.989   7.418
 3305TIP3    H131474   5.005   1.060   7.372
 3305TIP3    H231475   5.067   1.023   7.505
 3306TIP3   OH231476   1.433   3.904   2.168
 3306TIP3    H131477   1.471   3.819   2.149
 3306TIP3    H231478   1.499   3.967   2.140
 3307TIP3   OH231479   1.480   0.243   6.940
 3307TIP3    H131480   1.524   0.320   6.975
 3307TIP3    H231481   1.489   0.251   6.845
 3308TIP3   OH231482   3.140   5.201   2.624
 3308TIP3    H131483   3.227   5.172   2.652
 3308TIP3    H231484   3.147   5.296   2.615
 3309TIP3   OH231485   5.026   3.187   7.909
 3309TIP3    H131486   5.006   3.113   7.852
 3309TIP3    H231487   5.081   3.244   7.854
 3310TIP3   OH231488   1.857   6.386   6.526
 3310TIP3    H131489   1.901   6.422   6.449
 3310TIP3    H231490   1.788   6.449   6.547
 3311TIP3   OH231491   5.433   5.307   7.971
 3311TIP3    H131492   5.396   5.365   8.037
 3311TIP3    H231493   5.514   5.274   8.011
 3312TIP3   OH231494   6.404   5.473   0.054
 3312TIP3    H131495   6.411   5.549   8.795
 3312TIP3    H231496   6.437   5.400   0.002
 3313TIP3   OH231497   0.357   2.319   7.204
 3313TIP3    H131498   0.386   2.406   7.176
 3313TIP3    H231499   0.333   2.274   7.123
 3314TIP3   OH231500   6.312   5.558   8.182
 3314TIP3    H131501   6.239   5.582   8.125
 3314TIP3    H231502   6.390   5.566   8.127
 3315TIP3   OH231503   5.405   4.188   8.031
 3315TIP3    H131504   5.370   4.213   8.116
 3315TIP3    H231505   5.499   4.174   8.046
 3316TIP3   OH231506   4.862   1.082   1.002
 3316TIP3    H131507   4.912   1.104   0.924
 3316TIP3    H231508   4.864   1.161   1.055
 3317TIP3   OH231509   1.933   6.104   1.953
 3317TIP3    H131510   1.877   6.043   2.001
 3317TIP3    H231511   1.910   6.091   1.861
 3318TIP3   OH231512   3.842   0.061   0.752
 3318TIP3    H131513   3.869   6.790   0.740
 3318TIP3    H231514   3.750   0.062   0.727
 3319TIP3   OH231515   2.641   5.048   0.577
 3319TIP3    H131516   2.628   5.026   0.485
 3319TIP3    H231517   2.573   4.999   0.624
 3320TIP3   OH231518   0.887   2.959   7.171
 3320TIP3    H131519   0.946   2.953   7.095
 3320TIP3    H231520   0.840   2.876   7.171
 3321TIP3   OH231521   3.394   1.175   8.535
 3321TIP3    H131522   3.307   1.158   8.570
 3321TIP3    H231523   3.452   1.169   8.611
 3322TIP3   OH231524   5.250   1.496   2.139
 3322TIP3    H131525   5.275   1.544   2.218
 3322TIP3    H231526   5.324   1.510   2.079
 3323TIP3   OH231527   4.829   1.133   8.493
 3323TIP3    H131528   4.893   1.202   8.472
 3323TIP3    H231529   4.880   1.052   8.493
 3324TIP3   OH231530   0.033   2.328   8.108
 3324TIP3    H131531   0.029   2.259   8.174
 3324TIP3    H231532   6.772   2.379   8.121
 3325TIP3   OH231533   3.037   2.222   1.146
 3325TIP3    H131534   3.085   2.145   1.117
 3325TIP3    H231535   3.066   2.292   1.086
 3326TIP3   OH231536   2.409   4.578   2.419
 3326TIP3    H131537   2.424   4.558   2.512
 3326TIP3    H231538   2.314   4.573   2.410
 3327TIP3   OH231539   2.126   0.050   0.070
 3327TIP3    H131540   2.095   0.104   0.143
 3327TIP3    H231541   2.221   0.066   0.068
 3328TIP3   OH231542   4.019   1.100   6.507
 3328TIP3    H131543   4.108   1.136   6.505
 3328TIP3    H231544   3.962   1.176   6.512
 3329TIP3   OH231545   0.795   4.029   7.801
 3329TIP3    H131546   0.851   4.059   7.729
 3329TIP3    H231547   0.715   4.081   7.791
 3330TIP3   OH231548   5.604   2.392   2.104
 3330TIP3    H131549   5.647   2.358   2.025
 3330TIP3    H231550   5.533   2.447   2.072
 3331TIP3   OH231551   5.083   0.225   8.046
 3331TIP3    H131552   5.005   0.202   7.996
 3331TIP3    H231553   5.149   0.246   7.980
 3332TIP3   OH231554   2.395   3.242   1.178
 3332TIP3    H131555   2.399   3.228   1.083
 3332TIP3    H231556   2.486   3.253   1.205
 3333TIP3   OH231557   0.800   3.133   0.416
 3333TIP3    H131558   0.853   3.147   0.337
 3333TIP3    H231559   0.798   3.037   0.427
 3334TIP3   OH231560   2.022   4.688   6.993
 3334TIP3    H131561   2.009   4.638   6.913
 3334TIP3    H231562   1.934   4.699   7.030
 3335TIP3   OH231563   3.207   0.394   1.408
 3335TIP3    H131564   3.245   0.343   1.336
 3335TIP3    H231565   3.271   0.388   1.478
 3336TIP3   OH231566   2.311   4.404   1.725
 3336TIP3    H131567   2.337   4.384   1.815
 3336TIP3    H231568   2.264   4.326   1.695
 3337TIP3   OH231569   4.857   0.825   7.564
 3337TIP3    H131570   4.884   0.905   7.608
 3337TIP3    H231571   4.902   0.828   7.479
 3338TIP3   OH231572   4.368   4.939   7.655
 3338TIP3    H131573   4.412   5.023   7.668
 3338TIP3    H231574   4.303   4.935   7.724
 3339TIP3   OH231575   3.552   5.384   2.033
 3339TIP3    H131576   3.604   5.308   2.057
 3339TIP3    H231577   3.614   5.442   1.989
 3340TIP3   OH231578   1.065   3.273   8.066
 3340TIP3    H131579   1.076   3.184   8.100
 3340TIP3    H231580   1.002   3.314   8.125
 3341TIP3   OH231581   0.432   3.608   0.194
 3341TIP3    H131582   0.387   3.665   0.131
 3341TIP3    H231583   0.394   3.522   0.180
 3342TIP3   OH231584   5.720   5.235   1.584
 3342TIP3    H131585   5.772   5.262   1.660
 3342TIP3    H231586   5.781   5.240   1.510
 3343TIP3   OH231587   4.364   5.519   6.179
 3343TIP3    H131588   4.374   5.540   6.272
 3343TIP3    H231589   4.328   5.431   6.178
 3344TIP3   OH231590   4.597   4.952   8.490
 3344TIP3    H131591   4.533   4.907   8.436
 3344TIP3    H231592   4.666   4.978   8.429
 3345TIP3   OH231593   4.994   0.496   8.563
 3345TIP3    H131594   4.927   0.464   8.503
 3345TIP3    H231595   5.066   0.524   8.507
 3346TIP3   OH231596   5.570   4.577   8.666
 3346TIP3    H131597   5.555   4.669   8.645
 3346TIP3    H231598   5.564   4.573   8.761
 3347TIP3   OH231599   3.534   4.210   6.392
 3347TIP3    H131600   3.594   4.156   6.342
 3347TIP3    H231601   3.587   4.248   6.462
 3348TIP3   OH231602   2.178   0.387   0.616
 3348TIP3    H131603   2.215   0.300   0.602
 3348TIP3    H231604   2.254   0.445   0.615
 3349TIP3   OH231605   6.611   4.645   2.162
 3349TIP3    H131606   6.621   4.552   2.181
 3349TIP3    H231607   6.655   4.689   2.235
 3350TIP3   OH231608   2.986   2.609   1.478
 3350TIP3    H131609   3.038   2.532   1.455
 3350TIP3    H231610   2.963   2.596   1.570
 3351TIP3   OH231611   3.725   3.254   6.165
 3351TIP3    H131612   3.631   3.268   6.175
 3351TIP3    H231613   3.764   3.340   6.179
 3352TIP3   OH231614   0.115   5.745   8.513
 3352TIP3    H131615   0.032   5.710   8.482
 3352TIP3    H231616   0.166   5.668   8.539
 3353TIP3   OH231617   5.283   2.473   0.432
 3353TIP3    H131618   5.300   2.503   0.522
 3353TIP3    H231619   5.238   2.389   0.443
 3354TIP3   OH231620   1.143   4.747   7.086
 3354TIP3    H131621   1.130   4.840   7.068
 3354TIP3    H231622   1.084   4.728   7.159
 3355TIP3   OH231623   5.432   5.204   0.909
 3355TIP3    H131624   5.467   5.115   0.899
 3355TIP3    H231625   5.495   5.259   0.862
 3356TIP3   OH231626   6.395   2.583   7.987
 3356TIP3    H131627   6.416   2.538   7.906
 3356TIP3    H231628   6.303   2.560   8.004
 3357TIP3   OH231629   4.910   3.541   8.738
 3357TIP3    H131630   4.863   3.546   8.655
 3357TIP3    H231631   4.885   3.456   8.774
 3358TIP3   OH231632   5.075   3.076   1.512
 3358TIP3    H131633   5.149   3.133   1.491
 3358TIP3    H231634   5.018   3.131   1.566
 3359TIP3   OH231635   0.474   0.663   7.854
 3359TIP3    H131636   0.406   0.661   7.921
 3359TIP3    H231637   0.513   0.575   7.857
 3360TIP3   OH231638   4.312   1.221   1.880
 3360TIP3    H131639   4.284   1.147   1.826
 3360TIP3    H231640   4.334   1.289   1.816
 3361TIP3   OH231641   1.443   5.126   6.696
 3361TIP3    H131642   1.384   5.054   6.673
 3361TIP3    H231643   1.437   5.186   6.622
 3362TIP3   OH231644   3.145   0.215   1.823
 3362TIP3    H131645   3.142   0.298   1.871
 3362TIP3    H231646   3.209   0.230   1.753
 3363TIP3   OH231647   1.826   5.020   8.399
 3363TIP3    H131648   1.743   4.988   8.364
 3363TIP3    H231649   1.835   4.975   8.484
 3364TIP3   OH231650   2.508   3.683   0.944
 3364TIP3    H131651   2.430   3.631   0.922
 3364TIP3    H231652   2.581   3.621   0.939
 3365TIP3   OH231653   4.409   1.775   7.990
 3365TIP3    H131654   4.488   1.826   8.008
 3365TIP3    H231655   4.377   1.808   7.907
 3366TIP3   OH231656   4.323   1.785   2.717
 3366TIP3    H131657   4.262   1.731   2.767
 3366TIP3    H231658   4.349   1.855   2.777
 3367TIP3   OH231659   1.211   6.359   1.178
 3367TIP3    H131660   1.306   6.363   1.166
 3367TIP3    H231661   1.199   6.317   1.263
 3368TIP3   OH231662   3.066   3.962   7.583
 3368TIP3    H131663   2.976   3.943   7.610
 3368TIP3    H231664   3.079   4.054   7.607
 3369TIP3   OH231665   2.478   1.061   1.846
 3369TIP3    H131666   2.389   1.034   1.822
 3369TIP3    H231667   2.480   1.155   1.826
 3370TIP3   OH231668   6.264   5.069   2.354
 3370TIP3    H131669   6.232   5.048   2.266
 3370TIP3    H231670   6.189   5.111   2.397
 3371TIP3   OH231671   4.853   5.111   7.800
 3371TIP3    H131672   4.806   5.066   7.871
 3371TIP3    H231673   4.940   5.070   7.800
 3372TIP3   OH231674   2.646   3.007   1.412
 3372TIP3    H131675   2.641   2.919   1.375
 3372TIP3    H231676   2.650   3.065   1.335
 3373TIP3   OH231677   2.551   1.738   7.536
 3373TIP3    H131678   2.539   1.819   7.586
 3373TIP3    H231679   2.525   1.761   7.447
 3374TIP3   OH231680   3.730   4.500   1.570
 3374TIP3    H131681   3.784   4.467   1.641
 3374TIP3    H231682   3.708   4.589   1.596
 3375TIP3   OH231683   3.167   1.752   2.065
 3375TIP3    H131684   3.153   1.831   2.117
 3375TIP3    H231685   3.260   1.754   2.044
 3376TIP3   OH231686   5.588   5.359   7.758
 3376TIP3    H131687   5.498   5.343   7.787
 3376TIP3    H231688   5.625   5.417   7.825
 3377TIP3   OH231689   5.781   1.232   7.537
 3377TIP3    H131690   5.755   1.200   7.451
 3377TIP3    H231691   5.759   1.325   7.535
 3378TIP3   OH231692   5.493   1.188   0.793
 3378TIP3    H131693   5.459   1.101   0.813
 3378TIP3    H231694   5.517   1.183   0.701
 3379TIP3   OH231695   0.477   0.451   7.240
 3379TIP3    H131696   0.421   0.528   7.237
 3379TIP3    H231697   0.541   0.470   7.309
 3380TIP3   OH231698   3.766   3.661   6.431
 3380TIP3    H131699   3.800   3.600   6.365
 3380TIP3    H231700   3.842   3.712   6.457
 3381TIP3   OH231701   2.844   5.328   6.695
 3381TIP3    H131702   2.900   5.348   6.770
 3381TIP3    H231703   2.773   5.391   6.700
 3382TIP3   OH231704   0.569   0.323   1.771
 3382TIP3    H131705   0.581   0.416   1.790
 3382TIP3    H231706   0.577   0.280   1.857
 3383TIP3   OH231707   5.957   5.097   0.346
 3383TIP3    H131708   5.961   5.003   0.329
 3383TIP3    H231709   5.966   5.137   0.259
 3384TIP3   OH231710   1.807   2.159   0.017
 3384TIP3    H131711   1.734   2.218   0.038
 3384TIP3    H231712   1.790   2.081   0.070
 3385TIP3   OH231713   1.758   4.714   0.022
 3385TIP3    H131714   1.761   4.624   0.054
 3385TIP3    H231715   1.669   4.724   8.787
 3386TIP3   OH231716   2.252   0.529   8.481
 3386TIP3    H131717   2.187   0.553   8.547
 3386TIP3    H231718   2.291   0.448   8.515
 3387TIP3   OH231719   0.827   2.856   0.739
 3387TIP3    H131720   0.913   2.890   0.763
 3387TIP3    H231721   0.811   2.889   0.651
 3388TIP3   OH231722   0.454   6.000   1.648
 3388TIP3    H131723   0.416   6.085   1.668
 3388TIP3    H231724   0.435   5.987   1.555
 3389TIP3   OH231725   2.477   1.896   0.847
 3389TIP3    H131726   2.421   1.841   0.903
 3389TIP3    H231727   2.448   1.878   0.758
 3390TIP3   OH231728   1.802   2.931   1.707
 3390TIP3    H131729   1.856   2.863   1.746
 3390TIP3    H231730   1.715   2.916   1.744
 3391TIP3   OH231731   4.032   6.273   1.208
 3391TIP3    H131732   3.960   6.334   1.197
 3391TIP3    H231733   4.067   6.262   1.119
 3392TIP3   OH231734   1.432   0.895   1.985
 3392TIP3    H131735   1.433   0.800   1.975
 3392TIP3    H231736   1.360   0.912   2.045
 3393TIP3   OH231737   2.031   1.837   0.009
 3393TIP3    H131738   2.037   1.743   0.027
 3393TIP3    H231739   1.992   1.842   8.722
 3394TIP3   OH231740   3.671   1.432   1.722
 3394TIP3    H131741   3.632   1.441   1.809
 3394TIP3    H231742   3.672   1.338   1.706
 3395TIP3   OH231743   4.963   6.659   7.168
 3395TIP3    H131744   4.984   6.637   7.259
 3395TIP3    H231745   4.915   6.741   7.175
 3396TIP3   OH231746   4.854   3.994   1.948
 3396TIP3    H131747   4.869   4.045   2.027
 3396TIP3    H231748   4.925   4.022   1.889
 3397TIP3   OH231749   5.236   5.248   8.304
 3397TIP3    H131750   5.245   5.341   8.284
 3397TIP3    H231751   5.245   5.242   8.399
 3398TIP3   OH231752   5.218   6.005   8.215
 3398TIP3    H131753   5.306   5.988   8.247
 3398TIP3    H231754   5.177   5.918   8.212
 3399TIP3   OH231755   2.146   3.096   7.423
 3399TIP3    H131756   2.078   3.126   7.482
 3399TIP3    H231757   2.116   3.010   7.393
 3400TIP3   OH231758   0.853   6.176   0.009
 3400TIP3    H131759   0.781   6.123   8.774
 3400TIP3    H231760   0.827   6.266   8.790
 3401TIP3   OH231761   4.010   5.734   6.680
 3401TIP3    H131762   3.961   5.653   6.693
 3401TIP3    H231763   3.947   5.793   6.638
 3402TIP3   OH231764   1.407   3.814   6.935
 3402TIP3    H131765   1.476   3.789   6.873
 3402TIP3    H231766   1.331   3.763   6.907
 3403TIP3   OH231767   2.113   3.380   7.419
 3403TIP3    H131768   2.057   3.411   7.348
 3403TIP3    H231769   2.161   3.307   7.382
 3404TIP3   OH231770   0.643   6.533   1.866
 3404TIP3    H131771   0.604   6.451   1.837
 3404TIP3    H231772   0.611   6.545   1.956
 3405TIP3   OH231773   1.218   4.467   6.646
 3405TIP3    H131774   1.302   4.463   6.600
 3405TIP3    H231775   1.231   4.535   6.712
 3406TIP3   OH231776   4.133   5.371   0.138
 3406TIP3    H131777   4.184   5.446   0.170
 3406TIP3    H231778   4.186   5.335   0.067
 3407TIP3   OH231779   1.242   4.646   8.025
 3407TIP3    H131780   1.285   4.576   8.073
 3407TIP3    H231781   1.309   4.680   7.965
 3408TIP3   OH231782   1.872   5.408   8.523
 3408TIP3    H131783   1.880   5.419   8.428
 3408TIP3    H231784   1.898   5.493   8.559
 3409TIP3   OH231785   6.671   1.795   1.621
 3409TIP3    H131786   6.663   1.828   1.710
 3409TIP3    H231787   6.614   1.851   1.569
 3410TIP3   OH231788   3.711   5.603   1.696
 3410TIP3    H131789   3.771   5.593   1.622
 3410TIP3    H231790   3.643   5.662   1.664
 3411TIP3   OH231791   0.792   1.111   7.342
 3411TIP3    H131792   0.886   1.110   7.324
 3411TIP3    H231793   0.765   1.200   7.323
 3412TIP3   OH231794   4.933   4.860   1.531
 3412TIP3    H131795   4.953   4.946   1.569
 3412TIP3    H231796   4.920   4.803   1.606
 3413TIP3   OH231797   3.791   6.501   7.383
 3413TIP3    H131798   3.702   6.482   7.414
 3413TIP3    H231799   3.780   6.572   7.320
 3414TIP3   OH231800   1.414   1.498   0.020
 3414TIP3    H131801   1.470   1.452   8.758
 3414TIP3    H231802   1.334   1.516   8.771
 3415TIP3   OH231803   3.193   1.012   7.776
 3415TIP3    H131804   3.122   1.074   7.764
 3415TIP3    H231805   3.223   1.026   7.866
 3416TIP3   OH231806   6.441   5.653   8.628
 3416TIP3    H131807   6.419   5.579   8.571
 3416TIP3    H231808   6.389   5.725   8.595
 3417TIP3   OH231809   4.976   2.156   8.340
 3417TIP3    H131810   5.035   2.080   8.344
 3417TIP3    H231811   4.962   2.170   8.247
 3418TIP3   OH231812   5.784   5.810   2.127
 3418TIP3    H131813   5.811   5.852   2.045
 3418TIP3    H231814   5.841   5.847   2.194
 3419TIP3   OH231815   1.980   0.872   7.182
 3419TIP3    H131816   1.924   0.825   7.244
 3419TIP3    H231817   2.025   0.937   7.235
 3420TIP3   OH231818   3.897   6.667   2.196
 3420TIP3    H131819   3.834   6.620   2.250
 3420TIP3    H231820   3.977   6.614   2.202
 3421TIP3   OH231821   0.731   2.463   8.197
 3421TIP3    H131822   0.723   2.508   8.113
 3421TIP3    H231823   0.681   2.382   8.186
 3422TIP3   OH231824   4.702   0.105   1.545
 3422TIP3    H131825   4.712   0.082   1.452
 3422TIP3    H231826   4.609   0.096   1.562
 3423TIP3   OH231827   6.413   2.473   8.599
 3423TIP3    H131828   6.482   2.470   8.533
 3423TIP3    H231829   6.388   2.381   8.611
 3424TIP3   OH231830   6.815   1.409   1.611
 3424TIP3    H131831   6.798   1.322   1.649
 3424TIP3    H231832   6.730   1.438   1.579
 3425TIP3   OH231833   3.592   0.271   6.580
 3425TIP3    H131834   3.584   0.218   6.500
 3425TIP3    H231835   3.501   0.292   6.603
 3426TIP3   OH231836   2.578   5.946   1.635
 3426TIP3    H131837   2.584   6.041   1.639
 3426TIP3    H231838   2.536   5.921   1.717
 3427TIP3   OH231839   4.376   3.242   8.323
 3427TIP3    H131840   4.435   3.194   8.264
 3427TIP3    H231841   4.427   3.317   8.352
 3428TIP3   OH231842   2.860   4.560   7.882
 3428TIP3    H131843   2.932   4.521   7.932
 3428TIP3    H231844   2.828   4.630   7.939
 3429TIP3   OH231845   0.097   2.498   7.884
 3429TIP3    H131846   0.170   2.452   7.843
 3429TIP3    H231847   0.084   2.452   7.967
 3430TIP3   OH231848   1.785   4.497   1.867
 3430TIP3    H131849   1.818   4.446   1.941
 3430TIP3    H231850   1.696   4.465   1.854
 3431TIP3   OH231851   1.797   0.875   0.154
 3431TIP3    H131852   1.702   0.874   0.145
 3431TIP3    H231853   1.820   0.968   0.163
 3432TIP3   OH231854   2.222   3.158   0.077
 3432TIP3    H131855   2.242   3.089   0.141
 3432TIP3    H231856   2.290   3.224   0.091
 3433TIP3   OH231857   4.446   1.943   1.561
 3433TIP3    H131858   4.453   1.854   1.595
 3433TIP3    H231859   4.374   1.982   1.610
 3434TIP3   OH231860   3.437   4.539   1.848
 3434TIP3    H131861   3.493   4.594   1.793
 3434TIP3    H231862   3.497   4.474   1.886
 3435TIP3   OH231863   1.574   2.091   7.740
 3435TIP3    H131864   1.550   2.170   7.691
 3435TIP3    H231865   1.655   2.061   7.698
 3436TIP3   OH231866   4.185   0.861   0.335
 3436TIP3    H131867   4.135   0.942   0.321
 3436TIP3    H231868   4.262   0.890   0.383
 3437TIP3   OH231869   1.724   1.929   0.182
 3437TIP3    H131870   1.678   1.850   0.154
 3437TIP3    H231871   1.808   1.897   0.215
 3438TIP3   OH231872   1.097   1.188   1.181
 3438TIP3    H131873   1.091   1.190   1.276
 3438TIP3    H231874   1.178   1.235   1.161
 3439TIP3   OH231875   1.437   5.366   8.302
 3439TIP3    H131876   1.448   5.330   8.214
 3439TIP3    H231877   1.499   5.316   8.356
 3440TIP3   OH231878   4.057   0.324   6.498
 3440TIP3    H131879   4.114   0.253   6.528
 3440TIP3    H231880   4.078   0.397   6.556
 3441TIP3   OH231881   3.663   4.749   0.262
 3441TIP3    H131882   3.658   4.809   0.336
 3441TIP3    H231883   3.755   4.727   0.254
 3442TIP3   OH231884   2.510   6.182   7.432
 3442TIP3    H131885   2.473   6.260   7.390
 3442TIP3    H231886   2.469   6.109   7.386
 3443TIP3   OH231887   4.919   3.147   1.287
 3443TIP3    H131888   4.935   3.225   1.341
 3443TIP3    H231889   4.913   3.076   1.350
 3444TIP3   OH231890   0.013   0.628   1.560
 3444TIP3    H131891   0.037   0.678   1.482
 3444TIP3    H231892   6.782   0.554   1.526
 3445TIP3   OH231893   4.981   1.018   7.740
 3445TIP3    H131894   4.902   1.017   7.794
 3445TIP3    H231895   5.043   1.072   7.790
 3446TIP3   OH231896   1.213   2.426   7.722
 3446TIP3    H131897   1.234   2.346   7.770
 3446TIP3    H231898   1.278   2.490   7.753
 3447TIP3   OH231899   0.018   1.860   1.380
 3447TIP3    H131900   0.061   1.794   1.436
 3447TIP3    H231901   0.024   1.824   1.292
 3448TIP3   OH231902   2.914   5.370   8.290
 3448TIP3    H131903   2.955   5.335   8.369
 3448TIP3    H231904   2.936   5.306   8.222
 3449TIP3   OH231905   3.610   4.387   7.185
 3449TIP3    H131906   3.598   4.300   7.223
 3449TIP3    H231907   3.681   4.426   7.235
 3450TIP3   OH231908   3.344   6.203   7.926
 3450TIP3    H131909   3.338   6.225   8.019
 3450TIP3    H231910   3.253   6.201   7.897
 3451TIP3   OH231911   0.452   0.642   0.827
 3451TIP3    H131912   0.441   0.595   0.910
 3451TIP3    H231913   0.364   0.673   0.805
 3452TIP3   OH231914   2.548   2.495   8.747
 3452TIP3    H131915   2.475   2.534   8.794
 3452TIP3    H231916   2.537   2.525   8.656
 3453TIP3   OH231917   3.069   6.575   1.009
 3453TIP3    H131918   3.027   6.490   1.017
 3453TIP3    H231919   3.128   6.565   0.934
 3454TIP3   OH231920   5.913   4.788   8.342
 3454TIP3    H131921   5.913   4.811   8.435
 3454TIP3    H231922   5.905   4.693   8.341
 3455TIP3   OH231923   1.383   4.190   7.949
 3455TIP3    H131924   1.365   4.213   7.858
 3455TIP3    H231925   1.457   4.129   7.945
 3456TIP3   OH231926   3.256   0.129   2.087
 3456TIP3    H131927   3.239   0.162   1.999
 3456TIP3    H231928   3.168   0.119   2.126
 3457TIP3   OH231929   3.185   4.785   2.224
 3457TIP3    H131930   3.278   4.779   2.249
 3457TIP3    H231931   3.171   4.711   2.166
 3458TIP3   OH231932   1.860   2.115   0.552
 3458TIP3    H131933   1.937   2.061   0.564
 3458TIP3    H231934   1.791   2.071   0.602
 3459TIP3   OH231935   1.316   1.965   6.357
 3459TIP3    H131936   1.352   1.989   6.443
 3459TIP3    H231937   1.228   1.934   6.377
 3460TIP3   OH231938   3.991   1.463   8.104
 3460TIP3    H131939   3.941   1.423   8.033
 3460TIP3    H231940   4.013   1.390   8.162
 3461TIP3   OH231941   5.900   2.392   7.886
 3461TIP3    H131942   5.909   2.408   7.980
 3461TIP3    H231943   5.807   2.375   7.874
 3462TIP3   OH231944   5.064   4.553   8.787
 3462TIP3    H131945   5.097   4.607   0.059
 3462TIP3    H231946   4.971   4.574   8.782
 3463TIP3   OH231947   5.157   1.999   0.842
 3463TIP3    H131948   5.124   1.961   0.923
 3463TIP3    H231949   5.085   1.988   0.779
 3464TIP3   OH231950   3.383   0.765   7.112
 3464TIP3    H131951   3.393   0.760   7.017
 3464TIP3    H231952   3.465   0.728   7.146
 3465TIP3   OH231953   5.597   3.321   0.483
 3465TIP3    H131954   5.544   3.349   0.409
 3465TIP3    H231955   5.605   3.398   0.539
 3466TIP3   OH231956   6.171   5.631   7.968
 3466TIP3    H131957   6.102   5.606   7.907
 3466TIP3    H231958   6.252   5.623   7.916
 3467TIP3   OH231959   5.324   1.086   1.007
 3467TIP3    H131960   5.361   1.094   1.095
 3467TIP3    H231961   5.387   1.032   0.959
 3468TIP3   OH231962   5.130   3.305   0.720
 3468TIP3    H131963   5.175   3.232   0.762
 3468TIP3    H231964   5.169   3.310   0.632
 3469TIP3   OH231965   4.348   0.947   7.461
 3469TIP3    H131966   4.357   0.867   7.513
 3469TIP3    H231967   4.383   0.924   7.375
 3470TIP3   OH231968   3.690   5.138   0.191
 3470TIP3    H131969   3.697   5.132   0.286
 3470TIP3    H231970   3.777   5.115   0.158
 3471TIP3   OH231971   3.775   0.975   6.395
 3471TIP3    H131972   3.861   0.988   6.435
 3471TIP3    H231973   3.766   0.880   6.388
 3472TIP3   OH231974   6.217   6.685   6.791
 3472TIP3    H131975   6.307   6.658   6.773
 3472TIP3    H231976   6.225   6.755   6.855
 3473TIP3   OH231977   6.092   0.822   8.196
 3473TIP3    H131978   6.069   0.820   8.103
 3473TIP3    H231979   6.161   0.756   8.206
 3474TIP3   OH231980   5.172   4.563   1.409
 3474TIP3    H131981   5.081   4.537   1.400
 3474TIP3    H231982   5.186   4.571   1.504
 3475TIP3   OH231983   1.955   6.719   0.286
 3475TIP3    H131984   1.996   6.760   0.363
 3475TIP3    H231985   2.000   6.758   0.211
 3476TIP3   OH231986   2.431   0.172   7.638
 3476TIP3    H131987   2.379   0.173   7.718
 3476TIP3    H231988   2.383   0.113   7.579
 3477TIP3   OH231989   3.082   0.025   1.258
 3477TIP3    H131990   3.136   0.050   1.183
 3477TIP3    H231991   3.145   0.007   1.328
 3478TIP3   OH231992   5.429   1.820   7.340
 3478TIP3    H131993   5.338   1.804   7.315
 3478TIP3    H231994   5.425   1.896   7.398
 3479TIP3   OH231995   4.956   2.144   0.088
 3479TIP3    H131996   5.041   2.176   0.118
 3479TIP3    H231997   4.965   2.138   8.793
 3480TIP3   OH231998   0.637   4.031   8.038
 3480TIP3    H131999   0.679   3.989   8.113
 3480TIP3    H232000   0.680   3.991   7.962
 3481TIP3   OH232001   0.661   0.484   8.633
 3481TIP3    H132002   0.573   0.497   8.600
 3481TIP3    H232003   0.716   0.541   8.579
 3482TIP3   OH232004   1.003   4.357   7.901
 3482TIP3    H132005   0.926   4.341   7.848
 3482TIP3    H232006   1.040   4.270   7.917
 3483TIP3   OH232007   6.774   1.591   6.876
 3483TIP3    H132008   6.729   1.670   6.844
 3483TIP3    H232009   6.727   1.519   6.834
 3484TIP3   OH232010   4.539   5.228   8.599
 3484TIP3    H132011   4.537   5.241   8.504
 3484TIP3    H232012   4.548   5.134   8.611
 3485TIP3   OH232013   0.834   0.006   7.334
 3485TIP3    H132014   0.879   0.020   7.250
 3485TIP3    H232015   0.862   6.739   7.362
 3486TIP3   OH232016   4.439   3.909   7.933
 3486TIP3    H132017   4.423   3.962   7.855
 3486TIP3    H232018   4.363   3.851   7.939
 3487TIP3   OH232019   1.760   1.673   1.528
 3487TIP3    H132020   1.848   1.664   1.564
 3487TIP3    H232021   1.753   1.766   1.504
 3488TIP3   OH232022   5.151   1.736   7.351
 3488TIP3    H132023   5.104   1.792   7.412
 3488TIP3    H232024   5.091   1.725   7.276
 3489TIP3   OH232025   1.340   6.395   7.696
 3489TIP3    H132026   1.373   6.473   7.652
 3489TIP3    H232027   1.394   6.387   7.775
 3490TIP3   OH232028   1.368   5.485   6.494
 3490TIP3    H132029   1.377   5.574   6.526
 3490TIP3    H232030   1.274   5.476   6.475
 3491TIP3   OH232031   2.669   4.713   7.011
 3491TIP3    H132032   2.672   4.690   6.918
 3491TIP3    H232033   2.730   4.652   7.052
 3492TIP3   OH232034   5.467   5.886   0.777
 3492TIP3    H132035   5.482   5.980   0.767
 3492TIP3    H232036   5.427   5.858   0.694
 3493TIP3   OH232037   4.692   3.801   8.635
 3493TIP3    H132038   4.696   3.710   8.607
 3493TIP3    H232039   4.628   3.803   8.705
 3494TIP3   OH232040   5.592   2.896   0.151
 3494TIP3    H132041   5.663   2.848   0.110
 3494TIP3    H232042   5.592   2.982   0.107
 3495TIP3   OH232043   3.756   3.064   6.824
 3495TIP3    H132044   3.753   2.974   6.857
 3495TIP3    H232045   3.775   3.117   6.901
 3496TIP3   OH232046   6.165   2.943   7.579
 3496TIP3    H132047   6.233   2.926   7.645
 3496TIP3    H232048   6.198   2.902   7.499
 3497TIP3   OH232049   3.294   3.190   1.972
 3497TIP3    H132050   3.357   3.258   1.948
 3497TIP3    H232051   3.347   3.123   2.015
 3498TIP3   OH232052   0.633   2.131   1.491
 3498TIP3    H132053   0.713   2.117   1.543
 3498TIP3    H232054   0.663   2.179   1.414
 3499TIP3   OH232055   0.990   6.762   0.899
 3499TIP3    H132056   1.076   6.794   0.925
 3499TIP3    H232057   1.006   6.708   0.822
 3500TIP3   OH232058   6.123   0.598   8.015
 3500TIP3    H132059   6.075   0.543   8.077
 3500TIP3    H232060   6.060   0.665   7.989
 3501TIP3   OH232061   2.911   5.527   0.406
 3501TIP3    H132062   2.915   5.466   0.332
 3501TIP3    H232063   2.961   5.484   0.476
 3502TIP3   OH232064   2.165   6.319   6.206
 3502TIP3    H132065   2.140   6.389   6.267
 3502TIP3    H232066   2.135   6.351   6.120
 3503TIP3   OH232067   0.027   0.063   1.445
 3503TIP3    H132068   6.785   0.011   1.497
 3503TIP3    H232069   6.793   0.128   1.402
 3504TIP3   OH232070   3.553   4.281   0.713
 3504TIP3    H132071   3.521   4.314   0.629
 3504TIP3    H232072   3.475   4.268   0.766
 3505TIP3   OH232073   2.962   6.169   0.040
 3505TIP3    H132074   2.874   6.132   0.046
 3505TIP3    H232075   2.998   6.159   0.128
 3506TIP3   OH232076   2.649   6.325   1.481
 3506TIP3    H132077   2.652   6.253   1.419
 3506TIP3    H232078   2.594   6.292   1.553
 3507TIP3   OH232079   5.141   1.277   7.244
 3507TIP3    H132080   5.052   1.243   7.248
 3507TIP3    H232081   5.143   1.349   7.307
 3508TIP3   OH232082   3.508   4.536   0.526
 3508TIP3    H132083   3.448   4.610   0.531
 3508TIP3    H232084   3.591   4.575   0.498
 3509TIP3   OH232085   0.934   6.638   7.647
 3509TIP3    H132086   0.839   6.652   7.654
 3509TIP3    H232087   0.945   6.592   7.564
 3510TIP3   OH232088   2.927   2.543   0.631
 3510TIP3    H132089   2.848   2.489   0.640
 3510TIP3    H232090   2.999   2.481   0.637
 3511TIP3   OH232091   3.838   2.906   7.758
 3511TIP3    H132092   3.851   2.815   7.732
 3511TIP3    H232093   3.867   2.909   7.849
 3512TIP3   OH232094   6.190   1.484   7.062
 3512TIP3    H132095   6.098   1.507   7.043
 3512TIP3    H232096   6.188   1.453   7.152
 3513TIP3   OH232097   0.273   0.470   7.502
 3513TIP3    H132098   0.268   0.465   7.407
 3513TIP3    H232099   0.360   0.505   7.520
 3514TIP3   OH232100   3.677   3.918   6.939
 3514TIP3    H132101   3.609   3.926   6.872
 3514TIP3    H232102   3.702   3.825   6.936
 3515TIP3   OH232103   4.034   6.089   1.503
 3515TIP3    H132104   4.085   6.156   1.457
 3515TIP3    H232105   4.099   6.038   1.550
 3516TIP3   OH232106   1.475   2.812   8.510
 3516TIP3    H132107   1.500   2.748   8.576
 3516TIP3    H232108   1.557   2.852   8.482
 3517TIP3   OH232109   5.601   2.828   1.958
 3517TIP3    H132110   5.552   2.886   2.016
 3517TIP3    H232111   5.682   2.875   1.940
 3518TIP3   OH232112   4.623   2.442   2.089
 3518TIP3    H132113   4.640   2.347   2.092
 3518TIP3    H232114   4.641   2.466   1.998
 3519TIP3   OH232115   0.043   4.085   1.155
 3519TIP3    H132116   0.029   4.024   1.227
 3519TIP3    H232117   6.787   4.072   1.098
 3520TIP3   OH232118   6.502   1.504   2.855
 3520TIP3    H132119   6.433   1.500   2.788
 3520TIP3    H232120   6.517   1.597   2.868
 3521TIP3   OH232121   3.075   0.742   1.788
 3521TIP3    H132122   3.035   0.806   1.847
 3521TIP3    H232123   3.027   0.752   1.705
 3522TIP3   OH232124   1.493   1.983   6.994
 3522TIP3    H132125   1.422   1.962   7.055
 3522TIP3    H232126   1.466   2.066   6.953
 3523TIP3   OH232127   2.738   3.188   6.415
 3523TIP3    H132128   2.819   3.183   6.365
 3523TIP3    H232129   2.669   3.186   6.349
 3524TIP3   OH232130   2.871   2.882   1.041
 3524TIP3    H132131   2.934   2.882   0.969
 3524TIP3    H232132   2.833   2.794   1.039
 3525TIP3   OH232133   0.046   1.208   0.851
 3525TIP3    H132134   6.789   1.247   0.809
 3525TIP3    H232135   0.098   1.172   0.779
 3526TIP3   OH232136   1.589   0.392   1.045
 3526TIP3    H132137   1.497   0.395   1.069
 3526TIP3    H232138   1.588   0.366   0.952
 3527TIP3   OH232139   6.497   1.857   8.427
 3527TIP3    H132140   6.484   1.933   8.371
 3527TIP3    H232141   6.436   1.792   8.393
 3528TIP3   OH232142   0.758   6.461   8.773
 3528TIP3    H132143   0.833   6.491   0.024
 3528TIP3    H232144   0.699   6.422   0.037
 3529TIP3   OH232145   1.168   0.869   8.020
 3529TIP3    H132146   1.104   0.798   8.024
 3529TIP3    H232147   1.140   0.931   8.088
 3530TIP3   OH232148   2.094   4.814   1.580
 3530TIP3    H132149   2.050   4.847   1.658
 3530TIP3    H232150   2.037   4.744   1.548
 3531TIP3   OH232151   4.008   0.610   1.059
 3531TIP3    H132152   4.047   0.522   1.056
 3531TIP3    H232153   3.941   0.604   1.127
 3532TIP3   OH232154   0.128   6.626   7.583
 3532TIP3    H132155   0.224   6.631   7.584
 3532TIP3    H232156   0.101   6.690   7.650
 3533TIP3   OH232157   2.055   4.205   6.835
 3533TIP3    H132158   2.142   4.244   6.834
 3533TIP3    H232159   2.071   4.110   6.831
 3534TIP3   OH232160   5.587   2.155   7.661
 3534TIP3    H132161   5.598   2.226   7.725
 3534TIP3    H232162   5.676   2.137   7.630
 3535TIP3   OH232163   4.105   2.108   1.395
 3535TIP3    H132164   4.118   2.200   1.375
 3535TIP3    H232165   4.102   2.104   1.491
 3536TIP3   OH232166   5.391   3.759   7.868
 3536TIP3    H132167   5.374   3.849   7.838
 3536TIP3    H232168   5.304   3.721   7.881
 3537TIP3   OH232169   2.857   5.020   6.854
 3537TIP3    H132170   2.875   5.102   6.809
 3537TIP3    H232171   2.919   5.019   6.927
 3538TIP3   OH232172   0.390   3.195   7.508
 3538TIP3    H132173   0.464   3.249   7.534
 3538TIP3    H232174   0.375   3.217   7.416
 3539TIP3   OH232175   6.101   2.788   8.111
 3539TIP3    H132176   6.169   2.771   8.176
 3539TIP3    H232177   6.106   2.714   8.051
 3540TIP3   OH232178   1.056   0.786   1.961
 3540TIP3    H132179   1.023   0.736   1.887
 3540TIP3    H232180   1.021   0.874   1.950
 3541TIP3   OH232181   0.277   3.711   7.170
 3541TIP3    H132182   0.230   3.703   7.253
 3541TIP3    H232183   0.218   3.674   7.105
 3542TIP3   OH232184   6.343   3.153   1.517
 3542TIP3    H132185   6.315   3.236   1.478
 3542TIP3    H232186   6.262   3.106   1.535
 3543TIP3   OH232187   5.153   4.284   0.065
 3543TIP3    H132188   5.240   4.278   0.025
 3543TIP3    H232189   5.121   4.370   0.040
 3544TIP3   OH232190   2.145   2.251   2.225
 3544TIP3    H132191   2.109   2.318   2.284
 3544TIP3    H232192   2.162   2.176   2.282
 3545TIP3   OH232193   2.008   1.584   1.590
 3545TIP3    H132194   2.078   1.610   1.529
 3545TIP3    H232195   2.050   1.585   1.676
 3546TIP3   OH232196   4.030   5.546   1.594
 3546TIP3    H132197   4.003   5.455   1.579
 3546TIP3    H232198   4.064   5.546   1.684
 3547TIP3   OH232199   6.244   0.377   1.121
 3547TIP3    H132200   6.154   0.346   1.117
 3547TIP3    H232201   6.293   0.306   1.162
 3548TIP3   OH232202   3.214   3.841   2.282
 3548TIP3    H132203   3.276   3.806   2.219
 3548TIP3    H232204   3.167   3.764   2.314
 3549TIP3   OH232205   1.541   4.541   7.650
 3549TIP3    H132206   1.602   4.512   7.718
 3549TIP3    H232207   1.463   4.570   7.698
 3550TIP3   OH232208   2.352   6.769   6.264
 3550TIP3    H132209   2.263   6.747   6.293
 3550TIP3    H232210   2.342   6.791   6.171
 3551TIP3   OH232211   2.706   5.672   7.731
 3551TIP3    H132212   2.765   5.661   7.805
 3551TIP3    H232213   2.734   5.754   7.690
 3552TIP3   OH232214   0.905   2.942   2.415
 3552TIP3    H132215   0.854   3.019   2.390
 3552TIP3    H232216   0.985   2.977   2.454
 3553TIP3   OH232217   0.433   3.607   1.807
 3553TIP3    H132218   0.419   3.539   1.872
 3553TIP3    H232219   0.447   3.687   1.857
 3554TIP3   OH232220   5.142   2.877   7.123
 3554TIP3    H132221   5.182   2.844   7.204
 3554TIP3    H232222   5.184   2.826   7.054
 3555TIP3   OH232223   5.772   0.152   1.620
 3555TIP3    H132224   5.742   0.241   1.640
 3555TIP3    H232225   5.867   0.155   1.636
 3556TIP3   OH232226   2.243   2.564   1.069
 3556TIP3    H132227   2.222   2.657   1.072
 3556TIP3    H232228   2.259   2.546   0.976
 3557TIP3   OH232229   4.530   2.491   7.056
 3557TIP3    H132230   4.476   2.516   6.980
 3557TIP3    H232231   4.471   2.440   7.111
 3558TIP3   OH232232   1.001   3.815   7.601
 3558TIP3    H132233   0.975   3.745   7.541
 3558TIP3    H232234   1.022   3.770   7.683
 3559TIP3   OH232235   6.199   1.567   0.785
 3559TIP3    H132236   6.197   1.492   0.726
 3559TIP3    H232237   6.119   1.616   0.764
 3560TIP3   OH232238   5.915   1.947   7.494
 3560TIP3    H132239   5.903   1.899   7.412
 3560TIP3    H232240   5.932   2.037   7.466
 3561TIP3   OH232241   3.584   0.965   1.235
 3561TIP3    H132242   3.645   0.927   1.299
 3561TIP3    H232243   3.631   1.040   1.199
 3562TIP3   OH232244   0.017   3.512   1.579
 3562TIP3    H132245   6.748   3.479   1.564
 3562TIP3    H232246   0.031   3.501   1.673
 3563TIP3   OH232247   2.303   3.487   7.585
 3563TIP3    H132248   2.289   3.429   7.660
 3563TIP3    H232249   2.251   3.448   7.514
 3564TIP3   OH232250   0.891   3.636   0.905
 3564TIP3    H132251   0.900   3.593   0.820
 3564TIP3    H232252   0.820   3.700   0.892
 3565TIP3   OH232253   6.440   5.407   0.540
 3565TIP3    H132254   6.360   5.447   0.573
 3565TIP3    H232255   6.458   5.335   0.601
 3566TIP3   OH232256   1.393   0.398   6.158
 3566TIP3    H132257   1.385   0.414   6.252
 3566TIP3    H232258   1.486   0.413   6.140
 3567TIP3   OH232259   3.525   0.773   0.450
 3567TIP3    H132260   3.449   0.718   0.432
 3567TIP3    H232261   3.588   0.750   0.383
 3568TIP3   OH232262   0.034   2.893   0.537
 3568TIP3    H132263   0.007   2.939   0.617
 3568TIP3    H232264   0.059   2.964   0.477
 3569TIP3   OH232265   5.225   4.107   0.694
 3569TIP3    H132266   5.270   4.152   0.623
 3569TIP3    H232267   5.176   4.037   0.651
 3570TIP3   OH232268   4.396   2.333   7.300
 3570TIP3    H132269   4.424   2.281   7.375
 3570TIP3    H232270   4.314   2.292   7.271
 3571TIP3   OH232271   0.417   2.086   2.107
 3571TIP3    H132272   0.429   2.094   2.202
 3571TIP3    H232273   0.505   2.064   2.074
 3572TIP3   OH232274   6.562   1.247   2.899
 3572TIP3    H132275   6.538   1.241   2.807
 3572TIP3    H232276   6.530   1.333   2.927
 3573TIP3   OH232277   0.348   0.523   8.642
 3573TIP3    H132278   0.351   0.571   8.559
 3573TIP3    H232279   0.330   0.590   8.708
 3574TIP3   OH232280   4.749   4.934   8.002
 3574TIP3    H132281   4.657   4.960   8.006
 3574TIP3    H232282   4.746   4.838   7.996
 3575TIP3   OH232283   0.654   3.575   8.228
 3575TIP3    H132284   0.713   3.629   8.175
 3575TIP3    H232285   0.648   3.620   8.312
 3576TIP3   OH232286   2.085   3.239   6.276
 3576TIP3    H132287   2.084   3.209   6.185
 3576TIP3    H232288   2.165   3.201   6.312
 3577TIP3   OH232289   0.560   2.813   7.706
 3577TIP3    H132290   0.644   2.817   7.752
 3577TIP3    H232291   0.550   2.900   7.666
 3578TIP3   OH232292   1.400   0.668   6.484
 3578TIP3    H132293   1.337   0.726   6.526
 3578TIP3    H232294   1.467   0.728   6.450
 3579TIP3   OH232295   0.175   4.599   7.802
 3579TIP3    H132296   0.181   4.533   7.733
 3579TIP3    H232297   0.085   4.632   7.796
 3580TIP3   OH232298   3.493   3.322   0.860
 3580TIP3    H132299   3.410   3.305   0.904
 3580TIP3    H232300   3.560   3.302   0.926
 3581TIP3   OH232301   4.931   6.801   7.636
 3581TIP3    H132302   4.977   0.024   7.564
 3581TIP3    H232303   4.843   0.021   7.635
 3582TIP3   OH232304   2.692   5.821   1.415
 3582TIP3    H132305   2.772   5.872   1.401
 3582TIP3    H232306   2.656   5.855   1.497
 3583TIP3   OH232307   2.476   3.914   1.275
 3583TIP3    H132308   2.384   3.937   1.281
 3583TIP3    H232309   2.476   3.820   1.254
 3584TIP3   OH232310   0.014   6.177   7.858
 3584TIP3    H132311   0.061   6.223   7.790
 3584TIP3    H232312   0.061   6.198   7.939
 3585TIP3   OH232313   4.136   4.743   0.773
 3585TIP3    H132314   4.120   4.821   0.719
 3585TIP3    H232315   4.139   4.776   0.863
 3586TIP3   OH232316   2.339   3.473   0.793
 3586TIP3    H132317   2.269   3.533   0.767
 3586TIP3    H232318   2.298   3.413   0.855
 3587TIP3   OH232319   3.422   1.803   8.747
 3587TIP3    H132320   3.517   1.811   8.755
 3587TIP3    H232321   3.405   1.709   8.751
 3588TIP3   OH232322   2.743   2.437   0.230
 3588TIP3    H132323   2.781   2.362   0.275
 3588TIP3    H232324   2.766   2.425   0.138
 3589TIP3   OH232325   1.192   0.170   1.014
 3589TIP3    H132326   1.142   0.138   1.089
 3589TIP3    H232327   1.283   0.166   1.042
 3590TIP3   OH232328   4.089   2.789   7.673
 3590TIP3    H132329   4.065   2.827   7.588
 3590TIP3    H232330   4.106   2.864   7.729
 3591TIP3   OH232331   6.465   4.257   0.301
 3591TIP3    H132332   6.554   4.251   0.267
 3591TIP3    H232333   6.450   4.351   0.314
 3592TIP3   OH232334   6.083   1.188   8.134
 3592TIP3    H132335   6.051   1.178   8.044
 3592TIP3    H232336   6.147   1.259   8.129
 3593TIP3   OH232337   5.665   0.411   0.355
 3593TIP3    H132338   5.576   0.387   0.379
 3593TIP3    H232339   5.676   0.500   0.390
 3594TIP3   OH232340   5.649   5.140   8.647
 3594TIP3    H132341   5.593   5.098   8.712
 3594TIP3    H232342   5.716   5.185   8.700
 3595TIP3   OH232343   3.536   0.252   0.435
 3595TIP3    H132344   3.492   0.171   0.410
 3595TIP3    H232345   3.619   0.249   0.388
 3596TIP3   OH232346   1.308   5.033   1.131
 3596TIP3    H132347   1.356   5.032   1.214
 3596TIP3    H232348   1.247   5.106   1.138
 3597TIP3   OH232349   6.787   5.456   0.026
 3597TIP3    H132350   6.770   5.369   0.063
 3597TIP3    H232351   0.060   5.472   0.046
 3598TIP3   OH232352   5.264   4.620   7.747
 3598TIP3    H132353   5.203   4.558   7.788
 3598TIP3    H232354   5.209   4.679   7.697
 3599TIP3   OH232355   3.608   3.325   1.344
 3599TIP3    H132356   3.535   3.329   1.406
 3599TIP3    H232357   3.655   3.245   1.369
 3600TIP3   OH232358   0.740   4.215   7.235
 3600TIP3    H132359   0.705   4.165   7.160
 3600TIP3    H232360   0.775   4.295   7.196
 3601TIP3   OH232361   4.586   1.926   8.777
 3601TIP3    H132362   4.545   1.853   0.021
 3601TIP3    H232363   4.637   1.886   8.706
 3602TIP3   OH232364   2.282   2.944   8.437
 3602TIP3    H132365   2.360   2.891   8.449
 3602TIP3    H232366   2.228   2.895   8.376
 3603TIP3   OH232367   4.480   3.660   8.141
 3603TIP3    H132368   4.519   3.715   8.209
 3603TIP3    H232369   4.440   3.722   8.080
 3604TIP3   OH232370   6.317   2.416   0.060
 3604TIP3    H132371   6.342   2.460   8.780
 3604TIP3    H232372   6.374   2.454   0.127
 3605TIP3   OH232373   4.109   6.647   1.271
 3605TIP3    H132374   4.044   6.616   1.208
 3605TIP3    H232375   4.063   6.713   1.323
 3606TIP3   OH232376   6.789   0.382   2.486
 3606TIP3    H132377   6.799   0.419   2.573
 3606TIP3    H232378   0.041   0.420   2.435
 3607TIP3   OH232379   6.016   0.587   7.655
 3607TIP3    H132380   6.018   0.654   7.586
 3607TIP3    H232381   5.925   0.558   7.657
 3608TIP3   OH232382   1.452   2.857   7.555
 3608TIP3    H132383   1.368   2.813   7.562
 3608TIP3    H232384   1.483   2.865   7.645
 3609TIP3   OH232385   3.351   6.593   8.045
 3609TIP3    H132386   3.443   6.598   8.019
 3609TIP3    H232387   3.313   6.676   8.015
 3610TIP3   OH232388   5.516   1.283   6.620
 3610TIP3    H132389   5.518   1.377   6.604
 3610TIP3    H232390   5.460   1.248   6.551
 3611TIP3   OH232391   2.131   5.889   1.016
 3611TIP3    H132392   2.201   5.823   1.018
 3611TIP3    H232393   2.165   5.962   1.068
 3612TIP3   OH232394   0.056   1.592   1.311
 3612TIP3    H132395   6.794   1.598   1.263
 3612TIP3    H232396   0.058   1.502   1.344
 3613TIP3   OH232397   4.934   4.246   8.700
 3613TIP3    H132398   4.989   4.245   8.622
 3613TIP3    H232399   4.996   4.262   8.772
 3614TIP3   OH232400   6.628   3.599   1.868
 3614TIP3    H132401   6.612   3.638   1.783
 3614TIP3    H232402   6.716   3.561   1.861
 3615TIP3   OH232403   4.738   1.696   0.278
 3615TIP3    H132404   4.817   1.642   0.272
 3615TIP3    H232405   4.768   1.780   0.312
 3616TIP3   OH232406   3.605   3.286   0.362
 3616TIP3    H132407   3.679   3.226   0.354
 3616TIP3    H232408   3.604   3.335   0.280
 3617TIP3   OH232409   5.564   0.628   1.513
 3617TIP3    H132410   5.547   0.625   1.607
 3617TIP3    H232411   5.551   0.538   1.483
 3618TIP3   OH232412   4.852   1.940   7.833
 3618TIP3    H132413   4.819   1.916   7.746
 3618TIP3    H232414   4.916   2.009   7.816
 3619TIP3   OH232415   0.436   3.094   0.363
 3619TIP3    H132416   0.433   3.012   0.412
 3619TIP3    H232417   0.412   3.069   0.273
 3620TIP3   OH232418   5.138   4.244   8.502
 3620TIP3    H132419   5.218   4.292   8.524
 3620TIP3    H232420   5.159   4.153   8.523
 3621TIP3   OH232421   2.494   6.763   0.639
 3621TIP3    H132422   2.483   6.707   0.562
 3621TIP3    H232423   2.436   6.725   0.705
 3622TIP3   OH232424   1.449   6.591   7.496
 3622TIP3    H132425   1.370   6.563   7.451
 3622TIP3    H232426   1.464   6.681   7.465
 3623TIP3   OH232427   2.972   4.998   7.597
 3623TIP3    H132428   2.928   4.918   7.568
 3623TIP3    H232429   2.928   5.022   7.678
 3624TIP3   OH232430   2.268   5.000   0.043
 3624TIP3    H132431   2.228   4.966   0.123
 3624TIP3    H232432   2.309   4.924   0.002
 3625TIP3   OH232433   2.180   6.688   0.851
 3625TIP3    H132434   2.228   6.763   0.885
 3625TIP3    H232435   2.232   6.657   0.777
 3626TIP3   OH232436   2.790   3.398   7.133
 3626TIP3    H132437   2.770   3.323   7.077
 3626TIP3    H232438   2.854   3.448   7.083
 3627TIP3   OH232439   2.310   0.058   7.418
 3627TIP3    H132440   2.382   6.817   7.401
 3627TIP3    H232441   2.323   0.129   7.355
 3628TIP3   OH232442   5.920   0.760   7.430
 3628TIP3    H132443   5.880   0.715   7.355
 3628TIP3    H232444   5.873   0.843   7.436
 3629TIP3   OH232445   4.834   1.928   6.613
 3629TIP3    H132446   4.811   1.834   6.612
 3629TIP3    H232447   4.922   1.931   6.650
 3630TIP3   OH232448   3.796   4.826   8.518
 3630TIP3    H132449   3.737   4.901   8.524
 3630TIP3    H232450   3.744   4.759   8.472
 3631TIP3   OH232451   4.814   4.311   7.415
 3631TIP3    H132452   4.820   4.407   7.415
 3631TIP3    H232453   4.833   4.286   7.325
 3632TIP3   OH232454   2.535   2.496   1.218
 3632TIP3    H132455   2.524   2.459   1.306
 3632TIP3    H232456   2.500   2.584   1.225
 3633TIP3   OH232457   3.018   4.616   1.865
 3633TIP3    H132458   2.925   4.632   1.847
 3633TIP3    H232459   3.019   4.533   1.912
 3634TIP3   OH232460   5.790   2.222   8.595
 3634TIP3    H132461   5.884   2.209   8.597
 3634TIP3    H232462   5.770   2.248   8.506
 3635TIP3   OH232463   0.864   2.936   7.755
 3635TIP3    H132464   0.907   3.014   7.790
 3635TIP3    H232465   0.810   2.968   7.683
 3636TIP3   OH232466   6.796   6.158   6.600
 3636TIP3    H132467   6.732   6.170   6.529
 3636TIP3    H232468   6.776   6.071   6.635
 3637TIP3   OH232469   2.277   5.635   0.989
 3637TIP3    H132470   2.225   5.555   0.986
 3637TIP3    H232471   2.328   5.633   0.908
 3638TIP3   OH232472   3.723   3.690   1.470
 3638TIP3    H132473   3.742   3.783   1.486
 3638TIP3    H232474   3.702   3.685   1.377
 3639TIP3   OH232475   4.366   3.234   7.603
 3639TIP3    H132476   4.420   3.190   7.668
 3639TIP3    H232477   4.333   3.163   7.548
 3640TIP3   OH232478   0.141   5.086   1.031
 3640TIP3    H132479   0.085   5.081   1.109
 3640TIP3    H232480   0.146   5.180   1.011
 3641TIP3   OH232481   1.583   5.173   6.924
 3641TIP3    H132482   1.524   5.130   6.985
 3641TIP3    H232483   1.552   5.146   6.837
 3642TIP3   OH232484   6.793   4.839   8.587
 3642TIP3    H132485   6.799   4.927   8.625
 3642TIP3    H232486   6.708   4.837   8.545
 3643TIP3   OH232487   2.763   3.364   1.754
 3643TIP3    H132488   2.765   3.269   1.768
 3643TIP3    H232489   2.719   3.398   1.832
 3644TIP3   OH232490   5.700   3.120   8.670
 3644TIP3    H132491   5.726   3.202   8.628
 3644TIP3    H232492   5.683   3.144   8.761
 3645TIP3   OH232493   6.037   0.989   1.440
 3645TIP3    H132494   5.987   1.063   1.474
 3645TIP3    H232495   6.107   0.976   1.504
 3646TIP3   OH232496   0.277   2.570   6.974
 3646TIP3    H132497   0.327   2.493   6.946
 3646TIP3    H232498   0.325   2.603   7.050
 3647TIP3   OH232499   1.608   0.320   0.786
 3647TIP3    H132500   1.609   0.352   0.696
 3647TIP3    H232501   1.623   0.226   0.778
 3648TIP3   OH232502   6.440   1.239   2.614
 3648TIP3    H132503   6.349   1.267   2.605
 3648TIP3    H232504   6.491   1.315   2.586
 3649TIP3   OH232505   3.511   3.951   1.105
 3649TIP3    H132506   3.560   4.008   1.045
 3649TIP3    H232507   3.569   3.941   1.181
 3650TIP3   OH232508   1.892   4.498   8.398
 3650TIP3    H132509   1.965   4.544   8.438
 3650TIP3    H232510   1.925   4.409   8.382
 3651TIP3   OH232511   3.505   0.545   1.885
 3651TIP3    H132512   3.525   0.533   1.978
 3651TIP3    H232513   3.463   0.631   1.881
 3652TIP3   OH232514   3.745   1.736   7.654
 3652TIP3    H132515   3.712   1.652   7.620
 3652TIP3    H232516   3.675   1.767   7.712
 3653TIP3   OH232517   0.593   5.421   1.158
 3653TIP3    H132518   0.563   5.370   1.083
 3653TIP3    H232519   0.544   5.503   1.153
 3654TIP3   OH232520   1.820   4.178   8.475
 3654TIP3    H132521   1.755   4.242   8.502
 3654TIP3    H232522   1.855   4.211   8.392
 3655TIP3   OH232523   5.026   6.582   8.380
 3655TIP3    H132524   5.005   6.599   8.288
 3655TIP3    H232525   5.122   6.576   8.382
 3656TIP3   OH232526   4.241   2.257   7.595
 3656TIP3    H132527   4.208   2.344   7.615
 3656TIP3    H232528   4.312   2.243   7.657
 3657TIP3   OH232529   6.764   3.669   8.332
 3657TIP3    H132530   0.015   3.616   8.370
 3657TIP3    H232531   6.738   3.727   8.403
 3658TIP3   OH232532   3.378   1.549   8.140
 3658TIP3    H132533   3.453   1.593   8.098
 3658TIP3    H232534   3.302   1.596   8.108
 3659TIP3   OH232535   4.046   1.991   7.346
 3659TIP3    H132536   3.974   1.936   7.378
 3659TIP3    H232537   4.015   2.022   7.261
 3660TIP3   OH232538   1.998   4.454   1.016
 3660TIP3    H132539   2.023   4.361   1.013
 3660TIP3    H232540   1.914   4.457   0.971
 3661TIP3   OH232541   1.542   2.738   6.878
 3661TIP3    H132542   1.531   2.832   6.896
 3661TIP3    H232543   1.464   2.714   6.828
 3662TIP3   OH232544   4.538   2.598   7.831
 3662TIP3    H132545   4.467   2.661   7.846
 3662TIP3    H232546   4.592   2.640   7.764
 3663TIP3   OH232547   1.180   6.586   1.963
 3663TIP3    H132548   1.113   6.650   1.939
 3663TIP3    H232549   1.166   6.571   2.057
 3664TIP3   OH232550   6.644   1.793   6.726
 3664TIP3    H132551   6.716   1.855   6.725
 3664TIP3    H232552   6.580   1.829   6.664
 3665TIP3   OH232553   5.645   0.187   0.097
 3665TIP3    H132554   5.631   0.268   0.147
 3665TIP3    H232555   5.731   0.157   0.125
 3666TIP3   OH232556   1.160   0.355   0.529
 3666TIP3    H132557   1.126   0.315   0.609
 3666TIP3    H232558   1.206   0.433   0.559
 3667TIP3   OH232559   3.257   5.170   0.182
 3667TIP3    H132560   3.276   5.077   0.195
 3667TIP3    H232561   3.295   5.214   0.258
 3668TIP3   OH232562   5.162   0.969   1.822
 3668TIP3    H132563   5.239   0.978   1.878
 3668TIP3    H232564   5.103   1.038   1.852
 3669TIP3   OH232565   6.327   6.399   7.899
 3669TIP3    H132566   6.404   6.446   7.931
 3669TIP3    H232567   6.259   6.418   7.963
 3670TIP3   OH232568   2.497   2.746   8.481
 3670TIP3    H132569   2.560   2.778   8.546
 3670TIP3    H232570   2.523   2.655   8.467
 3671TIP3   OH232571   3.678   6.474   0.722
 3671TIP3    H132572   3.596   6.513   0.692
 3671TIP3    H232573   3.656   6.433   0.805
 3672TIP3   OH232574   0.859   5.341   1.207
 3672TIP3    H132575   0.870   5.249   1.184
 3672TIP3    H232576   0.765   5.351   1.222
 3673TIP3   OH232577   5.477   2.244   1.386
 3673TIP3    H132578   5.563   2.223   1.424
 3673TIP3    H232579   5.482   2.214   1.295
 3674TIP3   OH232580   4.942   6.435   0.766
 3674TIP3    H132581   4.863   6.475   0.730
 3674TIP3    H232582   4.917   6.407   0.854
 3675TIP3   OH232583   6.591   5.451   1.503
 3675TIP3    H132584   6.617   5.541   1.521
 3675TIP3    H232585   6.560   5.418   1.587
 3676TIP3   OH232586   3.685   2.769   2.095
 3676TIP3    H132587   3.718   2.848   2.051
 3676TIP3    H232588   3.642   2.719   2.026
 3677TIP3   OH232589   3.829   2.297   7.524
 3677TIP3    H132590   3.743   2.333   7.500
 3677TIP3    H232591   3.866   2.265   7.442
 3678TIP3   OH232592   0.669   6.322   0.815
 3678TIP3    H132593   0.738   6.382   0.844
 3678TIP3    H232594   0.603   6.325   0.883
 3679TIP3   OH232595   2.706   3.256   7.666
 3679TIP3    H132596   2.706   3.268   7.571
 3679TIP3    H232597   2.776   3.313   7.698
 3680TIP3   OH232598   4.482   6.422   0.296
 3680TIP3    H132599   4.410   6.360   0.289
 3680TIP3    H232600   4.483   6.467   0.212
 3681TIP3   OH232601   6.393   3.451   0.796
 3681TIP3    H132602   6.308   3.456   0.752
 3681TIP3    H232603   6.411   3.357   0.802
 3682TIP3   OH232604   4.752   2.400   1.767
 3682TIP3    H132605   4.767   2.397   1.673
 3682TIP3    H232606   4.715   2.314   1.788
 3683TIP3   OH232607   1.180   6.697   1.226
 3683TIP3    H132608   1.262   6.742   1.203
 3683TIP3    H232609   1.187   6.612   1.182
 3684TIP3   OH232610   2.745   4.841   7.937
 3684TIP3    H132611   2.708   4.832   7.849
 3684TIP3    H232612   2.669   4.840   7.995
 3685TIP3   OH232613   4.258   4.284   7.561
 3685TIP3    H132614   4.256   4.218   7.492
 3685TIP3    H232615   4.341   4.331   7.546
 3686TIP3   OH232616   2.888   0.799   1.142
 3686TIP3    H132617   2.944   0.760   1.209
 3686TIP3    H232618   2.822   0.733   1.123
 3687TIP3   OH232619   4.225   6.415   1.404
 3687TIP3    H132620   4.150   6.414   1.345
 3687TIP3    H232621   4.258   6.325   1.403
 3688TIP3   OH232622   5.080   3.756   6.912
 3688TIP3    H132623   4.997   3.736   6.870
 3688TIP3    H232624   5.076   3.710   6.996
 3689TIP3   OH232625   6.590   4.608   8.795
 3689TIP3    H132626   6.534   4.577   8.723
 3689TIP3    H232627   6.650   4.536   0.012
 3690TIP3   OH232628   6.635   1.917   8.687
 3690TIP3    H132629   6.580   1.868   8.626
 3690TIP3    H232630   6.573   1.958   8.747
 3691TIP3   OH232631   0.037   5.802   2.095
 3691TIP3    H132632   0.094   5.804   2.171
 3691TIP3    H232633   6.819   5.713   2.095
 3692TIP3   OH232634   4.039   6.080   6.313
 3692TIP3    H132635   4.128   6.045   6.324
 3692TIP3    H232636   4.052   6.165   6.271
 3693TIP3   OH232637   5.996   0.977   6.984
 3693TIP3    H132638   6.038   1.061   7.004
 3693TIP3    H232639   5.902   0.997   6.984
 3694TIP3   OH232640   4.730   0.928   0.033
 3694TIP3    H132641   4.821   0.947   0.054
 3694TIP3    H232642   4.734   0.868   8.759
 3695TIP3   OH232643   5.854   0.676   0.658
 3695TIP3    H132644   5.827   0.747   0.717
 3695TIP3    H232645   5.786   0.674   0.591
 3696TIP3   OH232646   4.191   3.593   7.230
 3696TIP3    H132647   4.237   3.666   7.188
 3696TIP3    H232648   4.200   3.609   7.323
 3697TIP3   OH232649   0.532   4.527   8.290
 3697TIP3    H132650   0.596   4.457   8.299
 3697TIP3    H232651   0.502   4.521   8.199
 3698TIP3   OH232652   1.761   6.463   8.465
 3698TIP3    H132653   1.840   6.516   8.472
 3698TIP3    H232654   1.749   6.451   8.371
 3699TIP3   OH232655   4.258   1.685   1.464
 3699TIP3    H132656   4.164   1.697   1.480
 3699TIP3    H232657   4.284   1.763   1.415
 3700TIP3   OH232658   1.536   0.818   0.010
 3700TIP3    H132659   1.455   0.858   8.781
 3700TIP3    H232660   1.520   0.723   0.005
 3701TIP3   OH232661   6.791   4.889   0.897
 3701TIP3    H132662   6.814   4.925   0.811
 3701TIP3    H232663   0.015   4.945   0.960
 3702TIP3   OH232664   3.027   2.233   0.357
 3702TIP3    H132665   3.054   2.324   0.348
 3702TIP3    H232666   3.107   2.187   0.385
 3703TIP3   OH232667   6.593   0.757   7.591
 3703TIP3    H132668   6.608   0.710   7.509
 3703TIP3    H232669   6.521   0.709   7.633
 3704TIP3   OH232670   2.772   3.589   7.976
 3704TIP3    H132671   2.693   3.625   7.935
 3704TIP3    H232672   2.771   3.624   8.065
 3705TIP3   OH232673   2.825   3.440   6.248
 3705TIP3    H132674   2.807   3.358   6.293
 3705TIP3    H232675   2.886   3.416   6.178
 3706TIP3   OH232676   5.247   6.261   1.913
 3706TIP3    H132677   5.268   6.167   1.915
 3706TIP3    H232678   5.166   6.266   1.862
 3707TIP3   OH232679   6.438   6.264   8.276
 3707TIP3    H132680   6.463   6.173   8.258
 3707TIP3    H232681   6.520   6.308   8.296
 3708TIP3   OH232682   5.944   0.977   2.059
 3708TIP3    H132683   5.955   0.933   2.143
 3708TIP3    H232684   5.877   0.925   2.013
 3709TIP3   OH232685   1.342   3.539   0.416
 3709TIP3    H132686   1.343   3.571   0.507
 3709TIP3    H232687   1.280   3.596   0.372
 3710TIP3   OH232688   2.031   0.492   0.415
 3710TIP3    H132689   2.044   0.587   0.423
 3710TIP3    H232690   2.079   0.455   0.490
 3711TIP3   OH232691   3.076   1.665   1.462
 3711TIP3    H132692   3.044   1.754   1.445
 3711TIP3    H232693   2.997   1.611   1.462
 3712TIP3   OH232694   3.776   0.760   7.707
 3712TIP3    H132695   3.758   0.695   7.640
 3712TIP3    H232696   3.695   0.810   7.716
 3713TIP3   OH232697   6.717   3.299   1.879
 3713TIP3    H132698   6.716   3.272   1.971
 3713TIP3    H232699   6.625   3.317   1.859
 3714TIP3   OH232700   1.898   1.835   8.558
 3714TIP3    H132701   1.809   1.856   8.585
 3714TIP3    H232702   1.911   1.883   8.476
 3715TIP3   OH232703   4.674   2.534   0.003
 3715TIP3    H132704   4.747   2.519   8.744
 3715TIP3    H232705   4.597   2.537   8.745
 3716TIP3   OH232706   3.593   3.628   8.541
 3716TIP3    H132707   3.523   3.672   8.492
 3716TIP3    H232708   3.622   3.693   8.606
 3717TIP3   OH232709   6.058   4.837   0.243
 3717TIP3    H132710   6.062   4.810   0.152
 3717TIP3    H232711   6.122   4.780   0.287
 3718TIP3   OH232712   3.749   2.447   0.382
 3718TIP3    H132713   3.697   2.382   0.335
 3718TIP3    H232714   3.715   2.446   0.471
 3719TIP3   OH232715   0.282   0.039   1.346
 3719TIP3    H132716   0.194   0.038   1.382
 3719TIP3    H232717   0.338   0.004   1.416
 3720TIP3   OH232718   2.745   2.136   0.632
 3720TIP3    H132719   2.716   2.218   0.673
 3720TIP3    H232720   2.727   2.148   0.539
 3721TIP3   OH232721   1.748   1.879   1.067
 3721TIP3    H132722   1.729   1.839   1.152
 3721TIP3    H232723   1.685   1.951   1.060
 3722TIP3   OH232724   3.937   1.426   1.416
 3722TIP3    H132725   3.961   1.408   1.325
 3722TIP3    H232726   3.892   1.346   1.445
 3723TIP3   OH232727   2.457   4.075   7.546
 3723TIP3    H132728   2.518   4.106   7.613
 3723TIP3    H232729   2.502   4.003   7.502
 3724TIP3   OH232730   0.826   0.004   6.644
 3724TIP3    H132731   0.808   0.077   6.704
 3724TIP3    H232732   0.833   6.747   6.702
 3725TIP3   OH232733   2.900   5.101   0.108
 3725TIP3    H132734   2.951   5.028   0.144
 3725TIP3    H232735   2.908   5.170   0.174
 3726TIP3   OH232736   0.911   6.217   7.584
 3726TIP3    H132737   0.957   6.279   7.641
 3726TIP3    H232738   0.978   6.185   7.524
 3727TIP3   OH232739   6.165   3.778   0.487
 3727TIP3    H132740   6.149   3.749   0.577
 3727TIP3    H232741   6.237   3.722   0.457
 3728TIP3   OH232742   3.611   4.601   8.469
 3728TIP3    H132743   3.538   4.614   8.530
 3728TIP3    H232744   3.570   4.567   8.389
 3729TIP3   OH232745   1.258   1.206   8.090
 3729TIP3    H132746   1.265   1.300   8.110
 3729TIP3    H232747   1.262   1.164   8.175
 3730TIP3   OH232748   2.886   6.602   1.237
 3730TIP3    H132749   2.965   6.604   1.182
 3730TIP3    H232750   2.910   6.654   1.314
 3731TIP3   OH232751   4.329   1.276   0.528
 3731TIP3    H132752   4.383   1.300   0.453
 3731TIP3    H232753   4.241   1.307   0.506
 3732TIP3   OH232754   4.667   2.456   2.893
 3732TIP3    H132755   4.599   2.455   2.825
 3732TIP3    H232756   4.661   2.370   2.934
 3733TIP3   OH232757   4.627   3.568   7.723
 3733TIP3    H132758   4.597   3.658   7.732
 3733TIP3    H232759   4.716   3.575   7.690
 3734TIP3   OH232760   2.879   6.734   1.459
 3734TIP3    H132761   2.941   6.753   1.529
 3734TIP3    H232762   2.803   6.697   1.503
 3735TIP3   OH232763   0.192   2.383   6.369
 3735TIP3    H132764   0.252   2.323   6.413
 3735TIP3    H232765   0.106   2.362   6.405
 3736TIP3   OH232766   0.986   4.002   1.410
 3736TIP3    H132767   0.998   3.978   1.502
 3736TIP3    H232768   0.946   4.089   1.412
 3737TIP3   OH232769   1.773   2.674   8.700
 3737TIP3    H132770   1.819   2.592   8.685
 3737TIP3    H232771   1.842   2.739   8.714
 3738TIP3   OH232772   6.137   0.673   0.055
 3738TIP3    H132773   6.084   0.648   0.130
 3738TIP3    H232774   6.075   0.676   8.782
 3739TIP3   OH232775   6.195   0.059   0.392
 3739TIP3    H132776   6.280   0.103   0.389
 3739TIP3    H232777   6.176   0.039   0.300
 3740TIP3   OH232778   1.413   0.778   1.471
 3740TIP3    H132779   1.330   0.819   1.446
 3740TIP3    H232780   1.388   0.690   1.501
 3741TIP3   OH232781   0.164   5.848   1.150
 3741TIP3    H132782   0.121   5.932   1.134
 3741TIP3    H232783   0.213   5.830   1.069
 3742TIP3   OH232784   3.626   3.361   7.676
 3742TIP3    H132785   3.656   3.289   7.621
 3742TIP3    H232786   3.702   3.417   7.686
 3743TIP3   OH232787   6.732   4.377   7.849
 3743TIP3    H132788   6.722   4.470   7.869
 3743TIP3    H232789   6.669   4.361   7.779
 3744TIP3   OH232790   4.793   2.449   7.658
 3744TIP3    H132791   4.763   2.539   7.663
 3744TIP3    H232792   4.755   2.415   7.577
 3745TIP3   OH232793   2.217   2.575   6.919
 3745TIP3    H132794   2.183   2.563   7.008
 3745TIP3    H232795   2.143   2.612   6.870
 3746TIP3   OH232796   1.611   3.849   1.580
 3746TIP3    H132797   1.533   3.880   1.533
 3746TIP3    H232798   1.620   3.909   1.654
 3747TIP3   OH232799   0.386   3.028   0.856
 3747TIP3    H132800   0.420   3.071   0.935
 3747TIP3    H232801   0.338   3.097   0.811
 3748TIP3   OH232802   5.314   3.217   7.375
 3748TIP3    H132803   5.365   3.199   7.296
 3748TIP3    H232804   5.375   3.260   7.434
 3749TIP3   OH232805   2.162   2.427   6.432
 3749TIP3    H132806   2.119   2.507   6.464
 3749TIP3    H232807   2.121   2.410   6.347
 3750TIP3   OH232808   6.263   4.082   7.239
 3750TIP3    H132809   6.292   4.081   7.148
 3750TIP3    H232810   6.203   4.157   7.244
 3751TIP3   OH232811   4.432   2.512   8.648
 3751TIP3    H132812   4.467   2.423   8.651
 3751TIP3    H232813   4.378   2.514   8.569
 3752TIP3   OH232814   4.367   4.854   2.336
 3752TIP3    H132815   4.318   4.773   2.351
 3752TIP3    H232816   4.410   4.840   2.252
 3753TIP3   OH232817   1.410   1.221   0.872
 3753TIP3    H132818   1.432   1.166   0.797
 3753TIP3    H232819   1.455   1.304   0.856
 3754TIP3   OH232820   6.373   0.680   7.934
 3754TIP3    H132821   6.362   0.623   7.857
 3754TIP3    H232822   6.288   0.678   7.977
 3755TIP3   OH232823   6.219   6.383   7.517
 3755TIP3    H132824   6.198   6.300   7.473
 3755TIP3    H232825   6.314   6.383   7.524
 3756TIP3   OH232826   2.057   1.898   0.512
 3756TIP3    H132827   1.986   1.835   0.500
 3756TIP3    H232828   2.090   1.913   0.424
 3757TIP3   OH232829   1.001   6.796   2.286
 3757TIP3    H132830   0.965   6.786   2.198
 3757TIP3    H232831   0.937   0.030   2.333
 3758TIP3   OH232832   3.055   2.931   0.342
 3758TIP3    H132833   3.124   2.937   0.408
 3758TIP3    H232834   2.989   2.873   0.381
 3759TIP3   OH232835   2.496   1.323   8.146
 3759TIP3    H132836   2.576   1.350   8.100
 3759TIP3    H232837   2.528   1.279   8.225
 3760TIP3   OH232838   2.853   0.263   1.716
 3760TIP3    H132839   2.882   0.198   1.781
 3760TIP3    H232840   2.908   0.246   1.639
 3761TIP3   OH232841   3.216   0.639   7.921
 3761TIP3    H132842   3.264   0.557   7.925
 3761TIP3    H232843   3.281   0.706   7.942
 3762TIP3   OH232844   5.261   4.760   8.171
 3762TIP3    H132845   5.243   4.698   8.101
 3762TIP3    H232846   5.310   4.830   8.129
 3763TIP3   OH232847   6.169   1.886   1.282
 3763TIP3    H132848   6.201   1.975   1.265
 3763TIP3    H232849   6.135   1.857   1.198
 3764TIP3   OH232850   6.046   6.196   1.040
 3764TIP3    H132851   6.136   6.228   1.047
 3764TIP3    H232852   6.055   6.101   1.034
 3765TIP3   OH232853   0.845   3.891   1.197
 3765TIP3    H132854   0.883   3.915   1.281
 3765TIP3    H232855   0.756   3.862   1.217
 3766TIP3   OH232856   2.159   4.861   0.239
 3766TIP3    H132857   2.112   4.874   0.321
 3766TIP3    H232858   2.210   4.781   0.253
 3767TIP3   OH232859   4.804   3.670   1.996
 3767TIP3    H132860   4.892   3.687   2.029
 3767TIP3    H232861   4.783   3.747   1.942
 3768TIP3   OH232862   2.327   2.292   7.375
 3768TIP3    H132863   2.352   2.209   7.417
 3768TIP3    H232864   2.235   2.303   7.398
 3769TIP3   OH232865   3.822   4.809   7.305
 3769TIP3    H132866   3.865   4.834   7.387
 3769TIP3    H232867   3.730   4.832   7.317
 3770TIP3   OH232868   5.276   2.277   2.227
 3770TIP3    H132869   5.212   2.220   2.270
 3770TIP3    H232870   5.312   2.330   2.298
 3771TIP3   OH232871   6.815   0.435   6.996
 3771TIP3    H132872   6.809   0.529   6.979
 3771TIP3    H232873   6.803   0.394   6.910
 3772TIP3   OH232874   6.416   5.073   6.966
 3772TIP3    H132875   6.454   5.153   6.928
 3772TIP3    H232876   6.370   5.104   7.044
 3773TIP3   OH232877   0.489   5.417   1.434
 3773TIP3    H132878   0.394   5.403   1.433
 3773TIP3    H232879   0.514   5.423   1.342
 3774TIP3   OH232880   1.485   3.945   1.326
 3774TIP3    H132881   1.390   3.946   1.312
 3774TIP3    H232882   1.503   4.028   1.371
 3775TIP3   OH232883   2.925   6.069   7.368
 3775TIP3    H132884   3.009   6.106   7.342
 3775TIP3    H232885   2.877   6.059   7.285
 3776TIP3   OH232886   2.423   3.405   8.625
 3776TIP3    H132887   2.440   3.311   8.623
 3776TIP3    H232888   2.395   3.427   8.537
 3777TIP3   OH232889   6.666   3.876   0.086
 3777TIP3    H132890   6.755   3.894   0.115
 3777TIP3    H232891   6.646   3.789   0.119
 3778TIP3   OH232892   6.621   1.050   1.956
 3778TIP3    H132893   6.535   1.071   1.991
 3778TIP3    H232894   6.657   0.985   2.016
 3779TIP3   OH232895   5.261   2.392   6.045
 3779TIP3    H132896   5.196   2.350   6.102
 3779TIP3    H232897   5.209   2.445   5.984
 3780TIP3   OH232898   0.707   2.171   0.942
 3780TIP3    H132899   0.617   2.204   0.937
 3780TIP3    H232900   0.707   2.113   1.019
 3781TIP3   OH232901   3.114   4.908   1.346
 3781TIP3    H132902   3.039   4.862   1.308
 3781TIP3    H232903   3.191   4.866   1.307
 3782TIP3   OH232904   3.767   6.279   0.562
 3782TIP3    H132905   3.818   6.331   0.500
 3782TIP3    H232906   3.731   6.343   0.624
 3783TIP3   OH232907   5.622   4.460   7.288
 3783TIP3    H132908   5.637   4.496   7.200
 3783TIP3    H232909   5.546   4.509   7.321
 3784TIP3   OH232910   2.937   2.887   7.127
 3784TIP3    H132911   2.997   2.886   7.052
 3784TIP3    H232912   2.920   2.795   7.145
 3785TIP3   OH232913   0.522   5.888   8.252
 3785TIP3    H132914   0.459   5.828   8.213
 3785TIP3    H232915   0.536   5.956   8.186
 3786TIP3   OH232916   2.517   1.690   6.936
 3786TIP3    H132917   2.536   1.643   6.855
 3786TIP3    H232918   2.574   1.649   7.002
 3787TIP3   OH232919   1.100   0.585   7.826
 3787TIP3    H132920   1.191   0.564   7.846
 3787TIP3    H232921   1.063   0.615   7.909
 3788TIP3   OH232922   5.904   6.185   0.154
 3788TIP3    H132923   5.971   6.166   0.221
 3788TIP3    H232924   5.836   6.234   0.201
 3789TIP3   OH232925   4.146   3.564   0.840
 3789TIP3    H132926   4.103   3.514   0.910
 3789TIP3    H232927   4.125   3.516   0.760
 3790TIP3   OH232928   5.220   2.786   6.853
 3790TIP3    H132929   5.195   2.752   6.767
 3790TIP3    H232930   5.300   2.836   6.836
 3791TIP3   OH232931   2.472   1.904   0.489
 3791TIP3    H132932   2.526   1.923   0.413
 3791TIP3    H232933   2.530   1.913   0.564
 3792TIP3   OH232934   2.159   1.269   7.848
 3792TIP3    H132935   2.068   1.295   7.861
 3792TIP3    H232936   2.209   1.348   7.867
 3793TIP3   OH232937   4.882   4.395   7.887
 3793TIP3    H132938   4.830   4.390   7.807
 3793TIP3    H232939   4.834   4.342   7.951
 3794TIP3   OH232940   5.847   5.719   1.036
 3794TIP3    H132941   5.791   5.742   0.962
 3794TIP3    H232942   5.886   5.635   1.012
 3795TIP3   OH232943   3.381   3.799   0.082
 3795TIP3    H132944   3.336   3.723   0.044
 3795TIP3    H232945   3.416   3.846   0.006
 3796TIP3   OH232946   3.169   5.135   1.209
 3796TIP3    H132947   3.168   5.069   1.277
 3796TIP3    H232948   3.227   5.204   1.242
 3797TIP3   OH232949   6.113   6.712   7.964
 3797TIP3    H132950   6.127   6.667   8.048
 3797TIP3    H232951   6.121   6.643   7.899
 3798TIP3   OH232952   1.557   2.349   0.289
 3798TIP3    H132953   1.498   2.289   0.336
 3798TIP3    H232954   1.644   2.327   0.322
 3799TIP3   OH232955   0.659   2.380   7.350
 3799TIP3    H132956   0.737   2.352   7.302
 3799TIP3    H232957   0.586   2.357   7.293
 3800TIP3   OH232958   5.749   2.883   7.376
 3800TIP3    H132959   5.801   2.804   7.359
 3800TIP3    H232960   5.812   2.955   7.373
 3801TIP3   OH232961   1.432   1.815   8.205
 3801TIP3    H132962   1.425   1.721   8.225
 3801TIP3    H232963   1.343   1.841   8.183
 3802TIP3   OH232964   3.366   4.962   7.781
 3802TIP3    H132965   3.285   4.913   7.785
 3802TIP3    H232966   3.411   4.942   7.864
 3803TIP3   OH232967   1.208   4.544   1.099
 3803TIP3    H132968   1.197   4.638   1.111
 3803TIP3    H232969   1.300   4.533   1.076
 3804TIP3   OH232970   6.431   3.275   7.906
 3804TIP3    H132971   6.513   3.301   7.865
 3804TIP3    H232972   6.414   3.344   7.971
 3805TIP3   OH232973   3.005   2.586   0.089
 3805TIP3    H132974   2.913   2.564   0.072
 3805TIP3    H232975   3.025   2.653   0.023
 3806TIP3   OH232976   3.031   6.338   8.204
 3806TIP3    H132977   3.079   6.397   8.262
 3806TIP3    H232978   3.029   6.384   8.120
 3807TIP3   OH232979   6.199   3.078   0.951
 3807TIP3    H132980   6.220   3.065   0.859
 3807TIP3    H232981   6.230   3.166   0.971
 3808TIP3   OH232982   3.868   1.291   8.595
 3808TIP3    H132983   3.875   1.383   8.620
 3808TIP3    H232984   3.774   1.275   8.590
 3809TIP3   OH232985   5.492   3.293   7.994
 3809TIP3    H132986   5.562   3.228   7.998
 3809TIP3    H232987   5.421   3.255   8.047
 3810TIP3   OH232988   4.631   3.983   7.369
 3810TIP3    H132989   4.604   3.909   7.315
 3810TIP3    H232990   4.718   3.958   7.401
 3811TIP3   OH232991   4.576   4.273   8.590
 3811TIP3    H132992   4.495   4.235   8.625
 3811TIP3    H232993   4.594   4.220   8.512
 3812TIP3   OH232994   3.546   0.303   0.744
 3812TIP3    H132995   3.586   0.265   0.666
 3812TIP3    H232996   3.530   0.395   0.722
 3813TIP3   OH232997   5.411   4.392   8.485
 3813TIP3    H132998   5.453   4.418   8.403
 3813TIP3    H232999   5.400   4.474   8.534
 3814TIP3   OH233000   0.235   4.877   2.122
 3814TIP3    H133001   0.314   4.908   2.165
 3814TIP3    H233002   0.174   4.952   2.128
 3815TIP3   OH233003   5.043   4.440   0.688
 3815TIP3    H133004   5.019   4.359   0.733
 3815TIP3    H233005   4.991   4.508   0.731
 3816TIP3   OH233006   1.836   6.469   0.345
 3816TIP3    H133007   1.915   6.418   0.325
 3816TIP3    H233008   1.860   6.559   0.327
 3817TIP3   OH233009   5.705   1.257   6.805
 3817TIP3    H133010   5.640   1.257   6.734
 3817TIP3    H233011   5.778   1.308   6.771
 3818TIP3   OH233012   6.022   2.736   1.697
 3818TIP3    H133013   6.105   2.725   1.743
 3818TIP3    H233014   5.955   2.720   1.764
 3819TIP3   OH233015   0.614   0.262   2.031
 3819TIP3    H133016   0.543   0.277   2.093
 3819TIP3    H233017   0.694   0.278   2.082
 3820TIP3   OH233018   4.049   4.557   8.127
 3820TIP3    H133019   3.994   4.478   8.125
 3820TIP3    H233020   4.120   4.535   8.186
 3821TIP3   OH233021   2.358   0.452   0.009
 3821TIP3    H133022   2.273   0.489   8.786
 3821TIP3    H233023   2.388   0.408   8.730
 3822TIP3   OH233024   3.800   6.141   7.107
 3822TIP3    H133025   3.804   6.059   7.157
 3822TIP3    H233026   3.743   6.121   7.032
 3823TIP3   OH233027   6.535   1.304   7.818
 3823TIP3    H133028   6.543   1.290   7.913
 3823TIP3    H233029   6.479   1.232   7.788
 3824TIP3   OH233030   1.757   4.484   0.183
 3824TIP3    H133031   1.803   4.535   0.250
 3824TIP3    H233032   1.792   4.396   0.191
 3825TIP3   OH233033   3.822   2.353   8.135
 3825TIP3    H133034   3.869   2.281   8.092
 3825TIP3    H233035   3.825   2.332   8.228
 3826TIP3   OH233036   1.998   4.635   8.751
 3826TIP3    H133037   1.912   4.677   8.756
 3826TIP3    H233038   1.994   4.564   0.014
 3827TIP3   OH233039   2.182   3.425   2.033
 3827TIP3    H133040   2.267   3.383   2.049
 3827TIP3    H233041   2.198   3.517   2.051
 3828TIP3   OH233042   3.594   1.209   1.955
 3828TIP3    H133043   3.601   1.117   1.929
 3828TIP3    H233044   3.503   1.232   1.940
 3829TIP3   OH233045   3.780   3.537   8.779
 3829TIP3    H133046   3.837   3.541   0.055
 3829TIP3    H233047   3.840   3.527   8.705
 3830TIP3   OH233048   6.341   4.459   1.157
 3830TIP3    H133049   6.401   4.385   1.149
 3830TIP3    H233050   6.319   4.462   1.250
 3831TIP3   OH233051   0.998   2.130   0.425
 3831TIP3    H133052   0.905   2.107   0.426
 3831TIP3    H233053   1.008   2.186   0.349
 3832TIP3   OH233054   5.706   3.127   1.209
 3832TIP3    H133055   5.665   3.210   1.186
 3832TIP3    H233056   5.759   3.104   1.133
 3833TIP3   OH233057   6.250   0.649   0.617
 3833TIP3    H133058   6.345   0.648   0.610
 3833TIP3    H233059   6.220   0.686   0.534
 3834TIP3   OH233060   5.704   0.240   6.583
 3834TIP3    H133061   5.730   0.326   6.553
 3834TIP3    H233062   5.775   0.182   6.556
 3835TIP3   OH233063   5.661   5.197   6.916
 3835TIP3    H133064   5.634   5.112   6.882
 3835TIP3    H233065   5.750   5.184   6.948
 3836TIP3   OH233066   6.595   0.930   8.207
 3836TIP3    H133067   6.603   0.846   8.253
 3836TIP3    H233068   6.504   0.932   8.178
 3837TIP3   OH233069   2.296   0.914   1.254
 3837TIP3    H133070   2.327   0.996   1.215
 3837TIP3    H233071   2.223   0.887   1.198
 3838TIP3   OH233072   1.947   5.425   7.197
 3838TIP3    H133073   2.000   5.497   7.231
 3838TIP3    H233074   1.991   5.346   7.228
 3839TIP3   OH233075   1.473   1.833   0.786
 3839TIP3    H133076   1.509   1.774   0.720
 3839TIP3    H233077   1.388   1.859   0.751
 3840TIP3   OH233078   2.978   0.699   7.787
 3840TIP3    H133079   2.983   0.614   7.742
 3840TIP3    H233080   3.056   0.702   7.841
 3841TIP3   OH233081   5.243   3.021   0.718
 3841TIP3    H133082   5.239   2.962   0.642
 3841TIP3    H233083   5.186   2.980   0.783
 3842TIP3   OH233084   3.825   0.232   7.608
 3842TIP3    H133085   3.841   0.161   7.671
 3842TIP3    H233086   3.826   0.189   7.523
 3843TIP3   OH233087   6.761   3.472   0.305
 3843TIP3    H133088   6.778   3.381   0.278
 3843TIP3    H233089   0.024   3.501   0.342
 3844TIP3   OH233090   1.086   3.535   6.570
 3844TIP3    H133091   1.038   3.490   6.501
 3844TIP3    H233092   1.093   3.625   6.540
 3845TIP3   OH233093   6.604   2.452   0.018
 3845TIP3    H133094   6.672   2.501   8.772
 3845TIP3    H233095   6.621   2.361   8.797
 3846TIP3   OH233096   3.426   2.615   7.336
 3846TIP3    H133097   3.360   2.658   7.282
 3846TIP3    H233098   3.487   2.577   7.274
 3847TIP3   OH233099   2.946   6.733   1.966
 3847TIP3    H133100   2.954   6.747   1.871
 3847TIP3    H233101   2.954   6.638   1.977
 3848TIP3   OH233102   4.097   5.084   2.118
 3848TIP3    H133103   4.016   5.072   2.168
 3848TIP3    H233104   4.097   5.011   2.056
 3849TIP3   OH233105   3.519   5.265   1.178
 3849TIP3    H133106   3.500   5.357   1.161
 3849TIP3    H233107   3.574   5.266   1.256
 3850TIP3   OH233108   0.820   2.944   1.611
 3850TIP3    H133109   0.784   2.968   1.696
 3850TIP3    H233110   0.889   3.009   1.595
 3851TIP3   OH233111   0.480   0.248   8.055
 3851TIP3    H133112   0.561   0.233   8.103
 3851TIP3    H233113   0.506   0.251   7.963
 3852TIP3   OH233114   4.299   4.680   7.546
 3852TIP3    H133115   4.212   4.718   7.562
 3852TIP3    H233116   4.359   4.754   7.559
 3853TIP3   OH233117   2.713   3.900   8.795
 3853TIP3    H133118   2.620   3.884   8.778
 3853TIP3    H233119   2.735   3.841   0.066
 3854TIP3   OH233120   0.133   5.541   7.768
 3854TIP3    H133121   0.201   5.607   7.762
 3854TIP3    H233122   0.126   5.523   7.862
 3855TIP3   OH233123   6.683   4.958   7.915
 3855TIP3    H133124   6.606   4.950   7.972
 3855TIP3    H233125   6.650   5.001   7.836
 3856TIP3   OH233126   0.552   0.602   1.892
 3856TIP3    H133127   0.616   0.618   1.822
 3856TIP3    H233128   0.603   0.608   1.973
 3857TIP3   OH233129   3.615   5.063   0.718
 3857TIP3    H133130   3.570   5.041   0.800
 3857TIP3    H233131   3.657   4.982   0.691
 3858TIP3   OH233132   2.816   1.587   1.375
 3858TIP3    H133133   2.808   1.644   1.298
 3858TIP3    H233134   2.734   1.601   1.423
 3859TIP3   OH233135   4.785   2.875   8.360
 3859TIP3    H133136   4.848   2.875   8.431
 3859TIP3    H233137   4.703   2.846   8.401
 3860TIP3   OH233138   0.281   3.266   1.165
 3860TIP3    H133139   0.271   3.173   1.185
 3860TIP3    H233140   0.309   3.306   1.247
 3861TIP3   OH233141   0.996   5.580   7.809
 3861TIP3    H133142   0.981   5.670   7.780
 3861TIP3    H233143   1.037   5.589   7.895
 3862TIP3   OH233144   6.120   0.532   6.906
 3862TIP3    H133145   6.076   0.470   6.847
 3862TIP3    H233146   6.093   0.618   6.873
 3863TIP3   OH233147   4.251   0.710   8.210
 3863TIP3    H133148   4.268   0.659   8.289
 3863TIP3    H233149   4.216   0.793   8.242
 3864TIP3   OH233150   5.456   1.610   0.364
 3864TIP3    H133151   5.480   1.553   0.438
 3864TIP3    H233152   5.539   1.627   0.319
 3865TIP3   OH233153   0.427   0.779   8.194
 3865TIP3    H133154   0.437   0.854   8.135
 3865TIP3    H233155   0.471   0.707   8.148
 3866TIP3   OH233156   3.496   1.847   7.789
 3866TIP3    H133157   3.516   1.940   7.781
 3866TIP3    H233158   3.414   1.843   7.837
 3867TIP3   OH233159   3.638   4.789   1.000
 3867TIP3    H133160   3.684   4.723   1.051
 3867TIP3    H233161   3.616   4.746   0.918
 3868TIP3   OH233162   5.404   1.059   0.090
 3868TIP3    H133163   5.366   1.054   0.002
 3868TIP3    H233164   5.440   0.971   0.106
 3869TIP3   OH233165   5.481   0.626   7.431
 3869TIP3    H133166   5.528   0.584   7.359
 3869TIP3    H233167   5.410   0.566   7.452
 3870TIP3   OH233168   2.949   1.920   7.924
 3870TIP3    H133169   2.955   1.986   7.855
 3870TIP3    H233170   2.985   1.963   8.002
 3871TIP3   OH233171   0.669   1.593   8.513
 3871TIP3    H133172   0.587   1.545   8.518
 3871TIP3    H233173   0.734   1.528   8.487
 3872TIP3   OH233174   6.809   1.951   1.905
 3872TIP3    H133175   6.765   1.874   1.870
 3872TIP3    H233176   6.805   2.016   1.835
 3873TIP3   OH233177   4.961   1.230   7.542
 3873TIP3    H133178   4.901   1.235   7.616
 3873TIP3    H233179   4.951   1.314   7.497
 3874TIP3   OH233180   4.984   2.223   1.736
 3874TIP3    H133181   4.939   2.267   1.808
 3874TIP3    H233182   5.044   2.289   1.702
 3875TIP3   OH233183   3.563   6.068   1.118
 3875TIP3    H133184   3.527   5.991   1.163
 3875TIP3    H233185   3.657   6.062   1.132
 3876TIP3   OH233186   4.178   3.666   2.100
 3876TIP3    H133187   4.118   3.634   2.034
 3876TIP3    H233188   4.214   3.586   2.141
 3877TIP3   OH233189   0.039   1.586   0.658
 3877TIP3    H133190   0.088   1.636   0.593
 3877TIP3    H233191   6.770   1.621   0.653
 3878TIP3   OH233192   5.638   6.326   7.026
 3878TIP3    H133193   5.545   6.316   7.049
 3878TIP3    H233194   5.638   6.375   6.944
 3879TIP3   OH233195   6.799   0.288   0.667
 3879TIP3    H133196   6.765   0.201   0.686
 3879TIP3    H233197   0.071   0.274   0.645
 3880TIP3   OH233198   1.309   0.516   1.539
 3880TIP3    H133199   1.273   0.440   1.493
 3880TIP3    H233200   1.378   0.479   1.594
 3881TIP3   OH233201   2.185   5.208   1.350
 3881TIP3    H133202   2.267   5.256   1.340
 3881TIP3    H233203   2.197   5.157   1.431
 3882TIP3   OH233204   5.659   4.741   0.182
 3882TIP3    H133205   5.583   4.683   0.179
 3882TIP3    H233206   5.734   4.684   0.171
 3883TIP3   OH233207   1.473   2.178   8.574
 3883TIP3    H133208   1.416   2.246   8.610
 3883TIP3    H233209   1.421   2.136   8.506
 3884TIP3   OH233210   0.792   4.047   6.965
 3884TIP3    H133211   0.757   4.070   6.879
 3884TIP3    H233212   0.851   4.119   6.987
 3885TIP3   OH233213   5.686   5.088   7.770
 3885TIP3    H133214   5.698   5.178   7.739
 3885TIP3    H233215   5.595   5.067   7.749
 3886TIP3   OH233216   0.055   4.720   7.171
 3886TIP3    H133217   0.110   4.738   7.247
 3886TIP3    H233218   0.117   4.707   7.099
 3887TIP3   OH233219   5.249   2.524   0.071
 3887TIP3    H133220   5.266   2.610   0.110
 3887TIP3    H233221   5.166   2.496   0.110
 3888TIP3   OH233222   3.397   4.669   6.560
 3888TIP3    H133223   3.306   4.643   6.546
 3888TIP3    H233224   3.446   4.618   6.495
 3889TIP3   OH233225   4.140   3.448   1.229
 3889TIP3    H133226   4.088   3.448   1.148
 3889TIP3    H233227   4.110   3.372   1.277
 3890TIP3   OH233228   1.120   4.559   0.788
 3890TIP3    H133229   1.074   4.543   0.871
 3890TIP3    H233230   1.065   4.517   0.722
 3891TIP3   OH233231   6.491   4.499   1.494
 3891TIP3    H133232   6.416   4.451   1.462
 3891TIP3    H233233   6.463   4.591   1.493
 3892TIP3   OH233234   3.686   4.955   1.568
 3892TIP3    H133235   3.713   4.882   1.624
 3892TIP3    H233236   3.731   4.938   1.485
 3893TIP3   OH233237   2.867   6.043   2.028
 3893TIP3    H133238   2.932   6.098   1.983
 3893TIP3    H233239   2.830   6.099   2.096
 3894TIP3   OH233240   1.215   4.766   8.321
 3894TIP3    H133241   1.216   4.859   8.299
 3894TIP3    H233242   1.188   4.722   8.240
 3895TIP3   OH233243   3.808   2.782   1.298
 3895TIP3    H133244   3.884   2.726   1.280
 3895TIP3    H233245   3.829   2.825   1.381
 3896TIP3   OH233246   0.084   2.844   0.151
 3896TIP3    H133247   0.028   2.902   0.099
 3896TIP3    H233248   0.152   2.902   0.185
 3897TIP3   OH233249   5.998   5.430   6.309
 3897TIP3    H133250   6.041   5.350   6.280
 3897TIP3    H233251   6.066   5.497   6.306
 3898TIP3   OH233252   5.631   6.242   6.004
 3898TIP3    H133253   5.555   6.196   6.039
 3898TIP3    H233254   5.700   6.229   6.069
 3899TIP3   OH233255   6.452   0.216   0.424
 3899TIP3    H133256   6.520   0.151   0.440
 3899TIP3    H233257   6.484   0.295   0.465
 3900TIP3   OH233258   4.516   2.104   7.592
 3900TIP3    H133259   4.500   2.046   7.667
 3900TIP3    H233260   4.515   2.192   7.630
 3901TIP3   OH233261   2.892   4.585   1.592
 3901TIP3    H133262   2.838   4.595   1.513
 3901TIP3    H233263   2.830   4.583   1.664
 3902TIP3   OH233264   1.702   1.519   6.849
 3902TIP3    H133265   1.653   1.455   6.901
 3902TIP3    H233266   1.637   1.553   6.787
 3903TIP3   OH233267   6.180   4.353   1.677
 3903TIP3    H133268   6.186   4.295   1.753
 3903TIP3    H233269   6.256   4.330   1.624
 3904TIP3   OH233270   4.566   3.369   1.329
 3904TIP3    H133271   4.555   3.410   1.244
 3904TIP3    H233272   4.529   3.282   1.320
 3905TIP3   OH233273   2.463   5.784   0.029
 3905TIP3    H133274   2.477   5.733   0.109
 3905TIP3    H233275   2.412   5.859   0.057
 3906TIP3   OH233276   1.778   0.086   8.108
 3906TIP3    H133277   1.866   0.071   8.073
 3906TIP3    H233278   1.749   0.167   8.065
 3907TIP3   OH233279   2.869   4.284   1.881
 3907TIP3    H133280   2.858   4.245   1.795
 3907TIP3    H233281   2.780   4.294   1.915
 3908TIP3   OH233282   2.840   3.664   0.839
 3908TIP3    H133283   2.919   3.613   0.821
 3908TIP3    H233284   2.807   3.629   0.922
 3909TIP3   OH233285   4.990   6.299   7.197
 3909TIP3    H133286   5.053   6.371   7.202
 3909TIP3    H233287   4.912   6.333   7.240
 3910TIP3   OH233288   3.535   3.464   8.065
 3910TIP3    H133289   3.565   3.380   8.030
 3910TIP3    H233290   3.574   3.469   8.152
 3911TIP3   OH233291   3.573   0.092   0.066
 3911TIP3    H133292   3.642   0.132   0.120
 3911TIP3    H233293   3.604   0.003   0.050
 3912TIP3   OH233294   4.319   6.082   7.424
 3912TIP3    H133295   4.407   6.119   7.434
 3912TIP3    H233296   4.273   6.146   7.369
 3913TIP3   OH233297   0.978   4.977   0.344
 3913TIP3    H133298   0.959   5.029   0.266
 3913TIP3    H233299   1.071   4.956   0.338
 3914TIP3   OH233300   1.567   6.286   7.347
 3914TIP3    H133301   1.475   6.306   7.332
 3914TIP3    H233302   1.615   6.362   7.313
 3915TIP3   OH233303   3.741   5.101   6.419
 3915TIP3    H133304   3.813   5.050   6.383
 3915TIP3    H233305   3.781   5.150   6.492
 3916TIP3   OH233306   0.644   0.425   7.809
 3916TIP3    H133307   0.703   0.494   7.779
 3916TIP3    H233308   0.687   0.389   7.887
 3917TIP3   OH233309   4.122   1.576   7.853
 3917TIP3    H133310   4.115   1.481   7.858
 3917TIP3    H233311   4.115   1.606   7.944
 3918TIP3   OH233312   5.648   1.779   0.232
 3918TIP3    H133313   5.737   1.790   0.199
 3918TIP3    H233314   5.594   1.772   0.154
 3919TIP3   OH233315   6.159   4.112   1.286
 3919TIP3    H133316   6.086   4.130   1.228
 3919TIP3    H233317   6.135   4.031   1.332
 3920TIP3   OH233318   3.170   6.479   2.312
 3920TIP3    H133319   3.091   6.425   2.310
 3920TIP3    H233320   3.216   6.458   2.231
 3921TIP3   OH233321   0.816   5.203   0.523
 3921TIP3    H133322   0.769   5.130   0.563
 3921TIP3    H233323   0.906   5.195   0.555
 3922TIP3   OH233324   2.151   3.661   0.728
 3922TIP3    H133325   2.062   3.625   0.723
 3922TIP3    H233326   2.152   3.730   0.661
 3923TIP3   OH233327   1.528   4.317   7.493
 3923TIP3    H133328   1.623   4.307   7.482
 3923TIP3    H233329   1.517   4.406   7.525
 3924TIP3   OH233330   0.141   3.475   8.445
 3924TIP3    H133331   0.085   3.411   8.401
 3924TIP3    H233332   0.099   3.488   8.530
 3925TIP3   OH233333   3.719   4.175   8.085
 3925TIP3    H133334   3.781   4.170   8.013
 3925TIP3    H233335   3.759   4.237   8.147
 3926TIP3   OH233336   2.943   4.901   7.296
 3926TIP3    H133337   2.978   4.855   7.220
 3926TIP3    H233338   3.002   4.877   7.367
 3927TIP3   OH233339   0.591   1.452   0.815
 3927TIP3    H133340   0.605   1.515   0.886
 3927TIP3    H233341   0.678   1.436   0.779
 3928TIP3   OH233342   3.891   0.774   8.714
 3928TIP3    H133343   3.955   0.843   8.697
 3928TIP3    H233344   3.935   0.716   8.776
 3929TIP3   OH233345   1.276   6.331   7.089
 3929TIP3    H133346   1.260   6.424   7.074
 3929TIP3    H233347   1.194   6.288   7.064
 3930TIP3   OH233348   4.394   1.330   7.121
 3930TIP3    H133349   4.375   1.357   7.211
 3930TIP3    H233350   4.382   1.235   7.121
 3931TIP3   OH233351   3.898   3.105   6.461
 3931TIP3    H133352   3.951   3.028   6.480
 3931TIP3    H233353   3.961   3.176   6.451
 3932TIP3   OH233354   1.942   1.334   1.552
 3932TIP3    H133355   1.972   1.292   1.632
 3932TIP3    H233356   1.960   1.427   1.567
 3933TIP3   OH233357   0.338   2.369   7.860
 3933TIP3    H133358   0.363   2.280   7.837
 3933TIP3    H233359   0.392   2.425   7.803
 3934TIP3   OH233360   0.909   5.292   8.324
 3934TIP3    H133361   0.964   5.291   8.246
 3934TIP3    H233362   0.917   5.204   8.360
 3935TIP3   OH233363   5.188   1.591   1.056
 3935TIP3    H133364   5.232   1.514   1.020
 3935TIP3    H233365   5.244   1.621   1.127
 3936TIP3   OH233366   5.615   2.465   1.082
 3936TIP3    H133367   5.606   2.413   1.003
 3936TIP3    H233368   5.675   2.536   1.058
 3937TIP3   OH233369   5.278   5.995   1.895
 3937TIP3    H133370   5.188   5.964   1.908
 3937TIP3    H233371   5.333   5.925   1.930
 3938TIP3   OH233372   3.611   2.717   8.241
 3938TIP3    H133373   3.574   2.801   8.268
 3938TIP3    H233374   3.588   2.710   8.148
 3939TIP3   OH233375   1.391   3.604   0.091
 3939TIP3    H133376   1.347   3.621   0.175
 3939TIP3    H233377   1.456   3.674   0.084
 3940TIP3   OH233378   2.791   1.106   0.490
 3940TIP3    H133379   2.802   1.105   0.585
 3940TIP3    H233380   2.866   1.156   0.457
 3941TIP3   OH233381   4.858   0.696   8.714
 3941TIP3    H133382   4.814   0.636   8.773
 3941TIP3    H233383   4.903   0.639   8.651
 3942TIP3   OH233384   4.188   5.341   8.398
 3942TIP3    H133385   4.273   5.383   8.386
 3942TIP3    H233386   4.186   5.271   8.332
 3943TIP3   OH233387   1.332   1.159   7.005
 3943TIP3    H133388   1.306   1.078   6.963
 3943TIP3    H233389   1.342   1.137   7.098
 3944TIP3   OH233390   5.430   6.478   0.248
 3944TIP3    H133391   5.422   6.383   0.261
 3944TIP3    H233392   5.375   6.516   0.316
 3945TIP3   OH233393   1.450   0.113   7.884
 3945TIP3    H133394   1.357   0.127   7.866
 3945TIP3    H233395   1.463   0.147   7.972
 3946TIP3   OH233396   1.184   1.706   1.003
 3946TIP3    H133397   1.150   1.787   1.040
 3946TIP3    H233398   1.140   1.637   1.052
 3947TIP3   OH233399   2.485   1.684   8.383
 3947TIP3    H133400   2.478   1.614   8.319
 3947TIP3    H233401   2.541   1.649   8.452
 3948TIP3   OH233402   3.639   2.935   1.123
 3948TIP3    H133403   3.708   3.000   1.112
 3948TIP3    H233404   3.675   2.871   1.185
 3949TIP3   OH233405   5.563   4.845   1.123
 3949TIP3    H133406   5.515   4.873   1.201
 3949TIP3    H233407   5.643   4.806   1.157
 3950TIP3   OH233408   4.045   1.282   7.402
 3950TIP3    H133409   4.054   1.187   7.399
 3950TIP3    H233410   3.992   1.298   7.480
 3951TIP3   OH233411   5.966   5.527   8.652
 3951TIP3    H133412   6.009   5.505   8.569
 3951TIP3    H233413   5.961   5.444   8.699
 3952TIP3   OH233414   3.846   2.244   8.398
 3952TIP3    H133415   3.762   2.206   8.421
 3952TIP3    H233416   3.907   2.170   8.393
 3953TIP3   OH233417   0.611   0.334   7.548
 3953TIP3    H133418   0.627   0.364   7.637
 3953TIP3    H233419   0.664   0.392   7.493
 3954TIP3   OH233420   2.686   5.746   1.095
 3954TIP3    H133421   2.650   5.704   1.173
 3954TIP3    H233422   2.649   5.697   1.022
 3955TIP3   OH233423   0.710   1.214   0.295
 3955TIP3    H133424   0.710   1.201   0.200
 3955TIP3    H233425   0.622   1.245   0.315
 3956TIP3   OH233426   4.136   1.322   0.087
 3956TIP3    H133427   4.145   1.415   0.066
 3956TIP3    H233428   4.175   1.277   0.012
 3957TIP3   OH233429   0.281   5.131   7.989
 3957TIP3    H133430   0.240   5.050   7.956
 3957TIP3    H233431   0.214   5.170   8.044
 3958TIP3   OH233432   1.983   2.117   1.807
 3958TIP3    H133433   1.939   2.187   1.759
 3958TIP3    H233434   1.915   2.077   1.861
 3959TIP3   OH233435   5.963   4.338   0.446
 3959TIP3    H133436   6.044   4.301   0.410
 3959TIP3    H233437   5.894   4.279   0.416
 3960TIP3   OH233438   4.187   3.436   8.582
 3960TIP3    H133439   4.168   3.342   8.577
 3960TIP3    H233440   4.108   3.478   8.547
 3961TIP3   OH233441   0.912   1.849   7.764
 3961TIP3    H133442   1.004   1.876   7.768
 3961TIP3    H233443   0.877   1.899   7.690
 3962TIP3   OH233444   0.534   2.907   0.539
 3962TIP3    H133445   0.462   2.870   0.486
 3962TIP3    H233446   0.613   2.871   0.499
 3963TIP3   OH233447   2.819   5.346   7.724
 3963TIP3    H133448   2.820   5.393   7.641
 3963TIP3    H233449   2.819   5.415   7.791
 3964TIP3   OH233450   0.480   3.325   2.537
 3964TIP3    H133451   0.432   3.246   2.511
 3964TIP3    H233452   0.451   3.392   2.475
 3965TIP3   OH233453   1.767   6.455   1.122
 3965TIP3    H133454   1.814   6.383   1.165
 3965TIP3    H233455   1.757   6.522   1.190
 3966TIP3   OH233456   3.900   0.307   8.578
 3966TIP3    H133457   3.878   0.398   8.561
 3966TIP3    H233458   3.897   0.299   8.673
 3967TIP3   OH233459   4.461   6.507   7.056
 3967TIP3    H133460   4.443   6.590   7.100
 3967TIP3    H233461   4.432   6.440   7.117
 3968TIP3   OH233462   0.571   1.507   0.357
 3968TIP3    H133463   0.659   1.543   0.371
 3968TIP3    H233464   0.540   1.549   0.277
 3969TIP3   OH233465   1.278   4.258   7.180
 3969TIP3    H133466   1.207   4.323   7.179
 3969TIP3    H233467   1.317   4.264   7.093
 3970TIP3   OH233468   5.822   1.434   2.809
 3970TIP3    H133469   5.832   1.347   2.849
 3970TIP3    H233470   5.912   1.465   2.799
 3971TIP3   OH233471   4.393   0.984   0.470
 3971TIP3    H133472   4.382   1.078   0.479
 3971TIP3    H233473   4.476   0.974   0.422
 3972TIP3   OH233474   3.057   0.031   8.355
 3972TIP3    H133475   2.969   6.813   8.345
 3972TIP3    H233476   3.042   0.122   8.380
 3973TIP3   OH233477   5.850   2.901   1.941
 3973TIP3    H133478   5.913   2.849   1.991
 3973TIP3    H233479   5.869   2.991   1.964
 3974TIP3   OH233480   5.230   5.723   7.941
 3974TIP3    H133481   5.243   5.811   7.975
 3974TIP3    H233482   5.135   5.714   7.930
 3975TIP3   OH233483   6.088   0.778   6.822
 3975TIP3    H133484   6.026   0.774   6.750
 3975TIP3    H233485   6.066   0.859   6.869
 3976TIP3   OH233486   0.424   6.786   2.638
 3976TIP3    H133487   0.387   6.710   2.593
 3976TIP3    H233488   0.348   0.016   2.668
 3977TIP3   OH233489   3.855   3.212   0.562
 3977TIP3    H133490   3.799   3.137   0.540
 3977TIP3    H233491   3.802   3.265   0.621
 3978TIP3   OH233492   6.032   0.715   1.515
 3978TIP3    H133493   6.012   0.794   1.466
 3978TIP3    H233494   6.068   0.655   1.449
 3979TIP3   OH233495   2.665   2.491   7.139
 3979TIP3    H133496   2.657   2.528   7.051
 3979TIP3    H233497   2.605   2.417   7.140
 3980TIP3   OH233498   0.613   6.811   2.398
 3980TIP3    H133499   0.677   0.063   2.397
 3980TIP3    H233500   0.601   6.791   2.490
 3981TIP3   OH233501   3.849   1.094   2.099
 3981TIP3    H133502   3.870   1.076   2.008
 3981TIP3    H233503   3.925   1.061   2.148
 3982TIP3   OH233504   2.782   1.531   7.367
 3982TIP3    H133505   2.874   1.546   7.348
 3982TIP3    H233506   2.778   1.440   7.396
 3983TIP3   OH233507   4.937   1.591   8.429
 3983TIP3    H133508   4.880   1.612   8.503
 3983TIP3    H233509   4.877   1.576   8.356
 3984TIP3   OH233510   5.683   4.779   6.296
 3984TIP3    H133511   5.704   4.866   6.263
 3984TIP3    H233512   5.621   4.795   6.367
 3985TIP3   OH233513   2.519   0.967   7.727
 3985TIP3    H133514   2.554   1.007   7.807
 3985TIP3    H233515   2.576   0.892   7.711
 3986TIP3   OH233516   0.930   3.367   5.978
 3986TIP3    H133517   0.842   3.398   6.001
 3986TIP3    H233518   0.979   3.446   5.958
 3987TIP3   OH233519   6.637   4.845   2.525
 3987TIP3    H133520   6.543   4.858   2.515
 3987TIP3    H233521   6.645   4.778   2.593
 3988TIP3   OH233522   0.581   2.149   7.183
 3988TIP3    H133523   0.565   2.120   7.093
 3988TIP3    H233524   0.496   2.180   7.214
 3989TIP3   OH233525   1.792   6.574   6.241
 3989TIP3    H133526   1.751   6.502   6.194
 3989TIP3    H233527   1.740   6.585   6.320
 3990TIP3   OH233528   2.723   5.816   8.175
 3990TIP3    H133529   2.812   5.835   8.145
 3990TIP3    H233530   2.734   5.779   8.263
 3991TIP3   OH233531   1.679   4.851   7.229
 3991TIP3    H133532   1.638   4.937   7.233
 3991TIP3    H233533   1.763   4.861   7.275
 3992TIP3   OH233534   0.540   2.640   1.063
 3992TIP3    H133535   0.589   2.652   0.982
 3992TIP3    H233536   0.553   2.721   1.112
 3993TIP3   OH233537   5.606   5.906   2.431
 3993TIP3    H133538   5.700   5.921   2.425
 3993TIP3    H233539   5.575   5.974   2.490
 3994TIP3   OH233540   1.584   5.597   8.635
 3994TIP3    H133541   1.633   5.612   8.553
 3994TIP3    H233542   1.573   5.685   8.672
 3995TIP3   OH233543   3.654   2.869   7.353
 3995TIP3    H133544   3.576   2.901   7.399
 3995TIP3    H233545   3.629   2.866   7.261
 3996TIP3   OH233546   1.160   3.939   2.209
 3996TIP3    H133547   1.251   3.909   2.207
 3996TIP3    H233548   1.164   4.031   2.184
 3997TIP3   OH233549   5.678   2.091   0.348
 3997TIP3    H133550   5.663   2.090   0.443
 3997TIP3    H233551   5.686   1.998   0.324
 3998TIP3   OH233552   5.936   1.011   8.295
 3998TIP3    H133553   5.984   0.942   8.248
 3998TIP3    H233554   5.945   1.089   8.241
 3999TIP3   OH233555   5.288   4.687   7.011
 3999TIP3    H133556   5.328   4.613   6.966
 3999TIP3    H233557   5.277   4.754   6.944
 4000TIP3   OH233558   1.072   0.204   7.445
 4000TIP3    H133559   1.081   0.111   7.424
 4000TIP3    H233560   1.039   0.244   7.365
 4001TIP3   OH233561   0.696   5.941   7.470
 4001TIP3    H133562   0.672   5.849   7.479
 4001TIP3    H233563   0.702   5.956   7.376
 4002TIP3   OH233564   3.634   0.792   0.132
 4002TIP3    H133565   3.634   0.707   0.175
 4002TIP3    H233566   3.716   0.794   0.082
 4003TIP3   OH233567   2.788   4.623   8.453
 4003TIP3    H133568   2.784   4.614   8.358
 4003TIP3    H233569   2.697   4.625   8.481
 4004TIP3   OH233570   1.779   4.442   0.828
 4004TIP3    H133571   1.784   4.505   0.756
 4004TIP3    H233572   1.838   4.371   0.801
 4005TIP3   OH233573   3.814   3.776   7.514
 4005TIP3    H133574   3.836   3.868   7.530
 4005TIP3    H233575   3.739   3.780   7.455
 4006TIP3   OH233576   1.669   2.326   1.351
 4006TIP3    H133577   1.699   2.387   1.419
 4006TIP3    H233578   1.732   2.337   1.280
 4007TIP3   OH233579   1.124   5.097   7.290
 4007TIP3    H133580   1.168   5.034   7.233
 4007TIP3    H233581   1.091   5.044   7.363
 4008TIP3   OH233582   0.428   5.367   8.048
 4008TIP3    H133583   0.408   5.276   8.026
 4008TIP3    H233584   0.348   5.400   8.088
 4009TIP3   OH233585   4.692   6.096   8.479
 4009TIP3    H133586   4.757   6.128   8.417
 4009TIP3    H233587   4.615   6.077   8.426
 4010TIP3   OH233588   1.746   1.170   0.061
 4010TIP3    H133589   1.682   1.199   0.127
 4010TIP3    H233590   1.830   1.202   0.094
 4011TIP3   OH233591   4.044   5.750   1.375
 4011TIP3    H133592   4.028   5.686   1.445
 4011TIP3    H233593   4.128   5.789   1.397
 4012TIP3   OH233594   5.998   6.236   1.335
 4012TIP3    H133595   6.015   6.243   1.241
 4012TIP3    H233596   5.924   6.175   1.340
 4013TIP3   OH233597   2.474   1.081   8.768
 4013TIP3    H133598   2.380   1.065   8.766
 4013TIP3    H233599   2.507   1.021   0.035
 4014TIP3   OH233600   5.478   0.450   8.332
 4014TIP3    H133601   5.559   0.449   8.280
 4014TIP3    H233602   5.414   0.403   8.278
 4015TIP3   OH233603   5.214   2.070   8.088
 4015TIP3    H133604   5.207   2.028   8.174
 4015TIP3    H233605   5.290   2.128   8.095
 4016TIP3   OH233606   1.564   3.313   7.711
 4016TIP3    H133607   1.544   3.407   7.710
 4016TIP3    H233608   1.489   3.274   7.755
 4017TIP3   OH233609   6.411   1.789   6.938
 4017TIP3    H133610   6.328   1.822   6.972
 4017TIP3    H233611   6.469   1.865   6.938
 4018TIP3   OH233612   0.207   3.336   2.400
 4018TIP3    H133613   0.113   3.323   2.385
 4018TIP3    H233614   0.218   3.431   2.402
 4019TIP3   OH233615   5.367   3.393   2.022
 4019TIP3    H133616   5.436   3.394   2.089
 4019TIP3    H233617   5.289   3.423   2.068
 4020TIP3   OH233618   0.591   0.286   1.410
 4020TIP3    H133619   0.582   0.218   1.477
 4020TIP3    H233620   0.549   0.250   1.333
 4021TIP3   OH233621   5.585   6.148   7.502
 4021TIP3    H133622   5.534   6.176   7.579
 4021TIP3    H233623   5.667   6.115   7.539
 4022TIP3   OH233624   0.925   0.941   1.234
 4022TIP3    H133625   0.893   1.011   1.178
 4022TIP3    H233626   0.878   0.862   1.204
 4023TIP3   OH233627   6.445   5.961   0.100
 4023TIP3    H133628   6.460   5.989   0.190
 4023TIP3    H233629   6.503   6.017   0.048
 4024TIP3   OH233630   0.267   5.524   8.531
 4024TIP3    H133631   0.262   5.436   8.493
 4024TIP3    H233632   0.351   5.525   8.577
 4025TIP3   OH233633   2.088   5.521   0.095
 4025TIP3    H133634   2.142   5.490   0.022
 4025TIP3    H233635   2.022   5.452   0.107
 4026TIP3   OH233636   0.043   3.162   2.964
 4026TIP3    H133637   0.127   3.194   2.996
 4026TIP3    H233638   6.800   3.231   2.988
 4027TIP3   OH233639   1.543   1.158   7.647
 4027TIP3    H133640   1.511   1.191   7.731
 4027TIP3    H233641   1.485   1.085   7.626
 4028TIP3   OH233642   1.193   2.695   1.024
 4028TIP3    H133643   1.165   2.635   1.093
 4028TIP3    H233644   1.237   2.640   0.960
 4029TIP3   OH233645   6.144   2.012   0.485
 4029TIP3    H133646   6.136   1.956   0.408
 4029TIP3    H233647   6.072   2.075   0.477
 4030TIP3   OH233648   2.378   5.654   6.877
 4030TIP3    H133649   2.316   5.726   6.893
 4030TIP3    H233650   2.458   5.683   6.920
 4031TIP3   OH233651   0.390   6.567   7.505
 4031TIP3    H133652   0.349   6.546   7.420
 4031TIP3    H233653   0.479   6.531   7.498
 4032TIP3   OH233654   2.562   6.424   0.813
 4032TIP3    H133655   2.566   6.378   0.729
 4032TIP3    H233656   2.588   6.514   0.792
 4033TIP3   OH233657   3.513   2.195   8.730
 4033TIP3    H133658   3.591   2.144   8.707
 4033TIP3    H233659   3.495   2.247   8.652
 4034TIP3   OH233660   4.263   4.281   0.743
 4034TIP3    H133661   4.311   4.353   0.700
 4034TIP3    H233662   4.202   4.326   0.801
 4035TIP3   OH233663   6.551   4.847   8.424
 4035TIP3    H133664   6.469   4.802   8.446
 4035TIP3    H233665   6.524   4.923   8.373
 4036TIP3   OH233666   0.548   1.831   0.878
 4036TIP3    H133667   0.559   1.887   0.955
 4036TIP3    H233668   0.473   1.775   0.899
 4037TIP3   OH233669   1.797   2.705   2.212
 4037TIP3    H133670   1.797   2.766   2.286
 4037TIP3    H233671   1.732   2.741   2.151
 4038TIP3   OH233672   1.359   5.989   0.587
 4038TIP3    H133673   1.330   5.930   0.517
 4038TIP3    H233674   1.353   6.076   0.549
 4039TIP3   OH233675   1.564   5.415   1.471
 4039TIP3    H133676   1.615   5.408   1.553
 4039TIP3    H233677   1.525   5.502   1.476
 4040TIP3   OH233678   2.732   3.895   8.030
 4040TIP3    H133679   2.781   3.922   8.107
 4040TIP3    H233680   2.644   3.929   8.046
 4041TIP3   OH233681   1.133   1.980   1.862
 4041TIP3    H133682   1.042   1.973   1.889
 4041TIP3    H233683   1.183   1.942   1.934
 4042TIP3   OH233684   6.442   5.690   2.117
 4042TIP3    H133685   6.371   5.733   2.164
 4042TIP3    H233686   6.440   5.599   2.149
 4043TIP3   OH233687   2.029   3.224   1.331
 4043TIP3    H133688   1.972   3.265   1.265
 4043TIP3    H233689   1.971   3.162   1.376
 4044TIP3   OH233690   5.882   2.500   1.367
 4044TIP3    H133691   5.824   2.571   1.395
 4044TIP3    H233692   5.953   2.501   1.431
 4045TIP3   OH233693   5.604   3.375   1.086
 4045TIP3    H133694   5.630   3.373   0.994
 4045TIP3    H233695   5.510   3.394   1.084
 4046TIP3   OH233696   0.429   6.632   7.900
 4046TIP3    H133697   0.348   6.682   7.908
 4046TIP3    H233698   0.474   6.647   7.983
 4047TIP3   OH233699   2.233   4.719   7.307
 4047TIP3    H133700   2.296   4.717   7.235
 4047TIP3    H233701   2.223   4.813   7.326
 4048TIP3   OH233702   4.334   3.561   1.767
 4048TIP3    H133703   4.328   3.550   1.672
 4048TIP3    H233704   4.244   3.551   1.798
 4049TIP3   OH233705   3.506   5.480   7.383
 4049TIP3    H133706   3.491   5.397   7.337
 4049TIP3    H233707   3.432   5.487   7.444
 4050TIP3   OH233708   5.843   2.443   8.785
 4050TIP3    H133709   5.819   2.426   0.075
 4050TIP3    H233710   5.835   2.358   8.742
 4051TIP3   OH233711   0.605   1.618   8.074
 4051TIP3    H133712   0.515   1.620   8.107
 4051TIP3    H233713   0.616   1.702   8.030
 4052TIP3   OH233714   5.611   6.803   1.819
 4052TIP3    H133715   5.563   0.002   1.900
 4052TIP3    H233716   5.682   0.047   1.818
 4053TIP3   OH233717   1.802   1.365   0.485
 4053TIP3    H133718   1.792   1.385   0.577
 4053TIP3    H233719   1.875   1.420   0.456
 4054TIP3   OH233720   4.134   2.376   1.167
 4054TIP3    H133721   4.195   2.416   1.104
 4054TIP3    H233722   4.117   2.289   1.133
 4055TIP3   OH233723   5.478   2.700   0.913
 4055TIP3    H133724   5.569   2.690   0.886
 4055TIP3    H233725   5.470   2.791   0.939
 4056TIP3   OH233726   1.368   5.605   0.107
 4056TIP3    H133727   1.444   5.548   0.116
 4056TIP3    H233728   1.405   5.694   0.106
 4057TIP3   OH233729   5.166   5.679   1.482
 4057TIP3    H133730   5.234   5.746   1.471
 4057TIP3    H233731   5.150   5.677   1.577
 4058TIP3   OH233732   0.267   2.886   7.924
 4058TIP3    H133733   0.239   2.844   8.006
 4058TIP3    H233734   0.346   2.935   7.948
 4059TIP3   OH233735   0.598   2.941   2.059
 4059TIP3    H133736   0.616   3.001   2.131
 4059TIP3    H233737   0.651   2.974   1.986
 4060TIP3   OH233738   6.338   4.606   6.759
 4060TIP3    H133739   6.336   4.545   6.833
 4060TIP3    H233740   6.431   4.613   6.737
 4061TIP3   OH233741   0.569   5.071   1.486
 4061TIP3    H133742   0.565   4.980   1.458
 4061TIP3    H233743   0.488   5.110   1.452
 4062TIP3   OH233744   1.430   1.856   7.751
 4062TIP3    H133745   1.455   1.805   7.674
 4062TIP3    H233746   1.493   1.927   7.754
 4063TIP3   OH233747   4.660   5.202   8.021
 4063TIP3    H133748   4.568   5.209   8.049
 4063TIP3    H233749   4.684   5.111   8.040
 4064TIP3   OH233750   4.819   5.127   2.300
 4064TIP3    H133751   4.854   5.166   2.381
 4064TIP3    H233752   4.754   5.063   2.331
 4065TIP3   OH233753   2.210   5.494   7.399
 4065TIP3    H133754   2.204   5.535   7.313
 4065TIP3    H233755   2.302   5.499   7.422
 4066TIP3   OH233756   1.073   2.060   8.085
 4066TIP3    H133757   1.113   1.975   8.104
 4066TIP3    H233758   1.016   2.077   8.160
 4067TIP3   OH233759   6.589   5.179   0.166
 4067TIP3    H133760   6.607   5.225   0.248
 4067TIP3    H233761   6.514   5.123   0.185
 4068TIP3   OH233762   6.197   0.984   2.279
 4068TIP3    H133763   6.110   0.949   2.300
 4068TIP3    H233764   6.209   1.056   2.341
 4069TIP3   OH233765   0.453   4.715   7.684
 4069TIP3    H133766   0.425   4.803   7.709
 4069TIP3    H233767   0.549   4.721   7.681
 4070TIP3   OH233768   2.232   0.816   8.044
 4070TIP3    H133769   2.268   0.905   8.046
 4070TIP3    H233770   2.138   0.829   8.027
 4071TIP3   OH233771   1.016   4.458   8.341
 4071TIP3    H133772   0.976   4.480   8.425
 4071TIP3    H233773   0.954   4.491   8.276
 4072TIP3   OH233774   5.813   4.536   7.926
 4072TIP3    H133775   5.760   4.478   7.872
 4072TIP3    H233776   5.771   4.621   7.918
 4073TIP3   OH233777   3.695   5.848   0.516
 4073TIP3    H133778   3.603   5.866   0.493
 4073TIP3    H233779   3.715   5.910   0.586
 4074TIP3   OH233780   4.164   6.352   0.259
 4074TIP3    H133781   4.215   6.271   0.261
 4074TIP3    H233782   4.159   6.376   0.167
 4075TIP3   OH233783   2.588   3.022   0.784
 4075TIP3    H133784   2.544   2.943   0.816
 4075TIP3    H233785   2.676   2.993   0.761
 4076TIP3   OH233786   6.441   1.520   8.691
 4076TIP3    H133787   6.388   1.478   8.624
 4076TIP3    H233788   6.528   1.479   8.681
 4077TIP3   OH233789   1.810   6.139   2.228
 4077TIP3    H133790   1.768   6.139   2.314
 4077TIP3    H233791   1.804   6.049   2.198
 4078TIP3   OH233792   5.496   2.091   1.170
 4078TIP3    H133793   5.487   2.110   1.077
 4078TIP3    H233794   5.580   2.046   1.178
 4079TIP3   OH233795   1.342   2.156   1.326
 4079TIP3    H133796   1.253   2.191   1.335
 4079TIP3    H233797   1.372   2.189   1.241
 4080TIP3   OH233798   3.977   2.852   1.992
 4080TIP3    H133799   4.036   2.922   2.018
 4080TIP3    H233800   3.896   2.897   1.968
 4081TIP3   OH233801   6.717   1.392   8.383
 4081TIP3    H133802   6.701   1.398   8.478
 4081TIP3    H233803   6.661   1.319   8.355
 4082TIP3   OH233804   2.507   2.086   1.260
 4082TIP3    H133805   2.441   2.021   1.285
 4082TIP3    H233806   2.590   2.048   1.290
 4083TIP3   OH233807   4.806   4.648   8.787
 4083TIP3    H133808   4.777   4.688   0.068
 4083TIP3    H233809   4.758   4.565   8.782
 4084TIP3   OH233810   5.104   3.578   1.877
 4084TIP3    H133811   5.063   3.636   1.813
 4084TIP3    H233812   5.078   3.613   1.962
 4085TIP3   OH233813   2.705   1.365   0.278
 4085TIP3    H133814   2.693   1.331   0.366
 4085TIP3    H233815   2.712   1.460   0.289
 4086TIP3   OH233816   5.781   6.407   7.754
 4086TIP3    H133817   5.855   6.392   7.694
 4086TIP3    H233818   5.752   6.319   7.777
 4087TIP3   OH233819   4.234   2.340   7.909
 4087TIP3    H133820   4.222   2.431   7.882
 4087TIP3    H233821   4.170   2.291   7.858
 4088TIP3   OH233822   4.284   0.117   0.204
 4088TIP3    H133823   4.254   0.142   0.291
 4088TIP3    H233824   4.287   0.021   0.206
 4089TIP3   OH233825   3.004   2.663   7.534
 4089TIP3    H133826   2.916   2.626   7.543
 4089TIP3    H233827   3.010   2.687   7.441
 4090TIP3   OH233828   6.035   5.300   8.090
 4090TIP3    H133829   6.035   5.295   7.994
 4090TIP3    H233830   5.963   5.361   8.110
 4091TIP3   OH233831   3.458   6.097   8.738
 4091TIP3    H133832   3.412   6.078   8.657
 4091TIP3    H233833   3.418   6.040   0.003
 4092TIP3   OH233834   3.232   5.877   1.585
 4092TIP3    H133835   3.248   5.783   1.577
 4092TIP3    H233836   3.153   5.884   1.639
 4093TIP3   OH233837   0.787   4.236   8.706
 4093TIP3    H133838   0.816   4.159   8.658
 4093TIP3    H233839   0.786   4.208   8.798
 4094TIP3   OH233840   5.248   0.829   7.971
 4094TIP3    H133841   5.157   0.845   7.994
 4094TIP3    H233842   5.276   0.909   7.927
 4095TIP3   OH233843   3.201   3.728   6.113
 4095TIP3    H133844   3.281   3.707   6.065
 4095TIP3    H233845   3.222   3.808   6.160
 4096TIP3   OH233846   3.937   5.272   1.582
 4096TIP3    H133847   3.927   5.202   1.517
 4096TIP3    H233848   3.901   5.236   1.663
 4097TIP3   OH233849   6.694   0.429   0.978
 4097TIP3    H133850   6.638   0.439   0.901
 4097TIP3    H233851   6.657   0.488   1.043
 4098TIP3   OH233852   3.195   5.750   1.852
 4098TIP3    H133853   3.115   5.800   1.836
 4098TIP3    H233854   3.235   5.791   1.929
 4099TIP3   OH233855   2.426   3.880   8.612
 4099TIP3    H133856   2.416   3.948   8.679
 4099TIP3    H233857   2.390   3.801   8.651
 4100TIP3   OH233858   1.780   5.260   7.466
 4100TIP3    H133859   1.717   5.320   7.504
 4100TIP3    H233860   1.852   5.257   7.529
 4101TIP3   OH233861   1.973   0.924   0.839
 4101TIP3    H133862   1.956   0.852   0.778
 4101TIP3    H233863   1.951   1.003   0.790
 4102TIP3   OH233864   5.289   5.578   7.207
 4102TIP3    H133865   5.282   5.495   7.160
 4102TIP3    H233866   5.204   5.587   7.251
 4103TIP3   OH233867   4.058   0.201   8.233
 4103TIP3    H133868   4.021   0.165   8.152
 4103TIP3    H233869   4.009   0.282   8.248
 4104TIP3   OH233870   1.772   4.899   1.063
 4104TIP3    H133871   1.691   4.941   1.036
 4104TIP3    H233872   1.805   4.954   1.134
 4105TIP3   OH233873   4.771   1.904   7.576
 4105TIP3    H133874   4.745   1.813   7.588
 4105TIP3    H233875   4.706   1.940   7.516
 4106TIP3   OH233876   3.580   0.750   1.056
 4106TIP3    H133877   3.556   0.801   0.978
 4106TIP3    H233878   3.561   0.807   1.129
 4107TIP3   OH233879   6.578   6.386   1.377
 4107TIP3    H133880   6.504   6.329   1.400
 4107TIP3    H233881   6.653   6.347   1.421
 4108TIP3   OH233882   3.764   2.348   1.459
 4108TIP3    H133883   3.815   2.421   1.494
 4108TIP3    H233884   3.799   2.335   1.371
 4109TIP3   OH233885   5.135   5.696   8.784
 4109TIP3    H133886   5.078   5.710   8.708
 4109TIP3    H233887   5.208   5.644   8.751
 4110TIP3   OH233888   4.470   1.967   0.885
 4110TIP3    H133889   4.486   2.035   0.819
 4110TIP3    H233890   4.385   1.930   0.861
 4111TIP3   OH233891   0.808   5.256   6.396
 4111TIP3    H133892   0.884   5.198   6.395
 4111TIP3    H233893   0.734   5.198   6.415
 4112TIP3   OH233894   3.674   1.083   7.587
 4112TIP3    H133895   3.613   1.042   7.647
 4112TIP3    H233896   3.646   1.054   7.500
 4113TIP3   OH233897   0.399   1.394   7.583
 4113TIP3    H133898   0.360   1.448   7.652
 4113TIP3    H233899   0.327   1.382   7.520
 4114TIP3   OH233900   4.958   4.066   1.059
 4114TIP3    H133901   4.937   4.025   0.976
 4114TIP3    H233902   5.029   4.011   1.095
 4115TIP3   OH233903   5.819   0.675   2.501
 4115TIP3    H133904   5.809   0.613   2.573
 4115TIP3    H233905   5.838   0.759   2.544
 4116TIP3   OH233906   5.440   0.992   6.891
 4116TIP3    H133907   5.381   1.062   6.862
 4116TIP3    H233908   5.411   0.914   6.843
 4117TIP3   OH233909   3.793   1.498   0.970
 4117TIP3    H133910   3.854   1.476   1.040
 4117TIP3    H233911   3.709   1.511   1.015
 4118TIP3   OH233912   3.971   4.342   8.529
 4118TIP3    H133913   3.962   4.388   8.612
 4118TIP3    H233914   4.027   4.399   8.476
 4119TIP3   OH233915   2.113   6.316   1.816
 4119TIP3    H133916   2.028   6.337   1.778
 4119TIP3    H233917   2.095   6.300   1.909
 4120TIP3   OH233918   6.175   3.921   7.452
 4120TIP3    H133919   6.135   3.965   7.527
 4120TIP3    H233920   6.186   3.990   7.387
 4121TIP3   OH233921   5.050   1.338   8.455
 4121TIP3    H133922   5.009   1.424   8.445
 4121TIP3    H233923   5.066   1.330   8.549
 4122TIP3   OH233924   3.987   2.562   7.448
 4122TIP3    H133925   3.923   2.609   7.502
 4122TIP3    H233926   4.020   2.492   7.505
 4123TIP3   OH233927   5.514   4.061   6.626
 4123TIP3    H133928   5.596   4.073   6.578
 4123TIP3    H233929   5.510   4.134   6.687
 4124TIP3   OH233930   4.313   0.400   7.823
 4124TIP3    H133931   4.297   0.451   7.902
 4124TIP3    H233932   4.387   0.344   7.845
 4125TIP3   OH233933   6.093   2.004   6.672
 4125TIP3    H133934   6.159   1.958   6.620
 4125TIP3    H233935   6.022   2.023   6.611
 4126TIP3   OH233936   2.059   5.431   1.301
 4126TIP3    H133937   2.120   5.359   1.316
 4126TIP3    H233938   2.115   5.508   1.294
 4127TIP3   OH233939   6.813   5.072   8.799
 4127TIP3    H133940   0.036   5.118   0.070
 4127TIP3    H233941   6.719   5.077   0.020
 4128TIP3   OH233942   4.718   1.907   8.282
 4128TIP3    H133943   4.779   1.934   8.214
 4128TIP3    H233944   4.632   1.909   8.240
 4129TIP3   OH233945   4.141   6.180   7.193
 4129TIP3    H133946   4.072   6.234   7.230
 4129TIP3    H233947   4.106   6.091   7.197
 4130TIP3   OH233948   3.052   6.216   1.925
 4130TIP3    H133949   3.094   6.302   1.933
 4130TIP3    H233950   3.120   6.160   1.889
 4131TIP3   OH233951   2.630   6.262   6.985
 4131TIP3    H133952   2.723   6.268   7.007
 4131TIP3    H233953   2.628   6.254   6.889
 4132TIP3   OH233954   0.380   5.022   0.903
 4132TIP3    H133955   0.396   4.931   0.930
 4132TIP3    H233956   0.286   5.027   0.891
 4133TIP3   OH233957   5.465   5.666   0.121
 4133TIP3    H133958   5.399   5.599   0.102
 4133TIP3    H233959   5.457   5.729   0.050
 4134TIP3   OH233960   0.438   1.824   7.425
 4134TIP3    H133961   0.494   1.746   7.429
 4134TIP3    H233962   0.351   1.792   7.450
 4135TIP3   OH233963   3.043   3.637   6.331
 4135TIP3    H133964   3.108   3.658   6.398
 4135TIP3    H233965   3.090   3.646   6.248
 4136TIP3   OH233966   4.704   5.654   0.033
 4136TIP3    H133967   4.690   5.726   8.772
 4136TIP3    H233968   4.699   5.695   0.119
 4137TIP3   OH233969   0.201   2.533   1.251
 4137TIP3    H133970   0.171   2.531   1.160
 4137TIP3    H233971   0.252   2.453   1.261
 4138TIP3   OH233972   0.390   2.952   7.220
 4138TIP3    H133973   0.381   2.917   7.309
 4138TIP3    H233974   0.318   2.912   7.171
 4139TIP3   OH233975   3.826   5.665   1.236
 4139TIP3    H133976   3.914   5.686   1.268
 4139TIP3    H233977   3.839   5.588   1.180
 4140TIP3   OH233978   0.165   6.009   0.264
 4140TIP3    H133979   0.140   6.089   0.312
 4140TIP3    H233980   0.093   5.996   0.202
 4141TIP3   OH233981   3.080   0.111   0.215
 4141TIP3    H133982   3.157   0.064   0.183
 4141TIP3    H233983   3.075   0.088   0.308
 4142TIP3   OH233984   1.800   0.116   0.131
 4142TIP3    H133985   1.853   0.125   0.052
 4142TIP3    H233986   1.771   0.024   0.130
 4143TIP3   OH233987   1.521   4.071   8.493
 4143TIP3    H133988   1.596   4.066   8.433
 4143TIP3    H233989   1.508   3.981   8.522
 4144TIP3   OH233990   4.378   5.531   0.154
 4144TIP3    H133991   4.433   5.524   0.075
 4144TIP3    H233992   4.383   5.623   0.178
 4145TIP3   OH233993   0.767   1.079   0.050
 4145TIP3    H133994   0.735   1.138   8.781
 4145TIP3    H233995   0.734   0.993   0.025
 4146TIP3   OH233996   4.169   5.204   8.155
 4146TIP3    H133997   4.087   5.232   8.115
 4146TIP3    H233998   4.179   5.113   8.130
 4147TIP3   OH233999   1.438   3.476   7.273
 4147TIP3    H134000   1.507   3.446   7.332
 4147TIP3    H234001   1.397   3.396   7.241
 4148TIP3   OH234002   1.485   1.490   0.706
 4148TIP3    H134003   1.575   1.483   0.675
 4148TIP3    H234004   1.435   1.434   0.647
 4149TIP3   OH234005   2.275   4.442   7.362
 4149TIP3    H134006   2.274   4.517   7.302
 4149TIP3    H234007   2.368   4.422   7.375
 4150TIP3   OH234008   2.780   4.541   8.721
 4150TIP3    H134009   2.867   4.504   8.735
 4150TIP3    H234010   2.782   4.577   8.632
 4151TIP3   OH234011   5.124   3.910   0.490
 4151TIP3    H134012   5.034   3.914   0.457
 4151TIP3    H234013   5.135   3.820   0.520
 4152TIP3   OH234014   1.006   2.476   7.955
 4152TIP3    H134015   1.037   2.567   7.953
 4152TIP3    H234016   1.050   2.433   7.882
 4153TIP3   OH234017   3.801   1.789   0.950
 4153TIP3    H134018   3.712   1.792   0.914
 4153TIP3    H234019   3.810   1.701   0.985
 4154TIP3   OH234020   2.828   2.399   0.957
 4154TIP3    H134021   2.795   2.327   1.011
 4154TIP3    H234022   2.749   2.447   0.931
 4155TIP3   OH234023   0.842   4.282   1.409
 4155TIP3    H134024   0.791   4.315   1.335
 4155TIP3    H234025   0.785   4.220   1.453
 4156TIP3   OH234026   4.900   5.112   0.531
 4156TIP3    H134027   4.965   5.109   0.602
 4156TIP3    H234028   4.907   5.200   0.496
 4157TIP3   OH234029   4.061   2.691   0.196
 4157TIP3    H134030   3.970   2.673   0.221
 4157TIP3    H234031   4.110   2.615   0.228
 4158TIP3   OH234032   2.942   5.382   8.750
 4158TIP3    H134033   2.890   5.462   8.742
 4158TIP3    H234034   2.900   5.320   8.690
 4159TIP3   OH234035   6.313   2.507   0.741
 4159TIP3    H134036   6.362   2.429   0.767
 4159TIP3    H234037   6.316   2.565   0.817
 4160TIP3   OH234038   2.065   2.422   0.804
 4160TIP3    H134039   1.985   2.466   0.832
 4160TIP3    H234040   2.070   2.344   0.859
 4161TIP3   OH234041   2.653   3.544   8.679
 4161TIP3    H134042   2.666   3.543   8.773
 4161TIP3    H234043   2.577   3.487   8.664
 4162TIP3   OH234044   3.131   5.146   8.286
 4162TIP3    H134045   3.101   5.093   8.212
 4162TIP3    H234046   3.177   5.220   8.245
 4163TIP3   OH234047   0.652   5.895   2.016
 4163TIP3    H134048   0.712   5.930   1.949
 4163TIP3    H234049   0.635   5.805   1.988
 4164TIP3   OH234050   3.607   4.069   7.383
 4164TIP3    H134051   3.568   3.988   7.415
 4164TIP3    H234052   3.686   4.080   7.435
 4165TIP3   OH234053   1.072   3.311   0.297
 4165TIP3    H134054   1.039   3.385   0.247
 4165TIP3    H234055   1.162   3.301   0.268
 4166TIP3   OH234056   0.060   1.549   7.139
 4166TIP3    H134057   0.099   1.462   7.154
 4166TIP3    H234058   0.028   1.545   7.049
 4167TIP3   OH234059   0.821   5.273   2.031
 4167TIP3    H134060   0.914   5.294   2.038
 4167TIP3    H234061   0.780   5.356   2.008
 4168TIP3   OH234062   4.728   2.856   2.206
 4168TIP3    H134063   4.750   2.898   2.289
 4168TIP3    H234064   4.721   2.927   2.143
 4169TIP3   OH234065   5.551   4.231   7.427
 4169TIP3    H134066   5.623   4.172   7.446
 4169TIP3    H234067   5.591   4.304   7.378
 4170TIP3   OH234068   4.231   6.541   1.657
 4170TIP3    H134069   4.323   6.539   1.682
 4170TIP3    H234070   4.229   6.498   1.571
 4171TIP3   OH234071   3.794   5.824   1.939
 4171TIP3    H134072   3.755   5.737   1.927
 4171TIP3    H234073   3.871   5.823   1.883
 4172TIP3   OH234074   5.838   3.030   6.782
 4172TIP3    H134075   5.873   2.945   6.754
 4172TIP3    H234076   5.852   3.088   6.707
 4173TIP3   OH234077   6.790   1.890   0.773
 4173TIP3    H134078   6.800   1.837   0.852
 4173TIP3    H234079   6.717   1.850   0.727
 4174TIP3   OH234080   6.519   5.052   7.719
 4174TIP3    H134081   6.476   5.037   7.635
 4174TIP3    H234082   6.463   5.116   7.764
 4175TIP3   OH234083   0.240   1.193   2.398
 4175TIP3    H134084   0.260   1.111   2.444
 4175TIP3    H234085   0.198   1.248   2.464
 4176TIP3   OH234086   6.565   3.670   0.820
 4176TIP3    H134087   6.539   3.582   0.795
 4176TIP3    H234088   6.621   3.657   0.897
 4177TIP3   OH234089   6.764   0.389   7.730
 4177TIP3    H134090   6.706   0.313   7.739
 4177TIP3    H234091   6.799   0.381   7.641
 4178TIP3   OH234092   5.979   6.774   6.729
 4178TIP3    H134093   6.038   6.709   6.767
 4178TIP3    H234094   5.893   6.732   6.730
 4179TIP3   OH234095   3.553   6.595   0.304
 4179TIP3    H134096   3.645   6.587   0.282
 4179TIP3    H234097   3.534   6.689   0.296
 4180TIP3   OH234098   3.701   4.780   6.516
 4180TIP3    H134099   3.720   4.729   6.437
 4180TIP3    H234100   3.667   4.863   6.484
 4181TIP3   OH234101   3.429   0.304   1.906
 4181TIP3    H134102   3.399   0.297   1.816
 4181TIP3    H234103   3.479   0.385   1.909
 4182TIP3   OH234104   4.880   0.317   2.047
 4182TIP3    H134105   4.818   0.276   2.108
 4182TIP3    H234106   4.928   0.244   2.009
 4183TIP3   OH234107   1.479   0.583   0.836
 4183TIP3    H134108   1.557   0.527   0.836
 4183TIP3    H234109   1.416   0.537   0.890
 4184TIP3   OH234110   2.492   0.942   0.906
 4184TIP3    H134111   2.408   0.947   0.861
 4184TIP3    H234112   2.551   0.901   0.843
 4185TIP3   OH234113   5.510   5.041   0.074
 4185TIP3    H134114   5.563   5.096   0.132
 4185TIP3    H234115   5.420   5.070   0.090
 4186TIP3   OH234116   6.482   0.603   1.727
 4186TIP3    H134117   6.523   0.638   1.649
 4186TIP3    H234118   6.456   0.681   1.777
 4187TIP3   OH234119   5.753   0.788   7.724
 4187TIP3    H134120   5.679   0.847   7.738
 4187TIP3    H234121   5.713   0.706   7.696
 4188TIP3   OH234122   3.230   6.172   8.547
 4188TIP3    H134123   3.292   6.239   8.576
 4188TIP3    H234124   3.144   6.207   8.568
 4189TIP3   OH234125   6.460   2.493   7.742
 4189TIP3    H134126   6.537   2.549   7.753
 4189TIP3    H234127   6.469   2.456   7.654
 4190TIP3   OH234128   4.208   1.658   8.124
 4190TIP3    H134129   4.221   1.567   8.096
 4190TIP3    H234130   4.275   1.707   8.078
 4191TIP3   OH234131   2.254   4.940   6.846
 4191TIP3    H134132   2.163   4.956   6.817
 4191TIP3    H234133   2.279   5.020   6.891
 4192TIP3   OH234134   0.231   6.170   8.428
 4192TIP3    H134135   0.238   6.152   8.522
 4192TIP3    H234136   0.162   6.112   8.397
 4193TIP3   OH234137   5.764   6.008   1.312
 4193TIP3    H134138   5.710   6.071   1.360
 4193TIP3    H234139   5.771   5.933   1.370
 4194TIP3   OH234140   3.234   2.402   0.865
 4194TIP3    H134141   3.227   2.466   0.794
 4194TIP3    H234142   3.158   2.346   0.854
 4195TIP3   OH234143   2.872   6.575   8.178
 4195TIP3    H134144   2.903   6.495   8.222
 4195TIP3    H234145   2.844   6.632   8.250
 4196TIP3   OH234146   3.028   0.792   2.108
 4196TIP3    H134147   3.090   0.771   2.178
 4196TIP3    H234148   3.059   0.874   2.071
 4197TIP3   OH234149   2.127   6.004   6.623
 4197TIP3    H134150   2.147   5.983   6.532
 4197TIP3    H234151   2.196   6.066   6.649
 4198TIP3   OH234152   0.778   1.165   1.420
 4198TIP3    H134153   0.784   1.237   1.482
 4198TIP3    H234154   0.868   1.135   1.409
 4199TIP3   OH234155   0.932   3.163   7.354
 4199TIP3    H134156   0.913   3.116   7.272
 4199TIP3    H234157   1.013   3.123   7.386
 4200TIP3   OH234158   2.445   5.292   0.010
 4200TIP3    H134159   2.507   5.221   8.797
 4200TIP3    H234160   2.382   5.256   0.074
 4201TIP3   OH234161   3.911   5.503   7.432
 4201TIP3    H134162   3.890   5.462   7.348
 4201TIP3    H234163   3.829   5.543   7.461
 4202TIP3   OH234164   3.129   4.598   6.499
 4202TIP3    H134165   3.076   4.609   6.578
 4202TIP3    H234166   3.090   4.522   6.455
 4203TIP3   OH234167   2.256   0.902   8.631
 4203TIP3    H134168   2.165   0.909   8.602
 4203TIP3    H234169   2.306   0.944   8.562
 4204TIP3   OH234170   3.699   0.886   8.069
 4204TIP3    H134171   3.716   0.980   8.073
 4204TIP3    H234172   3.783   0.848   8.043
 4205TIP3   OH234173   2.399   1.132   1.098
 4205TIP3    H134174   2.356   1.201   1.047
 4205TIP3    H234175   2.436   1.073   1.032
 4206TIP3   OH234176   4.797   4.001   8.462
 4206TIP3    H134177   4.778   3.940   8.534
 4206TIP3    H234178   4.874   3.963   8.418
 4207TIP3   OH234179   2.159   0.612   0.851
 4207TIP3    H134180   2.252   0.622   0.872
 4207TIP3    H234181   2.128   0.546   0.913
 4208TIP3   OH234182   0.517   1.651   0.592
 4208TIP3    H134183   0.476   1.610   0.669
 4208TIP3    H234184   0.509   1.585   0.523
 4209TIP3   OH234185   1.654   3.713   0.098
 4209TIP3    H134186   1.710   3.640   0.125
 4209TIP3    H234187   1.702   3.756   0.028
 4210TIP3   OH234188   0.855   5.336   7.806
 4210TIP3    H134189   0.820   5.352   7.894
 4210TIP3    H234190   0.919   5.406   7.792
 4211TIP3   OH234191   0.379   1.636   2.460
 4211TIP3    H134192   0.294   1.617   2.419
 4211TIP3    H234193   0.367   1.722   2.500
 4212TIP3   OH234194   2.329   6.154   7.859
 4212TIP3    H134195   2.315   6.116   7.772
 4212TIP3    H234196   2.252   6.208   7.874
 4213TIP3   OH234197   1.841   1.895   7.097
 4213TIP3    H134198   1.830   1.810   7.056
 4213TIP3    H234199   1.915   1.884   7.156
 4214TIP3   OH234200   3.120   1.710   1.795
 4214TIP3    H134201   3.151   1.714   1.885
 4214TIP3    H234202   3.127   1.800   1.764
 4215TIP3   OH234203   3.488   4.384   1.461
 4215TIP3    H134204   3.416   4.370   1.522
 4215TIP3    H234205   3.563   4.405   1.517
 4216TIP3   OH234206   0.777   4.724   2.079
 4216TIP3    H134207   0.747   4.782   2.148
 4216TIP3    H234208   0.809   4.647   2.125
 4217TIP3   OH234209   5.687   3.413   1.530
 4217TIP3    H134210   5.647   3.500   1.523
 4217TIP3    H234211   5.718   3.408   1.620
 4218TIP3   OH234212   2.301   2.782   7.348
 4218TIP3    H134213   2.354   2.707   7.323
 4218TIP3    H234214   2.211   2.752   7.338
 4219TIP3   OH234215   4.387   4.755   0.219
 4219TIP3    H134216   4.398   4.729   0.128
 4219TIP3    H234217   4.297   4.788   0.224
 4220TIP3   OH234218   5.390   2.473   7.270
 4220TIP3    H134219   5.311   2.484   7.217
 4220TIP3    H234220   5.453   2.535   7.234
 4221TIP3   OH234221   2.606   2.087   6.909
 4221TIP3    H134222   2.569   2.170   6.939
 4221TIP3    H234223   2.532   2.027   6.905
 4222TIP3   OH234224   2.732   1.304   6.496
 4222TIP3    H134225   2.766   1.308   6.585
 4222TIP3    H234226   2.661   1.369   6.496
 4223TIP3   OH234227   0.575   0.893   1.685
 4223TIP3    H134228   0.659   0.897   1.729
 4223TIP3    H234229   0.555   0.983   1.660
 4224TIP3   OH234230   0.322   3.987   7.804
 4224TIP3    H134231   0.229   4.005   7.818
 4224TIP3    H234232   0.354   3.961   7.890
 4225TIP3   OH234233   5.988   0.200   0.837
 4225TIP3    H134234   5.938   0.268   0.792
 4225TIP3    H234235   5.997   0.232   0.927
 4226TIP3   OH234236   3.815   0.621   1.268
 4226TIP3    H134237   3.727   0.584   1.271
 4226TIP3    H234238   3.847   0.612   1.358
 4227TIP3   OH234239   3.679   6.372   2.164
 4227TIP3    H134240   3.676   6.444   2.227
 4227TIP3    H234241   3.721   6.301   2.211
 4228TIP3   OH234242   5.342   6.311   7.987
 4228TIP3    H134243   5.326   6.404   7.970
 4228TIP3    H234244   5.277   6.287   8.052
 4229TIP3   OH234245   2.876   2.216   8.615
 4229TIP3    H134246   2.916   2.195   8.531
 4229TIP3    H234247   2.790   2.173   8.612
 4230TIP3   OH234248   0.117   3.279   2.104
 4230TIP3    H134249   0.194   3.222   2.111
 4230TIP3    H234250   0.152   3.367   2.121
 4231TIP3   OH234251   0.502   1.651   0.145
 4231TIP3    H134252   0.564   1.652   0.072
 4231TIP3    H234253   0.441   1.722   0.126
 4232TIP3   OH234254   6.724   1.030   2.770
 4232TIP3    H134255   6.681   1.093   2.828
 4232TIP3    H234256   6.784   1.083   2.718
 4233TIP3   OH234257   3.311   5.494   0.819
 4233TIP3    H134258   3.318   5.587   0.838
 4233TIP3    H234259   3.374   5.479   0.748
 4234TIP3   OH234260   0.577   0.810   0.160
 4234TIP3    H134261   0.537   0.878   0.107
 4234TIP3    H234262   0.610   0.856   0.238
 4235TIP3   OH234263   3.676   6.690   8.702
 4235TIP3    H134264   3.583   6.665   8.704
 4235TIP3    H234265   3.695   6.703   8.609
 4236TIP3   OH234266   3.572   4.602   6.769
 4236TIP3    H134267   3.526   4.563   6.843
 4236TIP3    H234268   3.503   4.626   6.707
 4237TIP3   OH234269   3.679   1.877   8.285
 4237TIP3    H134270   3.744   1.815   8.253
 4237TIP3    H234271   3.726   1.929   8.350
 4238TIP3   OH234272   3.881   3.690   7.914
 4238TIP3    H134273   3.892   3.753   7.984
 4238TIP3    H234274   3.787   3.672   7.913
 4239TIP3   OH234275   3.174   2.648   8.041
 4239TIP3    H134276   3.204   2.558   8.048
 4239TIP3    H234277   3.226   2.685   7.969
 4240TIP3   OH234278   4.534   1.518   8.296
 4240TIP3    H134279   4.550   1.586   8.361
 4240TIP3    H234280   4.616   1.510   8.248
 4241TIP3   OH234281   0.187   2.745   8.152
 4241TIP3    H134282   0.185   2.769   8.245
 4241TIP3    H234283   0.252   2.675   8.147
 4242TIP3   OH234284   0.178   1.855   8.357
 4242TIP3    H134285   0.087   1.865   8.386
 4242TIP3    H234286   0.209   1.777   8.402
 4243TIP3   OH234287   0.823   6.724   8.443
 4243TIP3    H134288   0.895   6.786   8.456
 4243TIP3    H234289   0.862   6.638   8.460
 4244TIP3   OH234290   6.289   3.673   7.825
 4244TIP3    H134291   6.300   3.757   7.870
 4244TIP3    H234292   6.356   3.674   7.756
 4245TIP3   OH234293   2.238   1.280   7.571
 4245TIP3    H134294   2.180   1.350   7.539
 4245TIP3    H234295   2.228   1.282   7.666
 4246TIP3   OH234296   0.355   0.125   8.323
 4246TIP3    H134297   0.291   0.190   8.351
 4246TIP3    H234298   0.439   0.162   8.348
 4247TIP3   OH234299   6.247   1.122   0.781
 4247TIP3    H134300   6.173   1.063   0.766
 4247TIP3    H234301   6.308   1.102   0.710
 4248TIP3   OH234302   4.238   0.159   0.490
 4248TIP3    H134303   4.177   0.092   0.519
 4248TIP3    H234304   4.311   0.154   0.552
 4249TIP3   OH234305   6.153   0.557   0.850
 4249TIP3    H134306   6.188   0.469   0.839
 4249TIP3    H234307   6.172   0.601   0.767
 4250TIP3   OH234308   5.034   2.299   8.060
 4250TIP3    H134309   5.104   2.364   8.055
 4250TIP3    H234310   5.069   2.223   8.015
 4251TIP3   OH234311   3.840   0.054   1.299
 4251TIP3    H134312   3.892   0.084   1.373
 4251TIP3    H234313   3.869   0.108   1.225
 4252TIP3   OH234314   1.361   1.330   0.536
 4252TIP3    H134315   1.423   1.265   0.569
 4252TIP3    H234316   1.382   1.339   0.443
 4253TIP3   OH234317   6.698   6.403   7.394
 4253TIP3    H134318   6.778   6.352   7.401
 4253TIP3    H234319   6.700   6.441   7.306
 4254TIP3   OH234320   2.467   5.921   0.945
 4254TIP3    H134321   2.468   5.891   0.854
 4254TIP3    H234322   2.536   5.869   0.987
 4255TIP3   OH234323   0.373   2.275   6.529
 4255TIP3    H134324   0.422   2.192   6.529
 4255TIP3    H234325   0.345   2.286   6.620
 4256TIP3   OH234326   1.632   4.356   1.048
 4256TIP3    H134327   1.674   4.371   0.963
 4256TIP3    H234328   1.626   4.443   1.087
 4257TIP3   OH234329   1.850   6.738   7.358
 4257TIP3    H134330   1.920   6.742   7.424
 4257TIP3    H234331   1.889   6.775   7.280
 4258TIP3   OH234332   5.434   4.625   7.402
 4258TIP3    H134333   5.400   4.621   7.492
 4258TIP3    H234334   5.361   4.657   7.351
 4259TIP3   OH234335   2.061   4.071   1.078
 4259TIP3    H134336   1.995   4.041   1.017
 4259TIP3    H234337   2.134   4.099   1.023
 4260TIP3   OH234338   1.660   5.096   1.383
 4260TIP3    H134339   1.713   5.164   1.341
 4260TIP3    H234340   1.570   5.129   1.378
 4261TIP3   OH234341   1.460   1.144   1.125
 4261TIP3    H134342   1.529   1.207   1.147
 4261TIP3    H234343   1.433   1.169   1.036
 4262TIP3   OH234344   5.669   1.256   0.995
 4262TIP3    H134345   5.635   1.227   0.910
 4262TIP3    H234346   5.634   1.193   1.058
 4263TIP3   OH234347   1.517   6.098   0.258
 4263TIP3    H134348   1.427   6.125   0.243
 4263TIP3    H234349   1.536   6.036   0.188
 4264TIP3   OH234350   4.255   6.575   8.127
 4264TIP3    H134351   4.194   6.587   8.054
 4264TIP3    H234352   4.301   6.493   8.107
 4265TIP3   OH234353   3.653   4.042   0.876
 4265TIP3    H134354   3.748   4.047   0.880
 4265TIP3    H234355   3.628   4.113   0.816
 4266TIP3   OH234356   1.035   5.868   1.705
 4266TIP3    H134357   1.063   5.777   1.701
 4266TIP3    H234358   1.061   5.898   1.792
 4267TIP3   OH234359   2.650   4.870   1.197
 4267TIP3    H134360   2.587   4.941   1.183
 4267TIP3    H234361   2.610   4.794   1.155
 4268TIP3   OH234362   1.799   4.013   0.941
 4268TIP3    H134363   1.719   4.044   0.899
 4268TIP3    H234364   1.773   3.989   1.030
 4269TIP3   OH234365   0.733   6.500   1.323
 4269TIP3    H134366   0.665   6.443   1.359
 4269TIP3    H234367   0.796   6.440   1.283
 4270TIP3   OH234368   5.604   6.816   7.744
 4270TIP3    H134369   5.632   0.008   7.653
 4270TIP3    H234370   5.638   0.074   7.789
 4271TIP3   OH234371   6.247   4.956   8.412
 4271TIP3    H134372   6.309   5.014   8.367
 4271TIP3    H234373   6.256   4.978   8.505
 4272TIP3   OH234374   1.410   6.175   1.931
 4272TIP3    H134375   1.322   6.211   1.926
 4272TIP3    H234376   1.404   6.104   1.995
 4273TIP3   OH234377   5.736   5.738   8.610
 4273TIP3    H134378   5.760   5.732   8.518
 4273TIP3    H234379   5.640   5.736   8.611
 4274TIP3   OH234380   0.004   2.787   7.004
 4274TIP3    H134381   6.762   2.717   6.981
 4274TIP3    H234382   6.790   2.864   6.959
 4275TIP3   OH234383   2.912   4.436   0.781
 4275TIP3    H134384   2.842   4.397   0.729
 4275TIP3    H234385   2.981   4.455   0.718
 4276TIP3   OH234386   0.556   5.165   8.271
 4276TIP3    H134387   0.637   5.115   8.281
 4276TIP3    H234388   0.578   5.253   8.302
 4277TIP3   OH234389   1.279   1.053   8.320
 4277TIP3    H134390   1.285   1.129   8.379
 4277TIP3    H234391   1.275   0.978   8.378
 4278TIP3   OH234392   5.948   5.034   6.438
 4278TIP3    H134393   5.863   5.028   6.481
 4278TIP3    H234394   5.931   5.083   6.357
 4279TIP3   OH234395   4.445   4.775   8.371
 4279TIP3    H134396   4.418   4.694   8.414
 4279TIP3    H234397   4.447   4.754   8.278
 4280TIP3   OH234398   4.352   5.571   7.006
 4280TIP3    H134399   4.261   5.572   6.975
 4280TIP3    H234400   4.345   5.569   7.101
 4281TIP3   OH234401   6.037   2.664   6.739
 4281TIP3    H134402   5.997   2.613   6.669
 4281TIP3    H234403   5.964   2.709   6.780
 4282TIP3   OH234404   1.876   0.602   7.706
 4282TIP3    H134405   1.952   0.561   7.749
 4282TIP3    H234406   1.888   0.696   7.721
 4283TIP3   OH234407   1.518   3.369   8.556
 4283TIP3    H134408   1.488   3.337   8.471
 4283TIP3    H234409   1.488   3.460   8.558
 4284TIP3   OH234410   2.175   4.093   0.657
 4284TIP3    H134411   2.248   4.094   0.596
 4284TIP3    H234412   2.129   4.011   0.639
 4285TIP3   OH234413   1.658   2.949   8.371
 4285TIP3    H134414   1.705   2.990   8.444
 4285TIP3    H234415   1.725   2.939   8.302
 4286TIP3   OH234416   0.841   1.786   8.306
 4286TIP3    H134417   0.839   1.850   8.377
 4286TIP3    H234418   0.806   1.705   8.345
 4287TIP3   OH234419   3.167   0.844   1.309
 4287TIP3    H134420   3.128   0.890   1.383
 4287TIP3    H234421   3.149   0.752   1.325
 4288TIP3   OH234422   5.343   6.801   7.876
 4288TIP3    H134423   5.433   0.008   7.855
 4288TIP3    H234424   5.348   6.766   7.965
 4289TIP3   OH234425   1.382   1.685   0.485
 4289TIP3    H134426   1.353   1.643   0.565
 4289TIP3    H234427   1.335   1.640   0.415
 4290TIP3   OH234428   1.834   4.609   0.623
 4290TIP3    H134429   1.841   4.544   0.553
 4290TIP3    H234430   1.924   4.640   0.636
 4291TIP3   OH234431   5.634   5.230   8.115
 4291TIP3    H134432   5.658   5.229   8.208
 4291TIP3    H234433   5.717   5.217   8.069
 4292TIP3   OH234434   2.095   6.367   2.414
 4292TIP3    H134435   2.015   6.419   2.404
 4292TIP3    H234436   2.137   6.403   2.492
 4293TIP3   OH234437   6.369   4.840   0.014
 4293TIP3    H134438   6.453   4.801   8.789
 4293TIP3    H234439   6.312   4.764   0.027
 4294TIP3   OH234440   2.781   5.815   2.135
 4294TIP3    H134441   2.811   5.894   2.090
 4294TIP3    H234442   2.756   5.845   2.222
 4295TIP3   OH234443   0.918   2.190   8.557
 4295TIP3    H134444   0.925   2.188   8.462
 4295TIP3    H234445   0.885   2.277   8.577
 4296TIP3   OH234446   5.280   5.804   7.046
 4296TIP3    H134447   5.258   5.767   6.960
 4296TIP3    H234448   5.285   5.729   7.104
 4297TIP3   OH234449   5.274   1.903   2.074
 4297TIP3    H134450   5.263   1.854   1.993
 4297TIP3    H234451   5.358   1.948   2.064
 4298TIP3   OH234452   0.254   1.401   2.218
 4298TIP3    H134453   0.312   1.362   2.284
 4298TIP3    H234454   0.196   1.458   2.268
 4299TIP3   OH234455   2.953   5.235   0.781
 4299TIP3    H134456   3.003   5.154   0.780
 4299TIP3    H234457   3.002   5.294   0.839
 4300TIP3   OH234458   1.996   0.958   8.537
 4300TIP3    H134459   1.917   0.994   8.577
 4300TIP3    H234460   1.965   0.893   8.475
 4301TIP3   OH234461   5.667   1.123   8.323
 4301TIP3    H134462   5.579   1.126   8.284
 4301TIP3    H234463   5.726   1.151   8.253
 4302TIP3   OH234464   1.191   4.814   0.520
 4302TIP3    H134465   1.277   4.853   0.504
 4302TIP3    H234466   1.206   4.720   0.512
 4303TIP3   OH234467   5.328   4.980   6.892
 4303TIP3    H134468   5.410   4.953   6.851
 4303TIP3    H234469   5.260   4.936   6.841
 4304TIP3   OH234470   2.882   5.038   6.408
 4304TIP3    H134471   2.955   5.001   6.359
 4304TIP3    H234472   2.894   5.133   6.401
 4305TIP3   OH234473   6.350   2.118   0.279
 4305TIP3    H134474   6.405   2.164   0.342
 4305TIP3    H234475   6.270   2.171   0.273
 4306TIP3   OH234476   0.069   3.054   7.788
 4306TIP3    H134477   0.150   3.015   7.822
 4306TIP3    H234478   6.819   3.012   7.838
 4307TIP3   OH234479   1.062   4.102   0.820
 4307TIP3    H134480   1.045   4.062   0.905
 4307TIP3    H234481   1.042   4.195   0.833
 4308TIP3   OH234482   4.165   3.271   0.121
 4308TIP3    H134483   4.076   3.236   0.125
 4308TIP3    H234484   4.154   3.362   0.094
 4309TIP3   OH234485   6.800   1.931   0.371
 4309TIP3    H134486   6.819   1.889   0.288
 4309TIP3    H234487   6.706   1.916   0.385
 4310TIP3   OH234488   2.208   5.729   0.254
 4310TIP3    H134489   2.149   5.658   0.226
 4310TIP3    H234490   2.211   5.788   0.179
 4311TIP3   OH234491   2.136   6.127   0.509
 4311TIP3    H134492   2.113   6.091   0.595
 4311TIP3    H234493   2.087   6.074   0.447
 4312TIP3   OH234494   0.542   2.609   1.341
 4312TIP3    H134495   0.541   2.616   1.245
 4312TIP3    H234496   0.572   2.695   1.371
 4313TIP3   OH234497   2.818   6.135   8.113
 4313TIP3    H134498   2.877   6.196   8.157
 4313TIP3    H234499   2.874   6.061   8.087
 4314TIP3   OH234500   6.312   0.980   8.125
 4314TIP3    H134501   6.260   1.061   8.122
 4314TIP3    H234502   6.279   0.934   8.202
 4315TIP3   OH234503   3.451   1.981   1.650
 4315TIP3    H134504   3.534   2.011   1.612
 4315TIP3    H234505   3.477   1.940   1.732
 4316TIP3   OH234506   3.004   3.029   8.097
 4316TIP3    H134507   2.945   3.007   8.024
 4316TIP3    H234508   2.947   3.034   8.173
 4317TIP3   OH234509   0.926   4.359   1.869
 4317TIP3    H134510   0.842   4.404   1.882
 4317TIP3    H234511   0.987   4.406   1.925
 4318TIP3   OH234512   6.365   2.866   7.379
 4318TIP3    H134513   6.451   2.873   7.420
 4318TIP3    H234514   6.345   2.772   7.383
 4319TIP3   OH234515   5.709   5.327   2.374
 4319TIP3    H134516   5.642   5.259   2.369
 4319TIP3    H234517   5.663   5.405   2.406
 4320TIP3   OH234518   6.416   1.905   0.513
 4320TIP3    H134519   6.332   1.949   0.502
 4320TIP3    H234520   6.451   1.899   0.424
 4321TIP3   OH234521   5.593   0.552   8.580
 4321TIP3    H134522   5.538   0.505   8.517
 4321TIP3    H234523   5.544   0.632   8.599
 4322TIP3   OH234524   5.709   1.445   1.170
 4322TIP3    H134525   5.658   1.395   1.107
 4322TIP3    H234526   5.754   1.378   1.222
 4323TIP3   OH234527   5.334   4.665   8.437
 4323TIP3    H134528   5.398   4.729   8.467
 4323TIP3    H234529   5.303   4.700   8.353
 4324TIP3   OH234530   3.793   2.314   1.163
 4324TIP3    H134531   3.808   2.308   1.069
 4324TIP3    H234532   3.756   2.402   1.176
 4325TIP3   OH234533   5.146   4.787   7.584
 4325TIP3    H134534   5.176   4.770   7.495
 4325TIP3    H234535   5.160   4.881   7.596
 4326TIP3   OH234536   4.199   1.569   0.046
 4326TIP3    H134537   4.228   1.610   0.127
 4326TIP3    H234538   4.275   1.573   8.788
 4327TIP3   OH234539   5.632   0.822   8.306
 4327TIP3    H134540   5.704   0.778   8.350
 4327TIP3    H234541   5.658   0.914   8.304
 4328TIP3   OH234542   6.383   4.041   8.329
 4328TIP3    H134543   6.385   4.136   8.343
 4328TIP3    H234544   6.353   4.005   8.412
 4329TIP3   OH234545   2.118   2.632   1.534
 4329TIP3    H134546   2.187   2.611   1.470
 4329TIP3    H234547   2.096   2.549   1.574
 4330TIP3   OH234548   1.285   4.442   8.249
 4330TIP3    H134549   1.194   4.420   8.231
 4330TIP3    H234550   1.308   4.390   8.326
 4331TIP3   OH234551   4.267   1.235   6.541
 4331TIP3    H134552   4.314   1.267   6.464
 4331TIP3    H234553   4.308   1.280   6.615
 4332TIP3   OH234554   4.626   3.604   6.213
 4332TIP3    H134555   4.719   3.616   6.193
 4332TIP3    H234556   4.581   3.668   6.158
 4333TIP3   OH234557   5.924   2.463   2.082
 4333TIP3    H134558   5.981   2.412   2.025
 4333TIP3    H234559   5.870   2.515   2.021
 4334TIP3   OH234560   3.850   4.978   6.794
 4334TIP3    H134561   3.816   5.067   6.802
 4334TIP3    H234562   3.912   4.969   6.866
 4335TIP3   OH234563   1.689   3.553   1.037
 4335TIP3    H134564   1.613   3.508   1.072
 4335TIP3    H234565   1.693   3.524   0.945
 4336TIP3   OH234566   5.385   0.156   0.351
 4336TIP3    H134567   5.323   0.189   0.287
 4336TIP3    H234568   5.456   0.119   0.300
 4337TIP3   OH234569   3.344   0.580   0.932
 4337TIP3    H134570   3.398   0.575   1.011
 4337TIP3    H234571   3.327   0.673   0.920
 4338TIP3   OH234572   1.257   6.166   7.554
 4338TIP3    H134573   1.200   6.241   7.569
 4338TIP3    H234574   1.343   6.195   7.585
 4339TIP3   OH234575   5.743   6.077   8.615
 4339TIP3    H134576   5.779   5.988   8.612
 4339TIP3    H234577   5.649   6.063   8.625
 4340TIP3   OH234578   6.210   6.631   1.713
 4340TIP3    H134579   6.296   6.661   1.685
 4340TIP3    H234580   6.186   6.563   1.651
 4341TIP3   OH234581   0.814   2.070   7.298
 4341TIP3    H134582   0.729   2.103   7.270
 4341TIP3    H234583   0.876   2.138   7.270
 4342TIP3   OH234584   6.053   2.284   1.518
 4342TIP3    H134585   6.055   2.280   1.423
 4342TIP3    H234586   6.078   2.373   1.540
 4343TIP3   OH234587   6.186   5.579   2.396
 4343TIP3    H134588   6.122   5.541   2.457
 4343TIP3    H234589   6.270   5.544   2.424
 4344TIP3   OH234590   4.616   2.074   7.346
 4344TIP3    H134591   4.589   2.095   7.435
 4344TIP3    H234592   4.543   2.025   7.309
 4345TIP3   OH234593   0.917   0.460   0.870
 4345TIP3    H134594   0.953   0.420   0.950
 4345TIP3    H234595   0.839   0.409   0.851
 4346TIP3   OH234596   4.148   6.541   7.030
 4346TIP3    H134597   4.084   6.599   6.988
 4346TIP3    H234598   4.095   6.468   7.063
 4347TIP3   OH234599   0.479   1.385   8.549
 4347TIP3    H134600   0.413   1.357   8.486
 4347TIP3    H234601   0.431   1.442   8.610
 4348TIP3   OH234602   3.264   2.445   2.411
 4348TIP3    H134603   3.255   2.362   2.363
 4348TIP3    H234604   3.258   2.513   2.343
 4349TIP3   OH234605   6.351   4.581   8.582
 4349TIP3    H134606   6.313   4.561   8.668
 4349TIP3    H234607   6.275   4.597   8.526
 4350TIP3   OH234608   2.192   0.720   7.570
 4350TIP3    H134609   2.204   0.800   7.620
 4350TIP3    H234610   2.197   0.650   7.636
 4351TIP3   OH234611   4.445   3.836   1.682
 4351TIP3    H134612   4.488   3.899   1.740
 4351TIP3    H234613   4.440   3.756   1.734
 4352TIP3   OH234614   1.415   1.809   1.622
 4352TIP3    H134615   1.381   1.846   1.541
 4352TIP3    H234616   1.427   1.716   1.604
 4353TIP3   OH234617   0.887   0.152   1.690
 4353TIP3    H134618   0.846   0.066   1.700
 4353TIP3    H234619   0.980   0.133   1.680
 4354TIP3   OH234620   3.223   3.812   1.035
 4354TIP3    H134621   3.165   3.877   0.996
 4354TIP3    H234622   3.176   3.729   1.025
 4355TIP3   OH234623   4.336   3.777   1.307
 4355TIP3    H134624   4.388   3.840   1.258
 4355TIP3    H234625   4.252   3.774   1.261
 4356TIP3   OH234626   2.291   4.827   1.323
 4356TIP3    H134627   2.241   4.769   1.265
 4356TIP3    H234628   2.273   4.794   1.411
 4357TIP3   OH234629   0.358   4.570   7.454
 4357TIP3    H134630   0.352   4.627   7.530
 4357TIP3    H234631   0.427   4.609   7.400
 4358TIP3   OH234632   3.453   4.382   2.152
 4358TIP3    H134633   3.501   4.419   2.226
 4358TIP3    H234634   3.521   4.363   2.087
 4359TIP3   OH234635   4.065   2.050   2.798
 4359TIP3    H134636   4.048   2.127   2.743
 4359TIP3    H234637   4.156   2.062   2.826
 4360TIP3   OH234638   0.821   6.723   1.759
 4360TIP3    H134639   0.867   6.675   1.690
 4360TIP3    H234640   0.753   6.663   1.789
 4361TIP3   OH234641   5.127   2.473   1.755
 4361TIP3    H134642   5.149   2.433   1.839
 4361TIP3    H234643   5.049   2.526   1.773
 4362TIP3   OH234644   4.879   2.087   6.215
 4362TIP3    H134645   4.935   2.011   6.201
 4362TIP3    H234646   4.822   2.063   6.288
 4363TIP3   OH234647   6.098   2.112   6.910
 4363TIP3    H134648   6.101   2.085   6.818
 4363TIP3    H234649   6.155   2.189   6.914
 4364TIP3   OH234650   3.596   2.064   7.642
 4364TIP3    H134651   3.522   2.124   7.637
 4364TIP3    H234652   3.653   2.090   7.570
 4365TIP3   OH234653   1.859   3.924   0.636
 4365TIP3    H134654   1.784   3.870   0.610
 4365TIP3    H234655   1.833   3.964   0.719
 4366TIP3   OH234656   5.664   4.761   6.999
 4366TIP3    H134657   5.694   4.834   6.944
 4366TIP3    H234658   5.640   4.802   7.081
 4367TIP3   OH234659   0.315   2.286   1.386
 4367TIP3    H134660   0.367   2.332   1.453
 4367TIP3    H234661   0.229   2.275   1.426
 4368TIP3   OH234662   2.275   1.985   8.713
 4368TIP3    H134663   2.180   1.975   8.703
 4368TIP3    H234664   2.290   2.079   8.705
 4369TIP3   OH234665   3.501   4.102   0.329
 4369TIP3    H134666   3.430   4.118   0.267
 4369TIP3    H234667   3.457   4.092   0.413
 4370TIP3   OH234668   4.013   5.549   8.212
 4370TIP3    H134669   4.025   5.644   8.215
 4370TIP3    H234670   4.102   5.514   8.215
 4371TIP3   OH234671   5.157   2.643   2.748
 4371TIP3    H134672   5.086   2.602   2.799
 4371TIP3    H234673   5.201   2.569   2.706
 4372TIP3   OH234674   4.094   6.718   0.500
 4372TIP3    H134675   4.031   6.677   0.559
 4372TIP3    H234676   4.179   6.689   0.532
 4373TIP3   OH234677   0.660   6.286   2.217
 4373TIP3    H134678   0.639   6.194   2.200
 4373TIP3    H234679   0.595   6.335   2.166
 4374TIP3   OH234680   6.063   4.191   0.225
 4374TIP3    H134681   6.136   4.132   0.242
 4374TIP3    H234682   6.062   4.200   0.130
 4375TIP3   OH234683   5.610   6.327   8.333
 4375TIP3    H134684   5.642   6.270   8.263
 4375TIP3    H234685   5.640   6.415   8.307
 4376TIP3   OH234686   3.496   3.936   6.464
 4376TIP3    H134687   3.548   3.898   6.393
 4376TIP3    H234688   3.503   4.031   6.451
 4377TIP3   OH234689   4.097   5.634   6.928
 4377TIP3    H134690   4.071   5.673   6.844
 4377TIP3    H234691   4.016   5.629   6.978
 4378TIP3   OH234692   2.106   3.047   0.905
 4378TIP3    H134693   2.189   3.092   0.889
 4378TIP3    H234694   2.120   2.959   0.871
 4379TIP3   OH234695   2.078   3.575   1.360
 4379TIP3    H134696   2.061   3.567   1.454
 4379TIP3    H234697   1.998   3.614   1.324
 4380TIP3   OH234698   3.871   6.311   1.555
 4380TIP3    H134699   3.797   6.291   1.498
 4380TIP3    H234700   3.938   6.247   1.531
 4381TIP3   OH234701   1.470   4.708   0.441
 4381TIP3    H134702   1.526   4.786   0.448
 4381TIP3    H234703   1.504   4.648   0.507
 4382TIP3   OH234704   6.759   0.056   8.209
 4382TIP3    H134705   6.680   0.052   8.263
 4382TIP3    H234706   6.798   6.789   8.216
 4383TIP3   OH234707   4.540   1.104   7.616
 4383TIP3    H134708   4.482   1.079   7.544
 4383TIP3    H234709   4.541   1.028   7.674
 4384TIP3   OH234710   1.789   2.644   6.952
 4384TIP3    H134711   1.775   2.612   7.041
 4384TIP3    H234712   1.702   2.670   6.922
 4385TIP3   OH234713   1.382   3.098   8.439
 4385TIP3    H134714   1.424   3.156   8.375
 4385TIP3    H234715   1.445   3.027   8.450
 4386TIP3   OH234716   1.966   2.843   8.773
 4386TIP3    H134717   1.940   2.829   0.064
 4386TIP3    H234718   1.993   2.935   8.769
 4387TIP3   OH234719   3.309   6.167   0.398
 4387TIP3    H134720   3.400   6.161   0.370
 4387TIP3    H234721   3.313   6.210   0.484
 4388TIP3   OH234722   3.855   3.606   6.957
 4388TIP3    H134723   3.928   3.550   6.932
 4388TIP3    H234724   3.799   3.608   6.879
 4389TIP3   OH234725   4.671   5.563   1.012
 4389TIP3    H134726   4.586   5.540   0.974
 4389TIP3    H234727   4.653   5.639   1.067
 4390TIP3   OH234728   0.473   5.635   8.055
 4390TIP3    H134729   0.420   5.649   8.133
 4390TIP3    H234730   0.485   5.540   8.050
 4391TIP3   OH234731   0.504   0.755   1.175
 4391TIP3    H134732   0.476   0.783   1.263
 4391TIP3    H234733   0.495   0.834   1.121
 4392TIP3   OH234734   5.225   4.959   0.313
 4392TIP3    H134735   5.302   5.005   0.279
 4392TIP3    H234736   5.217   4.990   0.404
 4393TIP3   OH234737   3.615   4.926   1.229
 4393TIP3    H134738   3.631   4.878   1.148
 4393TIP3    H234739   3.520   4.927   1.238
 4394TIP3   OH234740   5.313   5.255   1.183
 4394TIP3    H134741   5.381   5.254   1.116
 4394TIP3    H234742   5.342   5.322   1.246
 4395TIP3   OH234743   5.719   4.815   0.679
 4395TIP3    H134744   5.633   4.780   0.658
 4395TIP3    H234745   5.777   4.776   0.614
 4396TIP3   OH234746   1.643   4.710   8.020
 4396TIP3    H134747   1.695   4.683   8.097
 4396TIP3    H234748   1.598   4.630   7.992
 4397TIP3   OH234749   3.415   6.376   8.650
 4397TIP3    H134750   3.425   6.331   8.734
 4397TIP3    H234751   3.505   6.394   8.622
 4398TIP3   OH234752   4.745   5.883   8.630
 4398TIP3    H134753   4.812   5.826   8.593
 4398TIP3    H234754   4.740   5.957   8.570
 4399TIP3   OH234755   0.173   5.996   8.633
 4399TIP3    H134756   0.234   5.969   8.702
 4399TIP3    H234757   0.121   5.917   8.615
 4400TIP3   OH234758   5.994   6.185   0.638
 4400TIP3    H134759   5.969   6.254   0.699
 4400TIP3    H234760   6.004   6.230   0.554
 4401TIP3   OH234761   3.539   1.818   1.292
 4401TIP3    H134762   3.575   1.777   1.371
 4401TIP3    H234763   3.546   1.912   1.308
 4402TIP3   OH234764   3.635   5.122   7.082
 4402TIP3    H134765   3.665   5.210   7.059
 4402TIP3    H234766   3.567   5.103   7.018
 4403TIP3   OH234767   2.329   6.435   8.555
 4403TIP3    H134768   2.412   6.396   8.583
 4403TIP3    H234769   2.267   6.363   8.561
 4404TIP3   OH234770   0.956   6.587   0.120
 4404TIP3    H134771   0.989   6.670   0.155
 4404TIP3    H234772   1.014   6.567   0.046
 4405TIP3   OH234773   3.358   0.324   6.698
 4405TIP3    H134774   3.283   0.374   6.731
 4405TIP3    H234775   3.325   0.235   6.686
 4406TIP3   OH234776   3.736   6.440   1.283
 4406TIP3    H134777   3.761   6.476   1.197
 4406TIP3    H234778   3.720   6.517   1.337
 4407TIP3   OH234779   5.905   0.711   1.216
 4407TIP3    H134780   5.811   0.706   1.235
 4407TIP3    H234781   5.944   0.643   1.270
 4408TIP3   OH234782   1.177   3.990   0.094
 4408TIP3    H134783   1.255   3.960   0.047
 4408TIP3    H234784   1.182   4.085   0.090
 4409TIP3   OH234785   5.599   4.093   8.754
 4409TIP3    H134786   5.682   4.077   8.799
 4409TIP3    H234787   5.542   4.021   8.782
 4410TIP3   OH234788   0.839   5.633   8.509
 4410TIP3    H134789   0.830   5.548   8.552
 4410TIP3    H234790   0.870   5.692   8.577
 4411TIP3   OH234791   5.352   1.323   8.755
 4411TIP3    H134792   5.310   1.296   8.673
 4411TIP3    H234793   5.335   1.250   0.015
 4412TIP3   OH234794   5.821   4.548   0.122
 4412TIP3    H134795   5.913   4.564   0.103
 4412TIP3    H234796   5.819   4.459   0.156
 4413TIP3   OH234797   5.032   2.872   0.148
 4413TIP3    H134798   5.048   2.785   0.184
 4413TIP3    H234799   5.088   2.877   0.071
 4414TIP3   OH234800   0.346   4.014   7.219
 4414TIP3    H134801   0.409   4.072   7.176
 4414TIP3    H234802   0.347   3.934   7.166
 4415TIP3   OH234803   3.031   1.454   8.791
 4415TIP3    H134804   3.038   1.535   8.740
 4415TIP3    H234805   2.939   1.430   8.785
 4416TIP3   OH234806   2.076   2.142   0.925
 4416TIP3    H134807   2.168   2.168   0.923
 4416TIP3    H234808   2.065   2.100   1.010
 4417TIP3   OH234809   1.859   1.185   2.206
 4417TIP3    H134810   1.787   1.241   2.235
 4417TIP3    H234811   1.938   1.234   2.230
 4418TIP3   OH234812   3.626   2.368   1.698
 4418TIP3    H134813   3.659   2.336   1.614
 4418TIP3    H234814   3.611   2.461   1.684
 4419TIP3   OH234815   6.046   5.423   8.417
 4419TIP3    H134816   6.047   5.329   8.431
 4419TIP3    H234817   5.993   5.435   8.338
 4420TIP3   OH234818   4.378   5.479   1.947
 4420TIP3    H134819   4.459   5.529   1.941
 4420TIP3    H234820   4.359   5.476   2.041
 4421TIP3   OH234821   2.270   4.250   0.123
 4421TIP3    H134822   2.320   4.224   0.046
 4421TIP3    H234823   2.207   4.179   0.135
 4422TIP3   OH234824   0.424   1.235   0.775
 4422TIP3    H134825   0.499   1.292   0.755
 4422TIP3    H234826   0.387   1.270   0.856
 4423TIP3   OH234827   0.504   1.910   8.530
 4423TIP3    H134828   0.437   1.868   8.584
 4423TIP3    H234829   0.582   1.857   8.544
 4424TIP3   OH234830   1.411   4.306   0.547
 4424TIP3    H134831   1.418   4.275   0.456
 4424TIP3    H234832   1.364   4.236   0.592
 4425TIP3   OH234833   2.386   4.449   0.325
 4425TIP3    H134834   2.474   4.425   0.353
 4425TIP3    H234835   2.353   4.371   0.280
 4426TIP3   OH234836   3.996   4.501   8.790
 4426TIP3    H134837   4.089   4.480   8.790
 4426TIP3    H234838   3.987   4.571   0.055
 4427TIP3   OH234839   3.073   5.428   0.613
 4427TIP3    H134840   3.160   5.420   0.653
 4427TIP3    H234841   3.015   5.381   0.673
 4428TIP3   OH234842   3.975   4.406   7.276
 4428TIP3    H134843   3.967   4.343   7.205
 4428TIP3    H234844   4.062   4.444   7.265
 4429TIP3   OH234845   6.185   2.402   6.903
 4429TIP3    H134846   6.172   2.430   6.813
 4429TIP3    H234847   6.280   2.393   6.913
 4430TIP3   OH234848   1.250   5.890   1.522
 4430TIP3    H134849   1.189   5.924   1.456
 4430TIP3    H234850   1.223   5.934   1.603
 4431TIP3   OH234851   1.400   2.612   0.186
 4431TIP3    H134852   1.322   2.587   0.235
 4431TIP3    H234853   1.467   2.551   0.215
 4432TIP3   OH234854   1.284   3.075   0.394
 4432TIP3    H134855   1.193   3.050   0.407
 4432TIP3    H234856   1.289   3.105   0.303
 4433TIP3   OH234857   4.299   5.052   7.391
 4433TIP3    H134858   4.271   5.064   7.482
 4433TIP3    H234859   4.253   5.121   7.343
 4434TIP3   OH234860   6.759   6.622   0.604
 4434TIP3    H134861   6.818   6.658   0.537
 4434TIP3    H234862   6.799   6.648   0.687
 4435TIP3   OH234863   4.928   3.370   7.621
 4435TIP3    H134864   5.007   3.318   7.635
 4435TIP3    H234865   4.959   3.459   7.606
 4436TIP3   OH234866   3.499   1.074   6.463
 4436TIP3    H134867   3.509   1.087   6.557
 4436TIP3    H234868   3.587   1.053   6.432
 4437TIP3   OH234869   0.418   5.974   7.174
 4437TIP3    H134870   0.434   5.980   7.080
 4437TIP3    H234871   0.499   6.006   7.214
 4438TIP3   OH234872   3.743   0.162   0.270
 4438TIP3    H134873   3.776   0.161   0.360
 4438TIP3    H234874   3.794   0.229   0.226
 4439TIP3   OH234875   0.836   0.608   7.747
 4439TIP3    H134876   0.839   0.612   7.651
 4439TIP3    H234877   0.925   0.581   7.772
 4440TIP3   OH234878   2.356   1.894   2.232
 4440TIP3    H134879   2.394   1.808   2.215
 4440TIP3    H234880   2.393   1.951   2.165
 4441TIP3   OH234881   6.717   5.391   8.572
 4441TIP3    H134882   6.726   5.421   8.662
 4441TIP3    H234883   6.655   5.319   8.577
 4442TIP3   OH234884   6.803   3.861   7.743
 4442TIP3    H134885   0.004   3.790   7.804
 4442TIP3    H234886   6.742   3.918   7.792
 4443TIP3   OH234887   0.833   0.148   0.578
 4443TIP3    H134888   0.747   0.131   0.542
 4443TIP3    H234889   0.893   0.101   0.521
 4444TIP3   OH234890   0.535   1.520   2.287
 4444TIP3    H134891   0.477   1.556   2.354
 4444TIP3    H234892   0.581   1.448   2.332
 4445TIP3   OH234893   0.876   5.734   0.501
 4445TIP3    H134894   0.917   5.820   0.507
 4445TIP3    H234895   0.793   5.743   0.547
 4446TIP3   OH234896   6.331   2.689   0.973
 4446TIP3    H134897   6.314   2.728   1.058
 4446TIP3    H234898   6.388   2.752   0.929
 4447TIP3   OH234899   3.295   6.263   8.187
 4447TIP3    H134900   3.200   6.254   8.189
 4447TIP3    H234901   3.310   6.355   8.165
 4448TIP3   OH234902   2.824   1.823   7.112
 4448TIP3    H134903   2.744   1.788   7.151
 4448TIP3    H234904   2.895   1.775   7.156
 4449TIP3   OH234905   2.323   0.180   7.119
 4449TIP3    H134906   2.414   0.208   7.132
 4449TIP3    H234907   2.319   0.157   7.026
 4450TIP3   OH234908   0.589   1.001   0.932
 4450TIP3    H134909   0.648   1.033   1.000
 4450TIP3    H234910   0.562   1.079   0.885
 4451TIP3   OH234911   4.709   4.173   7.203
 4451TIP3    H134912   4.705   4.113   7.277
 4451TIP3    H234913   4.787   4.145   7.154
 4452TIP3   OH234914   1.593   6.369   0.362
 4452TIP3    H134915   1.587   6.275   0.344
 4452TIP3    H234916   1.685   6.391   0.349
 4453TIP3   OH234917   5.068   6.121   1.370
 4453TIP3    H134918   5.037   6.053   1.310
 4453TIP3    H234919   5.161   6.131   1.350
 4454TIP3   OH234920   0.215   1.657   6.827
 4454TIP3    H134921   0.247   1.630   6.741
 4454TIP3    H234922   0.129   1.616   6.834
 4455TIP3   OH234923   1.063   2.397   6.386
 4455TIP3    H134924   1.070   2.440   6.471
 4455TIP3    H234925   1.063   2.468   6.322
 4456TIP3   OH234926   5.648   4.125   2.012
 4456TIP3    H134927   5.613   4.214   2.000
 4456TIP3    H234928   5.725   4.122   1.954
 4457TIP3   OH234929   5.461   2.078   2.532
 4457TIP3    H134930   5.377   2.123   2.538
 4457TIP3    H234931   5.524   2.148   2.512
 4458TIP3   OH234932   5.447   0.877   0.867
 4458TIP3    H134933   5.480   0.835   0.946
 4458TIP3    H234934   5.469   0.816   0.796
 4459TIP3   OH234935   5.578   3.308   7.426
 4459TIP3    H134936   5.646   3.254   7.385
 4459TIP3    H234937   5.608   3.320   7.516
 4460TIP3   OH234938   0.490   2.712   1.902
 4460TIP3    H134939   0.439   2.792   1.885
 4460TIP3    H234940   0.429   2.641   1.881
 4461TIP3   OH234941   5.587   0.476   0.064
 4461TIP3    H134942   5.531   0.484   0.141
 4461TIP3    H234943   5.526   0.464   8.791
 4462TIP3   OH234944   5.569   6.067   1.828
 4462TIP3    H134945   5.526   6.095   1.748
 4462TIP3    H234946   5.512   6.098   1.898
 4463TIP3   OH234947   6.673   2.625   7.848
 4463TIP3    H134948   6.749   2.568   7.838
 4463TIP3    H234949   6.680   2.659   7.938
 4464TIP3   OH234950   1.853   3.711   7.444
 4464TIP3    H134951   1.810   3.797   7.451
 4464TIP3    H234952   1.913   3.708   7.518
 4465TIP3   OH234953   5.653   2.359   7.428
 4465TIP3    H134954   5.623   2.443   7.462
 4465TIP3    H234955   5.576   2.320   7.387
 4466TIP3   OH234956   4.687   1.831   6.178
 4466TIP3    H134957   4.674   1.890   6.253
 4466TIP3    H234958   4.628   1.866   6.111
 4467TIP3   OH234959   4.757   5.912   0.932
 4467TIP3    H134960   4.765   5.954   0.846
 4467TIP3    H234961   4.664   5.913   0.951
 4468TIP3   OH234962   0.140   2.588   0.047
 4468TIP3    H134963   0.112   2.675   0.077
 4468TIP3    H234964   0.108   2.582   8.757
 4469TIP3   OH234965   6.093   1.618   0.493
 4469TIP3    H134966   6.087   1.530   0.530
 4469TIP3    H234967   6.057   1.675   0.561
 4470TIP3   OH234968   3.834   1.992   1.154
 4470TIP3    H134969   3.863   2.060   1.093
 4470TIP3    H234970   3.798   1.923   1.098
 4471TIP3   OH234971   1.690   1.378   2.305
 4471TIP3    H134972   1.658   1.462   2.274
 4471TIP3    H234973   1.616   1.339   2.352
 4472TIP3   OH234974   5.758   2.042   1.090
 4472TIP3    H134975   5.791   2.117   1.139
 4472TIP3    H234976   5.776   2.064   0.999
 4473TIP3   OH234977   5.828   2.213   0.860
 4473TIP3    H134978   5.886   2.286   0.884
 4473TIP3    H234979   5.760   2.253   0.805
 4474TIP3   OH234980   4.441   2.222   8.039
 4474TIP3    H134981   4.479   2.310   8.039
 4474TIP3    H234982   4.363   2.229   7.983
 4475TIP3   OH234983   1.803   4.444   6.585
 4475TIP3    H134984   1.749   4.415   6.512
 4475TIP3    H234985   1.843   4.363   6.619
 4476TIP3   OH234986   2.380   4.428   1.263
 4476TIP3    H134987   2.343   4.341   1.282
 4476TIP3    H234988   2.331   4.487   1.320
 4477TIP3   OH234989   6.605   5.196   7.277
 4477TIP3    H134990   6.650   5.210   7.361
 4477TIP3    H234991   6.584   5.103   7.276
 4478TIP3   OH234992   5.713   4.190   0.389
 4478TIP3    H134993   5.723   4.176   0.294
 4478TIP3    H234994   5.710   4.102   0.425
 4479TIP3   OH234995   0.038   1.134   8.268
 4479TIP3    H134996   0.086   1.080   8.205
 4479TIP3    H234997   0.021   1.076   8.342
 4480TIP3   OH234998   5.696   5.769   6.943
 4480TIP3    H134999   5.737   5.731   7.020
 4480TIP3    H235000   5.637   5.702   6.910
 4481TIP3   OH235001   5.556   2.093   7.016
 4481TIP3    H135002   5.587   2.072   6.928
 4481TIP3    H235003   5.602   2.173   7.040
 4482TIP3   OH235004   2.142   1.910   0.231
 4482TIP3    H135005   2.213   1.974   0.233
 4482TIP3    H235006   2.119   1.902   0.138
 4483TIP3   OH235007   5.422   3.162   2.323
 4483TIP3    H135008   5.455   3.112   2.397
 4483TIP3    H235009   5.470   3.245   2.327
 4484TIP3   OH235010   3.668   5.544   0.413
 4484TIP3    H135011   3.721   5.469   0.440
 4484TIP3    H235012   3.634   5.580   0.495
 4485TIP3   OH235013   1.217   5.719   0.981
 4485TIP3    H135014   1.177   5.778   0.917
 4485TIP3    H235015   1.143   5.687   1.033
 4486TIP3   OH235016   4.962   6.570   7.458
 4486TIP3    H135017   4.939   6.642   7.516
 4486TIP3    H235018   4.909   6.496   7.488
 4487TIP3   OH235019   3.328   0.757   1.892
 4487TIP3    H135020   3.246   0.749   1.842
 4487TIP3    H235021   3.309   0.821   1.960
 4488TIP3   OH235022   5.529   6.136   2.095
 4488TIP3    H135023   5.530   6.040   2.090
 4488TIP3    H235024   5.618   6.160   2.118
 4489TIP3   OH235025   4.069   2.500   1.638
 4489TIP3    H135026   4.048   2.433   1.703
 4489TIP3    H235027   4.164   2.496   1.629
 4490TIP3   OH235028   1.773   2.148   7.906
 4490TIP3    H135029   1.791   2.080   7.971
 4490TIP3    H235030   1.678   2.157   7.906
 4491TIP3   OH235031   2.532   6.076   0.166
 4491TIP3    H135032   2.487   6.121   0.094
 4491TIP3    H235033   2.600   6.024   0.123
 4492TIP3   OH235034   3.095   4.663   7.208
 4492TIP3    H135035   3.114   4.591   7.269
 4492TIP3    H235036   3.181   4.698   7.184
 4493TIP3   OH235037   3.873   6.245   7.488
 4493TIP3    H135038   3.837   6.324   7.448
 4493TIP3    H235039   3.812   6.175   7.463
 4494TIP3   OH235040   0.937   0.717   7.495
 4494TIP3    H135041   0.867   0.773   7.461
 4494TIP3    H235042   0.980   0.770   7.562
 4495TIP3   OH235043   2.372   6.249   0.495
 4495TIP3    H135044   2.459   6.217   0.519
 4495TIP3    H235045   2.311   6.188   0.535
 4496TIP3   OH235046   5.555   3.668   7.434
 4496TIP3    H135047   5.552   3.703   7.345
 4496TIP3    H235048   5.480   3.709   7.478
 4497TIP3   OH235049   3.412   3.052   6.462
 4497TIP3    H135050   3.351   3.125   6.471
 4497TIP3    H235051   3.360   2.974   6.482
 4498TIP3   OH235052   5.420   4.595   1.250
 4498TIP3    H135053   5.464   4.646   1.318
 4498TIP3    H235054   5.328   4.594   1.276
 4499TIP3   OH235055   1.001   1.700   8.699
 4499TIP3    H135056   1.096   1.709   8.707
 4499TIP3    H235057   0.986   1.680   8.607
 4500TIP3   OH235058   4.914   5.876   0.465
 4500TIP3    H135059   4.902   5.782   0.479
 4500TIP3    H235060   4.957   5.883   0.380
 4501TIP3   OH235061   2.020   0.745   0.052
 4501TIP3    H135062   1.945   0.803   0.053
 4501TIP3    H235063   2.000   0.679   0.118
 4502TIP3   OH235064   4.470   3.339   1.595
 4502TIP3    H135065   4.506   3.391   1.523
 4502TIP3    H235066   4.524   3.260   1.597
 4503TIP3   OH235067   5.844   0.163   1.917
 4503TIP3    H135068   5.925   0.117   1.894
 4503TIP3    H235069   5.814   0.121   1.997
 4504TIP3   OH235070   6.728   0.094   0.218
 4504TIP3    H135071   6.651   0.038   0.206
 4504TIP3    H235072   6.800   0.043   0.181
 4505TIP3   OH235073   6.307   3.089   0.406
 4505TIP3    H135074   6.253   3.029   0.353
 4505TIP3    H235075   6.391   3.044   0.413
 4506TIP3   OH235076   2.001   4.802   0.902
 4506TIP3    H135077   1.917   4.823   0.944
 4506TIP3    H235078   2.058   4.776   0.975
 4507TIP3   OH235079   5.494   0.794   8.663
 4507TIP3    H135080   5.568   0.853   8.650
 4507TIP3    H235081   5.421   0.838   8.620
 4508TIP3   OH235082   2.848   1.355   6.756
 4508TIP3    H135083   2.815   1.426   6.810
 4508TIP3    H235084   2.932   1.331   6.796
 4509TIP3   OH235085   2.046   1.246   0.383
 4509TIP3    H135086   2.002   1.267   0.301
 4509TIP3    H235087   2.123   1.303   0.384
 4510TIP3   OH235088   5.764   2.332   0.224
 4510TIP3    H135089   5.781   2.238   0.221
 4510TIP3    H235090   5.673   2.339   0.253
 4511TIP3   OH235091   6.289   2.281   7.829
 4511TIP3    H135092   6.294   2.199   7.780
 4511TIP3    H235093   6.314   2.349   7.767
 4512TIP3   OH235094   6.693   4.864   1.699
 4512TIP3    H135095   6.709   4.783   1.747
 4512TIP3    H235096   6.623   4.843   1.638
 4513TIP3   OH235097   4.487   5.776   7.195
 4513TIP3    H135098   4.548   5.782   7.269
 4513TIP3    H235099   4.425   5.707   7.221
 4514TIP3   OH235100   1.045   4.995   7.027
 4514TIP3    H135101   0.978   5.025   7.089
 4514TIP3    H235102   0.994   4.953   6.957
 4515TIP3   OH235103   5.728   3.187   2.327
 4515TIP3    H135104   5.694   3.276   2.317
 4515TIP3    H235105   5.660   3.141   2.376
 4516TIP3   OH235106   1.927   3.421   1.918
 4516TIP3    H135107   2.014   3.419   1.958
 4516TIP3    H235108   1.878   3.352   1.964
 4517TIP3   OH235109   6.329   5.019   1.315
 4517TIP3    H135110   6.362   4.932   1.293
 4517TIP3    H235111   6.285   5.049   1.236
 4518TIP3   OH235112   6.238   5.648   0.995
 4518TIP3    H135113   6.202   5.567   0.960
 4518TIP3    H235114   6.216   5.714   0.929
 4519TIP3   OH235115   6.061   0.444   0.429
 4519TIP3    H135116   6.014   0.526   0.410
 4519TIP3    H235117   6.123   0.468   0.498
 4520TIP3   OH235118   2.795   3.880   7.618
 4520TIP3    H135119   2.743   3.908   7.544
 4520TIP3    H235120   2.795   3.784   7.613
 4521TIP3   OH235121   4.772   0.601   1.733
 4521TIP3    H135122   4.677   0.599   1.720
 4521TIP3    H235123   4.807   0.614   1.645
 4522TIP3   OH235124   1.102   3.649   1.884
 4522TIP3    H135125   1.081   3.665   1.976
 4522TIP3    H235126   1.142   3.562   1.884
 4523TIP3   OH235127   5.548   2.366   8.556
 4523TIP3    H135128   5.515   2.415   8.632
 4523TIP3    H235129   5.472   2.355   8.499
 4524TIP3   OH235130   5.315   1.028   1.585
 4524TIP3    H135131   5.255   0.954   1.596
 4524TIP3    H235132   5.317   1.070   1.671
 4525TIP3   OH235133   2.227   5.984   8.524
 4525TIP3    H135134   2.240   5.903   8.572
 4525TIP3    H235135   2.142   5.975   8.482
 4526TIP3   OH235136   0.520   4.526   0.357
 4526TIP3    H135137   0.594   4.497   0.304
 4526TIP3    H235138   0.559   4.571   0.431
 4527TIP3   OH235139   2.460   0.598   7.268
 4527TIP3    H135140   2.374   0.593   7.228
 4527TIP3    H235141   2.475   0.692   7.281
 4528TIP3   OH235142   1.950   4.714   7.902
 4528TIP3    H135143   1.913   4.792   7.943
 4528TIP3    H235144   1.950   4.648   7.971
 4529TIP3   OH235145   1.326   3.742   1.015
 4529TIP3    H135146   1.409   3.737   0.968
 4529TIP3    H235147   1.330   3.825   1.063
 4530TIP3   OH235148   5.234   5.138   0.076
 4530TIP3    H135149   5.248   5.220   0.124
 4530TIP3    H235150   5.155   5.101   0.114
 4531TIP3   OH235151   1.340   0.553   8.287
 4531TIP3    H135152   1.359   0.629   8.231
 4531TIP3    H235153   1.384   0.574   8.370
 4532TIP3   OH235154   4.490   1.688   0.651
 4532TIP3    H135155   4.447   1.616   0.605
 4532TIP3    H235156   4.478   1.667   0.744
 4533TIP3   OH235157   3.747   4.408   0.296
 4533TIP3    H135158   3.708   4.408   0.208
 4533TIP3    H235159   3.809   4.336   0.294
 4534TIP3   OH235160   2.786   3.077   0.202
 4534TIP3    H135161   2.878   3.060   0.226
 4534TIP3    H235162   2.774   3.170   0.221
 4535TIP3   OH235163   6.677   4.643   7.450
 4535TIP3    H135164   6.620   4.620   7.523
 4535TIP3    H235165   6.750   4.582   7.457
 4536TIP3   OH235166   0.714   2.112   0.331
 4536TIP3    H135167   0.662   2.191   0.315
 4536TIP3    H235168   0.689   2.053   0.260
 4537TIP3   OH235169   5.252   6.393   7.217
 4537TIP3    H135170   5.280   6.379   7.126
 4537TIP3    H235171   5.319   6.450   7.254
 4538TIP3   OH235172   2.617   6.164   0.572
 4538TIP3    H135173   2.664   6.190   0.492
 4538TIP3    H235174   2.662   6.085   0.602
 4539TIP3   OH235175   3.558   4.333   7.634
 4539TIP3    H135176   3.536   4.244   7.607
 4539TIP3    H235177   3.538   4.387   7.558
 4540TIP3   OH235178   3.108   4.999   0.975
 4540TIP3    H135179   3.134   5.056   1.047
 4540TIP3    H235180   3.137   4.912   1.002
 4541TIP3   OH235181   4.274   5.777   1.554
 4541TIP3    H135182   4.201   5.780   1.615
 4541TIP3    H235183   4.325   5.701   1.581
 4542TIP3   OH235184   2.374   3.721   7.461
 4542TIP3    H135185   2.342   3.635   7.489
 4542TIP3    H235186   2.340   3.730   7.371
 4543TIP3   OH235187   1.450   6.800   0.052
 4543TIP3    H135188   1.443   6.772   8.761
 4543TIP3    H235189   1.540   6.780   0.076
 4544TIP3   OH235190   0.116   6.358   8.278
 4544TIP3    H135191   0.152   6.336   8.191
 4544TIP3    H235192   0.168   6.306   8.339
 4545TIP3   OH235193   4.942   5.386   8.391
 4545TIP3    H135194   4.968   5.420   8.305
 4545TIP3    H235195   4.973   5.295   8.390
 4546TIP3   OH235196   0.204   5.394   7.537
 4546TIP3    H135197   0.204   5.442   7.620
 4546TIP3    H235198   0.292   5.404   7.503
 4547TIP3   OH235199   3.416   5.513   1.147
 4547TIP3    H135200   3.328   5.506   1.183
 4547TIP3    H235201   3.405   5.500   1.053
 4548TIP3   OH235202   3.179   4.488   0.654
 4548TIP3    H135203   3.205   4.572   0.614
 4548TIP3    H235204   3.262   4.446   0.677
 4549TIP3   OH235205   4.554   3.820   7.669
 4549TIP3    H135206   4.529   3.827   7.577
 4549TIP3    H235207   4.503   3.887   7.714
 4550TIP3   OH235208   3.642   0.536   6.871
 4550TIP3    H135209   3.552   0.567   6.861
 4550TIP3    H235210   3.671   0.516   6.782
 4551TIP3   OH235211   4.346   0.198   8.230
 4551TIP3    H135212   4.372   0.137   8.299
 4551TIP3    H235213   4.250   0.198   8.233
 4552TIP3   OH235214   1.917   3.486   0.696
 4552TIP3    H135215   1.897   3.450   0.609
 4552TIP3    H235216   1.944   3.411   0.748
 4553TIP3   OH235217   4.883   4.128   1.706
 4553TIP3    H135218   4.966   4.083   1.689
 4553TIP3    H235219   4.824   4.094   1.638
 4554TIP3   OH235220   2.917   4.316   1.181
 4554TIP3    H135221   2.824   4.331   1.162
 4554TIP3    H235222   2.948   4.399   1.217
 4555TIP3   OH235223   4.583   2.194   8.499
 4555TIP3    H135224   4.516   2.184   8.431
 4555TIP3    H235225   4.538   2.169   8.580
 4556TIP3   OH235226   2.261   4.488   0.004
 4556TIP3    H135227   2.266   4.410   0.058
 4556TIP3    H235228   2.203   4.464   8.732
 4557TIP3   OH235229   1.174   1.503   7.803
 4557TIP3    H135230   1.179   1.597   7.820
 4557TIP3    H235231   1.156   1.464   7.889
 4558TIP3   OH235232   3.792   0.552   7.886
 4558TIP3    H135233   3.851   0.488   7.845
 4558TIP3    H235234   3.775   0.617   7.818
 4559TIP3   OH235235   3.054   3.832   0.038
 4559TIP3    H135236   3.003   3.779   0.100
 4559TIP3    H235237   3.009   3.917   0.037
 4560TIP3   OH235238   2.959   2.287   7.934
 4560TIP3    H135239   2.967   2.325   7.846
 4560TIP3    H235240   2.870   2.308   7.961
 4561TIP3   OH235241   5.471   0.855   1.389
 4561TIP3    H135242   5.500   0.780   1.441
 4561TIP3    H235243   5.446   0.921   1.453
 4562TIP3   OH235244   0.717   0.589   0.115
 4562TIP3    H135245   0.670   0.669   0.141
 4562TIP3    H235246   0.750   0.608   0.027
 4563TIP3   OH235247   5.203   2.809   7.376
 4563TIP3    H135248   5.294   2.833   7.393
 4563TIP3    H235249   5.154   2.855   7.445
 4564TIP3   OH235250   1.071   4.062   1.663
 4564TIP3    H135251   1.096   4.111   1.742
 4564TIP3    H235252   1.154   4.028   1.629
 4565TIP3   OH235253   2.280   5.766   2.123
 4565TIP3    H135254   2.360   5.767   2.175
 4565TIP3    H235255   2.234   5.846   2.148
 4566TIP3   OH235256   5.229   1.920   0.174
 4566TIP3    H135257   5.183   1.836   0.168
 4566TIP3    H235258   5.295   1.917   0.105
 4567TIP3   OH235259   4.976   2.686   0.567
 4567TIP3    H135260   5.007   2.694   0.657
 4567TIP3    H235261   4.881   2.676   0.576
 4568TIP3   OH235262   4.064   5.835   1.014
 4568TIP3    H135263   4.006   5.805   1.084
 4568TIP3    H235264   4.008   5.836   0.936
 4569TIP3   OH235265   1.029   3.719   2.167
 4569TIP3    H135266   0.947   3.721   2.216
 4569TIP3    H235267   1.077   3.796   2.198
 4570TIP3   OH235268   5.420   0.018   1.414
 4570TIP3    H135269   5.432   6.785   1.493
 4570TIP3    H235270   5.325   0.028   1.406
 4571TIP3   OH235271   0.594   6.262   1.885
 4571TIP3    H135272   0.562   6.303   1.966
 4571TIP3    H235273   0.665   6.205   1.914
 4572TIP3   OH235274   0.921   2.118   0.107
 4572TIP3    H135275   0.834   2.088   0.082
 4572TIP3    H235276   0.968   2.039   0.133
 4573TIP3   OH235277   4.115   6.251   0.956
 4573TIP3    H135278   4.197   6.216   0.921
 4573TIP3    H235279   4.075   6.296   0.882
 4574TIP3   OH235280   3.552   3.681   0.963
 4574TIP3    H135281   3.494   3.746   1.003
 4574TIP3    H235282   3.574   3.622   1.035
 4575TIP3   OH235283   4.542   1.382   2.248
 4575TIP3    H135284   4.517   1.416   2.334
 4575TIP3    H235285   4.583   1.456   2.204
 4576TIP3   OH235286   3.740   2.548   8.397
 4576TIP3    H135287   3.833   2.553   8.376
 4576TIP3    H235288   3.698   2.607   8.334
 4577TIP3   OH235289   2.920   5.601   1.768
 4577TIP3    H135290   2.915   5.636   1.679
 4577TIP3    H235291   2.832   5.610   1.803
 4578TIP3   OH235292   4.787   4.355   0.895
 4578TIP3    H135293   4.746   4.319   0.816
 4578TIP3    H235294   4.878   4.328   0.890
 4579TIP3   OH235295   2.695   2.723   1.446
 4579TIP3    H135296   2.780   2.680   1.431
 4579TIP3    H235297   2.636   2.652   1.471
 4580TIP3   OH235298   1.091   1.284   7.043
 4580TIP3    H135299   1.097   1.374   7.075
 4580TIP3    H235300   1.175   1.269   7.000
 4581TIP3   OH235301   3.269   0.304   7.545
 4581TIP3    H135302   3.223   0.284   7.463
 4581TIP3    H235303   3.362   0.296   7.523
 4582TIP3   OH235304   6.567   3.766   7.003
 4582TIP3    H135305   6.621   3.839   7.032
 4582TIP3    H235306   6.506   3.804   6.940
 4583TIP3   OH235307   2.776   6.429   0.091
 4583TIP3    H135308   2.807   6.360   0.150
 4583TIP3    H235309   2.834   6.503   0.108
 4584TIP3   OH235310   4.287   3.311   0.356
 4584TIP3    H135311   4.224   3.297   0.285
 4584TIP3    H235312   4.277   3.404   0.379
 4585TIP3   OH235313   2.220   0.953   1.512
 4585TIP3    H135314   2.301   0.940   1.562
 4585TIP3    H235315   2.249   0.964   1.422
 4586TIP3   OH235316   5.816   3.858   1.057
 4586TIP3    H135317   5.776   3.815   0.982
 4586TIP3    H235318   5.754   3.844   1.129
 4587TIP3   OH235319   0.146   4.770   1.790
 4587TIP3    H135320   0.104   4.738   1.869
 4587TIP3    H235321   0.169   4.861   1.809
 4588TIP3   OH235322   1.164   6.616   1.486
 4588TIP3    H135323   1.071   6.597   1.475
 4588TIP3    H235324   1.188   6.664   1.406
 4589TIP3   OH235325   0.087   5.739   7.520
 4589TIP3    H135326   0.136   5.728   7.601
 4589TIP3    H235327   0.154   5.735   7.451
 4590TIP3   OH235328   1.844   5.730   1.395
 4590TIP3    H135329   1.784   5.781   1.449
 4590TIP3    H235330   1.847   5.644   1.436
 4591TIP3   OH235331   5.543   5.876   7.976
 4591TIP3    H135332   5.525   5.931   8.053
 4591TIP3    H235333   5.527   5.934   7.902
 4592TIP3   OH235334   6.711   3.178   1.621
 4592TIP3    H135335   6.647   3.121   1.664
 4592TIP3    H235336   6.750   3.229   1.693
 4593TIP3   OH235337   0.965   0.397   8.120
 4593TIP3    H135338   0.927   0.344   8.050
 4593TIP3    H235339   1.022   0.336   8.167
 4594TIP3   OH235340   0.404   6.402   8.492
 4594TIP3    H135341   0.322   6.358   8.515
 4594TIP3    H235342   0.457   6.396   8.571
 4595TIP3   OH235343   5.150   0.717   2.175
 4595TIP3    H135344   5.230   0.769   2.180
 4595TIP3    H235345   5.146   0.671   2.259
 4596TIP3   OH235346   4.808   1.456   0.780
 4596TIP3    H135347   4.841   1.506   0.706
 4596TIP3    H235348   4.823   1.364   0.755
 4597TIP3   OH235349   1.294   6.227   8.223
 4597TIP3    H135350   1.207   6.224   8.183
 4597TIP3    H235351   1.302   6.317   8.255
 4598TIP3   OH235352   3.741   5.257   0.964
 4598TIP3    H135353   3.673   5.269   0.898
 4598TIP3    H235354   3.693   5.239   1.045
 4599TIP3   OH235355   3.900   2.280   2.355
 4599TIP3    H135356   3.927   2.371   2.342
 4599TIP3    H235357   3.969   2.243   2.410
 4600TIP3   OH235358   5.422   5.079   7.730
 4600TIP3    H135359   5.380   5.056   7.648
 4600TIP3    H235360   5.433   5.174   7.726
 4601TIP3   OH235361   2.856   1.834   8.234
 4601TIP3    H135362   2.906   1.889   8.295
 4601TIP3    H235363   2.772   1.880   8.225
 4602TIP3   OH235364   5.450   3.606   6.928
 4602TIP3    H135365   5.532   3.619   6.880
 4602TIP3    H235366   5.382   3.612   6.861
 4603TIP3   OH235367   2.353   5.118   1.824
 4603TIP3    H135368   2.317   5.074   1.901
 4603TIP3    H235369   2.357   5.210   1.848
 4604TIP3   OH235370   3.353   3.862   7.086
 4604TIP3    H135371   3.330   3.896   7.172
 4604TIP3    H235372   3.358   3.939   7.030
 4605TIP3   OH235373   3.833   2.727   0.529
 4605TIP3    H135374   3.843   2.754   0.438
 4605TIP3    H235375   3.787   2.644   0.524
 4606TIP3   OH235376   4.461   0.821   1.201
 4606TIP3    H135377   4.486   0.911   1.179
 4606TIP3    H235378   4.365   0.820   1.193
 4607TIP3   OH235379   5.243   6.601   7.574
 4607TIP3    H135380   5.149   6.582   7.578
 4607TIP3    H235381   5.280   6.556   7.649
 4608TIP3   OH235382   3.722   2.985   0.495
 4608TIP3    H135383   3.788   2.920   0.471
 4608TIP3    H235384   3.656   2.936   0.543
 4609TIP3   OH235385   3.490   2.313   6.931
 4609TIP3    H135386   3.456   2.392   6.889
 4609TIP3    H235387   3.425   2.290   6.997
 4610TIP3   OH235388   6.022   1.688   7.811
 4610TIP3    H135389   6.086   1.759   7.810
 4610TIP3    H235390   5.945   1.725   7.769
 4611TIP3   OH235391   1.939   3.767   0.989
 4611TIP3    H135392   1.900   3.834   0.933
 4611TIP3    H235393   1.864   3.722   1.028
 4612TIP3   OH235394   0.686   4.082   1.541
 4612TIP3    H135395   0.701   3.992   1.570
 4612TIP3    H235396   0.618   4.075   1.474
 4613TIP3   OH235397   0.542   2.321   0.259
 4613TIP3    H135398   0.528   2.318   0.164
 4613TIP3    H235399   0.617   2.380   0.270
 4614TIP3   OH235400   2.351   2.059   7.807
 4614TIP3    H135401   2.266   2.077   7.767
 4614TIP3    H235402   2.343   2.092   7.897
 4615TIP3   OH235403   4.297   1.782   2.062
 4615TIP3    H135404   4.253   1.710   2.015
 4615TIP3    H235405   4.232   1.853   2.062
 4616TIP3   OH235406   3.889   4.950   0.368
 4616TIP3    H135407   3.905   5.039   0.337
 4616TIP3    H235408   3.925   4.948   0.456
 4617TIP3   OH235409   0.580   3.693   7.051
 4617TIP3    H135410   0.527   3.758   7.005
 4617TIP3    H235411   0.667   3.731   7.057
 4618TIP3   OH235412   2.944   0.132   2.142
 4618TIP3    H135413   2.927   0.105   2.232
 4618TIP3    H235414   2.952   0.050   2.093
 4619TIP3   OH235415   4.396   0.558   7.252
 4619TIP3    H135416   4.381   0.464   7.258
 4619TIP3    H235417   4.310   0.597   7.266
 4620TIP3   OH235418   0.302   4.517   6.785
 4620TIP3    H135419   0.282   4.569   6.863
 4620TIP3    H235420   0.389   4.546   6.758
 4621TIP3   OH235421   2.126   2.118   1.529
 4621TIP3    H135422   2.105   2.180   1.599
 4621TIP3    H235423   2.145   2.036   1.574
 4622TIP3   OH235424   4.462   2.254   8.746
 4622TIP3    H135425   4.385   2.220   8.791
 4622TIP3    H235426   4.535   2.229   0.003
 4623TIP3   OH235427   4.520   3.871   0.302
 4623TIP3    H135428   4.547   3.793   0.350
 4623TIP3    H235429   4.479   3.927   0.367
 4624TIP3   OH235430   0.084   4.469   7.453
 4624TIP3    H135431   0.170   4.510   7.453
 4624TIP3    H235432   0.091   4.397   7.515
 4625TIP3   OH235433   1.278   2.452   0.822
 4625TIP3    H135434   1.335   2.378   0.844
 4625TIP3    H235435   1.251   2.434   0.732
 4626TIP3   OH235436   5.941   5.072   7.523
 4626TIP3    H135437   5.898   4.994   7.558
 4626TIP3    H235438   6.031   5.045   7.509
 4627TIP3   OH235439   5.731   3.532   7.587
 4627TIP3    H135440   5.727   3.607   7.647
 4627TIP3    H235441   5.685   3.562   7.508
 4628TIP3   OH235442   6.569   1.770   1.900
 4628TIP3    H135443   6.525   1.706   1.844
 4628TIP3    H235444   6.497   1.813   1.947
 4629TIP3   OH235445   3.271   6.521   7.667
 4629TIP3    H135446   3.364   6.544   7.678
 4629TIP3    H235447   3.226   6.605   7.668
 4630TIP3   OH235448   4.506   3.117   1.263
 4630TIP3    H135449   4.431   3.142   1.209
 4630TIP3    H235450   4.473   3.046   1.318
 4631TIP3   OH235451   5.183   2.236   1.518
 4631TIP3    H135452   5.249   2.196   1.462
 4631TIP3    H235453   5.133   2.163   1.553
 4632TIP3   OH235454   0.671   5.069   0.073
 4632TIP3    H135455   0.686   5.149   0.023
 4632TIP3    H235456   0.593   5.089   0.126
 4633TIP3   OH235457   3.076   4.170   0.572
 4633TIP3    H135458   3.051   4.157   0.481
 4633TIP3    H235459   3.167   4.140   0.576
 4634TIP3   OH235460   5.786   5.590   0.366
 4634TIP3    H135461   5.853   5.633   0.419
 4634TIP3    H235462   5.771   5.506   0.408
 4635TIP3   OH235463   1.991   4.286   0.739
 4635TIP3    H135464   1.982   4.311   0.647
 4635TIP3    H235465   2.059   4.219   0.739
 4636TIP3   OH235466   1.308   0.431   1.004
 4636TIP3    H135467   1.255   0.462   1.078
 4636TIP3    H235468   1.258   0.358   0.967
 4637TIP3   OH235469   3.982   4.958   6.331
 4637TIP3    H135470   4.070   4.937   6.363
 4637TIP3    H235471   3.935   4.875   6.336
 4638TIP3   OH235472   4.394   2.043   2.829
 4638TIP3    H135473   4.457   2.064   2.899
 4638TIP3    H235474   4.368   2.129   2.795
 4639TIP3   OH235475   0.495   6.351   1.031
 4639TIP3    H135476   0.474   6.335   1.123
 4639TIP3    H235477   0.546   6.432   1.032
 4640TIP3   OH235478   2.388   0.161   8.337
 4640TIP3    H135479   2.470   0.200   8.306
 4640TIP3    H235480   2.396   0.068   8.315
 4641TIP3   OH235481   0.446   1.398   1.457
 4641TIP3    H135482   0.379   1.390   1.389
 4641TIP3    H235483   0.521   1.436   1.412
 4642TIP3   OH235484   0.165   2.137   7.653
 4642TIP3    H135485   0.207   2.084   7.721
 4642TIP3    H235486   0.233   2.198   7.624
 4643TIP3   OH235487   4.304   3.311   6.900
 4643TIP3    H135488   4.385   3.348   6.936
 4643TIP3    H235489   4.329   3.281   6.812
 4644TIP3   OH235490   4.475   3.246   0.582
 4644TIP3    H135491   4.394   3.241   0.634
 4644TIP3    H235492   4.444   3.247   0.491
 4645TIP3   OH235493   2.274   3.656   8.625
 4645TIP3    H135494   2.256   3.663   8.531
 4645TIP3    H235495   2.290   3.562   8.639
 4646TIP3   OH235496   1.817   5.386   6.357
 4646TIP3    H135497   1.747   5.348   6.410
 4646TIP3    H235498   1.881   5.315   6.347
 4647TIP3   OH235499   5.664   4.189   8.135
 4647TIP3    H135500   5.712   4.270   8.151
 4647TIP3    H235501   5.730   4.120   8.141
 4648TIP3   OH235502   2.059   0.487   2.514
 4648TIP3    H135503   2.017   0.405   2.487
 4648TIP3    H235504   2.140   0.490   2.463
 4649TIP3   OH235505   1.736   5.896   2.090
 4649TIP3    H135506   1.761   5.855   2.173
 4649TIP3    H235507   1.757   5.830   2.024
 4650TIP3   OH235508   5.903   6.354   7.394
 4650TIP3    H135509   5.941   6.424   7.341
 4650TIP3    H235510   5.966   6.283   7.389
 4651TIP3   OH235511   0.417   3.569   8.666
 4651TIP3    H135512   0.512   3.567   8.653
 4651TIP3    H235513   0.380   3.551   8.580
 4652TIP3   OH235514   0.791   0.938   1.847
 4652TIP3    H135515   0.875   0.982   1.854
 4652TIP3    H235516   0.768   0.915   1.938
 4653TIP3   OH235517   2.069   5.348   8.029
 4653TIP3    H135518   2.077   5.407   7.954
 4653TIP3    H235519   2.151   5.358   8.076
 4654TIP3   OH235520   4.106   4.179   8.155
 4654TIP3    H135521   4.112   4.136   8.069
 4654TIP3    H235522   4.171   4.134   8.209
 4655TIP3   OH235523   6.235   3.373   0.501
 4655TIP3    H135524   6.308   3.423   0.463
 4655TIP3    H235525   6.255   3.282   0.479
 4656TIP3   OH235526   6.343   5.231   7.830
 4656TIP3    H135527   6.281   5.178   7.880
 4656TIP3    H235528   6.345   5.315   7.876
 4657TIP3   OH235529   3.115   3.475   7.158
 4657TIP3    H135530   3.193   3.473   7.103
 4657TIP3    H235531   3.081   3.564   7.148
 4658TIP3   OH235532   1.700   6.661   0.066
 4658TIP3    H135533   1.732   6.636   8.780
 4658TIP3    H235534   1.735   6.593   0.124
 4659TIP3   OH235535   5.205   2.918   8.741
 4659TIP3    H135536   5.238   3.008   8.746
 4659TIP3    H235537   5.244   2.883   8.661
 4660TIP3   OH235538   2.309   0.753   1.740
 4660TIP3    H135539   2.293   0.841   1.775
 4660TIP3    H235540   2.371   0.768   1.669
 4661TIP3   OH235541   2.680   3.469   0.961
 4661TIP3    H135542   2.715   3.389   0.921
 4661TIP3    H235543   2.686   3.454   1.055
 4662TIP3   OH235544   5.865   2.192   7.406
 4662TIP3    H135545   5.782   2.230   7.435
 4662TIP3    H235546   5.873   2.218   7.315
 4663TIP3   OH235547   1.721   5.583   7.498
 4663TIP3    H135548   1.731   5.615   7.408
 4663TIP3    H235549   1.758   5.653   7.552
 4664TIP3   OH235550   4.333   3.010   0.425
 4664TIP3    H135551   4.359   3.096   0.392
 4664TIP3    H235552   4.245   3.024   0.461
 4665TIP3   OH235553   0.971   4.081   7.581
 4665TIP3    H135554   0.960   3.987   7.591
 4665TIP3    H235555   1.064   4.092   7.560
 4666TIP3   OH235556   3.919   2.529   2.287
 4666TIP3    H135557   3.916   2.526   2.192
 4666TIP3    H235558   3.897   2.620   2.309
 4667TIP3   OH235559   4.183   0.973   1.761
 4667TIP3    H135560   4.186   0.954   1.667
 4667TIP3    H235561   4.091   0.963   1.785
 4668TIP3   OH235562   3.434   3.703   0.693
 4668TIP3    H135563   3.447   3.798   0.692
 4668TIP3    H235564   3.452   3.677   0.784
 4669TIP3   OH235565   3.112   5.489   6.301
 4669TIP3    H135566   3.168   5.415   6.277
 4669TIP3    H235567   3.036   5.448   6.344
 4670TIP3   OH235568   4.537   1.472   2.516
 4670TIP3    H135569   4.613   1.517   2.553
 4670TIP3    H235570   4.481   1.453   2.591
 4671TIP3   OH235571   1.837   0.751   8.301
 4671TIP3    H135572   1.757   0.792   8.333
 4671TIP3    H235573   1.877   0.816   8.244
 4672TIP3   OH235574   2.514   5.141   8.065
 4672TIP3    H135575   2.433   5.161   8.112
 4672TIP3    H235576   2.569   5.218   8.079
 4673TIP3   OH235577   4.559   3.018   3.065
 4673TIP3    H135578   4.543   2.924   3.070
 4673TIP3    H235579   4.474   3.058   3.082
 4674TIP3   OH235580   5.033   5.524   1.882
 4674TIP3    H135581   4.983   5.583   1.939
 4674TIP3    H235582   5.035   5.441   1.929
 4675TIP3   OH235583   0.833   4.488   2.213
 4675TIP3    H135584   0.916   4.475   2.167
 4675TIP3    H235585   0.845   4.448   2.298
 4676TIP3   OH235586   2.776   0.180   1.320
 4676TIP3    H135587   2.818   0.102   1.355
 4676TIP3    H235588   2.826   0.253   1.356
 4677TIP3   OH235589   1.414   1.535   1.512
 4677TIP3    H135590   1.479   1.468   1.495
 4677TIP3    H235591   1.357   1.534   1.436
 4678TIP3   OH235592   4.195   2.073   8.635
 4678TIP3    H135593   4.120   2.124   8.604
 4678TIP3    H235594   4.208   2.102   8.725
 4679TIP3   OH235595   3.984   3.755   6.661
 4679TIP3    H135596   4.068   3.795   6.639
 4679TIP3    H235597   3.966   3.786   6.750
 4680TIP3   OH235598   0.739   2.332   0.563
 4680TIP3    H135599   0.735   2.400   0.496
 4680TIP3    H235600   0.671   2.356   0.626
 4681TIP3   OH235601   4.743   0.469   7.251
 4681TIP3    H135602   4.827   0.473   7.204
 4681TIP3    H235603   4.722   0.376   7.254
 4682TIP3   OH235604   6.553   0.690   8.779
 4682TIP3    H135605   6.485   0.657   0.038
 4682TIP3    H235606   6.635   0.660   0.017
 4683TIP3   OH235607   3.982   5.478   7.863
 4683TIP3    H135608   4.042   5.521   7.924
 4683TIP3    H235609   3.919   5.546   7.839
 4684TIP3   OH235610   5.185   6.588   2.492
 4684TIP3    H135611   5.228   6.505   2.475
 4684TIP3    H235612   5.094   6.573   2.467
 4685TIP3   OH235613   3.698   3.726   0.267
 4685TIP3    H135614   3.711   3.816   0.297
 4685TIP3    H235615   3.691   3.675   0.347
 4686TIP3   OH235616   4.623   4.338   0.676
 4686TIP3    H135617   4.548   4.282   0.658
 4686TIP3    H235618   4.691   4.307   0.616
 4687TIP3   OH235619   3.282   2.952   8.421
 4687TIP3    H135620   3.354   2.914   8.471
 4687TIP3    H235621   3.272   2.894   8.346
 4688TIP3   OH235622   4.604   1.957   8.027
 4688TIP3    H135623   4.693   1.953   7.992
 4688TIP3    H235624   4.569   2.039   7.992
 4689TIP3   OH235625   5.643   5.469   1.186
 4689TIP3    H135626   5.630   5.559   1.217
 4689TIP3    H235627   5.609   5.415   1.258
 4690TIP3   OH235628   4.973   0.668   0.421
 4690TIP3    H135629   5.006   0.634   0.504
 4690TIP3    H235630   4.932   0.751   0.443
 4691TIP3   OH235631   6.588   3.713   1.633
 4691TIP3    H135632   6.613   3.637   1.581
 4691TIP3    H235633   6.615   3.788   1.580
 4692TIP3   OH235634   6.538   1.054   2.306
 4692TIP3    H135635   6.539   1.030   2.398
 4692TIP3    H235636   6.467   1.117   2.297
 4693TIP3   OH235637   6.075   3.054   1.365
 4693TIP3    H135638   6.157   3.090   1.331
 4693TIP3    H235639   6.029   3.021   1.287
 4694TIP3   OH235640   2.756   3.681   0.579
 4694TIP3    H135641   2.777   3.666   0.671
 4694TIP3    H235642   2.753   3.593   0.541
 4695TIP3   OH235643   3.525   4.829   8.734
 4695TIP3    H135644   3.542   4.784   0.016
 4695TIP3    H235645   3.504   4.758   8.672
 4696TIP3   OH235646   1.949   5.532   6.121
 4696TIP3    H135647   1.925   5.473   6.049
 4696TIP3    H235648   1.912   5.492   6.199
 4697TIP3   OH235649   4.961   4.111   7.565
 4697TIP3    H135650   4.902   4.184   7.550
 4697TIP3    H235651   4.927   4.068   7.643
 4698TIP3   OH235652   3.765   5.526   1.942
 4698TIP3    H135653   3.844   5.473   1.953
 4698TIP3    H235654   3.771   5.560   1.852
 4699TIP3   OH235655   4.730   0.110   0.096
 4699TIP3    H135656   4.708   0.185   0.042
 4699TIP3    H235657   4.667   0.113   0.169
 4700TIP3   OH235658   4.426   1.014   7.933
 4700TIP3    H135659   4.352   1.069   7.907
 4700TIP3    H235660   4.391   0.925   7.936
 4701TIP3   OH235661   4.838   4.279   8.408
 4701TIP3    H135662   4.917   4.331   8.424
 4701TIP3    H235663   4.854   4.196   8.454
 4702TIP3   OH235664   2.616   1.992   8.222
 4702TIP3    H135665   2.603   1.996   8.127
 4702TIP3    H235666   2.529   1.979   8.258
 4703TIP3   OH235667   3.156   3.557   1.008
 4703TIP3    H135668   3.206   3.483   0.973
 4703TIP3    H235669   3.158   3.545   1.103
 4704TIP3   OH235670   1.729   0.392   0.043
 4704TIP3    H135671   1.740   0.297   0.050
 4704TIP3    H235672   1.795   0.429   0.102
 4705TIP3   OH235673   5.409   5.649   0.906
 4705TIP3    H135674   5.419   5.743   0.894
 4705TIP3    H235675   5.414   5.635   1.000
 4706TIP3   OH235676   0.100   0.448   0.373
 4706TIP3    H135677   0.114   0.356   0.395
 4706TIP3    H235678   0.090   0.493   0.457
 4707TIP3   OH235679   6.421   5.358   2.018
 4707TIP3    H135680   6.487   5.383   2.082
 4707TIP3    H235681   6.339   5.389   2.056
 4708TIP3   OH235682   4.158   0.354   8.470
 4708TIP3    H135683   4.180   0.266   8.501
 4708TIP3    H235684   4.071   0.370   8.505
 4709TIP3   OH235685   6.765   5.331   7.554
 4709TIP3    H135686   6.714   5.411   7.544
 4709TIP3    H235687   0.036   5.360   7.552
 4710TIP3   OH235688   3.951   6.042   7.836
 4710TIP3    H135689   3.989   6.046   7.748
 4710TIP3    H235690   3.864   6.005   7.823
 4711TIP3   OH235691   2.370   1.932   6.903
 4711TIP3    H135692   2.320   1.949   6.823
 4711TIP3    H235693   2.398   1.841   6.895
 4712TIP3   OH235694   6.596   0.453   0.509
 4712TIP3    H135695   6.672   0.407   0.544
 4712TIP3    H235696   6.546   0.479   0.586
 4713TIP3   OH235697   5.612   1.261   8.603
 4713TIP3    H135698   5.567   1.328   8.655
 4713TIP3    H235699   5.544   1.226   8.546
 4714TIP3   OH235700   5.592   4.523   0.819
 4714TIP3    H135701   5.557   4.607   0.788
 4714TIP3    H235702   5.653   4.547   0.889
 4715TIP3   OH235703   4.797   6.292   0.980
 4715TIP3    H135704   4.817   6.198   0.973
 4715TIP3    H235705   4.858   6.324   1.046
 4716TIP3   OH235706   2.214   5.575   7.140
 4716TIP3    H135707   2.294   5.555   7.091
 4716TIP3    H235708   2.212   5.670   7.145
 4717TIP3   OH235709   6.387   0.259   7.939
 4717TIP3    H135710   6.393   0.309   8.020
 4717TIP3    H235711   6.385   0.167   7.968
 4718TIP3   OH235712   5.351   6.734   6.772
 4718TIP3    H135713   5.295   6.658   6.757
 4718TIP3    H235714   5.437   6.707   6.739
 4719TIP3   OH235715   2.850   2.237   2.007
 4719TIP3    H135716   2.907   2.303   2.046
 4719TIP3    H235717   2.762   2.258   2.041
 4720TIP3   OH235718   1.245   5.459   1.958
 4720TIP3    H135719   1.312   5.454   2.026
 4720TIP3    H235720   1.168   5.496   2.001
 4721TIP3   OH235721   1.960   1.403   2.421
 4721TIP3    H135722   2.010   1.471   2.375
 4721TIP3    H235723   1.870   1.416   2.392
 4722TIP3   OH235724   6.585   6.205   6.407
 4722TIP3    H135725   6.540   6.150   6.343
 4722TIP3    H235726   6.530   6.283   6.415
 4723TIP3   OH235727   5.663   5.663   1.803
 4723TIP3    H135728   5.676   5.600   1.733
 4723TIP3    H235729   5.575   5.645   1.836
 4724TIP3   OH235730   6.312   5.848   8.500
 4724TIP3    H135731   6.302   5.942   8.516
 4724TIP3    H235732   6.297   5.838   8.406
 4725TIP3   OH235733   6.707   5.134   1.717
 4725TIP3    H135734   6.698   5.040   1.732
 4725TIP3    H235735   6.748   5.168   1.796
 4726TIP3   OH235736   3.316   6.400   0.977
 4726TIP3    H135737   3.403   6.362   0.965
 4726TIP3    H235738   3.260   6.327   1.003
 4727TIP3   OH235739   4.481   5.930   0.947
 4727TIP3    H135740   4.421   5.946   1.020
 4727TIP3    H235741   4.437   5.864   0.894
 4728TIP3   OH235742   2.724   6.326   8.645
 4728TIP3    H135743   2.749   6.357   8.732
 4728TIP3    H235744   2.655   6.262   8.661
 4729TIP3   OH235745   6.197   6.516   8.149
 4729TIP3    H135746   6.283   6.521   8.191
 4729TIP3    H235747   6.157   6.438   8.186
 4730TIP3   OH235748   2.948   4.867   8.098
 4730TIP3    H135749   2.865   4.867   8.050
 4730TIP3    H235750   2.982   4.778   8.087
 4731TIP3   OH235751   5.964   1.735   7.034
 4731TIP3    H135752   5.992   1.753   6.944
 4731TIP3    H235753   5.922   1.649   7.029
 4732TIP3   OH235754   2.118   6.273   8.676
 4732TIP3    H135755   2.080   6.185   8.684
 4732TIP3    H235756   2.063   6.328   8.732
 4733TIP3   OH235757   0.599   5.681   7.414
 4733TIP3    H135758   0.623   5.611   7.476
 4733TIP3    H235759   0.628   5.648   7.329
 4734TIP3   OH235760   0.251   4.189   0.722
 4734TIP3    H135761   0.326   4.240   0.693
 4734TIP3    H235762   0.215   4.239   0.795
 4735TIP3   OH235763   6.660   5.146   0.431
 4735TIP3    H135764   6.703   5.103   0.506
 4735TIP3    H235765   6.572   5.110   0.431
 4736TIP3   OH235766   2.691   3.214   8.588
 4736TIP3    H135767   2.669   3.295   8.543
 4736TIP3    H235768   2.618   3.155   8.567
 4737TIP3   OH235769   3.779   3.080   2.565
 4737TIP3    H135770   3.778   3.165   2.610
 4737TIP3    H235771   3.824   3.098   2.482
 4738TIP3   OH235772   5.331   4.037   0.047
 4738TIP3    H135773   5.245   4.009   0.016
 4738TIP3    H235774   5.321   4.043   0.142
 4739TIP3   OH235775   5.910   2.199   0.539
 4739TIP3    H135776   5.909   2.176   0.632
 4739TIP3    H235777   5.905   2.295   0.538
 4740TIP3   OH235778   3.017   4.636   8.214
 4740TIP3    H135779   3.034   4.559   8.159
 4740TIP3    H235780   2.923   4.650   8.208
 4741TIP3   OH235781   1.817   6.310   8.111
 4741TIP3    H135782   1.845   6.401   8.101
 4741TIP3    H235783   1.751   6.298   8.043
 4742TIP3   OH235784   5.659   2.743   0.352
 4742TIP3    H135785   5.637   2.661   0.309
 4742TIP3    H235786   5.633   2.811   0.289
 4743TIP3   OH235787   4.085   2.053   0.793
 4743TIP3    H135788   4.161   2.109   0.779
 4743TIP3    H235789   4.010   2.106   0.766
 4744TIP3   OH235790   0.151   5.786   8.092
 4744TIP3    H135791   0.123   5.698   8.066
 4744TIP3    H235792   0.165   5.833   8.010
 4745TIP3   OH235793   5.903   0.701   8.357
 4745TIP3    H135794   5.970   0.749   8.307
 4745TIP3    H235795   5.879   0.628   8.300
 4746TIP3   OH235796   2.806   1.796   0.197
 4746TIP3    H135797   2.815   1.880   0.153
 4746TIP3    H235798   2.719   1.764   0.171
 4747TIP3   OH235799   6.058   6.434   6.225
 4747TIP3    H135800   6.094   6.359   6.177
 4747TIP3    H235801   5.993   6.472   6.165
 4748TIP3   OH235802   6.155   2.989   1.663
 4748TIP3    H135803   6.127   2.899   1.679
 4748TIP3    H235804   6.077   3.041   1.681
 4749TIP3   OH235805   4.920   4.362   6.769
 4749TIP3    H135806   4.962   4.316   6.842
 4749TIP3    H235807   4.834   4.321   6.761
 4750TIP3   OH235808   3.968   3.778   0.069
 4750TIP3    H135809   4.053   3.745   0.039
 4750TIP3    H235810   3.990   3.854   0.123
 4751TIP3   OH235811   6.744   3.738   0.484
 4751TIP3    H135812   6.780   3.666   0.432
 4751TIP3    H235813   6.777   3.722   0.572
 4752TIP3   OH235814   1.512   4.551   0.675
 4752TIP3    H135815   1.494   4.473   0.621
 4752TIP3    H235816   1.583   4.523   0.733
 4753TIP3   OH235817   4.951   4.414   1.431
 4753TIP3    H135818   4.981   4.323   1.442
 4753TIP3    H235819   4.893   4.428   1.506
 4754TIP3   OH235820   1.319   0.571   0.592
 4754TIP3    H135821   1.383   0.585   0.663
 4754TIP3    H235822   1.287   0.659   0.571
 4755TIP3   OH235823   2.579   0.856   0.140
 4755TIP3    H135824   2.659   0.834   0.091
 4755TIP3    H235825   2.530   0.774   0.143
 4756TIP3   OH235826   5.415   0.151   6.269
 4756TIP3    H135827   5.411   0.205   6.348
 4756TIP3    H235828   5.325   0.122   6.256
 4757TIP3   OH235829   1.668   1.729   0.558
 4757TIP3    H135830   1.735   1.667   0.529
 4757TIP3    H235831   1.595   1.716   0.498
 4758TIP3   OH235832   1.989   6.501   6.042
 4758TIP3    H135833   1.983   6.581   5.991
 4758TIP3    H235834   1.944   6.521   6.124
 4759TIP3   OH235835   3.035   6.152   1.506
 4759TIP3    H135836   3.011   6.235   1.465
 4759TIP3    H235837   2.965   6.134   1.568
 4760TIP3   OH235838   5.758   6.383   6.297
 4760TIP3    H135839   5.800   6.298   6.283
 4760TIP3    H235840   5.768   6.429   6.214
 4761TIP3   OH235841   4.091   3.251   6.346
 4761TIP3    H135842   4.173   3.224   6.304
 4761TIP3    H235843   4.105   3.342   6.370
 4762TIP3   OH235844   2.336   6.251   1.680
 4762TIP3    H135845   2.260   6.269   1.735
 4762TIP3    H235846   2.308   6.276   1.592
 4763TIP3   OH235847   2.577   5.585   1.334
 4763TIP3    H135848   2.512   5.561   1.401
 4763TIP3    H235849   2.617   5.665   1.367
 4764TIP3   OH235850   6.175   0.900   7.682
 4764TIP3    H135851   6.149   0.848   7.758
 4764TIP3    H235852   6.094   0.942   7.653
 4765TIP3   OH235853   4.139   0.922   8.703
 4765TIP3    H135854   4.182   1.004   8.677
 4765TIP3    H235855   4.212   0.863   8.723
 4766TIP3   OH235856   2.218   0.937   0.082
 4766TIP3    H135857   2.166   0.863   0.113
 4766TIP3    H235858   2.236   0.917   8.790
 4767TIP3   OH235859   1.066   1.250   1.716
 4767TIP3    H135860   0.976   1.282   1.721
 4767TIP3    H235861   1.103   1.272   1.802
 4768TIP3   OH235862   4.409   5.058   0.836
 4768TIP3    H135863   4.485   5.115   0.823
 4768TIP3    H235864   4.445   4.969   0.837
 4769TIP3   OH235865   1.558   3.675   7.580
 4769TIP3    H135866   1.595   3.750   7.533
 4769TIP3    H235867   1.574   3.601   7.521
 4770TIP3   OH235868   2.122   2.590   0.470
 4770TIP3    H135869   2.175   2.515   0.497
 4770TIP3    H235870   2.159   2.616   0.385
 4771TIP3   OH235871   0.568   5.831   1.199
 4771TIP3    H135872   0.600   5.770   1.133
 4771TIP3    H235873   0.559   5.914   1.152
 4772TIP3   OH235874   4.919   1.964   8.106
 4772TIP3    H135875   4.928   1.995   8.015
 4772TIP3    H235876   5.008   1.939   8.131
 4773TIP3   OH235877   3.599   2.544   6.756
 4773TIP3    H135878   3.506   2.539   6.734
 4773TIP3    H235879   3.635   2.460   6.730
 4774TIP3   OH235880   6.517   4.070   7.717
 4774TIP3    H135881   6.434   4.110   7.692
 4774TIP3    H235882   6.582   4.111   7.660
 4775TIP3   OH235883   5.975   3.138   7.006
 4775TIP3    H135884   5.950   3.127   6.915
 4775TIP3    H235885   6.041   3.208   7.005
 4776TIP3   OH235886   5.161   2.252   6.670
 4776TIP3    H135887   5.191   2.230   6.758
 4776TIP3    H235888   5.087   2.311   6.685
 4777TIP3   OH235889   3.657   3.596   0.508
 4777TIP3    H135890   3.583   3.627   0.561
 4777TIP3    H235891   3.695   3.525   0.559
 4778TIP3   OH235892   4.789   2.819   0.313
 4778TIP3    H135893   4.860   2.844   0.255
 4778TIP3    H235894   4.736   2.898   0.323
 4779TIP3   OH235895   3.422   4.193   8.250
 4779TIP3    H135896   3.439   4.161   8.338
 4779TIP3    H235897   3.508   4.223   8.218
 4780TIP3   OH235898   3.978   0.657   0.146
 4780TIP3    H135899   4.069   0.675   0.171
 4780TIP3    H235900   3.929   0.666   0.227
 4781TIP3   OH235901   5.309   5.571   7.727
 4781TIP3    H135902   5.284   5.604   7.814
 4781TIP3    H235903   5.397   5.604   7.713
 4782TIP3   OH235904   2.510   2.858   7.976
 4782TIP3    H135905   2.431   2.910   7.992
 4782TIP3    H235906   2.527   2.870   7.882
 4783TIP3   OH235907   0.665   5.602   1.550
 4783TIP3    H135908   0.711   5.548   1.613
 4783TIP3    H235909   0.627   5.540   1.488
 4784TIP3   OH235910   1.880   5.852   7.892
 4784TIP3    H135911   1.848   5.922   7.948
 4784TIP3    H235912   1.948   5.809   7.944
 4785TIP3   OH235913   5.269   3.785   6.050
 4785TIP3    H135914   5.291   3.779   6.143
 4785TIP3    H235915   5.182   3.827   6.049
 4786TIP3   OH235916   6.472   2.293   7.537
 4786TIP3    H135917   6.481   2.274   7.443
 4786TIP3    H235918   6.558   2.275   7.574
 4787TIP3   OH235919   4.516   3.427   7.998
 4787TIP3    H135920   4.498   3.487   8.071
 4787TIP3    H235921   4.465   3.462   7.925
 4788TIP3   OH235922   4.116   3.642   7.492
 4788TIP3    H135923   4.107   3.643   7.587
 4788TIP3    H235924   4.027   3.652   7.460
 4789TIP3   OH235925   0.796   5.701   8.034
 4789TIP3    H135926   0.885   5.686   8.065
 4789TIP3    H235927   0.742   5.644   8.088
 4790TIP3   OH235928   5.486   5.970   8.304
 4790TIP3    H135929   5.482   5.994   8.397
 4790TIP3    H235930   5.576   5.989   8.279
 4791TIP3   OH235931   0.627   0.503   0.404
 4791TIP3    H135932   0.717   0.507   0.434
 4791TIP3    H235933   0.632   0.519   0.310
 4792TIP3   OH235934   0.967   2.530   0.600
 4792TIP3    H135935   0.946   2.618   0.631
 4792TIP3    H235936   0.925   2.472   0.664
 4793TIP3   OH235937   3.821   2.877   8.496
 4793TIP3    H135938   3.911   2.859   8.522
 4793TIP3    H235939   3.814   2.846   8.406
 4794TIP3   OH235940   4.888   1.707   2.496
 4794TIP3    H135941   4.957   1.686   2.559
 4794TIP3    H235942   4.811   1.727   2.549
 4795TIP3   OH235943   4.925   2.331   6.840
 4795TIP3    H135944   4.989   2.280   6.890
 4795TIP3    H235945   4.841   2.289   6.860
 4796TIP3   OH235946   0.444   3.864   1.636
 4796TIP3    H135947   0.522   3.814   1.611
 4796TIP3    H235948   0.380   3.798   1.661
 4797TIP3   OH235949   0.533   3.088   1.709
 4797TIP3    H135950   0.500   3.168   1.669
 4797TIP3    H235951   0.597   3.119   1.773
 4798TIP3   OH235952   6.318   6.210   1.038
 4798TIP3    H135953   6.383   6.274   1.067
 4798TIP3    H235954   6.354   6.125   1.065
 4799TIP3   OH235955   2.228   5.136   8.204
 4799TIP3    H135956   2.233   5.090   8.288
 4799TIP3    H235957   2.228   5.067   8.138
 4800TIP3   OH235958   4.690   4.899   1.641
 4800TIP3    H135959   4.684   4.919   1.734
 4800TIP3    H235960   4.778   4.861   1.630
 4801TIP3   OH235961   4.071   3.260   0.917
 4801TIP3    H135962   4.005   3.319   0.953
 4801TIP3    H235963   4.058   3.177   0.963
 4802TIP3   OH235964   2.027   3.592   7.614
 4802TIP3    H135965   2.021   3.512   7.562
 4802TIP3    H235966   2.121   3.609   7.620
 4803TIP3   OH235967   2.783   1.824   0.487
 4803TIP3    H135968   2.723   1.756   0.457
 4803TIP3    H235969   2.826   1.855   0.408
 4804TIP3   OH235970   3.008   4.416   8.057
 4804TIP3    H135971   2.946   4.370   8.112
 4804TIP3    H235972   3.078   4.353   8.041
 4805TIP3   OH235973   6.526   4.546   0.323
 4805TIP3    H135974   6.606   4.554   0.374
 4805TIP3    H235975   6.521   4.626   0.272
 4806TIP3   OH235976   2.214   4.619   7.569
 4806TIP3    H135977   2.225   4.526   7.548
 4806TIP3    H235978   2.229   4.664   7.486
 4807TIP3   OH235979   1.029   3.840   0.658
 4807TIP3    H135980   1.021   3.863   0.565
 4807TIP3    H235981   1.015   3.922   0.704
 4808TIP3   OH235982   6.697   4.135   7.508
 4808TIP3    H135983   6.782   4.093   7.494
 4808TIP3    H235984   6.644   4.108   7.434
 4809TIP3   OH235985   5.829   3.062   0.955
 4809TIP3    H135986   5.904   3.121   0.948
 4809TIP3    H235987   5.804   3.043   0.865
 4810TIP3   OH235988   6.294   3.273   1.100
 4810TIP3    H135989   6.315   3.203   1.162
 4810TIP3    H235990   6.327   3.352   1.142
 4811TIP3   OH235991   3.798   3.184   5.916
 4811TIP3    H135992   3.894   3.184   5.921
 4811TIP3    H235993   3.768   3.197   6.006
 4812TIP3   OH235994   6.593   4.754   7.191
 4812TIP3    H135995   6.604   4.706   7.274
 4812TIP3    H235996   6.682   4.762   7.157
 4813TIP3   OH235997   0.059   4.127   7.797
 4813TIP3    H135998   0.013   4.197   7.844
 4813TIP3    H235999   0.011   4.118   7.715
 4814TIP3   OH236000   3.516   4.267   7.936
 4814TIP3    H136001   3.559   4.277   7.851
 4814TIP3    H236002   3.575   4.209   7.985
 4815TIP3   OH236003   2.897   3.473   7.738
 4815TIP3    H136004   2.881   3.531   7.813
 4815TIP3    H236005   2.992   3.476   7.725
 4816TIP3   OH236006   3.287   0.017   0.088
 4816TIP3    H136007   3.258   6.746   0.077
 4816TIP3    H236008   3.369   0.023   0.041
 4817TIP3   OH236009   2.734   4.571   0.333
 4817TIP3    H136010   2.720   4.596   0.241
 4817TIP3    H236011   2.684   4.490   0.343
 4818TIP3   OH236012   5.691   2.127   1.884
 4818TIP3    H136013   5.648   2.068   1.823
 4818TIP3    H236014   5.750   2.180   1.829
 4819TIP3   OH236015   5.052   3.910   0.133
 4819TIP3    H136016   4.968   3.954   0.146
 4819TIP3    H236017   5.115   3.964   0.180
 4820TIP3   OH236018   2.937   0.321   7.845
 4820TIP3    H136019   2.939   0.388   7.777
 4820TIP3    H236020   2.864   0.263   7.820
 4821TIP3   OH236021   4.955   4.610   6.908
 4821TIP3    H136022   5.030   4.604   6.967
 4821TIP3    H236023   4.965   4.537   6.848
 4822TIP3   OH236024   3.937   5.162   0.788
 4822TIP3    H136025   3.852   5.178   0.830
 4822TIP3    H236026   3.998   5.152   0.860
 4823TIP3   OH236027   2.595   3.460   6.897
 4823TIP3    H136028   2.689   3.473   6.891
 4823TIP3    H236029   2.558   3.544   6.869
 4824TIP3   OH236030   5.621   2.372   0.807
 4824TIP3    H136031   5.549   2.309   0.806
 4824TIP3    H236032   5.599   2.435   0.739
 4825TIP3   OH236033   2.253   5.892   6.889
 4825TIP3    H136034   2.339   5.932   6.901
 4825TIP3    H236035   2.212   5.942   6.818
 4826TIP3   OH236036   4.019   0.650   7.516
 4826TIP3    H136037   4.061   0.602   7.445
 4826TIP3    H236038   4.020   0.590   7.590
 4827TIP3   OH236039   5.945   4.086   7.924
 4827TIP3    H136040   5.904   4.136   7.853
 4827TIP3    H236041   5.968   4.152   7.990
 4828TIP3   OH236042   1.563   5.085   1.003
 4828TIP3    H136043   1.566   5.157   0.940
 4828TIP3    H236044   1.478   5.094   1.045
 4829TIP3   OH236045   5.384   5.828   1.533
 4829TIP3    H136046   5.418   5.797   1.617
 4829TIP3    H236047   5.365   5.920   1.547
 4830TIP3   OH236048   1.187   3.870   8.277
 4830TIP3    H136049   1.205   3.939   8.213
 4830TIP3    H236050   1.126   3.812   8.231
 4831TIP3   OH236051   0.485   6.064   2.181
 4831TIP3    H136052   0.452   6.011   2.254
 4831TIP3    H236053   0.533   6.001   2.127
 4832TIP3   OH236054   2.785   4.208   7.391
 4832TIP3    H136055   2.699   4.248   7.406
 4832TIP3    H236056   2.769   4.143   7.322
 4833TIP3   OH236057   3.919   2.910   7.465
 4833TIP3    H136058   3.848   2.898   7.402
 4833TIP3    H236059   3.882   2.967   7.533
 4834TIP3   OH236060   5.087   3.551   7.469
 4834TIP3    H136061   5.096   3.498   7.390
 4834TIP3    H236062   5.176   3.565   7.500
 4835TIP3   OH236063   5.136   2.733   2.057
 4835TIP3    H136064   5.050   2.694   2.042
 4835TIP3    H236065   5.140   2.807   1.997
 4836TIP3   OH236066   1.257   6.207   0.153
 4836TIP3    H136067   1.199   6.174   0.084
 4836TIP3    H236068   1.208   6.277   0.195
 4837TIP3   OH236069   1.066   3.178   6.204
 4837TIP3    H136070   1.010   3.210   6.132
 4837TIP3    H236071   1.153   3.209   6.182
 4838TIP3   OH236072   4.212   0.490   1.624
 4838TIP3    H136073   4.244   0.462   1.538
 4838TIP3    H236074   4.205   0.408   1.674
 4839TIP3   OH236075   6.730   2.248   7.619
 4839TIP3    H136076   0.000   2.226   7.644
 4839TIP3    H236077   6.676   2.214   7.690
 4840TIP3   OH236078   6.365   0.601   0.175
 4840TIP3    H136079   6.281   0.624   0.136
 4840TIP3    H236080   6.367   0.505   0.171
 4841TIP3   OH236081   2.771   0.449   1.489
 4841TIP3    H136082   2.718   0.476   1.564
 4841TIP3    H236083   2.857   0.428   1.526
 4842TIP3   OH236084   2.003   4.011   7.322
 4842TIP3    H136085   2.060   3.987   7.395
 4842TIP3    H236086   1.950   4.083   7.355
 4843TIP3   OH236087   6.389   5.766   1.225
 4843TIP3    H136088   6.344   5.761   1.310
 4843TIP3    H236089   6.320   5.748   1.161
 4844TIP3   OH236090   1.360   6.758   8.339
 4844TIP3    H136091   1.324   6.672   8.359
 4844TIP3    H236092   1.409   6.746   8.258
 4845TIP3   OH236093   1.340   4.700   0.803
 4845TIP3    H136094   1.259   4.649   0.796
 4845TIP3    H236095   1.403   4.653   0.748
 4846TIP3   OH236096   5.870   1.480   6.984
 4846TIP3    H136097   5.849   1.403   7.037
 4846TIP3    H236098   5.877   1.446   6.895
 4847TIP3   OH236099   2.514   4.625   7.839
 4847TIP3    H136100   2.425   4.655   7.859
 4847TIP3    H236101   2.535   4.563   7.909
 4848TIP3   OH236102   1.659   4.069   8.222
 4848TIP3    H136103   1.694   4.154   8.194
 4848TIP3    H236104   1.636   4.024   8.141
 4849TIP3   OH236105   3.624   6.549   7.957
 4849TIP3    H136106   3.674   6.561   8.038
 4849TIP3    H236107   3.648   6.461   7.927
 4850TIP3   OH236108   2.132   3.862   1.239
 4850TIP3    H136109   2.089   3.935   1.195
 4850TIP3    H236110   2.111   3.785   1.186
 4851TIP3   OH236111   2.100   2.182   6.893
 4851TIP3    H136112   2.174   2.194   6.953
 4851TIP3    H236113   2.128   2.111   6.835
 4852TIP3   OH236114   4.376   2.424   1.826
 4852TIP3    H136115   4.440   2.490   1.851
 4852TIP3    H236116   4.303   2.437   1.885
 4853TIP3   OH236117   0.268   2.597   8.519
 4853TIP3    H136118   0.358   2.602   8.550
 4853TIP3    H236119   0.248   2.684   8.485
 4854TIP3   OH236120   2.775   4.295   2.162
 4854TIP3    H136121   2.749   4.273   2.251
 4854TIP3    H236122   2.696   4.285   2.109
 4855TIP3   OH236123   4.364   2.068   2.464
 4855TIP3    H136124   4.442   2.033   2.507
 4855TIP3    H236125   4.352   2.154   2.504
 4856TIP3   OH236126   1.156   3.978   0.423
 4856TIP3    H136127   1.163   3.886   0.397
 4856TIP3    H236128   1.186   4.026   0.346
 4857TIP3   OH236129   4.868   3.196   0.723
 4857TIP3    H136130   4.961   3.212   0.712
 4857TIP3    H236131   4.835   3.183   0.634
 4858TIP3   OH236132   0.137   3.930   6.921
 4858TIP3    H136133   0.087   3.999   6.876
 4858TIP3    H236134   0.090   3.917   7.003
 4859TIP3   OH236135   2.402   3.002   0.546
 4859TIP3    H136136   2.339   3.072   0.562
 4859TIP3    H236137   2.485   3.036   0.578
 4860TIP3   OH236138   0.608   4.740   7.384
 4860TIP3    H136139   0.673   4.707   7.446
 4860TIP3    H236140   0.635   4.706   7.299
 4861TIP3   OH236141   2.054   4.554   0.241
 4861TIP3    H136142   2.137   4.566   0.196
 4861TIP3    H236143   2.013   4.641   0.239
 4862TIP3   OH236144   3.510   2.669   0.499
 4862TIP3    H136145   3.574   2.610   0.539
 4862TIP3    H236146   3.480   2.623   0.421
 4863TIP3   OH236147   4.279   0.810   2.490
 4863TIP3    H136148   4.204   0.753   2.471
 4863TIP3    H236149   4.295   0.857   2.408
 4864TIP3   OH236150   5.622   2.641   1.388
 4864TIP3    H136151   5.657   2.609   1.304
 4864TIP3    H236152   5.639   2.735   1.386
 4865TIP3   OH236153   5.571   3.528   0.684
 4865TIP3    H136154   5.531   3.508   0.768
 4865TIP3    H236155   5.527   3.607   0.654
 4866TIP3   OH236156   3.275   0.255   0.593
 4866TIP3    H136157   3.366   0.283   0.582
 4866TIP3    H236158   3.225   0.336   0.591
 4867TIP3   OH236159   0.772   4.314   7.771
 4867TIP3    H136160   0.713   4.389   7.764
 4867TIP3    H236161   0.771   4.276   7.683
 4868TIP3   OH236162   4.797   5.584   6.451
 4868TIP3    H136163   4.775   5.626   6.368
 4868TIP3    H236164   4.853   5.510   6.426
 4869TIP3   OH236165   4.897   2.604   6.825
 4869TIP3    H136166   4.902   2.509   6.830
 4869TIP3    H236167   4.848   2.630   6.904
 4870TIP3   OH236168   2.716   0.883   8.054
 4870TIP3    H136169   2.733   0.869   7.960
 4870TIP3    H236170   2.746   0.973   8.070
 4871TIP3   OH236171   4.298   4.496   1.292
 4871TIP3    H136172   4.238   4.445   1.238
 4871TIP3    H236173   4.245   4.528   1.364
 4872TIP3   OH236174   3.642   3.410   7.055
 4872TIP3    H136175   3.626   3.504   7.043
 4872TIP3    H236176   3.582   3.385   7.125
 4873TIP3   OH236177   1.084   6.321   0.924
 4873TIP3    H136178   1.138   6.353   0.996
 4873TIP3    H236179   1.075   6.227   0.941
 4874TIP3   OH236180   2.522   3.680   7.149
 4874TIP3    H136181   2.537   3.590   7.179
 4874TIP3    H236182   2.428   3.694   7.161
 4875TIP3   OH236183   5.177   2.304   8.695
 4875TIP3    H136184   5.151   2.389   8.658
 4875TIP3    H236185   5.218   2.326   8.778
 4876TIP3   OH236186   3.114   2.804   6.940
 4876TIP3    H136187   3.094   2.740   6.872
 4876TIP3    H236188   3.147   2.880   6.892
 4877TIP3   OH236189   1.007   5.687   0.249
 4877TIP3    H136190   1.019   5.594   0.230
 4877TIP3    H236191   0.960   5.689   0.333
 4878TIP3   OH236192   5.589   5.682   1.390
 4878TIP3    H136193   5.543   5.763   1.415
 4878TIP3    H236194   5.624   5.649   1.472
 4879TIP3   OH236195   2.021   5.026   8.675
 4879TIP3    H136196   1.971   5.102   8.705
 4879TIP3    H236197   2.063   4.993   8.755
 4880TIP3   OH236198   2.689   6.283   7.908
 4880TIP3    H136199   2.742   6.309   7.833
 4880TIP3    H236200   2.753   6.258   7.975
 4881TIP3   OH236201   0.679   0.784   1.433
 4881TIP3    H136202   0.718   0.723   1.370
 4881TIP3    H236203   0.743   0.855   1.441
 4882TIP3   OH236204   2.460   6.695   1.542
 4882TIP3    H136205   2.383   6.639   1.544
 4882TIP3    H236206   2.517   6.655   1.475
 4883TIP3   OH236207   5.817   2.112   2.288
 4883TIP3    H136208   5.731   2.151   2.304
 4883TIP3    H236209   5.830   2.051   2.361
 4884TIP3   OH236210   0.638   4.812   1.544
 4884TIP3    H136211   0.569   4.752   1.515
 4884TIP3    H236212   0.639   4.803   1.639
 4885TIP3   OH236213   6.561   4.207   8.556
 4885TIP3    H136214   6.554   4.295   8.520
 4885TIP3    H236215   6.486   4.199   8.615
 4886TIP3   OH236216   1.033   0.063   7.061
 4886TIP3    H136217   0.981   6.809   7.031
 4886TIP3    H236218   1.084   0.090   6.984
 4887TIP3   OH236219   0.894   5.915   2.211
 4887TIP3    H136220   0.844   5.925   2.129
 4887TIP3    H236221   0.976   5.874   2.183
 4888TIP3   OH236222   6.119   5.895   1.271
 4888TIP3    H136223   6.074   5.815   1.299
 4888TIP3    H236224   6.084   5.912   1.183
 4889TIP3   OH236225   2.486   4.708   0.685
 4889TIP3    H136226   2.406   4.662   0.712
 4889TIP3    H236227   2.458   4.760   0.610
 4890TIP3   OH236228   5.595   2.955   7.126
 4890TIP3    H136229   5.649   2.907   7.063
 4890TIP3    H236230   5.643   2.950   7.208
 4891TIP3   OH236231   2.033   3.605   0.098
 4891TIP3    H136232   2.064   3.547   0.028
 4891TIP3    H236233   2.054   3.693   0.067
 4892TIP3   OH236234   2.641   5.111   8.772
 4892TIP3    H136235   2.730   5.076   8.780
 4892TIP3    H236236   2.617   5.096   8.681
 4893TIP3   OH236237   2.461   3.725   0.484
 4893TIP3    H136238   2.450   3.777   0.564
 4893TIP3    H236239   2.507   3.646   0.513
 4894TIP3   OH236240   4.573   0.036   2.065
 4894TIP3    H136241   4.599   6.809   2.144
 4894TIP3    H236242   4.606   0.125   2.078
 4895TIP3   OH236243   0.213   3.253   1.635
 4895TIP3    H136244   0.221   3.324   1.571
 4895TIP3    H236245   0.183   3.178   1.584
 4896TIP3   OH236246   1.739   6.239   1.472
 4896TIP3    H136247   1.668   6.174   1.471
 4896TIP3    H236248   1.700   6.316   1.512
 4897TIP3   OH236249   0.760   1.334   7.651
 4897TIP3    H136250   0.701   1.318   7.725
 4897TIP3    H236251   0.722   1.283   7.579
 4898TIP3   OH236252   5.175   3.972   8.526
 4898TIP3    H136253   5.118   3.914   8.576
 4898TIP3    H236254   5.181   3.932   8.439
 4899TIP3   OH236255   6.682   2.225   8.698
 4899TIP3    H136256   6.728   2.166   8.637
 4899TIP3    H236257   6.592   2.225   8.667
 4900TIP3   OH236258   2.325   4.464   8.432
 4900TIP3    H136259   2.274   4.451   8.353
 4900TIP3    H236260   2.416   4.452   8.405
 4901TIP3   OH236261   3.077   2.054   1.949
 4901TIP3    H136262   3.100   2.028   2.038
 4901TIP3    H236263   2.999   2.109   1.959
 4902TIP3   OH236264   3.825   1.063   0.668
 4902TIP3    H136265   3.808   0.969   0.660
 4902TIP3    H236266   3.845   1.091   0.579
 4903TIP3   OH236267   0.759   4.961   8.264
 4903TIP3    H136268   0.748   4.877   8.220
 4903TIP3    H236269   0.833   5.002   8.219
 4904TIP3   OH236270   2.580   4.397   8.382
 4904TIP3    H136271   2.639   4.333   8.421
 4904TIP3    H236272   2.608   4.405   8.291
 4905TIP3   OH236273   4.831   1.629   8.703
 4905TIP3    H136274   4.855   1.551   8.754
 4905TIP3    H236275   4.736   1.628   8.700
 4906TIP3   OH236276   0.514   5.516   8.627
 4906TIP3    H136277   0.562   5.589   8.587
 4906TIP3    H236278   0.563   5.495   8.706
 4907TIP3   OH236279   2.153   0.997   0.368
 4907TIP3    H136280   2.101   1.076   0.380
 4907TIP3    H236281   2.151   0.981   0.274
 4908TIP3   OH236282   1.421   0.223   0.220
 4908TIP3    H136283   1.423   0.152   0.156
 4908TIP3    H236284   1.346   0.202   0.276
 4909TIP3   OH236285   3.394   1.531   8.776
 4909TIP3    H136286   3.341   1.491   8.707
 4909TIP3    H236287   3.342   1.519   0.056
 4910TIP3   OH236288   3.078   3.103   6.673
 4910TIP3    H136289   3.130   3.168   6.625
 4910TIP3    H236290   3.141   3.062   6.733
 4911TIP3   OH236291   5.768   6.021   1.043
 4911TIP3    H136292   5.768   6.057   1.132
 4911TIP3    H236293   5.838   5.955   1.044
 4912TIP3   OH236294   2.694   0.205   8.524
 4912TIP3    H136295   2.693   0.161   8.609
 4912TIP3    H236296   2.649   0.288   8.539
 4913TIP3   OH236297   1.926   6.221   0.210
 4913TIP3    H136298   1.868   6.198   0.138
 4913TIP3    H236299   1.962   6.138   0.241
 4914TIP3   OH236300   2.647   1.124   6.332
 4914TIP3    H136301   2.680   1.195   6.386
 4914TIP3    H236302   2.609   1.167   6.255
 4915TIP3   OH236303   5.837   1.555   8.522
 4915TIP3    H136304   5.891   1.538   8.445
 4915TIP3    H236305   5.861   1.486   8.584
 4916TIP3   OH236306   4.563   1.261   8.053
 4916TIP3    H136307   4.597   1.215   8.130
 4916TIP3    H236308   4.510   1.196   8.007
 4917TIP3   OH236309   4.760   0.540   2.625
 4917TIP3    H136310   4.741   0.449   2.598
 4917TIP3    H236311   4.676   0.585   2.618
 4918TIP3   OH236312   3.965   3.971   2.378
 4918TIP3    H136313   4.059   3.986   2.391
 4918TIP3    H236314   3.961   3.924   2.294
 4919TIP3   OH236315   4.488   4.051   1.255
 4919TIP3    H136316   4.470   4.029   1.346
 4919TIP3    H236317   4.409   4.095   1.224
 4920TIP3   OH236318   1.713   6.004   8.648
 4920TIP3    H136319   1.707   5.951   8.569
 4920TIP3    H236320   1.652   5.962   8.710
 4921TIP3   OH236321   2.529   5.335   0.314
 4921TIP3    H136322   2.446   5.298   0.345
 4921TIP3    H236323   2.502   5.410   0.260
 4922TIP3   OH236324   4.021   2.548   8.344
 4922TIP3    H136325   4.031   2.492   8.267
 4922TIP3    H236326   4.026   2.637   8.311
 4923TIP3   OH236327   4.510   3.489   8.387
 4923TIP3    H136328   4.602   3.495   8.416
 4923TIP3    H236329   4.502   3.555   8.319
 4924TIP3   OH236330   6.511   3.090   0.013
 4924TIP3    H136331   6.498   3.056   0.101
 4924TIP3    H236332   6.435   3.057   8.764
 4925TIP3   OH236333   5.327   2.842   1.231
 4925TIP3    H136334   5.240   2.828   1.193
 4925TIP3    H236335   5.329   2.785   1.308
 4926TIP3   OH236336   1.905   6.398   7.697
 4926TIP3    H136337   1.908   6.385   7.603
 4926TIP3    H236338   1.847   6.473   7.709
 4927TIP3   OH236339   3.899   0.244   1.786
 4927TIP3    H136340   3.890   0.286   1.871
 4927TIP3    H236341   3.992   0.250   1.765
 4928TIP3   OH236342   1.881   0.606   8.546
 4928TIP3    H136343   1.910   0.643   8.463
 4928TIP3    H236344   1.824   0.673   8.584
 4929TIP3   OH236345   3.563   5.479   6.475
 4929TIP3    H136346   3.546   5.393   6.437
 4929TIP3    H236347   3.487   5.532   6.452
 4930TIP3   OH236348   3.396   2.985   1.632
 4930TIP3    H136349   3.352   2.912   1.676
 4930TIP3    H236350   3.466   3.010   1.692
 4931TIP3   OH236351   3.113   0.802   0.527
 4931TIP3    H136352   3.174   0.832   0.594
 4931TIP3    H236353   3.081   0.882   0.485
 4932TIP3   OH236354   4.311   3.939   0.520
 4932TIP3    H136355   4.381   4.003   0.513
 4932TIP3    H236356   4.320   3.903   0.608
 4933TIP3   OH236357   1.466   6.324   1.556
 4933TIP3    H136358   1.396   6.306   1.493
 4933TIP3    H236359   1.422   6.371   1.627
 4934TIP3   OH236360   5.953   4.707   7.633
 4934TIP3    H136361   5.901   4.714   7.713
 4934TIP3    H236362   5.922   4.626   7.592
 4935TIP3   OH236363   0.153   4.076   7.503
 4935TIP3    H136364   0.133   4.129   7.426
 4935TIP3    H236365   0.249   4.073   7.506
 4936TIP3   OH236366   2.084   3.818   0.517
 4936TIP3    H136367   2.076   3.739   0.462
 4936TIP3    H236368   1.995   3.834   0.549
 4937TIP3   OH236369   1.197   2.660   0.583
 4937TIP3    H136370   1.133   2.594   0.554
 4937TIP3    H236371   1.235   2.623   0.662
 4938TIP3   OH236372   5.973   4.326   0.725
 4938TIP3    H136373   5.964   4.337   0.630
 4938TIP3    H236374   6.041   4.388   0.750
 4939TIP3   OH236375   3.720   0.777   0.632
 4939TIP3    H136376   3.639   0.727   0.645
 4939TIP3    H236377   3.784   0.734   0.688
 4940TIP3   OH236378   3.412   4.013   7.746
 4940TIP3    H136379   3.363   4.060   7.680
 4940TIP3    H236380   3.360   3.934   7.763
 4941TIP3   OH236381   2.290   4.254   6.405
 4941TIP3    H136382   2.253   4.222   6.323
 4941TIP3    H236383   2.369   4.302   6.379
 4942TIP3   OH236384   4.801   3.237   8.076
 4942TIP3    H136385   4.841   3.213   7.993
 4942TIP3    H236386   4.707   3.240   8.057
 4943TIP3   OH236387   4.066   3.596   1.591
 4943TIP3    H136388   4.052   3.681   1.548
 4943TIP3    H236389   4.147   3.563   1.553
 4944TIP3   OH236390   6.623   2.219   7.031
 4944TIP3    H136391   6.673   2.254   6.958
 4944TIP3    H236392   6.566   2.152   6.993
 4945TIP3   OH236393   4.210   1.574   1.846
 4945TIP3    H136394   4.136   1.530   1.804
 4945TIP3    H236395   4.209   1.542   1.937
 4946TIP3   OH236396   3.062   4.700   0.247
 4946TIP3    H136397   3.014   4.635   0.298
 4946TIP3    H236398   3.049   4.783   0.294
 4947TIP3   OH236399   2.394   1.122   2.639
 4947TIP3    H136400   2.344   1.197   2.607
 4947TIP3    H236401   2.332   1.049   2.635
 4948TIP3   OH236402   1.251   1.950   0.687
 4948TIP3    H136403   1.235   2.035   0.729
 4948TIP3    H236404   1.167   1.928   0.646
 4949TIP3   OH236405   1.294   2.708   8.113
 4949TIP3    H136406   1.292   2.768   8.187
 4949TIP3    H236407   1.217   2.731   8.061
 4950TIP3   OH236408   4.494   1.971   1.871
 4950TIP3    H136409   4.589   1.965   1.864
 4950TIP3    H236410   4.467   1.885   1.902
 4951TIP3   OH236411   4.488   4.926   8.738
 4951TIP3    H136412   4.564   4.961   8.784
 4951TIP3    H236413   4.519   4.908   8.649
 4952TIP3   OH236414   2.960   1.342   8.380
 4952TIP3    H136415   2.971   1.247   8.390
 4952TIP3    H236416   3.043   1.372   8.344
 4953TIP3   OH236417   2.396   5.517   0.742
 4953TIP3    H136418   2.366   5.569   0.667
 4953TIP3    H236419   2.378   5.426   0.718
 4954TIP3   OH236420   5.808   3.857   1.568
 4954TIP3    H136421   5.718   3.842   1.597
 4954TIP3    H236422   5.862   3.833   1.643
 4955TIP3   OH236423   0.023   1.422   6.628
 4955TIP3    H136424   6.808   1.350   6.575
 4955TIP3    H236425   0.087   1.382   6.686
 4956TIP3   OH236426   6.004   0.308   7.080
 4956TIP3    H136427   6.007   0.335   6.989
 4956TIP3    H236428   6.054   0.226   7.083
 4957TIP3   OH236429   5.854   2.267   1.744
 4957TIP3    H136430   5.919   2.246   1.811
 4957TIP3    H236431   5.906   2.281   1.665
 4958TIP3   OH236432   5.466   1.696   0.918
 4958TIP3    H136433   5.375   1.686   0.889
 4958TIP3    H236434   5.461   1.747   0.999
 4959TIP3   OH236435   1.788   2.698   7.591
 4959TIP3    H136436   1.719   2.710   7.526
 4959TIP3    H236437   1.766   2.760   7.661
 4960TIP3   OH236438   0.177   3.718   1.787
 4960TIP3    H136439   0.149   3.641   1.835
 4960TIP3    H236440   0.254   3.690   1.738
 4961TIP3   OH236441   6.062   0.314   7.499
 4961TIP3    H136442   6.150   0.325   7.462
 4961TIP3    H236443   6.013   0.389   7.466
 4962TIP3   OH236444   4.404   4.910   1.800
 4962TIP3    H136445   4.468   4.975   1.829
 4962TIP3    H236446   4.349   4.894   1.878
 4963TIP3   OH236447   2.421   0.532   0.600
 4963TIP3    H136448   2.443   0.600   0.536
 4963TIP3    H236449   2.467   0.454   0.569
 4964TIP3   OH236450   1.215   2.197   7.887
 4964TIP3    H136451   1.175   2.157   7.964
 4964TIP3    H236452   1.226   2.125   7.826
 4965TIP3   OH236453   6.548   2.074   0.738
 4965TIP3    H136454   6.625   2.090   0.682
 4965TIP3    H236455   6.478   2.053   0.676
 4966TIP3   OH236456   4.578   0.222   0.526
 4966TIP3    H136457   4.514   0.238   0.595
 4966TIP3    H236458   4.542   0.266   0.449
 4967TIP3   OH236459   1.822   6.425   1.739
 4967TIP3    H136460   1.855   6.407   1.651
 4967TIP3    H236461   1.764   6.501   1.729
 4968TIP3   OH236462   5.341   0.070   7.535
 4968TIP3    H136463   5.251   0.075   7.503
 4968TIP3    H236464   5.346   6.805   7.578
 4969TIP3   OH236465   0.157   1.483   0.898
 4969TIP3    H136466   0.109   1.523   0.825
 4969TIP3    H236467   0.124   1.393   0.902
 4970TIP3   OH236468   0.642   6.120   7.243
 4970TIP3    H136469   0.706   6.172   7.194
 4970TIP3    H236470   0.640   6.161   7.330
 4971TIP3   OH236471   2.341   0.172   0.597
 4971TIP3    H136472   2.412   0.213   0.547
 4971TIP3    H236473   2.379   0.090   0.630
 4972TIP3   OH236474   5.927   2.905   0.240
 4972TIP3    H136475   6.008   2.873   0.280
 4972TIP3    H236476   5.886   2.827   0.201
 4973TIP3   OH236477   6.077   3.885   1.006
 4973TIP3    H136478   5.992   3.877   1.050
 4973TIP3    H236479   6.063   3.951   0.938
 4974TIP3   OH236480   4.271   5.988   6.422
 4974TIP3    H136481   4.351   6.028   6.387
 4974TIP3    H236482   4.302   5.916   6.477
 4975TIP3   OH236483   5.113   0.057   1.339
 4975TIP3    H136484   5.021   0.083   1.328
 4975TIP3    H236485   5.118   6.790   1.298
 4976TIP3   OH236486   4.612   5.384   0.031
 4976TIP3    H136487   4.668   5.459   0.010
 4976TIP3    H236488   4.592   5.344   8.747
 4977TIP3   OH236489   0.649   5.395   8.337
 4977TIP3    H136490   0.642   5.490   8.322
 4977TIP3    H236491   0.740   5.383   8.363
 4978TIP3   OH236492   3.886   5.386   0.504
 4978TIP3    H136493   3.956   5.424   0.451
 4978TIP3    H236494   3.897   5.427   0.590
 4979TIP3   OH236495   4.610   0.356   1.856
 4979TIP3    H136496   4.687   0.350   1.799
 4979TIP3    H236497   4.646   0.357   1.945
 4980TIP3   OH236498   3.408   6.700   6.561
 4980TIP3    H136499   3.394   6.775   6.618
 4980TIP3    H236500   3.459   6.639   6.613
 4981TIP3   OH236501   4.660   4.925   6.604
 4981TIP3    H136502   4.685   5.013   6.575
 4981TIP3    H236503   4.709   4.866   6.546
 4982TIP3   OH236504   4.628   0.253   2.680
 4982TIP3    H136505   4.627   0.281   2.589
 4982TIP3    H236506   4.672   0.168   2.679
 4983TIP3   OH236507   1.803   5.031   0.438
 4983TIP3    H136508   1.841   5.065   0.357
 4983TIP3    H236509   1.771   5.109   0.484
 4984TIP3   OH236510   1.485   5.049   7.168
 4984TIP3    H136511   1.473   5.074   7.260
 4984TIP3    H236512   1.450   4.961   7.162
 4985TIP3   OH236513   0.055   6.817   0.823
 4985TIP3    H136514   0.081   6.801   0.914
 4985TIP3    H236515   0.135   6.806   0.772
 4986TIP3   OH236516   3.288   5.392   7.584
 4986TIP3    H136517   3.248   5.341   7.513
 4986TIP3    H236518   3.330   5.326   7.640
 4987TIP3   OH236519   1.929   4.891   8.133
 4987TIP3    H136520   1.903   4.914   8.223
 4987TIP3    H236521   1.936   4.975   8.088
 4988TIP3   OH236522   1.481   4.791   6.585
 4988TIP3    H136523   1.565   4.750   6.601
 4988TIP3    H236524   1.474   4.797   6.489
 4989TIP3   OH236525   3.622   1.697   1.555
 4989TIP3    H136526   3.649   1.615   1.596
 4989TIP3    H236527   3.526   1.698   1.563
 4990TIP3   OH236528   4.026   5.220   6.255
 4990TIP3    H136529   4.014   5.125   6.261
 4990TIP3    H236530   3.989   5.254   6.336
 4991TIP3   OH236531   3.874   6.377   8.393
 4991TIP3    H136532   3.929   6.299   8.388
 4991TIP3    H236533   3.790   6.345   8.424
 4992TIP3   OH236534   6.800   0.615   8.265
 4992TIP3    H136535   6.774   0.579   8.181
 4992TIP3    H236536   6.754   0.562   8.330
 4993TIP3   OH236537   4.988   1.965   1.365
 4993TIP3    H136538   4.982   1.877   1.327
 4993TIP3    H236539   4.901   1.980   1.403
 4994TIP3   OH236540   2.368   6.477   1.313
 4994TIP3    H136541   2.300   6.531   1.273
 4994TIP3    H236542   2.450   6.513   1.278
 4995TIP3   OH236543   5.079   5.887   0.772
 4995TIP3    H136544   5.101   5.808   0.721
 4995TIP3    H236545   5.126   5.958   0.727
 4996TIP3   OH236546   0.588   1.958   8.189
 4996TIP3    H136547   0.630   1.888   8.239
 4996TIP3    H236548   0.498   1.928   8.177
 4997TIP3   OH236549   0.540   6.736   8.543
 4997TIP3    H136550   0.546   0.011   8.555
 4997TIP3    H236551   0.627   6.710   8.513
 4998TIP3   OH236552   3.744   3.731   1.981
 4998TIP3    H136553   3.782   3.684   1.908
 4998TIP3    H236554   3.650   3.718   1.972
 4999TIP3   OH236555   2.182   4.988   8.431
 4999TIP3    H136556   2.098   4.978   8.476
 4999TIP3    H236557   2.232   4.910   8.454
 5000TIP3   OH236558   3.160   4.190   7.697
 5000TIP3    H136559   3.176   4.187   7.791
 5000TIP3    H236560   3.076   4.236   7.689
 5001TIP3   OH236561   5.157   1.935   0.440
 5001TIP3    H136562   5.226   1.878   0.473
 5001TIP3    H236563   5.170   1.938   0.346
 5002TIP3   OH236564   3.272   6.559   0.415
 5002TIP3    H136565   3.223   6.533   0.336
 5002TIP3    H236566   3.361   6.529   0.398
 5003TIP3   OH236567   2.946   5.891   2.433
 5003TIP3    H136568   2.885   5.898   2.506
 5003TIP3    H236569   2.943   5.799   2.407
 5004TIP3   OH236570   5.330   3.159   0.114
 5004TIP3    H136571   5.350   3.109   0.193
 5004TIP3    H236572   5.239   3.184   0.124
 5005TIP3   OH236573   3.746   1.025   8.374
 5005TIP3    H136574   3.817   1.005   8.435
 5005TIP3    H236575   3.789   1.038   8.290
 5006TIP3   OH236576   5.611   3.175   0.131
 5006TIP3    H136577   5.518   3.195   0.126
 5006TIP3    H236578   5.653   3.261   0.136
 5007TIP3   OH236579   1.457   4.512   1.351
 5007TIP3    H136580   1.515   4.543   1.421
 5007TIP3    H236581   1.510   4.516   1.272
 5008TIP3   OH236582   1.876   3.717   7.170
 5008TIP3    H136583   1.887   3.751   7.259
 5008TIP3    H236584   1.782   3.705   7.161
 5009TIP3   OH236585   5.730   1.837   1.399
 5009TIP3    H136586   5.639   1.859   1.422
 5009TIP3    H236587   5.778   1.919   1.410
 5010TIP3   OH236588   4.397   4.741   1.258
 5010TIP3    H136589   4.465   4.738   1.326
 5010TIP3    H236590   4.364   4.651   1.254
 5011TIP3   OH236591   3.429   4.750   1.570
 5011TIP3    H136592   3.393   4.678   1.519
 5011TIP3    H236593   3.503   4.712   1.618
 5012TIP3   OH236594   0.092   5.253   1.867
 5012TIP3    H136595   0.169   5.284   1.819
 5012TIP3    H236596   0.047   5.333   1.895
 5013TIP3   OH236597   4.931   4.947   7.318
 5013TIP3    H136598   5.024   4.936   7.340
 5013TIP3    H236599   4.924   4.914   7.229
 5014TIP3   OH236600   1.283   3.211   7.272
 5014TIP3    H136601   1.338   3.149   7.321
 5014TIP3    H236602   1.285   3.178   7.182
 5015TIP3   OH236603   4.322   1.268   7.869
 5015TIP3    H136604   4.342   1.304   7.955
 5015TIP3    H236605   4.228   1.250   7.871
 5016TIP3   OH236606   0.901   3.145   1.386
 5016TIP3    H136607   0.988   3.165   1.352
 5016TIP3    H236608   0.872   3.226   1.427
 5017TIP3   OH236609   5.775   6.408   1.679
 5017TIP3    H136610   5.716   6.431   1.750
 5017TIP3    H236611   5.785   6.489   1.629
 5018TIP3   OH236612   4.458   4.462   8.424
 5018TIP3    H136613   4.501   4.411   8.492
 5018TIP3    H236614   4.487   4.422   8.342
 5019TIP3   OH236615   0.718   3.321   8.720
 5019TIP3    H136616   0.683   3.251   8.777
 5019TIP3    H236617   0.688   3.402   8.761
 5020TIP3   OH236618   0.687   4.497   1.850
 5020TIP3    H136619   0.613   4.443   1.823
 5020TIP3    H236620   0.671   4.582   1.811
 5021TIP3   OH236621   0.404   1.155   7.833
 5021TIP3    H136622   0.387   1.203   7.915
 5021TIP3    H236623   0.416   1.224   7.768
 5022TIP3   OH236624   5.661   3.429   0.081
 5022TIP3    H136625   5.658   3.502   0.019
 5022TIP3    H236626   5.724   3.457   0.148
 5023TIP3   OH236627   5.866   1.830   7.254
 5023TIP3    H136628   5.783   1.782   7.254
 5023TIP3    H236629   5.911   1.800   7.175
 5024TIP3   OH236630   2.424   5.564   1.546
 5024TIP3    H136631   2.329   5.551   1.551
 5024TIP3    H236632   2.449   5.596   1.632
 5025TIP3   OH236633   5.514   4.435   1.994
 5025TIP3    H136634   5.591   4.490   1.979
 5025TIP3    H236635   5.439   4.492   1.976
 5026TIP3   OH236636   1.042   1.467   8.173
 5026TIP3    H136637   1.018   1.526   8.102
 5026TIP3    H236638   1.134   1.486   8.191
 5027TIP3   OH236639   5.184   1.270   1.525
 5027TIP3    H136640   5.228   1.294   1.443
 5027TIP3    H236641   5.192   1.175   1.530
 5028TIP3   OH236642   2.388   5.983   0.387
 5028TIP3    H136643   2.297   6.013   0.384
 5028TIP3    H236644   2.430   6.026   0.313
 5029TIP3   OH236645   2.125   0.070   8.367
 5029TIP3    H136646   2.210   0.113   8.366
 5029TIP3    H236647   2.109   0.050   8.459
 5030TIP3   OH236648   4.973   3.641   6.588
 5030TIP3    H136649   4.959   3.547   6.579
 5030TIP3    H236650   4.903   3.671   6.646
 5031TIP3   OH236651   3.607   2.505   7.153
 5031TIP3    H136652   3.660   2.444   7.103
 5031TIP3    H236653   3.548   2.545   7.088
 5032TIP3   OH236654   3.285   0.900   6.384
 5032TIP3    H136655   3.345   0.969   6.413
 5032TIP3    H236656   3.313   0.880   6.295
 5033TIP3   OH236657   1.381   5.420   6.879
 5033TIP3    H136658   1.344   5.342   6.920
 5033TIP3    H236659   1.345   5.421   6.791
 5034TIP3   OH236660   0.502   2.500   2.363
 5034TIP3    H136661   0.588   2.476   2.329
 5034TIP3    H236662   0.449   2.515   2.285
 5035TIP3   OH236663   4.281   5.958   1.125
 5035TIP3    H136664   4.202   5.932   1.078
 5035TIP3    H236665   4.299   5.886   1.185
 5036TIP3   OH236666   5.058   3.897   6.586
 5036TIP3    H136667   5.151   3.890   6.565
 5036TIP3    H236668   5.026   3.807   6.588
 5037TIP3   OH236669   5.447   0.415   0.895
 5037TIP3    H136670   5.359   0.451   0.900
 5037TIP3    H236671   5.505   0.491   0.900
 5038TIP3   OH236672   6.002   4.770   8.033
 5038TIP3    H136673   6.027   4.822   8.109
 5038TIP3    H236674   5.942   4.827   7.984
 5039TIP3   OH236675   1.595   4.169   1.440
 5039TIP3    H136676   1.614   4.204   1.527
 5039TIP3    H236677   1.676   4.185   1.390
 5040TIP3   OH236678   5.972   1.602   8.117
 5040TIP3    H136679   6.051   1.555   8.144
 5040TIP3    H236680   5.973   1.596   8.021
 5041TIP3   OH236681   1.502   4.217   1.729
 5041TIP3    H136682   1.516   4.309   1.754
 5041TIP3    H236683   1.575   4.170   1.769
 5042TIP3   OH236684   3.385   0.011   0.437
 5042TIP3    H136685   3.301   0.057   0.439
 5042TIP3    H236686   3.368   6.748   0.483
 5043TIP3   OH236687   1.295   6.724   0.769
 5043TIP3    H136688   1.342   6.800   0.733
 5043TIP3    H236689   1.342   6.703   0.850
 5044TIP3   OH236690   2.235   4.722   7.840
 5044TIP3    H136691   2.228   4.706   7.746
 5044TIP3    H236692   2.148   4.702   7.874
 5045TIP3   OH236693   6.030   4.257   7.223
 5045TIP3    H136694   5.934   4.248   7.220
 5045TIP3    H236695   6.058   4.243   7.133
 5046TIP3   OH236696   4.203   4.969   7.876
 5046TIP3    H136697   4.207   4.875   7.897
 5046TIP3    H236698   4.141   5.005   7.939
 5047TIP3   OH236699   6.395   3.429   1.776
 5047TIP3    H136700   6.455   3.501   1.758
 5047TIP3    H236701   6.346   3.459   1.853
 5048TIP3   OH236702   1.091   6.026   1.300
 5048TIP3    H136703   1.063   6.022   1.209
 5048TIP3    H236704   1.010   6.025   1.351
 5049TIP3   OH236705   2.659   6.588   8.621
 5049TIP3    H136706   2.692   6.503   8.650
 5049TIP3    H236707   2.734   6.646   8.625
 5050TIP3   OH236708   4.157   0.949   8.352
 5050TIP3    H136709   4.230   0.932   8.411
 5050TIP3    H236710   4.087   0.981   8.408
 5051TIP3   OH236711   3.456   2.172   8.272
 5051TIP3    H136712   3.498   2.257   8.274
 5051TIP3    H236713   3.390   2.180   8.203
 5052TIP3   OH236714   2.349   5.834   1.439
 5052TIP3    H136715   2.362   5.764   1.503
 5052TIP3    H236716   2.423   5.894   1.453
 5053TIP3   OH236717   0.136   4.840   1.276
 5053TIP3    H136718   0.070   4.891   1.230
 5053TIP3    H236719   0.111   4.847   1.368
 5054TIP3   OH236720   6.401   1.736   2.168
 5054TIP3    H136721   6.489   1.771   2.175
 5054TIP3    H236722   6.351   1.805   2.126
 5055TIP3   OH236723   3.906   2.875   0.027
 5055TIP3    H136724   3.948   2.848   8.745
 5055TIP3    H236725   3.960   2.837   0.095
 5056TIP3   OH236726   6.363   5.609   7.456
 5056TIP3    H136727   6.336   5.581   7.368
 5056TIP3    H236728   6.459   5.615   7.450
 5057TIP3   OH236729   2.077   0.129   0.457
 5057TIP3    H136730   2.075   0.174   0.373
 5057TIP3    H236731   2.145   0.062   0.447
 5058TIP3   OH236732   5.028   1.669   7.094
 5058TIP3    H136733   4.980   1.596   7.056
 5058TIP3    H236734   5.099   1.686   7.032
 5059TIP3   OH236735   1.949   1.750   1.831
 5059TIP3    H136736   1.978   1.679   1.888
 5059TIP3    H236737   1.855   1.734   1.818
 5060TIP3   OH236738   3.247   4.743   0.931
 5060TIP3    H136739   3.256   4.664   0.985
 5060TIP3    H236740   3.322   4.740   0.872
 5061TIP3   OH236741   0.198   5.351   1.023
 5061TIP3    H136742   0.171   5.369   0.933
 5061TIP3    H236743   0.152   5.417   1.076
 5062TIP3   OH236744   2.273   1.506   8.187
 5062TIP3    H136745   2.314   1.581   8.144
 5062TIP3    H236746   2.336   1.435   8.179
 5063TIP3   OH236747   0.574   3.696   1.139
 5063TIP3    H136748   0.614   3.737   1.062
 5063TIP3    H236749   0.494   3.655   1.106
 5064TIP3   OH236750   4.390   5.390   7.550
 5064TIP3    H136751   4.358   5.452   7.615
 5064TIP3    H236752   4.402   5.309   7.599
 5065TIP3   OH236753   0.624   5.294   1.639
 5065TIP3    H136754   0.631   5.209   1.595
 5065TIP3    H236755   0.585   5.352   1.574
 5066TIP3   OH236756   0.678   5.726   0.956
 5066TIP3    H136757   0.608   5.710   0.892
 5066TIP3    H236758   0.740   5.654   0.942
 5067TIP3   OH236759   0.623   1.545   1.262
 5067TIP3    H136760   0.563   1.618   1.249
 5067TIP3    H236761   0.702   1.569   1.213
 5068TIP3   OH236762   0.102   5.566   0.787
 5068TIP3    H136763   0.119   5.484   0.740
 5068TIP3    H236764   0.057   5.621   0.723
 5069TIP3   OH236765   6.523   1.139   0.034
 5069TIP3    H136766   6.512   1.222   0.081
 5069TIP3    H236767   6.491   1.073   0.096
 5070TIP3   OH236768   5.206   1.706   8.449
 5070TIP3    H136769   5.253   1.653   8.514
 5070TIP3    H236770   5.116   1.672   8.452
 5071TIP3   OH236771   1.860   4.179   6.640
 5071TIP3    H136772   1.809   4.099   6.653
 5071TIP3    H236773   1.922   4.179   6.714
 5072TIP3   OH236774   0.326   4.912   0.461
 5072TIP3    H136775   0.402   4.970   0.456
 5072TIP3    H236776   0.256   4.960   0.418
 5073TIP3   OH236777   4.646   2.686   7.600
 5073TIP3    H136778   4.710   2.729   7.542
 5073TIP3    H236779   4.568   2.741   7.594
 5074TIP3   OH236780   5.170   3.643   0.531
 5074TIP3    H136781   5.096   3.632   0.471
 5074TIP3    H236782   5.190   3.554   0.559
 5075TIP3   OH236783   2.921   0.646   8.701
 5075TIP3    H136784   2.879   0.722   8.740
 5075TIP3    H236785   2.849   0.594   8.665
 5076TIP3   OH236786   2.752   0.065   7.801
 5076TIP3    H136787   2.721   6.813   7.855
 5076TIP3    H236788   2.747   0.033   7.711
 5077TIP3   OH236789   2.214   1.697   1.433
 5077TIP3    H136790   2.152   1.686   1.361
 5077TIP3    H236791   2.299   1.702   1.390
 5078TIP3   OH236792   4.478   2.752   8.147
 5078TIP3    H136793   4.432   2.761   8.064
 5078TIP3    H236794   4.516   2.664   8.145
 5079TIP3   OH236795   3.762   5.423   8.274
 5079TIP3    H136796   3.722   5.447   8.358
 5079TIP3    H236797   3.826   5.492   8.257
 5080TIP3   OH236798   5.121   0.727   1.205
 5080TIP3    H136799   5.029   0.711   1.223
 5080TIP3    H236800   5.156   0.760   1.288
 5081TIP3   OH236801   6.167   2.844   0.380
 5081TIP3    H136802   6.217   2.838   0.300
 5081TIP3    H236803   6.217   2.794   0.444
 5082TIP3   OH236804   5.099   0.733   0.161
 5082TIP3    H136805   5.111   0.663   0.097
 5082TIP3    H236806   5.084   0.687   0.244
 5083TIP3   OH236807   0.984   0.657   8.071
 5083TIP3    H136808   0.968   0.563   8.083
 5083TIP3    H236809   1.004   0.689   8.159
 5084TIP3   OH236810   1.521   6.388   6.348
 5084TIP3    H136811   1.560   6.382   6.261
 5084TIP3    H236812   1.430   6.413   6.331
 5085TIP3   OH236813   5.922   1.214   0.721
 5085TIP3    H136814   5.850   1.152   0.707
 5085TIP3    H236815   5.879   1.300   0.723
 5086TIP3   OH236816   0.684   3.500   6.000
 5086TIP3    H136817   0.707   3.542   6.082
 5086TIP3    H236818   0.743   3.539   5.935
 5087TIP3   OH236819   3.826   0.472   8.165
 5087TIP3    H136820   3.837   0.554   8.213
 5087TIP3    H236821   3.808   0.500   8.075
 5088TIP3   OH236822   2.829   5.790   6.518
 5088TIP3    H136823   2.741   5.759   6.540
 5088TIP3    H236824   2.844   5.759   6.429
 5089TIP3   OH236825   3.441   3.971   8.030
 5089TIP3    H136826   3.393   4.038   8.079
 5089TIP3    H236827   3.431   3.996   7.938
 5090TIP3   OH236828   1.150   0.638   7.079
 5090TIP3    H136829   1.232   0.622   7.126
 5090TIP3    H236830   1.174   0.636   6.986
 5091TIP3   OH236831   1.098   5.312   6.758
 5091TIP3    H136832   1.126   5.262   6.681
 5091TIP3    H236833   1.143   5.269   6.832
 5092TIP3   OH236834   3.675   2.507   0.629
 5092TIP3    H136835   3.676   2.570   0.700
 5092TIP3    H236836   3.610   2.442   0.655
 5093TIP3   OH236837   1.270   2.991   8.002
 5093TIP3    H136838   1.213   2.996   8.079
 5093TIP3    H236839   1.355   3.021   8.033
 5094TIP3   OH236840   6.075   5.078   1.604
 5094TIP3    H136841   6.047   5.037   1.686
 5094TIP3    H236842   6.157   5.122   1.626
 5095TIP3   OH236843   2.442   5.197   0.798
 5095TIP3    H136844   2.367   5.188   0.740
 5095TIP3    H236845   2.404   5.195   0.886
 5096TIP3   OH236846   1.851   0.775   7.406
 5096TIP3    H136847   1.761   0.802   7.387
 5096TIP3    H236848   1.855   0.774   7.502
 5097TIP3   OH236849   4.047   6.377   1.880
 5097TIP3    H136850   3.975   6.316   1.868
 5097TIP3    H236851   4.087   6.386   1.794
 5098TIP3   OH236852   4.792   1.455   1.883
 5098TIP3    H136853   4.849   1.395   1.834
 5098TIP3    H236854   4.738   1.496   1.816
 5099TIP3   OH236855   0.714   3.723   7.977
 5099TIP3    H136856   0.633   3.721   7.926
 5099TIP3    H236857   0.772   3.661   7.932
 5100TIP3   OH236858   5.045   0.559   7.999
 5100TIP3    H136859   4.987   0.485   8.020
 5100TIP3    H236860   5.007   0.597   7.920
 5101TIP3   OH236861   2.204   3.331   1.521
 5101TIP3    H136862   2.148   3.302   1.449
 5101TIP3    H236863   2.158   3.407   1.557
 5102TIP3   OH236864   3.207   4.193   6.078
 5102TIP3    H136865   3.187   4.116   6.132
 5102TIP3    H236866   3.122   4.218   6.041
 5103TIP3   OH236867   6.800   6.151   2.237
 5103TIP3    H136868   0.033   6.207   2.181
 5103TIP3    H236869   0.029   6.145   2.319
 5104TIP3   OH236870   2.601   5.756   7.016
 5104TIP3    H136871   2.636   5.810   6.945
 5104TIP3    H236872   2.641   5.791   7.095
 5105TIP3   OH236873   3.699   4.229   6.596
 5105TIP3    H136874   3.728   4.141   6.620
 5105TIP3    H236875   3.728   4.285   6.668
 5106TIP3   OH236876   2.997   4.325   0.101
 5106TIP3    H136877   2.912   4.282   0.110
 5106TIP3    H236878   3.023   4.347   0.190
 5107TIP3   OH236879   5.493   5.626   0.386
 5107TIP3    H136880   5.582   5.608   0.415
 5107TIP3    H236881   5.504   5.664   0.299
 5108TIP3   OH236882   3.454   3.579   7.728
 5108TIP3    H136883   3.510   3.505   7.707
 5108TIP3    H236884   3.504   3.630   7.792
 5109TIP3   OH236885   1.777   4.232   1.258
 5109TIP3    H136886   1.724   4.293   1.207
 5109TIP3    H236887   1.787   4.156   1.201
 5110TIP3   OH236888   4.138   2.002   7.591
 5110TIP3    H136889   4.106   1.969   7.507
 5110TIP3    H236890   4.176   2.088   7.570
 5111TIP3   OH236891   3.016   5.910   8.103
 5111TIP3    H136892   3.078   5.922   8.031
 5111TIP3    H236893   3.070   5.911   8.182
 5112TIP3   OH236894   0.014   2.774   7.432
 5112TIP3    H136895   6.800   2.851   7.477
 5112TIP3    H236896   6.780   2.701   7.465
 5113TIP3   OH236897   5.071   5.193   8.072
 5113TIP3    H136898   5.120   5.211   8.152
 5113TIP3    H236899   5.138   5.162   8.010
 5114TIP3   OH236900   1.056   6.413   7.716
 5114TIP3    H136901   1.152   6.423   7.713
 5114TIP3    H236902   1.023   6.503   7.707
 5115TIP3   OH236903   5.432   2.411   6.290
 5115TIP3    H136904   5.398   2.368   6.211
 5115TIP3    H236905   5.356   2.456   6.327
 5116TIP3   OH236906   3.438   1.237   1.432
 5116TIP3    H136907   3.462   1.314   1.380
 5116TIP3    H236908   3.369   1.195   1.380
 5117TIP3   OH236909   4.976   5.623   8.553
 5117TIP3    H136910   4.886   5.599   8.532
 5117TIP3    H236911   5.030   5.557   8.509
 5118TIP3   OH236912   2.210   0.360   7.431
 5118TIP3    H136913   2.155   0.437   7.442
 5118TIP3    H236914   2.150   0.286   7.432
 5119TIP3   OH236915   5.134   5.531   6.496
 5119TIP3    H136916   5.076   5.462   6.465
 5119TIP3    H236917   5.131   5.526   6.591
 5120TIP3   OH236918   2.871   6.489   7.071
 5120TIP3    H136919   2.823   6.501   7.153
 5120TIP3    H236920   2.865   6.574   7.027
 5121TIP3   OH236921   1.401   5.220   1.342
 5121TIP3    H136922   1.461   5.290   1.369
 5121TIP3    H236923   1.315   5.251   1.371
 5122TIP3   OH236924   6.516   4.910   7.437
 5122TIP3    H136925   6.441   4.856   7.411
 5122TIP3    H236926   6.587   4.847   7.452
 5123TIP3   OH236927   4.152   3.799   1.111
 5123TIP3    H136928   4.115   3.791   1.023
 5123TIP3    H236929   4.133   3.889   1.138
 5124TIP3   OH236930   0.703   3.812   7.648
 5124TIP3    H136931   0.694   3.845   7.558
 5124TIP3    H236932   0.690   3.889   7.703
 5125TIP3   OH236933   0.080   5.790   7.086
 5125TIP3    H136934   0.097   5.816   7.177
 5125TIP3    H236935   0.167   5.771   7.050
 5126TIP3   OH236936   0.497   2.879   1.202
 5126TIP3    H136937   0.536   2.943   1.261
 5126TIP3    H236938   0.412   2.916   1.179
 5127TIP3   OH236939   2.021   2.942   6.829
 5127TIP3    H136940   2.020   2.858   6.783
 5127TIP3    H236941   2.076   2.999   6.776
 5128TIP3   OH236942   1.243   3.655   1.572
 5128TIP3    H136943   1.204   3.702   1.498
 5128TIP3    H236944   1.286   3.723   1.624
 5129TIP3   OH236945   0.830   1.359   0.802
 5129TIP3    H136946   0.894   1.305   0.756
 5129TIP3    H236947   0.866   1.367   0.891
 5130TIP3   OH236948   5.631   4.912   7.515
 5130TIP3    H136949   5.594   4.863   7.588
 5130TIP3    H236950   5.629   5.004   7.544
 5131TIP3   OH236951   2.525   5.060   8.528
 5131TIP3    H136952   2.433   5.073   8.551
 5131TIP3    H236953   2.542   4.968   8.550
 5132TIP3   OH236954   1.905   0.300   8.463
 5132TIP3    H136955   1.955   0.308   8.381
 5132TIP3    H236956   1.927   0.380   8.511
 5133TIP3   OH236957   3.442   6.527   1.764
 5133TIP3    H136958   3.514   6.475   1.800
 5133TIP3    H236959   3.410   6.476   1.690
 5134TIP3   OH236960   5.003   3.588   1.066
 5134TIP3    H136961   4.936   3.525   1.038
 5134TIP3    H236962   5.054   3.607   0.988
 5135TIP3   OH236963   3.385   0.619   6.870
 5135TIP3    H136964   3.394   0.712   6.848
 5135TIP3    H236965   3.299   0.595   6.836
 5136TIP3   OH236966   2.073   3.593   0.369
 5136TIP3    H136967   2.016   3.519   0.391
 5136TIP3    H236968   2.054   3.611   0.277
 5137TIP3   OH236969   6.128   2.458   0.469
 5137TIP3    H136970   6.036   2.467   0.491
 5137TIP3    H236971   6.174   2.503   0.540
 5138TIP3   OH236972   3.848   2.033   0.364
 5138TIP3    H136973   3.834   1.941   0.387
 5138TIP3    H236974   3.764   2.075   0.382
 5139TIP3   OH236975   0.944   3.002   1.117
 5139TIP3    H136976   0.894   3.029   1.041
 5139TIP3    H236977   0.898   3.040   1.192
 5140TIP3   OH236978   2.537   0.856   7.362
 5140TIP3    H136979   2.490   0.917   7.420
 5140TIP3    H236980   2.627   0.889   7.361
 5141TIP3   OH236981   3.191   4.841   7.486
 5141TIP3    H136982   3.159   4.759   7.449
 5141TIP3    H236983   3.162   4.839   7.577
 5142TIP3   OH236984   1.847   1.940   1.606
 5142TIP3    H136985   1.826   2.029   1.635
 5142TIP3    H236986   1.897   1.902   1.678
 5143TIP3   OH236987   6.226   1.812   0.122
 5143TIP3    H136988   6.251   1.739   0.178
 5143TIP3    H236989   6.139   1.789   0.088
 5144TIP3   OH236990   6.663   1.419   2.618
 5144TIP3    H136991   6.718   1.472   2.560
 5144TIP3    H236992   6.610   1.482   2.666
 5145TIP3   OH236993   3.771   2.061   0.033
 5145TIP3    H136994   3.844   2.114   0.065
 5145TIP3    H236995   3.704   2.070   0.100
 5146TIP3   OH236996   6.434   1.160   1.025
 5146TIP3    H136997   6.442   1.067   1.002
 5146TIP3    H236998   6.371   1.195   0.962
 5147TIP3   OH236999   2.824   5.100   2.181
 5147TIP3    H137000   2.804   5.161   2.253
 5147TIP3    H237001   2.840   5.157   2.106
 5148TIP3   OH237002   5.472   1.364   7.883
 5148TIP3    H137003   5.460   1.447   7.930
 5148TIP3    H237004   5.523   1.388   7.806
 5149TIP3   OH237005   6.500   0.525   0.757
 5149TIP3    H137006   6.433   0.456   0.762
 5149TIP3    H237007   6.484   0.580   0.834
 5150TIP3   OH237008   3.173   4.540   0.002
 5150TIP3    H137009   3.208   4.575   0.084
 5150TIP3    H237010   3.107   4.476   0.029
 5151TIP3   OH237011   0.937   4.798   1.297
 5151TIP3    H137012   0.969   4.809   1.207
 5151TIP3    H237013   0.941   4.886   1.334
 5152TIP3   OH237014   3.202   5.617   7.356
 5152TIP3    H137015   3.132   5.566   7.316
 5152TIP3    H237016   3.230   5.677   7.286
 5153TIP3   OH237017   1.898   0.567   2.740
 5153TIP3    H137018   1.957   0.557   2.665
 5153TIP3    H237019   1.879   0.478   2.768
 5154TIP3   OH237020   2.682   3.254   1.245
 5154TIP3    H137021   2.751   3.204   1.201
 5154TIP3    H237022   2.726   3.334   1.275
 5155TIP3   OH237023   0.446   3.046   1.451
 5155TIP3    H137024   0.359   3.033   1.413
 5155TIP3    H237025   0.435   3.031   1.545
 5156TIP3   OH237026   4.977   5.470   8.145
 5156TIP3    H137027   5.007   5.387   8.108
 5156TIP3    H237028   4.997   5.535   8.077
 5157TIP3   OH237029   4.100   2.963   0.242
 5157TIP3    H137030   4.193   2.981   0.256
 5157TIP3    H237031   4.094   2.868   0.240
 5158TIP3   OH237032   5.719   5.747   0.807
 5158TIP3    H137033   5.625   5.761   0.820
 5158TIP3    H237034   5.725   5.660   0.767
 5159TIP3   OH237035   2.768   1.023   6.969
 5159TIP3    H137036   2.864   1.017   6.972
 5159TIP3    H237037   2.748   1.104   7.017
 5160TIP3   OH237038   5.379   0.170   0.774
 5160TIP3    H137039   5.400   0.259   0.803
 5160TIP3    H237040   5.464   0.127   0.768
 5161TIP3   OH237041   1.248   2.929   0.691
 5161TIP3    H137042   1.231   2.930   0.597
 5161TIP3    H237043   1.164   2.908   0.731
 5162TIP3   OH237044   0.242   3.659   7.700
 5162TIP3    H137045   0.225   3.568   7.725
 5162TIP3    H237046   0.181   3.710   7.754
 5163TIP3   OH237047   3.272   5.463   7.034
 5163TIP3    H137048   3.361   5.497   7.034
 5163TIP3    H237049   3.269   5.405   7.110
 5164TIP3   OH237050   2.555   4.182   6.887
 5164TIP3    H137051   2.494   4.215   6.953
 5164TIP3    H237052   2.527   4.223   6.805
 5165TIP3   OH237053   1.427   3.398   6.678
 5165TIP3    H137054   1.464   3.461   6.616
 5165TIP3    H237055   1.362   3.349   6.627
 5166TIP3   OH237056   5.337   0.581   8.756
 5166TIP3    H137057   5.393   0.656   8.738
 5166TIP3    H237058   5.321   0.542   8.670
 5167TIP3   OH237059   4.514   0.736   8.169
 5167TIP3    H137060   4.422   0.759   8.181
 5167TIP3    H237061   4.522   0.715   8.076
 5168TIP3   OH237062   1.268   3.491   8.118
 5168TIP3    H137063   1.191   3.436   8.105
 5168TIP3    H237064   1.284   3.530   8.032
 5169TIP3   OH237065   5.863   3.191   1.478
 5169TIP3    H137066   5.795   3.230   1.422
 5169TIP3    H237067   5.915   3.137   1.419
 5170TIP3   OH237068   4.319   4.256   1.571
 5170TIP3    H137069   4.386   4.246   1.639
 5170TIP3    H237070   4.303   4.350   1.567
 5171TIP3   OH237071   6.425   3.341   7.215
 5171TIP3    H137072   6.442   3.294   7.133
 5171TIP3    H237073   6.480   3.419   7.210
 5172TIP3   OH237074   5.504   3.748   7.177
 5172TIP3    H137075   5.539   3.703   7.100
 5172TIP3    H237076   5.518   3.841   7.159
 5173TIP3   OH237077   5.035   3.783   8.690
 5173TIP3    H137078   5.041   3.844   8.764
 5173TIP3    H237079   5.004   3.701   8.729
 5174TIP3   OH237080   6.648   2.187   0.187
 5174TIP3    H137081   6.685   2.209   0.102
 5174TIP3    H237082   6.563   2.148   0.167
 5175TIP3   OH237083   5.767   6.468   0.643
 5175TIP3    H137084   5.687   6.501   0.683
 5175TIP3    H237085   5.815   6.427   0.714
 5176TIP3   OH237086   5.725   3.303   0.833
 5176TIP3    H137087   5.748   3.222   0.878
 5176TIP3    H237088   5.643   3.283   0.789
 5177TIP3   OH237089   1.682   3.564   1.677
 5177TIP3    H137090   1.728   3.493   1.632
 5177TIP3    H237091   1.680   3.635   1.614
 5178TIP3   OH237092   5.121   4.198   1.361
 5178TIP3    H137093   5.081   4.168   1.280
 5178TIP3    H237094   5.135   4.119   1.413
 5179TIP3   OH237095   0.527   4.525   1.518
 5179TIP3    H137096   0.527   4.454   1.582
 5179TIP3    H237097   0.449   4.509   1.465
 5180TIP3   OH237098   1.872   3.833   1.490
 5180TIP3    H137099   1.935   3.857   1.558
 5180TIP3    H237100   1.787   3.849   1.529
 5181TIP3   OH237101   0.689   6.128   8.471
 5181TIP3    H137102   0.749   6.063   8.506
 5181TIP3    H237103   0.622   6.139   8.538
 5182TIP3   OH237104   6.111   3.428   7.298
 5182TIP3    H137105   6.122   3.502   7.357
 5182TIP3    H237106   6.095   3.353   7.355
 5183TIP3   OH237107   1.486   5.169   7.412
 5183TIP3    H137108   1.582   5.167   7.406
 5183TIP3    H237109   1.462   5.257   7.382
 5184TIP3   OH237110   6.079   5.694   6.964
 5184TIP3    H137111   6.053   5.779   7.001
 5184TIP3    H237112   6.125   5.717   6.883
 5185TIP3   OH237113   6.535   6.198   1.623
 5185TIP3    H137114   6.574   6.281   1.652
 5185TIP3    H237115   6.596   6.131   1.653
 5186TIP3   OH237116   0.800   6.595   8.177
 5186TIP3    H137117   0.821   6.618   8.267
 5186TIP3    H237118   0.717   6.548   8.183
 5187TIP3   OH237119   3.978   0.607   1.503
 5187TIP3    H137120   3.906   0.593   1.564
 5187TIP3    H237121   4.055   0.571   1.548
 5188TIP3   OH237122   0.151   4.533   8.102
 5188TIP3    H137123   0.200   4.530   8.185
 5188TIP3    H237124   0.060   4.518   8.128
 5189TIP3   OH237125   6.755   5.459   0.499
 5189TIP3    H137126   6.684   5.472   0.435
 5189TIP3    H237127   6.717   5.402   0.565
 5190TIP3   OH237128   1.402   2.049   8.341
 5190TIP3    H137129   1.409   1.956   8.323
 5190TIP3    H237130   1.489   2.084   8.320
 5191TIP3   OH237131   3.492   0.241   2.185
 5191TIP3    H137132   3.468   0.331   2.208
 5191TIP3    H237133   3.426   0.215   2.121
 5192TIP3   OH237134   1.836   4.411   6.927
 5192TIP3    H137135   1.912   4.364   6.891
 5192TIP3    H237136   1.784   4.343   6.970
 5193TIP3   OH237137   5.996   3.141   0.051
 5193TIP3    H137138   6.034   3.079   8.789
 5193TIP3    H237139   5.999   3.095   0.135
 5194TIP3   OH237140   6.378   0.823   1.354
 5194TIP3    H137141   6.324   0.891   1.314
 5194TIP3    H237142   6.390   0.758   1.284
 5195TIP3   OH237143   4.700   3.014   7.392
 5195TIP3    H137144   4.665   3.027   7.480
 5195TIP3    H237145   4.765   3.084   7.382
 5196TIP3   OH237146   4.480   5.177   0.520
 5196TIP3    H137147   4.549   5.232   0.558
 5196TIP3    H237148   4.517   5.146   0.437
 5197TIP3   OH237149   1.645   2.364   0.959
 5197TIP3    H137150   1.678   2.453   0.944
 5197TIP3    H237151   1.717   2.318   1.002
 5198TIP3   OH237152   1.306   0.716   7.332
 5198TIP3    H137153   1.293   0.674   7.417
 5198TIP3    H237154   1.304   0.810   7.352
 5199TIP3   OH237155   3.775   2.633   2.586
 5199TIP3    H137156   3.798   2.705   2.645
 5199TIP3    H237157   3.766   2.674   2.500
 5200TIP3   OH237158   1.621   6.373   0.684
 5200TIP3    H137159   1.594   6.452   0.731
 5200TIP3    H237160   1.620   6.399   0.592
 5201TIP3   OH237161   3.336   4.212   6.626
 5201TIP3    H137162   3.264   4.188   6.568
 5201TIP3    H237163   3.412   4.217   6.568
 5202TIP3   OH237164   4.671   2.446   8.438
 5202TIP3    H137165   4.633   2.361   8.460
 5202TIP3    H237166   4.704   2.435   8.349
 5203TIP3   OH237167   0.718   4.953   0.686
 5203TIP3    H137168   0.810   4.927   0.678
 5203TIP3    H237169   0.672   4.873   0.709
 5204TIP3   OH237170   4.125   3.029   7.813
 5204TIP3    H137171   4.198   3.058   7.868
 5204TIP3    H237172   4.128   3.088   7.737
 5205TIP3   OH237173   0.780   3.724   2.285
 5205TIP3    H137174   0.767   3.787   2.355
 5205TIP3    H237175   0.723   3.650   2.308
 5206TIP3   OH237176   0.996   1.202   7.953
 5206TIP3    H137177   1.066   1.181   8.014
 5206TIP3    H237178   0.976   1.294   7.971
 5207TIP3   OH237179   1.824   6.218   8.739
 5207TIP3    H137180   1.742   6.254   8.773
 5207TIP3    H237181   1.797   6.144   8.684
 5208TIP3   OH237182   3.935   0.213   7.969
 5208TIP3    H137183   3.888   0.145   7.920
 5208TIP3    H237184   3.866   0.263   8.013
 5209TIP3   OH237185   3.407   6.625   0.859
 5209TIP3    H137186   3.329   6.661   0.816
 5209TIP3    H237187   3.374   6.553   0.913
 5210TIP3   OH237188   1.966   1.343   7.354
 5210TIP3    H137189   1.971   1.307   7.266
 5210TIP3    H237190   2.044   1.398   7.362
 5211TIP3   OH237191   5.921   6.366   0.398
 5211TIP3    H137192   5.947   6.392   0.310
 5211TIP3    H237193   5.849   6.425   0.420
 5212TIP3   OH237194   0.356   4.128   1.724
 5212TIP3    H137195   0.399   4.052   1.685
 5212TIP3    H237196   0.385   4.126   1.816
 5213TIP3   OH237197   4.685   2.042   0.450
 5213TIP3    H137198   4.748   2.045   0.378
 5213TIP3    H237199   4.726   1.985   0.515
 5214TIP3   OH237200   3.230   2.767   1.789
 5214TIP3    H137201   3.147   2.744   1.832
 5214TIP3    H237202   3.292   2.777   1.862
 5215TIP3   OH237203   2.744   3.623   7.584
 5215TIP3    H137204   2.710   3.561   7.519
 5215TIP3    H237205   2.802   3.571   7.640
 5216TIP3   OH237206   2.672   5.421   8.158
 5216TIP3    H137207   2.743   5.405   8.220
 5216TIP3    H237208   2.708   5.483   8.095
 5217TIP3   OH237209   0.378   3.153   2.065
 5217TIP3    H137210   0.454   3.095   2.055
 5217TIP3    H237211   0.411   3.240   2.042
 5218TIP3   OH237212   4.025   6.342   0.704
 5218TIP3    H137213   3.945   6.304   0.668
 5218TIP3    H237214   4.090   6.333   0.635
 5219TIP3   OH237215   0.269   4.413   8.620
 5219TIP3    H137216   0.331   4.356   8.575
 5219TIP3    H237217   0.235   4.359   8.693
 5220TIP3   OH237218   1.665   5.445   1.019
 5220TIP3    H137219   1.685   5.454   0.926
 5220TIP3    H237220   1.733   5.496   1.064
 5221TIP3   OH237221   3.379   2.292   7.789
 5221TIP3    H137222   3.303   2.279   7.733
 5221TIP3    H237223   3.434   2.354   7.740
 5222TIP3   OH237224   3.252   4.095   7.262
 5222TIP3    H137225   3.202   4.176   7.273
 5222TIP3    H237226   3.310   4.112   7.188
 5223TIP3   OH237227   0.741   6.112   0.425
 5223TIP3    H137228   0.750   6.204   0.403
 5223TIP3    H237229   0.746   6.109   0.521
 5224TIP3   OH237230   5.855   6.771   0.571
 5224TIP3    H137231   5.876   0.038   0.538
 5224TIP3    H237232   5.781   6.785   0.631
 5225TIP3   OH237233   0.697   2.542   0.299
 5225TIP3    H137234   0.743   2.533   0.215
 5225TIP3    H237235   0.722   2.629   0.330
 5226TIP3   OH237236   0.609   2.957   8.238
 5226TIP3    H137237   0.611   2.869   8.277
 5226TIP3    H237238   0.628   3.016   8.312
 5227TIP3   OH237239   4.360   3.748   7.400
 5227TIP3    H137240   4.375   3.668   7.450
 5227TIP3    H237241   4.267   3.766   7.410
 5228TIP3   OH237242   5.437   6.622   7.382
 5228TIP3    H137243   5.357   6.619   7.436
 5228TIP3    H237244   5.487   6.545   7.409
 5229TIP3   OH237245   4.856   0.948   8.241
 5229TIP3    H137246   4.931   0.999   8.272
 5229TIP3    H237247   4.788   1.013   8.227
 5230TIP3   OH237248   4.842   2.641   2.653
 5230TIP3    H137249   4.907   2.653   2.722
 5230TIP3    H237250   4.871   2.698   2.582
 5231TIP3   OH237251   4.775   3.277   0.383
 5231TIP3    H137252   4.781   3.350   0.444
 5231TIP3    H237253   4.839   3.214   0.413
 5232TIP3   OH237254   3.178   1.783   7.714
 5232TIP3    H137255   3.203   1.835   7.790
 5232TIP3    H237256   3.083   1.772   7.723
 5233TIP3   OH237257   3.834   4.384   0.960
 5233TIP3    H137258   3.762   4.332   0.995
 5233TIP3    H237259   3.795   4.435   0.890
 5234TIP3   OH237260   0.200   0.992   8.048
 5234TIP3    H137261   0.292   1.009   8.030
 5234TIP3    H237262   0.154   1.017   7.968
 5235TIP3   OH237263   6.081   0.750   7.175
 5235TIP3    H137264   6.003   0.732   7.122
 5235TIP3    H237265   6.141   0.795   7.115
 5236TIP3   OH237266   4.045   2.424   7.207
 5236TIP3    H137267   4.026   2.474   7.127
 5236TIP3    H237268   4.032   2.487   7.278
 5237TIP3   OH237269   5.695   4.135   6.865
 5237TIP3    H137270   5.663   4.207   6.810
 5237TIP3    H237271   5.618   4.081   6.881
 5238TIP3   OH237272   2.350   2.522   7.236
 5238TIP3    H137273   2.268   2.513   7.188
 5238TIP3    H237274   2.350   2.449   7.297
 5239TIP3   OH237275   6.432   5.740   0.641
 5239TIP3    H137276   6.406   5.736   0.549
 5239TIP3    H237277   6.522   5.772   0.639
 5240TIP3   OH237278   2.618   4.793   8.613
 5240TIP3    H137279   2.703   4.832   8.631
 5240TIP3    H237280   2.564   4.816   8.689
 5241TIP3   OH237281   4.667   1.255   2.020
 5241TIP3    H137282   4.592   1.287   2.070
 5241TIP3    H237283   4.707   1.334   1.984
 5242TIP3   OH237284   1.322   2.362   8.790
 5242TIP3    H137285   1.238   2.368   8.746
 5242TIP3    H237286   1.309   2.295   0.057
 5243TIP3   OH237287   2.930   5.936   1.352
 5243TIP3    H137288   2.876   5.981   1.287
 5243TIP3    H237289   2.984   6.005   1.390
 5244TIP3   OH237290   3.298   3.222   8.177
 5244TIP3    H137291   3.275   3.270   8.257
 5244TIP3    H237292   3.360   3.156   8.206
 5245TIP3   OH237293   3.593   6.315   0.976
 5245TIP3    H137294   3.605   6.273   1.062
 5245TIP3    H237295   3.563   6.244   0.919
 5246TIP3   OH237296   3.556   4.518   6.379
 5246TIP3    H137297   3.481   4.476   6.336
 5246TIP3    H237298   3.580   4.590   6.320
 5247TIP3   OH237299   2.868   6.744   7.430
 5247TIP3    H137300   2.920   6.805   7.377
 5247TIP3    H237301   2.810   6.701   7.367
 5248TIP3   OH237302   6.467   5.116   8.362
 5248TIP3    H137303   6.398   5.182   8.365
 5248TIP3    H237304   6.534   5.154   8.304
 5249TIP3   OH237305   6.245   4.180   7.707
 5249TIP3    H137306   6.232   4.226   7.789
 5249TIP3    H237307   6.166   4.128   7.695
 5250TIP3   OH237308   2.117   5.974   1.536
 5250TIP3    H137309   2.173   6.048   1.560
 5250TIP3    H237310   2.159   5.935   1.459
 5251TIP3   OH237311   4.479   6.317   8.535
 5251TIP3    H137312   4.548   6.255   8.561
 5251TIP3    H237313   4.523   6.375   8.472
 5252TIP3   OH237314   4.894   0.236   0.273
 5252TIP3    H137315   4.857   0.225   0.361
 5252TIP3    H237316   4.843   0.177   0.218
 5253TIP3   OH237317   1.994   3.948   7.749
 5253TIP3    H137318   1.914   3.991   7.720
 5253TIP3    H237319   1.977   3.925   7.841
 5254TIP3   OH237320   6.668   2.362   2.494
 5254TIP3    H137321   6.629   2.417   2.426
 5254TIP3    H237322   6.758   2.393   2.501
 5255TIP3   OH237323   6.617   1.529   6.463
 5255TIP3    H137324   6.686   1.566   6.518
 5255TIP3    H237325   6.657   1.451   6.424
 5256TIP3   OH237326   0.930   5.805   7.655
 5256TIP3    H137327   0.861   5.828   7.718
 5256TIP3    H237328   0.886   5.804   7.570
 5257TIP3   OH237329   5.560   1.793   8.425
 5257TIP3    H137330   5.536   1.870   8.477
 5257TIP3    H237331   5.555   1.721   8.488
 5258TIP3   OH237332   4.576   1.060   1.078
 5258TIP3    H137333   4.665   1.092   1.093
 5258TIP3    H237334   4.548   1.103   0.998
 5259TIP3   OH237335   5.229   5.777   6.402
 5259TIP3    H137336   5.230   5.840   6.474
 5259TIP3    H237337   5.188   5.699   6.438
 5260TIP3   OH237338   6.564   5.861   6.476
 5260TIP3    H137339   6.558   5.930   6.410
 5260TIP3    H237340   6.534   5.782   6.431
 5261TIP3   OH237341   0.295   1.938   8.126
 5261TIP3    H137342   0.268   1.915   8.215
 5261TIP3    H237343   0.275   2.031   8.117
 5262TIP3   OH237344   0.238   5.130   0.672
 5262TIP3    H137345   0.194   5.205   0.632
 5262TIP3    H237346   0.330   5.141   0.649
 5263TIP3   OH237347   0.720   0.827   0.674
 5263TIP3    H137348   0.796   0.882   0.694
 5263TIP3    H237349   0.677   0.814   0.758
 5264TIP3   OH237350   1.693   0.747   1.835
 5264TIP3    H137351   1.736   0.820   1.879
 5264TIP3    H237352   1.624   0.719   1.896
 5265TIP3   OH237353   6.594   4.382   1.758
 5265TIP3    H137354   6.573   4.391   1.665
 5265TIP3    H237355   6.564   4.295   1.781
 5266TIP3   OH237356   2.388   1.036   7.504
 5266TIP3    H137357   2.347   1.120   7.523
 5266TIP3    H237358   2.442   1.017   7.580
 5267TIP3   OH237359   3.275   1.539   7.104
 5267TIP3    H137360   3.299   1.496   7.186
 5267TIP3    H237361   3.351   1.592   7.081
 5268TIP3   OH237362   5.434   4.762   0.020
 5268TIP3    H137363   5.498   4.825   0.052
 5268TIP3    H237364   5.422   4.786   8.728
 5269TIP3   OH237365   4.792   2.476   8.191
 5269TIP3    H137366   4.818   2.406   8.131
 5269TIP3    H237367   4.832   2.555   8.155
 5270TIP3   OH237368   3.869   0.197   1.019
 5270TIP3    H137369   3.957   0.215   1.051
 5270TIP3    H237370   3.881   0.141   0.942
 5271TIP3   OH237371   0.649   3.042   7.588
 5271TIP3    H137372   0.705   3.119   7.571
 5271TIP3    H237373   0.577   3.050   7.525
 5272TIP3   OH237374   3.025   3.183   6.332
 5272TIP3    H137375   3.093   3.176   6.265
 5272TIP3    H237376   3.072   3.210   6.411
 5273TIP3   OH237377   4.046   2.020   0.182
 5273TIP3    H137378   4.087   1.968   0.251
 5273TIP3    H237379   3.957   2.034   0.212
 5274TIP3   OH237380   0.908   2.739   1.181
 5274TIP3    H137381   0.956   2.821   1.169
 5274TIP3    H237382   0.873   2.719   1.094
 5275TIP3   OH237383   2.507   4.572   7.243
 5275TIP3    H137384   2.508   4.607   7.154
 5275TIP3    H237385   2.590   4.525   7.251
 5276TIP3   OH237386   3.651   5.496   8.595
 5276TIP3    H137387   3.603   5.419   8.624
 5276TIP3    H237388   3.661   5.549   8.675
 5277TIP3   OH237389   3.947   1.555   8.596
 5277TIP3    H137390   3.881   1.562   8.527
 5277TIP3    H237391   3.916   1.614   8.665
 5278TIP3   OH237392   2.012   6.532   0.578
 5278TIP3    H137393   2.097   6.506   0.614
 5278TIP3    H237394   1.981   6.455   0.530
 5279TIP3   OH237395   5.475   3.215   1.791
 5279TIP3    H137396   5.499   3.165   1.713
 5279TIP3    H237397   5.386   3.185   1.812
 5280TIP3   OH237398   3.821   0.053   6.535
 5280TIP3    H137399   3.834   6.788   6.577
 5280TIP3    H237400   3.799   0.032   6.444
 5281TIP3   OH237401   0.022   2.007   7.381
 5281TIP3    H137402   0.036   1.962   7.298
 5281TIP3    H237403   0.101   2.061   7.392
 5282TIP3   OH237404   4.361   2.023   7.256
 5282TIP3    H137405   4.308   2.035   7.335
 5282TIP3    H237406   4.308   2.060   7.186
 5283TIP3   OH237407   4.283   5.723   0.880
 5283TIP3    H137408   4.209   5.748   0.935
 5283TIP3    H237409   4.244   5.677   0.806
 5284TIP3   OH237410   6.627   2.989   8.281
 5284TIP3    H137411   6.588   3.074   8.300
 5284TIP3    H237412   6.674   2.966   8.362
 5285TIP3   OH237413   1.878   3.693   2.078
 5285TIP3    H137414   1.966   3.669   2.046
 5285TIP3    H237415   1.886   3.689   2.173
 5286TIP3   OH237416   3.198   1.912   8.677
 5286TIP3    H137417   3.202   1.991   8.730
 5286TIP3    H237418   3.283   1.870   8.690
 5287TIP3   OH237419   1.777   1.405   1.776
 5287TIP3    H137420   1.733   1.489   1.789
 5287TIP3    H237421   1.794   1.400   1.682
 5288TIP3   OH237422   1.993   4.517   7.299
 5288TIP3    H137423   2.063   4.579   7.279
 5288TIP3    H237424   1.952   4.499   7.215
 5289TIP3   OH237425   6.454   2.577   6.626
 5289TIP3    H137426   6.374   2.606   6.581
 5289TIP3    H237427   6.498   2.658   6.650
 5290TIP3   OH237428   1.023   5.506   0.543
 5290TIP3    H137429   0.962   5.578   0.529
 5290TIP3    H237430   1.068   5.495   0.459
 5291TIP3   OH237431   3.526   6.322   6.598
 5291TIP3    H137432   3.554   6.390   6.659
 5291TIP3    H237433   3.432   6.336   6.588
 5292TIP3   OH237434   3.102   2.672   8.625
 5292TIP3    H137435   3.142   2.756   8.648
 5292TIP3    H237436   3.026   2.695   8.571
 5293TIP3   OH237437   1.035   5.991   1.015
 5293TIP3    H137438   1.081   5.996   0.931
 5293TIP3    H237439   0.962   5.932   0.999
 5294TIP3   OH237440   6.098   1.143   1.052
 5294TIP3    H137441   6.094   1.214   1.117
 5294TIP3    H237442   6.120   1.188   0.970
 5295TIP3   OH237443   3.205   6.085   7.598
 5295TIP3    H137444   3.240   6.069   7.510
 5295TIP3    H237445   3.178   6.177   7.596
 5296TIP3   OH237446   4.292   1.391   8.105
 5296TIP3    H137447   4.225   1.329   8.131
 5296TIP3    H237448   4.360   1.383   8.171
 5297TIP3   OH237449   0.520   4.420   7.703
 5297TIP3    H137450   0.491   4.344   7.754
 5297TIP3    H237451   0.442   4.473   7.693
 5298TIP3   OH237452   5.487   1.999   8.582
 5298TIP3    H137453   5.396   2.024   8.566
 5298TIP3    H237454   5.524   2.072   8.632
 5299TIP3   OH237455   4.496   1.088   0.085
 5299TIP3    H137456   4.507   1.067   0.178
 5299TIP3    H237457   4.543   1.018   0.039
 5300TIP3   OH237458   0.716   6.079   8.101
 5300TIP3    H137459   0.719   6.143   8.172
 5300TIP3    H237460   0.806   6.076   8.068
 5301TIP3   OH237461   4.741   3.015   1.960
 5301TIP3    H137462   4.804   3.056   1.901
 5301TIP3    H237463   4.764   2.922   1.959
 5302TIP3   OH237464   6.726   5.577   6.666
 5302TIP3    H137465   6.648   5.522   6.671
 5302TIP3    H237466   6.746   5.583   6.573
 5303TIP3   OH237467   5.574   1.453   7.344
 5303TIP3    H137468   5.579   1.360   7.323
 5303TIP3    H237469   5.630   1.463   7.421
 5304TIP3   OH237470   1.801   1.700   8.247
 5304TIP3    H137471   1.892   1.727   8.259
 5304TIP3    H237472   1.770   1.753   8.174
 5305TIP3   OH237473   0.251   1.040   6.603
 5305TIP3    H137474   0.233   1.132   6.623
 5305TIP3    H237475   0.300   1.008   6.679
 5306TIP3   OH237476   3.922   2.268   0.255
 5306TIP3    H137477   3.872   2.333   0.304
 5306TIP3    H237478   3.922   2.190   0.311
 5307TIP3   OH237479   3.845   4.721   8.232
 5307TIP3    H137480   3.924   4.673   8.206
 5307TIP3    H237481   3.773   4.665   8.205
 5308TIP3   OH237482   5.623   5.905   0.124
 5308TIP3    H137483   5.664   5.956   0.194
 5308TIP3    H237484   5.627   5.814   0.154
 5309TIP3   OH237485   1.947   0.707   1.203
 5309TIP3    H137486   1.886   0.634   1.212
 5309TIP3    H237487   2.009   0.696   1.275
 5310TIP3   OH237488   0.155   5.823   0.574
 5310TIP3    H137489   0.059   5.830   0.570
 5310TIP3    H237490   0.183   5.903   0.618
 5311TIP3   OH237491   4.057   3.417   0.607
 5311TIP3    H137492   4.038   3.503   0.569
 5311TIP3    H237493   3.981   3.364   0.584
 5312TIP3   OH237494   5.733   0.248   7.797
 5312TIP3    H137495   5.710   0.277   7.709
 5312TIP3    H237496   5.803   0.307   7.825
 5313TIP3   OH237497   1.765   0.333   7.228
 5313TIP3    H137498   1.692   0.274   7.247
 5313TIP3    H237499   1.772   0.389   7.305
 5314TIP3   OH237500   1.271   4.144   8.289
 5314TIP3    H137501   1.281   4.152   8.384
 5314TIP3    H237502   1.354   4.175   8.253
 5315TIP3   OH237503   5.564   1.122   7.976
 5315TIP3    H137504   5.516   1.184   7.920
 5315TIP3    H237505   5.620   1.177   8.030
 5316TIP3   OH237506   2.103   5.826   1.772
 5316TIP3    H137507   2.106   5.886   1.698
 5316TIP3    H237508   2.181   5.847   1.823
 5317TIP3   OH237509   4.968   2.612   7.891
 5317TIP3    H137510   4.964   2.608   7.796
 5317TIP3    H237511   4.890   2.661   7.917
 5318TIP3   OH237512   3.154   6.646   0.675
 5318TIP3    H137513   3.112   6.730   0.654
 5318TIP3    H237514   3.176   6.607   0.591
 5319TIP3   OH237515   0.451   4.747   1.995
 5319TIP3    H137516   0.367   4.792   1.998
 5319TIP3    H237517   0.472   4.740   1.901
 5320TIP3   OH237518   4.719   1.655   1.372
 5320TIP3    H137519   4.794   1.683   1.321
 5320TIP3    H237520   4.714   1.560   1.361
 5321TIP3   OH237521   1.120   4.129   8.025
 5321TIP3    H137522   1.106   4.035   8.028
 5321TIP3    H237523   1.212   4.140   8.000
 5322TIP3   OH237524   2.639   2.327   7.986
 5322TIP3    H137525   2.685   2.262   8.040
 5322TIP3    H237526   2.688   2.408   8.000
 5323TIP3   OH237527   0.351   2.305   6.942
 5323TIP3    H137528   0.391   2.218   6.949
 5323TIP3    H237529   0.272   2.291   6.889
 5324TIP3   OH237530   5.041   5.564   7.360
 5324TIP3    H137531   5.008   5.578   7.448
 5324TIP3    H237532   4.979   5.503   7.320
 5325TIP3   OH237533   0.940   1.529   8.435
 5325TIP3    H137534   0.917   1.502   8.346
 5325TIP3    H237535   1.017   1.585   8.425
 5326TIP3   OH237536   5.146   1.157   2.028
 5326TIP3    H137537   5.070   1.116   2.069
 5326TIP3    H237538   5.222   1.120   2.074
 5327TIP3   OH237539   6.423   3.945   8.780
 5327TIP3    H137540   6.428   4.040   8.774
 5327TIP3    H237541   6.496   3.921   0.036
 5328TIP3   OH237542   2.906   1.028   8.728
 5328TIP3    H137543   2.834   0.968   8.708
 5328TIP3    H237544   2.887   1.057   0.018
 5329TIP3   OH237545   1.233   2.455   0.375
 5329TIP3    H137546   1.262   2.368   0.402
 5329TIP3    H237547   1.146   2.440   0.337
 5330TIP3   OH237548   1.430   3.503   1.140
 5330TIP3    H137549   1.403   3.434   1.080
 5330TIP3    H237550   1.408   3.585   1.095
 5331TIP3   OH237551   5.408   6.154   7.127
 5331TIP3    H137552   5.433   6.088   7.192
 5331TIP3    H237553   5.317   6.176   7.148
 5332TIP3   OH237554   2.042   6.300   2.103
 5332TIP3    H137555   2.085   6.277   2.186
 5332TIP3    H237556   1.984   6.227   2.084
 5333TIP3   OH237557   1.263   3.779   5.749
 5333TIP3    H137558   1.218   3.704   5.788
 5333TIP3    H237559   1.206   3.853   5.766
 5334TIP3   OH237560   3.616   4.721   2.073
 5334TIP3    H137561   3.608   4.816   2.075
 5334TIP3    H237562   3.541   4.690   2.125
 5335TIP3   OH237563   4.276   2.549   7.483
 5335TIP3    H137564   4.310   2.498   7.409
 5335TIP3    H237565   4.216   2.612   7.442
 5336TIP3   OH237566   4.493   1.632   1.574
 5336TIP3    H137567   4.540   1.644   1.491
 5336TIP3    H237568   4.400   1.636   1.549
 5337TIP3   OH237569   5.330   1.186   1.811
 5337TIP3    H137570   5.298   1.178   1.900
 5337TIP3    H237571   5.306   1.275   1.785
 5338TIP3   OH237572   3.453   4.512   8.266
 5338TIP3    H137573   3.413   4.582   8.216
 5338TIP3    H237574   3.380   4.468   8.310
 5339TIP3   OH237575   0.047   1.441   8.131
 5339TIP3    H137576   6.812   1.518   8.117
 5339TIP3    H237577   0.026   1.413   8.220
 5340TIP3   OH237578   6.690   3.039   2.096
 5340TIP3    H137579   6.721   3.119   2.139
 5340TIP3    H237580   6.643   2.991   2.165
 5341TIP3   OH237581   3.095   3.374   1.925
 5341TIP3    H137582   3.010   3.365   1.968
 5341TIP3    H237583   3.147   3.301   1.958
 5342TIP3   OH237584   1.094   1.648   0.288
 5342TIP3    H137585   1.159   1.580   0.273
 5342TIP3    H237586   1.087   1.656   0.383
 5343TIP3   OH237587   3.925   4.024   6.866
 5343TIP3    H137588   3.847   3.991   6.910
 5343TIP3    H237589   3.898   4.037   6.775
 5344TIP3   OH237590   4.386   0.958   1.979
 5344TIP3    H137591   4.315   0.960   1.915
 5344TIP3    H237592   4.464   0.985   1.929
 5345TIP3   OH237593   4.493   5.683   8.632
 5345TIP3    H137594   4.570   5.631   8.611
 5345TIP3    H237595   4.422   5.644   8.581
 5346TIP3   OH237596   4.138   3.526   0.146
 5346TIP3    H137597   4.051   3.536   0.184
 5346TIP3    H237598   4.170   3.616   0.136
 5347TIP3   OH237599   4.091   3.156   1.303
 5347TIP3    H137600   4.119   3.147   1.394
 5347TIP3    H237601   4.166   3.128   1.252
 5348TIP3   OH237602   4.859   3.672   7.504
 5348TIP3    H137603   4.924   3.606   7.480
 5348TIP3    H237604   4.886   3.751   7.458
 5349TIP3   OH237605   1.231   1.268   7.437
 5349TIP3    H137606   1.165   1.309   7.493
 5349TIP3    H237607   1.284   1.341   7.405
 5350TIP3   OH237608   1.051   4.642   0.231
 5350TIP3    H137609   0.992   4.624   0.303
 5350TIP3    H237610   1.134   4.601   0.256
 5351TIP3   OH237611   2.412   0.563   1.176
 5351TIP3    H137612   2.326   0.532   1.207
 5351TIP3    H237613   2.400   0.577   1.082
 5352TIP3   OH237614   2.117   4.625   8.509
 5352TIP3    H137615   2.193   4.567   8.514
 5352TIP3    H237616   2.080   4.624   8.597
 5353TIP3   OH237617   0.298   0.963   0.088
 5353TIP3    H137618   0.362   0.932   0.025
 5353TIP3    H237619   0.247   1.029   0.041
 5354TIP3   OH237620   0.215   0.705   0.045
 5354TIP3    H137621   0.228   0.723   0.138
 5354TIP3    H237622   0.238   0.788   0.002
 5355TIP3   OH237623   3.088   5.801   0.487
 5355TIP3    H137624   3.037   5.761   0.557
 5355TIP3    H237625   3.122   5.727   0.437
 5356TIP3   OH237626   3.964   2.153   2.130
 5356TIP3    H137627   3.928   2.198   2.207
 5356TIP3    H237628   4.052   2.190   2.121
 5357TIP3   OH237629   4.944   3.782   1.725
 5357TIP3    H137630   4.997   3.855   1.756
 5357TIP3    H237631   4.972   3.768   1.634
 5358TIP3   OH237632   6.583   2.523   1.167
 5358TIP3    H137633   6.638   2.576   1.224
 5358TIP3    H237634   6.528   2.473   1.227
 5359TIP3   OH237635   6.011   5.566   1.695
 5359TIP3    H137636   6.069   5.495   1.668
 5359TIP3    H237637   6.028   5.578   1.788
 5360TIP3   OH237638   2.678   0.867   8.688
 5360TIP3    H137639   2.622   0.944   8.676
 5360TIP3    H237640   2.635   0.799   8.635
 5361TIP3   OH237641   3.062   1.552   6.892
 5361TIP3    H137642   3.130   1.600   6.845
 5361TIP3    H237643   3.109   1.487   6.943
 5362TIP3   OH237644   1.923   3.616   7.858
 5362TIP3    H137645   1.990   3.608   7.790
 5362TIP3    H237646   1.898   3.708   7.857
 5363TIP3   OH237647   2.302   5.401   1.882
 5363TIP3    H137648   2.281   5.457   1.807
 5363TIP3    H237649   2.232   5.418   1.945
 5364TIP3   OH237650   0.309   0.789   1.375
 5364TIP3    H137651   0.261   0.718   1.333
 5364TIP3    H237652   0.259   0.868   1.355
 5365TIP3   OH237653   6.071   1.769   1.009
 5365TIP3    H137654   6.162   1.742   1.010
 5365TIP3    H237655   6.050   1.783   0.916
 5366TIP3   OH237656   3.534   5.776   7.890
 5366TIP3    H137657   3.485   5.795   7.970
 5366TIP3    H237658   3.598   5.711   7.916
 5367TIP3   OH237659   4.882   1.597   2.227
 5367TIP3    H137660   4.793   1.573   2.201
 5367TIP3    H237661   4.871   1.652   2.304
 5368TIP3   OH237662   1.812   3.095   1.482
 5368TIP3    H137663   1.732   3.074   1.434
 5368TIP3    H237664   1.814   3.031   1.554
 5369TIP3   OH237665   2.312   2.623   1.325
 5369TIP3    H137666   2.285   2.578   1.245
 5369TIP3    H237667   2.339   2.553   1.384
 5370TIP3   OH237668   3.240   2.685   0.995
 5370TIP3    H137669   3.222   2.672   1.088
 5370TIP3    H237670   3.164   2.648   0.950
 5371TIP3   OH237671   1.158   5.468   8.785
 5371TIP3    H137672   1.201   5.470   8.699
 5371TIP3    H237673   1.210   5.529   0.038
 5372TIP3   OH237674   4.624   0.002   0.400
 5372TIP3    H137675   4.605   0.073   0.461
 5372TIP3    H237676   4.714   6.796   0.420
 5373TIP3   OH237677   2.095   3.333   0.895
 5373TIP3    H137678   2.018   3.277   0.898
 5373TIP3    H237679   2.104   3.365   0.985
 5374TIP3   OH237680   5.603   3.060   0.533
 5374TIP3    H137681   5.597   3.155   0.519
 5374TIP3    H237682   5.610   3.050   0.628
 5375TIP3   OH237683   1.350   5.474   1.008
 5375TIP3    H137684   1.438   5.466   1.045
 5375TIP3    H237685   1.317   5.557   1.044
 5376TIP3   OH237686   4.082   1.441   2.058
 5376TIP3    H137687   4.136   1.374   2.098
 5376TIP3    H237688   4.031   1.478   2.131
 5377TIP3   OH237689   1.593   6.671   0.651
 5377TIP3    H137690   1.501   6.668   0.623
 5377TIP3    H237691   1.640   6.707   0.577
 5378TIP3   OH237692   3.160   1.881   6.412
 5378TIP3    H137693   3.156   1.795   6.456
 5378TIP3    H237694   3.192   1.940   6.480
 5379TIP3   OH237695   6.629   4.381   2.163
 5379TIP3    H137696   6.555   4.326   2.138
 5379TIP3    H237697   6.702   4.320   2.172
 5380TIP3   OH237698   0.730   2.558   7.933
 5380TIP3    H137699   0.748   2.648   7.961
 5380TIP3    H237700   0.814   2.513   7.945
 5381TIP3   OH237701   2.700   2.203   1.109
 5381TIP3    H137702   2.785   2.199   1.154
 5381TIP3    H237703   2.636   2.183   1.178
 5382TIP3   OH237704   5.337   2.495   6.757
 5382TIP3    H137705   5.396   2.551   6.808
 5382TIP3    H237706   5.388   2.416   6.740
 5383TIP3   OH237707   6.286   2.073   7.250
 5383TIP3    H137708   6.238   2.008   7.198
 5383TIP3    H237709   6.367   2.029   7.275
 5384TIP3   OH237710   5.232   2.791   2.329
 5384TIP3    H137711   5.203   2.805   2.239
 5384TIP3    H237712   5.154   2.807   2.382
 5385TIP3   OH237713   5.361   2.075   7.772
 5385TIP3    H137714   5.364   2.140   7.843
 5385TIP3    H237715   5.428   2.104   7.710
 5386TIP3   OH237716   4.842   3.920   8.048
 5386TIP3    H137717   4.835   3.844   7.990
 5386TIP3    H237718   4.777   3.982   8.015
 5387TIP3   OH237719   3.618   4.551   0.832
 5387TIP3    H137720   3.621   4.471   0.780
 5387TIP3    H237721   3.533   4.589   0.812
 5388TIP3   OH237722   0.284   5.130   1.554
 5388TIP3    H137723   0.300   5.154   1.463
 5388TIP3    H237724   0.201   5.083   1.553
 5389TIP3   OH237725   5.036   2.067   2.064
 5389TIP3    H137726   4.983   2.050   2.142
 5389TIP3    H237727   5.119   2.023   2.081
 5390TIP3   OH237728   0.573   0.069   7.795
 5390TIP3    H137729   0.598   6.804   7.831
 5390TIP3    H237730   0.640   0.088   7.730
 5391TIP3   OH237731   6.028   3.981   7.671
 5391TIP3    H137732   5.967   4.034   7.722
 5391TIP3    H237733   6.002   3.890   7.689
 5392TIP3   OH237734   4.000   6.743   0.230
 5392TIP3    H137735   3.991   6.772   0.321
 5392TIP3    H237736   4.091   6.714   0.223
 5393TIP3   OH237737   5.830   3.128   8.157
 5393TIP3    H137738   5.779   3.140   8.076
 5393TIP3    H237739   5.921   3.140   8.131
 5394TIP3   OH237740   4.871   3.334   7.065
 5394TIP3    H137741   4.823   3.392   7.007
 5394TIP3    H237742   4.944   3.387   7.098
 5395TIP3   OH237743   5.315   2.328   7.907
 5395TIP3    H137744   5.369   2.377   7.970
 5395TIP3    H237745   5.311   2.386   7.831
 5396TIP3   OH237746   5.651   6.745   8.074
 5396TIP3    H137747   5.718   6.715   8.013
 5396TIP3    H237748   5.620   0.008   8.039
 5397TIP3   OH237749   5.015   1.357   2.206
 5397TIP3    H137750   4.983   1.445   2.225
 5397TIP3    H237751   5.100   1.371   2.164
 5398TIP3   OH237752   3.264   1.125   0.490
 5398TIP3    H137753   3.342   1.168   0.458
 5398TIP3    H237754   3.272   1.128   0.586
 5399TIP3   OH237755   5.447   4.530   0.177
 5399TIP3    H137756   5.435   4.446   0.133
 5399TIP3    H237757   5.397   4.592   0.124
 5400TIP3   OH237758   0.123   6.119   1.104
 5400TIP3    H137759   0.058   6.180   1.069
 5400TIP3    H237760   0.173   6.171   1.167
 5401TIP3   OH237761   5.471   2.565   8.709
 5401TIP3    H137762   5.400   2.536   8.767
 5401TIP3    H237763   5.541   2.590   8.769
 5402TIP3   OH237764   5.430   0.245   1.227
 5402TIP3    H137765   5.379   0.209   1.155
 5402TIP3    H237766   5.440   0.173   1.289
 5403TIP3   OH237767   0.688   4.774   1.824
 5403TIP3    H137768   0.705   4.868   1.832
 5403TIP3    H237769   0.681   4.743   1.915
 5404TIP3   OH237770   4.942   5.920   1.208
 5404TIP3    H137771   4.930   5.826   1.192
 5404TIP3    H237772   4.857   5.959   1.185
 5405TIP3   OH237773   4.141   3.736   7.780
 5405TIP3    H137774   4.065   3.729   7.838
 5405TIP3    H237775   4.155   3.830   7.772
 5406TIP3   OH237776   5.889   4.631   0.498
 5406TIP3    H137777   5.920   4.671   0.416
 5406TIP3    H237778   5.837   4.556   0.469
 5407TIP3   OH237779   4.128   3.975   0.296
 5407TIP3    H137780   4.063   4.043   0.317
 5407TIP3    H237781   4.203   3.997   0.351
 5408TIP3   OH237782   3.332   6.360   1.526
 5408TIP3    H137783   3.410   6.305   1.526
 5408TIP3    H237784   3.303   6.361   1.435
 5409TIP3   OH237785   2.071   0.067   1.063
 5409TIP3    H137786   2.044   0.115   0.984
 5409TIP3    H237787   2.165   0.080   1.067
 5410TIP3   OH237788   4.861   6.208   8.295
 5410TIP3    H137789   4.935   6.164   8.339
 5410TIP3    H237790   4.862   6.297   8.332
 5411TIP3   OH237791   4.723   2.346   7.384
 5411TIP3    H137792   4.740   2.395   7.304
 5411TIP3    H237793   4.681   2.265   7.354
 5412TIP3   OH237794   5.966   5.680   0.581
 5412TIP3    H137795   6.034   5.632   0.629
 5412TIP3    H237796   5.971   5.769   0.617
 5413TIP3   OH237797   4.298   3.139   1.077
 5413TIP3    H137798   4.233   3.190   1.029
 5413TIP3    H237799   4.327   3.073   1.014
 5414TIP3   OH237800   4.797   6.135   1.738
 5414TIP3    H137801   4.841   6.191   1.802
 5414TIP3    H237802   4.840   6.050   1.748
 5415TIP3   OH237803   0.492   4.787   0.993
 5415TIP3    H137804   0.549   4.750   0.925
 5415TIP3    H237805   0.499   4.727   1.066
 5416TIP3   OH237806   0.653   5.751   7.822
 5416TIP3    H137807   0.724   5.738   7.885
 5416TIP3    H237808   0.575   5.763   7.875
 5417TIP3   OH237809   2.047   0.459   1.070
 5417TIP3    H137810   1.972   0.448   1.012
 5417TIP3    H237811   2.023   0.532   1.127
 5418TIP3   OH237812   1.468   4.018   0.000
 5418TIP3    H137813   1.531   3.961   8.758
 5418TIP3    H237814   1.516   4.099   0.020
 5419TIP3   OH237815   1.087   0.864   7.659
 5419TIP3    H137816   1.033   0.942   7.669
 5419TIP3    H237817   1.122   0.849   7.746
 5420TIP3   OH237818   3.361   4.001   1.362
 5420TIP3    H137819   3.275   4.039   1.344
 5420TIP3    H237820   3.390   3.967   1.277
 5421TIP3   OH237821   6.677   4.538   8.140
 5421TIP3    H137822   6.681   4.444   8.123
 5421TIP3    H237823   6.597   4.567   8.095
 5422TIP3   OH237824   3.610   5.154   6.717
 5422TIP3    H137825   3.531   5.208   6.720
 5422TIP3    H237826   3.677   5.211   6.679
 5423TIP3   OH237827   2.840   4.692   0.546
 5423TIP3    H137828   2.808   4.636   0.475
 5423TIP3    H237829   2.763   4.707   0.602
 5424TIP3   OH237830   2.610   0.533   7.771
 5424TIP3    H137831   2.598   0.509   7.679
 5424TIP3    H237832   2.583   0.455   7.820
 5425TIP3   OH237833   1.731   6.334   2.539
 5425TIP3    H137834   1.770   6.405   2.488
 5425TIP3    H237835   1.692   6.378   2.615
 5426TIP3   OH237836   4.301   1.208   8.709
 5426TIP3    H137837   4.351   1.275   8.662
 5426TIP3    H237838   4.363   1.172   8.773
 5427TIP3   OH237839   2.772   2.222   8.175
 5427TIP3    H137840   2.746   2.132   8.194
 5427TIP3    H237841   2.733   2.274   8.245
 5428TIP3   OH237842   5.990   5.920   8.572
 5428TIP3    H137843   6.010   5.894   8.482
 5428TIP3    H237844   6.008   6.014   8.574
 5429TIP3   OH237845   4.274   0.776   0.096
 5429TIP3    H137846   4.258   0.808   0.185
 5429TIP3    H237847   4.358   0.731   0.101
 5430TIP3   OH237848   1.584   1.360   0.303
 5430TIP3    H137849   1.658   1.375   0.362
 5430TIP3    H237850   1.586   1.434   0.243
 5431TIP3   OH237851   6.430   1.900   7.862
 5431TIP3    H137852   6.458   1.808   7.860
 5431TIP3    H237853   6.380   1.908   7.943
 5432TIP3   OH237854   2.954   0.111   8.763
 5432TIP3    H137855   3.019   0.166   8.720
 5432TIP3    H237856   2.992   0.090   0.047
 5433TIP3   OH237857   2.015   4.576   6.749
 5433TIP3    H137858   1.967   4.535   6.677
 5433TIP3    H237859   2.059   4.651   6.710
 5434TIP3   OH237860   5.030   4.245   0.858
 5434TIP3    H137861   5.022   4.206   0.945
 5434TIP3    H237862   5.116   4.217   0.827
 5435TIP3   OH237863   5.988   4.919   1.820
 5435TIP3    H137864   6.000   4.914   1.915
 5435TIP3    H237865   5.946   4.835   1.797
 5436TIP3   OH237866   5.178   1.652   0.248
 5436TIP3    H137867   5.221   1.617   0.170
 5436TIP3    H237868   5.239   1.634   0.320
 5437TIP3   OH237869   6.251   1.045   8.389
 5437TIP3    H137870   6.166   1.047   8.345
 5437TIP3    H237871   6.229   1.049   8.482
 5438TIP3   OH237872   0.311   4.450   0.511
 5438TIP3    H137873   0.304   4.538   0.548
 5438TIP3    H237874   0.372   4.460   0.439
 5439TIP3   OH237875   5.171   3.923   1.200
 5439TIP3    H137876   5.196   3.838   1.164
 5439TIP3    H237877   5.231   3.937   1.273
 5440TIP3   OH237878   6.039   2.464   8.402
 5440TIP3    H137879   6.058   2.371   8.403
 5440TIP3    H237880   6.116   2.504   8.361
 5441TIP3   OH237881   2.040   1.669   0.894
 5441TIP3    H137882   1.954   1.648   0.931
 5441TIP3    H237883   2.031   1.758   0.859
 5442TIP3   OH237884   0.581   5.785   8.544
 5442TIP3    H137885   0.551   5.823   8.462
 5442TIP3    H237886   0.670   5.818   8.556
 5443TIP3   OH237887   0.263   4.478   8.351
 5443TIP3    H137888   0.352   4.444   8.339
 5443TIP3    H237889   0.249   4.473   8.445
 5444TIP3   OH237890   6.398   2.280   2.216
 5444TIP3    H137891   6.451   2.243   2.145
 5444TIP3    H237892   6.308   2.270   2.185
 5445TIP3   OH237893   2.966   0.446   6.512
 5445TIP3    H137894   2.936   0.459   6.422
 5445TIP3    H237895   2.965   0.351   6.523
 5446TIP3   OH237896   6.750   1.734   0.984
 5446TIP3    H137897   6.726   1.643   1.001
 5446TIP3    H237898   6.667   1.780   0.979
 5447TIP3   OH237899   6.646   5.605   7.779
 5447TIP3    H137900   6.647   5.700   7.788
 5447TIP3    H237901   6.722   5.586   7.723
 5448TIP3   OH237902   4.917   4.731   1.755
 5448TIP3    H137903   4.968   4.657   1.787
 5448TIP3    H237904   4.839   4.732   1.811
 5449TIP3   OH237905   1.270   1.114   7.799
 5449TIP3    H137906   1.229   1.106   7.885
 5449TIP3    H237907   1.227   1.190   7.760
 5450TIP3   OH237908   6.613   2.764   1.375
 5450TIP3    H137909   6.605   2.808   1.460
 5450TIP3    H237910   6.667   2.687   1.393
 5451TIP3   OH237911   3.226   3.287   0.973
 5451TIP3    H137912   3.178   3.230   1.033
 5451TIP3    H237913   3.175   3.285   0.892
 5452TIP3   OH237914   1.585   6.315   0.047
 5452TIP3    H137915   1.522   6.313   0.119
 5452TIP3    H237916   1.551   6.381   8.787
 5453TIP3   OH237917   6.695   1.649   8.085
 5453TIP3    H137918   6.708   1.735   8.126
 5453TIP3    H237919   6.664   1.669   7.997
 5454TIP3   OH237920   5.855   6.647   7.918
 5454TIP3    H137921   5.949   6.645   7.934
 5454TIP3    H237922   5.842   6.594   7.840
 5455TIP3   OH237923   4.559   2.763   0.640
 5455TIP3    H137924   4.609   2.721   0.570
 5455TIP3    H237925   4.624   2.786   0.706
 5456TIP3   OH237926   0.326   2.043   7.846
 5456TIP3    H137927   0.289   1.981   7.910
 5456TIP3    H237928   0.416   2.056   7.875
 5457TIP3   OH237929   1.440   3.176   8.768
 5457TIP3    H137930   1.487   3.108   8.720
 5457TIP3    H237931   1.467   3.258   8.726
 5458TIP3   OH237932   3.626   1.506   7.564
 5458TIP3    H137933   3.566   1.494   7.490
 5458TIP3    H237934   3.575   1.477   7.640
 5459TIP3   OH237935   6.715   6.286   0.999
 5459TIP3    H137936   6.747   6.376   0.993
 5459TIP3    H237937   6.628   6.294   1.038
 5460TIP3   OH237938   4.427   0.481   0.368
 5460TIP3    H137939   4.481   0.559   0.379
 5460TIP3    H237940   4.359   0.489   0.435
 5461TIP3   OH237941   4.914   5.614   7.609
 5461TIP3    H137942   4.887   5.530   7.644
 5461TIP3    H237943   4.851   5.677   7.646
 5462TIP3   OH237944   6.212   4.813   0.838
 5462TIP3    H137945   6.201   4.759   0.760
 5462TIP3    H237946   6.194   4.753   0.911
 5463TIP3   OH237947   4.622   6.216   0.699
 5463TIP3    H137948   4.706   6.175   0.719
 5463TIP3    H237949   4.644   6.301   0.661
 5464TIP3   OH237950   1.425   0.154   1.105
 5464TIP3    H137951   1.436   0.164   1.199
 5464TIP3    H237952   1.511   0.126   1.073
 5465TIP3   OH237953   1.152   5.886   0.776
 5465TIP3    H137954   1.197   5.931   0.704
 5465TIP3    H237955   1.059   5.892   0.754
 5466TIP3   OH237956   3.086   4.301   0.922
 5466TIP3    H137957   3.036   4.298   1.003
 5466TIP3    H237958   3.029   4.344   0.859
 5467TIP3   OH237959   3.940   4.286   7.033
 5467TIP3    H137960   3.889   4.351   6.984
 5467TIP3    H237961   3.876   4.220   7.059
 5468TIP3   OH237962   5.273   1.362   0.957
 5468TIP3    H137963   5.291   1.269   0.968
 5468TIP3    H237964   5.321   1.387   0.879
 5469TIP3   OH237965   4.612   0.681   0.429
 5469TIP3    H137966   4.684   0.630   0.466
 5469TIP3    H237967   4.600   0.754   0.490
 5470TIP3   OH237968   3.736   4.402   0.011
 5470TIP3    H137969   3.691   4.378   8.730
 5470TIP3    H237970   3.803   4.464   8.785
 5471TIP3   OH237971   2.723   1.460   8.328
 5471TIP3    H137972   2.736   1.413   8.246
 5471TIP3    H237973   2.795   1.430   8.384
 5472TIP3   OH237974   2.517   5.697   7.936
 5472TIP3    H137975   2.459   5.625   7.914
 5472TIP3    H237976   2.578   5.702   7.862
 5473TIP3   OH237977   2.468   6.388   7.655
 5473TIP3    H137978   2.440   6.396   7.747
 5473TIP3    H237979   2.421   6.311   7.623
 5474TIP3   OH237980   2.738   5.412   1.494
 5474TIP3    H137981   2.655   5.402   1.448
 5474TIP3    H237982   2.765   5.502   1.476
 5475TIP3   OH237983   3.964   2.582   8.002
 5475TIP3    H137984   3.928   2.528   8.073
 5475TIP3    H237985   3.936   2.537   7.922
 5476TIP3   OH237986   2.420   6.056   7.057
 5476TIP3    H137987   2.511   6.063   7.029
 5476TIP3    H237988   2.425   6.049   7.152
 5477TIP3   OH237989   3.689   0.050   7.874
 5477TIP3    H137990   3.628   0.030   7.946
 5477TIP3    H237991   3.632   0.063   7.798
 5478TIP3   OH237992   5.792   1.869   2.472
 5478TIP3    H137993   5.703   1.840   2.451
 5478TIP3    H237994   5.800   1.856   2.567
 5479TIP3   OH237995   4.198   5.535   7.681
 5479TIP3    H137996   4.137   5.534   7.755
 5479TIP3    H237997   4.215   5.627   7.665
 5480TIP3   OH237998   1.225   0.301   8.152
 5480TIP3    H137999   1.225   0.319   8.058
 5480TIP3    H238000   1.269   0.377   8.191
 5481TIP3   OH238001   4.662   1.390   7.276
 5481TIP3    H138002   4.606   1.467   7.277
 5481TIP3    H238003   4.650   1.353   7.188
 5482TIP3   OH238004   3.797   3.569   1.747
 5482TIP3    H138005   3.892   3.569   1.758
 5482TIP3    H238006   3.782   3.595   1.656
 5483TIP3   OH238007   6.281   3.316   8.253
 5483TIP3    H138008   6.301   3.398   8.207
 5483TIP3    H238009   6.280   3.250   8.184
 5484TIP3   OH238010   3.196   6.795   8.599
 5484TIP3    H138011   3.188   0.048   8.660
 5484TIP3    H238012   3.125   6.807   8.536
 5485TIP3   OH238013   1.973   6.395   1.500
 5485TIP3    H138014   1.982   6.304   1.473
 5485TIP3    H238015   2.024   6.444   1.435
 5486TIP3   OH238016   2.059   2.691   7.396
 5486TIP3    H138017   2.019   2.620   7.446
 5486TIP3    H238018   1.988   2.753   7.381
 5487TIP3   OH238019   3.753   6.030   0.727
 5487TIP3    H138020   3.774   6.038   0.820
 5487TIP3    H238021   3.684   6.096   0.713
 5488TIP3   OH238022   2.168   2.022   2.374
 5488TIP3    H138023   2.237   1.982   2.322
 5488TIP3    H238024   2.113   1.949   2.401
 5489TIP3   OH238025   6.427   5.447   2.333
 5489TIP3    H138026   6.506   5.437   2.280
 5489TIP3    H238027   6.429   5.373   2.393
 5490TIP3   OH238028   6.645   3.415   7.806
 5490TIP3    H138029   6.708   3.445   7.741
 5490TIP3    H238030   6.612   3.495   7.846
 5491TIP3   OH238031   4.354   5.223   1.980
 5491TIP3    H138032   4.339   5.318   1.976
 5491TIP3    H238033   4.424   5.207   1.918
 5492TIP3   OH238034   3.828   1.820   7.353
 5492TIP3    H138035   3.770   1.775   7.292
 5492TIP3    H238036   3.797   1.794   7.440
 5493TIP3   OH238037   4.579   1.524   7.911
 5493TIP3    H138038   4.540   1.608   7.934
 5493TIP3    H238039   4.558   1.467   7.984
 5494TIP3   OH238040   3.196   2.952   1.034
 5494TIP3    H138041   3.206   2.857   1.040
 5494TIP3    H238042   3.175   2.969   0.943
 5495TIP3   OH238043   2.689   6.673   1.689
 5495TIP3    H138044   2.609   6.677   1.636
 5495TIP3    H238045   2.678   6.742   1.754
 5496TIP3   OH238046   1.416   0.957   1.699
 5496TIP3    H138047   1.404   0.924   1.789
 5496TIP3    H238048   1.438   0.879   1.648
 5497TIP3   OH238049   0.684   4.440   0.619
 5497TIP3    H138050   0.633   4.362   0.638
 5497TIP3    H238051   0.685   4.447   0.524
 5498TIP3   OH238052   0.637   2.116   8.725
 5498TIP3    H138053   0.658   2.098   8.634
 5498TIP3    H238054   0.597   2.203   8.724
 5499TIP3   OH238055   5.238   0.258   0.565
 5499TIP3    H138056   5.307   0.246   0.499
 5499TIP3    H238057   5.277   0.227   0.647
 5500TIP3   OH238058   6.482   5.876   7.371
 5500TIP3    H138059   6.464   5.969   7.356
 5500TIP3    H238060   6.397   5.834   7.363
 5501TIP3   OH238061   3.138   5.297   7.224
 5501TIP3    H138062   3.078   5.291   7.150
 5501TIP3    H238063   3.088   5.263   7.298
 5502TIP3   OH238064   6.271   2.407   1.034
 5502TIP3    H138065   6.345   2.351   1.009
 5502TIP3    H238066   6.309   2.494   1.045
 5503TIP3   OH238067   1.574   1.592   8.416
 5503TIP3    H138068   1.498   1.564   8.366
 5503TIP3    H238069   1.639   1.618   8.351
 5504TIP3   OH238070   6.040   0.513   7.289
 5504TIP3    H138071   6.067   0.593   7.245
 5504TIP3    H238072   6.025   0.450   7.219
 5505TIP3   OH238073   3.467   3.002   2.025
 5505TIP3    H138074   3.551   2.999   1.978
 5505TIP3    H238075   3.426   2.917   2.005
 5506TIP3   OH238076   2.272   1.752   1.929
 5506TIP3    H138077   2.320   1.711   2.002
 5506TIP3    H238078   2.242   1.678   1.876
 5507TIP3   OH238079   2.004   0.202   7.512
 5507TIP3    H138080   1.950   0.243   7.580
 5507TIP3    H238081   2.017   0.112   7.543
 5508TIP3   OH238082   3.157   4.776   7.773
 5508TIP3    H138083   3.209   4.696   7.775
 5508TIP3    H238084   3.066   4.746   7.769
 5509TIP3   OH238085   3.377   0.049   8.010
 5509TIP3    H138086   3.417   0.092   8.086
 5509TIP3    H238087   3.285   0.075   8.013
 5510TIP3   OH238088   1.922   1.157   0.684
 5510TIP3    H138089   1.856   1.194   0.626
 5510TIP3    H238090   2.003   1.200   0.659
 5511TIP3   OH238091   0.647   4.321   8.041
 5511TIP3    H138092   0.706   4.324   7.966
 5511TIP3    H238093   0.630   4.228   8.055
 5512TIP3   OH238094   4.343   2.532   1.308
 5512TIP3    H138095   4.314   2.461   1.251
 5512TIP3    H238096   4.333   2.497   1.397
 5513TIP3   OH238097   4.191   1.834   8.359
 5513TIP3    H138098   4.280   1.866   8.373
 5513TIP3    H238099   4.195   1.786   8.277
 5514TIP3   OH238100   4.654   2.545   2.484
 5514TIP3    H138101   4.567   2.514   2.508
 5514TIP3    H238102   4.701   2.552   2.567
 5515TIP3   OH238103   2.789   4.221   8.553
 5515TIP3    H138104   2.725   4.242   8.621
 5515TIP3    H238105   2.757   4.139   8.514
 5516TIP3   OH238106   5.237   4.725   1.058
 5516TIP3    H138107   5.323   4.738   1.098
 5516TIP3    H238108   5.223   4.802   1.003
 5517TIP3   OH238109   4.553   3.020   8.227
 5517TIP3    H138110   4.538   2.933   8.189
 5517TIP3    H238111   4.611   3.004   8.301
 5518TIP3   OH238112   3.540   2.569   1.912
 5518TIP3    H138113   3.485   2.518   1.853
 5518TIP3    H238114   3.479   2.607   1.975
 5519TIP3   OH238115   1.153   2.373   8.212
 5519TIP3    H138116   1.139   2.409   8.125
 5519TIP3    H238117   1.246   2.348   8.214
 5520TIP3   OH238118   5.225   5.429   1.379
 5520TIP3    H138119   5.152   5.376   1.409
 5520TIP3    H238120   5.205   5.517   1.412
 5521TIP3   OH238121   1.812   5.869   7.633
 5521TIP3    H138122   1.832   5.859   7.726
 5521TIP3    H238123   1.741   5.932   7.630
 5522TIP3   OH238124   3.592   5.637   1.378
 5522TIP3    H138125   3.596   5.542   1.366
 5522TIP3    H238126   3.660   5.671   1.321
 5523TIP3   OH238127   3.451   4.737   0.749
 5523TIP3    H138128   3.523   4.788   0.712
 5523TIP3    H238129   3.384   4.735   0.680
 5524TIP3   OH238130   4.060   6.447   0.024
 5524TIP3    H138131   3.975   6.473   0.061
 5524TIP3    H238132   4.049   6.456   8.730
 5525TIP3   OH238133   4.051   1.042   1.095
 5525TIP3    H138134   4.104   1.093   1.033
 5525TIP3    H238135   3.968   1.028   1.049
 5526TIP3   OH238136   0.193   5.251   0.163
 5526TIP3    H138137   0.280   5.267   0.128
 5526TIP3    H238138   0.187   5.310   0.239
 5527TIP3   OH238139   4.273   5.357   0.712
 5527TIP3    H138140   4.211   5.362   0.640
 5527TIP3    H238141   4.262   5.268   0.746
 5528TIP3   OH238142   5.982   3.398   0.405
 5528TIP3    H138143   5.931   3.318   0.399
 5528TIP3    H238144   6.066   3.371   0.442
 5529TIP3   OH238145   0.660   5.054   7.966
 5529TIP3    H138146   0.735   5.101   7.928
 5529TIP3    H238147   0.611   5.121   8.013
 5530TIP3   OH238148   5.605   6.548   1.818
 5530TIP3    H138149   5.609   6.642   1.803
 5530TIP3    H238150   5.516   6.532   1.849
 5531TIP3   OH238151   3.075   6.040   0.722
 5531TIP3    H138152   3.089   5.973   0.790
 5531TIP3    H238153   3.032   5.993   0.651
 5532TIP3   OH238154   4.648   3.046   0.256
 5532TIP3    H138155   4.580   3.103   0.221
 5532TIP3    H238156   4.686   3.095   0.329
 5533TIP3   OH238157   2.356   5.821   8.332
 5533TIP3    H138158   2.331   5.904   8.371
 5533TIP3    H238159   2.397   5.772   8.403
 5534TIP3   OH238160   5.049   4.911   6.495
 5534TIP3    H138161   5.122   4.962   6.460
 5534TIP3    H238162   4.991   4.976   6.533
 5535TIP3   OH238163   4.036   3.187   7.340
 5535TIP3    H138164   4.049   3.244   7.264
 5535TIP3    H238165   3.944   3.163   7.336
 5536TIP3   OH238166   5.089   3.606   8.385
 5536TIP3    H138167   5.156   3.550   8.345
 5536TIP3    H238168   5.095   3.587   8.479
 5537TIP3   OH238169   0.159   2.058   1.222
 5537TIP3    H138170   0.111   2.087   1.145
 5537TIP3    H238171   0.181   1.967   1.203
 5538TIP3   OH238172   2.904   3.160   8.742
 5538TIP3    H138173   2.838   3.191   8.680
 5538TIP3    H238174   2.860   3.093   8.794
 5539TIP3   OH238175   6.228   1.850   2.449
 5539TIP3    H138176   6.253   1.933   2.409
 5539TIP3    H238177   6.308   1.798   2.449
 5540TIP3   OH238178   2.916   0.036   7.143
 5540TIP3    H138179   2.860   6.811   7.079
 5540TIP3    H238180   2.983   6.791   7.165
 5541TIP3   OH238181   0.214   1.079   7.335
 5541TIP3    H138182   0.246   1.026   7.261
 5541TIP3    H238183   0.273   1.057   7.407
 5542TIP3   OH238184   2.985   4.958   8.427
 5542TIP3    H138185   2.907   4.949   8.373
 5542TIP3    H238186   3.039   5.023   8.379
 5543TIP3   OH238187   0.014   1.825   0.117
 5543TIP3    H138188   6.805   1.734   0.128
 5543TIP3    H238189   6.804   1.848   0.029
 5544TIP3   OH238190   0.943   5.062   0.058
 5544TIP3    H138191   0.974   5.000   8.792
 5544TIP3    H238192   0.855   5.030   0.080
 5545TIP3   OH238193   5.281   1.037   8.653
 5545TIP3    H138194   5.262   0.964   8.594
 5545TIP3    H238195   5.273   1.115   8.598
 5546TIP3   OH238196   2.795   5.095   7.828
 5546TIP3    H138197   2.777   5.182   7.794
 5546TIP3    H238198   2.708   5.056   7.841
 5547TIP3   OH238199   4.118   6.518   7.886
 5547TIP3    H138200   4.036   6.548   7.848
 5547TIP3    H238201   4.101   6.428   7.913
 5548TIP3   OH238202   1.783   2.286   2.171
 5548TIP3    H138203   1.767   2.241   2.088
 5548TIP3    H238204   1.810   2.217   2.231
 5549TIP3   OH238205   2.859   5.198   8.085
 5549TIP3    H138206   2.931   5.141   8.058
 5549TIP3    H238207   2.797   5.195   8.012
 5550TIP3   OH238208   6.677   5.820   0.988
 5550TIP3    H138209   6.731   5.744   1.012
 5550TIP3    H238210   6.608   5.784   0.933
 5551TIP3   OH238211   2.116   3.575   6.209
 5551TIP3    H138212   2.107   3.480   6.208
 5551TIP3    H238213   2.069   3.605   6.132
 5552TIP3   OH238214   1.453   5.277   0.128
 5552TIP3    H138215   1.362   5.251   0.145
 5552TIP3    H238216   1.455   5.294   0.034
 5553TIP3   OH238217   6.102   5.972   8.291
 5553TIP3    H138218   6.177   6.009   8.338
 5553TIP3    H238219   6.044   6.046   8.275
 5554TIP3   OH238220   2.648   1.286   6.997
 5554TIP3    H138221   2.717   1.351   6.987
 5554TIP3    H238222   2.602   1.287   6.913
 5555TIP3   OH238223   6.066   3.364   1.012
 5555TIP3    H138224   6.035   3.435   1.067
 5555TIP3    H238225   6.151   3.339   1.049
 5556TIP3   OH238226   2.138   4.218   7.934
 5556TIP3    H138227   2.096   4.190   7.853
 5556TIP3    H238228   2.230   4.198   7.922
 5557TIP3   OH238229   3.174   6.812   7.596
 5557TIP3    H138230   3.140   0.080   7.580
 5557TIP3    H238231   3.166   6.766   7.512
 5558TIP3   OH238232   4.449   6.404   2.568
 5558TIP3    H138233   4.398   6.381   2.490
 5558TIP3    H238234   4.460   6.321   2.614
 5559TIP3   OH238235   6.343   3.086   8.074
 5559TIP3    H138236   6.388   3.158   8.028
 5559TIP3    H238237   6.382   3.007   8.038
 5560TIP3   OH238238   6.025   0.865   1.754
 5560TIP3    H138239   6.021   0.809   1.678
 5560TIP3    H238240   5.934   0.878   1.780
 5561TIP3   OH238241   2.663   3.769   6.920
 5561TIP3    H138242   2.614   3.745   6.841
 5561TIP3    H238243   2.604   3.747   6.992
 5562TIP3   OH238244   4.457   3.078   6.486
 5562TIP3    H138245   4.454   2.992   6.528
 5562TIP3    H238246   4.427   3.139   6.553
 5563TIP3   OH238247   4.525   4.946   2.131
 5563TIP3    H138248   4.592   4.941   2.199
 5563TIP3    H238249   4.573   4.950   2.049
 5564TIP3   OH238250   3.715   0.148   1.999
 5564TIP3    H138251   3.771   0.223   2.020
 5564TIP3    H238252   3.627   0.184   1.998
 5565TIP3   OH238253   1.338   0.545   7.950
 5565TIP3    H138254   1.423   0.504   7.931
 5565TIP3    H238255   1.358   0.608   8.019
 5566TIP3   OH238256   2.506   2.740   1.789
 5566TIP3    H138257   2.484   2.778   1.874
 5566TIP3    H238258   2.514   2.646   1.805
 5567TIP3   OH238259   6.636   1.575   1.186
 5567TIP3    H138260   6.618   1.587   1.279
 5567TIP3    H238261   6.572   1.509   1.158
 5568TIP3   OH238262   2.027   5.325   2.164
 5568TIP3    H138263   2.093   5.300   2.228
 5568TIP3    H238264   2.073   5.382   2.103
 5569TIP3   OH238265   5.774   5.540   1.580
 5569TIP3    H138266   5.801   5.457   1.540
 5569TIP3    H238267   5.855   5.578   1.615
 5570TIP3   OH238268   4.526   6.275   6.857
 5570TIP3    H138269   4.502   6.240   6.942
 5570TIP3    H238270   4.567   6.202   6.811
 5571TIP3   OH238271   4.312   6.273   8.313
 5571TIP3    H138272   4.371   6.317   8.374
 5571TIP3    H238273   4.370   6.229   8.251
 5572TIP3   OH238274   3.795   5.848   0.007
 5572TIP3    H138275   3.780   5.809   0.094
 5572TIP3    H238276   3.736   5.800   8.749
 5573TIP3   OH238277   4.870   2.641   1.406
 5573TIP3    H138278   4.844   2.722   1.362
 5573TIP3    H238279   4.956   2.660   1.442
 5574TIP3   OH238280   2.021   1.436   8.070
 5574TIP3    H138281   1.990   1.446   8.160
 5574TIP3    H238282   2.116   1.432   8.077
 5575TIP3   OH238283   4.211   2.345   8.207
 5575TIP3    H138284   4.241   2.417   8.153
 5575TIP3    H238285   4.255   2.358   8.291
 5576TIP3   OH238286   1.380   5.497   0.722
 5576TIP3    H138287   1.353   5.521   0.811
 5576TIP3    H238288   1.309   5.441   0.690
 5577TIP3   OH238289   5.483   5.959   7.319
 5577TIP3    H138290   5.559   5.904   7.299
 5577TIP3    H238291   5.515   6.022   7.384
 5578TIP3   OH238292   5.450   3.628   1.422
 5578TIP3    H138293   5.502   3.633   1.342
 5578TIP3    H238294   5.409   3.542   1.419
 5579TIP3   OH238295   1.487   1.770   8.630
 5579TIP3    H138296   1.510   1.705   8.563
 5579TIP3    H238297   1.527   1.851   8.599
 5580TIP3   OH238298   0.669   5.549   7.659
 5580TIP3    H138299   0.722   5.504   7.724
 5580TIP3    H238300   0.664   5.639   7.690
 5581TIP3   OH238301   2.163   3.766   2.092
 5581TIP3    H138302   2.181   3.858   2.072
 5581TIP3    H238303   2.221   3.746   2.166
 5582TIP3   OH238304   6.582   6.566   8.553
 5582TIP3    H138305   6.501   6.530   8.517
 5582TIP3    H238306   6.567   6.660   8.559
 5583TIP3   OH238307   2.300   2.091   1.928
 5583TIP3    H138308   2.377   2.062   1.978
 5583TIP3    H238309   2.319   2.182   1.906
 5584TIP3   OH238310   1.307   1.522   7.294
 5584TIP3    H138311   1.225   1.546   7.252
 5584TIP3    H238312   1.360   1.602   7.290
 5585TIP3   OH238313   5.640   0.147   8.252
 5585TIP3    H138314   5.680   0.060   8.251
 5585TIP3    H238315   5.598   0.156   8.166
 5586TIP3   OH238316   1.928   6.479   8.739
 5586TIP3    H138317   1.879   6.400   8.715
 5586TIP3    H238318   1.945   6.522   8.655
 5587TIP3   OH238319   6.056   5.011   8.201
 5587TIP3    H138320   6.050   5.105   8.220
 5587TIP3    H238321   6.068   4.971   8.287
 5588TIP3   OH238322   0.420   1.897   8.798
 5588TIP3    H138323   0.379   1.932   0.077
 5588TIP3    H238324   0.482   1.964   8.771
 5589TIP3   OH238325   0.015   0.984   8.510
 5589TIP3    H138326   6.747   0.969   8.547
 5589TIP3    H238327   0.035   0.905   8.461
 5590TIP3   OH238328   4.547   0.582   7.919
 5590TIP3    H138329   4.574   0.624   7.837
 5590TIP3    H238330   4.569   0.489   7.907
 5591TIP3   OH238331   2.772   1.089   7.832
 5591TIP3    H138332   2.836   1.120   7.896
 5591TIP3    H238333   2.743   1.168   7.786
 5592TIP3   OH238334   3.125   2.327   8.193
 5592TIP3    H138335   3.055   2.369   8.142
 5592TIP3    H238336   3.120   2.367   8.279
 5593TIP3   OH238337   6.611   1.276   0.729
 5593TIP3    H138338   6.606   1.336   0.655
 5593TIP3    H238339   6.526   1.232   0.732
 5594TIP3   OH238340   2.626   5.389   0.957
 5594TIP3    H138341   2.549   5.443   0.942
 5594TIP3    H238342   2.626   5.372   1.052
 5595TIP3   OH238343   3.017   3.895   1.490
 5595TIP3    H138344   3.004   3.973   1.436
 5595TIP3    H238345   3.089   3.849   1.449
 5596TIP3   OH238346   2.218   4.561   1.478
 5596TIP3    H138347   2.133   4.518   1.481
 5596TIP3    H238348   2.269   4.520   1.548
 5597TIP3   OH238349   1.283   1.302   8.466
 5597TIP3    H138350   1.190   1.299   8.490
 5597TIP3    H238351   1.286   1.360   8.390
 5598TIP3   OH238352   3.681   2.554   1.190
 5598TIP3    H138353   3.707   2.644   1.207
 5598TIP3    H238354   3.602   2.540   1.244
 5599TIP3   OH238355   0.588   2.994   2.332
 5599TIP3    H138356   0.503   3.035   2.346
 5599TIP3    H238357   0.582   2.910   2.378
 5600TIP3   OH238358   4.712   0.872   1.589
 5600TIP3    H138359   4.794   0.869   1.538
 5600TIP3    H238360   4.647   0.904   1.527
 5601TIP3   OH238361   3.631   1.424   8.629
 5601TIP3    H138362   3.581   1.455   8.554
 5601TIP3    H238363   3.602   1.480   8.701
 5602TIP3   OH238364   2.944   2.107   8.384
 5602TIP3    H138365   3.014   2.045   8.399
 5602TIP3    H238366   2.957   2.136   8.294
 5603TIP3   OH238367   1.181   4.269   0.156
 5603TIP3    H138368   1.266   4.311   0.169
 5603TIP3    H238369   1.130   4.293   0.233
 5604TIP3   OH238370   4.583   2.596   1.863
 5604TIP3    H138371   4.633   2.528   1.818
 5604TIP3    H238372   4.609   2.678   1.820
 5605TIP3   OH238373   1.307   3.160   6.962
 5605TIP3    H138374   1.244   3.123   6.900
 5605TIP3    H238375   1.379   3.192   6.908
 5606TIP3   OH238376   2.596   5.372   8.548
 5606TIP3    H138377   2.600   5.350   8.642
 5606TIP3    H238378   2.588   5.287   8.505
 5607TIP3   OH238379   1.780   0.145   8.660
 5607TIP3    H138380   1.813   0.219   8.609
 5607TIP3    H238381   1.719   0.100   8.600
 5608TIP3   OH238382   0.331   5.716   7.673
 5608TIP3    H138383   0.295   5.802   7.690
 5608TIP3    H238384   0.420   5.733   7.641
 5609TIP3   OH238385   1.104   0.283   7.845
 5609TIP3    H138386   1.121   0.189   7.853
 5609TIP3    H238387   1.188   0.319   7.814
 5610TIP3   OH238388   0.715   6.090   0.685
 5610TIP3    H138389   0.731   6.170   0.735
 5610TIP3    H238390   0.631   6.058   0.718
 5611TIP3   OH238391   6.477   4.939   0.474
 5611TIP3    H138392   6.451   4.966   0.386
 5611TIP3    H238393   6.400   4.892   0.508
 5612TIP3   OH238394   2.827   1.899   2.590
 5612TIP3    H138395   2.770   1.887   2.666
 5612TIP3    H238396   2.842   1.994   2.586
 5613TIP3   OH238397   0.885   2.890   8.347
 5613TIP3    H138398   0.826   2.942   8.401
 5613TIP3    H238399   0.929   2.831   8.409
 5614TIP3   OH238400   5.577   0.556   7.902
 5614TIP3    H138401   5.487   0.577   7.877
 5614TIP3    H238402   5.612   0.507   7.828
 5615TIP3   OH238403   0.557   2.169   1.815
 5615TIP3    H138404   0.599   2.121   1.886
 5615TIP3    H238405   0.626   2.222   1.777
 5616TIP3   OH238406   6.303   0.480   7.750
 5616TIP3    H138407   6.222   0.491   7.700
 5616TIP3    H238408   6.282   0.413   7.815
 5617TIP3   OH238409   2.628   1.953   7.948
 5617TIP3    H138410   2.716   1.924   7.924
 5617TIP3    H238411   2.583   1.964   7.865
 5618TIP3   OH238412   5.684   1.495   0.471
 5618TIP3    H138413   5.752   1.506   0.404
 5618TIP3    H238414   5.730   1.457   0.546
 5619TIP3   OH238415   4.080   1.021   7.395
 5619TIP3    H138416   4.171   1.000   7.417
 5619TIP3    H238417   4.030   1.001   7.474
 5620TIP3   OH238418   0.078   2.128   1.462
 5620TIP3    H138419   0.039   2.040   1.463
 5620TIP3    H238420   0.093   2.145   1.369
 5621TIP3   OH238421   0.886   1.493   6.271
 5621TIP3    H138422   0.839   1.434   6.330
 5621TIP3    H238423   0.921   1.435   6.203
 5622TIP3   OH238424   0.492   6.748   8.145
 5622TIP3    H138425   0.481   6.674   8.205
 5622TIP3    H238426   0.457   0.003   8.194
 5623TIP3   OH238427   5.136   5.327   7.680
 5623TIP3    H138428   5.148   5.420   7.701
 5623TIP3    H238429   5.043   5.310   7.694
 5624TIP3   OH238430   0.148   6.516   7.313
 5624TIP3    H138431   0.093   6.555   7.246
 5624TIP3    H238432   0.108   6.543   7.396
 5625TIP3   OH238433   3.245   4.600   2.022
 5625TIP3    H138434   3.327   4.598   1.974
 5625TIP3    H238435   3.182   4.638   1.961
 5626TIP3   OH238436   0.259   6.456   0.438
 5626TIP3    H138437   0.280   6.461   0.344
 5626TIP3    H238438   0.344   6.465   0.482
 5627TIP3   OH238439   3.404   1.536   0.471
 5627TIP3    H138440   3.352   1.476   0.524
 5627TIP3    H238441   3.486   1.545   0.520
 5628TIP3   OH238442   2.095   6.576   8.463
 5628TIP3    H138443   2.178   6.535   8.488
 5628TIP3    H238444   2.075   6.636   8.535
 5629TIP3   OH238445   2.611   4.401   1.597
 5629TIP3    H138446   2.571   4.320   1.629
 5629TIP3    H238447   2.593   4.466   1.666
 5630TIP3   OH238448   5.819   2.611   1.875
 5630TIP3    H138449   5.797   2.702   1.854
 5630TIP3    H238450   5.744   2.560   1.846
 5631TIP3   OH238451   1.579   3.746   0.900
 5631TIP3    H138452   1.617   3.662   0.874
 5631TIP3    H238453   1.627   3.771   0.978
 5632TIP3   OH238454   5.605   2.539   1.718
 5632TIP3    H138455   5.622   2.526   1.624
 5632TIP3    H238456   5.521   2.496   1.733
 5633TIP3   OH238457   6.503   0.969   2.607
 5633TIP3    H138458   6.456   1.050   2.627
 5633TIP3    H238459   6.584   0.975   2.658
 5634TIP3   OH238460   5.404   5.612   1.908
 5634TIP3    H138461   5.380   5.669   1.981
 5634TIP3    H238462   5.375   5.525   1.934
 5635TIP3   OH238463   4.034   2.952   0.978
 5635TIP3    H138464   4.111   2.897   0.992
 5635TIP3    H238465   3.991   2.915   0.901
 5636TIP3   OH238466   3.809   2.192   7.249
 5636TIP3    H138467   3.857   2.240   7.182
 5636TIP3    H238468   3.780   2.112   7.206
 5637TIP3   OH238469   0.333   0.414   8.236
 5637TIP3    H138470   0.376   0.342   8.189
 5637TIP3    H238471   0.242   0.386   8.245
 5638TIP3   OH238472   5.335   0.509   0.225
 5638TIP3    H138473   5.274   0.436   0.221
 5638TIP3    H238474   5.322   0.555   0.141
 5639TIP3   OH238475   6.685   0.795   2.037
 5639TIP3    H138476   6.746   0.761   2.103
 5639TIP3    H238477   6.732   0.785   1.954
 5640TIP3   OH238478   0.250   0.320   0.006
 5640TIP3    H138479   0.292   0.365   0.079
 5640TIP3    H238480   0.259   0.380   8.733
 5641TIP3   OH238481   5.771   1.285   6.346
 5641TIP3    H138482   5.719   1.366   6.353
 5641TIP3    H238483   5.845   1.299   6.406
 5642TIP3   OH238484   0.365   5.004   1.772
 5642TIP3    H138485   0.407   4.942   1.713
 5642TIP3    H238486   0.327   5.070   1.714
 5643TIP3   OH238487   0.443   4.857   8.266
 5643TIP3    H138488   0.454   4.831   8.175
 5643TIP3    H238489   0.443   4.952   8.264
 5644TIP3   OH238490   2.045   0.750   0.421
 5644TIP3    H138491   2.110   0.820   0.423
 5644TIP3    H238492   1.997   0.760   0.503
 5645TIP3   OH238493   5.664   4.494   1.178
 5645TIP3    H138494   5.692   4.531   1.094
 5645TIP3    H238495   5.576   4.528   1.191
 5646TIP3   OH238496   0.900   5.294   7.314
 5646TIP3    H138497   0.868   5.290   7.404
 5646TIP3    H238498   0.946   5.211   7.302
 5647TIP3   OH238499   6.172   4.835   1.494
 5647TIP3    H138500   6.107   4.798   1.554
 5647TIP3    H238501   6.157   4.930   1.499
 5648TIP3   OH238502   2.592   2.552   6.883
 5648TIP3    H138503   2.523   2.583   6.824
 5648TIP3    H238504   2.633   2.480   6.836
 5649TIP3   OH238505   6.564   2.508   2.286
 5649TIP3    H138506   6.610   2.504   2.202
 5649TIP3    H238507   6.489   2.450   2.275
 5650TIP3   OH238508   1.571   2.980   1.411
 5650TIP3    H138509   1.628   2.920   1.363
 5650TIP3    H238510   1.522   3.026   1.343
 5651TIP3   OH238511   0.120   1.301   7.191
 5651TIP3    H138512   0.052   1.274   7.129
 5651TIP3    H238513   0.139   1.222   7.242
 5652TIP3   OH238514   4.938   5.901   1.646
 5652TIP3    H138515   4.859   5.869   1.602
 5652TIP3    H238516   5.002   5.910   1.575
 5653TIP3   OH238517   4.395   5.750   7.711
 5653TIP3    H138518   4.363   5.831   7.751
 5653TIP3    H238519   4.489   5.752   7.724
 5654TIP3   OH238520   3.468   1.547   8.419
 5654TIP3    H138521   3.446   1.560   8.327
 5654TIP3    H238522   3.389   1.510   8.458
 5655TIP3   OH238523   1.961   4.047   8.066
 5655TIP3    H138524   1.999   4.117   8.013
 5655TIP3    H238525   2.028   4.029   8.133
 5656TIP3   OH238526   1.226   4.543   0.538
 5656TIP3    H138527   1.215   4.539   0.633
 5656TIP3    H238528   1.293   4.478   0.519
 5657TIP3   OH238529   3.914   1.888   1.412
 5657TIP3    H138530   3.993   1.940   1.399
 5657TIP3    H238531   3.859   1.909   1.336
 5658TIP3   OH238532   0.482   0.698   7.521
 5658TIP3    H138533   0.569   0.711   7.483
 5658TIP3    H238534   0.490   0.728   7.611
 5659TIP3   OH238535   5.650   2.907   1.369
 5659TIP3    H138536   5.665   2.984   1.313
 5659TIP3    H238537   5.643   2.943   1.458
 5660TIP3   OH238538   5.499   6.119   1.086
 5660TIP3    H138539   5.493   6.197   1.031
 5660TIP3    H238540   5.589   6.089   1.076
 5661TIP3   OH238541   6.363   6.159   7.790
 5661TIP3    H138542   6.458   6.160   7.786
 5661TIP3    H238543   6.339   6.245   7.825
 5662TIP3   OH238544   6.754   0.381   0.162
 5662TIP3    H138545   6.730   0.290   0.179
 5662TIP3    H238546   6.816   0.404   0.231
 5663TIP3   OH238547   2.849   3.684   1.464
 5663TIP3    H138548   2.907   3.761   1.460
 5663TIP3    H238549   2.898   3.620   1.515
 5664TIP3   OH238550   0.031   0.510   8.701
 5664TIP3    H138551   0.091   0.571   8.744
 5664TIP3    H238552   0.001   0.452   8.770
 5665TIP3   OH238553   4.127   4.894   0.228
 5665TIP3    H138554   4.157   4.977   0.191
 5665TIP3    H238555   4.056   4.919   0.288
 5666TIP3   OH238556   2.405   0.068   0.027
 5666TIP3    H138557   2.481   0.103   8.782
 5666TIP3    H238558   2.409   6.793   0.012
 5667TIP3   OH238559   0.809   5.891   6.564
 5667TIP3    H138560   0.851   5.973   6.589
 5667TIP3    H238561   0.861   5.857   6.491
 5668TIP3   OH238562   3.898   2.906   8.050
 5668TIP3    H138563   3.951   2.863   8.118
 5668TIP3    H238564   3.815   2.859   8.052
 5669TIP3   OH238565   5.754   1.616   2.614
 5669TIP3    H138566   5.757   1.542   2.674
 5669TIP3    H238567   5.692   1.589   2.546
 5670TIP3   OH238568   6.796   6.281   6.937
 5670TIP3    H138569   6.819   6.202   6.986
 5670TIP3    H238570   6.714   6.259   6.892
 5671TIP3   OH238571   5.622   4.538   7.714
 5671TIP3    H138572   5.591   4.629   7.714
 5671TIP3    H238573   5.545   4.487   7.739
 5672TIP3   OH238574   4.824   2.164   0.887
 5672TIP3    H138575   4.771   2.106   0.833
 5672TIP3    H238576   4.838   2.242   0.833
 5673TIP3   OH238577   5.143   0.856   0.880
 5673TIP3    H138578   5.238   0.859   0.870
 5673TIP3    H238579   5.128   0.836   0.972
 5674TIP3   OH238580   3.540   2.395   7.596
 5674TIP3    H138581   3.529   2.470   7.537
 5674TIP3    H238582   3.524   2.318   7.541
 5675TIP3   OH238583   3.126   4.296   1.932
 5675TIP3    H138584   3.031   4.296   1.942
 5675TIP3    H238585   3.141   4.311   1.839
 5676TIP3   OH238586   2.795   3.222   6.918
 5676TIP3    H138587   2.855   3.164   6.870
 5676TIP3    H238588   2.767   3.286   6.853
 5677TIP3   OH238589   3.953   6.542   1.094
 5677TIP3    H138590   3.894   6.552   1.019
 5677TIP3    H238591   4.033   6.504   1.056
 5678TIP3   OH238592   2.406   1.371   0.203
 5678TIP3    H138593   2.499   1.392   0.201
 5678TIP3    H238594   2.399   1.296   0.262
 5679TIP3   OH238595   4.510   6.196   8.141
 5679TIP3    H138596   4.525   6.107   8.110
 5679TIP3    H238597   4.467   6.241   8.068
 5680TIP3   OH238598   3.441   0.955   0.096
 5680TIP3    H138599   3.437   0.976   0.003
 5680TIP3    H238600   3.515   0.895   0.104
 5681TIP3   OH238601   0.320   3.569   1.051
 5681TIP3    H138602   0.259   3.641   1.066
 5681TIP3    H238603   0.286   3.497   1.105
 5682TIP3   OH238604   5.501   4.934   0.868
 5682TIP3    H138605   5.570   4.898   0.811
 5682TIP3    H238606   5.522   4.900   0.955
 5683TIP3   OH238607   0.177   4.812   7.454
 5683TIP3    H138608   0.262   4.854   7.442
 5683TIP3    H238609   0.166   4.805   7.549
 5684TIP3   OH238610   2.371   5.868   0.688
 5684TIP3    H138611   2.424   5.927   0.633
 5684TIP3    H238612   2.355   5.791   0.633
 5685TIP3   OH238613   6.546   0.213   8.383
 5685TIP3    H138614   6.549   0.143   8.448
 5685TIP3    H238615   6.604   0.281   8.418
 5686TIP3   OH238616   6.571   6.083   0.624
 5686TIP3    H138617   6.506   6.151   0.640
 5686TIP3    H238618   6.615   6.071   0.708
 5687TIP3   OH238619   0.978   2.738   1.441
 5687TIP3    H138620   0.976   2.728   1.346
 5687TIP3    H238621   0.914   2.807   1.459
 5688TIP3   OH238622   1.898   6.755   7.887
 5688TIP3    H138623   1.816   6.754   7.838
 5688TIP3    H238624   1.880   6.701   7.964
 5689TIP3   OH238625   3.425   1.200   7.919
 5689TIP3    H138626   3.481   1.125   7.899
 5689TIP3    H238627   3.366   1.168   7.987
 5690TIP3   OH238628   5.791   3.579   0.263
 5690TIP3    H138629   5.819   3.517   0.331
 5690TIP3    H238630   5.860   3.645   0.261
 5691TIP3   OH238631   6.082   3.324   8.425
 5691TIP3    H138632   6.006   3.340   8.368
 5691TIP3    H238633   6.156   3.318   8.365
 5692TIP3   OH238634   3.310   0.513   8.667
 5692TIP3    H138635   3.403   0.522   8.644
 5692TIP3    H238636   3.269   0.485   8.585
 5693TIP3   OH238637   5.899   0.983   1.168
 5693TIP3    H138638   5.986   1.007   1.136
 5693TIP3    H238639   5.913   0.907   1.224
 5694TIP3   OH238640   0.390   2.457   1.813
 5694TIP3    H138641   0.429   2.402   1.881
 5694TIP3    H238642   0.449   2.447   1.738
 5695TIP3   OH238643   6.396   3.167   0.734
 5695TIP3    H138644   6.431   3.080   0.716
 5695TIP3    H238645   6.334   3.183   0.664
 5696TIP3   OH238646   0.966   3.626   8.699
 5696TIP3    H138647   1.036   3.679   8.661
 5696TIP3    H238648   0.971   3.543   8.652
 5697TIP3   OH238649   3.207   2.672   7.193
 5697TIP3    H138650   3.178   2.585   7.168
 5697TIP3    H238651   3.193   2.725   7.115
 5698TIP3   OH238652   6.450   0.030   8.092
 5698TIP3    H138653   6.454   0.005   8.185
 5698TIP3    H238654   6.410   6.775   8.049
 5699TIP3   OH238655   3.953   3.837   2.151
 5699TIP3    H138656   4.030   3.780   2.148
 5699TIP3    H238657   3.884   3.786   2.108
 5700TIP3   OH238658   0.505   1.143   1.539
 5700TIP3    H138659   0.581   1.109   1.491
 5700TIP3    H238660   0.498   1.234   1.511
 5701TIP3   OH238661   3.470   6.349   0.141
 5701TIP3    H138662   3.489   6.400   0.220
 5701TIP3    H238663   3.545   6.291   0.130
 5702TIP3   OH238664   4.939   4.459   1.163
 5702TIP3    H138665   5.023   4.443   1.120
 5702TIP3    H238666   4.950   4.424   1.251
 5703TIP3   OH238667   2.794   3.262   7.367
 5703TIP3    H138668   2.810   3.305   7.282
 5703TIP3    H238669   2.813   3.170   7.350
 5704TIP3   OH238670   5.481   5.658   7.404
 5704TIP3    H138671   5.493   5.752   7.391
 5704TIP3    H238672   5.411   5.635   7.344
 5705TIP3   OH238673   6.662   0.986   7.692
 5705TIP3    H138674   6.621   0.910   7.649
 5705TIP3    H238675   6.595   1.019   7.751
 5706TIP3   OH238676   3.943   5.306   1.980
 5706TIP3    H138677   3.858   5.278   2.015
 5706TIP3    H238678   4.005   5.242   2.015
 5707TIP3   OH238679   1.718   4.324   8.088
 5707TIP3    H138680   1.790   4.387   8.095
 5707TIP3    H238681   1.642   4.378   8.067
 5708TIP3   OH238682   3.946   4.275   7.886
 5708TIP3    H138683   3.956   4.305   7.795
 5708TIP3    H238684   4.022   4.218   7.901
 5709TIP3   OH238685   6.102   3.030   8.473
 5709TIP3    H138686   6.055   3.108   8.502
 5709TIP3    H238687   6.078   3.021   8.381
 5710TIP3   OH238688   5.509   5.339   1.420
 5710TIP3    H138689   5.424   5.346   1.464
 5710TIP3    H238690   5.570   5.313   1.490
 5711TIP3   OH238691   2.044   3.897   7.055
 5711TIP3    H138692   2.056   3.959   7.127
 5711TIP3    H238693   1.996   3.823   7.094
 5712TIP3   OH238694   5.428   6.509   1.092
 5712TIP3    H138695   5.448   6.422   1.059
 5712TIP3    H238696   5.434   6.500   1.188
 5713TIP3   OH238697   3.280   5.149   0.757
 5713TIP3    H138698   3.355   5.165   0.815
 5713TIP3    H238699   3.225   5.087   0.806
 5714TIP3   OH238700   0.587   5.688   0.257
 5714TIP3    H138701   0.518   5.730   0.309
 5714TIP3    H238702   0.656   5.753   0.251
 5715TIP3   OH238703   3.519   3.810   7.416
 5715TIP3    H138704   3.437   3.762   7.426
 5715TIP3    H238705   3.559   3.774   7.337
 5716TIP3   OH238706   5.679   5.446   8.658
 5716TIP3    H138707   5.696   5.384   8.729
 5716TIP3    H238708   5.766   5.478   8.633
 5717TIP3   OH238709   4.540   6.204   7.555
 5717TIP3    H138710   4.615   6.152   7.583
 5717TIP3    H238711   4.576   6.292   7.541
 5718TIP3   OH238712   4.061   1.043   0.174
 5718TIP3    H138713   4.043   1.127   0.133
 5718TIP3    H238714   4.069   0.982   0.100
 5719TIP3   OH238715   2.879   4.271   7.653
 5719TIP3    H138716   2.813   4.325   7.698
 5719TIP3    H238717   2.837   4.246   7.571
 5720TIP3   OH238718   1.636   0.908   8.362
 5720TIP3    H138719   1.551   0.903   8.406
 5720TIP3    H238720   1.690   0.961   8.420
 5721TIP3   OH238721   5.005   4.430   7.174
 5721TIP3    H138722   5.036   4.401   7.260
 5721TIP3    H238723   4.962   4.353   7.137
 5722TIP3   OH238724   0.967   0.784   7.226
 5722TIP3    H138725   0.969   0.750   7.315
 5722TIP3    H238726   1.037   0.737   7.181
 5723TIP3   OH238727   2.625   1.625   8.634
 5723TIP3    H138728   2.674   1.553   8.673
 5723TIP3    H238729   2.569   1.658   8.705
 5724TIP3   OH238730   1.078   0.012   7.845
 5724TIP3    H138731   1.047   6.774   7.775
 5724TIP3    H238732   1.157   6.789   7.878
 5725TIP3   OH238733   3.931   5.921   6.489
 5725TIP3    H138734   3.971   5.994   6.441
 5725TIP3    H238735   3.866   5.885   6.429
 5726TIP3   OH238736   5.571   5.616   7.650
 5726TIP3    H138737   5.602   5.525   7.654
 5726TIP3    H238738   5.543   5.628   7.559
 5727TIP3   OH238739   4.512   0.329   6.578
 5727TIP3    H138740   4.494   0.295   6.490
 5727TIP3    H238741   4.452   0.281   6.635
 5728TIP3   OH238742   2.938   6.363   0.521
 5728TIP3    H138743   2.915   6.279   0.480
 5728TIP3    H238744   3.009   6.341   0.582
 5729TIP3   OH238745   3.267   3.037   6.864
 5729TIP3    H138746   3.344   2.984   6.844
 5729TIP3    H238747   3.303   3.122   6.890
 5730TIP3   OH238748   5.387   6.421   1.340
 5730TIP3    H138749   5.430   6.410   1.425
 5730TIP3    H238750   5.366   6.332   1.312
 5731TIP3   OH238751   3.302   4.183   0.111
 5731TIP3    H138752   3.291   4.271   0.147
 5731TIP3    H238753   3.287   4.194   0.017
 5732TIP3   OH238754   0.926   5.212   0.852
 5732TIP3    H138755   0.870   5.183   0.924
 5732TIP3    H238756   0.919   5.142   0.787
 5733TIP3   OH238757   2.978   4.358   6.474
 5733TIP3    H138758   2.894   4.318   6.498
 5733TIP3    H238759   3.005   4.312   6.395
 5734TIP3   OH238760   6.186   2.977   0.655
 5734TIP3    H138761   6.175   2.971   0.560
 5734TIP3    H238762   6.280   2.986   0.669
 5735TIP3   OH238763   1.970   3.198   8.177
 5735TIP3    H138764   2.058   3.234   8.179
 5735TIP3    H238765   1.978   3.112   8.219
 5736TIP3   OH238766   1.435   4.482   0.097
 5736TIP3    H138767   1.412   4.567   0.133
 5736TIP3    H238768   1.513   4.455   0.146
 5737TIP3   OH238769   3.714   3.421   0.719
 5737TIP3    H138770   3.755   3.501   0.754
 5737TIP3    H238771   3.636   3.410   0.773
 5738TIP3   OH238772   4.432   0.521   1.369
 5738TIP3    H138773   4.500   0.553   1.429
 5738TIP3    H238774   4.365   0.590   1.370
 5739TIP3   OH238775   6.162   4.554   1.338
 5739TIP3    H138776   6.087   4.530   1.284
 5739TIP3    H238777   6.134   4.633   1.385
 5740TIP3   OH238778   6.679   5.134   2.240
 5740TIP3    H138779   6.678   5.229   2.233
 5740TIP3    H238780   6.736   5.116   2.315
 5741TIP3   OH238781   1.702   3.448   7.381
 5741TIP3    H138782   1.734   3.380   7.323
 5741TIP3    H238783   1.764   3.520   7.370
 5742TIP3   OH238784   3.566   0.921   1.811
 5742TIP3    H138785   3.483   0.874   1.814
 5742TIP3    H238786   3.633   0.852   1.806
 5743TIP3   OH238787   4.512   0.726   2.631
 5743TIP3    H138788   4.490   0.657   2.694
 5743TIP3    H238789   4.428   0.763   2.605
 5744TIP3   OH238790   5.329   4.293   7.578
 5744TIP3    H138791   5.412   4.267   7.538
 5744TIP3    H238792   5.350   4.304   7.671
 5745TIP3   OH238793   1.702   1.253   8.444
 5745TIP3    H138794   1.655   1.237   8.363
 5745TIP3    H238795   1.781   1.300   8.418
 5746TIP3   OH238796   3.651   1.577   1.177
 5746TIP3    H138797   3.585   1.510   1.196
 5746TIP3    H238798   3.615   1.657   1.215
 5747TIP3   OH238799   4.333   6.748   8.377
 5747TIP3    H138800   4.276   6.709   8.312
 5747TIP3    H238801   4.375   6.674   8.420
 5748TIP3   OH238802   3.116   4.048   0.316
 5748TIP3    H138803   3.187   3.985   0.329
 5748TIP3    H238804   3.128   4.081   0.227
 5749TIP3   OH238805   0.692   0.880   7.482
 5749TIP3    H138806   0.668   0.903   7.572
 5749TIP3    H238807   0.732   0.960   7.447
 5750TIP3   OH238808   1.107   5.560   6.430
 5750TIP3    H138809   1.120   5.654   6.426
 5750TIP3    H238810   1.015   5.547   6.406
 5751TIP3   OH238811   3.871   3.245   7.027
 5751TIP3    H138812   3.804   3.313   7.023
 5751TIP3    H238813   3.953   3.291   7.013
 5752TIP3   OH238814   1.041   6.611   7.018
 5752TIP3    H138815   1.020   6.576   7.105
 5752TIP3    H238816   1.137   6.609   7.014
 5753TIP3   OH238817   5.225   3.943   8.087
 5753TIP3    H138818   5.281   3.880   8.132
 5753TIP3    H238819   5.172   3.890   8.027
 5754TIP3   OH238820   0.311   2.042   7.334
 5754TIP3    H138821   0.266   2.028   7.250
 5754TIP3    H238822   0.347   1.956   7.356
 5755TIP3   OH238823   5.270   5.488   0.336
 5755TIP3    H138824   5.223   5.526   0.262
 5755TIP3    H238825   5.331   5.556   0.363
 5756TIP3   OH238826   0.746   0.174   8.755
 5756TIP3    H138827   0.739   0.251   0.010
 5756TIP3    H238828   0.692   0.195   8.678
 5757TIP3   OH238829   0.697   3.436   0.942
 5757TIP3    H138830   0.761   3.501   0.972
 5757TIP3    H238831   0.689   3.453   0.848
 5758TIP3   OH238832   3.240   1.997   0.718
 5758TIP3    H138833   3.164   2.037   0.760
 5758TIP3    H238834   3.253   2.050   0.639
 5759TIP3   OH238835   3.588   0.021   7.291
 5759TIP3    H138836   3.596   0.059   7.203
 5759TIP3    H238837   3.502   6.797   7.289
 5760TIP3   OH238838   2.342   4.169   1.352
 5760TIP3    H138839   2.407   4.133   1.412
 5760TIP3    H238840   2.259   4.160   1.398
 5761TIP3   OH238841   2.916   4.063   6.665
 5761TIP3    H138842   2.879   4.018   6.741
 5761TIP3    H238843   2.847   4.124   6.638
 5762TIP3   OH238844   6.706   5.727   8.711
 5762TIP3    H138845   6.726   5.644   8.754
 5762TIP3    H238846   6.629   5.708   8.657
 5763TIP3   OH238847   3.694   5.988   7.847
 5763TIP3    H138848   3.656   5.917   7.899
 5763TIP3    H238849   3.653   5.979   7.761
 5764TIP3   OH238850   3.938   0.513   6.992
 5764TIP3    H138851   3.853   0.552   6.974
 5764TIP3    H238852   4.000   0.586   6.985
 5765TIP3   OH238853   5.879   1.191   1.768
 5765TIP3    H138854   5.909   1.100   1.761
 5765TIP3    H238855   5.802   1.186   1.826
 5766TIP3   OH238856   2.440   6.623   0.007
 5766TIP3    H138857   2.444   6.550   0.069
 5766TIP3    H238858   2.508   6.603   8.743
 5767TIP3   OH238859   6.437   6.453   6.418
 5767TIP3    H138860   6.494   6.524   6.444
 5767TIP3    H238861   6.349   6.492   6.417
 5768TIP3   OH238862   5.581   6.685   0.106
 5768TIP3    H138863   5.520   6.616   0.133
 5768TIP3    H238864   5.639   6.696   0.181
 5769TIP3   OH238865   4.468   6.176   1.549
 5769TIP3    H138866   4.420   6.179   1.467
 5769TIP3    H238867   4.403   6.152   1.614
 5770TIP3   OH238868   2.370   2.797   6.970
 5770TIP3    H138869   2.401   2.772   7.057
 5770TIP3    H238870   2.336   2.716   6.933
 5771TIP3   OH238871   5.191   6.429   6.590
 5771TIP3    H138872   5.260   6.438   6.524
 5771TIP3    H238873   5.173   6.335   6.593
 5772TIP3   OH238874   6.165   3.662   8.696
 5772TIP3    H138875   6.179   3.574   8.662
 5772TIP3    H238876   6.103   3.702   8.635
 5773TIP3   OH238877   2.571   5.991   7.724
 5773TIP3    H138878   2.588   6.058   7.790
 5773TIP3    H238879   2.476   5.979   7.725
 5774TIP3   OH238880   0.183   1.701   0.446
 5774TIP3    H138881   0.250   1.755   0.487
 5774TIP3    H238882   0.140   1.760   0.384
 5775TIP3   OH238883   4.512   4.390   8.160
 5775TIP3    H138884   4.440   4.335   8.131
 5775TIP3    H238885   4.505   4.469   8.108
 5776TIP3   OH238886   5.881   5.518   1.954
 5776TIP3    H138887   5.890   5.513   2.049
 5776TIP3    H238888   5.823   5.593   1.939
 5777TIP3   OH238889   6.404   1.952   6.595
 5777TIP3    H138890   6.373   1.890   6.529
 5777TIP3    H238891   6.495   1.970   6.570
 5778TIP3   OH238892   5.258   2.859   0.468
 5778TIP3    H138893   5.315   2.799   0.516
 5778TIP3    H238894   5.222   2.806   0.397
 5779TIP3   OH238895   4.718   6.579   0.686
 5779TIP3    H138896   4.740   6.543   0.600
 5779TIP3    H238897   4.667   6.658   0.667
 5780TIP3   OH238898   5.078   2.530   6.638
 5780TIP3    H138899   5.029   2.588   6.697
 5780TIP3    H238900   5.164   2.521   6.680
 5781TIP3   OH238901   6.371   2.234   1.906
 5781TIP3    H138902   6.426   2.274   1.840
 5781TIP3    H238903   6.426   2.168   1.948
 5782TIP3   OH238904   2.912   4.055   8.196
 5782TIP3    H138905   2.907   4.018   8.284
 5782TIP3    H238906   3.005   4.077   8.185
 5783TIP3   OH238907   0.809   1.928   7.528
 5783TIP3    H138908   0.718   1.947   7.551
 5783TIP3    H238909   0.822   1.970   7.443
 5784TIP3   OH238910   1.677   0.590   0.499
 5784TIP3    H138911   1.725   0.591   0.416
 5784TIP3    H238912   1.725   0.527   0.554
 5785TIP3   OH238913   4.297   1.664   0.296
 5785TIP3    H138914   4.259   1.740   0.341
 5785TIP3    H238915   4.251   1.589   0.333
 5786TIP3   OH238916   3.169   2.914   6.467
 5786TIP3    H138917   3.111   2.947   6.535
 5786TIP3    H238918   3.110   2.878   6.401
 5787TIP3   OH238919   1.046   2.931   0.869
 5787TIP3    H138920   1.080   3.007   0.916
 5787TIP3    H238921   1.067   2.857   0.925
 5788TIP3   OH238922   0.852   1.556   2.492
 5788TIP3    H138923   0.860   1.581   2.400
 5788TIP3    H238924   0.800   1.626   2.531
 5789TIP3   OH238925   1.868   3.337   1.112
 5789TIP3    H138926   1.796   3.283   1.082
 5789TIP3    H238927   1.837   3.427   1.102
 5790TIP3   OH238928   3.960   3.792   8.217
 5790TIP3    H138929   3.882   3.823   8.264
 5790TIP3    H238930   3.948   3.698   8.209
 5791TIP3   OH238931   6.813   4.589   1.589
 5791TIP3    H138932   6.802   4.671   1.541
 5791TIP3    H238933   0.060   4.608   1.655
 5792TIP3   OH238934   6.470   2.246   0.929
 5792TIP3    H138935   6.555   2.266   0.966
 5792TIP3    H238936   6.489   2.195   0.851
 5793TIP3   OH238937   4.003   2.044   7.068
 5793TIP3    H138938   4.044   2.003   6.992
 5793TIP3    H238939   3.911   2.016   7.064
 5794TIP3   OH238940   2.393   4.381   0.819
 5794TIP3    H138941   2.478   4.395   0.860
 5794TIP3    H238942   2.405   4.302   0.766
 5795TIP3   OH238943   0.224   3.261   7.731
 5795TIP3    H138944   0.251   3.229   7.644
 5795TIP3    H238945   0.140   3.219   7.747
 5796TIP3   OH238946   2.830   1.126   0.173
 5796TIP3    H138947   2.789   1.204   0.210
 5796TIP3    H238948   2.899   1.104   0.234
 5797TIP3   OH238949   2.946   1.264   7.981
 5797TIP3    H138950   3.034   1.293   8.007
 5797TIP3    H238951   2.896   1.345   7.973
 5798TIP3   OH238952   4.745   1.040   7.877
 5798TIP3    H138953   4.659   1.024   7.915
 5798TIP3    H238954   4.740   1.128   7.842
 5799TIP3   OH238955   6.635   2.476   2.022
 5799TIP3    H138956   6.637   2.423   1.942
 5799TIP3    H238957   6.726   2.478   2.052
 5800TIP3   OH238958   3.555   5.697   8.790
 5800TIP3    H138959   3.538   5.651   0.073
 5800TIP3    H238960   3.469   5.725   8.760
 5801TIP3   OH238961   0.323   5.648   8.277
 5801TIP3    H138962   0.291   5.597   8.351
 5801TIP3    H238963   0.244   5.684   8.236
 5802TIP3   OH238964   3.472   6.764   2.032
 5802TIP3    H138965   3.429   6.694   1.983
 5802TIP3    H238966   3.406   0.012   2.041
 5803TIP3   OH238967   2.449   3.864   0.718
 5803TIP3    H138968   2.412   3.941   0.762
 5803TIP3    H238969   2.488   3.813   0.789
 5804TIP3   OH238970   6.430   1.988   0.057
 5804TIP3    H138971   6.363   1.919   0.057
 5804TIP3    H238972   6.408   2.043   0.132
 5805TIP3   OH238973   1.907   2.896   7.082
 5805TIP3    H138974   1.950   2.893   6.996
 5805TIP3    H238975   1.840   2.828   7.078
 5806TIP3   OH238976   4.459   1.122   1.378
 5806TIP3    H138977   4.440   1.107   1.470
 5806TIP3    H238978   4.374   1.143   1.339
 5807TIP3   OH238979   3.239   3.359   7.882
 5807TIP3    H138980   3.211   3.415   7.810
 5807TIP3    H238981   3.309   3.408   7.925
 5808TIP3   OH238982   4.681   5.726   6.225
 5808TIP3    H138983   4.695   5.819   6.207
 5808TIP3    H238984   4.604   5.703   6.173
 5809TIP3   OH238985   0.972   6.249   2.276
 5809TIP3    H138986   0.906   6.312   2.246
 5809TIP3    H238987   0.922   6.171   2.298
 5810TIP3   OH238988   0.829   0.379   1.574
 5810TIP3    H138989   0.846   0.293   1.611
 5810TIP3    H238990   0.755   0.366   1.514
 5811TIP3   OH238991   0.595   6.713   1.085
 5811TIP3    H138992   0.535   6.695   1.013
 5811TIP3    H238993   0.609   6.808   1.081
 5812TIP3   OH238994   1.082   0.690   0.050
 5812TIP3    H138995   1.111   0.746   0.121
 5812TIP3    H238996   1.041   0.615   0.093
 5813TIP3   OH238997   5.942   0.876   2.318
 5813TIP3    H138998   5.940   0.782   2.335
 5813TIP3    H238999   5.871   0.912   2.370
 5814TIP3   OH239000   3.314   6.111   0.980
 5814TIP3    H139001   3.256   6.105   1.057
 5814TIP3    H239002   3.400   6.086   1.014
 5815TIP3   OH239003   3.346   3.719   1.724
 5815TIP3    H139004   3.361   3.702   1.817
 5815TIP3    H239005   3.292   3.798   1.722
 5816TIP3   OH239006   5.531   0.813   0.176
 5816TIP3    H139007   5.565   0.787   0.262
 5816TIP3    H239008   5.525   0.731   0.127
 5817TIP3   OH239009   4.995   4.990   0.155
 5817TIP3    H139010   4.915   4.940   0.173
 5817TIP3    H239011   5.047   4.983   0.235
 5818TIP3   OH239012   0.711   2.289   7.606
 5818TIP3    H139013   0.802   2.260   7.606
 5818TIP3    H239014   0.687   2.298   7.514
 5819TIP3   OH239015   1.169   4.282   1.210
 5819TIP3    H139016   1.228   4.265   1.283
 5819TIP3    H239017   1.186   4.372   1.185
 5820TIP3   OH239018   5.465   3.143   7.653
 5820TIP3    H139019   5.533   3.208   7.669
 5820TIP3    H239020   5.456   3.096   7.735
 5821TIP3   OH239021   3.155   3.836   7.336
 5821TIP3    H139022   3.154   3.855   7.430
 5821TIP3    H239023   3.169   3.921   7.294
 5822TIP3   OH239024   5.690   5.058   0.525
 5822TIP3    H139025   5.615   5.028   0.473
 5822TIP3    H239026   5.766   5.022   0.480
 5823TIP3   OH239027   6.491   5.561   6.413
 5823TIP3    H139028   6.548   5.511   6.354
 5823TIP3    H239029   6.487   5.508   6.493
 5824TIP3   OH239030   2.392   4.762   8.797
 5824TIP3    H139031   2.456   4.716   0.050
 5824TIP3    H239032   2.335   4.692   8.763
 5825TIP3   OH239033   4.210   2.762   0.911
 5825TIP3    H139034   4.160   2.759   0.830
 5825TIP3    H239035   4.238   2.671   0.926
 5826TIP3   OH239036   3.565   1.734   0.323
 5826TIP3    H139037   3.494   1.672   0.339
 5826TIP3    H239038   3.611   1.700   0.247
 5827TIP3   OH239039   5.372   3.078   0.360
 5827TIP3    H139040   5.326   3.002   0.396
 5827TIP3    H239041   5.463   3.065   0.386
 5828TIP3   OH239042   4.499   6.462   1.683
 5828TIP3    H139043   4.554   6.464   1.762
 5828TIP3    H239044   4.551   6.511   1.618
 5829TIP3   OH239045   3.694   3.683   7.258
 5829TIP3    H139046   3.762   3.727   7.208
 5829TIP3    H239047   3.737   3.606   7.296
 5830TIP3   OH239048   5.453   4.003   0.516
 5830TIP3    H139049   5.517   4.023   0.584
 5830TIP3    H239050   5.424   4.089   0.485
 5831TIP3   OH239051   3.035   0.962   7.247
 5831TIP3    H139052   3.039   0.998   7.158
 5831TIP3    H239053   3.068   0.873   7.238
 5832TIP3   OH239054   0.482   2.267   2.503
 5832TIP3    H139055   0.414   2.281   2.569
 5832TIP3    H239056   0.473   2.341   2.444
 5833TIP3   OH239057   2.991   5.797   7.155
 5833TIP3    H139058   3.085   5.799   7.137
 5833TIP3    H239059   2.955   5.869   7.104
 5834TIP3   OH239060   1.936   1.244   6.488
 5834TIP3    H139061   1.957   1.335   6.508
 5834TIP3    H239062   1.851   1.249   6.443
 5835TIP3   OH239063   3.412   6.029   8.363
 5835TIP3    H139064   3.363   6.081   8.426
 5835TIP3    H239065   3.473   6.091   8.322
 5836TIP3   OH239066   3.049   4.115   6.912
 5836TIP3    H139067   2.959   4.085   6.910
 5836TIP3    H239068   3.078   4.109   6.821
 5837TIP3   OH239069   1.706   1.604   2.148
 5837TIP3    H139070   1.724   1.697   2.157
 5837TIP3    H239071   1.637   1.598   2.083
 5838TIP3   OH239072   2.833   1.420   1.153
 5838TIP3    H139073   2.846   1.452   1.242
 5838TIP3    H239074   2.914   1.374   1.132
 5839TIP3   OH239075   5.596   3.689   8.760
 5839TIP3    H139076   5.534   3.725   8.696
 5839TIP3    H239077   5.550   3.697   0.044
 5840TIP3   OH239078   2.893   5.284   7.100
 5840TIP3    H139079   2.882   5.238   7.183
 5840TIP3    H239080   2.807   5.323   7.082
 5841TIP3   OH239081   3.875   3.523   0.239
 5841TIP3    H139082   3.904   3.534   0.330
 5841TIP3    H239083   3.809   3.590   0.226
 5842TIP3   OH239084   5.684   2.618   8.207
 5842TIP3    H139085   5.603   2.664   8.184
 5842TIP3    H239086   5.746   2.687   8.229
 5843TIP3   OH239087   4.437   1.640   0.912
 5843TIP3    H139088   4.384   1.715   0.887
 5843TIP3    H239089   4.419   1.626   1.005
 5844TIP3   OH239090   1.878   3.680   8.579
 5844TIP3    H139091   1.874   3.664   8.485
 5844TIP3    H239092   1.856   3.595   8.618
 5845TIP3   OH239093   3.002   4.436   2.142
 5845TIP3    H139094   2.950   4.515   2.157
 5845TIP3    H239095   2.941   4.364   2.160
 5846TIP3   OH239096   6.445   6.544   6.756
 5846TIP3    H139097   6.514   6.587   6.705
 5846TIP3    H239098   6.414   6.473   6.700
 5847TIP3   OH239099   2.698   2.768   2.148
 5847TIP3    H139100   2.608   2.791   2.122
 5847TIP3    H239101   2.688   2.727   2.234
 5848TIP3   OH239102   4.913   6.041   2.118
 5848TIP3    H139103   4.993   6.027   2.168
 5848TIP3    H239104   4.928   5.992   2.037
 5849TIP3   OH239105   3.458   1.730   7.277
 5849TIP3    H139106   3.455   1.719   7.372
 5849TIP3    H239107   3.544   1.697   7.252
 5850TIP3   OH239108   6.768   6.032   1.461
 5850TIP3    H139109   6.716   5.987   1.527
 5850TIP3    H239110   6.772   5.972   1.387
 5851TIP3   OH239111   2.275   4.285   7.633
 5851TIP3    H139112   2.304   4.245   7.716
 5851TIP3    H239113   2.319   4.233   7.566
 5852TIP3   OH239114   0.069   0.022   8.556
 5852TIP3    H139115   0.129   6.777   8.519
 5852TIP3    H239116   0.100   0.106   8.521
 5853TIP3   OH239117   4.445   1.667   7.598
 5853TIP3    H139118   4.410   1.756   7.591
 5853TIP3    H239119   4.368   1.612   7.614
 5854TIP3   OH239120   4.004   4.759   8.674
 5854TIP3    H139121   3.950   4.784   8.599
 5854TIP3    H239122   3.976   4.669   8.694
 5855TIP3   OH239123   3.962   1.666   1.560
 5855TIP3    H139124   3.913   1.607   1.503
 5855TIP3    H239125   3.930   1.753   1.536
 5856TIP3   OH239126   3.925   1.928   7.765
 5856TIP3    H139127   3.847   1.905   7.713
 5856TIP3    H239128   3.994   1.940   7.700
 5857TIP3   OH239129   0.702   3.660   7.352
 5857TIP3    H139130   0.715   3.747   7.314
 5857TIP3    H239131   0.775   3.608   7.320
 5858TIP3   OH239132   5.347   6.114   1.297
 5858TIP3    H139133   5.390   6.106   1.212
 5858TIP3    H239134   5.408   6.073   1.359
 5859TIP3   OH239135   3.582   1.994   0.209
 5859TIP3    H139136   3.490   1.985   0.232
 5859TIP3    H239137   3.621   1.909   0.231
 5860TIP3   OH239138   2.567   3.078   1.721
 5860TIP3    H139139   2.588   3.163   1.681
 5860TIP3    H239140   2.550   3.098   1.813
 5861TIP3   OH239141   0.460   4.369   1.771
 5861TIP3    H139142   0.401   4.390   1.844
 5861TIP3    H239143   0.420   4.293   1.729
 5862TIP3   OH239144   3.362   4.371   6.227
 5862TIP3    H139145   3.410   4.303   6.274
 5862TIP3    H239146   3.311   4.323   6.161
 5863TIP3   OH239147   3.894   6.075   0.361
 5863TIP3    H139148   3.970   6.115   0.403
 5863TIP3    H239149   3.837   6.049   0.434
 5864TIP3   OH239150   1.256   3.289   6.475
 5864TIP3    H139151   1.308   3.300   6.395
 5864TIP3    H239152   1.180   3.346   6.462
 5865TIP3   OH239153   6.742   3.538   6.776
 5865TIP3    H139154   6.716   3.475   6.844
 5865TIP3    H239155   6.793   3.487   6.714
 5866TIP3   OH239156   0.121   2.398   7.373
 5866TIP3    H139157   0.163   2.316   7.345
 5866TIP3    H239158   0.115   2.450   7.293
 5867TIP3   OH239159   2.049   4.283   8.335
 5867TIP3    H139160   2.116   4.332   8.287
 5867TIP3    H239161   2.080   4.193   8.334
 5868TIP3   OH239162   4.811   0.315   1.679
 5868TIP3    H139163   4.842   0.357   1.599
 5868TIP3    H239164   4.788   0.226   1.653
 5869TIP3   OH239165   6.787   2.893   8.531
 5869TIP3    H139166   6.787   2.957   8.602
 5869TIP3    H239167   6.709   2.840   8.546
 5870TIP3   OH239168   5.628   5.236   7.513
 5870TIP3    H139169   5.542   5.248   7.473
 5870TIP3    H239170   5.623   5.282   7.596
 5871TIP3   OH239171   1.605   2.469   7.413
 5871TIP3    H139172   1.580   2.421   7.492
 5871TIP3    H239173   1.678   2.419   7.377
 5872TIP3   OH239174   2.749   3.301   7.993
 5872TIP3    H139175   2.841   3.303   8.021
 5872TIP3    H239176   2.740   3.375   7.934
 5873TIP3   OH239177   2.145   5.599   1.608
 5873TIP3    H139178   2.131   5.657   1.683
 5873TIP3    H239179   2.060   5.594   1.565
 5874TIP3   OH239180   6.010   5.349   7.839
 5874TIP3    H139181   6.019   5.315   7.750
 5874TIP3    H239182   5.984   5.440   7.827
 5875TIP3   OH239183   2.043   2.409   0.172
 5875TIP3    H139184   2.028   2.318   0.198
 5875TIP3    H239185   1.969   2.457   0.208
 5876TIP3   OH239186   2.708   1.963   2.269
 5876TIP3    H139187   2.647   2.008   2.328
 5876TIP3    H239188   2.795   1.985   2.303
 5877TIP3   OH239189   4.530   5.055   7.148
 5877TIP3    H139190   4.476   5.133   7.144
 5877TIP3    H239191   4.562   5.043   7.058
 5878TIP3   OH239192   4.441   0.004   1.302
 5878TIP3    H139193   4.404   0.018   1.389
 5878TIP3    H239194   4.398   6.744   1.271
 5879TIP3   OH239195   6.154   0.572   1.300
 5879TIP3    H139196   6.193   0.541   1.218
 5879TIP3    H239197   6.210   0.534   1.368
 5880TIP3   OH239198   0.824   6.048   1.859
 5880TIP3    H139199   0.919   6.047   1.872
 5880TIP3    H239200   0.811   6.000   1.777
 5881TIP3   OH239201   4.142   0.630   7.246
 5881TIP3    H139202   4.132   0.723   7.226
 5881TIP3    H239203   4.055   0.593   7.230
 5882TIP3   OH239204   1.466   4.189   6.724
 5882TIP3    H139205   1.477   4.141   6.641
 5882TIP3    H239206   1.515   4.270   6.711
 5883TIP3   OH239207   2.390   0.019   1.256
 5883TIP3    H139208   2.431   0.059   1.179
 5883TIP3    H239209   2.458   0.023   1.324
 5884TIP3   OH239210   0.075   5.520   8.062
 5884TIP3    H139211   0.096   5.441   8.110
 5884TIP3    H239212   6.809   5.547   8.096
 5885TIP3   OH239213   2.942   6.203   8.495
 5885TIP3    H139214   2.853   6.236   8.508
 5885TIP3    H239215   2.997   6.281   8.500
 5886TIP3   OH239216   0.461   3.797   1.987
 5886TIP3    H139217   0.415   3.881   1.985
 5886TIP3    H239218   0.438   3.759   2.071
 5887TIP3   OH239219   4.631   6.752   7.205
 5887TIP3    H139220   4.614   6.770   7.298
 5887TIP3    H239221   4.554   6.787   7.160
 5888TIP3   OH239222   5.947   6.687   7.539
 5888TIP3    H139223   5.995   6.679   7.622
 5888TIP3    H239224   5.992   6.758   7.493
 5889TIP3   OH239225   6.757   5.216   1.460
 5889TIP3    H139226   6.728   5.167   1.537
 5889TIP3    H239227   6.720   5.304   1.472
 5890TIP3   OH239228   0.898   3.446   7.271
 5890TIP3    H139229   0.965   3.490   7.218
 5890TIP3    H239230   0.937   3.362   7.294
 5891TIP3   OH239231   4.785   6.576   8.197
 5891TIP3    H139232   4.859   6.569   8.137
 5891TIP3    H239233   4.761   6.669   8.194
 5892TIP3   OH239234   6.025   4.520   8.143
 5892TIP3    H139235   5.935   4.489   8.132
 5892TIP3    H239236   6.026   4.608   8.106
 5893TIP3   OH239237   2.460   0.565   1.460
 5893TIP3    H139238   2.451   0.582   1.366
 5893TIP3    H239239   2.515   0.487   1.465
 5894TIP3   OH239240   6.123   5.123   0.583
 5894TIP3    H139241   6.080   5.202   0.618
 5894TIP3    H239242   6.086   5.112   0.495
 5895TIP3   OH239243   1.606   3.782   7.097
 5895TIP3    H139244   1.517   3.803   7.068
 5895TIP3    H239245   1.662   3.842   7.048
 5896TIP3   OH239246   1.973   1.911   0.787
 5896TIP3    H139247   2.008   1.994   0.818
 5896TIP3    H239248   1.880   1.928   0.772
 5897TIP3   OH239249   4.418   6.548   1.237
 5897TIP3    H139250   4.387   6.495   1.164
 5897TIP3    H239251   4.369   6.514   1.313
 5898TIP3   OH239252   0.549   5.015   1.118
 5898TIP3    H139253   0.492   5.035   1.044
 5898TIP3    H239254   0.537   4.922   1.135
 5899TIP3   OH239255   0.746   3.647   6.224
 5899TIP3    H139256   0.767   3.741   6.224
 5899TIP3    H239257   0.682   3.638   6.295
 5900TIP3   OH239258   2.580   0.757   6.674
 5900TIP3    H139259   2.521   0.689   6.641
 5900TIP3    H239260   2.554   0.769   6.765
 5901TIP3   OH239261   4.911   1.518   7.475
 5901TIP3    H139262   4.845   1.529   7.544
 5901TIP3    H239263   4.864   1.537   7.394
 5902TIP3   OH239264   5.371   0.296   8.703
 5902TIP3    H139265   5.275   0.302   8.700
 5902TIP3    H239266   5.388   0.205   8.724
 5903TIP3   OH239267   3.860   3.485   8.510
 5903TIP3    H139268   3.798   3.514   8.444
 5903TIP3    H239269   3.870   3.391   8.494
 5904TIP3   OH239270   0.870   6.584   6.808
 5904TIP3    H139271   0.861   6.489   6.801
 5904TIP3    H239272   0.947   6.597   6.863
 5905TIP3   OH239273   2.892   5.569   7.895
 5905TIP3    H139274   2.970   5.551   7.843
 5905TIP3    H239275   2.925   5.595   7.981
 5906TIP3   OH239276   0.084   4.942   1.546
 5906TIP3    H139277   0.003   4.990   1.562
 5906TIP3    H239278   0.082   4.870   1.609
 5907TIP3   OH239279   6.228   5.261   1.377
 5907TIP3    H139280   6.268   5.309   1.304
 5907TIP3    H239281   6.250   5.169   1.360
 5908TIP3   OH239282   0.011   2.369   1.555
 5908TIP3    H139283   0.051   2.384   1.641
 5908TIP3    H239284   0.051   2.288   1.524
 5909TIP3   OH239285   0.678   5.666   8.283
 5909TIP3    H139286   0.620   5.742   8.274
 5909TIP3    H239287   0.711   5.672   8.373
 5910TIP3   OH239288   0.172   6.240   1.408
 5910TIP3    H139289   0.186   6.296   1.484
 5910TIP3    H239290   0.105   6.178   1.436
 5911TIP3   OH239291   4.829   5.127   8.684
 5911TIP3    H139292   4.876   5.179   8.618
 5911TIP3    H239293   4.831   5.037   8.649
 5912TIP3   OH239294   3.684   6.587   1.986
 5912TIP3    H139295   3.700   6.565   1.894
 5912TIP3    H239296   3.666   6.502   2.028
 5913TIP3   OH239297   1.533   4.998   0.344
 5913TIP3    H139298   1.557   5.048   0.422
 5913TIP3    H239299   1.591   5.032   0.275
 5914TIP3   OH239300   5.353   0.116   8.464
 5914TIP3    H139301   5.414   0.152   8.399
 5914TIP3    H239302   5.406   0.100   8.541
 5915TIP3   OH239303   6.250   1.950   8.065
 5915TIP3    H139304   6.236   2.017   8.132
 5915TIP3    H239305   6.168   1.949   8.015
 5916TIP3   OH239306   1.734   0.859   7.690
 5916TIP3    H139307   1.708   0.951   7.688
 5916TIP3    H239308   1.652   0.812   7.707
 5917TIP3   OH239309   4.482   3.840   1.075
 5917TIP3    H139310   4.509   3.856   0.985
 5917TIP3    H239311   4.510   3.918   1.123
 5918TIP3   OH239312   5.512   1.684   1.817
 5918TIP3    H139313   5.552   1.734   1.889
 5918TIP3    H239314   5.484   1.602   1.857
 5919TIP3   OH239315   1.380   0.164   7.495
 5919TIP3    H139316   1.284   0.158   7.490
 5919TIP3    H239317   1.410   0.078   7.464
 5920TIP3   OH239318   1.424   3.074   0.879
 5920TIP3    H139319   1.431   3.048   0.971
 5920TIP3    H239320   1.383   2.999   0.836
 5921TIP3   OH239321   4.745   1.986   2.162
 5921TIP3    H139322   4.785   1.988   2.249
 5921TIP3    H239323   4.674   1.921   2.169
 5922TIP3   OH239324   0.998   1.850   0.144
 5922TIP3    H139325   1.033   1.774   0.191
 5922TIP3    H239326   1.029   1.839   0.054
 5923TIP3   OH239327   0.292   1.716   0.879
 5923TIP3    H139328   0.214   1.738   0.827
 5923TIP3    H239329   0.272   1.630   0.916
 5924TIP3   OH239330   3.643   3.470   8.335
 5924TIP3    H139331   3.599   3.390   8.364
 5924TIP3    H239332   3.620   3.536   8.401
 5925TIP3   OH239333   1.059   5.595   8.352
 5925TIP3    H139334   0.977   5.596   8.401
 5925TIP3    H239335   1.117   5.540   8.405
 5926TIP3   OH239336   2.611   1.218   8.406
 5926TIP3    H139337   2.675   1.172   8.352
 5926TIP3    H239338   2.639   1.310   8.404
 5927TIP3   OH239339   0.445   6.087   8.009
 5927TIP3    H139340   0.532   6.059   7.983
 5927TIP3    H239341   0.457   6.127   8.095
 5928TIP3   OH239342   5.858   5.699   1.314
 5928TIP3    H139343   5.840   5.734   1.227
 5928TIP3    H239344   5.772   5.688   1.354
 5929TIP3   OH239345   4.050   4.330   0.238
 5929TIP3    H139346   4.011   4.395   0.181
 5929TIP3    H239347   4.056   4.373   0.323
 5930TIP3   OH239348   4.742   4.666   8.054
 5930TIP3    H139349   4.781   4.582   8.028
 5930TIP3    H239350   4.789   4.691   8.134
 5931TIP3   OH239351   3.897   4.330   8.238
 5931TIP3    H139352   3.886   4.343   8.332
 5931TIP3    H239353   3.977   4.277   8.230
 5932TIP3   OH239354   3.724   1.722   8.648
 5932TIP3    H139355   3.791   1.789   8.663
 5932TIP3    H239356   3.726   1.707   8.554
 5933TIP3   OH239357   3.270   6.383   2.079
 5933TIP3    H139358   3.250   6.437   2.003
 5933TIP3    H239359   3.327   6.314   2.045
 5934TIP3   OH239360   3.208   1.663   1.000
 5934TIP3    H139361   3.265   1.740   1.006
 5934TIP3    H239362   3.212   1.623   1.086
 5935TIP3   OH239363   4.179   1.080   1.462
 5935TIP3    H139364   4.092   1.071   1.423
 5935TIP3    H239365   4.172   1.157   1.518
 5936TIP3   OH239366   5.259   0.552   0.530
 5936TIP3    H139367   5.258   0.457   0.533
 5936TIP3    H239368   5.317   0.573   0.457
 5937TIP3   OH239369   3.546   5.598   0.706
 5937TIP3    H139370   3.563   5.630   0.795
 5937TIP3    H239371   3.503   5.672   0.662
 5938TIP3   OH239372   3.261   3.720   1.449
 5938TIP3    H139373   3.311   3.677   1.519
 5938TIP3    H239374   3.307   3.803   1.435
 5939TIP3   OH239375   6.046   4.829   1.233
 5939TIP3    H139376   6.095   4.825   1.315
 5939TIP3    H239377   6.077   4.908   1.190
 5940TIP3   OH239378   3.305   4.335   1.697
 5940TIP3    H139379   3.342   4.254   1.731
 5940TIP3    H239380   3.357   4.404   1.736
 5941TIP3   OH239381   5.612   1.186   7.309
 5941TIP3    H139382   5.637   1.112   7.364
 5941TIP3    H239383   5.517   1.176   7.296
 5942TIP3   OH239384   5.762   5.848   7.268
 5942TIP3    H139385   5.804   5.857   7.354
 5942TIP3    H239386   5.800   5.767   7.232
 5943TIP3   OH239387   6.543   6.693   1.076
 5943TIP3    H139388   6.548   6.720   0.984
 5943TIP3    H239389   6.634   6.694   1.106
 5944TIP3   OH239390   6.100   0.699   1.997
 5944TIP3    H139391   6.098   0.606   1.976
 5944TIP3    H239392   6.069   0.742   1.917
 5945TIP3   OH239393   2.690   6.639   7.240
 5945TIP3    H139394   2.620   6.694   7.205
 5945TIP3    H239395   2.648   6.590   7.311
 5946TIP3   OH239396   0.012   4.597   6.644
 5946TIP3    H139397   0.007   4.637   6.558
 5946TIP3    H239398   0.106   4.586   6.660
 5947TIP3   OH239399   6.250   4.636   0.364
 5947TIP3    H139400   6.219   4.613   0.276
 5947TIP3    H239401   6.343   4.613   0.364
 5948TIP3   OH239402   1.874   3.228   0.279
 5948TIP3    H139403   1.814   3.189   0.343
 5948TIP3    H239404   1.961   3.199   0.307
 5949TIP3   OH239405   4.890   5.368   0.391
 5949TIP3    H139406   4.937   5.344   0.311
 5949TIP3    H239407   4.801   5.386   0.363
 5950TIP3   OH239408   3.855   4.500   2.217
 5950TIP3    H139409   3.931   4.508   2.275
 5950TIP3    H239410   3.797   4.438   2.261
 5951TIP3   OH239411   5.748   6.769   8.488
 5951TIP3    H139412   5.749   6.710   8.564
 5951TIP3    H239413   5.707   0.029   8.521
 5952TIP3   OH239414   0.564   0.891   7.728
 5952TIP3    H139415   0.523   0.832   7.792
 5952TIP3    H239416   0.580   0.972   7.777
 5953TIP3   OH239417   4.570   1.616   2.147
 5953TIP3    H139418   4.521   1.688   2.188
 5953TIP3    H239419   4.537   1.613   2.057
 5954TIP3   OH239420   0.002   4.285   1.905
 5954TIP3    H139421   0.035   4.375   1.899
 5954TIP3    H239422   6.739   4.287   1.857
 5955TIP3   OH239423   4.177   4.520   1.599
 5955TIP3    H139424   4.214   4.586   1.657
 5955TIP3    H239425   4.090   4.502   1.636
 5956TIP3   OH239426   1.725   1.544   8.703
 5956TIP3    H139427   1.658   1.585   8.647
 5956TIP3    H239428   1.693   1.455   8.717
 5957TIP3   OH239429   0.232   4.200   8.305
 5957TIP3    H139430   0.257   4.261   8.235
 5957TIP3    H239431   0.305   4.202   8.366
 5958TIP3   OH239432   3.228   1.267   0.053
 5958TIP3    H139433   3.174   1.338   0.019
 5958TIP3    H239434   3.198   1.189   0.007
 5959TIP3   OH239435   3.161   6.307   6.866
 5959TIP3    H139436   3.176   6.226   6.914
 5959TIP3    H239437   3.215   6.299   6.788
 5960TIP3   OH239438   0.042   1.284   7.857
 5960TIP3    H139439   0.003   1.362   7.816
 5960TIP3    H239440   0.043   1.304   7.950
 5961TIP3   OH239441   3.604   5.102   8.720
 5961TIP3    H139442   3.643   5.125   0.004
 5961TIP3    H239443   3.581   5.010   8.729
 5962TIP3   OH239444   2.142   4.235   1.551
 5962TIP3    H139445   2.095   4.262   1.472
 5962TIP3    H239446   2.073   4.206   1.611
 5963TIP3   OH239447   3.453   3.168   8.458
 5963TIP3    H139448   3.492   3.199   8.539
 5963TIP3    H239449   3.369   3.129   8.485
 5964TIP3   OH239450   2.079   5.434   0.970
 5964TIP3    H139451   2.025   5.367   1.011
 5964TIP3    H239452   2.018   5.488   0.920
 5965TIP3   OH239453   2.228   1.436   0.445
 5965TIP3    H139454   2.282   1.408   0.371
 5965TIP3    H239455   2.289   1.483   0.502
 5966TIP3   OH239456   2.083   5.565   7.813
 5966TIP3    H139457   2.044   5.611   7.887
 5966TIP3    H239458   2.110   5.635   7.753
 5967TIP3   OH239459   0.230   1.178   1.526
 5967TIP3    H139460   0.182   1.095   1.523
 5967TIP3    H239461   0.320   1.152   1.546
 5968TIP3   OH239462   4.249   1.425   1.335
 5968TIP3    H139463   4.262   1.518   1.354
 5968TIP3    H239464   4.196   1.393   1.407
 5969TIP3   OH239465   2.735   1.959   1.031
 5969TIP3    H139466   2.737   2.052   1.053
 5969TIP3    H239467   2.676   1.953   0.956
 5970TIP3   OH239468   2.392   4.710   0.303
 5970TIP3    H139469   2.378   4.616   0.311
 5970TIP3    H239470   2.482   4.718   0.270
 5971TIP3   OH239471   2.587   0.526   6.976
 5971TIP3    H139472   2.633   0.608   6.996
 5971TIP3    H239473   2.553   0.496   7.060
 5972TIP3   OH239474   1.790   3.469   8.763
 5972TIP3    H139475   1.842   3.501   0.037
 5972TIP3    H239476   1.800   3.374   8.767
 5973TIP3   OH239477   5.985   3.771   8.509
 5973TIP3    H139478   5.959   3.725   8.429
 5973TIP3    H239479   5.941   3.855   8.504
 5974TIP3   OH239480   4.596   0.703   0.164
 5974TIP3    H139481   4.574   0.702   0.258
 5974TIP3    H239482   4.649   0.782   0.153
 5975TIP3   OH239483   2.006   0.333   8.212
 5975TIP3    H139484   2.019   0.250   8.166
 5975TIP3    H239485   2.091   0.378   8.205
 5976TIP3   OH239486   1.233   1.419   1.122
 5976TIP3    H139487   1.233   1.494   1.182
 5976TIP3    H239488   1.315   1.427   1.073
 5977TIP3   OH239489   4.696   2.019   6.404
 5977TIP3    H139490   4.764   2.005   6.469
 5977TIP3    H239491   4.614   2.010   6.452
 5978TIP3   OH239492   0.299   1.453   0.441
 5978TIP3    H139493   0.278   1.547   0.448
 5978TIP3    H239494   0.381   1.450   0.392
 5979TIP3   OH239495   3.412   5.873   8.117
 5979TIP3    H139496   3.418   5.945   8.180
 5979TIP3    H239497   3.334   5.824   8.146
 5980TIP3   OH239498   5.660   2.242   6.603
 5980TIP3    H139499   5.574   2.268   6.571
 5980TIP3    H239500   5.686   2.312   6.662
 5981TIP3   OH239501   3.193   3.544   7.678
 5981TIP3    H139502   3.287   3.560   7.682
 5981TIP3    H239503   3.165   3.587   7.597
 5982TIP3   OH239504   5.971   3.731   7.732
 5982TIP3    H139505   5.963   3.664   7.801
 5982TIP3    H239506   5.953   3.684   7.651
 5983TIP3   OH239507   1.110   5.491   7.564
 5983TIP3    H139508   1.078   5.547   7.635
 5983TIP3    H239509   1.201   5.517   7.552
 5984TIP3   OH239510   4.350   4.086   7.418
 5984TIP3    H139511   4.372   4.144   7.345
 5984TIP3    H239512   4.416   4.017   7.415
 5985TIP3   OH239513   4.460   5.197   7.773
 5985TIP3    H139514   4.458   5.283   7.816
 5985TIP3    H239515   4.525   5.147   7.823
 5986TIP3   OH239516   4.775   0.494   0.113
 5986TIP3    H139517   4.715   0.558   0.151
 5986TIP3    H239518   4.827   0.463   0.187
 5987TIP3   OH239519   1.280   3.825   7.956
 5987TIP3    H139520   1.199   3.875   7.970
 5987TIP3    H239521   1.251   3.737   7.934
 5988TIP3   OH239522   5.060   0.645   0.718
 5988TIP3    H139523   5.084   0.660   0.810
 5988TIP3    H239524   5.140   0.612   0.677
 5989TIP3   OH239525   2.972   4.068   1.269
 5989TIP3    H139526   2.946   4.152   1.233
 5989TIP3    H239527   2.997   4.015   1.193
 5990TIP3   OH239528   3.369   5.235   7.782
 5990TIP3    H139529   3.375   5.142   7.802
 5990TIP3    H239530   3.455   5.270   7.804
 5991TIP3   OH239531   2.805   1.785   8.523
 5991TIP3    H139532   2.819   1.761   8.431
 5991TIP3    H239533   2.742   1.720   8.556
 5992TIP3   OH239534   1.674   5.374   8.063
 5992TIP3    H139535   1.709   5.298   8.016
 5992TIP3    H239536   1.740   5.393   8.130
 5993TIP3   OH239537   3.030   4.014   0.944
 5993TIP3    H139538   2.947   4.005   0.897
 5993TIP3    H239539   3.064   4.099   0.915
 5994TIP3   OH239540   3.495   5.890   0.288
 5994TIP3    H139541   3.449   5.901   0.205
 5994TIP3    H239542   3.533   5.976   0.306
 5995TIP3   OH239543   2.234   1.239   1.366
 5995TIP3    H139544   2.277   1.223   1.282
 5995TIP3    H239545   2.147   1.200   1.356
 5996TIP3   OH239546   0.116   0.459   0.856
 5996TIP3    H139547   0.033   0.412   0.848
 5996TIP3    H239548   0.105   0.515   0.933
 5997TIP3   OH239549   5.761   3.397   8.584
 5997TIP3    H139550   5.820   3.376   8.512
 5997TIP3    H239551   5.704   3.465   8.550
 5998TIP3   OH239552   5.020   5.269   0.171
 5998TIP3    H139553   4.972   5.187   0.161
 5998TIP3    H239554   4.991   5.323   0.098
 5999TIP3   OH239555   0.560   2.292   8.475
 5999TIP3    H139556   0.582   2.269   8.385
 5999TIP3    H239557   0.471   2.259   8.486
 6000TIP3   OH239558   3.099   5.163   6.793
 6000TIP3    H139559   3.055   5.231   6.844
 6000TIP3    H239560   3.150   5.211   6.728
 6001TIP3   OH239561   0.525   0.215   0.159
 6001TIP3    H139562   0.482   0.301   0.160
 6001TIP3    H239563   0.525   0.189   0.067
 6002TIP3   OH239564   0.657   6.622   7.662
 6002TIP3    H139565   0.661   6.538   7.708
 6002TIP3    H239566   0.566   6.651   7.672
 6003TIP3   OH239567   2.719   1.949   7.659
 6003TIP3    H139568   2.813   1.951   7.640
 6003TIP3    H239569   2.693   2.040   7.662
 6004TIP3   OH239570   4.514   4.041   0.107
 6004TIP3    H139571   4.595   4.015   0.062
 6004TIP3    H239572   4.506   3.979   0.180
 6005TIP3   OH239573   0.399   3.359   0.458
 6005TIP3    H139574   0.430   3.286   0.405
 6005TIP3    H239575   0.405   3.326   0.548
 6006TIP3   OH239576   3.521   0.478   7.338
 6006TIP3    H139577   3.570   0.530   7.274
 6006TIP3    H239578   3.508   0.393   7.295
 6007TIP3   OH239579   4.737   3.285   7.808
 6007TIP3    H139580   4.796   3.328   7.746
 6007TIP3    H239581   4.694   3.357   7.854
 6008TIP3   OH239582   4.702   4.879   2.340
 6008TIP3    H139583   4.775   4.818   2.342
 6008TIP3    H239584   4.643   4.848   2.410
 6009TIP3   OH239585   1.162   3.832   1.259
 6009TIP3    H139586   1.126   3.800   1.177
 6009TIP3    H239587   1.094   3.892   1.293
 6010TIP3   OH239588   4.345   3.194   6.238
 6010TIP3    H139589   4.423   3.204   6.183
 6010TIP3    H239590   4.380   3.162   6.322
 6011TIP3   OH239591   0.698   0.151   8.208
 6011TIP3    H139592   0.793   0.156   8.217
 6011TIP3    H239593   0.682   0.065   8.169
 6012TIP3   OH239594   0.881   3.248   0.779
 6012TIP3    H139595   0.946   3.238   0.709
 6012TIP3    H239596   0.933   3.276   0.854
 6013TIP3   OH239597   0.313   2.119   8.534
 6013TIP3    H139598   0.383   2.054   8.530
 6013TIP3    H239599   0.235   2.072   8.505
 6014TIP3   OH239600   1.635   3.912   7.409
 6014TIP3    H139601   1.648   3.920   7.315
 6014TIP3    H239602   1.566   3.976   7.429
 6015TIP3   OH239603   3.709   3.815   8.782
 6015TIP3    H139604   3.801   3.794   0.002
 6015TIP3    H239605   3.661   3.788   0.061
 6016TIP3   OH239606   2.495   4.042   8.157
 6016TIP3    H139607   2.403   4.028   8.180
 6016TIP3    H239608   2.495   4.121   8.104
 6017TIP3   OH239609   1.579   1.390   1.141
 6017TIP3    H139610   1.531   1.456   1.091
 6017TIP3    H239611   1.634   1.441   1.200
 6018TIP3   OH239612   5.634   6.404   7.418
 6018TIP3    H139613   5.729   6.391   7.410
 6018TIP3    H239614   5.600   6.317   7.440
 6019TIP3   OH239615   1.172   2.347   6.050
 6019TIP3    H139616   1.158   2.436   6.082
 6019TIP3    H239617   1.201   2.298   6.127
 6020TIP3   OH239618   0.618   2.679   8.321
 6020TIP3    H139619   0.676   2.617   8.276
 6020TIP3    H239620   0.663   2.700   8.402
 6021TIP3   OH239621   0.828   1.936   1.352
 6021TIP3    H139622   0.752   1.977   1.310
 6021TIP3    H239623   0.902   1.964   1.299
 6022TIP3   OH239624   2.092   5.984   0.747
 6022TIP3    H139625   2.164   5.935   0.786
 6022TIP3    H239626   2.026   5.990   0.816
 6023TIP3   OH239627   4.030   4.634   7.006
 6023TIP3    H139628   4.083   4.593   6.938
 6023TIP3    H239629   4.053   4.586   7.086
 6024TIP3   OH239630   3.112   6.030   6.902
 6024TIP3    H139631   3.116   5.936   6.921
 6024TIP3    H239632   3.042   6.039   6.838
 6025TIP3   OH239633   3.198   3.224   8.647
 6025TIP3    H139634   3.199   3.315   8.617
 6025TIP3    H239635   3.131   3.182   8.593
 6026TIP3   OH239636   4.556   4.784   7.796
 6026TIP3    H139637   4.469   4.804   7.762
 6026TIP3    H239638   4.614   4.794   7.721
 6027TIP3   OH239639   5.962   1.025   0.183
 6027TIP3    H139640   6.029   1.012   0.116
 6027TIP3    H239641   5.886   0.977   0.150
 6028TIP3   OH239642   4.133   0.308   1.101
 6028TIP3    H139643   4.216   0.355   1.101
 6028TIP3    H239644   4.156   0.221   1.135
 6029TIP3   OH239645   5.302   0.598   7.870
 6029TIP3    H139646   5.314   0.683   7.911
 6029TIP3    H239647   5.225   0.561   7.914
 6030TIP3   OH239648   1.101   1.649   1.747
 6030TIP3    H139649   1.138   1.728   1.706
 6030TIP3    H239650   1.143   1.645   1.833
 6031TIP3   OH239651   5.619   1.774   6.730
 6031TIP3    H139652   5.552   1.834   6.698
 6031TIP3    H239653   5.678   1.829   6.781
 6032TIP3   OH239654   5.826   4.621   0.953
 6032TIP3    H139655   5.841   4.681   1.026
 6032TIP3    H239656   5.885   4.651   0.885
 6033TIP3   OH239657   6.805   3.466   7.574
 6033TIP3    H139658   6.769   3.378   7.566
 6033TIP3    H239659   0.025   3.484   7.489
 6034TIP3   OH239660   3.404   5.113   6.952
 6034TIP3    H139661   3.314   5.084   6.940
 6034TIP3    H239662   3.419   5.176   6.881
 6035TIP3   OH239663   4.154   5.037   1.669
 6035TIP3    H139664   4.111   4.964   1.624
 6035TIP3    H239665   4.215   4.995   1.730
 6036TIP3   OH239666   2.910   5.657   0.735
 6036TIP3    H139667   2.863   5.739   0.743
 6036TIP3    H239668   2.906   5.635   0.641
 6037TIP3   OH239669   3.870   4.387   1.387
 6037TIP3    H139670   3.822   4.435   1.455
 6037TIP3    H239671   3.928   4.328   1.436
 6038TIP3   OH239672   2.803   0.607   2.075
 6038TIP3    H139673   2.838   0.524   2.043
 6038TIP3    H239674   2.880   0.656   2.103
 6039TIP3   OH239675   4.976   0.568   1.887
 6039TIP3    H139676   4.897   0.602   1.844
 6039TIP3    H239677   4.948   0.484   1.924
 6040TIP3   OH239678   2.941   0.434   8.104
 6040TIP3    H139679   2.927   0.398   8.016
 6040TIP3    H239680   3.022   0.393   8.134
 6041TIP3   OH239681   2.785   6.012   7.113
 6041TIP3    H139682   2.748   5.953   7.047
 6041TIP3    H239683   2.801   6.094   7.067
 6042TIP3   OH239684   4.989   1.727   7.916
 6042TIP3    H139685   4.925   1.797   7.905
 6042TIP3    H239686   5.063   1.753   7.861
 6043TIP3   OH239687   0.363   6.278   1.668
 6043TIP3    H139688   0.359   6.264   1.763
 6043TIP3    H239689   0.293   6.341   1.651
 6044TIP3   OH239690   1.599   3.255   1.096
 6044TIP3    H139691   1.546   3.214   1.164
 6044TIP3    H239692   1.616   3.184   1.033
 6045TIP3   OH239693   0.335   1.709   7.064
 6045TIP3    H139694   0.407   1.740   7.009
 6045TIP3    H239695   0.264   1.691   7.003
 6046TIP3   OH239696   5.185   4.455   1.053
 6046TIP3    H139697   5.217   4.424   0.968
 6046TIP3    H239698   5.209   4.548   1.055
 6047TIP3   OH239699   4.832   3.881   7.724
 6047TIP3    H139700   4.814   3.797   7.682
 6047TIP3    H239701   4.746   3.923   7.733
 6048TIP3   OH239702   5.815   4.863   8.768
 6048TIP3    H139703   5.815   4.957   8.782
 6048TIP3    H239704   5.793   4.827   0.054
 6049TIP3   OH239705   3.022   1.038   8.324
 6049TIP3    H139706   3.085   1.020   8.393
 6049TIP3    H239707   3.033   0.965   8.263
 6050TIP3   OH239708   0.747   4.555   1.337
 6050TIP3    H139709   0.803   4.633   1.339
 6050TIP3    H239710   0.690   4.563   1.413
 6051TIP3   OH239711   3.085   4.803   8.775
 6051TIP3    H139712   3.090   4.778   0.067
 6051TIP3    H239713   3.098   4.722   8.727
 6052TIP3   OH239714   1.040   1.889   1.169
 6052TIP3    H139715   1.097   1.922   1.239
 6052TIP3    H239716   1.050   1.953   1.098
 6053TIP3   OH239717   5.930   0.116   6.488
 6053TIP3    H139718   5.916   0.025   6.460
 6053TIP3    H239719   6.009   0.113   6.541
 6054TIP3   OH239720   3.915   3.820   7.114
 6054TIP3    H139721   3.981   3.875   7.073
 6054TIP3    H239722   3.916   3.739   7.064
 6055TIP3   OH239723   1.596   2.968   0.236
 6055TIP3    H139724   1.528   2.914   0.276
 6055TIP3    H239725   1.549   3.029   0.179
 6056TIP3   OH239726   5.561   5.083   7.187
 6056TIP3    H139727   5.647   5.076   7.229
 6056TIP3    H239728   5.579   5.132   7.106
 6057TIP3   OH239729   1.657   1.050   0.465
 6057TIP3    H139730   1.603   1.006   0.399
 6057TIP3    H239731   1.646   1.143   0.446
 6058TIP3   OH239732   4.760   0.487   1.010
 6058TIP3    H139733   4.786   0.544   0.938
 6058TIP3    H239734   4.703   0.541   1.065
 6059TIP3   OH239735   0.749   2.932   0.139
 6059TIP3    H139736   0.823   2.993   0.138
 6059TIP3    H239737   0.752   2.893   0.226
 6060TIP3   OH239738   3.640   6.774   8.411
 6060TIP3    H139739   3.555   6.782   8.368
 6060TIP3    H239740   3.691   0.027   8.377
 6061TIP3   OH239741   3.991   4.397   6.563
 6061TIP3    H139742   4.055   4.395   6.491
 6061TIP3    H239743   4.034   4.349   6.634
 6062TIP3   OH239744   1.540   4.099   0.956
 6062TIP3    H139745   1.451   4.084   0.990
 6062TIP3    H239746   1.569   4.178   1.001
 6063TIP3   OH239747   5.184   0.455   0.926
 6063TIP3    H139748   5.124   0.385   0.900
 6063TIP3    H239749   5.131   0.515   0.978
 6064TIP3   OH239750   3.064   6.662   6.227
 6064TIP3    H139751   3.111   6.746   6.227
 6064TIP3    H239752   3.123   6.602   6.181
 6065TIP3   OH239753   4.149   3.089   2.072
 6065TIP3    H139754   4.242   3.069   2.067
 6065TIP3    H239755   4.139   3.171   2.023
 6066TIP3   OH239756   6.673   5.128   6.759
 6066TIP3    H139757   6.639   5.216   6.775
 6066TIP3    H239758   6.615   5.071   6.808
 6067TIP3   OH239759   0.738   5.025   7.521
 6067TIP3    H139760   0.746   5.003   7.428
 6067TIP3    H239761   0.739   5.121   7.523
 6068TIP3   OH239762   2.938   5.580   7.530
 6068TIP3    H139763   2.906   5.670   7.536
 6068TIP3    H239764   2.916   5.553   7.441
 6069TIP3   OH239765   3.264   3.763   6.491
 6069TIP3    H139766   3.345   3.813   6.476
 6069TIP3    H239767   3.294   3.679   6.525
 6070TIP3   OH239768   4.770   4.084   0.303
 6070TIP3    H139769   4.758   4.006   0.357
 6070TIP3    H239770   4.757   4.053   0.213
 6071TIP3   OH239771   3.906   1.581   1.831
 6071TIP3    H139772   3.925   1.608   1.741
 6071TIP3    H239773   3.850   1.504   1.822
 6072TIP3   OH239774   3.345   4.824   1.225
 6072TIP3    H139775   3.390   4.741   1.240
 6072TIP3    H239776   3.341   4.832   1.129
 6073TIP3   OH239777   1.872   6.591   8.153
 6073TIP3    H139778   1.946   6.549   8.196
 6073TIP3    H239779   1.868   6.679   8.191
 6074TIP3   OH239780   6.678   4.416   1.307
 6074TIP3    H139781   6.643   4.482   1.366
 6074TIP3    H239782   6.716   4.466   1.234
 6075TIP3   OH239783   6.409   2.579   7.393
 6075TIP3    H139784   6.484   2.563   7.336
 6075TIP3    H239785   6.350   2.505   7.376
 6076TIP3   OH239786   5.105   1.046   0.663
 6076TIP3    H139787   5.195   1.036   0.632
 6076TIP3    H239788   5.092   0.974   0.724
 6077TIP3   OH239789   5.349   5.006   8.381
 6077TIP3    H139790   5.361   5.068   8.310
 6077TIP3    H239791   5.260   4.972   8.369
 6078TIP3   OH239792   6.424   4.762   1.194
 6078TIP3    H139793   6.380   4.677   1.197
 6078TIP3    H239794   6.469   4.762   1.109
 6079TIP3   OH239795   1.287   0.943   7.466
 6079TIP3    H139796   1.218   0.917   7.527
 6079TIP3    H239797   1.283   1.038   7.463
 6080TIP3   OH239798   6.328   1.715   1.075
 6080TIP3    H139799   6.338   1.626   1.106
 6080TIP3    H239800   6.410   1.759   1.099
 6081TIP3   OH239801   2.839   5.979   1.088
 6081TIP3    H139802   2.796   6.021   1.013
 6081TIP3    H239803   2.793   5.895   1.098
 6082TIP3   OH239804   5.319   2.652   0.690
 6082TIP3    H139805   5.250   2.688   0.746
 6082TIP3    H239806   5.391   2.633   0.750
 6083TIP3   OH239807   5.884   2.024   2.024
 6083TIP3    H139808   5.805   2.055   1.980
 6083TIP3    H239809   5.875   2.055   2.114
 6084TIP3   OH239810   5.163   6.814   0.389
 6084TIP3    H139811   5.167   6.759   0.311
 6084TIP3    H239812   5.247   0.040   0.391
 6085TIP3   OH239813   4.909   0.382   8.322
 6085TIP3    H139814   4.974   0.326   8.363
 6085TIP3    H239815   4.926   0.374   8.228
 6086TIP3   OH239816   4.874   2.433   8.627
 6086TIP3    H139817   4.954   2.481   8.603
 6086TIP3    H239818   4.816   2.445   8.552
 6087TIP3   OH239819   2.116   3.883   7.533
 6087TIP3    H139820   2.057   3.885   7.608
 6087TIP3    H239821   2.202   3.862   7.570
 6088TIP3   OH239822   2.393   1.058   8.424
 6088TIP3    H139823   2.452   1.120   8.467
 6088TIP3    H239824   2.428   1.050   8.335
 6089TIP3   OH239825   5.860   1.338   8.714
 6089TIP3    H139826   5.785   1.387   8.748
 6089TIP3    H239827   5.821   1.266   8.664
 6090TIP3   OH239828   4.704   4.171   6.843
 6090TIP3    H139829   4.773   4.175   6.909
 6090TIP3    H239830   4.629   4.213   6.884
 6091TIP3   OH239831   1.279   5.994   7.247
 6091TIP3    H139832   1.278   6.090   7.251
 6091TIP3    H239833   1.295   5.974   7.155
 6092TIP3   OH239834   1.761   3.989   6.929
 6092TIP3    H139835   1.851   3.975   6.958
 6092TIP3    H239836   1.757   3.949   6.842
 6093TIP3   OH239837   2.362   0.633   8.250
 6093TIP3    H139838   2.309   0.603   8.324
 6093TIP3    H239839   2.306   0.696   8.204
 6094TIP3   OH239840   0.139   6.210   0.511
 6094TIP3    H139841   0.052   6.245   0.530
 6094TIP3    H239842   0.191   6.285   0.483
 6095TIP3   OH239843   1.439   1.042   0.654
 6095TIP3    H139844   1.524   1.006   0.626
 6095TIP3    H239845   1.400   0.971   0.705
 6096TIP3   OH239846   2.580   1.623   0.351
 6096TIP3    H139847   2.503   1.650   0.301
 6096TIP3    H239848   2.548   1.611   0.440
 6097TIP3   OH239849   5.095   3.370   6.786
 6097TIP3    H139850   5.155   3.428   6.738
 6097TIP3    H239851   5.011   3.380   6.741
 6098TIP3   OH239852   0.346   4.075   1.300
 6098TIP3    H139853   0.422   4.018   1.316
 6098TIP3    H239854   0.305   4.083   1.386
 6099TIP3   OH239855   0.313   4.526   1.035
 6099TIP3    H139856   0.276   4.592   0.977
 6099TIP3    H239857   0.377   4.480   0.981
 6100TIP3   OH239858   5.807   5.173   7.276
 6100TIP3    H139859   5.862   5.165   7.354
 6100TIP3    H239860   5.764   5.258   7.286
 6101TIP3   OH239861   3.196   4.798   6.332
 6101TIP3    H139862   3.164   4.752   6.410
 6101TIP3    H239863   3.239   4.730   6.280
 6102TIP3   OH239864   3.865   2.034   6.809
 6102TIP3    H139865   3.813   1.954   6.802
 6102TIP3    H239866   3.956   2.005   6.809
 6103TIP3   OH239867   4.190   5.670   8.654
 6103TIP3    H139868   4.167   5.680   8.747
 6103TIP3    H239869   4.240   5.589   8.650
 6104TIP3   OH239870   4.052   5.149   1.034
 6104TIP3    H139871   4.097   5.229   1.063
 6104TIP3    H239872   3.976   5.142   1.093
 6105TIP3   OH239873   0.054   6.781   7.810
 6105TIP3    H139874   6.802   0.009   7.851
 6105TIP3    H239875   0.133   0.007   7.837
 6106TIP3   OH239876   6.640   2.639   6.857
 6106TIP3    H139877   6.710   2.595   6.808
 6106TIP3    H239878   6.576   2.570   6.873
 6107TIP3   OH239879   4.061   2.331   1.868
 6107TIP3    H139880   4.138   2.279   1.891
 6107TIP3    H239881   4.047   2.387   1.945
 6108TIP3   OH239882   0.574   3.371   7.616
 6108TIP3    H139883   0.554   3.459   7.648
 6108TIP3    H239884   0.621   3.385   7.534
 6109TIP3   OH239885   5.690   6.346   8.599
 6109TIP3    H139886   5.722   6.256   8.604
 6109TIP3    H239887   5.668   6.358   8.507
 6110TIP3   OH239888   5.365   0.627   1.161
 6110TIP3    H139889   5.341   0.535   1.147
 6110TIP3    H239890   5.287   0.666   1.199
 6111TIP3   OH239891   6.489   6.150   7.359
 6111TIP3    H139892   6.438   6.173   7.437
 6111TIP3    H239893   6.465   6.216   7.294
 6112TIP3   OH239894   4.615   0.710   7.651
 6112TIP3    H139895   4.649   0.623   7.627
 6112TIP3    H239896   4.680   0.771   7.617
 6113TIP3   OH239897   2.891   2.735   1.923
 6113TIP3    H139898   2.972   2.722   1.972
 6113TIP3    H239899   2.824   2.746   1.990
 6114TIP3   OH239900   0.971   3.084   0.186
 6114TIP3    H139901   1.000   3.173   0.205
 6114TIP3    H239902   1.050   3.040   0.153
 6115TIP3   OH239903   1.286   3.193   1.535
 6115TIP3    H139904   1.297   3.277   1.491
 6115TIP3    H239905   1.200   3.199   1.577
 6116TIP3   OH239906   3.938   3.362   1.518
 6116TIP3    H139907   3.957   3.450   1.549
 6116TIP3    H239908   4.009   3.308   1.553
 6117TIP3   OH239909   3.647   1.389   0.266
 6117TIP3    H139910   3.622   1.465   0.213
 6117TIP3    H239911   3.565   1.344   0.285
 6118TIP3   OH239912   6.412   3.979   1.303
 6118TIP3    H139913   6.328   4.012   1.270
 6118TIP3    H239914   6.437   3.911   1.242
 6119TIP3   OH239915   0.212   2.857   8.412
 6119TIP3    H139916   0.272   2.929   8.393
 6119TIP3    H239917   0.137   2.898   8.456
 6120TIP3   OH239918   2.296   2.651   7.631
 6120TIP3    H139919   2.285   2.738   7.592
 6120TIP3    H239920   2.212   2.633   7.673
 6121TIP3   OH239921   0.189   3.222   0.692
 6121TIP3    H139922   0.188   3.315   0.714
 6121TIP3    H239923   0.108   3.187   0.730
 6122TIP3   OH239924   6.308   0.652   8.281
 6122TIP3    H139925   6.348   0.579   8.233
 6122TIP3    H239926   6.379   0.687   8.334
 6123TIP3   OH239927   4.930   4.681   8.295
 6123TIP3    H139928   4.980   4.623   8.237
 6123TIP3    H239929   4.931   4.637   8.380
 6124TIP3   OH239930   1.242   5.195   6.971
 6124TIP3    H139931   1.319   5.161   7.017
 6124TIP3    H239932   1.179   5.123   6.974
 6125TIP3   OH239933   3.502   2.696   1.568
 6125TIP3    H139934   3.463   2.709   1.654
 6125TIP3    H239935   3.515   2.784   1.533
 6126TIP3   OH239936   5.754   2.898   7.717
 6126TIP3    H139937   5.795   2.816   7.744
 6126TIP3    H239938   5.816   2.935   7.654
 6127TIP3   OH239939   1.305   1.473   0.304
 6127TIP3    H139940   1.256   1.391   0.298
 6127TIP3    H239941   1.365   1.470   0.229
 6128TIP3   OH239942   2.807   6.602   0.507
 6128TIP3    H139943   2.864   6.528   0.529
 6128TIP3    H239944   2.723   6.579   0.545
 6129TIP3   OH239945   5.893   5.592   7.183
 6129TIP3    H139946   5.942   5.621   7.106
 6129TIP3    H239947   5.956   5.599   7.255
 6130TIP3   OH239948   5.878   2.428   8.162
 6130TIP3    H139949   5.803   2.487   8.163
 6130TIP3    H239950   5.926   2.449   8.242
 6131TIP3   OH239951   2.148   1.157   8.416
 6131TIP3    H139952   2.236   1.125   8.399
 6131TIP3    H239953   2.103   1.083   8.456
 6132TIP3   OH239954   3.547   0.544   1.268
 6132TIP3    H139955   3.518   0.596   1.193
 6132TIP3    H239956   3.539   0.453   1.238
 6133TIP3   OH239957   5.644   1.803   2.023
 6133TIP3    H139958   5.619   1.734   2.085
 6133TIP3    H239959   5.679   1.873   2.078
 6134TIP3   OH239960   4.338   2.406   1.534
 6134TIP3    H139961   4.354   2.406   1.629
 6134TIP3    H239962   4.388   2.331   1.502
 6135TIP3   OH239963   6.304   5.231   7.196
 6135TIP3    H139964   6.337   5.199   7.280
 6135TIP3    H239965   6.212   5.252   7.213
 6136TIP3   OH239966   5.088   1.214   7.957
 6136TIP3    H139967   5.095   1.309   7.945
 6136TIP3    H239968   5.059   1.203   8.047
 6137TIP3   OH239969   4.674   2.884   6.642
 6137TIP3    H139970   4.588   2.849   6.666
 6137TIP3    H239971   4.672   2.975   6.673
 6138TIP3   OH239972   4.273   5.547   8.019
 6138TIP3    H139973   4.330   5.619   8.048
 6138TIP3    H239974   4.322   5.505   7.948
 6139TIP3   OH239975   2.076   6.540   1.307
 6139TIP3    H139976   2.060   6.484   1.231
 6139TIP3    H239977   2.076   6.629   1.273
 6140TIP3   OH239978   4.350   3.817   1.947
 6140TIP3    H139979   4.349   3.904   1.987
 6140TIP3    H239980   4.294   3.764   2.003
 6141TIP3   OH239981   3.330   5.642   1.464
 6141TIP3    H139982   3.425   5.651   1.463
 6141TIP3    H239983   3.307   5.614   1.376
 6142TIP3   OH239984   1.096   3.770   6.450
 6142TIP3    H139985   1.107   3.864   6.465
 6142TIP3    H239986   1.058   3.765   6.362
 6143TIP3   OH239987   4.524   3.454   7.052
 6143TIP3    H139988   4.606   3.447   7.002
 6143TIP3    H239989   4.551   3.466   7.142
 6144TIP3   OH239990   0.177   6.283   6.739
 6144TIP3    H139991   0.128   6.304   6.819
 6144TIP3    H239992   0.112   6.241   6.682
 6145TIP3   OH239993   6.303   3.640   6.462
 6145TIP3    H139994   6.397   3.652   6.475
 6145TIP3    H239995   6.267   3.729   6.470
 6146TIP3   OH239996   2.713   6.098   0.897
 6146TIP3    H139997   2.715   6.036   0.824
 6146TIP3    H239998   2.631   6.146   0.886
 6147TIP3   OH239999   0.771   4.770   8.074
 6147TIP3    H140000   0.826   4.840   8.037
 6147TIP3    H240001   0.832   4.698   8.090
 6148TIP3   OH240002   2.568   1.198   7.294
 6148TIP3    H140003   2.505   1.131   7.269
 6148TIP3    H240004   2.594   1.239   7.211
 6149TIP3   OH240005   6.185   3.350   1.383
 6149TIP3    H140006   6.185   3.439   1.420
 6149TIP3    H240007   6.116   3.352   1.317
 6150TIP3   OH240008   1.233   2.983   1.104
 6150TIP3    H140009   1.148   2.965   1.145
 6150TIP3    H240010   1.266   2.897   1.079
 6151TIP3   OH240011   2.963   5.773   6.286
 6151TIP3    H140012   2.989   5.840   6.223
 6151TIP3    H240013   3.007   5.693   6.256
 6152TIP3   OH240014   2.843   4.033   7.176
 6152TIP3    H140015   2.829   4.021   7.082
 6152TIP3    H240016   2.825   3.947   7.214
 6153TIP3   OH240017   0.742   5.221   8.622
 6153TIP3    H140018   0.796   5.185   8.552
 6153TIP3    H240019   0.654   5.187   8.604
 6154TIP3   OH240020   0.578   1.161   7.561
 6154TIP3    H140021   0.507   1.220   7.537
 6154TIP3    H240022   0.570   1.088   7.500
 6155TIP3   OH240023   4.192   4.509   8.477
 6155TIP3    H140024   4.204   4.566   8.553
 6155TIP3    H240025   4.279   4.500   8.439
 6156TIP3   OH240026   3.008   1.108   0.820
 6156TIP3    H140027   3.028   1.182   0.764
 6156TIP3    H240028   2.982   1.147   0.904
 6157TIP3   OH240029   3.015   1.319   0.669
 6157TIP3    H140030   3.052   1.363   0.746
 6157TIP3    H240031   3.031   1.380   0.597
 6158TIP3   OH240032   2.329   0.635   7.865
 6158TIP3    H140033   2.411   0.675   7.836
 6158TIP3    H240034   2.293   0.697   7.928
 6159TIP3   OH240035   2.023   1.431   8.369
 6159TIP3    H140036   2.011   1.463   8.458
 6159TIP3    H240037   2.084   1.358   8.378
 6160TIP3   OH240038   1.751   1.600   1.260
 6160TIP3    H140039   1.837   1.636   1.236
 6160TIP3    H240040   1.756   1.587   1.355
 6161TIP3   OH240041   0.259   2.779   1.058
 6161TIP3    H140042   0.319   2.719   1.103
 6161TIP3    H240043   0.258   2.749   0.967
 6162TIP3   OH240044   6.510   2.012   1.192
 6162TIP3    H140045   6.572   2.081   1.169
 6162TIP3    H240046   6.427   2.057   1.206
 6163TIP3   OH240047   6.560   3.719   8.174
 6163TIP3    H140048   6.508   3.753   8.247
 6163TIP3    H240049   6.644   3.695   8.213
 6164TIP3   OH240050   2.029   5.646   8.293
 6164TIP3    H140051   2.014   5.724   8.347
 6164TIP3    H240052   2.115   5.614   8.321
 6165TIP3   OH240053   0.196   3.752   8.274
 6165TIP3    H140054   0.107   3.728   8.250
 6165TIP3    H240055   0.251   3.697   8.216
 6166TIP3   OH240056   4.730   0.473   0.584
 6166TIP3    H140057   4.812   0.423   0.591
 6166TIP3    H240058   4.669   0.412   0.542
 6167TIP3   OH240059   6.345   5.506   7.202
 6167TIP3    H140060   6.290   5.428   7.194
 6167TIP3    H240061   6.426   5.484   7.155
 6168TIP3   OH240062   2.400   4.195   7.869
 6168TIP3    H140063   2.470   4.139   7.836
 6168TIP3    H240064   2.445   4.259   7.925
 6169TIP3   OH240065   2.622   3.193   2.279
 6169TIP3    H140066   2.703   3.142   2.283
 6169TIP3    H240067   2.624   3.234   2.193
 6170TIP3   OH240068   0.549   3.018   7.985
 6170TIP3    H140069   0.557   3.001   8.079
 6170TIP3    H240070   0.623   3.075   7.965
 6171TIP3   OH240071   1.996   1.559   2.037
 6171TIP3    H140072   2.055   1.576   2.110
 6171TIP3    H240073   1.919   1.612   2.055
 6172TIP3   OH240074   6.400   6.266   2.292
 6172TIP3    H140075   6.471   6.251   2.355
 6172TIP3    H240076   6.412   6.198   2.225
 6173TIP3   OH240077   3.277   5.653   2.351
 6173TIP3    H140078   3.258   5.725   2.411
 6173TIP3    H240079   3.363   5.621   2.379
 6174TIP3   OH240080   1.481   4.648   8.400
 6174TIP3    H140081   1.395   4.667   8.364
 6174TIP3    H240082   1.463   4.602   8.482
 6175TIP3   OH240083   2.380   6.704   8.195
 6175TIP3    H140084   2.446   6.641   8.222
 6175TIP3    H240085   2.327   6.657   8.131
 6176TIP3   OH240086   3.875   6.630   7.811
 6176TIP3    H140087   3.813   6.564   7.782
 6176TIP3    H240088   3.821   6.697   7.852
 6177TIP3   OH240089   5.423   4.997   8.029
 6177TIP3    H140090   5.493   5.052   8.064
 6177TIP3    H240091   5.397   5.040   7.948
 6178TIP3   OH240092   2.614   2.835   6.557
 6178TIP3    H140093   2.690   2.882   6.590
 6178TIP3    H240094   2.544   2.900   6.554
 6179TIP3   OH240095   5.722   4.194   1.351
 6179TIP3    H140096   5.796   4.195   1.291
 6179TIP3    H240097   5.760   4.172   1.436
 6180TIP3   OH240098   4.266   0.476   7.562
 6180TIP3    H140099   4.229   0.392   7.537
 6180TIP3    H240100   4.285   0.467   7.655
 6181TIP3   OH240101   0.836   0.639   6.621
 6181TIP3    H140102   0.879   0.655   6.537
 6181TIP3    H240103   0.743   0.633   6.601
 6182TIP3   OH240104   1.149   1.101   0.828
 6182TIP3    H140105   1.107   1.149   0.757
 6182TIP3    H240106   1.230   1.150   0.845
 6183TIP3   OH240107   5.330   5.027   1.642
 6183TIP3    H140108   5.332   4.939   1.680
 6183TIP3    H240109   5.287   5.015   1.557
 6184TIP3   OH240110   0.205   0.174   7.549
 6184TIP3    H140111   0.152   0.252   7.532
 6184TIP3    H240112   0.256   0.197   7.626
 6185TIP3   OH240113   4.589   2.300   1.074
 6185TIP3    H140114   4.663   2.307   1.136
 6185TIP3    H240115   4.630   2.271   0.992
 6186TIP3   OH240116   4.641   3.169   7.066
 6186TIP3    H140117   4.595   3.190   7.147
 6186TIP3    H240118   4.727   3.211   7.076
 6187TIP3   OH240119   3.404   0.199   1.443
 6187TIP3    H140120   3.449   0.275   1.480
 6187TIP3    H240121   3.418   0.130   1.508
 6188TIP3   OH240122   0.774   4.783   8.683
 6188TIP3    H140123   0.847   4.794   8.743
 6188TIP3    H240124   0.810   4.802   8.597
 6189TIP3   OH240125   0.975   6.803   0.395
 6189TIP3    H140126   0.946   0.013   0.309
 6189TIP3    H240127   1.070   6.801   0.389
 6190TIP3   OH240128   0.909   3.577   6.920
 6190TIP3    H140129   0.884   3.648   6.979
 6190TIP3    H240130   0.969   3.523   6.972
 6191TIP3   OH240131   0.454   5.330   0.134
 6191TIP3    H140132   0.523   5.396   0.121
 6191TIP3    H240133   0.485   5.278   0.208
 6192TIP3   OH240134   3.929   0.977   7.643
 6192TIP3    H140135   3.849   1.030   7.641
 6192TIP3    H240136   3.900   0.890   7.670
 6193TIP3   OH240137   0.789   3.423   0.463
 6193TIP3    H140138   0.851   3.471   0.518
 6193TIP3    H240139   0.829   3.336   0.452
 6194TIP3   OH240140   5.925   1.421   0.993
 6194TIP3    H140141   5.859   1.463   1.049
 6194TIP3    H240142   5.888   1.335   0.973
 6195TIP3   OH240143   4.487   4.800   0.933
 6195TIP3    H140144   4.567   4.826   0.888
 6195TIP3    H240145   4.510   4.802   1.026
 6196TIP3   OH240146   1.126   3.535   7.118
 6196TIP3    H140147   1.160   3.592   7.188
 6196TIP3    H240148   1.157   3.576   7.037
 6197TIP3   OH240149   0.328   0.061   0.767
 6197TIP3    H140150   0.305   0.114   0.691
 6197TIP3    H240151   0.338   0.123   0.838
 6198TIP3   OH240152   6.526   3.825   1.114
 6198TIP3    H140153   6.573   3.749   1.079
 6198TIP3    H240154   6.559   3.899   1.063
 6199TIP3   OH240155   3.832   1.672   8.159
 6199TIP3    H140156   3.880   1.753   8.142
 6199TIP3    H240157   3.891   1.603   8.127
 6200TIP3   OH240158   3.075   0.068   0.505
 6200TIP3    H140159   2.981   0.057   0.520
 6200TIP3    H240160   3.098   0.147   0.554
 6201TIP3   OH240161   2.797   1.627   7.639
 6201TIP3    H140162   2.718   1.669   7.605
 6201TIP3    H240163   2.868   1.660   7.584
 6202TIP3   OH240164   5.976   5.945   7.055
 6202TIP3    H140165   5.968   6.004   6.980
 6202TIP3    H240166   5.892   5.953   7.100
 6203TIP3   OH240167   2.731   3.669   6.489
 6203TIP3    H140168   2.772   3.584   6.506
 6203TIP3    H240169   2.673   3.684   6.563
 6204TIP3   OH240170   3.452   3.401   1.899
 6204TIP3    H140171   3.470   3.489   1.933
 6204TIP3    H240172   3.391   3.416   1.826
 6205TIP3   OH240173   4.104   0.286   7.079
 6205TIP3    H140174   4.047   0.362   7.081
 6205TIP3    H240175   4.094   0.250   6.991
 6206TIP3   OH240176   3.594   1.493   2.043
 6206TIP3    H140177   3.623   1.477   2.133
 6206TIP3    H240178   3.627   1.579   2.021
 6207TIP3   OH240179   1.779   1.863   2.140
 6207TIP3    H140180   1.761   1.919   2.215
 6207TIP3    H240181   1.811   1.923   2.073
 6208TIP3   OH240182   1.110   0.448   0.249
 6208TIP3    H140183   1.205   0.453   0.240
 6208TIP3    H240184   1.096   0.399   0.330
 6209TIP3   OH240185   3.416   5.281   7.232
 6209TIP3    H140186   3.443   5.202   7.185
 6209TIP3    H240187   3.322   5.269   7.245
 6210TIP3   OH240188   5.778   5.661   6.406
 6210TIP3    H140189   5.863   5.643   6.365
 6210TIP3    H240190   5.760   5.753   6.384
 6211TIP3   OH240191   0.738   0.590   1.699
 6211TIP3    H140192   0.814   0.647   1.698
 6211TIP3    H240193   0.765   0.512   1.651
 6212TIP3   OH240194   5.235   6.048   0.330
 6212TIP3    H140195   5.224   6.006   0.415
 6212TIP3    H240196   5.326   6.077   0.329
 6213TIP3   OH240197   6.452   2.298   0.488
 6213TIP3    H140198   6.431   2.383   0.449
 6213TIP3    H240199   6.534   2.314   0.536
 6214TIP3   OH240200   1.363   5.639   1.456
 6214TIP3    H140201   1.414   5.641   1.375
 6214TIP3    H240202   1.337   5.729   1.470
 6215TIP3   OH240203   6.584   3.205   1.375
 6215TIP3    H140204   6.498   3.168   1.394
 6215TIP3    H240205   6.634   3.192   1.456
 6216TIP3   OH240206   2.483   3.282   7.090
 6216TIP3    H140207   2.531   3.329   7.021
 6216TIP3    H240208   2.493   3.336   7.168
 6217TIP3   OH240209   3.962   2.696   6.780
 6217TIP3    H140210   3.979   2.604   6.798
 6217TIP3    H240211   4.025   2.720   6.712
 6218TIP3   OH240212   2.761   3.782   7.246
 6218TIP3    H140213   2.688   3.731   7.212
 6218TIP3    H240214   2.726   3.826   7.324
 6219TIP3   OH240215   0.226   1.966   6.801
 6219TIP3    H140216   0.205   1.876   6.778
 6219TIP3    H240217   0.318   1.976   6.778
 6220TIP3   OH240218   5.763   4.757   1.729
 6220TIP3    H140219   5.678   4.717   1.710
 6220TIP3    H240220   5.756   4.846   1.694
 6221TIP3   OH240221   1.403   5.394   7.307
 6221TIP3    H140222   1.396   5.466   7.370
 6221TIP3    H240223   1.326   5.403   7.251
 6222TIP3   OH240224   1.558   4.305   5.926
 6222TIP3    H140225   1.642   4.268   5.900
 6222TIP3    H240226   1.576   4.398   5.940
 6223TIP3   OH240227   1.540   3.793   8.058
 6223TIP3    H140228   1.454   3.780   8.017
 6223TIP3    H240229   1.521   3.820   8.147
 6224TIP3   OH240230   3.678   1.839   6.845
 6224TIP3    H140231   3.691   1.744   6.839
 6224TIP3    H240232   3.590   1.848   6.882
 6225TIP3   OH240233   2.493   3.450   6.540
 6225TIP3    H140234   2.447   3.530   6.565
 6225TIP3    H240235   2.575   3.453   6.589
 6226TIP3   OH240236   0.422   3.931   0.052
 6226TIP3    H140237   0.391   4.021   0.067
 6226TIP3    H240238   0.346   3.876   0.069
 6227TIP3   OH240239   4.844   6.425   8.528
 6227TIP3    H140240   4.898   6.346   8.532
 6227TIP3    H240241   4.898   6.488   8.480
 6228TIP3   OH240242   6.738   0.842   1.347
 6228TIP3    H140243   6.690   0.855   1.266
 6228TIP3    H240244   6.816   0.897   1.339
 6229TIP3   OH240245   5.366   2.309   7.500
 6229TIP3    H140246   5.379   2.379   7.563
 6229TIP3    H240247   5.356   2.354   7.416
 6230TIP3   OH240248   5.975   1.726   0.724
 6230TIP3    H140249   5.882   1.705   0.736
 6230TIP3    H240250   5.979   1.821   0.737
 6231TIP3   OH240251   5.208   5.979   7.275
 6231TIP3    H140252   5.242   5.940   7.194
 6231TIP3    H240253   5.283   5.978   7.335
 6232TIP3   OH240254   5.304   3.129   8.152
 6232TIP3    H140255   5.328   3.142   8.244
 6232TIP3    H240256   5.225   3.076   8.155
 6233TIP3   OH240257   3.404   3.948   0.848
 6233TIP3    H140258   3.361   3.884   0.906
 6233TIP3    H240259   3.494   3.953   0.880
 6234TIP3   OH240260   3.405   3.004   7.183
 6234TIP3    H140261   3.351   2.974   7.256
 6234TIP3    H240262   3.405   3.100   7.190
 6235TIP3   OH240263   5.944   2.767   6.980
 6235TIP3    H140264   5.852   2.789   6.970
 6235TIP3    H240265   5.945   2.696   7.044
 6236TIP3   OH240266   0.534   2.610   0.516
 6236TIP3    H140267   0.598   2.681   0.513
 6236TIP3    H240268   0.547   2.563   0.434
 6237TIP3   OH240269   4.186   0.201   7.574
 6237TIP3    H140270   4.135   0.144   7.515
 6237TIP3    H240271   4.188   0.154   7.657
 6238TIP3   OH240272   0.650   6.278   7.501
 6238TIP3    H140273   0.734   6.249   7.537
 6238TIP3    H240274   0.672   6.359   7.454
 6239TIP3   OH240275   5.197   1.798   1.491
 6239TIP3    H140276   5.142   1.863   1.447
 6239TIP3    H240277   5.136   1.729   1.519
 6240TIP3   OH240278   0.147   0.829   8.299
 6240TIP3    H140279   0.079   0.768   8.274
 6240TIP3    H240280   0.208   0.830   8.225
 6241TIP3   OH240281   5.950   2.357   2.324
 6241TIP3    H140282   5.886   2.288   2.309
 6241TIP3    H240283   5.945   2.412   2.245
 6242TIP3   OH240284   1.031   4.792   0.007
 6242TIP3    H140285   1.090   4.729   8.767
 6242TIP3    H240286   1.049   4.786   0.100
 6243TIP3   OH240287   6.764   1.639   7.679
 6243TIP3    H140288   6.776   1.578   7.605
 6243TIP3    H240289   6.774   1.726   7.640
 6244TIP3   OH240290   5.460   1.579   6.624
 6244TIP3    H140291   5.538   1.632   6.642
 6244TIP3    H240292   5.386   1.637   6.644
 6245TIP3   OH240293   1.106   6.071   6.426
 6245TIP3    H140294   1.035   6.083   6.489
 6245TIP3    H240295   1.130   6.160   6.400
 6246TIP3   OH240296   0.283   0.638   1.927
 6246TIP3    H140297   0.375   0.616   1.912
 6246TIP3    H240298   0.274   0.639   2.023
 6247TIP3   OH240299   5.586   0.956   7.481
 6247TIP3    H140300   5.581   0.868   7.445
 6247TIP3    H240301   5.562   0.946   7.573
 6248TIP3   OH240302   3.892   5.679   7.083
 6248TIP3    H140303   3.905   5.737   7.158
 6248TIP3    H240304   3.827   5.615   7.113
 6249TIP3   OH240305   5.090   1.131   1.221
 6249TIP3    H140306   5.162   1.122   1.158
 6249TIP3    H240307   5.047   1.212   1.195
 6250TIP3   OH240308   5.199   2.949   1.777
 6250TIP3    H140309   5.287   2.913   1.770
 6250TIP3    H240310   5.149   2.904   1.709
 6251TIP3   OH240311   2.286   3.467   7.968
 6251TIP3    H140312   2.227   3.537   7.995
 6251TIP3    H240313   2.367   3.512   7.943
 6252TIP3   OH240314   0.061   5.571   1.141
 6252TIP3    H140315   0.128   5.639   1.136
 6252TIP3    H240316   6.820   5.602   1.208
 6253TIP3   OH240317   6.164   1.514   1.575
 6253TIP3    H140318   6.240   1.458   1.558
 6253TIP3    H240319   6.118   1.470   1.647
 6254TIP3   OH240320   5.972   5.808   1.590
 6254TIP3    H140321   5.882   5.825   1.562
 6254TIP3    H240322   5.976   5.712   1.598
 6255TIP3   OH240323   1.860   2.876   0.226
 6255TIP3    H140324   1.915   2.936   0.277
 6255TIP3    H240325   1.772   2.912   0.234
 6256TIP3   OH240326   3.477   3.895   6.744
 6256TIP3    H140327   3.396   3.882   6.793
 6256TIP3    H240328   3.449   3.931   6.660
 6257TIP3   OH240329   1.439   5.822   0.841
 6257TIP3    H140330   1.420   5.881   0.767
 6257TIP3    H240331   1.353   5.798   0.875
 6258TIP3   OH240332   6.301   1.522   2.665
 6258TIP3    H140333   6.235   1.588   2.687
 6258TIP3    H240334   6.275   1.492   2.577
 6259TIP3   OH240335   6.144   4.196   6.986
 6259TIP3    H140336   6.233   4.163   6.982
 6259TIP3    H240337   6.100   4.154   6.912
 6260TIP3   OH240338   2.481   5.876   2.340
 6260TIP3    H140339   2.478   5.955   2.287
 6260TIP3    H240340   2.503   5.907   2.428
 6261TIP3   OH240341   1.995   2.132   8.602
 6261TIP3    H140342   1.952   2.073   8.541
 6261TIP3    H240343   1.940   2.130   8.680
 6262TIP3   OH240344   6.246   3.132   7.302
 6262TIP3    H140345   6.294   3.213   7.286
 6262TIP3    H240346   6.310   3.073   7.340
 6263TIP3   OH240347   5.888   6.599   0.976
 6263TIP3    H140348   5.822   6.665   0.954
 6263TIP3    H240349   5.970   6.635   0.942
 6264TIP3   OH240350   2.856   3.709   8.216
 6264TIP3    H140351   2.784   3.710   8.279
 6264TIP3    H240352   2.889   3.799   8.216
 6265TIP3   OH240353   0.511   0.304   0.558
 6265TIP3    H140354   0.560   0.327   0.636
 6265TIP3    H240355   0.552   0.356   0.488
 6266TIP3   OH240356   5.924   4.291   7.762
 6266TIP3    H140357   5.947   4.343   7.685
 6266TIP3    H240358   5.944   4.349   7.836
 6267TIP3   OH240359   5.080   5.264   7.197
 6267TIP3    H140360   5.026   5.204   7.249
 6267TIP3    H240361   5.170   5.234   7.212
 6268TIP3   OH240362   5.404   6.566   2.655
 6268TIP3    H140363   5.316   6.596   2.631
 6268TIP3    H240364   5.449   6.645   2.686
 6269TIP3   OH240365   3.201   5.864   2.491
 6269TIP3    H140366   3.110   5.881   2.468
 6269TIP3    H240367   3.230   5.944   2.535
 6270TIP3   OH240368   6.117   6.238   1.651
 6270TIP3    H140369   6.068   6.172   1.602
 6270TIP3    H240370   6.085   6.321   1.618
 6271TIP3   OH240371   2.571   3.071   2.028
 6271TIP3    H140372   2.548   2.980   2.047
 6271TIP3    H240373   2.650   3.087   2.079
 6272TIP3   OH240374   2.768   3.394   0.251
 6272TIP3    H140375   2.681   3.390   0.211
 6272TIP3    H240376   2.751   3.416   0.342
 6273TIP3   OH240377   0.775   2.087   0.678
 6273TIP3    H140378   0.743   2.116   0.763
 6273TIP3    H240379   0.758   2.160   0.619
 6274TIP3   OH240380   0.247   2.690   7.742
 6274TIP3    H140381   0.268   2.767   7.793
 6274TIP3    H240382   0.166   2.656   7.781
 6275TIP3   OH240383   4.204   1.848   1.727
 6275TIP3    H140384   4.226   1.754   1.727
 6275TIP3    H240385   4.121   1.852   1.776
 6276TIP3   OH240386   6.384   6.051   1.372
 6276TIP3    H140387   6.301   6.072   1.331
 6276TIP3    H240388   6.449   6.062   1.302
 6277TIP3   OH240389   3.093   3.989   1.764
 6277TIP3    H140390   3.186   4.001   1.744
 6277TIP3    H240391   3.049   3.992   1.679
 6278TIP3   OH240392   1.453   4.116   7.319
 6278TIP3    H140393   1.486   4.186   7.375
 6278TIP3    H240394   1.381   4.156   7.270
 6279TIP3   OH240395   5.975   6.254   6.508
 6279TIP3    H140396   6.070   6.242   6.496
 6279TIP3    H240397   5.938   6.168   6.489
 6280TIP3   OH240398   1.894   5.617   0.838
 6280TIP3    H140399   1.919   5.707   0.862
 6280TIP3    H240400   1.804   5.624   0.808
 6281TIP3   OH240401   5.140   4.380   0.329
 6281TIP3    H140402   5.154   4.337   0.244
 6281TIP3    H240403   5.060   4.430   0.317
 6282TIP3   OH240404   3.182   0.918   0.160
 6282TIP3    H140405   3.177   0.851   0.092
 6282TIP3    H240406   3.275   0.939   0.167
 6283TIP3   OH240407   0.738   6.074   7.731
 6283TIP3    H140408   0.676   6.022   7.681
 6283TIP3    H240409   0.792   6.118   7.666
 6284TIP3   OH240410   0.809   6.306   8.287
 6284TIP3    H140411   0.776   6.252   8.359
 6284TIP3    H240412   0.808   6.395   8.322
 6285TIP3   OH240413   4.312   6.679   0.714
 6285TIP3    H140414   4.369   6.640   0.648
 6285TIP3    H240415   4.306   6.613   0.783
 6286TIP3   OH240416   3.711   6.016   2.111
 6286TIP3    H140417   3.784   6.051   2.162
 6286TIP3    H240418   3.748   5.943   2.062
 6287TIP3   OH240419   1.423   4.381   6.159
 6287TIP3    H140420   1.459   4.350   6.076
 6287TIP3    H240421   1.496   4.428   6.201
 6288TIP3   OH240422   4.745   1.870   1.902
 6288TIP3    H140423   4.830   1.852   1.863
 6288TIP3    H240424   4.763   1.929   1.975
 6289TIP3   OH240425   6.794   3.011   0.796
 6289TIP3    H140426   6.805   3.051   0.882
 6289TIP3    H240427   6.699   3.010   0.782
 6290TIP3   OH240428   1.410   4.790   7.425
 6290TIP3    H140429   1.378   4.864   7.475
 6290TIP3    H240430   1.357   4.716   7.455
 6291TIP3   OH240431   4.938   2.679   1.778
 6291TIP3    H140432   5.009   2.709   1.722
 6291TIP3    H240433   4.859   2.716   1.738
 6292TIP3   OH240434   3.942   6.775   6.907
 6292TIP3    H140435   4.002   0.021   6.870
 6292TIP3    H240436   3.911   6.726   6.831
 6293TIP3   OH240437   4.947   2.234   7.533
 6293TIP3    H140438   4.904   2.235   7.448
 6293TIP3    H240439   4.876   2.248   7.596
 6294TIP3   OH240440   2.088   0.061   8.094
 6294TIP3    H140441   2.139   6.810   8.054
 6294TIP3    H240442   2.110   0.056   8.187
 6295TIP3   OH240443   5.833   2.453   0.472
 6295TIP3    H140444   5.756   2.499   0.505
 6295TIP3    H240445   5.802   2.403   0.397
 6296TIP3   OH240446   4.328   3.559   7.850
 6296TIP3    H140447   4.267   3.615   7.802
 6296TIP3    H240448   4.277   3.481   7.871
 6297TIP3   OH240449   5.369   4.255   0.423
 6297TIP3    H140450   5.295   4.307   0.456
 6297TIP3    H240451   5.441   4.318   0.417
 6298TIP3   OH240452   0.068   6.070   2.480
 6298TIP3    H140453   0.047   6.009   2.550
 6298TIP3    H240454   0.111   6.143   2.523
 6299TIP3   OH240455   3.057   6.372   7.467
 6299TIP3    H140456   3.094   6.429   7.535
 6299TIP3    H240457   2.962   6.381   7.477
 6300TIP3   OH240458   3.216   4.450   8.406
 6300TIP3    H140459   3.193   4.542   8.392
 6300TIP3    H240460   3.138   4.402   8.377
 6301TIP3   OH240461   2.960   0.483   7.312
 6301TIP3    H140462   3.020   0.553   7.288
 6301TIP3    H240463   2.875   0.526   7.321
 6302TIP3   OH240464   1.579   2.788   8.082
 6302TIP3    H140465   1.558   2.809   7.991
 6302TIP3    H240466   1.496   2.761   8.120
 6303TIP3   OH240467   3.291   4.718   0.518
 6303TIP3    H140468   3.252   4.803   0.540
 6303TIP3    H240469   3.248   4.692   0.436
 6304TIP3   OH240470   4.150   4.292   6.779
 6304TIP3    H140471   4.146   4.387   6.784
 6304TIP3    H240472   4.237   4.274   6.743
 6305TIP3   OH240473   2.228   6.253   7.373
 6305TIP3    H140474   2.172   6.184   7.338
 6305TIP3    H240475   2.305   6.253   7.316
 6306TIP3   OH240476   0.382   3.905   8.063
 6306TIP3    H140477   0.452   3.969   8.077
 6306TIP3    H240478   0.425   3.820   8.068
 6307TIP3   OH240479   6.335   4.015   0.303
 6307TIP3    H140480   6.394   4.090   0.316
 6307TIP3    H240481   6.379   3.943   0.348
 6308TIP3   OH240482   0.266   2.810   1.454
 6308TIP3    H140483   0.281   2.716   1.465
 6308TIP3    H240484   0.272   2.824   1.360
 6309TIP3   OH240485   4.383   5.225   6.330
 6309TIP3    H140486   4.442   5.164   6.286
 6309TIP3    H240487   4.299   5.214   6.286
 6310TIP3   OH240488   1.643   4.098   7.955
 6310TIP3    H140489   1.673   4.186   7.980
 6310TIP3    H240490   1.662   4.093   7.861
 6311TIP3   OH240491   1.461   6.448   7.980
 6311TIP3    H140492   1.536   6.483   8.029
 6311TIP3    H240493   1.387   6.458   8.039
 6312TIP3   OH240494   3.317   0.483   0.143
 6312TIP3    H140495   3.306   0.501   0.049
 6312TIP3    H240496   3.253   0.540   0.186
 6313TIP3   OH240497   0.866   2.249   8.009
 6313TIP3    H140498   0.935   2.188   8.036
 6313TIP3    H240499   0.912   2.332   7.995
 6314TIP3   OH240500   6.111   6.763   0.905
 6314TIP3    H140501   6.176   6.764   0.834
 6314TIP3    H240502   6.068   0.028   0.900
 6315TIP3   OH240503   2.129   0.478   7.737
 6315TIP3    H140504   2.216   0.503   7.770
 6315TIP3    H240505   2.142   0.391   7.699
 6316TIP3   OH240506   3.513   5.441   2.325
 6316TIP3    H140507   3.521   5.442   2.230
 6316TIP3    H240508   3.601   5.419   2.356
 6317TIP3   OH240509   0.048   4.029   0.193
 6317TIP3    H140510   0.134   4.058   0.223
 6317TIP3    H240511   6.808   4.099   0.219
 6318TIP3   OH240512   1.625   2.966   7.160
 6318TIP3    H140513   1.605   2.901   7.227
 6318TIP3    H240514   1.710   3.001   7.186
 6319TIP3   OH240515   4.672   2.907   7.116
 6319TIP3    H140516   4.657   2.981   7.057
 6319TIP3    H240517   4.689   2.948   7.201
 6320TIP3   OH240518   5.469   0.033   7.183
 6320TIP3    H140519   5.444   6.785   7.246
 6320TIP3    H240520   5.498   0.106   7.237
 6321TIP3   OH240521   0.314   6.499   6.671
 6321TIP3    H140522   0.311   6.524   6.764
 6321TIP3    H240523   0.279   6.410   6.670
 6322TIP3   OH240524   5.986   4.654   1.657
 6322TIP3    H140525   5.969   4.577   1.602
 6322TIP3    H240526   5.899   4.685   1.683
 6323TIP3   OH240527   6.175   1.450   7.778
 6323TIP3    H140528   6.181   1.444   7.682
 6323TIP3    H240529   6.139   1.537   7.795
 6324TIP3   OH240530   5.200   2.008   8.635
 6324TIP3    H140531   5.149   2.088   8.648
 6324TIP3    H240532   5.147   1.940   8.676
 6325TIP3   OH240533   4.198   4.561   7.268
 6325TIP3    H140534   4.207   4.564   7.363
 6325TIP3    H240535   4.202   4.653   7.240
 6326TIP3   OH240536   0.200   3.869   0.426
 6326TIP3    H140537   0.203   3.833   0.514
 6326TIP3    H240538   0.135   3.815   0.380
 6327TIP3   OH240539   5.657   3.626   8.336
 6327TIP3    H140540   5.692   3.711   8.362
 6327TIP3    H240541   5.562   3.635   8.345
 6328TIP3   OH240542   2.882   6.360   7.728
 6328TIP3    H140543   2.845   6.317   7.651
 6328TIP3    H240544   2.874   6.453   7.710
 6329TIP3   OH240545   6.557   1.515   7.130
 6329TIP3    H140546   6.553   1.609   7.149
 6329TIP3    H240547   6.650   1.497   7.119
 6330TIP3   OH240548   2.075   6.751   7.516
 6330TIP3    H140549   2.097   6.658   7.513
 6330TIP3    H240550   2.141   6.792   7.460
 6331TIP3   OH240551   2.582   6.732   6.423
 6331TIP3    H140552   2.502   6.744   6.371
 6331TIP3    H240553   2.651   6.724   6.358
 6332TIP3   OH240554   3.925   4.364   1.768
 6332TIP3    H140555   3.893   4.274   1.774
 6332TIP3    H240556   4.000   4.367   1.828
 6333TIP3   OH240557   6.790   4.566   0.435
 6333TIP3    H140558   6.800   4.659   0.456
 6333TIP3    H240559   0.037   4.549   0.369
 6334TIP3   OH240560   4.547   3.011   1.562
 6334TIP3    H140561   4.482   2.985   1.497
 6334TIP3    H240562   4.498   3.019   1.644
 6335TIP3   OH240563   5.943   1.371   8.307
 6335TIP3    H140564   5.982   1.298   8.259
 6335TIP3    H240565   5.926   1.437   8.239
 6336TIP3   OH240566   2.222   2.358   0.513
 6336TIP3    H140567   2.230   2.276   0.465
 6336TIP3    H240568   2.152   2.342   0.576
 6337TIP3   OH240569   1.597   3.721   6.778
 6337TIP3    H140570   1.651   3.772   6.718
 6337TIP3    H240571   1.565   3.647   6.726
 6338TIP3   OH240572   3.281   3.548   0.542
 6338TIP3    H140573   3.348   3.480   0.548
 6338TIP3    H240574   3.321   3.625   0.581
 6339TIP3   OH240575   0.352   2.902   7.508
 6339TIP3    H140576   0.266   2.860   7.511
 6339TIP3    H240577   0.344   2.978   7.566
 6340TIP3   OH240578   3.610   4.048   8.652
 6340TIP3    H140579   3.636   3.993   8.726
 6340TIP3    H240580   3.607   4.137   8.688
 6341TIP3   OH240581   1.287   1.696   7.958
 6341TIP3    H140582   1.340   1.756   7.906
 6341TIP3    H240583   1.351   1.636   7.998
 6342TIP3   OH240584   5.946   5.297   0.705
 6342TIP3    H140585   5.858   5.261   0.713
 6342TIP3    H240586   5.982   5.294   0.793
 6343TIP3   OH240587   3.714   6.553   1.001
 6343TIP3    H140588   3.674   6.472   0.970
 6343TIP3    H240589   3.640   6.612   1.017
 6344TIP3   OH240590   1.578   5.290   6.484
 6344TIP3    H140591   1.504   5.350   6.491
 6344TIP3    H240592   1.554   5.231   6.412
 6345TIP3   OH240593   3.167   0.776   6.647
 6345TIP3    H140594   3.184   0.803   6.558
 6345TIP3    H240595   3.222   0.832   6.701
 6346TIP3   OH240596   3.698   5.197   0.495
 6346TIP3    H140597   3.774   5.252   0.512
 6346TIP3    H240598   3.674   5.162   0.580
 6347TIP3   OH240599   5.655   1.078   1.383
 6347TIP3    H140600   5.683   1.028   1.460
 6347TIP3    H240601   5.736   1.100   1.338
 6348TIP3   OH240602   0.585   4.704   0.062
 6348TIP3    H140603   0.607   4.714   0.154
 6348TIP3    H240604   0.655   4.748   0.015
 6349TIP3   OH240605   5.693   6.146   0.820
 6349TIP3    H140606   5.625   6.196   0.864
 6349TIP3    H240607   5.740   6.102   0.891
 6350TIP3   OH240608   4.325   2.582   0.107
 6350TIP3    H140609   4.366   2.573   0.021
 6350TIP3    H240610   4.329   2.494   0.145
 6351TIP3   OH240611   6.455   5.301   8.640
 6351TIP3    H140612   6.409   5.217   8.648
 6351TIP3    H240613   6.399   5.354   8.584
 6352TIP3   OH240614   4.501   3.252   5.969
 6352TIP3    H140615   4.560   3.245   6.044
 6352TIP3    H240616   4.528   3.181   5.911
 6353TIP3   OH240617   0.150   3.130   0.437
 6353TIP3    H140618   0.232   3.091   0.408
 6353TIP3    H240619   0.169   3.164   0.524
 6354TIP3   OH240620   3.817   1.031   0.967
 6354TIP3    H140621   3.753   1.057   1.034
 6354TIP3    H240622   3.763   0.998   0.895
 6355TIP3   OH240623   0.907   1.656   1.140
 6355TIP3    H140624   0.856   1.704   1.075
 6355TIP3    H240625   0.974   1.717   1.168
 6356TIP3   OH240626   4.509   5.288   1.126
 6356TIP3    H140627   4.529   5.290   1.032
 6356TIP3    H240628   4.442   5.220   1.134
 6357TIP3   OH240629   5.406   1.754   1.169
 6357TIP3    H140630   5.425   1.701   1.246
 6357TIP3    H240631   5.371   1.836   1.204
 6358TIP3   OH240632   0.021   5.138   8.491
 6358TIP3    H140633   0.044   5.133   8.584
 6358TIP3    H240634   0.007   5.232   8.475
 6359TIP3   OH240635   0.590   3.742   8.434
 6359TIP3    H140636   0.526   3.671   8.426
 6359TIP3    H240637   0.539   3.818   8.462
 6360TIP3   OH240638   0.670   4.695   7.142
 6360TIP3    H140639   0.631   4.731   7.063
 6360TIP3    H240640   0.699   4.607   7.116
 6361TIP3   OH240641   1.763   5.153   7.211
 6361TIP3    H140642   1.672   5.180   7.195
 6361TIP3    H240643   1.785   5.193   7.295
 6362TIP3   OH240644   0.100   3.477   0.726
 6362TIP3    H140645   0.078   3.451   0.815
 6362TIP3    H240646   0.016   3.482   0.681
 6363TIP3   OH240647   0.658   4.494   7.500
 6363TIP3    H140648   0.663   4.402   7.474
 6363TIP3    H240649   0.599   4.493   7.576
 6364TIP3   OH240650   0.116   2.458   1.783
 6364TIP3    H140651   0.103   2.552   1.790
 6364TIP3    H240652   0.211   2.446   1.788
 6365TIP3   OH240653   5.718   1.613   7.872
 6365TIP3    H140654   5.687   1.588   7.959
 6365TIP3    H240655   5.711   1.709   7.871
 6366TIP3   OH240656   4.626   4.993   6.878
 6366TIP3    H140657   4.624   5.086   6.854
 6366TIP3    H240658   4.629   4.947   6.794
 6367TIP3   OH240659   2.191   4.704   6.535
 6367TIP3    H140660   2.242   4.640   6.485
 6367TIP3    H240661   2.253   4.775   6.553
 6368TIP3   OH240662   3.685   6.025   6.898
 6368TIP3    H140663   3.590   6.017   6.903
 6368TIP3    H240664   3.709   5.979   6.818
 6369TIP3   OH240665   6.258   2.141   1.201
 6369TIP3    H140666   6.243   2.135   1.107
 6369TIP3    H240667   6.209   2.218   1.229
 6370TIP3   OH240668   0.233   2.989   1.226
 6370TIP3    H140669   0.145   3.000   1.260
 6370TIP3    H240670   0.223   2.929   1.151
 6371TIP3   OH240671   5.814   2.269   1.224
 6371TIP3    H140672   5.872   2.325   1.276
 6371TIP3    H240673   5.763   2.330   1.170
 6372TIP3   OH240674   4.744   0.339   8.706
 6372TIP3    H140675   4.768   0.400   8.776
 6372TIP3    H240676   4.748   0.391   8.626
 6373TIP3   OH240677   5.896   4.489   1.312
 6373TIP3    H140678   5.821   4.477   1.254
 6373TIP3    H240679   5.865   4.455   1.397
 6374TIP3   OH240680   2.446   5.130   7.377
 6374TIP3    H140681   2.448   5.225   7.360
 6374TIP3    H240682   2.531   5.112   7.416
 6375TIP3   OH240683   2.215   1.812   7.522
 6375TIP3    H140684   2.198   1.718   7.534
 6375TIP3    H240685   2.129   1.853   7.526
 6376TIP3   OH240686   3.542   2.884   7.764
 6376TIP3    H140687   3.637   2.889   7.766
 6376TIP3    H240688   3.520   2.887   7.671
 6377TIP3   OH240689   4.148   0.120   7.818
 6377TIP3    H140690   4.088   0.168   7.876
 6377TIP3    H240691   4.234   0.131   7.858
 6378TIP3   OH240692   1.782   4.272   1.665
 6378TIP3    H140693   1.863   4.288   1.715
 6378TIP3    H240694   1.748   4.190   1.702
 6379TIP3   OH240695   2.622   0.019   8.142
 6379TIP3    H140696   2.540   6.789   8.142
 6379TIP3    H240697   2.595   0.110   8.126
 6380TIP3   OH240698   0.776   1.829   0.609
 6380TIP3    H140699   0.693   1.800   0.646
 6380TIP3    H240700   0.787   1.918   0.642
 6381TIP3   OH240701   4.843   4.247   0.533
 6381TIP3    H140702   4.926   4.293   0.521
 6381TIP3    H240703   4.841   4.183   0.461
 6382TIP3   OH240704   0.182   1.131   8.700
 6382TIP3    H140705   0.151   1.101   8.615
 6382TIP3    H240706   0.102   1.158   8.746
 6383TIP3   OH240707   0.813   3.608   1.753
 6383TIP3    H140708   0.806   3.515   1.731
 6383TIP3    H240709   0.903   3.619   1.782
 6384TIP3   OH240710   5.858   2.146   7.067
 6384TIP3    H140711   5.923   2.139   6.997
 6384TIP3    H240712   5.834   2.055   7.086
 6385TIP3   OH240713   0.105   0.693   1.049
 6385TIP3    H140714   0.011   0.696   1.029
 6385TIP3    H240715   0.145   0.753   0.987
 6386TIP3   OH240716   2.307   5.250   1.028
 6386TIP3    H140717   2.321   5.286   1.116
 6386TIP3    H240718   2.241   5.307   0.989
 6387TIP3   OH240719   6.194   5.462   2.124
 6387TIP3    H140720   6.130   5.392   2.138
 6387TIP3    H240721   6.180   5.521   2.199
 6388TIP3   OH240722   1.961   4.508   8.061
 6388TIP3    H140723   2.016   4.439   8.023
 6388TIP3    H240724   2.014   4.547   8.130
 6389TIP3   OH240725   2.493   3.068   7.755
 6389TIP3    H140726   2.454   3.022   7.681
 6389TIP3    H240727   2.564   3.120   7.717
 6390TIP3   OH240728   6.456   1.474   8.109
 6390TIP3    H140729   6.472   1.391   8.152
 6390TIP3    H240730   6.540   1.520   8.114
 6391TIP3   OH240731   5.791   0.966   7.210
 6391TIP3    H140732   5.742   1.002   7.136
 6391TIP3    H240733   5.794   0.872   7.192
 6392TIP3   OH240734   6.356   2.717   1.289
 6392TIP3    H140735   6.354   2.629   1.252
 6392TIP3    H240736   6.439   2.722   1.337
 6393TIP3   OH240737   2.138   2.630   8.497
 6393TIP3    H140738   2.139   2.602   8.406
 6393TIP3    H240739   2.085   2.564   8.542
 6394TIP3   OH240740   5.842   6.698   1.603
 6394TIP3    H140741   5.797   6.780   1.584
 6394TIP3    H240742   5.857   6.700   1.698
 6395TIP3   OH240743   0.552   1.993   7.593
 6395TIP3    H140744   0.510   1.953   7.517
 6395TIP3    H240745   0.482   1.997   7.659
 6396TIP3   OH240746   4.957   3.614   1.325
 6396TIP3    H140747   4.967   3.611   1.230
 6396TIP3    H240748   4.920   3.528   1.348
 6397TIP3   OH240749   2.801   5.740   0.258
 6397TIP3    H140750   2.717   5.755   0.302
 6397TIP3    H240751   2.842   5.670   0.308
 6398TIP3   OH240752   1.026   2.207   1.992
 6398TIP3    H140753   1.104   2.202   1.936
 6398TIP3    H240754   0.992   2.118   1.994
 6399TIP3   OH240755   3.965   3.666   6.030
 6399TIP3    H140756   4.056   3.676   6.057
 6399TIP3    H240757   3.970   3.644   5.937
 6400TIP3   OH240758   2.697   1.330   7.692
 6400TIP3    H140759   2.619   1.385   7.680
 6400TIP3    H240760   2.740   1.329   7.607
 6401TIP3   OH240761   2.980   1.856   2.325
 6401TIP3    H140762   3.060   1.898   2.292
 6401TIP3    H240763   2.969   1.892   2.413
 6402TIP3   OH240764   2.730   2.549   8.115
 6402TIP3    H140765   2.794   2.619   8.124
 6402TIP3    H240766   2.748   2.489   8.187
 6403TIP3   OH240767   3.643   1.391   8.034
 6403TIP3    H140768   3.632   1.483   8.055
 6403TIP3    H240769   3.556   1.353   8.046
 6404TIP3   OH240770   2.208   5.069   1.594
 6404TIP3    H140771   2.170   4.983   1.580
 6404TIP3    H240772   2.247   5.064   1.681
 6405TIP3   OH240773   6.072   1.990   7.818
 6405TIP3    H140774   6.002   2.049   7.788
 6405TIP3    H240775   6.147   2.011   7.763
 6406TIP3   OH240776   4.177   4.534   0.428
 6406TIP3    H140777   4.118   4.522   0.502
 6406TIP3    H240778   4.241   4.598   0.457
 6407TIP3   OH240779   3.092   5.112   1.518
 6407TIP3    H140780   3.093   5.034   1.462
 6407TIP3    H240781   3.131   5.181   1.464
 6408TIP3   OH240782   0.063   1.233   2.649
 6408TIP3    H140783   0.127   1.303   2.647
 6408TIP3    H240784   6.799   1.277   2.662
 6409TIP3   OH240785   4.643   1.139   8.286
 6409TIP3    H140786   4.698   1.148   8.363
 6409TIP3    H240787   4.555   1.124   8.321
 6410TIP3   OH240788   5.555   0.368   1.943
 6410TIP3    H140789   5.636   0.381   1.893
 6410TIP3    H240790   5.545   0.449   1.994
 6411TIP3   OH240791   3.140   6.585   0.080
 6411TIP3    H140792   3.187   6.503   0.095
 6411TIP3    H240793   3.072   6.586   0.147
 6412TIP3   OH240794   0.099   2.349   0.165
 6412TIP3    H140795   0.110   2.437   0.129
 6412TIP3    H240796   0.042   2.361   0.241
 6413TIP3   OH240797   1.784   6.604   1.346
 6413TIP3    H140798   1.843   6.675   1.319
 6413TIP3    H240799   1.819   6.574   1.430
 6414TIP3   OH240800   5.200   0.760   1.642
 6414TIP3    H140801   5.294   0.741   1.649
 6414TIP3    H240802   5.177   0.794   1.728
 6415TIP3   OH240803   4.886   3.241   7.366
 6415TIP3    H140804   4.942   3.295   7.310
 6415TIP3    H240805   4.862   3.299   7.438
 6416TIP3   OH240806   6.123   4.285   8.754
 6416TIP3    H140807   6.030   4.275   8.734
 6416TIP3    H240808   6.134   4.379   8.770
 6417TIP3   OH240809   1.796   4.797   1.947
 6417TIP3    H140810   1.754   4.788   2.033
 6417TIP3    H240811   1.815   4.708   1.919
 6418TIP3   OH240812   3.266   5.291   6.246
 6418TIP3    H140813   3.202   5.221   6.233
 6418TIP3    H240814   3.341   5.247   6.287
 6419TIP3   OH240815   3.788   4.972   7.787
 6419TIP3    H140816   3.765   4.892   7.834
 6419TIP3    H240817   3.872   4.999   7.823
 6420TIP3   OH240818   3.400   5.225   8.330
 6420TIP3    H140819   3.449   5.306   8.317
 6420TIP3    H240820   3.417   5.174   8.251
 6421TIP3   OH240821   4.724   5.539   8.471
 6421TIP3    H140822   4.765   5.462   8.431
 6421TIP3    H240823   4.635   5.540   8.436
 6422TIP3   OH240824   0.115   4.522   0.179
 6422TIP3    H140825   0.095   4.577   0.103
 6422TIP3    H240826   0.198   4.556   0.211
 6423TIP3   OH240827   0.677   2.687   2.116
 6423TIP3    H140828   0.618   2.697   2.041
 6423TIP3    H240829   0.720   2.772   2.124
 6424TIP3   OH240830   0.196   1.071   6.942
 6424TIP3    H140831   0.206   1.018   7.020
 6424TIP3    H240832   0.120   1.127   6.960
 6425TIP3   OH240833   5.587   5.499   0.768
 6425TIP3    H140834   5.519   5.556   0.805
 6425TIP3    H240835   5.540   5.444   0.705
 6426TIP3   OH240836   1.796   0.036   1.977
 6426TIP3    H140837   1.884   0.053   2.010
 6426TIP3    H240838   1.757   6.798   2.042
 6427TIP3   OH240839   4.825   4.855   8.618
 6427TIP3    H140840   4.738   4.830   8.587
 6427TIP3    H240841   4.850   4.784   8.677
 6428TIP3   OH240842   2.769   0.470   8.316
 6428TIP3    H140843   2.732   0.558   8.311
 6428TIP3    H240844   2.831   0.467   8.243
 6429TIP3   OH240845   5.778   6.490   6.050
 6429TIP3    H140846   5.714   6.429   6.012
 6429TIP3    H240847   5.845   6.499   5.983
 6430TIP3   OH240848   3.044   0.461   7.633
 6430TIP3    H140849   3.136   0.438   7.624
 6430TIP3    H240850   3.002   0.424   7.555
 6431TIP3   OH240851   6.120   5.613   1.333
 6431TIP3    H140852   6.155   5.524   1.323
 6431TIP3    H240853   6.039   5.601   1.383
 6432TIP3   OH240854   5.448   2.914   7.422
 6432TIP3    H140855   5.440   3.003   7.454
 6432TIP3    H240856   5.524   2.916   7.363
 6433TIP3   OH240857   5.468   3.855   8.590
 6433TIP3    H140858   5.502   3.901   8.513
 6433TIP3    H240859   5.389   3.904   8.615
 6434TIP3   OH240860   2.459   6.181   1.106
 6434TIP3    H140861   2.453   6.108   1.045
 6434TIP3    H240862   2.369   6.209   1.120
 6435TIP3   OH240863   5.668   3.913   8.346
 6435TIP3    H140864   5.709   3.940   8.263
 6435TIP3    H240865   5.718   3.960   8.413
 6436TIP3   OH240866   1.685   0.962   0.989
 6436TIP3    H140867   1.773   0.937   0.960
 6436TIP3    H240868   1.699   1.003   1.074
 6437TIP3   OH240869   1.452   0.878   7.772
 6437TIP3    H140870   1.467   0.866   7.866
 6437TIP3    H240871   1.383   0.944   7.767
 6438TIP3   OH240872   4.308   4.036   0.872
 6438TIP3    H140873   4.262   4.101   0.819
 6438TIP3    H240874   4.268   3.953   0.847
 6439TIP3   OH240875   4.789   4.880   1.296
 6439TIP3    H140876   4.753   4.968   1.287
 6439TIP3    H240877   4.842   4.884   1.376
 6440TIP3   OH240878   6.693   5.732   1.307
 6440TIP3    H140879   6.649   5.708   1.389
 6440TIP3    H240880   6.625   5.779   1.258
 6441TIP3   OH240881   3.276   1.654   0.240
 6441TIP3    H140882   3.181   1.649   0.248
 6441TIP3    H240883   3.309   1.599   0.312
 6442TIP3   OH240884   3.029   5.411   6.913
 6442TIP3    H140885   2.987   5.396   6.997
 6442TIP3    H240886   3.116   5.445   6.935
 6443TIP3   OH240887   5.096   4.986   1.891
 6443TIP3    H140888   5.185   5.014   1.873
 6443TIP3    H240889   5.073   4.930   1.817
 6444TIP3   OH240890   6.673   3.447   0.621
 6444TIP3    H140891   6.611   3.518   0.608
 6444TIP3    H240892   6.623   3.367   0.605
 6445TIP3   OH240893   5.003   0.993   0.030
 6445TIP3    H140894   5.038   0.983   8.742
 6445TIP3    H240895   5.019   0.908   0.072
 6446TIP3   OH240896   1.200   2.302   8.505
 6446TIP3    H140897   1.141   2.336   8.572
 6446TIP3    H240898   1.169   2.341   8.423
 6447TIP3   OH240899   3.154   0.716   8.355
 6447TIP3    H140900   3.118   0.642   8.403
 6447TIP3    H240901   3.102   0.722   8.275
 6448TIP3   OH240902   3.480   1.288   2.272
 6448TIP3    H140903   3.480   1.318   2.363
 6448TIP3    H240904   3.403   1.232   2.266
 6449TIP3   OH240905   4.305   4.187   8.605
 6449TIP3    H140906   4.310   4.241   8.684
 6449TIP3    H240907   4.220   4.209   8.567
 6450TIP3   OH240908   2.112   3.040   8.668
 6450TIP3    H140909   2.163   3.090   8.732
 6450TIP3    H240910   2.175   3.011   8.603
 6451TIP3   OH240911   2.271   4.925   8.006
 6451TIP3    H140912   2.274   4.843   7.956
 6451TIP3    H240913   2.329   4.984   7.957
 6452TIP3   OH240914   5.787   3.482   1.788
 6452TIP3    H140915   5.789   3.411   1.852
 6452TIP3    H240916   5.861   3.538   1.811
 6453TIP3   OH240917   3.374   0.523   0.409
 6453TIP3    H140918   3.428   0.453   0.444
 6453TIP3    H240919   3.355   0.497   0.319
 6454TIP3   OH240920   4.400   3.659   6.882
 6454TIP3    H140921   4.414   3.573   6.921
 6454TIP3    H240922   4.467   3.666   6.814
 6455TIP3   OH240923   4.591   5.453   0.623
 6455TIP3    H140924   4.501   5.426   0.640
 6455TIP3    H240925   4.596   5.543   0.656
 6456TIP3   OH240926   3.592   2.288   0.231
 6456TIP3    H140927   3.577   2.284   0.136
 6456TIP3    H240928   3.583   2.197   0.260
 6457TIP3   OH240929   6.558   3.455   1.505
 6457TIP3    H140930   6.464   3.477   1.500
 6457TIP3    H240931   6.566   3.375   1.452
 6458TIP3   OH240932   4.506   4.150   0.460
 6458TIP3    H140933   4.587   4.177   0.418
 6458TIP3    H240934   4.443   4.219   0.437
 6459TIP3   OH240935   4.875   0.720   7.299
 6459TIP3    H140936   4.796   0.677   7.332
 6459TIP3    H240937   4.932   0.648   7.274
 6460TIP3   OH240938   6.370   2.382   8.313
 6460TIP3    H140939   6.388   2.327   8.389
 6460TIP3    H240940   6.330   2.322   8.250
 6461TIP3   OH240941   2.042   3.830   8.751
 6461TIP3    H140942   2.045   3.757   8.689
 6461TIP3    H240943   2.023   3.907   8.697
 6462TIP3   OH240944   5.082   6.433   1.703
 6462TIP3    H140945   5.012   6.461   1.645
 6462TIP3    H240946   5.095   6.508   1.762
 6463TIP3   OH240947   3.288   3.283   0.313
 6463TIP3    H140948   3.368   3.304   0.362
 6463TIP3    H240949   3.320   3.233   0.238
 6464TIP3   OH240950   5.913   4.950   6.820
 6464TIP3    H140951   5.993   4.933   6.769
 6464TIP3    H240952   5.860   5.006   6.764
 6465TIP3   OH240953   6.115   4.614   0.655
 6465TIP3    H140954   6.029   4.613   0.612
 6465TIP3    H240955   6.177   4.607   0.582
 6466TIP3   OH240956   4.095   2.625   8.712
 6466TIP3    H140957   4.102   2.643   0.006
 6466TIP3    H240958   4.079   2.531   8.707
 6467TIP3   OH240959   4.411   5.505   0.916
 6467TIP3    H140960   4.374   5.458   0.842
 6467TIP3    H240961   4.381   5.595   0.904
 6468TIP3   OH240962   6.539   2.279   8.087
 6468TIP3    H140963   6.446   2.271   8.065
 6468TIP3    H240964   6.542   2.345   8.157
 6469TIP3   OH240965   4.615   3.360   8.763
 6469TIP3    H140966   4.566   3.416   8.703
 6469TIP3    H240967   4.548   3.310   0.010
 6470TIP3   OH240968   1.085   4.351   8.704
 6470TIP3    H140969   1.043   4.280   8.655
 6470TIP3    H240970   1.114   4.309   8.785
 6471TIP3   OH240971   5.144   1.558   0.772
 6471TIP3    H140972   5.162   1.591   0.860
 6471TIP3    H240973   5.210   1.601   0.717
 6472TIP3   OH240974   3.135   1.410   0.883
 6472TIP3    H140975   3.104   1.379   0.969
 6472TIP3    H240976   3.144   1.504   0.893
 6473TIP3   OH240977   5.271   0.421   2.115
 6473TIP3    H140978   5.271   0.403   2.209
 6473TIP3    H240979   5.209   0.492   2.104
 6474TIP3   OH240980   2.994   3.233   0.425
 6474TIP3    H140981   3.079   3.198   0.451
 6474TIP3    H240982   3.014   3.318   0.386
 6475TIP3   OH240983   1.954   2.789   1.868
 6475TIP3    H140984   2.021   2.819   1.930
 6475TIP3    H240985   1.981   2.700   1.846
 6476TIP3   OH240986   6.547   6.623   1.531
 6476TIP3    H140987   6.572   6.544   1.483
 6476TIP3    H240988   6.457   6.641   1.501
 6477TIP3   OH240989   3.292   2.133   0.453
 6477TIP3    H140990   3.295   2.064   0.386
 6477TIP3    H240991   3.320   2.212   0.408
 6478TIP3   OH240992   6.375   5.178   0.712
 6478TIP3    H140993   6.313   5.150   0.644
 6478TIP3    H240994   6.401   5.097   0.756
 6479TIP3   OH240995   5.078   2.534   7.533
 6479TIP3    H140996   5.009   2.471   7.555
 6479TIP3    H240997   5.096   2.518   7.441
 6480TIP3   OH240998   0.283   4.293   7.980
 6480TIP3    H140999   0.221   4.352   7.937
 6480TIP3    H241000   0.253   4.205   7.957
 6481TIP3   OH241001   6.192   3.899   0.103
 6481TIP3    H141002   6.248   3.919   0.029
 6481TIP3    H241003   6.236   3.939   0.178
 6482TIP3   OH241004   6.044   2.729   1.224
 6482TIP3    H141005   6.039   2.817   1.188
 6482TIP3    H241006   6.123   2.729   1.278
 6483TIP3   OH241007   0.121   1.333   0.237
 6483TIP3    H141008   0.156   1.244   0.245
 6483TIP3    H241009   0.159   1.381   0.311
 6484TIP3   OH241010   4.623   1.032   0.330
 6484TIP3    H141011   4.672   1.114   0.316
 6484TIP3    H241012   4.682   0.978   0.382
 6485TIP3   OH241013   1.366   4.508   7.296
 6485TIP3    H141014   1.352   4.426   7.344
 6485TIP3    H241015   1.328   4.493   7.210
 6486TIP3   OH241016   5.579   1.563   8.600
 6486TIP3    H141017   5.666   1.568   8.562
 6486TIP3    H241018   5.593   1.530   8.689
 6487TIP3   OH241019   2.167   1.908   7.156
 6487TIP3    H141020   2.172   1.993   7.112
 6487TIP3    H241021   2.256   1.893   7.188
 6488TIP3   OH241022   4.008   2.956   8.291
 6488TIP3    H141023   4.022   2.914   8.376
 6488TIP3    H241024   4.058   3.037   8.295
 6489TIP3   OH241025   4.812   1.620   1.674
 6489TIP3    H141026   4.893   1.634   1.625
 6489TIP3    H241027   4.746   1.600   1.607
 6490TIP3   OH241028   0.604   2.799   1.519
 6490TIP3    H141029   0.537   2.866   1.504
 6490TIP3    H241030   0.679   2.848   1.555
 6491TIP3   OH241031   0.182   3.165   8.401
 6491TIP3    H141032   0.098   3.196   8.368
 6491TIP3    H241033   0.238   3.161   8.324
 6492TIP3   OH241034   1.863   4.762   0.291
 6492TIP3    H141035   1.842   4.815   0.368
 6492TIP3    H241036   1.799   4.789   0.225
 6493TIP3   OH241037   5.522   4.850   8.547
 6493TIP3    H141038   5.467   4.906   8.493
 6493TIP3    H241039   5.611   4.885   8.536
 6494TIP3   OH241040   6.185   5.467   0.636
 6494TIP3    H141041   6.125   5.420   0.579
 6494TIP3    H241042   6.166   5.434   0.724
 6495TIP3   OH241043   0.325   0.063   0.273
 6495TIP3    H141044   0.396   0.107   0.225
 6495TIP3    H241045   0.248   0.073   0.217
 6496TIP3   OH241046   2.300   5.931   7.690
 6496TIP3    H141047   2.265   5.851   7.650
 6496TIP3    H241048   2.240   5.999   7.663
 6497TIP3   OH241049   3.229   0.949   0.745
 6497TIP3    H141050   3.241   0.901   0.827
 6497TIP3    H241051   3.142   0.989   0.753
 6498TIP3   OH241052   5.939   5.920   0.080
 6498TIP3    H141053   5.947   5.880   0.167
 6498TIP3    H241054   5.891   6.002   0.096
 6499TIP3   OH241055   5.219   1.234   7.617
 6499TIP3    H141056   5.233   1.326   7.594
 6499TIP3    H241057   5.126   1.219   7.600
 6500TIP3   OH241058   6.279   2.359   7.281
 6500TIP3    H141059   6.272   2.265   7.262
 6500TIP3    H241060   6.334   2.393   7.210
 6501TIP3   OH241061   4.241   1.410   0.769
 6501TIP3    H141062   4.279   1.393   0.683
 6501TIP3    H241063   4.174   1.342   0.779
 6502TIP3   OH241064   2.736   1.405   8.785
 6502TIP3    H141065   2.723   1.398   0.079
 6502TIP3    H241066   2.698   1.325   8.749
 6503TIP3   OH241067   5.250   6.549   0.514
 6503TIP3    H141068   5.190   6.479   0.489
 6503TIP3    H241069   5.204   6.596   0.583
 6504TIP3   OH241070   0.906   6.766   2.027
 6504TIP3    H141071   0.878   6.744   1.938
 6504TIP3    H241072   0.841   6.725   2.083
 6505TIP3   OH241073   4.164   2.692   1.840
 6505TIP3    H141074   4.208   2.645   1.910
 6505TIP3    H241075   4.115   2.625   1.792
 6506TIP3   OH241076   5.261   5.432   0.839
 6506TIP3    H141077   5.314   5.358   0.867
 6506TIP3    H241078   5.313   5.509   0.860
 6507TIP3   OH241079   2.506   3.636   7.860
 6507TIP3    H141080   2.444   3.708   7.846
 6507TIP3    H241081   2.519   3.598   7.773
 6508TIP3   OH241082   3.489   6.284   7.022
 6508TIP3    H141083   3.459   6.217   6.960
 6508TIP3    H241084   3.569   6.319   6.983
 6509TIP3   OH241085   0.294   0.718   1.679
 6509TIP3    H141086   0.208   0.750   1.651
 6509TIP3    H241087   0.279   0.679   1.765
 6510TIP3   OH241088   3.604   5.803   6.450
 6510TIP3    H141089   3.567   5.839   6.370
 6510TIP3    H241090   3.616   5.710   6.432
 6511TIP3   OH241091   3.106   5.833   0.902
 6511TIP3    H141092   3.125   5.843   0.995
 6511TIP3    H241093   3.035   5.769   0.898
 6512TIP3   OH241094   3.007   5.073   2.443
 6512TIP3    H141095   2.941   5.143   2.435
 6512TIP3    H241096   3.065   5.102   2.512
 6513TIP3   OH241097   0.985   5.690   1.127
 6513TIP3    H141098   0.929   5.631   1.075
 6513TIP3    H241099   0.934   5.708   1.206
 6514TIP3   OH241100   4.169   0.685   1.319
 6514TIP3    H141101   4.141   0.657   1.231
 6514TIP3    H241102   4.094   0.665   1.374
 6515TIP3   OH241103   3.910   5.173   0.011
 6515TIP3    H141104   3.984   5.115   8.791
 6515TIP3    H241105   3.904   5.231   8.735
 6516TIP3   OH241106   4.836   3.596   7.946
 6516TIP3    H141107   4.861   3.558   8.030
 6516TIP3    H241108   4.740   3.601   7.950
 6517TIP3   OH241109   4.125   2.841   7.315
 6517TIP3    H141110   4.050   2.871   7.368
 6517TIP3    H241111   4.086   2.785   7.248
 6518TIP3   OH241112   6.145   2.230   8.774
 6518TIP3    H141113   6.141   2.172   0.050
 6518TIP3    H241114   6.222   2.284   8.789
 6519TIP3   OH241115   4.033   0.466   0.358
 6519TIP3    H141116   4.127   0.457   0.338
 6519TIP3    H241117   4.026   0.548   0.406
 6520TIP3   OH241118   4.477   1.362   0.292
 6520TIP3    H141119   4.483   1.429   0.223
 6520TIP3    H241120   4.568   1.336   0.307
 6521TIP3   OH241121   2.741   6.217   0.324
 6521TIP3    H141122   2.800   6.150   0.358
 6521TIP3    H241123   2.669   6.168   0.284
 6522TIP3   OH241124   3.869   3.046   2.234
 6522TIP3    H141125   3.930   3.113   2.203
 6522TIP3    H241126   3.819   3.022   2.156
 6523TIP3   OH241127   1.060   6.275   8.541
 6523TIP3    H141128   1.154   6.295   8.538
 6523TIP3    H241129   1.055   6.192   8.588
 6524TIP3   OH241130   1.684   0.645   1.004
 6524TIP3    H141131   1.740   0.674   1.077
 6524TIP3    H241132   1.658   0.556   1.028
 6525TIP3   OH241133   1.039   2.022   0.930
 6525TIP3    H141134   1.043   2.077   0.852
 6525TIP3    H241135   0.972   1.957   0.911
 6526TIP3   OH241136   5.797   0.417   1.826
 6526TIP3    H141137   5.776   0.486   1.889
 6526TIP3    H241138   5.836   0.347   1.879
 6527TIP3   OH241139   3.335   4.904   0.238
 6527TIP3    H141140   3.420   4.864   0.257
 6527TIP3    H241141   3.297   4.849   0.170
 6528TIP3   OH241142   4.920   1.920   0.993
 6528TIP3    H141143   4.878   2.006   0.981
 6528TIP3    H241144   4.861   1.859   0.948
 6529TIP3   OH241145   6.649   6.417   2.354
 6529TIP3    H141146   6.731   6.456   2.384
 6529TIP3    H241147   6.645   6.332   2.398
 6530TIP3   OH241148   4.998   0.912   8.562
 6530TIP3    H141149   4.930   0.861   8.605
 6530TIP3    H241150   5.034   0.852   8.496
 6531TIP3   OH241151   4.153   6.787   1.683
 6531TIP3    H141152   4.132   6.787   1.776
 6531TIP3    H241153   4.149   6.695   1.658
 6532TIP3   OH241154   3.995   6.004   8.139
 6532TIP3    H141155   3.937   5.933   8.167
 6532TIP3    H241156   3.979   6.012   8.045
 6533TIP3   OH241157   3.143   3.532   8.484
 6533TIP3    H141158   3.077   3.592   8.519
 6533TIP3    H241159   3.117   3.519   8.392
 6534TIP3   OH241160   5.256   3.204   0.956
 6534TIP3    H141161   5.307   3.208   1.037
 6534TIP3    H241162   5.170   3.238   0.981
 6535TIP3   OH241163   6.303   5.965   1.728
 6535TIP3    H141164   6.373   5.917   1.771
 6535TIP3    H241165   6.223   5.924   1.760
 6536TIP3   OH241166   3.119   0.494   1.862
 6536TIP3    H141167   3.121   0.588   1.881
 6536TIP3    H241168   3.033   0.479   1.823
 6537TIP3   OH241169   6.762   6.576   7.979
 6537TIP3    H141170   0.013   6.569   8.043
 6537TIP3    H241171   6.793   6.641   7.916
 6538TIP3   OH241172   5.102   3.242   8.471
 6538TIP3    H141173   5.069   3.197   8.393
 6538TIP3    H241174   5.025   3.247   8.529
 6539TIP3   OH241175   5.169   2.570   8.073
 6539TIP3    H141176   5.090   2.584   8.020
 6539TIP3    H241177   5.239   2.611   8.024
 6540TIP3   OH241178   3.601   3.723   7.956
 6540TIP3    H141179   3.561   3.637   7.969
 6540TIP3    H241180   3.594   3.766   8.041
 6541TIP3   OH241181   3.706   5.615   8.004
 6541TIP3    H141182   3.709   5.579   7.916
 6541TIP3    H241183   3.731   5.542   8.061
 6542TIP3   OH241184   5.104   3.108   7.495
 6542TIP3    H141185   5.176   3.136   7.439
 6542TIP3    H241186   5.032   3.166   7.472
 6543TIP3   OH241187   5.928   5.944   7.882
 6543TIP3    H141188   5.897   5.931   7.971
 6543TIP3    H241189   5.911   5.860   7.838
 6544TIP3   OH241190   5.954   0.452   1.597
 6544TIP3    H141191   5.995   0.532   1.562
 6544TIP3    H241192   5.894   0.484   1.665
 6545TIP3   OH241193   1.007   0.651   1.693
 6545TIP3    H141194   1.012   0.715   1.622
 6545TIP3    H241195   1.093   0.609   1.693
 6546TIP3   OH241196   2.034   2.072   7.706
 6546TIP3    H141197   2.000   1.995   7.659
 6546TIP3    H241198   1.974   2.143   7.682
 6547TIP3   OH241199   1.023   3.365   2.138
 6547TIP3    H141200   1.109   3.405   2.149
 6547TIP3    H241201   1.019   3.341   2.045
 6548TIP3   OH241202   2.447   0.631   0.862
 6548TIP3    H141203   2.507   0.703   0.842
 6548TIP3    H241204   2.454   0.573   0.787
 6549TIP3   OH241205   2.483   4.106   1.027
 6549TIP3    H141206   2.403   4.057   1.010
 6549TIP3    H241207   2.519   4.066   1.107
 6550TIP3   OH241208   3.197   5.626   0.331
 6550TIP3    H141209   3.154   5.557   0.281
 6550TIP3    H241210   3.290   5.610   0.319
 6551TIP3   OH241211   0.855   1.920   8.566
 6551TIP3    H141212   0.888   2.009   8.574
 6551TIP3    H241213   0.921   1.865   8.609
 6552TIP3   OH241214   2.715   5.556   0.034
 6552TIP3    H141215   2.704   5.602   0.117
 6552TIP3    H241216   2.637   5.501   0.027
 6553TIP3   OH241217   6.530   4.015   7.311
 6553TIP3    H141218   6.515   3.927   7.346
 6553TIP3    H241219   6.442   4.048   7.292
 6554TIP3   OH241220   6.648   3.013   7.418
 6554TIP3    H141221   6.688   3.077   7.477
 6554TIP3    H241222   6.660   3.051   7.331
 6555TIP3   OH241223   2.698   2.020   8.616
 6555TIP3    H141224   2.617   2.003   8.568
 6555TIP3    H241225   2.760   1.955   8.582
 6556TIP3   OH241226   4.399   5.833   0.201
 6556TIP3    H141227   4.338   5.897   0.236
 6556TIP3    H241228   4.452   5.882   0.139
 6557TIP3   OH241229   2.384   0.063   0.937
 6557TIP3    H141230   2.468   0.057   0.983
 6557TIP3    H241231   2.363   0.156   0.936
 6558TIP3   OH241232   4.836   1.642   6.683
 6558TIP3    H141233   4.791   1.570   6.726
 6558TIP3    H241234   4.926   1.611   6.673
 6559TIP3   OH241235   0.285   3.407   0.071
 6559TIP3    H141236   0.320   3.475   0.014
 6559TIP3    H241237   0.291   3.327   0.020
 6560TIP3   OH241238   1.023   0.819   8.319
 6560TIP3    H141239   1.000   0.897   8.370
 6560TIP3    H241240   1.035   0.750   8.384
 6561TIP3   OH241241   5.477   5.299   6.737
 6561TIP3    H141242   5.471   5.221   6.680
 6561TIP3    H241243   5.543   5.276   6.802
 6562TIP3   OH241244   3.781   3.138   7.256
 6562TIP3    H141245   3.814   3.161   7.169
 6562TIP3    H241246   3.710   3.076   7.239
 6563TIP3   OH241247   3.861   3.103   1.150
 6563TIP3    H141248   3.909   3.035   1.103
 6563TIP3    H241249   3.927   3.145   1.205
 6564TIP3   OH241250   1.675   6.664   1.767
 6564TIP3    H141251   1.678   6.746   1.817
 6564TIP3    H241252   1.609   6.679   1.700
 6565TIP3   OH241253   2.582   5.720   6.607
 6565TIP3    H141254   2.530   5.792   6.572
 6565TIP3    H241255   2.520   5.648   6.617
 6566TIP3   OH241256   4.885   6.719   0.463
 6566TIP3    H141257   4.965   6.766   0.443
 6566TIP3    H241258   4.871   6.732   0.557
 6567TIP3   OH241259   2.010   4.020   8.569
 6567TIP3    H141260   1.941   4.084   8.553
 6567TIP3    H241261   2.037   3.991   8.481
 6568TIP3   OH241262   4.560   4.416   1.313
 6568TIP3    H141263   4.465   4.424   1.302
 6568TIP3    H241264   4.582   4.480   1.380
 6569TIP3   OH241265   1.650   4.576   5.907
 6569TIP3    H141266   1.741   4.599   5.886
 6569TIP3    H241267   1.625   4.637   5.976
 6570TIP3   OH241268   6.485   5.437   7.957
 6570TIP3    H141269   6.505   5.360   7.903
 6570TIP3    H241270   6.460   5.505   7.895
 6571TIP3   OH241271   3.663   5.778   0.999
 6571TIP3    H141272   3.698   5.746   1.083
 6571TIP3    H241273   3.735   5.767   0.938
 6572TIP3   OH241274   4.904   6.140   7.436
 6572TIP3    H141275   4.939   6.179   7.516
 6572TIP3    H241276   4.839   6.077   7.465
 6573TIP3   OH241277   0.969   2.530   1.985
 6573TIP3    H141278   0.921   2.604   1.947
 6573TIP3    H241279   1.056   2.535   1.945
 6574TIP3   OH241280   2.638   4.317   0.365
 6574TIP3    H141281   2.610   4.230   0.337
 6574TIP3    H241282   2.701   4.300   0.435
 6575TIP3   OH241283   2.380   1.011   6.632
 6575TIP3    H141284   2.300   0.962   6.649
 6575TIP3    H241285   2.384   1.076   6.702
 6576TIP3   OH241286   1.745   1.092   1.250
 6576TIP3    H141287   1.701   1.146   1.316
 6576TIP3    H241288   1.747   1.005   1.288
 6577TIP3   OH241289   3.139   0.424   1.012
 6577TIP3    H141290   3.152   0.329   1.021
 6577TIP3    H241291   3.223   0.457   0.980
 6578TIP3   OH241292   2.223   0.927   6.939
 6578TIP3    H141293   2.238   1.019   6.960
 6578TIP3    H241294   2.214   0.926   6.843
 6579TIP3   OH241295   1.661   4.212   0.070
 6579TIP3    H141296   1.696   4.278   0.011
 6579TIP3    H241297   1.738   4.169   0.107
 6580TIP3   OH241298   6.640   1.161   8.090
 6580TIP3    H141299   6.708   1.202   8.143
 6580TIP3    H241300   6.642   1.069   8.116
 6581TIP3   OH241301   1.052   0.840   1.499
 6581TIP3    H141302   1.036   0.850   1.405
 6581TIP3    H241303   1.089   0.924   1.526
 6582TIP3   OH241304   4.757   1.282   7.707
 6582TIP3    H141305   4.693   1.244   7.647
 6582TIP3    H241306   4.727   1.372   7.721
 6583TIP3   OH241307   6.802   0.140   2.642
 6583TIP3    H141308   6.776   0.211   2.583
 6583TIP3    H241309   0.078   0.143   2.643
 6584TIP3   OH241310   4.261   6.157   8.779
 6584TIP3    H141311   4.182   6.147   8.726
 6584TIP3    H241312   4.320   6.090   8.747
 6585TIP3   OH241313   5.980   5.266   1.148
 6585TIP3    H141314   5.920   5.331   1.112
 6585TIP3    H241315   5.924   5.192   1.172
 6586TIP3   OH241316   4.060   2.657   1.248
 6586TIP3    H141317   4.056   2.562   1.235
 6586TIP3    H241318   4.153   2.675   1.265
 6587TIP3   OH241319   5.012   3.828   1.465
 6587TIP3    H141320   4.996   3.748   1.416
 6587TIP3    H241321   4.927   3.871   1.469
 6588TIP3   OH241322   3.327   3.496   6.881
 6588TIP3    H141323   3.323   3.519   6.788
 6588TIP3    H241324   3.401   3.548   6.915
 6589TIP3   OH241325   6.040   4.066   0.803
 6589TIP3    H141326   5.982   4.137   0.775
 6589TIP3    H241327   6.118   4.076   0.748
 6590TIP3   OH241328   6.620   2.443   8.435
 6590TIP3    H141329   6.701   2.392   8.428
 6590TIP3    H241330   6.618   2.496   8.355
 6591TIP3   OH241331   0.203   5.384   1.493
 6591TIP3    H141332   0.222   5.321   1.562
 6591TIP3    H241333   0.128   5.347   1.446
 6592TIP3   OH241334   5.228   3.759   7.203
 6592TIP3    H141335   5.322   3.746   7.191
 6592TIP3    H241336   5.212   3.735   7.294
 6593TIP3   OH241337   2.242   4.980   7.331
 6593TIP3    H141338   2.216   5.044   7.265
 6593TIP3    H241339   2.307   5.025   7.385
 6594TIP3   OH241340   4.826   3.683   0.740
 6594TIP3    H141341   4.807   3.768   0.780
 6594TIP3    H241342   4.765   3.623   0.782
 6595TIP3   OH241343   2.100   1.621   8.567
 6595TIP3    H141344   2.013   1.661   8.565
 6595TIP3    H241345   2.138   1.642   8.482
 6596TIP3   OH241346   6.448   2.536   1.567
 6596TIP3    H141347   6.427   2.498   1.482
 6596TIP3    H241348   6.505   2.610   1.546
 6597TIP3   OH241349   6.235   1.908   2.018
 6597TIP3    H141350   6.202   1.838   1.962
 6597TIP3    H241351   6.227   1.987   1.964
 6598TIP3   OH241352   1.507   3.116   8.042
 6598TIP3    H141353   1.592   3.078   8.017
 6598TIP3    H241354   1.520   3.148   8.131
 6599TIP3   OH241355   6.275   5.070   8.694
 6599TIP3    H141356   6.248   5.112   8.775
 6599TIP3    H241357   6.304   4.983   8.721
 6600TIP3   OH241358   3.936   5.341   8.574
 6600TIP3    H141359   4.013   5.359   8.520
 6600TIP3    H241360   3.893   5.426   8.584
 6601TIP3   OH241361   1.027   1.403   7.595
 6601TIP3    H141362   1.077   1.438   7.669
 6601TIP3    H241363   0.936   1.414   7.621
 6602TIP3   OH241364   4.261   5.538   7.281
 6602TIP3    H141365   4.269   5.599   7.354
 6602TIP3    H241366   4.299   5.456   7.312
 6603TIP3   OH241367   1.142   5.823   0.050
 6603TIP3    H141368   1.120   5.749   0.107
 6603TIP3    H241369   1.235   5.839   0.065
 6604TIP3   OH241370   3.112   4.153   8.650
 6604TIP3    H141371   3.072   4.220   8.706
 6604TIP3    H241372   3.196   4.190   8.625
 6605TIP3   OH241373   3.757   4.537   7.371
 6605TIP3    H141374   3.774   4.623   7.332
 6605TIP3    H241375   3.838   4.488   7.358
 6606TIP3   OH241376   1.013   5.997   0.507
 6606TIP3    H141377   1.086   6.054   0.483
 6606TIP3    H241378   0.936   6.053   0.502
 6607TIP3   OH241379   5.915   4.170   1.149
 6607TIP3    H141380   5.876   4.097   1.101
 6607TIP3    H241381   5.928   4.238   1.082
 6608TIP3   OH241382   1.856   3.349   7.752
 6608TIP3    H141383   1.859   3.443   7.773
 6608TIP3    H241384   1.767   3.334   7.722
 6609TIP3   OH241385   2.194   0.979   1.831
 6609TIP3    H141386   2.145   0.950   1.908
 6609TIP3    H241387   2.132   1.034   1.783
 6610TIP3   OH241388   5.263   3.584   0.014
 6610TIP3    H141389   5.226   3.671   8.795
 6610TIP3    H241390   5.192   3.536   0.055
 6611TIP3   OH241391   3.949   3.101   6.163
 6611TIP3    H141392   4.011   3.140   6.224
 6611TIP3    H241393   3.868   3.150   6.176
 6612TIP3   OH241394   3.571   3.438   0.119
 6612TIP3    H141395   3.522   3.520   0.110
 6612TIP3    H241396   3.648   3.449   0.064
 6613TIP3   OH241397   4.585   3.080   7.669
 6613TIP3    H141398   4.647   3.137   7.715
 6613TIP3    H241399   4.547   3.026   7.739
 6614TIP3   OH241400   1.684   2.864   0.504
 6614TIP3    H141401   1.624   2.835   0.435
 6614TIP3    H241402   1.692   2.959   0.491
 6615TIP3   OH241403   4.125   5.541   1.869
 6615TIP3    H141404   4.217   5.535   1.896
 6615TIP3    H241405   4.083   5.465   1.912
 6616TIP3   OH241406   3.710   4.812   0.638
 6616TIP3    H141407   3.799   4.846   0.635
 6616TIP3    H241408   3.713   4.731   0.586
 6617TIP3   OH241409   4.149   6.380   7.467
 6617TIP3    H141410   4.105   6.462   7.488
 6617TIP3    H241411   4.079   6.315   7.463
 6618TIP3   OH241412   5.182   5.991   8.600
 6618TIP3    H141413   5.141   5.906   8.586
 6618TIP3    H241414   5.214   5.987   8.691
 6619TIP3   OH241415   2.330   6.103   6.273
 6619TIP3    H141416   2.304   6.195   6.262
 6619TIP3    H241417   2.418   6.107   6.310
 6620TIP3   OH241418   6.080   0.864   0.752
 6620TIP3    H141419   6.052   0.792   0.696
 6620TIP3    H241420   6.094   0.823   0.838
 6621TIP3   OH241421   1.973   0.874   8.025
 6621TIP3    H141422   1.948   0.948   8.080
 6621TIP3    H241423   1.890   0.829   8.006
 6622TIP3   OH241424   3.156   5.646   7.804
 6622TIP3    H141425   3.212   5.607   7.871
 6622TIP3    H241426   3.145   5.737   7.832
 6623TIP3   OH241427   0.045   3.227   7.390
 6623TIP3    H141428   0.007   3.280   7.321
 6623TIP3    H241429   0.137   3.218   7.366
 6624TIP3   OH241430   4.402   2.105   8.309
 6624TIP3    H141431   4.330   2.168   8.296
 6624TIP3    H241432   4.433   2.086   8.221
 6625TIP3   OH241433   2.405   5.845   6.463
 6625TIP3    H141434   2.410   5.937   6.489
 6625TIP3    H241435   2.316   5.835   6.428
 6626TIP3   OH241436   3.634   0.208   6.895
 6626TIP3    H141437   3.607   0.214   6.803
 6626TIP3    H241438   3.717   0.255   6.898
 6627TIP3   OH241439   3.932   2.457   2.741
 6627TIP3    H141440   4.007   2.511   2.766
 6627TIP3    H241441   3.882   2.512   2.681
 6628TIP3   OH241442   5.180   6.193   7.568
 6628TIP3    H141443   5.183   6.207   7.473
 6628TIP3    H241444   5.220   6.108   7.582
 6629TIP3   OH241445   0.270   6.726   6.525
 6629TIP3    H141446   0.327   6.708   6.451
 6629TIP3    H241447   0.283   6.653   6.585
 6630TIP3   OH241448   1.603   1.793   7.543
 6630TIP3    H141449   1.634   1.831   7.461
 6630TIP3    H241450   1.528   1.740   7.519
 6631TIP3   OH241451   2.660   5.079   7.539
 6631TIP3    H141452   2.631   5.141   7.606
 6631TIP3    H241453   2.676   4.998   7.587
 6632TIP3   OH241454   6.387   4.923   1.834
 6632TIP3    H141455   6.445   4.963   1.898
 6632TIP3    H241456   6.357   4.996   1.780
 6633TIP3   OH241457   2.773   4.011   6.887
 6633TIP3    H141458   2.698   4.070   6.879
 6633TIP3    H241459   2.734   3.924   6.886
 6634TIP3   OH241460   4.743   6.208   1.481
 6634TIP3    H141461   4.775   6.158   1.556
 6634TIP3    H241462   4.659   6.243   1.509
 6635TIP3   OH241463   4.010   4.975   0.617
 6635TIP3    H141464   3.982   5.044   0.677
 6635TIP3    H241465   4.090   5.008   0.576
 6636TIP3   OH241466   0.015   4.684   2.357
 6636TIP3    H141467   0.064   4.623   2.411
 6636TIP3    H241468   0.027   4.769   2.400
 6637TIP3   OH241469   3.169   6.202   7.297
 6637TIP3    H141470   3.139   6.251   7.374
 6637TIP3    H241471   3.183   6.269   7.231
 6638TIP3   OH241472   6.239   4.029   0.638
 6638TIP3    H141473   6.328   3.997   0.652
 6638TIP3    H241474   6.201   3.966   0.576
 6639TIP3   OH241475   1.992   5.017   1.308
 6639TIP3    H141476   2.085   5.037   1.312
 6639TIP3    H241477   1.950   5.084   1.363
 6640TIP3   OH241478   1.630   0.112   2.268
 6640TIP3    H141479   1.654   0.198   2.302
 6640TIP3    H241480   1.693   0.052   2.308
 6641TIP3   OH241481   6.686   5.930   8.500
 6641TIP3    H141482   6.687   5.836   8.516
 6641TIP3    H241483   6.760   5.944   8.440
 6642TIP3   OH241484   6.636   1.875   2.186
 6642TIP3    H141485   6.713   1.818   2.192
 6642TIP3    H241486   6.644   1.935   2.260
 6643TIP3   OH241487   1.178   0.546   1.237
 6643TIP3    H141488   1.184   0.500   1.321
 6643TIP3    H241489   1.220   0.630   1.252
 6644TIP3   OH241490   1.588   3.293   6.889
 6644TIP3    H141491   1.528   3.319   6.819
 6644TIP3    H241492   1.587   3.367   6.950
 6645TIP3   OH241493   3.524   1.307   0.676
 6645TIP3    H141494   3.608   1.352   0.673
 6645TIP3    H241495   3.543   1.218   0.646
 6646TIP3   OH241496   2.911   6.395   1.453
 6646TIP3    H141497   2.930   6.442   1.372
 6646TIP3    H241498   2.821   6.365   1.444
 6647TIP3   OH241499   5.035   1.285   6.802
 6647TIP3    H141500   4.991   1.329   6.729
 6647TIP3    H241501   4.970   1.223   6.835
 6648TIP3   OH241502   3.980   4.635   0.227
 6648TIP3    H141503   4.006   4.609   0.315
 6648TIP3    H241504   4.022   4.720   0.213
 6649TIP3   OH241505   3.681   5.296   1.415
 6649TIP3    H141506   3.768   5.334   1.422
 6649TIP3    H241507   3.680   5.226   1.481
 6650TIP3   OH241508   5.822   2.333   6.815
 6650TIP3    H141509   5.860   2.408   6.769
 6650TIP3    H241510   5.898   2.281   6.842
 6651TIP3   OH241511   3.030   5.451   0.885
 6651TIP3    H141512   3.122   5.476   0.881
 6651TIP3    H241513   2.987   5.507   0.820
 6652TIP3   OH241514   3.952   3.213   8.000
 6652TIP3    H141515   3.988   3.143   7.946
 6652TIP3    H241516   3.895   3.168   8.063
 6653TIP3   OH241517   3.692   4.526   8.125
 6653TIP3    H141518   3.617   4.482   8.166
 6653TIP3    H241519   3.696   4.490   8.037
 6654TIP3   OH241520   2.134   4.013   0.112
 6654TIP3    H141521   2.206   3.966   0.154
 6654TIP3    H241522   2.097   3.949   0.051
 6655TIP3   OH241523   0.769   3.952   8.263
 6655TIP3    H141524   0.754   3.919   8.351
 6655TIP3    H241525   0.843   4.012   8.272
 6656TIP3   OH241526   0.939   1.373   0.305
 6656TIP3    H141527   0.906   1.295   0.261
 6656TIP3    H241528   0.873   1.393   0.371
 6657TIP3   OH241529   1.334   5.203   2.174
 6657TIP3    H141530   1.344   5.186   2.268
 6657TIP3    H241531   1.321   5.298   2.169
 6658TIP3   OH241532   4.857   3.398   1.450
 6658TIP3    H141533   4.773   3.387   1.406
 6658TIP3    H241534   4.835   3.433   1.536
 6659TIP3   OH241535   3.141   0.517   6.758
 6659TIP3    H141536   3.075   0.461   6.718
 6659TIP3    H241537   3.123   0.604   6.722
 6660TIP3   OH241538   4.039   0.892   7.159
 6660TIP3    H141539   4.073   0.948   7.229
 6660TIP3    H241540   4.093   0.911   7.083
 6661TIP3   OH241541   1.281   1.951   0.346
 6661TIP3    H141542   1.248   1.878   0.293
 6661TIP3    H241543   1.290   1.915   0.434
 6662TIP3   OH241544   0.306   2.311   0.379
 6662TIP3    H141545   0.396   2.325   0.350
 6662TIP3    H241546   0.251   2.351   0.311
 6663TIP3   OH241547   3.367   3.683   8.401
 6663TIP3    H141548   3.291   3.624   8.405
 6663TIP3    H241549   3.351   3.747   8.469
 6664TIP3   OH241550   6.689   2.032   2.426
 6664TIP3    H141551   6.712   2.119   2.394
 6664TIP3    H241552   6.772   1.994   2.456
 6665TIP3   OH241553   6.450   4.935   0.825
 6665TIP3    H141554   6.499   4.868   0.873
 6665TIP3    H241555   6.371   4.890   0.796
 6666TIP3   OH241556   0.432   0.478   0.128
 6666TIP3    H141557   0.403   0.561   0.164
 6666TIP3    H241558   0.506   0.500   0.071
 6667TIP3   OH241559   2.841   2.862   0.038
 6667TIP3    H141560   2.930   2.875   0.004
 6667TIP3    H241561   2.841   2.906   0.123
 6668TIP3   OH241562   2.354   4.292   7.049
 6668TIP3    H141563   2.300   4.261   7.122
 6668TIP3    H241564   2.298   4.353   7.002
 6669TIP3   OH241565   1.559   4.444   6.731
 6669TIP3    H141566   1.530   4.501   6.660
 6669TIP3    H241567   1.653   4.461   6.738
 6670TIP3   OH241568   6.168   5.651   1.916
 6670TIP3    H141569   6.176   5.738   1.955
 6670TIP3    H241570   6.159   5.592   1.990
 6671TIP3   OH241571   5.314   2.273   8.457
 6671TIP3    H141572   5.253   2.322   8.401
 6671TIP3    H241573   5.278   2.282   8.545
 6672TIP3   OH241574   5.873   1.248   1.242
 6672TIP3    H141575   5.903   1.185   1.178
 6672TIP3    H241576   5.953   1.280   1.284
 6673TIP3   OH241577   5.806   6.663   0.333
 6673TIP3    H141578   5.881   6.620   0.292
 6673TIP3    H241579   5.834   6.679   0.423
 6674TIP3   OH241580   1.609   2.703   1.294
 6674TIP3    H141581   1.703   2.682   1.300
 6674TIP3    H241582   1.574   2.638   1.234
 6675TIP3   OH241583   1.588   0.551   7.823
 6675TIP3    H141584   1.592   0.460   7.791
 6675TIP3    H241585   1.669   0.590   7.792
 6676TIP3   OH241586   3.864   3.495   6.242
 6676TIP3    H141587   3.888   3.559   6.175
 6676TIP3    H241588   3.948   3.465   6.277
 6677TIP3   OH241589   0.289   2.210   8.136
 6677TIP3    H141590   0.205   2.250   8.160
 6677TIP3    H241591   0.309   2.248   8.050
 6678TIP3   OH241592   2.230   5.212   6.675
 6678TIP3    H141593   2.271   5.278   6.731
 6678TIP3    H241594   2.229   5.252   6.588
 6679TIP3   OH241595   3.110   1.648   8.423
 6679TIP3    H141596   3.144   1.734   8.401
 6679TIP3    H241597   3.060   1.661   8.503
 6680TIP3   OH241598   4.593   6.413   8.310
 6680TIP3    H141599   4.665   6.463   8.272
 6680TIP3    H241600   4.570   6.349   8.243
 6681TIP3   OH241601   5.327   2.767   0.166
 6681TIP3    H141602   5.422   2.774   0.156
 6681TIP3    H241603   5.291   2.832   0.106
 6682TIP3   OH241604   5.541   0.933   7.756
 6682TIP3    H141605   5.451   0.948   7.726
 6682TIP3    H241606   5.549   0.986   7.835
 6683TIP3   OH241607   4.787   5.467   7.265
 6683TIP3    H141608   4.720   5.482   7.332
 6683TIP3    H241609   4.811   5.375   7.275
 6684TIP3   OH241610   1.157   3.222   0.935
 6684TIP3    H141611   1.191   3.308   0.907
 6684TIP3    H241612   1.215   3.159   0.893
 6685TIP3   OH241613   1.815   3.053   8.001
 6685TIP3    H141614   1.849   3.142   7.993
 6685TIP3    H241615   1.836   3.028   8.091
 6686TIP3   OH241616   5.006   1.853   8.785
 6686TIP3    H141617   4.989   1.932   0.036
 6686TIP3    H241618   4.924   1.835   8.740
 6687TIP3   OH241619   2.493   0.731   0.441
 6687TIP3    H141620   2.503   0.821   0.410
 6687TIP3    H241621   2.476   0.680   0.362
 6688TIP3   OH241622   3.895   3.153   0.239
 6688TIP3    H141623   3.912   3.175   0.331
 6688TIP3    H241624   3.955   3.081   0.220
 6689TIP3   OH241625   1.112   2.461   2.244
 6689TIP3    H141626   1.132   2.515   2.321
 6689TIP3    H241627   1.195   2.453   2.199
 6690TIP3   OH241628   0.923   2.934   8.664
 6690TIP3    H141629   0.979   2.999   8.622
 6690TIP3    H241630   0.964   2.918   8.749
 6691TIP3   OH241631   6.480   0.301   1.726
 6691TIP3    H141632   6.422   0.329   1.797
 6691TIP3    H241633   6.557   0.358   1.734
 6692TIP3   OH241634   0.906   1.722   8.023
 6692TIP3    H141635   0.924   1.795   7.965
 6692TIP3    H241636   0.814   1.731   8.047
 6693TIP3   OH241637   6.221   4.904   7.301
 6693TIP3    H141638   6.266   4.856   7.232
 6693TIP3    H241639   6.144   4.851   7.321
 6694TIP3   OH241640   5.564   0.177   7.980
 6694TIP3    H141641   5.482   0.224   7.963
 6694TIP3    H241642   5.625   0.214   7.916
 6695TIP3   OH241643   3.707   2.599   7.402
 6695TIP3    H141644   3.677   2.688   7.385
 6695TIP3    H241645   3.702   2.555   7.317
 6696TIP3   OH241646   2.092   0.146   1.734
 6696TIP3    H141647   2.128   0.084   1.671
 6696TIP3    H241648   2.142   0.131   1.814
 6697TIP3   OH241649   2.898   5.331   6.408
 6697TIP3    H141650   2.889   5.341   6.503
 6697TIP3    H241651   2.830   5.387   6.371
 6698TIP3   OH241652   4.106   3.113   0.528
 6698TIP3    H141653   4.147   3.131   0.613
 6698TIP3    H241654   4.015   3.141   0.540
 6699TIP3   OH241655   0.504   5.131   0.683
 6699TIP3    H141656   0.580   5.073   0.673
 6699TIP3    H241657   0.452   5.090   0.752
 6700TIP3   OH241658   4.991   6.808   8.178
 6700TIP3    H141659   4.915   6.815   8.235
 6700TIP3    H241660   5.030   0.075   8.180
 6701TIP3   OH241661   5.698   0.258   7.010
 6701TIP3    H141662   5.633   0.299   7.068
 6701TIP3    H241663   5.768   0.323   7.004
 6702TIP3   OH241664   5.314   1.253   8.469
 6702TIP3    H141665   5.342   1.228   8.381
 6702TIP3    H241666   5.243   1.315   8.454
 6703TIP3   OH241667   2.820   2.436   8.759
 6703TIP3    H141668   2.835   2.351   8.718
 6703TIP3    H241669   2.740   2.469   8.717
 6704TIP3   OH241670   4.256   3.971   6.879
 6704TIP3    H141671   4.247   3.931   6.793
 6704TIP3    H241672   4.323   3.919   6.923
 6705TIP3   OH241673   2.764   3.300   6.661
 6705TIP3    H141674   2.837   3.360   6.646
 6705TIP3    H241675   2.750   3.257   6.576
 6706TIP3   OH241676   5.689   1.993   8.254
 6706TIP3    H141677   5.748   1.947   8.194
 6706TIP3    H241678   5.650   1.923   8.306
 6707TIP3   OH241679   0.470   3.720   7.853
 6707TIP3    H141680   0.430   3.792   7.805
 6707TIP3    H241681   0.436   3.641   7.811
 6708TIP3   OH241682   1.834   2.909   1.248
 6708TIP3    H141683   1.824   2.817   1.225
 6708TIP3    H241684   1.914   2.912   1.301
 6709TIP3   OH241685   5.638   1.693   7.219
 6709TIP3    H141686   5.566   1.744   7.255
 6709TIP3    H241687   5.621   1.604   7.248
 6710TIP3   OH241688   3.576   1.178   8.729
 6710TIP3    H141689   3.584   1.267   8.695
 6710TIP3    H241690   3.651   1.168   8.787
 6711TIP3   OH241691   4.596   3.792   1.452
 6711TIP3    H141692   4.529   3.822   1.513
 6711TIP3    H241693   4.546   3.763   1.375
 6712TIP3   OH241694   2.812   4.097   1.648
 6712TIP3    H141695   2.840   4.168   1.590
 6712TIP3    H241696   2.754   4.043   1.594
 6713TIP3   OH241697   0.115   5.928   7.836
 6713TIP3    H141698   0.069   6.012   7.846
 6713TIP3    H241699   0.185   5.947   7.773
 6714TIP3   OH241700   5.738   4.994   8.280
 6714TIP3    H141701   5.811   4.938   8.307
 6714TIP3    H241702   5.766   5.083   8.302
 6715TIP3   OH241703   3.177   2.413   7.389
 6715TIP3    H141704   3.162   2.416   7.295
 6715TIP3    H241705   3.248   2.476   7.404
 6716TIP3   OH241706   4.134   5.802   1.792
 6716TIP3    H141707   4.114   5.844   1.875
 6716TIP3    H241708   4.111   5.710   1.805
 6717TIP3   OH241709   2.048   1.404   1.080
 6717TIP3    H141710   2.117   1.384   1.017
 6717TIP3    H241711   2.049   1.330   1.141
 6718TIP3   OH241712   4.718   2.382   6.182
 6718TIP3    H141713   4.731   2.338   6.098
 6718TIP3    H241714   4.784   2.451   6.184
 6719TIP3   OH241715   0.479   1.779   1.270
 6719TIP3    H141716   0.467   1.863   1.314
 6719TIP3    H241717   0.390   1.751   1.247
 6720TIP3   OH241718   3.213   5.450   8.478
 6720TIP3    H141719   3.153   5.522   8.498
 6720TIP3    H241720   3.271   5.446   8.554
 6721TIP3   OH241721   0.349   4.466   1.298
 6721TIP3    H141722   0.368   4.372   1.294
 6721TIP3    H241723   0.325   4.489   1.208
 6722TIP3   OH241724   0.236   4.439   1.920
 6722TIP3    H141725   0.245   4.510   1.983
 6722TIP3    H241726   0.258   4.360   1.969
 6723TIP3   OH241727   0.300   4.691   0.305
 6723TIP3    H141728   0.291   4.773   0.353
 6723TIP3    H241729   0.391   4.666   0.316
 6724TIP3   OH241730   0.036   4.255   2.261
 6724TIP3    H141731   0.105   4.307   2.304
 6724TIP3    H241732   0.020   4.182   2.321
 6725TIP3   OH241733   4.398   5.543   1.671
 6725TIP3    H141734   4.471   5.497   1.630
 6725TIP3    H241735   4.359   5.479   1.731
 6726TIP3   OH241736   2.475   2.308   0.193
 6726TIP3    H141737   2.566   2.295   0.167
 6726TIP3    H241738   2.452   2.395   0.159
 6727TIP3   OH241739   5.381   5.748   2.472
 6727TIP3    H141740   5.375   5.708   2.386
 6727TIP3    H241741   5.444   5.819   2.461
 6728TIP3   OH241742   5.662   5.272   0.177
 6728TIP3    H141743   5.701   5.337   0.236
 6728TIP3    H241744   5.734   5.249   0.118
 6729TIP3   OH241745   1.807   2.698   8.194
 6729TIP3    H141746   1.804   2.604   8.213
 6729TIP3    H241747   1.723   2.716   8.152
 6730TIP3   OH241748   4.246   0.583   0.578
 6730TIP3    H141749   4.221   0.537   0.658
 6730TIP3    H241750   4.269   0.671   0.607
 6731TIP3   OH241751   1.307   4.110   6.941
 6731TIP3    H141752   1.343   4.109   6.852
 6731TIP3    H241753   1.349   4.037   6.985
 6732TIP3   OH241754   6.343   2.240   6.624
 6732TIP3    H141755   6.294   2.290   6.559
 6732TIP3    H241756   6.336   2.149   6.594
 6733TIP3   OH241757   3.879   1.342   7.867
 6733TIP3    H141758   3.856   1.332   7.775
 6733TIP3    H241759   3.802   1.311   7.915
 6734TIP3   OH241760   2.153   1.516   1.816
 6734TIP3    H141761   2.200   1.439   1.784
 6734TIP3    H241762   2.105   1.484   1.892
 6735TIP3   OH241763   6.807   6.585   2.039
 6735TIP3    H141764   0.075   6.558   2.063
 6735TIP3    H241765   6.749   6.520   2.080
 6736TIP3   OH241766   2.426   3.285   2.043
 6736TIP3    H141767   2.462   3.197   2.048
 6736TIP3    H241768   2.500   3.340   2.017
 6737TIP3   OH241769   4.711   1.364   1.072
 6737TIP3    H141770   4.726   1.359   0.978
 6737TIP3    H241771   4.617   1.385   1.079
 6738TIP3   OH241772   3.307   6.096   1.861
 6738TIP3    H141773   3.362   6.035   1.812
 6738TIP3    H241774   3.350   6.105   1.946
 6739TIP3   OH241775   6.727   4.365   8.771
 6739TIP3    H141776   6.693   4.316   8.696
 6739TIP3    H241777   0.000   4.376   8.752
 6740TIP3   OH241778   4.545   0.333   8.117
 6740TIP3    H141779   4.475   0.293   8.169
 6740TIP3    H241780   4.504   0.408   8.074
 6741TIP3   OH241781   3.226   1.434   8.571
 6741TIP3    H141782   3.151   1.470   8.524
 6741TIP3    H241783   3.200   1.344   8.592
 6742TIP3   OH241784   2.234   3.197   0.586
 6742TIP3    H141785   2.232   3.234   0.675
 6742TIP3    H241786   2.288   3.258   0.536
 6743TIP3   OH241787   3.557   2.981   0.739
 6743TIP3    H141788   3.528   2.897   0.774
 6743TIP3    H241789   3.514   3.046   0.795
 6744TIP3   OH241790   0.378   3.522   0.779
 6744TIP3    H141791   0.302   3.464   0.772
 6744TIP3    H241792   0.365   3.568   0.862
 6745TIP3   OH241793   3.234   3.593   8.764
 6745TIP3    H141794   3.217   3.566   8.673
 6745TIP3    H241795   3.192   3.526   0.017
 6746TIP3   OH241796   4.626   1.332   6.984
 6746TIP3    H141797   4.543   1.331   7.031
 6746TIP3    H241798   4.603   1.353   6.894
 6747TIP3   OH241799   1.497   2.854   1.084
 6747TIP3    H141800   1.490   2.769   1.041
 6747TIP3    H241801   1.441   2.847   1.161
 6748TIP3   OH241802   2.822   4.105   0.122
 6748TIP3    H141803   2.783   4.045   0.058
 6748TIP3    H241804   2.750   4.128   0.180
 6749TIP3   OH241805   0.924   3.396   7.564
 6749TIP3    H141806   0.976   3.316   7.567
 6749TIP3    H241807   0.942   3.432   7.477
 6750TIP3   OH241808   4.910   0.424   7.680
 6750TIP3    H141809   4.935   0.497   7.737
 6750TIP3    H241810   4.964   0.435   7.602
 6751TIP3   OH241811   0.053   5.064   2.086
 6751TIP3    H141812   0.040   5.122   2.011
 6751TIP3    H241813   6.791   5.069   2.135
 6752TIP3   OH241814   6.541   3.706   6.652
 6752TIP3    H141815   6.592   3.656   6.717
 6752TIP3    H241816   6.516   3.786   6.698
 6753TIP3   OH241817   5.191   4.835   1.445
 6753TIP3    H141818   5.098   4.841   1.467
 6753TIP3    H241819   5.201   4.748   1.408
 6754TIP3   OH241820   5.069   4.587   8.522
 6754TIP3    H141821   5.083   4.585   8.617
 6754TIP3    H241822   5.151   4.619   8.486
 6755TIP3   OH241823   5.180   3.292   7.706
 6755TIP3    H141824   5.241   3.364   7.720
 6755TIP3    H241825   5.214   3.247   7.628
 6756TIP3   OH241826   5.998   1.447   1.804
 6756TIP3    H141827   5.919   1.500   1.800
 6756TIP3    H241828   5.974   1.363   1.764
 6757TIP3   OH241829   0.891   4.506   0.052
 6757TIP3    H141830   0.958   4.482   8.788
 6757TIP3    H241831   0.939   4.558   0.117
 6758TIP3   OH241832   3.355   6.177   2.319
 6758TIP3    H141833   3.399   6.161   2.235
 6758TIP3    H241834   3.267   6.142   2.307
 6759TIP3   OH241835   5.670   0.904   1.611
 6759TIP3    H141836   5.642   0.830   1.557
 6759TIP3    H241837   5.600   0.914   1.676
 6760TIP3   OH241838   3.839   1.313   7.587
 6760TIP3    H141839   3.778   1.239   7.582
 6760TIP3    H241840   3.784   1.391   7.577
 6761TIP3   OH241841   6.146   2.324   0.248
 6761TIP3    H141842   6.206   2.369   0.189
 6761TIP3    H241843   6.135   2.384   0.322
 6762TIP3   OH241844   4.766   3.503   6.880
 6762TIP3    H141845   4.741   3.439   6.814
 6762TIP3    H241846   4.734   3.587   6.846
 6763TIP3   OH241847   6.122   1.688   1.881
 6763TIP3    H141848   6.079   1.609   1.849
 6763TIP3    H241849   6.081   1.760   1.832
 6764TIP3   OH241850   3.986   5.290   7.012
 6764TIP3    H141851   4.006   5.308   6.921
 6764TIP3    H241852   3.891   5.288   7.016
 6765TIP3   OH241853   1.966   0.142   7.206
 6765TIP3    H141854   1.889   0.198   7.195
 6765TIP3    H241855   2.011   0.178   7.283
 6766TIP3   OH241856   4.260   3.303   0.743
 6766TIP3    H141857   4.219   3.366   0.685
 6766TIP3    H241858   4.192   3.279   0.805
 6767TIP3   OH241859   5.200   4.977   0.943
 6767TIP3    H141860   5.160   5.019   0.867
 6767TIP3    H241861   5.294   4.991   0.932
 6768TIP3   OH241862   1.131   6.775   7.327
 6768TIP3    H141863   1.073   6.700   7.332
 6768TIP3    H241864   1.114   6.813   7.241
 6769TIP3   OH241865   1.022   1.555   0.593
 6769TIP3    H141866   0.961   1.536   0.664
 6769TIP3    H241867   1.097   1.596   0.636
 6770TIP3   OH241868   0.634   0.890   2.395
 6770TIP3    H141869   0.715   0.922   2.435
 6770TIP3    H241870   0.608   0.816   2.450
 6771TIP3   OH241871   2.256   1.296   0.919
 6771TIP3    H141872   2.316   1.370   0.922
 6771TIP3    H241873   2.237   1.284   0.826
 6772TIP3   OH241874   0.124   1.058   0.628
 6772TIP3    H141875   0.049   1.003   0.605
 6772TIP3    H241876   0.162   1.083   0.543
 6773TIP3   OH241877   1.547   5.673   8.299
 6773TIP3    H141878   1.599   5.648   8.223
 6773TIP3    H241879   1.464   5.625   8.287
 6774TIP3   OH241880   6.259   5.679   1.571
 6774TIP3    H141881   6.202   5.724   1.633
 6774TIP3    H241882   6.229   5.709   1.485
 6775TIP3   OH241883   1.650   5.546   0.309
 6775TIP3    H141884   1.615   5.635   0.312
 6775TIP3    H241885   1.715   5.544   0.379
 6776TIP3   OH241886   4.200   5.400   1.341
 6776TIP3    H141887   4.228   5.333   1.404
 6776TIP3    H241888   4.156   5.466   1.394
 6777TIP3   OH241889   0.405   2.217   7.540
 6777TIP3    H141890   0.472   2.159   7.578
 6777TIP3    H241891   0.378   2.173   7.460
 6778TIP3   OH241892   3.217   3.878   8.627
 6778TIP3    H141893   3.168   3.829   8.693
 6778TIP3    H241894   3.185   3.968   8.636
 6779TIP3   OH241895   5.325   1.614   7.746
 6779TIP3    H141896   5.260   1.681   7.725
 6779TIP3    H241897   5.399   1.635   7.689
 6780TIP3   OH241898   5.351   1.161   7.368
 6780TIP3    H141899   5.273   1.203   7.332
 6780TIP3    H241900   5.346   1.177   7.462
 6781TIP3   OH241901   1.485   6.684   1.018
 6781TIP3    H141902   1.563   6.739   1.016
 6781TIP3    H241903   1.465   6.673   1.111
 6782TIP3   OH241904   4.219   0.249   1.746
 6782TIP3    H141905   4.270   0.227   1.824
 6782TIP3    H241906   4.201   0.165   1.704
 6783TIP3   OH241907   1.152   2.180   7.353
 6783TIP3    H141908   1.200   2.139   7.281
 6783TIP3    H241909   1.139   2.271   7.325
 6784TIP3   OH241910   4.600   3.678   0.471
 6784TIP3    H141911   4.600   3.637   0.558
 6784TIP3    H241912   4.661   3.625   0.420
 6785TIP3   OH241913   5.490   4.643   0.528
 6785TIP3    H141914   5.395   4.629   0.533
 6785TIP3    H241915   5.525   4.558   0.501
 6786TIP3   OH241916   1.347   0.848   0.481
 6786TIP3    H141917   1.377   0.933   0.513
 6786TIP3    H241918   1.295   0.868   0.403
 6787TIP3   OH241919   2.318   4.710   7.024
 6787TIP3    H141920   2.343   4.787   6.973
 6787TIP3    H241921   2.223   4.706   7.016
 6788TIP3   OH241922   1.451   0.289   7.268
 6788TIP3    H141923   1.401   0.266   7.346
 6788TIP3    H241924   1.464   0.206   7.223
 6789TIP3   OH241925   3.785   2.266   6.953
 6789TIP3    H141926   3.690   2.280   6.946
 6789TIP3    H241927   3.804   2.198   6.889
 6790TIP3   OH241928   6.726   6.477   7.129
 6790TIP3    H141929   6.762   6.410   7.071
 6790TIP3    H241930   6.759   6.560   7.094
 6791TIP3   OH241931   6.165   5.784   0.769
 6791TIP3    H141932   6.150   5.878   0.764
 6791TIP3    H241933   6.240   5.768   0.712
 6792TIP3   OH241934   2.512   4.679   7.533
 6792TIP3    H141935   2.430   4.699   7.578
 6792TIP3    H241936   2.494   4.699   7.441
 6793TIP3   OH241937   3.161   1.991   1.683
 6793TIP3    H141938   3.254   2.014   1.673
 6793TIP3    H241939   3.138   2.023   1.770
 6794TIP3   OH241940   3.900   5.121   7.383
 6794TIP3    H141941   3.823   5.094   7.434
 6794TIP3    H241942   3.958   5.160   7.448
 6795TIP3   OH241943   3.357   1.414   7.381
 6795TIP3    H141944   3.370   1.355   7.455
 6795TIP3    H241945   3.263   1.435   7.384
 6796TIP3   OH241946   3.033   3.435   0.053
 6796TIP3    H141947   3.033   3.402   0.143
 6796TIP3    H241948   3.002   3.362   0.001
 6797TIP3   OH241949   4.759   3.511   8.479
 6797TIP3    H141950   4.813   3.545   8.408
 6797TIP3    H241951   4.781   3.418   8.485
 6798TIP3   OH241952   6.365   3.518   8.065
 6798TIP3    H141953   6.426   3.585   8.096
 6798TIP3    H241954   6.316   3.560   7.995
 6799TIP3   OH241955   5.028   4.068   7.847
 6799TIP3    H141956   5.029   4.122   7.925
 6799TIP3    H241957   4.978   3.990   7.872
 6800TIP3   OH241958   3.131   5.139   7.441
 6800TIP3    H141959   3.049   5.102   7.474
 6800TIP3    H241960   3.199   5.101   7.497
 6801TIP3   OH241961   3.479   6.150   0.734
 6801TIP3    H141962   3.405   6.098   0.764
 6801TIP3    H241963   3.440   6.220   0.682
 6802TIP3   OH241964   2.030   6.048   7.230
 6802TIP3    H141965   2.015   5.982   7.298
 6802TIP3    H241966   1.948   6.097   7.225
 6803TIP3   OH241967   6.277   2.985   1.980
 6803TIP3    H141968   6.217   3.047   1.939
 6803TIP3    H241969   6.353   2.983   1.921
 6804TIP3   OH241970   0.525   1.111   7.102
 6804TIP3    H141971   0.440   1.069   7.092
 6804TIP3    H241972   0.524   1.182   7.038
 6805TIP3   OH241973   4.827   3.411   0.899
 6805TIP3    H141974   4.854   3.341   0.840
 6805TIP3    H241975   4.744   3.442   0.863
 6806TIP3   OH241976   0.579   3.905   1.359
 6806TIP3    H141977   0.599   3.857   1.439
 6806TIP3    H241978   0.586   3.840   1.289
 6807TIP3   OH241979   4.292   6.733   8.761
 6807TIP3    H141980   4.260   6.646   8.736
 6807TIP3    H241981   4.388   6.723   8.761
 6808TIP3   OH241982   1.035   1.284   8.625
 6808TIP3    H141983   0.965   1.348   8.614
 6808TIP3    H241984   1.003   1.206   8.580
 6809TIP3   OH241985   1.855   2.538   6.362
 6809TIP3    H141986   1.923   2.600   6.336
 6809TIP3    H241987   1.776   2.571   6.319
 6810TIP3   OH241988   5.417   3.448   0.260
 6810TIP3    H141989   5.371   3.527   0.233
 6810TIP3    H241990   5.505   3.458   0.223
 6811TIP3   OH241991   4.570   5.830   8.358
 6811TIP3    H141992   4.496   5.891   8.359
 6811TIP3    H241993   4.580   5.804   8.450
 6812TIP3   OH241994   3.316   5.275   1.381
 6812TIP3    H141995   3.375   5.200   1.390
 6812TIP3    H241996   3.375   5.350   1.368
 6813TIP3   OH241997   1.725   2.897   7.757
 6813TIP3    H141998   1.662   2.969   7.750
 6813TIP3    H241999   1.775   2.917   7.836
 6814TIP3   OH242000   6.266   5.830   2.294
 6814TIP3    H142001   6.269   5.904   2.354
 6814TIP3    H242002   6.232   5.758   2.346
 6815TIP3   OH242003   6.714   3.633   1.049
 6815TIP3    H142004   6.799   3.675   1.064
 6815TIP3    H242005   6.724   3.545   1.085
 6816TIP3   OH242006   2.401   2.387   6.555
 6816TIP3    H142007   2.318   2.402   6.508
 6816TIP3    H242008   2.407   2.459   6.617
 6817TIP3   OH242009   0.952   4.676   7.254
 6817TIP3    H142010   0.957   4.644   7.344
 6817TIP3    H242011   0.877   4.630   7.217
 6818TIP3   OH242012   1.144   6.781   1.726
 6818TIP3    H142013   1.142   6.735   1.643
 6818TIP3    H242014   1.236   6.778   1.753
 6819TIP3   OH242015   3.020   1.712   8.662
 6819TIP3    H142016   3.078   1.786   8.679
 6819TIP3    H242017   2.935   1.752   8.641
 6820TIP3   OH242018   2.986   2.087   7.706
 6820TIP3    H142019   3.078   2.078   7.681
 6820TIP3    H242020   2.961   2.173   7.672
 6821TIP3   OH242021   0.611   3.146   0.636
 6821TIP3    H142022   0.590   3.063   0.595
 6821TIP3    H242023   0.673   3.188   0.576
 6822TIP3   OH242024   1.912   4.283   7.434
 6822TIP3    H142025   1.832   4.290   7.381
 6822TIP3    H242026   1.966   4.356   7.405
 6823TIP3   OH242027   4.951   5.713   7.955
 6823TIP3    H142028   4.871   5.728   7.904
 6823TIP3    H242029   4.956   5.788   8.014
 6824TIP3   OH242030   4.254   5.941   0.612
 6824TIP3    H142031   4.346   5.927   0.590
 6824TIP3    H242032   4.218   5.853   0.624
 6825TIP3   OH242033   4.567   5.809   6.523
 6825TIP3    H142034   4.627   5.861   6.578
 6825TIP3    H242035   4.617   5.792   6.444
 6826TIP3   OH242036   2.585   5.802   0.404
 6826TIP3    H142037   2.522   5.874   0.399
 6826TIP3    H242038   2.623   5.809   0.491
 6827TIP3   OH242039   4.694   0.017   8.090
 6827TIP3    H142040   4.604   0.029   8.059
 6827TIP3    H242041   4.728   0.106   8.098
 6828TIP3   OH242042   4.001   4.133   6.411
 6828TIP3    H142043   3.954   4.208   6.447
 6828TIP3    H242044   4.093   4.159   6.414
 6829TIP3   OH242045   2.274   2.756   8.732
 6829TIP3    H142046   2.266   2.725   8.642
 6829TIP3    H242047   2.207   2.824   8.739
 6830TIP3   OH242048   0.237   1.514   1.616
 6830TIP3    H142049   0.302   1.465   1.566
 6830TIP3    H242050   0.158   1.461   1.612
 6831TIP3   OH242051   0.877   5.953   8.572
 6831TIP3    H142052   0.956   5.916   8.532
 6831TIP3    H242053   0.882   5.926   8.664
 6832TIP3   OH242054   1.517   4.257   0.293
 6832TIP3    H142055   1.595   4.291   0.336
 6832TIP3    H242056   1.544   4.245   0.201
 6833TIP3   OH242057   5.716   3.439   8.051
 6833TIP3    H142058   5.753   3.383   8.119
 6833TIP3    H242059   5.627   3.407   8.039
 6834TIP3   OH242060   1.876   5.410   8.260
 6834TIP3    H142061   1.937   5.378   8.193
 6834TIP3    H242062   1.896   5.503   8.268
 6835TIP3   OH242063   2.121   2.684   6.333
 6835TIP3    H142064   2.207   2.682   6.290
 6835TIP3    H242065   2.139   2.726   6.418
 6836TIP3   OH242066   5.247   3.587   6.761
 6836TIP3    H142067   5.210   3.665   6.802
 6836TIP3    H242068   5.315   3.619   6.703
 6837TIP3   OH242069   1.114   5.524   1.690
 6837TIP3    H142070   1.019   5.527   1.676
 6837TIP3    H242071   1.128   5.443   1.740
 6838TIP3   OH242072   2.354   3.667   0.091
 6838TIP3    H142073   2.305   3.726   0.149
 6838TIP3    H242074   2.312   3.675   0.006
 6839TIP3   OH242075   6.062   5.331   7.264
 6839TIP3    H142076   6.040   5.361   7.353
 6839TIP3    H242077   5.983   5.349   7.213
 6840TIP3   OH242078   3.794   2.634   7.673
 6840TIP3    H142079   3.755   2.601   7.591
 6840TIP3    H242080   3.772   2.567   7.738
 6841TIP3   OH242081   5.060   2.108   7.858
 6841TIP3    H142082   5.118   2.064   7.921
 6841TIP3    H242083   5.119   2.160   7.804
 6842TIP3   OH242084   1.253   5.780   0.433
 6842TIP3    H142085   1.211   5.743   0.356
 6842TIP3    H242086   1.282   5.705   0.483
 6843TIP3   OH242087   5.360   3.491   7.820
 6843TIP3    H142088   5.412   3.428   7.870
 6843TIP3    H242089   5.401   3.576   7.838
 6844TIP3   OH242090   5.938   6.164   8.423
 6844TIP3    H142091   5.866   6.167   8.485
 6844TIP3    H242092   5.977   6.252   8.426
 6845TIP3   OH242093   6.573   3.656   7.882
 6845TIP3    H142094   6.503   3.720   7.870
 6845TIP3    H242095   6.604   3.670   7.972
 6846TIP3   OH242096   4.842   3.501   0.539
 6846TIP3    H142097   4.895   3.544   0.472
 6846TIP3    H242098   4.823   3.570   0.603
 6847TIP3   OH242099   4.057   4.353   1.206
 6847TIP3    H142100   4.036   4.260   1.215
 6847TIP3    H242101   3.985   4.398   1.252
 6848TIP3   OH242102   0.789   4.053   2.338
 6848TIP3    H142103   0.738   4.001   2.400
 6848TIP3    H242104   0.736   4.056   2.259
 6849TIP3   OH242105   5.751   3.249   7.657
 6849TIP3    H142106   5.799   3.332   7.658
 6849TIP3    H242107   5.818   3.183   7.642
 6850TIP3   OH242108   6.521   0.715   8.486
 6850TIP3    H142109   6.524   0.786   8.550
 6850TIP3    H242110   6.482   0.642   8.534
 6851TIP3   OH242111   5.757   2.029   6.794
 6851TIP3    H142112   5.839   2.010   6.748
 6851TIP3    H242113   5.714   2.095   6.739
 6852TIP3   OH242114   3.165   4.539   1.563
 6852TIP3    H142115   3.076   4.574   1.568
 6852TIP3    H242116   3.159   4.453   1.605
 6853TIP3   OH242117   3.737   5.696   8.445
 6853TIP3    H142118   3.718   5.641   8.520
 6853TIP3    H242119   3.815   5.746   8.470
 6854TIP3   OH242120   0.192   6.149   7.104
 6854TIP3    H142121   0.210   6.056   7.114
 6854TIP3    H242122   0.113   6.164   7.157
 6855TIP3   OH242123   0.697   5.829   1.742
 6855TIP3    H142124   0.701   5.759   1.677
 6855TIP3    H242125   0.618   5.879   1.719
 6856TIP3   OH242126   4.251   2.189   0.102
 6856TIP3    H142127   4.192   2.126   0.141
 6856TIP3    H242128   4.226   2.274   0.140
 6857TIP3   OH242129   0.680   0.876   2.114
 6857TIP3    H142130   0.648   0.888   2.204
 6857TIP3    H242131   0.704   0.784   2.109
 6858TIP3   OH242132   6.100   0.976   8.726
 6858TIP3    H142133   6.115   0.903   8.666
 6858TIP3    H242134   6.043   1.035   8.677
 6859TIP3   OH242135   0.525   1.363   6.952
 6859TIP3    H142136   0.551   1.320   6.871
 6859TIP3    H242137   0.564   1.451   6.946
 6860TIP3   OH242138   0.185   3.621   7.431
 6860TIP3    H142139   0.119   3.686   7.458
 6860TIP3    H242140   0.238   3.608   7.509
 6861TIP3   OH242141   1.782   3.845   7.936
 6861TIP3    H142142   1.803   3.924   7.985
 6861TIP3    H242143   1.692   3.823   7.961
 6862TIP3   OH242144   4.388   5.614   6.451
 6862TIP3    H142145   4.438   5.694   6.466
 6862TIP3    H242146   4.444   5.544   6.484
 6863TIP3   OH242147   1.601   3.695   2.117
 6863TIP3    H142148   1.694   3.688   2.095
 6863TIP3    H242149   1.555   3.661   2.040
 6864TIP3   OH242150   0.778   1.247   1.710
 6864TIP3    H142151   0.778   1.158   1.746
 6864TIP3    H242152   0.721   1.297   1.768
 6865TIP3   OH242153   4.712   0.757   8.377
 6865TIP3    H142154   4.765   0.811   8.319
 6865TIP3    H242155   4.631   0.741   8.328
 6866TIP3   OH242156   1.483   1.279   6.651
 6866TIP3    H142157   1.494   1.285   6.746
 6866TIP3    H242158   1.393   1.305   6.635
 6867TIP3   OH242159   6.433   0.728   7.206
 6867TIP3    H142160   6.390   0.763   7.128
 6867TIP3    H242161   6.372   0.747   7.277
 6868TIP3   OH242162   6.720   1.418   0.124
 6868TIP3    H142163   6.647   1.408   0.185
 6868TIP3    H242164   6.794   1.379   0.170
 6869TIP3   OH242165   4.616   6.555   6.483
 6869TIP3    H142166   4.549   6.600   6.433
 6869TIP3    H242167   4.696   6.606   6.468
 6870TIP3   OH242168   1.565   5.412   7.624
 6870TIP3    H142169   1.644   5.439   7.577
 6870TIP3    H242170   1.575   5.451   7.711
 6871TIP3   OH242171   5.365   0.256   6.529
 6871TIP3    H142172   5.389   0.294   6.613
 6871TIP3    H242173   5.284   0.300   6.504
 6872TIP3   OH242174   0.866   5.843   0.014
 6872TIP3    H142175   0.806   5.862   0.086
 6872TIP3    H242176   0.947   5.816   0.058
 6873TIP3   OH242177   5.428   6.424   1.600
 6873TIP3    H142178   5.396   6.365   1.669
 6873TIP3    H242179   5.467   6.497   1.647
 6874TIP3   OH242180   5.831   3.902   0.700
 6874TIP3    H142181   5.814   3.824   0.753
 6874TIP3    H242182   5.926   3.910   0.700
 6875TIP3   OH242183   1.889   6.052   1.673
 6875TIP3    H142184   1.832   6.067   1.598
 6875TIP3    H242185   1.976   6.038   1.635
 6876TIP3   OH242186   6.765   1.764   8.446
 6876TIP3    H142187   6.750   1.675   8.414
 6876TIP3    H242188   6.677   1.801   8.459
 6877TIP3   OH242189   4.888   6.570   1.568
 6877TIP3    H142190   4.801   6.546   1.536
 6877TIP3    H242191   4.871   6.633   1.638
 6878TIP3   OH242192   6.665   6.172   0.002
 6878TIP3    H142193   6.667   6.265   0.025
 6878TIP3    H242194   6.614   6.169   8.721
 6879TIP3   OH242195   3.120   1.645   8.087
 6879TIP3    H142196   3.086   1.661   8.175
 6879TIP3    H242197   3.043   1.622   8.035
 6880TIP3   OH242198   3.030   5.054   1.802
 6880TIP3    H142199   3.036   5.141   1.765
 6880TIP3    H242200   3.053   4.995   1.730
 6881TIP3   OH242201   0.887   6.345   1.157
 6881TIP3    H142202   0.974   6.341   1.117
 6881TIP3    H242203   0.828   6.363   1.084
 6882TIP3   OH242204   0.958   4.165   8.258
 6882TIP3    H142205   1.014   4.138   8.185
 6882TIP3    H242206   0.992   4.251   8.285
 6883TIP3   OH242207   6.094   4.501   7.870
 6883TIP3    H142208   6.032   4.537   7.934
 6883TIP3    H242209   6.122   4.418   7.908
 6884TIP3   OH242210   0.305   0.665   0.305
 6884TIP3    H142211   0.336   0.672   0.396
 6884TIP3    H242212   0.231   0.605   0.309
 6885TIP3   OH242213   4.408   3.138   7.888
 6885TIP3    H142214   4.384   3.087   7.966
 6885TIP3    H242215   4.391   3.229   7.913
 6886TIP3   OH242216   3.346   0.652   7.465
 6886TIP3    H142217   3.273   0.650   7.403
 6886TIP3    H242218   3.415   0.602   7.422
 6887TIP3   OH242219   1.756   0.477   7.475
 6887TIP3    H142220   1.791   0.487   7.563
 6887TIP3    H242221   1.713   0.561   7.456
 6888TIP3   OH242222   6.162   6.147   0.359
 6888TIP3    H142223   6.182   6.227   0.407
 6888TIP3    H242224   6.247   6.105   0.346
 6889TIP3   OH242225   3.411   2.549   8.387
 6889TIP3    H142226   3.411   2.645   8.385
 6889TIP3    H242227   3.491   2.524   8.341
 6890TIP3   OH242228   5.224   6.668   8.657
 6890TIP3    H142229   5.177   6.628   8.584
 6890TIP3    H242230   5.285   6.730   8.616
 6891TIP3   OH242231   2.821   1.537   6.967
 6891TIP3    H142232   2.904   1.566   6.929
 6891TIP3    H242233   2.837   1.535   7.061
 6892TIP3   OH242234   1.941   0.220   7.810
 6892TIP3    H142235   1.902   0.285   7.868
 6892TIP3    H242236   1.895   0.139   7.830
 6893TIP3   OH242237   3.200   4.972   0.557
 6893TIP3    H142238   3.243   5.030   0.619
 6893TIP3    H242239   3.108   4.973   0.583
 6894TIP3   OH242240   4.546   5.367   6.519
 6894TIP3    H142241   4.505   5.350   6.434
 6894TIP3    H242242   4.610   5.297   6.530
 6895TIP3   OH242243   6.317   0.849   2.068
 6895TIP3    H142244   6.286   0.924   2.119
 6895TIP3    H242245   6.240   0.794   2.059
 6896TIP3   OH242246   0.456   6.608   1.648
 6896TIP3    H142247   0.496   6.632   1.565
 6896TIP3    H242248   0.528   6.609   1.711
 6897TIP3   OH242249   1.323   5.892   7.490
 6897TIP3    H142250   1.297   5.981   7.513
 6897TIP3    H242251   1.317   5.890   7.394
 6898TIP3   OH242252   1.655   4.394   8.523
 6898TIP3    H142253   1.581   4.452   8.544
 6898TIP3    H242254   1.705   4.443   8.458
 6899TIP3   OH242255   2.529   2.031   2.089
 6899TIP3    H142256   2.581   1.994   2.161
 6899TIP3    H242257   2.584   2.101   2.054
 6900TIP3   OH242258   1.949   0.076   1.294
 6900TIP3    H142259   1.980   0.079   1.204
 6900TIP3    H242260   2.028   0.063   1.347
 6901TIP3   OH242261   3.817   3.569   7.692
 6901TIP3    H142262   3.809   3.638   7.627
 6901TIP3    H242263   3.854   3.612   7.769
 6902TIP3   OH242264   1.542   5.796   0.360
 6902TIP3    H142265   1.522   5.841   0.278
 6902TIP3    H242266   1.456   5.777   0.398
 6903TIP3   OH242267   6.446   2.869   7.939
 6903TIP3    H142268   6.416   2.783   7.968
 6903TIP3    H242269   6.442   2.864   7.844
 6904TIP3   OH242270   5.697   1.027   6.940
 6904TIP3    H142271   5.720   1.093   6.875
 6904TIP3    H242272   5.615   0.989   6.907
 6905TIP3   OH242273   5.902   2.178   7.728
 6905TIP3    H142274   5.899   2.270   7.757
 6905TIP3    H242275   5.922   2.183   7.635
 6906TIP3   OH242276   0.524   5.371   7.014
 6906TIP3    H142277   0.581   5.322   7.072
 6906TIP3    H242278   0.492   5.445   7.067
 6907TIP3   OH242279   4.738   4.937   0.838
 6907TIP3    H142280   4.763   5.029   0.841
 6907TIP3    H242281   4.820   4.890   0.824
 6908TIP3   OH242282   2.503   1.723   0.064
 6908TIP3    H142283   2.491   1.813   0.095
 6908TIP3    H242284   2.458   1.669   0.128
 6909TIP3   OH242285   4.969   5.640   1.293
 6909TIP3    H142286   4.893   5.643   1.352
 6909TIP3    H242287   5.043   5.621   1.350
 6910TIP3   OH242288   6.667   0.286   7.201
 6910TIP3    H142289   6.700   0.364   7.158
 6910TIP3    H242290   6.718   0.214   7.163
 6911TIP3   OH242291   1.721   0.503   1.674
 6911TIP3    H142292   1.753   0.575   1.727
 6911TIP3    H242293   1.799   0.468   1.630
 6912TIP3   OH242294   6.024   5.163   8.519
 6912TIP3    H142295   6.080   5.097   8.560
 6912TIP3    H242296   5.955   5.178   8.583
 6913TIP3   OH242297   1.471   1.428   7.746
 6913TIP3    H142298   1.521   1.370   7.802
 6913TIP3    H242299   1.380   1.404   7.761
 6914TIP3   OH242300   3.840   5.923   7.271
 6914TIP3    H142301   3.795   5.932   7.354
 6914TIP3    H242302   3.923   5.880   7.293
 6915TIP3   OH242303   6.135   2.298   7.507
 6915TIP3    H142304   6.169   2.328   7.423
 6915TIP3    H242305   6.188   2.221   7.528
 6916TIP3   OH242306   0.708   0.150   6.889
 6916TIP3    H142307   0.667   0.200   6.818
 6916TIP3    H242308   0.722   0.215   6.958
 6917TIP3   OH242309   6.303   4.296   1.432
 6917TIP3    H142310   6.264   4.229   1.378
 6917TIP3    H242311   6.229   4.340   1.474
 6918TIP3   OH242312   4.363   1.924   7.773
 6918TIP3    H142313   4.305   1.969   7.833
 6918TIP3    H242314   4.311   1.912   7.693
 6919TIP3   OH242315   0.776   2.531   2.309
 6919TIP3    H142316   0.829   2.574   2.376
 6919TIP3    H242317   0.738   2.602   2.259
 6920TIP3   OH242318   5.915   4.388   1.567
 6920TIP3    H142319   5.853   4.354   1.632
 6920TIP3    H242320   6.000   4.356   1.596
 6921TIP3   OH242321   3.590   3.316   8.640
 6921TIP3    H142322   3.617   3.408   8.633
 6921TIP3    H242323   3.668   3.270   8.671
 6922TIP3   OH242324   3.902   6.570   1.654
 6922TIP3    H142325   3.971   6.558   1.589
 6922TIP3    H242326   3.867   6.482   1.668
 6923TIP3   OH242327   2.986   1.886   1.334
 6923TIP3    H142328   2.938   1.853   1.258
 6923TIP3    H242329   2.927   1.949   1.374
 6924TIP3   OH242330   5.952   1.859   1.773
 6924TIP3    H142331   5.971   1.930   1.834
 6924TIP3    H242332   5.979   1.893   1.688
 6925TIP3   OH242333   6.643   3.111   7.148
 6925TIP3    H142334   6.725   3.125   7.101
 6925TIP3    H242335   6.575   3.136   7.085
 6926TIP3   OH242336   0.661   1.300   7.233
 6926TIP3    H142337   0.618   1.225   7.193
 6926TIP3    H242338   0.593   1.367   7.241
 6927TIP3   OH242339   3.423   1.867   2.026
 6927TIP3    H142340   3.416   1.956   2.061
 6927TIP3    H242341   3.517   1.848   2.026
 6928TIP3   OH242342   0.436   2.628   7.205
 6928TIP3    H142343   0.482   2.635   7.289
 6928TIP3    H242344   0.348   2.661   7.222
 6929TIP3   OH242345   6.563   2.954   0.466
 6929TIP3    H142346   6.557   2.919   0.555
 6929TIP3    H242347   6.598   2.882   0.414
 6930TIP3   OH242348   3.795   6.575   0.115
 6930TIP3    H142349   3.750   6.600   0.034
 6930TIP3    H242350   3.849   6.652   0.137
 6931TIP3   OH242351   0.151   4.209   7.263
 6931TIP3    H142352   0.197   4.287   7.231
 6931TIP3    H242353   0.209   4.137   7.239
 6932TIP3   OH242354   4.257   6.626   0.247
 6932TIP3    H142355   4.268   6.555   0.184
 6932TIP3    H242356   4.275   6.586   0.332
 6933TIP3   OH242357   3.182   5.390   6.621
 6933TIP3    H142358   3.147   5.477   6.640
 6933TIP3    H242359   3.176   5.382   6.526
 6934TIP3   OH242360   4.815   4.595   7.381
 6934TIP3    H142361   4.822   4.655   7.306
 6934TIP3    H242362   4.863   4.639   7.451
 6935TIP3   OH242363   3.912   1.078   6.860
 6935TIP3    H142364   3.858   1.157   6.857
 6935TIP3    H242365   3.999   1.106   6.832
 6936TIP3   OH242366   1.456   6.045   8.361
 6936TIP3    H142367   1.411   6.102   8.299
 6936TIP3    H242368   1.409   6.058   8.444
 6937TIP3   OH242369   3.286   5.591   8.075
 6937TIP3    H142370   3.232   5.530   8.125
 6937TIP3    H242371   3.376   5.565   8.093
 6938TIP3   OH242372   5.848   6.149   6.934
 6938TIP3    H142373   5.777   6.200   6.973
 6938TIP3    H242374   5.888   6.208   6.870
 6939TIP3   OH242375   1.929   5.500   6.903
 6939TIP3    H142376   2.004   5.468   6.954
 6939TIP3    H242377   1.899   5.577   6.951
 6940TIP3   OH242378   1.754   6.172   7.719
 6940TIP3    H142379   1.815   6.244   7.706
 6940TIP3    H242380   1.718   6.186   7.806
 6941TIP3   OH242381   3.814   0.813   6.950
 6941TIP3    H142382   3.805   0.777   6.862
 6941TIP3    H242383   3.855   0.898   6.938
 6942TIP3   OH242384   1.075   2.743   7.956
 6942TIP3    H142385   1.096   2.780   7.871
 6942TIP3    H242386   0.993   2.784   7.982
 6943TIP3   OH242387   1.990   2.683   6.760
 6943TIP3    H142388   1.925   2.695   6.829
 6943TIP3    H242389   1.981   2.592   6.733
 6944TIP3   OH242390   2.490   0.833   1.535
 6944TIP3    H142391   2.584   0.819   1.521
 6944TIP3    H242392   2.448   0.770   1.477
 6945TIP3   OH242393   0.692   3.937   7.378
 6945TIP3    H142394   0.768   3.945   7.320
 6945TIP3    H242395   0.661   4.027   7.389
 6946TIP3   OH242396   3.671   4.195   1.445
 6946TIP3    H142397   3.592   4.243   1.423
 6946TIP3    H242398   3.742   4.258   1.430
 6947TIP3   OH242399   2.405   2.803   1.504
 6947TIP3    H142400   2.332   2.864   1.499
 6947TIP3    H242401   2.387   2.736   1.438
 6948TIP3   OH242402   2.810   1.254   7.439
 6948TIP3    H142403   2.738   1.199   7.409
 6948TIP3    H242404   2.889   1.208   7.410
 6949TIP3   OH242405   4.443   1.377   1.713
 6949TIP3    H142406   4.381   1.377   1.640
 6949TIP3    H242407   4.479   1.466   1.715
 6950TIP3   OH242408   2.605   0.101   1.085
 6950TIP3    H142409   2.600   0.194   1.063
 6950TIP3    H242410   2.691   0.092   1.127
 6951TIP3   OH242411   5.005   1.407   1.146
 6951TIP3    H142412   4.912   1.424   1.164
 6951TIP3    H242413   5.030   1.476   1.085
 6952TIP3   OH242414   0.235   1.561   8.388
 6952TIP3    H142415   0.220   1.470   8.364
 6952TIP3    H242416   0.283   1.557   8.471
 6953TIP3   OH242417   3.427   2.654   7.014
 6953TIP3    H142418   3.402   2.616   6.929
 6953TIP3    H242419   3.370   2.730   7.024
 6954TIP3   OH242420   3.062   3.617   2.337
 6954TIP3    H142421   3.062   3.522   2.350
 6954TIP3    H242422   2.970   3.641   2.338
 6955TIP3   OH242423   4.268   5.807   6.659
 6955TIP3    H142424   4.172   5.797   6.660
 6955TIP3    H242425   4.301   5.718   6.646
 6956TIP3   OH242426   2.826   0.286   7.090
 6956TIP3    H142427   2.883   0.343   7.142
 6956TIP3    H242428   2.873   0.202   7.086
 6957TIP3   OH242429   5.383   5.637   2.208
 6957TIP3    H142430   5.381   5.550   2.167
 6957TIP3    H242431   5.307   5.682   2.173
 6958TIP3   OH242432   1.375   2.589   7.451
 6958TIP3    H142433   1.325   2.607   7.371
 6958TIP3    H242434   1.460   2.557   7.419
 6959TIP3   OH242435   2.251   5.370   0.343
 6959TIP3    H142436   2.215   5.408   0.423
 6959TIP3    H242437   2.174   5.344   0.292
 6960TIP3   OH242438   4.405   0.801   0.674
 6960TIP3    H142439   4.424   0.832   0.762
 6960TIP3    H242440   4.407   0.879   0.619
 6961TIP3   OH242441   3.508   1.643   6.989
 6961TIP3    H142442   3.454   1.719   6.966
 6961TIP3    H242443   3.561   1.627   6.911
 6962TIP3   OH242444   1.123   3.246   1.242
 6962TIP3    H142445   1.162   3.323   1.283
 6962TIP3    H242446   1.141   3.255   1.149
 6963TIP3   OH242447   2.153   0.110   6.803
 6963TIP3    H142448   2.148   0.122   6.708
 6963TIP3    H242449   2.244   0.130   6.825
 6964TIP3   OH242450   5.485   4.771   7.758
 6964TIP3    H142451   5.403   4.726   7.740
 6964TIP3    H242452   5.464   4.834   7.827
 6965TIP3   OH242453   4.413   6.274   7.165
 6965TIP3    H142454   4.326   6.241   7.187
 6965TIP3    H242455   4.465   6.196   7.147
 6966TIP3   OH242456   3.768   1.983   2.068
 6966TIP3    H142457   3.839   2.040   2.097
 6966TIP3    H242458   3.731   2.027   1.992
 6967TIP3   OH242459   5.246   1.157   6.770
 6967TIP3    H142460   5.260   1.148   6.676
 6967TIP3    H242461   5.169   1.214   6.777
 6968TIP3   OH242462   5.130   3.820   7.671
 6968TIP3    H142463   5.081   3.741   7.694
 6968TIP3    H242464   5.063   3.888   7.662
 6969TIP3   OH242465   4.752   1.066   1.348
 6969TIP3    H142466   4.662   1.086   1.321
 6969TIP3    H242467   4.755   1.092   1.440
 6970TIP3   OH242468   5.107   5.161   1.336
 6970TIP3    H142469   5.035   5.137   1.278
 6970TIP3    H242470   5.176   5.191   1.277
 6971TIP3   OH242471   5.676   3.830   1.301
 6971TIP3    H142472   5.625   3.905   1.268
 6971TIP3    H242473   5.709   3.859   1.386
 6972TIP3   OH242474   6.537   6.748   0.811
 6972TIP3    H142475   6.595   6.757   0.736
 6972TIP3    H242476   6.450   6.733   0.773
 6973TIP3   OH242477   2.573   3.591   1.452
 6973TIP3    H142478   2.664   3.602   1.425
 6973TIP3    H242479   2.521   3.616   1.376
 6974TIP3   OH242480   4.348   6.592   2.073
 6974TIP3    H142481   4.395   6.622   2.151
 6974TIP3    H242482   4.378   6.651   2.003
 6975TIP3   OH242483   5.283   3.755   2.302
 6975TIP3    H142484   5.275   3.841   2.342
 6975TIP3    H242485   5.372   3.727   2.324
 6976TIP3   OH242486   5.956   5.304   1.435
 6976TIP3    H142487   5.997   5.314   1.349
 6976TIP3    H242488   6.004   5.233   1.477
 6977TIP3   OH242489   4.868   0.197   7.846
 6977TIP3    H142490   4.808   0.141   7.798
 6977TIP3    H242491   4.884   0.271   7.788
 6978TIP3   OH242492   5.641   4.234   8.499
 6978TIP3    H142493   5.629   4.173   8.572
 6978TIP3    H242494   5.553   4.267   8.481
 6979TIP3   OH242495   3.302   0.386   1.654
 6979TIP3    H142496   3.396   0.398   1.639
 6979TIP3    H242497   3.279   0.455   1.716
 6980TIP3   OH242498   0.245   4.913   8.708
 6980TIP3    H142499   0.258   4.861   8.628
 6980TIP3    H242500   0.150   4.923   8.715
 6981TIP3   OH242501   1.671   0.862   1.365
 6981TIP3    H142502   1.710   0.775   1.380
 6981TIP3    H242503   1.596   0.865   1.424
 6982TIP3   OH242504   2.532   6.747   7.021
 6982TIP3    H142505   2.473   6.673   7.034
 6982TIP3    H242506   2.484   6.807   6.965
 6983TIP3   OH242507   2.113   6.166   8.120
 6983TIP3    H142508   2.081   6.196   8.035
 6983TIP3    H242509   2.094   6.237   8.180
 6984TIP3   OH242510   3.457   5.885   2.247
 6984TIP3    H142511   3.493   5.824   2.312
 6984TIP3    H242512   3.473   5.972   2.284
 6985TIP3   OH242513   6.805   5.931   0.081
 6985TIP3    H142514   6.766   5.854   0.040
 6985TIP3    H242515   6.769   6.005   0.034
 6986TIP3   OH242516   1.100   5.239   1.824
 6986TIP3    H142517   1.109   5.163   1.881
 6986TIP3    H242518   1.170   5.298   1.852
 6987TIP3   OH242519   4.995   1.296   1.725
 6987TIP3    H142520   5.068   1.270   1.668
 6987TIP3    H242521   5.036   1.354   1.790
 6988TIP3   OH242522   5.954   3.098   0.679
 6988TIP3    H142523   5.903   3.063   0.606
 6988TIP3    H242524   6.023   3.033   0.693
 6989TIP3   OH242525   6.787   3.401   8.653
 6989TIP3    H142526   6.796   3.370   8.743
 6989TIP3    H242527   6.694   3.393   8.633
 6990TIP3   OH242528   4.687   5.034   0.117
 6990TIP3    H142529   4.751   5.058   0.049
 6990TIP3    H242530   4.646   5.117   0.142
 6991TIP3   OH242531   2.964   3.423   6.509
 6991TIP3    H142532   2.943   3.455   6.422
 6991TIP3    H242533   3.042   3.369   6.496
 6992TIP3   OH242534   5.351   3.859   6.580
 6992TIP3    H142535   5.414   3.928   6.561
 6992TIP3    H242536   5.404   3.787   6.613
 6993TIP3   OH242537   5.051   1.644   2.700
 6993TIP3    H142538   5.108   1.716   2.728
 6993TIP3    H242539   5.107   1.566   2.707
 6994TIP3   OH242540   3.144   4.051   6.508
 6994TIP3    H142541   3.180   3.978   6.558
 6994TIP3    H242542   3.055   4.062   6.541
 6995TIP3   OH242543   3.964   2.252   7.764
 6995TIP3    H142544   3.894   2.259   7.700
 6995TIP3    H242545   4.003   2.166   7.748
 6996TIP3   OH242546   5.086   3.424   0.225
 6996TIP3    H142547   5.155   3.374   0.269
 6996TIP3    H242548   5.034   3.358   0.179
 6997TIP3   OH242549   5.667   4.893   2.297
 6997TIP3    H142550   5.577   4.865   2.280
 6997TIP3    H242551   5.721   4.828   2.251
 6998TIP3   OH242552   1.248   1.820   8.769
 6998TIP3    H142553   1.219   1.907   8.740
 6998TIP3    H242554   1.343   1.823   8.760
 6999TIP3   OH242555   6.218   1.278   0.322
 6999TIP3    H142556   6.173   1.223   0.387
 6999TIP3    H242557   6.151   1.295   0.255
 7000TIP3   OH242558   1.102   2.782   7.312
 7000TIP3    H142559   1.072   2.744   7.229
 7000TIP3    H242560   1.174   2.839   7.287
 7001TIP3   OH242561   1.295   4.054   1.059
 7001TIP3    H142562   1.252   4.125   1.106
 7001TIP3    H242563   1.224   3.996   1.033
 7002TIP3   OH242564   1.243   2.150   0.123
 7002TIP3    H142565   1.209   2.090   0.056
 7002TIP3    H242566   1.253   2.094   0.200
 7003TIP3   OH242567   6.738   2.408   0.367
 7003TIP3    H142568   6.761   2.389   0.458
 7003TIP3    H242569   6.704   2.324   0.333
 7004TIP3   OH242570   3.766   6.411   7.698
 7004TIP3    H142571   3.824   6.347   7.656
 7004TIP3    H242572   3.695   6.359   7.735
 7005TIP3   OH242573   5.630   4.068   0.753
 7005TIP3    H142574   5.644   4.101   0.842
 7005TIP3    H242575   5.704   4.009   0.738
 7006TIP3   OH242576   0.986   2.145   1.269
 7006TIP3    H142577   0.902   2.156   1.314
 7006TIP3    H242578   1.037   2.222   1.294
 7007TIP3   OH242579   3.301   4.307   1.246
 7007TIP3    H142580   3.224   4.269   1.289
 7007TIP3    H242581   3.365   4.317   1.317
 7008TIP3   OH242582   6.563   6.694   7.796
 7008TIP3    H142583   6.579   6.706   7.889
 7008TIP3    H242584   6.482   6.742   7.779
 7009TIP3   OH242585   2.501   2.511   1.522
 7009TIP3    H142586   2.506   2.416   1.508
 7009TIP3    H242587   2.527   2.523   1.614
 7010TIP3   OH242588   2.218   4.215   0.901
 7010TIP3    H142589   2.267   4.292   0.873
 7010TIP3    H242590   2.239   4.147   0.837
 7011TIP3   OH242591   2.519   4.131   0.761
 7011TIP3    H142592   2.524   4.136   0.856
 7011TIP3    H242593   2.600   4.088   0.734
 7012TIP3   OH242594   1.325   0.891   0.841
 7012TIP3    H142595   1.274   0.971   0.851
 7012TIP3    H242596   1.271   0.822   0.879
 7013TIP3   OH242597   0.719   1.896   0.155
 7013TIP3    H142598   0.808   1.859   0.154
 7013TIP3    H242599   0.672   1.847   0.088
 7014TIP3   OH242600   0.627   1.381   1.932
 7014TIP3    H142601   0.694   1.325   1.973
 7014TIP3    H242602   0.594   1.435   2.002
 7015TIP3   OH242603   6.745   4.708   7.794
 7015TIP3    H142604   6.662   4.709   7.746
 7015TIP3    H242605   6.740   4.783   7.853
 7016TIP3   OH242606   1.895   5.083   7.719
 7016TIP3    H142607   1.864   5.018   7.656
 7016TIP3    H242608   1.963   5.131   7.672
 7017TIP3   OH242609   2.718   1.569   0.932
 7017TIP3    H142610   2.753   1.521   1.007
 7017TIP3    H242611   2.785   1.634   0.912
 7018TIP3   OH242612   0.838   1.788   0.875
 7018TIP3    H142613   0.857   1.755   0.787
 7018TIP3    H242614   0.746   1.815   0.871
 7019TIP3   OH242615   1.173   4.029   6.489
 7019TIP3    H142616   1.189   4.077   6.570
 7019TIP3    H242617   1.187   4.092   6.419
 7020TIP3   OH242618   3.132   0.667   0.280
 7020TIP3    H142619   3.122   0.748   0.231
 7020TIP3    H242620   3.102   0.689   0.369
 7021TIP3   OH242621   4.414   0.118   0.727
 7021TIP3    H142622   4.396   0.027   0.749
 7021TIP3    H242623   4.377   0.168   0.800
 7022TIP3   OH242624   3.771   3.962   1.439
 7022TIP3    H142625   3.726   4.043   1.460
 7022TIP3    H242626   3.831   3.985   1.368
 7023TIP3   OH242627   4.971   0.062   8.729
 7023TIP3    H142628   4.934   6.794   8.713
 7023TIP3    H242629   4.915   0.099   8.797
 7024TIP3   OH242630   1.785   3.316   8.510
 7024TIP3    H142631   1.702   3.321   8.558
 7024TIP3    H242632   1.761   3.332   8.419
 7025TIP3   OH242633   6.560   0.206   7.717
 7025TIP3    H142634   6.582   0.114   7.733
 7025TIP3    H242635   6.502   0.230   7.789
 7026TIP3   OH242636   3.079   4.375   0.378
 7026TIP3    H142637   3.148   4.314   0.352
 7026TIP3    H242638   3.095   4.393   0.471
 7027TIP3   OH242639   1.017   3.874   0.995
 7027TIP3    H142640   0.942   3.878   1.054
 7027TIP3    H242641   1.003   3.796   0.943
 7028TIP3   OH242642   5.467   5.991   8.600
 7028TIP3    H142643   5.452   5.899   8.621
 7028TIP3    H242644   5.380   6.030   8.596
 7029TIP3   OH242645   1.064   0.123   1.255
 7029TIP3    H142646   0.976   0.090   1.269
 7029TIP3    H242647   1.121   0.053   1.288
 7030TIP3   OH242648   1.913   1.343   7.829
 7030TIP3    H142649   1.851   1.364   7.759
 7030TIP3    H242650   1.916   1.422   7.883
 7031TIP3   OH242651   3.369   5.879   6.641
 7031TIP3    H142652   3.287   5.871   6.593
 7031TIP3    H242653   3.436   5.855   6.577
 7032TIP3   OH242654   1.334   5.733   6.598
 7032TIP3    H142655   1.393   5.753   6.671
 7032TIP3    H242656   1.280   5.812   6.589
 7033TIP3   OH242657   2.755   0.784   1.477
 7033TIP3    H142658   2.813   0.859   1.464
 7033TIP3    H242659   2.752   0.741   1.392
 7034TIP3   OH242660   0.197   2.984   2.614
 7034TIP3    H142661   0.120   3.019   2.659
 7034TIP3    H242662   0.235   2.922   2.676
 7035TIP3   OH242663   3.075   3.552   8.207
 7035TIP3    H142664   3.121   3.616   8.152
 7035TIP3    H242665   2.987   3.589   8.216
 7036TIP3   OH242666   5.499   1.475   2.012
 7036TIP3    H142667   5.534   1.386   2.005
 7036TIP3    H242668   5.546   1.514   2.086
 7037TIP3   OH242669   5.076   2.643   0.323
 7037TIP3    H142670   5.038   2.665   0.408
 7037TIP3    H242671   5.158   2.598   0.344
 7038TIP3   OH242672   1.404   4.507   8.617
 7038TIP3    H142673   1.380   4.417   8.592
 7038TIP3    H242674   1.415   4.504   8.712
 7039TIP3   OH242675   3.448   3.418   7.312
 7039TIP3    H142676   3.467   3.512   7.316
 7039TIP3    H242677   3.494   3.381   7.387
 7040TIP3   OH242678   6.181   1.888   7.064
 7040TIP3    H142679   6.129   1.945   7.006
 7040TIP3    H242680   6.119   1.821   7.092
 7041TIP3   OH242681   5.598   4.545   8.305
 7041TIP3    H142682   5.579   4.595   8.225
 7041TIP3    H242683   5.551   4.592   8.374
 7042TIP3   OH242684   4.492   1.885   2.260
 7042TIP3    H142685   4.440   1.892   2.180
 7042TIP3    H242686   4.429   1.859   2.328
 7043TIP3   OH242687   1.015   3.407   6.348
 7043TIP3    H142688   1.056   3.473   6.293
 7043TIP3    H242689   1.017   3.327   6.295
 7044TIP3   OH242690   3.132   5.072   8.001
 7044TIP3    H142691   3.103   4.982   7.989
 7044TIP3    H242692   3.109   5.116   7.920
 7045TIP3   OH242693   2.347   4.892   0.515
 7045TIP3    H142694   2.253   4.905   0.507
 7045TIP3    H242695   2.372   4.846   0.435
 7046TIP3   OH242696   2.040   3.253   7.010
 7046TIP3    H142697   1.960   3.204   7.032
 7046TIP3    H242698   2.111   3.191   7.025
 7047TIP3   OH242699   5.356   3.078   7.116
 7047TIP3    H142700   5.291   3.011   7.140
 7047TIP3    H242701   5.439   3.030   7.116
 7048TIP3   OH242702   0.909   5.428   8.709
 7048TIP3    H142703   0.888   5.344   8.667
 7048TIP3    H242704   0.996   5.414   8.747
 7049TIP3   OH242705   2.897   2.747   6.720
 7049TIP3    H142706   2.888   2.682   6.650
 7049TIP3    H242707   2.838   2.818   6.694
 7050TIP3   OH242708   2.868   0.346   1.978
 7050TIP3    H142709   2.903   0.269   2.021
 7050TIP3    H242710   2.840   0.315   1.891
 7051TIP3   OH242711   1.531   6.726   8.088
 7051TIP3    H142712   1.489   6.777   8.018
 7051TIP3    H242713   1.613   6.774   8.105
 7052TIP3   OH242714   2.661   0.041   0.344
 7052TIP3    H142715   2.622   0.124   0.318
 7052TIP3    H242716   2.737   0.065   0.397
 7053TIP3   OH242717   4.221   5.743   8.303
 7053TIP3    H142718   4.182   5.767   8.387
 7053TIP3    H242719   4.241   5.827   8.261
 7054TIP3   OH242720   4.854   4.838   7.084
 7054TIP3    H142721   4.897   4.766   7.039
 7054TIP3    H242722   4.808   4.886   7.015
 7055TIP3   OH242723   6.296   0.436   1.478
 7055TIP3    H142724   6.283   0.343   1.495
 7055TIP3    H242725   6.368   0.462   1.535
 7056TIP3   OH242726   3.104   6.092   2.265
 7056TIP3    H142727   3.062   6.178   2.262
 7056TIP3    H242728   3.039   6.037   2.309
 7057TIP3   OH242729   6.633   0.741   1.004
 7057TIP3    H142730   6.594   0.801   0.940
 7057TIP3    H242731   6.559   0.702   1.049
 7058TIP3   OH242732   0.936   2.646   2.465
 7058TIP3    H142733   1.023   2.635   2.425
 7058TIP3    H242734   0.931   2.740   2.484
 7059TIP3   OH242735   5.095   6.088   7.900
 7059TIP3    H142736   5.025   6.142   7.938
 7059TIP3    H242737   5.052   6.041   7.828
 7060TIP3   OH242738   6.470   3.481   0.395
 7060TIP3    H142739   6.551   3.532   0.390
 7060TIP3    H242740   6.499   3.392   0.413
 7061TIP3   OH242741   4.678   1.396   1.371
 7061TIP3    H142742   4.678   1.326   1.436
 7061TIP3    H242743   4.647   1.355   1.291
 7062TIP3   OH242744   0.252   3.195   8.691
 7062TIP3    H142745   0.181   3.256   8.673
 7062TIP3    H242746   0.269   3.151   8.608
 7063TIP3   OH242747   1.816   2.223   1.109
 7063TIP3    H142748   1.904   2.257   1.093
 7063TIP3    H242749   1.830   2.140   1.154
 7064TIP3   OH242750   6.394   1.121   1.334
 7064TIP3    H142751   6.406   1.113   1.239
 7064TIP3    H242752   6.463   1.181   1.362
 7065TIP3   OH242753   0.606   1.230   2.216
 7065TIP3    H142754   0.634   1.164   2.280
 7065TIP3    H242755   0.675   1.230   2.150
 7066TIP3   OH242756   3.031   0.779   6.996
 7066TIP3    H142757   2.976   0.756   6.920
 7066TIP3    H242758   3.056   0.870   6.981
 7067TIP3   OH242759   3.909   2.710   7.212
 7067TIP3    H142760   3.892   2.655   7.289
 7067TIP3    H242761   3.829   2.703   7.159
 7068TIP3   OH242762   1.570   4.972   8.373
 7068TIP3    H142763   1.597   4.897   8.319
 7068TIP3    H242764   1.490   5.004   8.331
 7069TIP3   OH242765   5.993   3.785   0.285
 7069TIP3    H142766   6.051   3.777   0.360
 7069TIP3    H242767   5.924   3.844   0.315
 7070TIP3   OH242768   6.302   3.591   1.546
 7070TIP3    H142769   6.287   3.542   1.626
 7070TIP3    H242770   6.265   3.678   1.563
 7071TIP3   OH242771   1.692   1.671   1.831
 7071TIP3    H142772   1.622   1.693   1.893
 7071TIP3    H242773   1.655   1.692   1.746
 7072LIG      O42774   2.489   5.374   3.873
 7072LIG     C142775   2.626   5.410   3.889
 7072LIG     C242776   2.678   5.467   3.757
 7072LIG     C342777   2.640   5.513   4.001
 7072LIG     H142778   2.679   5.318   3.921
 7072LIG     H242779   2.779   5.512   3.765
 7072LIG     H342780   2.612   5.552   3.730
 7072LIG     H442781   2.667   5.389   3.679
 7072LIG     H542782   2.575   5.600   3.977
 7072LIG     H642783   2.747   5.540   4.010
 7072LIG     H742784   2.609   5.464   4.096
 7072LIG     H842785   2.479   5.296   3.817
   6.81975   6.81975   8.80024
