Title t= 2100.00000 step= 1050000
42785
    1SAPS     N    1   4.657   3.960   7.224
    1SAPS   HN1    2   4.586   4.021   7.179
    1SAPS   HN2    3   4.708   4.030   7.282
    1SAPS   HN3    4   4.720   3.930   7.148
    1SAPS   C12    5   4.589   3.846   7.298
    1SAPS  H12A    6   4.657   3.764   7.317
    1SAPS   C13    7   4.523   3.872   7.439
    1SAPS  O13A    8   4.526   3.990   7.483
    1SAPS  O13B    9   4.452   3.790   7.496
    1SAPS   C11   10   4.474   3.792   7.205
    1SAPS  H11A   11   4.391   3.864   7.220
    1SAPS  H11B   12   4.438   3.692   7.238
    1SAPS     P   13   4.393   3.766   6.963
    1SAPS   O13   14   4.307   3.654   7.019
    1SAPS   O14   15   4.339   3.901   6.928
    1SAPS   O12   16   4.512   3.783   7.068
    1SAPS   O11   17   4.473   3.719   6.840
    1SAPS    C1   18   4.521   3.578   6.825
    1SAPS    HA   19   4.627   3.577   6.794
    1SAPS    HB   20   4.502   3.509   6.909
    1SAPS    C2   21   4.435   3.502   6.714
    1SAPS    HS   22   4.479   3.400   6.701
    1SAPS   O21   23   4.435   3.582   6.594
    1SAPS   C21   24   4.429   3.521   6.481
    1SAPS   O22   25   4.429   3.397   6.469
    1SAPS   C22   26   4.433   3.622   6.367
    1SAPS   H2R   27   4.352   3.698   6.372
    1SAPS   H2S   28   4.528   3.675   6.387
    1SAPS    C3   29   4.291   3.491   6.765
    1SAPS    HX   30   4.236   3.587   6.768
    1SAPS    HY   31   4.304   3.471   6.874
    1SAPS   O31   32   4.212   3.378   6.708
    1SAPS   C31   33   4.138   3.414   6.596
    1SAPS   O32   34   4.119   3.532   6.567
    1SAPS   C32   35   4.073   3.299   6.520
    1SAPS   H2X   36   4.027   3.233   6.597
    1SAPS   H2Y   37   4.149   3.234   6.471
    1SAPS   C23   38   4.428   3.562   6.223
    1SAPS   H3R   39   4.339   3.496   6.220
    1SAPS   H3S   40   4.525   3.509   6.209
    1SAPS   C24   41   4.415   3.684   6.125
    1SAPS   H4R   42   4.319   3.739   6.137
    1SAPS   H4S   43   4.377   3.650   6.026
    1SAPS   C25   44   4.549   3.761   6.115
    1SAPS   H5R   45   4.610   3.772   6.206
    1SAPS   C26   46   4.608   3.804   6.000
    1SAPS   H6R   47   4.707   3.851   6.000
    1SAPS   C27   48   4.561   3.792   5.859
    1SAPS   H7R   49   4.463   3.741   5.852
    1SAPS   H7S   50   4.644   3.727   5.824
    1SAPS   C28   51   4.546   3.917   5.778
    1SAPS   H8R   52   4.504   3.998   5.839
    1SAPS   C29   53   4.577   3.938   5.645
    1SAPS   H9R   54   4.568   4.042   5.612
    1SAPS  C210   55   4.618   3.834   5.550
    1SAPS  H10R   56   4.629   3.732   5.592
    1SAPS  H10S   57   4.721   3.871   5.531
    1SAPS  C211   58   4.532   3.838   5.425
    1SAPS  H11R   59   4.430   3.798   5.431
    1SAPS  C212   60   4.565   3.887   5.305
    1SAPS  H12R   61   4.484   3.877   5.230
    1SAPS  C213   62   4.695   3.952   5.261
    1SAPS  H13R   63   4.725   3.914   5.161
    1SAPS  H13S   64   4.779   3.920   5.326
    1SAPS  C214   65   4.692   4.101   5.244
    1SAPS  H14R   66   4.635   4.160   5.318
    1SAPS  C215   67   4.744   4.178   5.151
    1SAPS  H15R   68   4.747   4.286   5.173
    1SAPS  C216   69   4.820   4.128   5.031
    1SAPS  H16R   70   4.824   4.017   5.030
    1SAPS  H16S   71   4.921   4.171   5.042
    1SAPS  C217   72   4.748   4.181   4.912
    1SAPS  H17R   73   4.732   4.290   4.924
    1SAPS  H17S   74   4.644   4.143   4.907
    1SAPS  C218   75   4.830   4.150   4.784
    1SAPS  H18R   76   4.935   4.175   4.812
    1SAPS  H18S   77   4.805   4.224   4.705
    1SAPS  C219   78   4.793   4.008   4.729
    1SAPS  H19R   79   4.684   4.002   4.712
    1SAPS  H19S   80   4.823   3.928   4.799
    1SAPS  C220   81   4.873   3.975   4.599
    1SAPS  H20R   82   4.981   3.988   4.621
    1SAPS  H20S   83   4.837   4.030   4.510
    1SAPS  H20T   84   4.861   3.868   4.570
    1SAPS   C33   85   3.958   3.350   6.426
    1SAPS   H3X   86   3.878   3.391   6.490
    1SAPS   H3Y   87   3.909   3.262   6.378
    1SAPS   C34   88   4.002   3.433   6.310
    1SAPS   H4X   89   3.988   3.369   6.219
    1SAPS   H4Y   90   4.107   3.469   6.316
    1SAPS   C35   91   3.924   3.563   6.295
    1SAPS   H5X   92   3.928   3.620   6.390
    1SAPS   H5Y   93   3.820   3.531   6.271
    1SAPS   C36   94   3.981   3.659   6.182
    1SAPS   H6X   95   4.081   3.698   6.209
    1SAPS   H6Y   96   3.928   3.757   6.182
    1SAPS   C37   97   3.982   3.598   6.042
    1SAPS   H7X   98   3.881   3.563   6.013
    1SAPS   H7Y   99   4.039   3.503   6.056
    1SAPS   C38  100   4.035   3.682   5.927
    1SAPS   H8X  101   4.142   3.704   5.948
    1SAPS   H8Y  102   3.980   3.778   5.922
    1SAPS   C39  103   4.007   3.604   5.795
    1SAPS   H9X  104   3.904   3.578   5.764
    1SAPS   H9Y  105   4.046   3.501   5.813
    1SAPS  C310  106   4.063   3.678   5.677
    1SAPS  H10X  107   4.160   3.730   5.690
    1SAPS  H10Y  108   3.993   3.759   5.647
    1SAPS  C311  109   4.075   3.590   5.552
    1SAPS  H11X  110   3.981   3.531   5.552
    1SAPS  H11Y  111   4.149   3.509   5.565
    1SAPS  C312  112   4.089   3.674   5.427
    1SAPS  H12X  113   4.180   3.737   5.445
    1SAPS  H12Y  114   3.991   3.725   5.425
    1SAPS  C313  115   4.092   3.592   5.305
    1SAPS  H13X  116   4.015   3.513   5.306
    1SAPS  H13Y  117   4.181   3.526   5.296
    1SAPS  C314  118   4.069   3.673   5.176
    1SAPS  H14X  119   3.983   3.742   5.191
    1SAPS  H14Y  120   4.040   3.599   5.099
    1SAPS  C315  121   4.202   3.740   5.123
    1SAPS  H15X  122   4.279   3.662   5.104
    1SAPS  H15Y  123   4.251   3.797   5.205
    1SAPS  C316  124   4.179   3.829   5.009
    1SAPS  H16X  125   4.168   3.760   4.922
    1SAPS  H16Y  126   4.269   3.894   5.003
    1SAPS  C317  127   4.044   3.905   5.017
    1SAPS  H17X  128   4.032   3.943   5.121
    1SAPS  H17Y  129   3.953   3.843   5.003
    1SAPS  C318  130   4.024   4.017   4.918
    1SAPS  H18X  131   4.124   4.066   4.914
    1SAPS  H18Y  132   3.940   4.073   4.963
    1SAPS  H18Z  133   4.004   3.970   4.819
    2SAPS     N  134   4.737   6.324   6.794
    2SAPS   HN1  135   4.823   6.352   6.744
    2SAPS   HN2  136   4.724   6.395   6.870
    2SAPS   HN3  137   4.745   6.229   6.834
    2SAPS   C12  138   4.639   6.319   6.690
    2SAPS  H12A  139   4.558   6.282   6.751
    2SAPS   C13  140   4.591   6.453   6.624
    2SAPS  O13A  141   4.647   6.561   6.649
    2SAPS  O13B  142   4.472   6.453   6.577
    2SAPS   C11  143   4.688   6.217   6.585
    2SAPS  H11A  144   4.761   6.272   6.521
    2SAPS  H11B  145   4.597   6.192   6.527
    2SAPS     P  146   4.655   5.962   6.657
    2SAPS   O13  147   4.747   5.858   6.702
    2SAPS   O14  148   4.541   5.991   6.750
    2SAPS   O12  149   4.741   6.100   6.647
    2SAPS   O11  150   4.613   5.949   6.503
    2SAPS    C1  151   4.478   5.959   6.447
    2SAPS    HA  152   4.406   5.985   6.528
    2SAPS    HB  153   4.474   6.032   6.363
    2SAPS    C2  154   4.425   5.824   6.391
    2SAPS    HS  155   4.420   5.749   6.472
    2SAPS   O21  156   4.514   5.781   6.286
    2SAPS   C21  157   4.630   5.733   6.309
    2SAPS   O22  158   4.674   5.690   6.416
    2SAPS   C22  159   4.703   5.731   6.176
    2SAPS   H2R  160   4.648   5.666   6.104
    2SAPS   H2S  161   4.703   5.834   6.136
    2SAPS    C3  162   4.281   5.834   6.335
    2SAPS    HX  163   4.214   5.865   6.418
    2SAPS    HY  164   4.248   5.735   6.296
    2SAPS   O31  165   4.278   5.928   6.229
    2SAPS   C31  166   4.279   5.877   6.107
    2SAPS   O32  167   4.276   5.761   6.077
    2SAPS   C32  168   4.309   5.996   6.012
    2SAPS   H2X  169   4.411   6.023   6.045
    2SAPS   H2Y  170   4.240   6.079   6.038
    2SAPS   C23  171   4.854   5.684   6.203
    2SAPS   H3R  172   4.852   5.581   6.244
    2SAPS   H3S  173   4.906   5.749   6.277
    2SAPS   C24  174   4.929   5.678   6.067
    2SAPS   H4R  175   4.874   5.614   5.995
    2SAPS   H4S  176   5.029   5.636   6.092
    2SAPS   C25  177   4.936   5.823   6.004
    2SAPS   H5R  178   4.951   5.913   6.065
    2SAPS   C26  179   4.891   5.842   5.877
    2SAPS   H6R  180   4.885   5.948   5.845
    2SAPS   C27  181   4.841   5.737   5.776
    2SAPS   H7R  182   4.879   5.634   5.793
    2SAPS   H7S  183   4.882   5.763   5.676
    2SAPS   C28  184   4.692   5.732   5.755
    2SAPS   H8R  185   4.641   5.699   5.846
    2SAPS   C29  186   4.617   5.785   5.655
    2SAPS   H9R  187   4.508   5.771   5.657
    2SAPS  C210  188   4.662   5.862   5.532
    2SAPS  H10R  189   4.694   5.786   5.458
    2SAPS  H10S  190   4.754   5.919   5.553
    2SAPS  C211  191   4.551   5.949   5.469
    2SAPS  H11R  192   4.446   5.934   5.498
    2SAPS  C212  193   4.583   6.040   5.372
    2SAPS  H12R  194   4.500   6.100   5.332
    2SAPS  C213  195   4.718   6.080   5.322
    2SAPS  H13R  196   4.793   6.082   5.403
    2SAPS  H13S  197   4.700   6.184   5.287
    2SAPS  C214  198   4.776   5.985   5.221
    2SAPS  H14R  199   4.799   5.886   5.265
    2SAPS  C215  200   4.801   5.999   5.094
    2SAPS  H15R  201   4.829   5.908   5.039
    2SAPS  C216  202   4.776   6.122   5.017
    2SAPS  H16R  203   4.871   6.167   4.979
    2SAPS  H16S  204   4.729   6.205   5.074
    2SAPS  C217  205   4.684   6.113   4.891
    2SAPS  H17R  206   4.651   6.214   4.861
    2SAPS  H17S  207   4.593   6.060   4.928
    2SAPS  C218  208   4.739   6.029   4.774
    2SAPS  H18R  209   4.757   5.925   4.809
    2SAPS  H18S  210   4.828   6.089   4.743
    2SAPS  C219  211   4.642   6.012   4.658
    2SAPS  H19R  212   4.550   5.974   4.706
    2SAPS  H19S  213   4.673   5.932   4.587
    2SAPS  C220  214   4.600   6.134   4.584
    2SAPS  H20R  215   4.542   6.099   4.497
    2SAPS  H20S  216   4.692   6.191   4.557
    2SAPS  H20T  217   4.538   6.204   4.644
    2SAPS   C33  218   4.301   5.960   5.861
    2SAPS   H3X  219   4.371   5.875   5.847
    2SAPS   H3Y  220   4.349   6.048   5.812
    2SAPS   C34  221   4.170   5.920   5.803
    2SAPS   H4X  222   4.090   5.991   5.836
    2SAPS   H4Y  223   4.152   5.825   5.857
    2SAPS   C35  224   4.149   5.912   5.653
    2SAPS   H5X  225   4.061   5.853   5.620
    2SAPS   H5Y  226   4.234   5.855   5.610
    2SAPS   C36  227   4.148   6.050   5.580
    2SAPS   H6X  228   4.242   6.108   5.580
    2SAPS   H6Y  229   4.073   6.109   5.637
    2SAPS   C37  230   4.067   6.051   5.453
    2SAPS   H7X  231   4.047   6.154   5.416
    2SAPS   H7Y  232   3.967   6.011   5.480
    2SAPS   C38  233   4.136   5.974   5.344
    2SAPS   H8X  234   4.115   5.865   5.350
    2SAPS   H8Y  235   4.245   5.986   5.333
    2SAPS   C39  236   4.069   5.999   5.210
    2SAPS   H9X  237   3.960   6.017   5.220
    2SAPS   H9Y  238   4.082   5.913   5.141
    2SAPS  C310  239   4.127   6.119   5.132
    2SAPS  H10X  240   4.235   6.099   5.121
    2SAPS  H10Y  241   4.103   6.214   5.186
    2SAPS  C311  242   4.081   6.131   4.984
    2SAPS  H11X  243   3.975   6.163   4.993
    2SAPS  H11Y  244   4.087   6.028   4.941
    2SAPS  C312  245   4.159   6.244   4.921
    2SAPS  H12X  246   4.267   6.223   4.912
    2SAPS  H12Y  247   4.151   6.337   4.982
    2SAPS  C313  248   4.093   6.279   4.789
    2SAPS  H13X  249   4.002   6.338   4.810
    2SAPS  H13Y  250   4.063   6.183   4.742
    2SAPS  C314  251   4.185   6.338   4.694
    2SAPS  H14X  252   4.269   6.267   4.675
    2SAPS  H14Y  253   4.223   6.435   4.733
    2SAPS  C315  254   4.131   6.369   4.553
    2SAPS  H15X  255   4.053   6.448   4.552
    2SAPS  H15Y  256   4.073   6.282   4.516
    2SAPS  C316  257   4.231   6.409   4.448
    2SAPS  H16X  258   4.313   6.335   4.447
    2SAPS  H16Y  259   4.275   6.507   4.478
    2SAPS  C317  260   4.173   6.420   4.306
    2SAPS  H17X  261   4.074   6.470   4.305
    2SAPS  H17Y  262   4.163   6.314   4.274
    2SAPS  C318  263   4.280   6.492   4.223
    2SAPS  H18X  264   4.374   6.433   4.212
    2SAPS  H18Y  265   4.300   6.589   4.273
    2SAPS  H18Z  266   4.256   6.513   4.116
    3SAPS     N  267   4.986   3.764   6.847
    3SAPS   HN1  268   5.067   3.828   6.853
    3SAPS   HN2  269   4.991   3.698   6.927
    3SAPS   HN3  270   5.018   3.709   6.765
    3SAPS   C12  271   4.862   3.843   6.816
    3SAPS  H12A  272   4.784   3.768   6.814
    3SAPS   C13  273   4.825   3.938   6.932
    3SAPS  O13A  274   4.882   3.930   7.044
    3SAPS  O13B  275   4.723   4.013   6.924
    3SAPS   C11  276   4.863   3.912   6.677
    3SAPS  H11A  277   4.938   3.994   6.667
    3SAPS  H11B  278   4.760   3.953   6.667
    3SAPS     P  279   4.845   3.833   6.425
    3SAPS   O13  280   4.892   3.714   6.345
    3SAPS   O14  281   4.700   3.838   6.433
    3SAPS   O12  282   4.906   3.822   6.575
    3SAPS   O11  283   4.917   3.955   6.358
    3SAPS    C1  284   4.901   4.089   6.411
    3SAPS    HA  285   4.817   4.102   6.483
    3SAPS    HB  286   4.995   4.101   6.471
    3SAPS    C2  287   4.892   4.209   6.309
    3SAPS    HS  288   4.784   4.225   6.293
    3SAPS   O21  289   4.958   4.173   6.186
    3SAPS   C21  290   4.893   4.105   6.098
    3SAPS   O22  291   4.785   4.056   6.115
    3SAPS   C22  292   4.984   4.089   5.975
    3SAPS   H2R  293   5.005   4.192   5.939
    3SAPS   H2S  294   5.078   4.035   6.000
    3SAPS    C3  295   4.937   4.348   6.360
    3SAPS    HX  296   5.047   4.342   6.378
    3SAPS    HY  297   4.882   4.372   6.454
    3SAPS   O31  298   4.917   4.456   6.263
    3SAPS   C31  299   4.961   4.574   6.311
    3SAPS   O32  300   5.027   4.590   6.413
    3SAPS   C32  301   4.930   4.681   6.207
    3SAPS   H2X  302   4.973   4.773   6.253
    3SAPS   H2Y  303   4.821   4.702   6.215
    3SAPS   C23  304   4.925   4.022   5.846
    3SAPS   H3R  305   4.825   4.067   5.826
    3SAPS   H3S  306   4.906   3.913   5.855
    3SAPS   C24  307   5.007   4.062   5.721
    3SAPS   H4R  308   5.025   4.171   5.724
    3SAPS   H4S  309   4.949   4.047   5.628
    3SAPS   C25  310   5.134   3.972   5.727
    3SAPS   H5R  311   5.194   3.974   5.820
    3SAPS   C26  312   5.174   3.892   5.623
    3SAPS   H6R  313   5.271   3.843   5.630
    3SAPS   C27  314   5.107   3.879   5.492
    3SAPS   H7R  315   4.996   3.872   5.503
    3SAPS   H7S  316   5.130   3.779   5.449
    3SAPS   C28  317   5.130   3.997   5.396
    3SAPS   H8R  318   5.072   4.084   5.432
    3SAPS   C29  319   5.214   4.006   5.290
    3SAPS   H9R  320   5.214   4.099   5.232
    3SAPS  C210  321   5.285   3.892   5.218
    3SAPS  H10R  322   5.297   3.801   5.280
    3SAPS  H10S  323   5.382   3.937   5.188
    3SAPS  C211  324   5.212   3.853   5.086
    3SAPS  H11R  325   5.233   3.923   5.004
    3SAPS  C212  326   5.147   3.736   5.064
    3SAPS  H12R  327   5.095   3.727   4.968
    3SAPS  C213  328   5.122   3.618   5.157
    3SAPS  H13R  329   5.199   3.615   5.237
    3SAPS  H13S  330   5.123   3.524   5.098
    3SAPS  C214  331   4.993   3.644   5.233
    3SAPS  H14R  332   4.976   3.750   5.253
    3SAPS  C215  333   4.912   3.544   5.276
    3SAPS  H15R  334   4.818   3.567   5.328
    3SAPS  C216  335   4.921   3.397   5.255
    3SAPS  H16R  336   5.001   3.373   5.182
    3SAPS  H16S  337   4.830   3.351   5.212
    3SAPS  C217  338   4.955   3.318   5.384
    3SAPS  H17R  339   5.055   3.349   5.423
    3SAPS  H17S  340   4.971   3.213   5.354
    3SAPS  C218  341   4.849   3.316   5.496
    3SAPS  H18R  342   4.765   3.260   5.449
    3SAPS  H18S  343   4.805   3.415   5.521
    3SAPS  C219  344   4.902   3.254   5.625
    3SAPS  H19R  345   4.816   3.216   5.684
    3SAPS  H19S  346   4.963   3.164   5.598
    3SAPS  C220  347   4.977   3.350   5.719
    3SAPS  H20R  348   5.078   3.362   5.677
    3SAPS  H20S  349   4.975   3.309   5.822
    3SAPS  H20T  350   4.925   3.447   5.727
    3SAPS   C33  351   4.976   4.659   6.062
    3SAPS   H3X  352   4.914   4.578   6.019
    3SAPS   H3Y  353   5.081   4.624   6.067
    3SAPS   C34  354   4.975   4.799   5.993
    3SAPS   H4X  355   5.036   4.798   5.900
    3SAPS   H4Y  356   5.031   4.869   6.058
    3SAPS   C35  357   4.836   4.848   5.980
    3SAPS   H5X  358   4.762   4.766   5.963
    3SAPS   H5Y  359   4.817   4.888   6.082
    3SAPS   C36  360   4.821   4.961   5.875
    3SAPS   H6X  361   4.889   5.045   5.900
    3SAPS   H6Y  362   4.716   4.992   5.890
    3SAPS   C37  363   4.849   4.908   5.736
    3SAPS   H7X  364   4.782   4.822   5.716
    3SAPS   H7Y  365   4.951   4.871   5.711
    3SAPS   C38  366   4.797   5.014   5.635
    3SAPS   H8X  367   4.857   5.106   5.650
    3SAPS   H8Y  368   4.690   5.041   5.650
    3SAPS   C39  369   4.835   4.978   5.491
    3SAPS   H9X  370   4.778   4.885   5.468
    3SAPS   H9Y  371   4.941   4.949   5.475
    3SAPS  C310  372   4.800   5.085   5.374
    3SAPS  H10X  373   4.848   5.183   5.392
    3SAPS  H10Y  374   4.692   5.110   5.369
    3SAPS  C311  375   4.834   5.031   5.237
    3SAPS  H11X  376   4.776   4.939   5.217
    3SAPS  H11Y  377   4.939   4.993   5.241
    3SAPS  C312  378   4.836   5.139   5.133
    3SAPS  H12X  379   4.893   5.220   5.182
    3SAPS  H12Y  380   4.733   5.179   5.116
    3SAPS  C313  381   4.903   5.109   5.005
    3SAPS  H13X  382   4.881   5.194   4.936
    3SAPS  H13Y  383   4.838   5.029   4.962
    3SAPS  C314  384   5.049   5.068   5.004
    3SAPS  H14X  385   5.061   4.975   5.063
    3SAPS  H14Y  386   5.104   5.150   5.056
    3SAPS  C315  387   5.108   5.062   4.858
    3SAPS  H15X  388   5.152   5.159   4.826
    3SAPS  H15Y  389   5.031   5.029   4.785
    3SAPS  C316  390   5.227   4.964   4.853
    3SAPS  H16X  391   5.178   4.866   4.866
    3SAPS  H16Y  392   5.295   4.983   4.939
    3SAPS  C317  393   5.308   4.967   4.714
    3SAPS  H17X  394   5.236   4.959   4.630
    3SAPS  H17Y  395   5.368   4.874   4.710
    3SAPS  C318  396   5.393   5.097   4.687
    3SAPS  H18X  397   5.343   5.194   4.704
    3SAPS  H18Y  398   5.429   5.103   4.583
    3SAPS  H18Z  399   5.478   5.097   4.758
    4SAPS     N  400   2.363   2.460   7.049
    4SAPS   HN1  401   2.288   2.487   7.115
    4SAPS   HN2  402   2.447   2.490   7.102
    4SAPS   HN3  403   2.355   2.527   6.970
    4SAPS   C12  404   2.358   2.319   7.012
    4SAPS  H12A  405   2.461   2.297   6.986
    4SAPS   C13  406   2.320   2.232   7.132
    4SAPS  O13A  407   2.311   2.283   7.248
    4SAPS  O13B  408   2.344   2.112   7.119
    4SAPS   C11  409   2.264   2.296   6.894
    4SAPS  H11A  410   2.258   2.187   6.873
    4SAPS  H11B  411   2.313   2.324   6.798
    4SAPS     P  412   2.063   2.469   6.843
    4SAPS   O13  413   1.921   2.469   6.871
    4SAPS   O14  414   2.156   2.575   6.889
    4SAPS   O12  415   2.132   2.343   6.904
    4SAPS   O11  416   2.088   2.453   6.689
    4SAPS    C1  417   2.046   2.340   6.608
    4SAPS    HA  418   2.137   2.289   6.571
    4SAPS    HB  419   1.981   2.259   6.650
    4SAPS    C2  420   1.969   2.383   6.485
    4SAPS    HS  421   1.956   2.290   6.426
    4SAPS   O21  422   2.029   2.481   6.407
    4SAPS   C21  423   2.152   2.455   6.370
    4SAPS   O22  424   2.204   2.342   6.370
    4SAPS   C22  425   2.216   2.581   6.305
    4SAPS   H2R  426   2.259   2.643   6.387
    4SAPS   H2S  427   2.305   2.549   6.247
    4SAPS    C3  428   1.832   2.443   6.514
    4SAPS    HX  429   1.832   2.546   6.555
    4SAPS    HY  430   1.789   2.377   6.592
    4SAPS   O31  431   1.753   2.443   6.396
    4SAPS   C31  432   1.659   2.353   6.383
    4SAPS   O32  433   1.633   2.262   6.459
    4SAPS   C32  434   1.583   2.375   6.245
    4SAPS   H2X  435   1.530   2.473   6.250
    4SAPS   H2Y  436   1.513   2.289   6.244
    4SAPS   C23  437   2.118   2.654   6.205
    4SAPS   H3R  438   2.173   2.745   6.174
    4SAPS   H3S  439   2.029   2.686   6.263
    4SAPS   C24  440   2.076   2.568   6.083
    4SAPS   H4R  441   2.036   2.471   6.122
    4SAPS   H4S  442   2.163   2.544   6.018
    4SAPS   C25  443   1.959   2.626   6.006
    4SAPS   H5R  444   1.862   2.624   6.057
    4SAPS   C26  445   1.957   2.695   5.888
    4SAPS   H6R  446   1.862   2.742   5.856
    4SAPS   C27  447   2.064   2.714   5.791
    4SAPS   H7R  448   2.156   2.749   5.842
    4SAPS   H7S  449   2.034   2.802   5.730
    4SAPS   C28  450   2.085   2.607   5.693
    4SAPS   H8R  451   2.144   2.522   5.731
    4SAPS   C29  452   2.062   2.606   5.567
    4SAPS   H9R  453   2.073   2.511   5.512
    4SAPS  C210  454   1.998   2.706   5.477
    4SAPS  H10R  455   1.966   2.796   5.533
    4SAPS  H10S  456   1.905   2.658   5.437
    4SAPS  C211  457   2.088   2.755   5.364
    4SAPS  H11R  458   2.196   2.766   5.381
    4SAPS  C212  459   2.041   2.800   5.251
    4SAPS  H12R  460   2.114   2.842   5.179
    4SAPS  C213  461   1.896   2.811   5.215
    4SAPS  H13R  462   1.850   2.874   5.295
    4SAPS  H13S  463   1.844   2.715   5.199
    4SAPS  C214  464   1.879   2.885   5.083
    4SAPS  H14R  465   1.833   2.984   5.090
    4SAPS  C215  466   1.919   2.846   4.959
    4SAPS  H15R  467   1.905   2.914   4.874
    4SAPS  C216  468   1.994   2.722   4.910
    4SAPS  H16R  469   1.924   2.636   4.913
    4SAPS  H16S  470   2.077   2.692   4.977
    4SAPS  C217  471   2.059   2.740   4.768
    4SAPS  H17R  472   2.116   2.651   4.733
    4SAPS  H17S  473   2.129   2.826   4.775
    4SAPS  C218  474   1.954   2.772   4.655
    4SAPS  H18R  475   1.867   2.841   4.666
    4SAPS  H18S  476   1.909   2.673   4.635
    4SAPS  C219  477   2.020   2.826   4.528
    4SAPS  H19R  478   2.089   2.752   4.482
    4SAPS  H19S  479   2.056   2.930   4.543
    4SAPS  C220  480   1.912   2.855   4.418
    4SAPS  H20R  481   1.952   2.900   4.325
    4SAPS  H20S  482   1.834   2.925   4.455
    4SAPS  H20T  483   1.856   2.762   4.395
    4SAPS   C33  484   1.667   2.369   6.113
    4SAPS   H3X  485   1.731   2.278   6.118
    4SAPS   H3Y  486   1.740   2.452   6.105
    4SAPS   C34  487   1.579   2.372   5.988
    4SAPS   H4X  488   1.510   2.460   5.990
    4SAPS   H4Y  489   1.513   2.285   5.968
    4SAPS   C35  490   1.664   2.386   5.866
    4SAPS   H5X  491   1.736   2.301   5.865
    4SAPS   H5Y  492   1.722   2.480   5.878
    4SAPS   C36  493   1.603   2.372   5.719
    4SAPS   H6X  494   1.522   2.447   5.708
    4SAPS   H6Y  495   1.545   2.278   5.708
    4SAPS   C37  496   1.698   2.387   5.608
    4SAPS   H7X  497   1.778   2.311   5.614
    4SAPS   H7Y  498   1.737   2.490   5.626
    4SAPS   C38  499   1.632   2.369   5.470
    4SAPS   H8X  500   1.557   2.449   5.451
    4SAPS   H8Y  501   1.577   2.272   5.470
    4SAPS   C39  502   1.723   2.368   5.345
    4SAPS   H9X  503   1.793   2.282   5.346
    4SAPS   H9Y  504   1.802   2.447   5.344
    4SAPS  C310  505   1.641   2.365   5.215
    4SAPS  H10X  506   1.597   2.466   5.195
    4SAPS  H10Y  507   1.550   2.301   5.215
    4SAPS  C311  508   1.722   2.339   5.082
    4SAPS  H11X  509   1.749   2.232   5.093
    4SAPS  H11Y  510   1.812   2.404   5.085
    4SAPS  C312  511   1.647   2.386   4.955
    4SAPS  H12X  512   1.628   2.495   4.971
    4SAPS  H12Y  513   1.551   2.331   4.949
    4SAPS  C313  514   1.736   2.378   4.831
    4SAPS  H13X  515   1.753   2.272   4.804
    4SAPS  H13Y  516   1.837   2.420   4.847
    4SAPS  C314  517   1.673   2.426   4.700
    4SAPS  H14X  518   1.629   2.528   4.696
    4SAPS  H14Y  519   1.587   2.359   4.682
    4SAPS  C315  520   1.770   2.401   4.590
    4SAPS  H15X  521   1.798   2.294   4.584
    4SAPS  H15Y  522   1.852   2.469   4.622
    4SAPS  C316  523   1.729   2.458   4.454
    4SAPS  H16X  524   1.698   2.563   4.474
    4SAPS  H16Y  525   1.637   2.407   4.418
    4SAPS  C317  526   1.840   2.430   4.344
    4SAPS  H17X  527   1.918   2.367   4.392
    4SAPS  H17Y  528   1.883   2.531   4.325
    4SAPS  C318  529   1.800   2.369   4.209
    4SAPS  H18X  530   1.884   2.304   4.175
    4SAPS  H18Y  531   1.803   2.455   4.139
    4SAPS  H18Z  532   1.701   2.319   4.204
    5SAPS     N  533   5.001   4.385   6.750
    5SAPS   HN1  534   4.901   4.358   6.744
    5SAPS   HN2  535   5.016   4.487   6.738
    5SAPS   HN3  536   5.069   4.334   6.690
    5SAPS   C12  537   5.046   4.351   6.878
    5SAPS  H12A  538   5.149   4.380   6.891
    5SAPS   C13  539   4.977   4.420   7.000
    5SAPS  O13A  540   4.894   4.506   6.975
    5SAPS  O13B  541   4.984   4.369   7.116
    5SAPS   C11  542   5.027   4.199   6.887
    5SAPS  H11A  543   4.918   4.178   6.888
    5SAPS  H11B  544   5.070   4.171   6.986
    5SAPS     P  545   5.230   4.057   6.799
    5SAPS   O13  546   5.315   4.143   6.891
    5SAPS   O14  547   5.187   3.927   6.855
    5SAPS   O12  548   5.094   4.131   6.775
    5SAPS   O11  549   5.302   4.031   6.660
    5SAPS    C1  550   5.243   3.948   6.556
    5SAPS    HA  551   5.259   3.842   6.584
    5SAPS    HB  552   5.137   3.973   6.537
    5SAPS    C2  553   5.308   3.965   6.414
    5SAPS    HS  554   5.417   3.948   6.430
    5SAPS   O21  555   5.282   4.104   6.381
    5SAPS   C21  556   5.364   4.154   6.294
    5SAPS   O22  557   5.480   4.116   6.281
    5SAPS   C22  558   5.297   4.263   6.210
    5SAPS   H2R  559   5.218   4.208   6.154
    5SAPS   H2S  560   5.251   4.328   6.288
    5SAPS    C3  561   5.243   3.878   6.303
    5SAPS    HX  562   5.135   3.905   6.299
    5SAPS    HY  563   5.238   3.771   6.334
    5SAPS   O31  564   5.306   3.896   6.180
    5SAPS   C31  565   5.413   3.823   6.152
    5SAPS   O32  566   5.460   3.745   6.231
    5SAPS   C32  567   5.458   3.843   6.003
    5SAPS   H2X  568   5.375   3.805   5.939
    5SAPS   H2Y  569   5.536   3.767   5.985
    5SAPS   C23  570   5.408   4.325   6.116
    5SAPS   H3R  571   5.457   4.250   6.051
    5SAPS   H3S  572   5.485   4.368   6.184
    5SAPS   C24  573   5.347   4.436   6.039
    5SAPS   H4R  574   5.357   4.529   6.098
    5SAPS   H4S  575   5.240   4.417   6.017
    5SAPS   C25  576   5.410   4.468   5.905
    5SAPS   H5R  577   5.514   4.504   5.911
    5SAPS   C26  578   5.341   4.491   5.789
    5SAPS   H6R  579   5.390   4.530   5.699
    5SAPS   C27  580   5.195   4.463   5.764
    5SAPS   H7R  581   5.148   4.564   5.774
    5SAPS   H7S  582   5.143   4.404   5.842
    5SAPS   C28  583   5.177   4.400   5.627
    5SAPS   H8R  584   5.171   4.291   5.634
    5SAPS   C29  585   5.171   4.457   5.508
    5SAPS   H9R  586   5.149   4.396   5.419
    5SAPS  C210  587   5.176   4.605   5.474
    5SAPS  H10R  588   5.273   4.638   5.430
    5SAPS  H10S  589   5.154   4.670   5.562
    5SAPS  C211  590   5.085   4.642   5.354
    5SAPS  H11R  591   4.988   4.690   5.376
    5SAPS  C212  592   5.115   4.636   5.226
    5SAPS  H12R  593   5.043   4.673   5.152
    5SAPS  C213  594   5.245   4.584   5.155
    5SAPS  H13R  595   5.347   4.613   5.188
    5SAPS  H13S  596   5.247   4.632   5.055
    5SAPS  C214  597   5.267   4.433   5.157
    5SAPS  H14R  598   5.309   4.404   5.254
    5SAPS  C215  599   5.228   4.344   5.065
    5SAPS  H15R  600   5.266   4.242   5.081
    5SAPS  C216  601   5.171   4.381   4.930
    5SAPS  H16R  602   5.143   4.487   4.912
    5SAPS  H16S  603   5.075   4.326   4.921
    5SAPS  C217  604   5.260   4.332   4.815
    5SAPS  H17R  605   5.363   4.375   4.818
    5SAPS  H17S  606   5.210   4.368   4.723
    5SAPS  C218  607   5.284   4.179   4.817
    5SAPS  H18R  608   5.185   4.135   4.839
    5SAPS  H18S  609   5.358   4.148   4.894
    5SAPS  C219  610   5.323   4.124   4.676
    5SAPS  H19R  611   5.419   4.171   4.645
    5SAPS  H19S  612   5.247   4.150   4.599
    5SAPS  C220  613   5.363   3.974   4.665
    5SAPS  H20R  614   5.460   3.952   4.714
    5SAPS  H20S  615   5.361   3.951   4.557
    5SAPS  H20T  616   5.287   3.912   4.717
    5SAPS   C33  617   5.495   3.984   5.954
    5SAPS   H3X  618   5.592   4.010   6.002
    5SAPS   H3Y  619   5.413   4.049   5.994
    5SAPS   C34  620   5.511   3.995   5.800
    5SAPS   H4X  621   5.513   4.104   5.776
    5SAPS   H4Y  622   5.436   3.935   5.744
    5SAPS   C35  623   5.649   3.943   5.746
    5SAPS   H5X  624   5.659   3.834   5.765
    5SAPS   H5Y  625   5.725   4.007   5.796
    5SAPS   C36  626   5.669   3.971   5.596
    5SAPS   H6X  627   5.778   3.952   5.585
    5SAPS   H6Y  628   5.649   4.078   5.571
    5SAPS   C37  629   5.578   3.884   5.509
    5SAPS   H7X  630   5.475   3.925   5.518
    5SAPS   H7Y  631   5.581   3.783   5.555
    5SAPS   C38  632   5.614   3.879   5.357
    5SAPS   H8X  633   5.545   3.818   5.295
    5SAPS   H8Y  634   5.709   3.823   5.356
    5SAPS   C39  635   5.634   4.018   5.294
    5SAPS   H9X  636   5.706   4.076   5.356
    5SAPS   H9Y  637   5.548   4.088   5.297
    5SAPS  C310  638   5.691   4.017   5.152
    5SAPS  H10X  639   5.624   3.951   5.094
    5SAPS  H10Y  640   5.790   3.970   5.137
    5SAPS  C311  641   5.690   4.151   5.071
    5SAPS  H11X  642   5.739   4.227   5.135
    5SAPS  H11Y  643   5.583   4.182   5.064
    5SAPS  C312  644   5.749   4.144   4.932
    5SAPS  H12X  645   5.685   4.085   4.864
    5SAPS  H12Y  646   5.853   4.106   4.933
    5SAPS  C313  647   5.749   4.285   4.876
    5SAPS  H13X  648   5.799   4.357   4.945
    5SAPS  H13Y  649   5.643   4.317   4.882
    5SAPS  C314  650   5.821   4.293   4.745
    5SAPS  H14X  651   5.784   4.374   4.677
    5SAPS  H14Y  652   5.804   4.206   4.678
    5SAPS  C315  653   5.971   4.331   4.741
    5SAPS  H15X  654   5.994   4.417   4.807
    5SAPS  H15Y  655   5.995   4.355   4.635
    5SAPS  C316  656   6.064   4.209   4.771
    5SAPS  H16X  657   6.026   4.123   4.711
    5SAPS  H16Y  658   6.059   4.196   4.881
    5SAPS  C317  659   6.213   4.228   4.733
    5SAPS  H17X  660   6.244   4.333   4.754
    5SAPS  H17Y  661   6.223   4.215   4.624
    5SAPS  C318  662   6.304   4.130   4.804
    5SAPS  H18X  663   6.409   4.143   4.770
    5SAPS  H18Y  664   6.270   4.024   4.799
    5SAPS  H18Z  665   6.294   4.156   4.912
    6SAPS     N  666   2.712   4.493   7.083
    6SAPS   HN1  667   2.707   4.537   7.177
    6SAPS   HN2  668   2.658   4.553   7.018
    6SAPS   HN3  669   2.666   4.400   7.083
    6SAPS   C12  670   2.849   4.470   7.051
    6SAPS  H12A  671   2.899   4.566   7.047
    6SAPS   C13  672   2.929   4.382   7.147
    6SAPS  O13A  673   2.869   4.304   7.228
    6SAPS  O13B  674   3.051   4.379   7.130
    6SAPS   C11  675   2.862   4.397   6.916
    6SAPS  H11A  676   2.812   4.300   6.936
    6SAPS  H11B  677   2.969   4.371   6.901
    6SAPS     P  678   2.762   4.392   6.679
    6SAPS   O13  679   2.669   4.286   6.718
    6SAPS   O14  680   2.703   4.488   6.587
    6SAPS   O12  681   2.807   4.467   6.806
    6SAPS   O11  682   2.899   4.328   6.626
    6SAPS    C1  683   3.005   4.403   6.564
    6SAPS    HA  684   2.996   4.513   6.576
    6SAPS    HB  685   3.102   4.374   6.610
    6SAPS    C2  686   3.015   4.378   6.413
    6SAPS    HS  687   3.114   4.420   6.386
    6SAPS   O21  688   2.912   4.447   6.340
    6SAPS   C21  689   2.925   4.573   6.324
    6SAPS   O22  690   3.015   4.644   6.363
    6SAPS   C22  691   2.801   4.636   6.255
    6SAPS   H2R  692   2.710   4.611   6.315
    6SAPS   H2S  693   2.814   4.746   6.250
    6SAPS    C3  694   3.003   4.229   6.371
    6SAPS    HX  695   2.928   4.185   6.441
    6SAPS    HY  696   3.098   4.173   6.387
    6SAPS   O31  697   2.952   4.221   6.236
    6SAPS   C31  698   3.047   4.249   6.142
    6SAPS   O32  699   3.164   4.261   6.164
    6SAPS   C32  700   2.991   4.247   5.992
    6SAPS   H2X  701   3.081   4.236   5.928
    6SAPS   H2Y  702   2.960   4.350   5.966
    6SAPS   C23  703   2.765   4.575   6.121
    6SAPS   H3R  704   2.759   4.464   6.122
    6SAPS   H3S  705   2.847   4.599   6.050
    6SAPS   C24  706   2.631   4.620   6.066
    6SAPS   H4R  707   2.553   4.579   6.134
    6SAPS   H4S  708   2.614   4.568   5.969
    6SAPS   C25  709   2.622   4.762   6.045
    6SAPS   H5R  710   2.584   4.818   6.132
    6SAPS   C26  711   2.629   4.824   5.926
    6SAPS   H6R  712   2.614   4.933   5.928
    6SAPS   C27  713   2.664   4.779   5.786
    6SAPS   H7R  714   2.720   4.683   5.788
    6SAPS   H7S  715   2.731   4.855   5.739
    6SAPS   C28  716   2.538   4.752   5.699
    6SAPS   H8R  717   2.459   4.700   5.755
    6SAPS   C29  718   2.517   4.792   5.573
    6SAPS   H9R  719   2.423   4.761   5.525
    6SAPS  C210  720   2.613   4.869   5.487
    6SAPS  H10R  721   2.721   4.859   5.513
    6SAPS  H10S  722   2.585   4.975   5.506
    6SAPS  C211  723   2.604   4.834   5.340
    6SAPS  H11R  724   2.542   4.745   5.319
    6SAPS  C212  725   2.667   4.886   5.231
    6SAPS  H12R  726   2.643   4.836   5.136
    6SAPS  C213  727   2.760   5.004   5.237
    6SAPS  H13R  728   2.829   4.995   5.150
    6SAPS  H13S  729   2.830   4.991   5.323
    6SAPS  C214  730   2.701   5.142   5.234
    6SAPS  H14R  731   2.604   5.144   5.180
    6SAPS  C215  732   2.751   5.249   5.295
    6SAPS  H15R  733   2.710   5.350   5.285
    6SAPS  C216  734   2.887   5.252   5.365
    6SAPS  H16R  735   2.966   5.297   5.300
    6SAPS  H16S  736   2.937   5.157   5.393
    6SAPS  C217  737   2.883   5.349   5.484
    6SAPS  H17R  738   2.853   5.452   5.455
    6SAPS  H17S  739   2.989   5.354   5.515
    6SAPS  C218  740   2.799   5.302   5.601
    6SAPS  H18R  741   2.832   5.199   5.629
    6SAPS  H18S  742   2.690   5.301   5.583
    6SAPS  C219  743   2.819   5.381   5.736
    6SAPS  H19R  744   2.774   5.482   5.725
    6SAPS  H19S  745   2.928   5.390   5.755
    6SAPS  C220  746   2.762   5.305   5.854
    6SAPS  H20R  747   2.843   5.287   5.928
    6SAPS  H20S  748   2.725   5.203   5.831
    6SAPS  H20T  749   2.680   5.363   5.901
    6SAPS   C33  750   2.879   4.142   5.978
    6SAPS   H3X  751   2.792   4.156   6.044
    6SAPS   H3Y  752   2.912   4.037   5.992
    6SAPS   C34  753   2.814   4.169   5.842
    6SAPS   H4X  754   2.763   4.267   5.832
    6SAPS   H4Y  755   2.727   4.101   5.854
    6SAPS   C35  756   2.891   4.145   5.714
    6SAPS   H5X  757   2.941   4.045   5.717
    6SAPS   H5Y  758   2.969   4.222   5.693
    6SAPS   C36  759   2.814   4.153   5.585
    6SAPS   H6X  760   2.773   4.255   5.572
    6SAPS   H6Y  761   2.731   4.079   5.589
    6SAPS   C37  762   2.905   4.126   5.460
    6SAPS   H7X  763   2.939   4.021   5.467
    6SAPS   H7Y  764   2.995   4.191   5.455
    6SAPS   C38  765   2.826   4.141   5.327
    6SAPS   H8X  766   2.797   4.248   5.333
    6SAPS   H8Y  767   2.734   4.079   5.325
    6SAPS   C39  768   2.912   4.122   5.200
    6SAPS   H9X  769   2.947   4.016   5.201
    6SAPS   H9Y  770   2.991   4.200   5.199
    6SAPS  C310  771   2.819   4.144   5.079
    6SAPS  H10X  772   2.754   4.231   5.105
    6SAPS  H10Y  773   2.747   4.060   5.069
    6SAPS  C311  774   2.888   4.178   4.945
    6SAPS  H11X  775   2.980   4.119   4.926
    6SAPS  H11Y  776   2.927   4.282   4.947
    6SAPS  C312  777   2.804   4.181   4.816
    6SAPS  H12X  778   2.747   4.276   4.821
    6SAPS  H12Y  779   2.728   4.100   4.815
    6SAPS  C313  780   2.883   4.173   4.679
    6SAPS  H13X  781   2.987   4.211   4.684
    6SAPS  H13Y  782   2.830   4.233   4.601
    6SAPS  C314  783   2.894   4.030   4.625
    6SAPS  H14X  784   2.808   3.967   4.657
    6SAPS  H14Y  785   2.982   3.978   4.669
    6SAPS  C315  786   2.920   4.048   4.475
    6SAPS  H15X  787   3.019   4.099   4.464
    6SAPS  H15Y  788   2.844   4.109   4.422
    6SAPS  C316  789   2.927   3.915   4.393
    6SAPS  H16X  790   3.019   3.869   4.437
    6SAPS  H16Y  791   2.951   3.937   4.287
    6SAPS  C317  792   2.811   3.817   4.400
    6SAPS  H17X  793   2.724   3.869   4.355
    6SAPS  H17Y  794   2.790   3.789   4.506
    6SAPS  C318  795   2.835   3.691   4.318
    6SAPS  H18X  796   2.866   3.707   4.212
    6SAPS  H18Y  797   2.755   3.614   4.327
    6SAPS  H18Z  798   2.917   3.638   4.372
    7SAPS     N  799   2.424   0.696   6.747
    7SAPS   HN1  800   2.524   0.712   6.770
    7SAPS   HN2  801   2.403   0.665   6.649
    7SAPS   HN3  802   2.374   0.784   6.768
    7SAPS   C12  803   2.369   0.590   6.841
    7SAPS  H12A  804   2.437   0.589   6.925
    7SAPS   C13  805   2.236   0.624   6.914
    7SAPS  O13A  806   2.200   0.745   6.918
    7SAPS  O13B  807   2.192   0.531   6.989
    7SAPS   C11  808   2.364   0.447   6.774
    7SAPS  H11A  809   2.269   0.441   6.717
    7SAPS  H11B  810   2.370   0.370   6.854
    7SAPS     P  811   2.615   0.350   6.719
    7SAPS   O13  812   2.683   0.398   6.836
    7SAPS   O14  813   2.580   0.208   6.725
    7SAPS   O12  814   2.475   0.425   6.688
    7SAPS   O11  815   2.702   0.387   6.594
    7SAPS    C1  816   2.644   0.412   6.466
    7SAPS    HA  817   2.554   0.478   6.474
    7SAPS    HB  818   2.720   0.451   6.395
    7SAPS    C2  819   2.596   0.284   6.391
    7SAPS    HS  820   2.526   0.226   6.456
    7SAPS   O21  821   2.712   0.211   6.350
    7SAPS   C21  822   2.713   0.085   6.395
    7SAPS   O22  823   2.614   0.025   6.433
    7SAPS   C22  824   2.851   0.029   6.372
    7SAPS   H2R  825   2.888   0.054   6.271
    7SAPS   H2S  826   2.917   0.083   6.442
    7SAPS    C3  827   2.510   0.319   6.261
    7SAPS    HX  828   2.415   0.369   6.289
    7SAPS    HY  829   2.496   0.217   6.220
    7SAPS   O31  830   2.589   0.398   6.167
    7SAPS   C31  831   2.643   0.337   6.058
    7SAPS   O32  832   2.654   0.217   6.043
    7SAPS   C32  833   2.705   0.451   5.968
    7SAPS   H2X  834   2.808   0.472   6.003
    7SAPS   H2Y  835   2.652   0.548   5.981
    7SAPS   C23  836   2.871   6.702   6.402
    7SAPS   H3R  837   2.784   6.677   6.467
    7SAPS   H3S  838   2.974   6.691   6.444
    7SAPS   C24  839   2.892   6.615   6.276
    7SAPS   H4R  840   2.811   6.639   6.204
    7SAPS   H4S  841   2.864   6.508   6.289
    7SAPS   C25  842   3.028   6.617   6.216
    7SAPS   H5R  843   3.111   6.594   6.285
    7SAPS   C26  844   3.061   6.639   6.089
    7SAPS   H6R  845   3.167   6.642   6.059
    7SAPS   C27  846   2.975   6.682   5.979
    7SAPS   H7R  847   2.881   6.733   6.011
    7SAPS   H7S  848   2.952   6.588   5.924
    7SAPS   C28  849   3.038   6.777   5.872
    7SAPS   H8R  850   3.002   0.055   5.882
    7SAPS   C29  851   3.127   6.747   5.778
    7SAPS   H9R  852   3.165   0.005   5.717
    7SAPS  C210  853   3.178   6.609   5.749
    7SAPS  H10R  854   3.115   6.570   5.667
    7SAPS  H10S  855   3.152   6.548   5.838
    7SAPS  C211  856   3.324   6.581   5.730
    7SAPS  H11R  857   3.379   6.593   5.825
    7SAPS  C212  858   3.392   6.559   5.614
    7SAPS  H12R  859   3.497   6.530   5.619
    7SAPS  C213  860   3.328   6.555   5.478
    7SAPS  H13R  861   3.228   6.603   5.478
    7SAPS  H13S  862   3.314   6.448   5.452
    7SAPS  C214  863   3.411   6.626   5.378
    7SAPS  H14R  864   3.480   6.563   5.320
    7SAPS  C215  865   3.429   6.760   5.367
    7SAPS  H15R  866   3.492   6.790   5.283
    7SAPS  C216  867   3.369   0.047   5.444
    7SAPS  H16R  868   3.453   0.111   5.479
    7SAPS  H16S  869   3.303   0.011   5.526
    7SAPS  C217  870   3.288   0.143   5.352
    7SAPS  H17R  871   3.343   0.198   5.273
    7SAPS  H17S  872   3.237   0.217   5.418
    7SAPS  C218  873   3.183   0.065   5.275
    7SAPS  H18R  874   3.134   6.816   5.343
    7SAPS  H18S  875   3.236   6.822   5.204
    7SAPS  C219  876   3.079   0.153   5.206
    7SAPS  H19R  877   2.998   0.087   5.167
    7SAPS  H19S  878   3.119   0.204   5.117
    7SAPS  C220  879   3.011   0.264   5.294
    7SAPS  H20R  880   2.913   0.300   5.255
    7SAPS  H20S  881   3.081   0.347   5.314
    7SAPS  H20T  882   2.984   0.221   5.392
    7SAPS   C33  883   2.720   0.398   5.822
    7SAPS   H3X  884   2.700   0.476   5.745
    7SAPS   H3Y  885   2.638   0.323   5.811
    7SAPS   C34  886   2.859   0.334   5.803
    7SAPS   H4X  887   2.889   0.272   5.890
    7SAPS   H4Y  888   2.934   0.415   5.792
    7SAPS   C35  889   2.862   0.261   5.670
    7SAPS   H5X  890   2.967   0.225   5.667
    7SAPS   H5Y  891   2.855   0.338   5.590
    7SAPS   C36  892   2.769   0.132   5.658
    7SAPS   H6X  893   2.666   0.166   5.684
    7SAPS   H6Y  894   2.810   0.064   5.736
    7SAPS   C37  895   2.784   0.060   5.531
    7SAPS   H7X  896   2.736   6.786   5.545
    7SAPS   H7Y  897   2.890   0.041   5.503
    7SAPS   C38  898   2.713   0.128   5.423
    7SAPS   H8X  899   2.770   0.222   5.406
    7SAPS   H8Y  900   2.613   0.165   5.454
    7SAPS   C39  901   2.701   0.042   5.296
    7SAPS   H9X  902   2.671   6.766   5.332
    7SAPS   H9Y  903   2.802   0.041   5.250
    7SAPS  C310  904   2.588   0.070   5.185
    7SAPS  H10X  905   2.570   6.804   5.125
    7SAPS  H10Y  906   2.626   0.158   5.129
    7SAPS  C311  907   2.448   0.093   5.233
    7SAPS  H11X  908   2.444   0.179   5.304
    7SAPS  H11Y  909   2.410   0.009   5.295
    7SAPS  C312  910   2.350   0.112   5.115
    7SAPS  H12X  911   2.317   0.008   5.092
    7SAPS  H12Y  912   2.411   0.162   5.037
    7SAPS  C313  913   2.225   0.200   5.142
    7SAPS  H13X  914   2.263   0.288   5.200
    7SAPS  H13Y  915   2.174   0.156   5.230
    7SAPS  C314  916   2.132   0.222   5.026
    7SAPS  H14X  917   2.040   0.274   5.061
    7SAPS  H14Y  918   2.088   0.126   4.990
    7SAPS  C315  919   2.197   0.303   4.917
    7SAPS  H15X  920   2.277   0.358   4.972
    7SAPS  H15Y  921   2.133   0.381   4.871
    7SAPS  C316  922   2.256   0.217   4.799
    7SAPS  H16X  923   2.322   0.134   4.831
    7SAPS  H16Y  924   2.319   0.294   4.749
    7SAPS  C317  925   2.150   0.172   4.701
    7SAPS  H17X  926   2.084   0.256   4.669
    7SAPS  H17Y  927   2.077   0.102   4.746
    7SAPS  C318  928   2.208   0.109   4.575
    7SAPS  H18X  929   2.267   0.189   4.527
    7SAPS  H18Y  930   2.116   0.073   4.523
    7SAPS  H18Z  931   2.275   0.023   4.595
    8SAPS     N  932   1.730   1.543   6.834
    8SAPS   HN1  933   1.638   1.501   6.812
    8SAPS   HN2  934   1.715   1.645   6.850
    8SAPS   HN3  935   1.794   1.531   6.753
    8SAPS   C12  936   1.793   1.480   6.953
    8SAPS  H12A  937   1.831   1.561   7.014
    8SAPS   C13  938   1.699   1.409   7.058
    8SAPS  O13A  939   1.582   1.391   7.030
    8SAPS  O13B  940   1.756   1.381   7.165
    8SAPS   C11  941   1.903   1.383   6.904
    8SAPS  H11A  942   1.868   1.300   6.839
    8SAPS  H11B  943   1.945   1.330   6.992
    8SAPS     P  944   2.149   1.498   6.882
    8SAPS   O13  945   2.200   1.608   6.802
    8SAPS   O14  946   2.154   1.514   7.026
    8SAPS   O12  947   2.005   1.461   6.833
    8SAPS   O11  948   2.240   1.370   6.843
    8SAPS    C1  949   2.382   1.380   6.858
    8SAPS    HA  950   2.418   1.432   6.950
    8SAPS    HB  951   2.411   1.273   6.866
    8SAPS    C2  952   2.457   1.444   6.737
    8SAPS    HS  953   2.405   1.537   6.705
    8SAPS   O21  954   2.462   1.335   6.634
    8SAPS   C21  955   2.439   1.376   6.511
    8SAPS   O22  956   2.371   1.480   6.479
    8SAPS   C22  957   2.475   1.269   6.402
    8SAPS   H2R  958   2.584   1.247   6.403
    8SAPS   H2S  959   2.432   1.170   6.426
    8SAPS    C3  960   2.595   1.491   6.785
    8SAPS    HX  961   2.649   1.398   6.814
    8SAPS    HY  962   2.582   1.549   6.879
    8SAPS   O31  963   2.669   1.570   6.697
    8SAPS   C31  964   2.624   1.698   6.684
    8SAPS   O32  965   2.552   1.748   6.764
    8SAPS   C32  966   2.703   1.770   6.574
    8SAPS   H2X  967   2.808   1.736   6.571
    8SAPS   H2Y  968   2.709   1.878   6.598
    8SAPS   C23  969   2.414   1.293   6.263
    8SAPS   H3R  970   2.388   1.400   6.254
    8SAPS   H3S  971   2.319   1.236   6.257
    8SAPS   C24  972   2.508   1.258   6.146
    8SAPS   H4R  973   2.607   1.299   6.175
    8SAPS   H4S  974   2.475   1.315   6.057
    8SAPS   C25  975   2.529   1.112   6.121
    8SAPS   H5R  976   2.535   1.055   6.215
    8SAPS   C26  977   2.505   1.048   6.002
    8SAPS   H6R  978   2.539   0.943   5.994
    8SAPS   C27  979   2.485   1.108   5.864
    8SAPS   H7R  980   2.473   1.218   5.873
    8SAPS   H7S  981   2.392   1.078   5.812
    8SAPS   C28  982   2.600   1.108   5.765
    8SAPS   H8R  983   2.689   1.164   5.794
    8SAPS   C29  984   2.600   1.039   5.647
    8SAPS   H9R  985   2.687   1.059   5.583
    8SAPS  C210  986   2.496   0.952   5.582
    8SAPS  H10R  987   2.424   0.912   5.657
    8SAPS  H10S  988   2.556   0.866   5.545
    8SAPS  C211  989   2.416   1.013   5.473
    8SAPS  H11R  990   2.317   1.047   5.505
    8SAPS  C212  991   2.452   1.056   5.348
    8SAPS  H12R  992   2.377   1.093   5.276
    8SAPS  C213  993   2.588   1.056   5.293
    8SAPS  H13R  994   2.658   1.067   5.378
    8SAPS  H13S  995   2.620   1.148   5.239
    8SAPS  C214  996   2.623   0.944   5.205
    8SAPS  H14R  997   2.614   0.846   5.256
    8SAPS  C215  998   2.684   0.944   5.085
    8SAPS  H15R  999   2.714   0.849   5.040
    8SAPS  C216 1000   2.739   1.058   5.006
    8SAPS  H16R 1001   2.847   1.042   4.986
    8SAPS  H16S 1002   2.732   1.157   5.055
    8SAPS  C217 1003   2.668   1.062   4.866
    8SAPS  H17R 1004   2.559   1.072   4.888
    8SAPS  H17S 1005   2.678   0.968   4.807
    8SAPS  C218 1006   2.715   1.179   4.782
    8SAPS  H18R 1007   2.691   1.273   4.836
    8SAPS  H18S 1008   2.653   1.177   4.690
    8SAPS  C219 1009   2.864   1.171   4.741
    8SAPS  H19R 1010   2.874   1.070   4.696
    8SAPS  H19S 1011   2.926   1.171   4.833
    8SAPS  C220 1012   2.895   1.275   4.638
    8SAPS  H20R 1013   2.862   1.377   4.668
    8SAPS  H20S 1014   2.841   1.243   4.547
    8SAPS  H20T 1015   3.004   1.279   4.619
    8SAPS   C33 1016   2.641   1.765   6.427
    8SAPS   H3X 1017   2.690   1.844   6.365
    8SAPS   H3Y 1018   2.533   1.784   6.415
    8SAPS   C34 1019   2.667   1.632   6.353
    8SAPS   H4X 1020   2.634   1.558   6.429
    8SAPS   H4Y 1021   2.774   1.620   6.324
    8SAPS   C35 1022   2.574   1.630   6.231
    8SAPS   H5X 1023   2.472   1.668   6.251
    8SAPS   H5Y 1024   2.559   1.524   6.202
    8SAPS   C36 1025   2.630   1.705   6.105
    8SAPS   H6X 1026   2.727   1.654   6.087
    8SAPS   H6Y 1027   2.651   1.812   6.129
    8SAPS   C37 1028   2.548   1.705   5.973
    8SAPS   H7X 1029   2.564   1.804   5.925
    8SAPS   H7Y 1030   2.440   1.693   5.998
    8SAPS   C38 1031   2.590   1.594   5.877
    8SAPS   H8X 1032   2.554   1.495   5.913
    8SAPS   H8Y 1033   2.701   1.592   5.874
    8SAPS   C39 1034   2.549   1.618   5.729
    8SAPS   H9X 1035   2.612   1.699   5.686
    8SAPS   H9Y 1036   2.447   1.662   5.734
    8SAPS  C310 1037   2.580   1.502   5.639
    8SAPS  H10X 1038   2.514   1.415   5.663
    8SAPS  H10Y 1039   2.683   1.462   5.652
    8SAPS  C311 1040   2.574   1.541   5.490
    8SAPS  H11X 1041   2.670   1.593   5.471
    8SAPS  H11Y 1042   2.492   1.613   5.471
    8SAPS  C312 1043   2.563   1.426   5.386
    8SAPS  H12X 1044   2.473   1.365   5.408
    8SAPS  H12Y 1045   2.654   1.363   5.401
    8SAPS  C313 1046   2.542   1.461   5.238
    8SAPS  H13X 1047   2.435   1.476   5.212
    8SAPS  H13Y 1048   2.571   1.372   5.177
    8SAPS  C314 1049   2.624   1.576   5.206
    8SAPS  H14X 1050   2.727   1.567   5.246
    8SAPS  H14Y 1051   2.588   1.671   5.252
    8SAPS  C315 1052   2.636   1.597   5.057
    8SAPS  H15X 1053   2.639   1.498   5.007
    8SAPS  H15Y 1054   2.729   1.655   5.039
    8SAPS  C316 1055   2.521   1.688   5.010
    8SAPS  H16X 1056   2.504   1.766   5.087
    8SAPS  H16Y 1057   2.428   1.627   5.000
    8SAPS  C317 1058   2.553   1.745   4.869
    8SAPS  H17X 1059   2.581   1.661   4.802
    8SAPS  H17Y 1060   2.641   1.811   4.885
    8SAPS  C318 1061   2.442   1.827   4.797
    8SAPS  H18X 1062   2.429   1.929   4.836
    8SAPS  H18Y 1063   2.350   1.767   4.777
    8SAPS  H18Z 1064   2.469   1.845   4.691
    9SAPS     N 1065   1.002   4.368   6.959
    9SAPS   HN1 1066   1.000   4.277   7.009
    9SAPS   HN2 1067   0.915   4.391   6.907
    9SAPS   HN3 1068   1.078   4.369   6.889
    9SAPS   C12 1069   1.016   4.481   7.057
    9SAPS  H12A 1070   0.917   4.507   7.093
    9SAPS   C13 1071   1.101   4.457   7.183
    9SAPS  O13A 1072   1.152   4.340   7.202
    9SAPS  O13B 1073   1.121   4.552   7.265
    9SAPS   C11 1074   1.073   4.605   6.982
    9SAPS  H11A 1075   1.171   4.567   6.945
    9SAPS  H11B 1076   1.089   4.687   7.056
    9SAPS     P 1077   1.054   4.785   6.795
    9SAPS   O13 1078   0.930   4.848   6.742
    9SAPS   O14 1079   1.147   4.867   6.872
    9SAPS   O12 1080   1.008   4.652   6.870
    9SAPS   O11 1081   1.134   4.749   6.670
    9SAPS    C1 1082   1.156   4.625   6.623
    9SAPS    HA 1083   1.171   4.547   6.700
    9SAPS    HB 1084   1.063   4.586   6.574
    9SAPS    C2 1085   1.266   4.620   6.517
    9SAPS    HS 1086   1.348   4.692   6.538
    9SAPS   O21 1087   1.214   4.637   6.387
    9SAPS   C21 1088   1.227   4.754   6.328
    9SAPS   O22 1089   1.300   4.842   6.364
    9SAPS   C22 1090   1.128   4.775   6.208
    9SAPS   H2R 1091   1.115   4.679   6.153
    9SAPS   H2S 1092   1.031   4.788   6.260
    9SAPS    C3 1093   1.312   4.481   6.520
    9SAPS    HX 1094   1.221   4.427   6.488
    9SAPS    HY 1095   1.343   4.453   6.623
    9SAPS   O31 1096   1.417   4.445   6.425
    9SAPS   C31 1097   1.435   4.318   6.404
    9SAPS   O32 1098   1.359   4.223   6.430
    9SAPS   C32 1099   1.567   4.291   6.316
    9SAPS   H2X 1100   1.540   4.224   6.232
    9SAPS   H2Y 1101   1.636   4.244   6.388
    9SAPS   C23 1102   1.156   4.890   6.111
    9SAPS   H3R 1103   1.161   4.992   6.156
    9SAPS   H3S 1104   1.079   4.912   6.034
    9SAPS   C24 1105   1.281   4.874   6.014
    9SAPS   H4R 1106   1.252   4.799   5.938
    9SAPS   H4S 1107   1.356   4.834   6.086
    9SAPS   C25 1108   1.335   5.000   5.954
    9SAPS   H5R 1109   1.352   5.089   6.017
    9SAPS   C26 1110   1.349   5.015   5.818
    9SAPS   H6R 1111   1.374   5.115   5.780
    9SAPS   C27 1112   1.314   4.927   5.701
    9SAPS   H7R 1113   1.302   4.820   5.730
    9SAPS   H7S 1114   1.399   4.925   5.630
    9SAPS   C28 1115   1.187   4.985   5.636
    9SAPS   H8R 1116   1.103   5.002   5.704
    9SAPS   C29 1117   1.165   5.003   5.507
    9SAPS   H9R 1118   1.068   5.043   5.474
    9SAPS  C210 1119   1.267   4.981   5.397
    9SAPS  H10R 1120   1.295   4.874   5.381
    9SAPS  H10S 1121   1.360   5.032   5.427
    9SAPS  C211 1122   1.213   5.033   5.259
    9SAPS  H11R 1123   1.154   5.126   5.260
    9SAPS  C212 1124   1.217   4.967   5.138
    9SAPS  H12R 1125   1.172   5.020   5.053
    9SAPS  C213 1126   1.264   4.825   5.116
    9SAPS  H13R 1127   1.177   4.785   5.060
    9SAPS  H13S 1128   1.254   4.764   5.208
    9SAPS  C214 1129   1.394   4.810   5.042
    9SAPS  H14R 1130   1.471   4.882   5.074
    9SAPS  C215 1131   1.429   4.729   4.941
    9SAPS  H15R 1132   1.526   4.737   4.891
    9SAPS  C216 1133   1.329   4.647   4.865
    9SAPS  H16R 1134   1.239   4.611   4.918
    9SAPS  H16S 1135   1.380   4.551   4.843
    9SAPS  C217 1136   1.269   4.696   4.732
    9SAPS  H17R 1137   1.184   4.627   4.714
    9SAPS  H17S 1138   1.342   4.669   4.653
    9SAPS  C218 1139   1.224   4.839   4.742
    9SAPS  H18R 1140   1.322   4.886   4.767
    9SAPS  H18S 1141   1.143   4.845   4.818
    9SAPS  C219 1142   1.173   4.899   4.609
    9SAPS  H19R 1143   1.083   4.853   4.563
    9SAPS  H19S 1144   1.266   4.887   4.550
    9SAPS  C220 1145   1.147   5.049   4.628
    9SAPS  H20R 1146   1.243   5.098   4.652
    9SAPS  H20S 1147   1.069   5.055   4.708
    9SAPS  H20T 1148   1.107   5.092   4.534
    9SAPS   C33 1149   1.637   4.419   6.259
    9SAPS   H3X 1150   1.739   4.394   6.222
    9SAPS   H3Y 1151   1.629   4.498   6.337
    9SAPS   C34 1152   1.556   4.482   6.147
    9SAPS   H4X 1153   1.456   4.506   6.189
    9SAPS   H4Y 1154   1.558   4.416   6.057
    9SAPS   C35 1155   1.604   4.618   6.103
    9SAPS   H5X 1156   1.714   4.619   6.090
    9SAPS   H5Y 1157   1.576   4.688   6.185
    9SAPS   C36 1158   1.539   4.676   5.977
    9SAPS   H6X 1159   1.539   4.787   5.983
    9SAPS   H6Y 1160   1.432   4.648   5.968
    9SAPS   C37 1161   1.609   4.609   5.848
    9SAPS   H7X 1162   1.613   4.501   5.870
    9SAPS   H7Y 1163   1.715   4.641   5.861
    9SAPS   C38 1164   1.542   4.646   5.718
    9SAPS   H8X 1165   1.567   4.755   5.713
    9SAPS   H8Y 1166   1.433   4.627   5.715
    9SAPS   C39 1167   1.609   4.580   5.594
    9SAPS   H9X 1168   1.555   4.484   5.583
    9SAPS   H9Y 1169   1.717   4.577   5.617
    9SAPS  C310 1170   1.591   4.650   5.456
    9SAPS  H10X 1171   1.631   4.753   5.465
    9SAPS  H10Y 1172   1.490   4.646   5.410
    9SAPS  C311 1173   1.678   4.570   5.362
    9SAPS  H11X 1174   1.631   4.470   5.355
    9SAPS  H11Y 1175   1.777   4.552   5.410
    9SAPS  C312 1176   1.719   4.631   5.226
    9SAPS  H12X 1177   1.774   4.725   5.243
    9SAPS  H12Y 1178   1.627   4.662   5.172
    9SAPS  C313 1179   1.801   4.539   5.137
    9SAPS  H13X 1180   1.738   4.458   5.095
    9SAPS  H13Y 1181   1.880   4.482   5.190
    9SAPS  C314 1182   1.868   4.613   5.017
    9SAPS  H14X 1183   1.953   4.676   5.052
    9SAPS  H14Y 1184   1.779   4.668   4.981
    9SAPS  C315 1185   1.913   4.532   4.900
    9SAPS  H15X 1186   1.834   4.458   4.872
    9SAPS  H15Y 1187   1.995   4.463   4.929
    9SAPS  C316 1188   1.942   4.613   4.771
    9SAPS  H16X 1189   2.027   4.685   4.778
    9SAPS  H16Y 1190   1.859   4.682   4.746
    9SAPS  C317 1191   1.967   4.526   4.648
    9SAPS  H17X 1192   1.975   4.592   4.559
    9SAPS  H17Y 1193   1.882   4.461   4.620
    9SAPS  C318 1194   2.095   4.448   4.656
    9SAPS  H18X 1195   2.091   4.357   4.720
    9SAPS  H18Y 1196   2.166   4.502   4.722
    9SAPS  H18Z 1197   2.141   4.409   4.562
   10SAPS     N 1198   2.447   4.160   6.625
   10SAPS   HN1 1199   2.529   4.215   6.656
   10SAPS   HN2 1200   2.389   4.221   6.564
   10SAPS   HN3 1201   2.386   4.128   6.703
   10SAPS   C12 1202   2.474   4.025   6.550
   10SAPS  H12A 1203   2.527   4.055   6.461
   10SAPS   C13 1204   2.574   3.925   6.609
   10SAPS  O13A 1205   2.628   3.936   6.722
   10SAPS  O13B 1206   2.607   3.832   6.528
   10SAPS   C11 1207   2.338   3.954   6.524
   10SAPS  H11A 1208   2.355   3.850   6.488
   10SAPS  H11B 1209   2.284   4.000   6.439
   10SAPS     P 1210   2.116   3.904   6.628
   10SAPS   O13 1211   2.129   3.769   6.570
   10SAPS   O14 1212   2.040   3.913   6.756
   10SAPS   O12 1213   2.255   3.964   6.640
   10SAPS   O11 1214   2.057   4.001   6.509
   10SAPS    C1 1215   2.030   4.137   6.547
   10SAPS    HA 1216   1.943   4.138   6.616
   10SAPS    HB 1217   2.112   4.184   6.604
   10SAPS    C2 1218   1.984   4.224   6.416
   10SAPS    HS 1219   1.880   4.189   6.395
   10SAPS   O21 1220   2.064   4.209   6.298
   10SAPS   C21 1221   2.197   4.208   6.314
   10SAPS   O22 1222   2.263   4.233   6.413
   10SAPS   C22 1223   2.253   4.161   6.178
   10SAPS   H2R 1224   2.357   4.131   6.202
   10SAPS   H2S 1225   2.210   4.061   6.158
   10SAPS    C3 1226   1.958   4.378   6.455
   10SAPS    HX 1227   2.048   4.411   6.511
   10SAPS    HY 1228   1.872   4.385   6.525
   10SAPS   O31 1229   1.930   4.462   6.337
   10SAPS   C31 1230   2.031   4.524   6.274
   10SAPS   O32 1231   2.143   4.537   6.318
   10SAPS   C32 1232   1.978   4.581   6.140
   10SAPS   H2X 1233   1.912   4.667   6.163
   10SAPS   H2Y 1234   1.925   4.505   6.079
   10SAPS   C23 1235   2.240   4.277   6.072
   10SAPS   H3R 1236   2.168   4.356   6.099
   10SAPS   H3S 1237   2.217   4.217   5.981
   10SAPS   C24 1238   2.374   4.330   6.041
   10SAPS   H4R 1239   2.424   4.349   6.138
   10SAPS   H4S 1240   2.367   4.430   5.992
   10SAPS   C25 1241   2.482   4.250   5.967
   10SAPS   H5R 1242   2.561   4.208   6.030
   10SAPS   C26 1243   2.480   4.233   5.838
   10SAPS   H6R 1244   2.548   4.162   5.789
   10SAPS   C27 1245   2.369   4.263   5.741
   10SAPS   H7R 1246   2.269   4.289   5.783
   10SAPS   H7S 1247   2.352   4.184   5.666
   10SAPS   C28 1248   2.420   4.393   5.675
   10SAPS   H8R 1249   2.423   4.477   5.746
   10SAPS   C29 1250   2.469   4.403   5.552
   10SAPS   H9R 1251   2.495   4.504   5.516
   10SAPS  C210 1252   2.480   4.293   5.445
   10SAPS  H10R 1253   2.525   4.201   5.487
   10SAPS  H10S 1254   2.554   4.322   5.367
   10SAPS  C211 1255   2.350   4.261   5.381
   10SAPS  H11R 1256   2.261   4.283   5.441
   10SAPS  C212 1257   2.320   4.219   5.259
   10SAPS  H12R 1258   2.219   4.181   5.238
   10SAPS  C213 1259   2.409   4.207   5.139
   10SAPS  H13R 1260   2.487   4.285   5.135
   10SAPS  H13S 1261   2.343   4.225   5.051
   10SAPS  C214 1262   2.461   4.064   5.128
   10SAPS  H14R 1263   2.559   4.047   5.176
   10SAPS  C215 1264   2.405   3.969   5.051
   10SAPS  H15R 1265   2.446   3.868   5.037
   10SAPS  C216 1266   2.272   3.982   4.981
   10SAPS  H16R 1267   2.194   4.030   5.043
   10SAPS  H16S 1268   2.238   3.876   4.976
   10SAPS  C217 1269   2.277   4.049   4.845
   10SAPS  H17R 1270   2.304   4.155   4.861
   10SAPS  H17S 1271   2.172   4.065   4.812
   10SAPS  C218 1272   2.359   3.979   4.732
   10SAPS  H18R 1273   2.339   3.871   4.751
   10SAPS  H18S 1274   2.469   3.993   4.744
   10SAPS  C219 1275   2.318   4.015   4.590
   10SAPS  H19R 1276   2.330   4.126   4.583
   10SAPS  H19S 1277   2.207   4.006   4.591
   10SAPS  C220 1278   2.388   3.943   4.477
   10SAPS  H20R 1279   2.498   3.956   4.486
   10SAPS  H20S 1280   2.359   3.983   4.377
   10SAPS  H20T 1281   2.368   3.834   4.482
   10SAPS   C33 1282   2.097   4.637   6.056
   10SAPS   H3X 1283   2.184   4.572   6.030
   10SAPS   H3Y 1284   2.148   4.713   6.120
   10SAPS   C34 1285   2.043   4.698   5.922
   10SAPS   H4X 1286   2.125   4.760   5.881
   10SAPS   H4Y 1287   1.958   4.764   5.951
   10SAPS   C35 1288   1.979   4.597   5.821
   10SAPS   H5X 1289   1.898   4.648   5.765
   10SAPS   H5Y 1290   1.939   4.512   5.879
   10SAPS   C36 1291   2.078   4.549   5.714
   10SAPS   H6X 1292   2.023   4.471   5.657
   10SAPS   H6Y 1293   2.164   4.511   5.773
   10SAPS   C37 1294   2.124   4.646   5.604
   10SAPS   H7X 1295   2.232   4.626   5.587
   10SAPS   H7Y 1296   2.124   4.752   5.640
   10SAPS   C38 1297   2.032   4.649   5.482
   10SAPS   H8X 1298   1.942   4.710   5.503
   10SAPS   H8Y 1299   1.993   4.549   5.452
   10SAPS   C39 1300   2.099   4.704   5.354
   10SAPS   H9X 1301   2.143   4.806   5.365
   10SAPS   H9Y 1302   2.017   4.702   5.279
   10SAPS  C310 1303   2.204   4.611   5.300
   10SAPS  H10X 1304   2.160   4.512   5.274
   10SAPS  H10Y 1305   2.290   4.597   5.368
   10SAPS  C311 1306   2.273   4.671   5.177
   10SAPS  H11X 1307   2.345   4.750   5.204
   10SAPS  H11Y 1308   2.198   4.693   5.098
   10SAPS  C312 1309   2.365   4.566   5.115
   10SAPS  H12X 1310   2.309   4.472   5.100
   10SAPS  H12Y 1311   2.450   4.547   5.184
   10SAPS  C313 1312   2.424   4.613   4.985
   10SAPS  H13X 1313   2.479   4.707   5.007
   10SAPS  H13Y 1314   2.352   4.638   4.904
   10SAPS  C314 1315   2.525   4.516   4.913
   10SAPS  H14X 1316   2.472   4.437   4.855
   10SAPS  H14Y 1317   2.581   4.459   4.991
   10SAPS  C315 1318   2.625   4.595   4.818
   10SAPS  H15X 1319   2.705   4.526   4.784
   10SAPS  H15Y 1320   2.670   4.684   4.867
   10SAPS  C316 1321   2.559   4.635   4.685
   10SAPS  H16X 1322   2.638   4.691   4.632
   10SAPS  H16Y 1323   2.475   4.707   4.700
   10SAPS  C317 1324   2.523   4.529   4.580
   10SAPS  H17X 1325   2.446   4.464   4.627
   10SAPS  H17Y 1326   2.613   4.464   4.571
   10SAPS  C318 1327   2.483   4.592   4.441
   10SAPS  H18X 1328   2.373   4.603   4.433
   10SAPS  H18Y 1329   2.514   4.517   4.365
   10SAPS  H18Z 1330   2.538   4.686   4.423
   11SAPS     N 1331   3.645   3.252   2.110
   11SAPS   HN1 1332   3.631   3.355   2.118
   11SAPS   HN2 1333   3.562   3.221   2.165
   11SAPS   HN3 1334   3.729   3.229   2.167
   11SAPS   C12 1335   3.653   3.214   1.971
   11SAPS  H12A 1336   3.558   3.231   1.923
   11SAPS   C13 1337   3.762   3.300   1.889
   11SAPS  O13A 1338   3.840   3.389   1.937
   11SAPS  O13B 1339   3.761   3.286   1.765
   11SAPS   C11 1340   3.678   3.066   1.959
   11SAPS  H11A 1341   3.770   3.018   2.000
   11SAPS  H11B 1342   3.671   3.041   1.851
   11SAPS     P 1343   3.557   2.849   2.058
   11SAPS   O13 1344   3.421   2.835   2.115
   11SAPS   O14 1345   3.592   2.768   1.938
   11SAPS   O12 1346   3.571   3.002   2.026
   11SAPS   O11 1347   3.671   2.822   2.164
   11SAPS    C1 1348   3.706   2.914   2.262
   11SAPS    HA 1349   3.801   2.876   2.307
   11SAPS    HB 1350   3.714   3.017   2.222
   11SAPS    C2 1351   3.615   2.912   2.384
   11SAPS    HS 1352   3.512   2.952   2.374
   11SAPS   O21 1353   3.681   2.988   2.489
   11SAPS   C21 1354   3.697   3.115   2.475
   11SAPS   O22 1355   3.643   3.190   2.393
   11SAPS   C22 1356   3.762   3.167   2.598
   11SAPS   H2R 1357   3.868   3.135   2.611
   11SAPS   H2S 1358   3.767   3.278   2.593
   11SAPS    C3 1359   3.601   2.761   2.429
   11SAPS    HX 1360   3.694   2.701   2.433
   11SAPS    HY 1361   3.544   2.721   2.343
   11SAPS   O31 1362   3.535   2.754   2.554
   11SAPS   C31 1363   3.448   2.650   2.560
   11SAPS   O32 1364   3.432   2.567   2.472
   11SAPS   C32 1365   3.368   2.650   2.694
   11SAPS   H2X 1366   3.284   2.718   2.671
   11SAPS   H2Y 1367   3.423   2.707   2.772
   11SAPS   C23 1368   3.680   3.124   2.727
   11SAPS   H3R 1369   3.678   3.013   2.729
   11SAPS   H3S 1370   3.578   3.168   2.717
   11SAPS   C24 1371   3.745   3.174   2.861
   11SAPS   H4R 1372   3.682   3.140   2.946
   11SAPS   H4S 1373   3.748   3.285   2.851
   11SAPS   C25 1374   3.892   3.129   2.877
   11SAPS   H5R 1375   3.946   3.110   2.782
   11SAPS   C26 1376   3.959   3.112   2.990
   11SAPS   H6R 1377   4.060   3.069   2.981
   11SAPS   C27 1378   3.915   3.131   3.134
   11SAPS   H7R 1379   3.891   3.036   3.185
   11SAPS   H7S 1380   3.812   3.173   3.132
   11SAPS   C28 1381   4.003   3.225   3.222
   11SAPS   H8R 1382   4.065   3.304   3.176
   11SAPS   C29 1383   3.986   3.241   3.350
   11SAPS   H9R 1384   4.047   3.309   3.413
   11SAPS  C210 1385   3.899   3.148   3.427
   11SAPS  H10R 1386   3.927   3.040   3.418
   11SAPS  H10S 1387   3.798   3.149   3.381
   11SAPS  C211 1388   3.884   3.184   3.573
   11SAPS  H11R 1389   3.850   3.285   3.600
   11SAPS  C212 1390   3.932   3.115   3.673
   11SAPS  H12R 1391   3.918   3.142   3.779
   11SAPS  C213 1392   4.006   2.982   3.650
   11SAPS  H13R 1393   4.094   2.990   3.582
   11SAPS  H13S 1394   3.931   2.908   3.616
   11SAPS  C214 1395   4.057   2.917   3.780
   11SAPS  H14R 1396   4.166   2.909   3.779
   11SAPS  C215 1397   3.991   2.831   3.864
   11SAPS  H15R 1398   4.039   2.779   3.948
   11SAPS  C216 1399   3.840   2.805   3.872
   11SAPS  H16R 1400   3.837   2.694   3.863
   11SAPS  H16S 1401   3.784   2.838   3.782
   11SAPS  C217 1402   3.776   2.852   4.005
   11SAPS  H17R 1403   3.843   2.817   4.087
   11SAPS  H17S 1404   3.687   2.790   4.029
   11SAPS  C218 1405   3.765   3.006   4.019
   11SAPS  H18R 1406   3.712   3.033   3.926
   11SAPS  H18S 1407   3.867   3.050   4.013
   11SAPS  C219 1408   3.692   3.060   4.145
   11SAPS  H19R 1409   3.583   3.037   4.152
   11SAPS  H19S 1410   3.707   3.169   4.131
   11SAPS  C220 1411   3.761   3.037   4.276
   11SAPS  H20R 1412   3.871   3.047   4.267
   11SAPS  H20S 1413   3.740   2.930   4.296
   11SAPS  H20T 1414   3.716   3.096   4.360
   11SAPS   C33 1415   3.312   2.514   2.739
   11SAPS   H3X 1416   3.392   2.438   2.729
   11SAPS   H3Y 1417   3.227   2.491   2.671
   11SAPS   C34 1418   3.260   2.515   2.890
   11SAPS   H4X 1419   3.190   2.429   2.898
   11SAPS   H4Y 1420   3.201   2.608   2.904
   11SAPS   C35 1421   3.368   2.525   2.994
   11SAPS   H5X 1422   3.427   2.618   2.981
   11SAPS   H5Y 1423   3.436   2.437   2.991
   11SAPS   C36 1424   3.314   2.521   3.137
   11SAPS   H6X 1425   3.260   2.424   3.144
   11SAPS   H6Y 1426   3.243   2.605   3.156
   11SAPS   C37 1427   3.426   2.527   3.243
   11SAPS   H7X 1428   3.487   2.618   3.224
   11SAPS   H7Y 1429   3.496   2.441   3.231
   11SAPS   C38 1430   3.371   2.522   3.385
   11SAPS   H8X 1431   3.312   2.429   3.399
   11SAPS   H8Y 1432   3.300   2.606   3.402
   11SAPS   C39 1433   3.480   2.524   3.491
   11SAPS   H9X 1434   3.544   2.610   3.463
   11SAPS   H9Y 1435   3.541   2.435   3.465
   11SAPS  C310 1436   3.431   2.505   3.637
   11SAPS  H10X 1437   3.412   2.396   3.638
   11SAPS  H10Y 1438   3.337   2.562   3.653
   11SAPS  C311 1439   3.536   2.510   3.742
   11SAPS  H11X 1440   3.571   2.615   3.751
   11SAPS  H11Y 1441   3.627   2.453   3.715
   11SAPS  C312 1442   3.483   2.467   3.880
   11SAPS  H12X 1443   3.452   2.361   3.868
   11SAPS  H12Y 1444   3.399   2.535   3.907
   11SAPS  C313 1445   3.584   2.474   3.993
   11SAPS  H13X 1446   3.637   2.572   3.989
   11SAPS  H13Y 1447   3.669   2.405   3.976
   11SAPS  C314 1448   3.534   2.419   4.128
   11SAPS  H14X 1449   3.506   2.312   4.122
   11SAPS  H14Y 1450   3.447   2.478   4.166
   11SAPS  C315 1451   3.645   2.433   4.231
   11SAPS  H15X 1452   3.695   2.533   4.229
   11SAPS  H15Y 1453   3.722   2.358   4.204
   11SAPS  C316 1454   3.597   2.405   4.376
   11SAPS  H16X 1455   3.535   2.314   4.386
   11SAPS  H16Y 1456   3.519   2.482   4.394
   11SAPS  C317 1457   3.701   2.416   4.487
   11SAPS  H17X 1458   3.757   2.511   4.492
   11SAPS  H17Y 1459   3.783   2.341   4.480
   11SAPS  C318 1460   3.622   2.399   4.617
   11SAPS  H18X 1461   3.528   2.459   4.612
   11SAPS  H18Y 1462   3.683   2.439   4.701
   11SAPS  H18Z 1463   3.599   2.293   4.642
   12SAPS     N 1464   2.879   2.440   2.083
   12SAPS   HN1 1465   2.929   2.392   2.161
   12SAPS   HN2 1466   2.781   2.408   2.067
   12SAPS   HN3 1467   2.929   2.420   1.994
   12SAPS   C12 1468   2.870   2.592   2.123
   12SAPS  H12A 1469   2.973   2.623   2.130
   12SAPS   C13 1470   2.805   2.690   2.021
   12SAPS  O13A 1471   2.807   2.653   1.900
   12SAPS  O13B 1472   2.814   2.813   2.047
   12SAPS   C11 1473   2.783   2.593   2.258
   12SAPS  H11A 1474   2.678   2.566   2.233
   12SAPS  H11B 1475   2.777   2.699   2.291
   12SAPS     P 1476   2.975   2.550   2.428
   12SAPS   O13 1477   3.072   2.526   2.325
   12SAPS   O14 1478   2.978   2.688   2.488
   12SAPS   O12 1479   2.834   2.506   2.370
   12SAPS   O11 1480   3.006   2.449   2.547
   12SAPS    C1 1481   2.914   2.443   2.658
   12SAPS    HA 1482   2.971   2.449   2.753
   12SAPS    HB 1483   2.839   2.525   2.670
   12SAPS    C2 1484   2.835   2.312   2.678
   12SAPS    HS 1485   2.765   2.334   2.762
   12SAPS   O21 1486   2.912   2.196   2.710
   12SAPS   C21 1487   2.984   2.198   2.816
   12SAPS   O22 1488   2.979   2.276   2.910
   12SAPS   C22 1489   3.094   2.087   2.815
   12SAPS   H2R 1490   3.065   1.996   2.758
   12SAPS   H2S 1491   3.179   2.128   2.756
   12SAPS    C3 1492   2.751   2.270   2.551
   12SAPS    HX 1493   2.816   2.239   2.465
   12SAPS    HY 1494   2.699   2.363   2.521
   12SAPS   O31 1495   2.650   2.171   2.590
   12SAPS   C31 1496   2.696   2.044   2.582
   12SAPS   O32 1497   2.796   2.012   2.519
   12SAPS   C32 1498   2.605   1.946   2.654
   12SAPS   H2X 1499   2.500   1.947   2.616
   12SAPS   H2Y 1500   2.595   1.987   2.756
   12SAPS   C23 1501   3.134   2.028   2.955
   12SAPS   H3R 1502   3.197   2.101   3.009
   12SAPS   H3S 1503   3.195   1.935   2.946
   12SAPS   C24 1504   3.018   1.988   3.047
   12SAPS   H4R 1505   2.984   2.083   3.095
   12SAPS   H4S 1506   3.067   1.931   3.129
   12SAPS   C25 1507   2.913   1.915   2.969
   12SAPS   H5R 1508   2.957   1.835   2.907
   12SAPS   C26 1509   2.777   1.934   2.985
   12SAPS   H6R 1510   2.706   1.874   2.926
   12SAPS   C27 1511   2.706   2.017   3.087
   12SAPS   H7R 1512   2.705   2.117   3.038
   12SAPS   H7S 1513   2.776   2.031   3.171
   12SAPS   C28 1514   2.570   1.983   3.140
   12SAPS   H8R 1515   2.490   1.986   3.065
   12SAPS   C29 1516   2.534   1.940   3.257
   12SAPS   H9R 1517   2.428   1.916   3.277
   12SAPS  C210 1518   2.634   1.892   3.360
   12SAPS  H10R 1519   2.726   1.955   3.360
   12SAPS  H10S 1520   2.662   1.786   3.340
   12SAPS  C211 1521   2.587   1.890   3.500
   12SAPS  H11R 1522   2.499   1.955   3.515
   12SAPS  C212 1523   2.651   1.828   3.601
   12SAPS  H12R 1524   2.605   1.826   3.701
   12SAPS  C213 1525   2.773   1.738   3.589
   12SAPS  H13R 1526   2.838   1.778   3.509
   12SAPS  H13S 1527   2.747   1.639   3.546
   12SAPS  C214 1528   2.853   1.720   3.716
   12SAPS  H14R 1529   2.800   1.756   3.806
   12SAPS  C215 1530   2.984   1.690   3.720
   12SAPS  H15R 1531   3.020   1.675   3.823
   12SAPS  C216 1532   3.069   1.655   3.608
   12SAPS  H16R 1533   3.014   1.607   3.524
   12SAPS  H16S 1534   3.150   1.584   3.638
   12SAPS  C217 1535   3.150   1.775   3.550
   12SAPS  H17R 1536   3.222   1.813   3.625
   12SAPS  H17S 1537   3.083   1.858   3.518
   12SAPS  C218 1538   3.232   1.729   3.431
   12SAPS  H18R 1539   3.308   1.662   3.476
   12SAPS  H18S 1540   3.286   1.814   3.385
   12SAPS  C219 1541   3.167   1.651   3.315
   12SAPS  H19R 1542   3.066   1.688   3.287
   12SAPS  H19S 1543   3.165   1.543   3.339
   12SAPS  C220 1544   3.255   1.657   3.192
   12SAPS  H20R 1545   3.206   1.621   3.099
   12SAPS  H20S 1546   3.347   1.601   3.219
   12SAPS  H20T 1547   3.291   1.761   3.173
   12SAPS   C33 1548   2.659   1.805   2.657
   12SAPS   H3X 1549   2.764   1.793   2.691
   12SAPS   H3Y 1550   2.662   1.770   2.552
   12SAPS   C34 1551   2.589   1.703   2.749
   12SAPS   H4X 1552   2.525   1.645   2.679
   12SAPS   H4Y 1553   2.536   1.765   2.825
   12SAPS   C35 1554   2.678   1.603   2.829
   12SAPS   H5X 1555   2.744   1.657   2.900
   12SAPS   H5Y 1556   2.733   1.542   2.754
   12SAPS   C36 1557   2.603   1.515   2.925
   12SAPS   H6X 1558   2.670   1.445   2.980
   12SAPS   H6Y 1559   2.535   1.457   2.859
   12SAPS   C37 1560   2.533   1.590   3.045
   12SAPS   H7X 1561   2.454   1.656   3.002
   12SAPS   H7Y 1562   2.615   1.659   3.073
   12SAPS   C38 1563   2.467   1.503   3.150
   12SAPS   H8X 1564   2.540   1.427   3.186
   12SAPS   H8Y 1565   2.396   1.433   3.102
   12SAPS   C39 1566   2.391   1.583   3.261
   12SAPS   H9X 1567   2.296   1.626   3.223
   12SAPS   H9Y 1568   2.460   1.660   3.302
   12SAPS  C310 1569   2.356   1.493   3.381
   12SAPS  H10X 1570   2.447   1.439   3.413
   12SAPS  H10Y 1571   2.280   1.420   3.347
   12SAPS  C311 1572   2.293   1.574   3.491
   12SAPS  H11X 1573   2.193   1.609   3.457
   12SAPS  H11Y 1574   2.362   1.656   3.518
   12SAPS  C312 1575   2.276   1.487   3.617
   12SAPS  H12X 1576   2.369   1.427   3.631
   12SAPS  H12Y 1577   2.199   1.414   3.582
   12SAPS  C313 1578   2.241   1.566   3.744
   12SAPS  H13X 1579   2.142   1.616   3.741
   12SAPS  H13Y 1580   2.312   1.652   3.747
   12SAPS  C314 1581   2.243   1.470   3.868
   12SAPS  H14X 1582   2.342   1.420   3.871
   12SAPS  H14Y 1583   2.162   1.397   3.849
   12SAPS  C315 1584   2.221   1.542   4.004
   12SAPS  H15X 1585   2.122   1.592   4.003
   12SAPS  H15Y 1586   2.300   1.618   4.017
   12SAPS  C316 1587   2.216   1.428   4.113
   12SAPS  H16X 1588   2.281   1.343   4.084
   12SAPS  H16Y 1589   2.115   1.381   4.109
   12SAPS  C317 1590   2.258   1.477   4.256
   12SAPS  H17X 1591   2.360   1.521   4.260
   12SAPS  H17Y 1592   2.252   1.382   4.312
   12SAPS  C318 1593   2.155   1.566   4.332
   12SAPS  H18X 1594   2.149   1.672   4.299
   12SAPS  H18Y 1595   2.198   1.578   4.433
   12SAPS  H18Z 1596   2.054   1.521   4.333
   13SAPS     N 1597   4.930   1.481   2.479
   13SAPS   HN1 1598   4.890   1.574   2.505
   13SAPS   HN2 1599   4.880   1.408   2.534
   13SAPS   HN3 1600   5.034   1.473   2.484
   13SAPS   C12 1601   4.904   1.457   2.327
   13SAPS  H12A 1602   4.963   1.527   2.270
   13SAPS   C13 1603   4.941   1.321   2.282
   13SAPS  O13A 1604   4.953   1.224   2.363
   13SAPS  O13B 1605   4.960   1.298   2.157
   13SAPS   C11 1606   4.759   1.480   2.294
   13SAPS  H11A 1607   4.745   1.473   2.184
   13SAPS  H11B 1608   4.741   1.587   2.319
   13SAPS     P 1609   4.523   1.375   2.323
   13SAPS   O13 1610   4.492   1.491   2.244
   13SAPS   O14 1611   4.506   1.240   2.260
   13SAPS   O12 1612   4.675   1.393   2.370
   13SAPS   O11 1613   4.445   1.385   2.459
   13SAPS    C1 1614   4.492   1.451   2.582
   13SAPS    HA 1615   4.566   1.532   2.564
   13SAPS    HB 1616   4.412   1.504   2.637
   13SAPS    C2 1617   4.546   1.336   2.671
   13SAPS    HS 1618   4.610   1.272   2.607
   13SAPS   O21 1619   4.437   1.262   2.723
   13SAPS   C21 1620   4.473   1.140   2.758
   13SAPS   O22 1621   4.579   1.094   2.731
   13SAPS   C22 1622   4.366   1.061   2.837
   13SAPS   H2R 1623   4.286   1.126   2.879
   13SAPS   H2S 1624   4.321   0.994   2.761
   13SAPS    C3 1625   4.635   1.392   2.788
   13SAPS    HX 1626   4.557   1.441   2.851
   13SAPS    HY 1627   4.710   1.466   2.752
   13SAPS   O31 1628   4.703   1.291   2.862
   13SAPS   C31 1629   4.817   1.248   2.799
   13SAPS   O32 1630   4.858   1.279   2.688
   13SAPS   C32 1631   4.892   1.152   2.896
   13SAPS   H2X 1632   4.837   1.056   2.907
   13SAPS   H2Y 1633   4.892   1.199   2.996
   13SAPS   C23 1634   4.436   0.983   2.958
   13SAPS   H3R 1635   4.521   0.923   2.919
   13SAPS   H3S 1636   4.360   0.908   2.990
   13SAPS   C24 1637   4.473   1.074   3.077
   13SAPS   H4R 1638   4.391   1.146   3.095
   13SAPS   H4S 1639   4.564   1.131   3.047
   13SAPS   C25 1640   4.497   0.990   3.201
   13SAPS   H5R 1641   4.408   0.988   3.265
   13SAPS   C26 1642   4.614   0.953   3.249
   13SAPS   H6R 1643   4.608   0.891   3.339
   13SAPS   C27 1644   4.754   0.962   3.189
   13SAPS   H7R 1645   4.823   0.973   3.276
   13SAPS   H7S 1646   4.773   1.058   3.135
   13SAPS   C28 1647   4.796   0.844   3.103
   13SAPS   H8R 1648   4.779   0.860   2.996
   13SAPS   C29 1649   4.867   0.737   3.134
   13SAPS   H9R 1650   4.875   0.650   3.067
   13SAPS  C210 1651   4.918   0.710   3.274
   13SAPS  H10R 1652   4.910   0.601   3.293
   13SAPS  H10S 1653   4.841   0.756   3.340
   13SAPS  C211 1654   5.056   0.763   3.297
   13SAPS  H11R 1655   5.120   0.763   3.208
   13SAPS  C212 1656   5.099   0.827   3.409
   13SAPS  H12R 1657   5.206   0.852   3.422
   13SAPS  C213 1658   5.032   0.843   3.538
   13SAPS  H13R 1659   5.041   0.745   3.590
   13SAPS  H13S 1660   4.921   0.846   3.524
   13SAPS  C214 1661   5.066   0.964   3.626
   13SAPS  H14R 1662   5.154   0.945   3.690
   13SAPS  C215 1663   5.006   1.085   3.621
   13SAPS  H15R 1664   5.038   1.157   3.699
   13SAPS  C216 1665   4.900   1.133   3.524
   13SAPS  H16R 1666   4.867   1.050   3.459
   13SAPS  H16S 1667   4.950   1.210   3.461
   13SAPS  C217 1668   4.786   1.214   3.594
   13SAPS  H17R 1669   4.821   1.305   3.648
   13SAPS  H17S 1670   4.756   1.143   3.674
   13SAPS  C218 1671   4.678   1.256   3.499
   13SAPS  H18R 1672   4.589   1.306   3.544
   13SAPS  H18S 1673   4.646   1.154   3.469
   13SAPS  C219 1674   4.739   1.316   3.375
   13SAPS  H19R 1675   4.788   1.246   3.304
   13SAPS  H19S 1676   4.823   1.382   3.408
   13SAPS  C220 1677   4.633   1.397   3.294
   13SAPS  H20R 1678   4.633   1.503   3.328
   13SAPS  H20S 1679   4.532   1.353   3.309
   13SAPS  H20T 1680   4.654   1.393   3.185
   13SAPS   C33 1681   5.038   1.129   2.856
   13SAPS   H3X 1682   5.111   1.212   2.867
   13SAPS   H3Y 1683   5.042   1.080   2.757
   13SAPS   C34 1684   5.103   1.017   2.945
   13SAPS   H4X 1685   5.050   0.922   2.923
   13SAPS   H4Y 1686   5.090   1.038   3.053
   13SAPS   C35 1687   5.249   0.984   2.909
   13SAPS   H5X 1688   5.320   1.069   2.919
   13SAPS   H5Y 1689   5.243   0.957   2.802
   13SAPS   C36 1690   5.317   0.865   2.983
   13SAPS   H6X 1691   5.358   0.806   2.899
   13SAPS   H6Y 1692   5.242   0.816   3.049
   13SAPS   C37 1693   5.437   0.922   3.060
   13SAPS   H7X 1694   5.505   0.986   3.000
   13SAPS   H7Y 1695   5.489   0.831   3.098
   13SAPS   C38 1696   5.399   1.011   3.185
   13SAPS   H8X 1697   5.328   0.957   3.252
   13SAPS   H8Y 1698   5.341   1.101   3.157
   13SAPS   C39 1699   5.519   1.051   3.266
   13SAPS   H9X 1700   5.579   1.119   3.201
   13SAPS   H9Y 1701   5.583   0.961   3.280
   13SAPS  C310 1702   5.484   1.116   3.399
   13SAPS  H10X 1703   5.422   1.054   3.467
   13SAPS  H10Y 1704   5.430   1.206   3.363
   13SAPS  C311 1705   5.605   1.147   3.484
   13SAPS  H11X 1706   5.651   1.237   3.437
   13SAPS  H11Y 1707   5.683   1.069   3.482
   13SAPS  C312 1708   5.581   1.196   3.630
   13SAPS  H12X 1709   5.574   1.119   3.710
   13SAPS  H12Y 1710   5.481   1.244   3.642
   13SAPS  C313 1711   5.682   1.309   3.668
   13SAPS  H13X 1712   5.669   1.392   3.595
   13SAPS  H13Y 1713   5.788   1.276   3.671
   13SAPS  C314 1714   5.654   1.371   3.806
   13SAPS  H14X 1715   5.666   1.290   3.882
   13SAPS  H14Y 1716   5.552   1.415   3.814
   13SAPS  C315 1717   5.754   1.482   3.834
   13SAPS  H15X 1718   5.745   1.558   3.753
   13SAPS  H15Y 1719   5.853   1.431   3.829
   13SAPS  C316 1720   5.737   1.550   3.970
   13SAPS  H16X 1721   5.632   1.587   3.965
   13SAPS  H16Y 1722   5.807   1.636   3.976
   13SAPS  C317 1723   5.751   1.458   4.089
   13SAPS  H17X 1724   5.836   1.391   4.062
   13SAPS  H17Y 1725   5.654   1.403   4.096
   13SAPS  C318 1726   5.780   1.534   4.224
   13SAPS  H18X 1727   5.690   1.592   4.253
   13SAPS  H18Y 1728   5.871   1.597   4.219
   13SAPS  H18Z 1729   5.799   1.468   4.312
   14SAPS     N 1730   5.199   2.929   2.337
   14SAPS   HN1 1731   5.277   2.959   2.399
   14SAPS   HN2 1732   5.106   2.971   2.354
   14SAPS   HN3 1733   5.179   2.827   2.340
   14SAPS   C12 1734   5.216   2.978   2.193
   14SAPS  H12A 1735   5.295   2.932   2.135
   14SAPS   C13 1736   5.081   2.974   2.116
   14SAPS  O13A 1737   4.978   2.927   2.170
   14SAPS  O13B 1738   5.078   3.026   2.001
   14SAPS   C11 1739   5.267   3.129   2.208
   14SAPS  H11A 1740   5.183   3.192   2.244
   14SAPS  H11B 1741   5.294   3.165   2.106
   14SAPS     P 1742   5.507   3.203   2.265
   14SAPS   O13 1743   5.600   3.123   2.186
   14SAPS   O14 1744   5.475   3.332   2.217
   14SAPS   O12 1745   5.379   3.119   2.298
   14SAPS   O11 1746   5.571   3.220   2.411
   14SAPS    C1 1747   5.602   3.097   2.481
   14SAPS    HA 1748   5.541   3.012   2.443
   14SAPS    HB 1749   5.704   3.058   2.457
   14SAPS    C2 1750   5.577   3.125   2.628
   14SAPS    HS 1751   5.575   3.031   2.687
   14SAPS   O21 1752   5.453   3.191   2.648
   14SAPS   C21 1753   5.343   3.131   2.613
   14SAPS   O22 1754   5.334   3.018   2.567
   14SAPS   C22 1755   5.228   3.220   2.640
   14SAPS   H2R 1756   5.260   3.321   2.675
   14SAPS   H2S 1757   5.180   3.230   2.540
   14SAPS    C3 1758   5.690   3.207   2.695
   14SAPS    HX 1759   5.710   3.302   2.641
   14SAPS    HY 1760   5.787   3.153   2.690
   14SAPS   O31 1761   5.666   3.222   2.839
   14SAPS   C31 1762   5.641   3.341   2.889
   14SAPS   O32 1763   5.609   3.437   2.828
   14SAPS   C32 1764   5.642   3.340   3.038
   14SAPS   H2X 1765   5.742   3.303   3.069
   14SAPS   H2Y 1766   5.570   3.272   3.087
   14SAPS   C23 1767   5.142   3.156   2.750
   14SAPS   H3R 1768   5.120   3.054   2.712
   14SAPS   H3S 1769   5.044   3.205   2.766
   14SAPS   C24 1770   5.218   3.137   2.888
   14SAPS   H4R 1771   5.300   3.068   2.858
   14SAPS   H4S 1772   5.154   3.092   2.966
   14SAPS   C25 1773   5.269   3.277   2.940
   14SAPS   H5R 1774   5.311   3.329   2.853
   14SAPS   C26 1775   5.238   3.333   3.060
   14SAPS   H6R 1776   5.290   3.425   3.092
   14SAPS   C27 1777   5.164   3.259   3.169
   14SAPS   H7R 1778   5.239   3.200   3.226
   14SAPS   H7S 1779   5.089   3.190   3.125
   14SAPS   C28 1780   5.099   3.362   3.263
   14SAPS   H8R 1781   5.095   3.468   3.236
   14SAPS   C29 1782   5.038   3.332   3.379
   14SAPS   H9R 1783   4.981   3.402   3.442
   14SAPS  C210 1784   5.024   3.195   3.434
   14SAPS  H10R 1785   5.034   3.201   3.544
   14SAPS  H10S 1786   5.104   3.132   3.389
   14SAPS  C211 1787   4.898   3.136   3.379
   14SAPS  H11R 1788   4.878   3.153   3.272
   14SAPS  C212 1789   4.809   3.066   3.452
   14SAPS  H12R 1790   4.715   3.037   3.402
   14SAPS  C213 1791   4.812   3.026   3.595
   14SAPS  H13R 1792   4.713   3.045   3.640
   14SAPS  H13S 1793   4.874   3.102   3.647
   14SAPS  C214 1794   4.863   2.889   3.629
   14SAPS  H14R 1795   4.803   2.803   3.596
   14SAPS  C215 1796   4.980   2.866   3.697
   14SAPS  H15R 1797   4.997   2.759   3.714
   14SAPS  C216 1798   5.084   2.960   3.748
   14SAPS  H16R 1799   5.055   3.066   3.730
   14SAPS  H16S 1800   5.179   2.940   3.693
   14SAPS  C217 1801   5.106   2.947   3.905
   14SAPS  H17R 1802   5.184   3.018   3.941
   14SAPS  H17S 1803   5.141   2.845   3.930
   14SAPS  C218 1804   4.989   2.990   3.989
   14SAPS  H18R 1805   4.898   2.927   3.979
   14SAPS  H18S 1806   4.954   3.086   3.943
   14SAPS  C219 1807   5.013   2.992   4.141
   14SAPS  H19R 1808   5.088   3.070   4.169
   14SAPS  H19S 1809   5.060   2.895   4.164
   14SAPS  C220 1810   4.888   3.014   4.225
   14SAPS  H20R 1811   4.907   3.013   4.335
   14SAPS  H20S 1812   4.810   2.939   4.203
   14SAPS  H20T 1813   4.842   3.112   4.197
   14SAPS   C33 1814   5.634   3.480   3.103
   14SAPS   H3X 1815   5.547   3.533   3.058
   14SAPS   H3Y 1816   5.725   3.535   3.074
   14SAPS   C34 1817   5.629   3.469   3.256
   14SAPS   H4X 1818   5.656   3.561   3.312
   14SAPS   H4Y 1819   5.702   3.390   3.282
   14SAPS   C35 1820   5.489   3.417   3.310
   14SAPS   H5X 1821   5.474   3.316   3.268
   14SAPS   H5Y 1822   5.411   3.487   3.271
   14SAPS   C36 1823   5.491   3.416   3.463
   14SAPS   H6X 1824   5.532   3.506   3.514
   14SAPS   H6Y 1825   5.566   3.338   3.486
   14SAPS   C37 1826   5.361   3.385   3.527
   14SAPS   H7X 1827   5.336   3.278   3.513
   14SAPS   H7Y 1828   5.284   3.444   3.474
   14SAPS   C38 1829   5.361   3.415   3.676
   14SAPS   H8X 1830   5.340   3.523   3.696
   14SAPS   H8Y 1831   5.464   3.396   3.711
   14SAPS   C39 1832   5.261   3.322   3.754
   14SAPS   H9X 1833   5.294   3.217   3.742
   14SAPS   H9Y 1834   5.155   3.335   3.725
   14SAPS  C310 1835   5.261   3.339   3.913
   14SAPS  H10X 1836   5.360   3.314   3.957
   14SAPS  H10Y 1837   5.190   3.268   3.960
   14SAPS  C311 1838   5.204   3.475   3.951
   14SAPS  H11X 1839   5.107   3.490   3.899
   14SAPS  H11Y 1840   5.278   3.546   3.909
   14SAPS  C312 1841   5.195   3.500   4.103
   14SAPS  H12X 1842   5.141   3.421   4.160
   14SAPS  H12Y 1843   5.142   3.596   4.119
   14SAPS  C313 1844   5.333   3.505   4.169
   14SAPS  H13X 1845   5.407   3.548   4.098
   14SAPS  H13Y 1846   5.364   3.404   4.201
   14SAPS  C314 1847   5.334   3.576   4.304
   14SAPS  H14X 1848   5.279   3.672   4.297
   14SAPS  H14Y 1849   5.432   3.603   4.350
   14SAPS  C315 1850   5.255   3.488   4.407
   14SAPS  H15X 1851   5.314   3.394   4.409
   14SAPS  H15Y 1852   5.150   3.466   4.378
   14SAPS  C316 1853   5.258   3.546   4.549
   14SAPS  H16X 1854   5.208   3.645   4.549
   14SAPS  H16Y 1855   5.360   3.556   4.591
   14SAPS  C317 1856   5.187   3.442   4.645
   14SAPS  H17X 1857   5.230   3.341   4.629
   14SAPS  H17Y 1858   5.081   3.422   4.621
   14SAPS  C318 1859   5.206   3.483   4.792
   14SAPS  H18X 1860   5.165   3.400   4.854
   14SAPS  H18Y 1861   5.162   3.578   4.828
   14SAPS  H18Z 1862   5.316   3.477   4.811
   15SAPS     N 1863   4.017   3.581   1.960
   15SAPS   HN1 1864   4.076   3.567   1.876
   15SAPS   HN2 1865   3.957   3.495   1.967
   15SAPS   HN3 1866   3.953   3.663   1.962
   15SAPS   C12 1867   4.099   3.572   2.086
   15SAPS  H12A 1868   4.199   3.537   2.065
   15SAPS   C13 1869   4.112   3.705   2.163
   15SAPS  O13A 1870   4.084   3.811   2.103
   15SAPS  O13B 1871   4.178   3.711   2.271
   15SAPS   C11 1872   4.030   3.462   2.181
   15SAPS  H11A 1873   3.921   3.485   2.176
   15SAPS  H11B 1874   4.064   3.485   2.284
   15SAPS     P 1875   4.030   3.199   2.228
   15SAPS   O13 1876   3.886   3.181   2.221
   15SAPS   O14 1877   4.114   3.091   2.167
   15SAPS   O12 1878   4.075   3.337   2.148
   15SAPS   O11 1879   4.076   3.212   2.384
   15SAPS    C1 1880   4.206   3.265   2.420
   15SAPS    HA 1881   4.289   3.192   2.408
   15SAPS    HB 1882   4.231   3.357   2.363
   15SAPS    C2 1883   4.205   3.318   2.565
   15SAPS    HS 1884   4.266   3.410   2.577
   15SAPS   O21 1885   4.233   3.223   2.665
   15SAPS   C21 1886   4.358   3.170   2.670
   15SAPS   O22 1887   4.456   3.208   2.610
   15SAPS   C22 1888   4.367   3.059   2.771
   15SAPS   H2R 1889   4.344   3.108   2.868
   15SAPS   H2S 1890   4.299   2.975   2.746
   15SAPS    C3 1891   4.062   3.384   2.600
   15SAPS    HX 1892   4.004   3.291   2.620
   15SAPS    HY 1893   4.036   3.441   2.508
   15SAPS   O31 1894   4.068   3.469   2.717
   15SAPS   C31 1895   3.957   3.544   2.720
   15SAPS   O32 1896   3.861   3.531   2.646
   15SAPS   C32 1897   3.977   3.645   2.835
   15SAPS   H2X 1898   4.028   3.736   2.796
   15SAPS   H2Y 1899   4.045   3.600   2.910
   15SAPS   C23 1900   4.505   2.995   2.785
   15SAPS   H3R 1901   4.592   3.060   2.764
   15SAPS   H3S 1902   4.509   2.908   2.716
   15SAPS   C24 1903   4.533   2.935   2.929
   15SAPS   H4R 1904   4.603   2.849   2.921
   15SAPS   H4S 1905   4.437   2.895   2.967
   15SAPS   C25 1906   4.582   3.032   3.030
   15SAPS   H5R 1907   4.632   3.115   2.979
   15SAPS   C26 1908   4.555   3.034   3.163
   15SAPS   H6R 1909   4.596   3.119   3.220
   15SAPS   C27 1910   4.473   2.936   3.246
   15SAPS   H7R 1911   4.537   2.877   3.315
   15SAPS   H7S 1912   4.434   2.856   3.179
   15SAPS   C28 1913   4.357   2.995   3.318
   15SAPS   H8R 1914   4.279   3.030   3.248
   15SAPS   C29 1915   4.339   3.008   3.448
   15SAPS   H9R 1916   4.252   3.060   3.489
   15SAPS  C210 1917   4.427   2.961   3.563
   15SAPS  H10R 1918   4.389   3.027   3.644
   15SAPS  H10S 1919   4.534   2.982   3.541
   15SAPS  C211 1920   4.420   2.820   3.602
   15SAPS  H11R 1921   4.415   2.744   3.523
   15SAPS  C212 1922   4.411   2.780   3.732
   15SAPS  H12R 1923   4.418   2.673   3.754
   15SAPS  C213 1924   4.435   2.860   3.855
   15SAPS  H13R 1925   4.347   2.864   3.923
   15SAPS  H13S 1926   4.441   2.967   3.827
   15SAPS  C214 1927   4.563   2.818   3.911
   15SAPS  H14R 1928   4.649   2.802   3.844
   15SAPS  C215 1929   4.587   2.787   4.043
   15SAPS  H15R 1930   4.683   2.758   4.088
   15SAPS  C216 1931   4.477   2.790   4.146
   15SAPS  H16R 1932   4.470   2.688   4.188
   15SAPS  H16S 1933   4.372   2.799   4.109
   15SAPS  C217 1934   4.495   2.894   4.251
   15SAPS  H17R 1935   4.585   2.863   4.308
   15SAPS  H17S 1936   4.413   2.894   4.325
   15SAPS  C218 1937   4.520   3.027   4.196
   15SAPS  H18R 1938   4.446   3.051   4.117
   15SAPS  H18S 1939   4.617   3.032   4.141
   15SAPS  C219 1940   4.532   3.142   4.298
   15SAPS  H19R 1941   4.429   3.182   4.312
   15SAPS  H19S 1942   4.603   3.220   4.264
   15SAPS  C220 1943   4.577   3.105   4.441
   15SAPS  H20R 1944   4.678   3.058   4.433
   15SAPS  H20S 1945   4.505   3.040   4.495
   15SAPS  H20T 1946   4.589   3.198   4.500
   15SAPS   C33 1947   3.841   3.671   2.901
   15SAPS   H3X 1948   3.766   3.591   2.919
   15SAPS   H3Y 1949   3.783   3.728   2.824
   15SAPS   C34 1950   3.848   3.747   3.034
   15SAPS   H4X 1951   3.756   3.805   3.054
   15SAPS   H4Y 1952   3.921   3.829   3.018
   15SAPS   C35 1953   3.884   3.658   3.148
   15SAPS   H5X 1954   3.965   3.592   3.110
   15SAPS   H5Y 1955   3.798   3.594   3.176
   15SAPS   C36 1956   3.919   3.743   3.274
   15SAPS   H6X 1957   3.818   3.774   3.310
   15SAPS   H6Y 1958   3.962   3.842   3.249
   15SAPS   C37 1959   3.990   3.663   3.393
   15SAPS   H7X 1960   4.098   3.689   3.396
   15SAPS   H7Y 1961   3.976   3.555   3.372
   15SAPS   C38 1962   3.937   3.706   3.532
   15SAPS   H8X 1963   3.841   3.657   3.561
   15SAPS   H8Y 1964   3.917   3.815   3.527
   15SAPS   C39 1965   4.040   3.669   3.641
   15SAPS   H9X 1966   4.139   3.715   3.621
   15SAPS   H9Y 1967   4.048   3.559   3.629
   15SAPS  C310 1968   4.003   3.703   3.788
   15SAPS  H10X 1969   3.902   3.662   3.806
   15SAPS  H10Y 1970   3.993   3.813   3.795
   15SAPS  C311 1971   4.104   3.648   3.894
   15SAPS  H11X 1972   4.205   3.681   3.864
   15SAPS  H11Y 1973   4.100   3.537   3.882
   15SAPS  C312 1974   4.085   3.695   4.044
   15SAPS  H12X 1975   3.986   3.665   4.086
   15SAPS  H12Y 1976   4.084   3.806   4.040
   15SAPS  C313 1977   4.208   3.651   4.125
   15SAPS  H13X 1978   4.298   3.701   4.083
   15SAPS  H13Y 1979   4.236   3.546   4.103
   15SAPS  C314 1980   4.198   3.695   4.271
   15SAPS  H14X 1981   4.106   3.667   4.326
   15SAPS  H14Y 1982   4.194   3.805   4.290
   15SAPS  C315 1983   4.323   3.661   4.351
   15SAPS  H15X 1984   4.410   3.706   4.300
   15SAPS  H15Y 1985   4.343   3.552   4.349
   15SAPS  C316 1986   4.296   3.688   4.500
   15SAPS  H16X 1987   4.192   3.654   4.522
   15SAPS  H16Y 1988   4.284   3.795   4.529
   15SAPS  C317 1989   4.392   3.615   4.594
   15SAPS  H17X 1990   4.497   3.638   4.568
   15SAPS  H17Y 1991   4.389   3.505   4.583
   15SAPS  C318 1992   4.360   3.647   4.745
   15SAPS  H18X 1993   4.257   3.616   4.774
   15SAPS  H18Y 1994   4.384   3.754   4.765
   15SAPS  H18Z 1995   4.431   3.591   4.809
   16SAPS     N 1996   5.939   3.855   2.131
   16SAPS   HN1 1997   5.929   3.789   2.210
   16SAPS   HN2 1998   6.031   3.902   2.135
   16SAPS   HN3 1999   5.854   3.915   2.132
   16SAPS   C12 2000   5.935   3.777   2.005
   16SAPS  H12A 2001   5.832   3.752   1.982
   16SAPS   C13 2002   5.976   3.861   1.882
   16SAPS  O13A 2003   6.012   3.978   1.885
   16SAPS  O13B 2004   5.966   3.804   1.768
   16SAPS   C11 2005   6.026   3.654   2.011
   16SAPS  H11A 2006   6.132   3.681   2.029
   16SAPS  H11B 2007   6.017   3.600   1.914
   16SAPS     P 2008   6.059   3.439   2.166
   16SAPS   O13 2009   6.084   3.347   2.053
   16SAPS   O14 2010   6.176   3.480   2.240
   16SAPS   O12 2011   5.986   3.569   2.119
   16SAPS   O11 2012   5.958   3.376   2.272
   16SAPS    C1 2013   5.859   3.457   2.340
   16SAPS    HA 2014   5.796   3.509   2.264
   16SAPS    HB 2015   5.796   3.391   2.404
   16SAPS    C2 2016   5.931   3.550   2.440
   16SAPS    HS 2017   6.004   3.612   2.383
   16SAPS   O21 2018   5.988   3.469   2.539
   16SAPS   C21 2019   6.102   3.511   2.588
   16SAPS   O22 2020   6.162   3.616   2.565
   16SAPS   C22 2021   6.151   3.419   2.695
   16SAPS   H2R 2022   6.169   3.315   2.663
   16SAPS   H2S 2023   6.250   3.459   2.727
   16SAPS    C3 2024   5.826   3.644   2.519
   16SAPS    HX 2025   5.754   3.586   2.581
   16SAPS    HY 2026   5.768   3.682   2.432
   16SAPS   O31 2027   5.884   3.751   2.601
   16SAPS   C31 2028   5.974   3.831   2.541
   16SAPS   O32 2029   6.002   3.838   2.422
   16SAPS   C32 2030   6.030   3.922   2.642
   16SAPS   H2X 2031   5.966   4.012   2.652
   16SAPS   H2Y 2032   6.129   3.959   2.606
   16SAPS   C23 2033   6.059   3.423   2.816
   16SAPS   H3R 2034   5.955   3.426   2.778
   16SAPS   H3S 2035   6.060   3.519   2.871
   16SAPS   C24 2036   6.079   3.305   2.916
   16SAPS   H4R 2037   6.022   3.222   2.870
   16SAPS   H4S 2038   6.028   3.319   3.013
   16SAPS   C25 2039   6.215   3.256   2.940
   16SAPS   H5R 2040   6.250   3.162   2.895
   16SAPS   C26 2041   6.310   3.315   3.013
   16SAPS   H6R 2042   6.413   3.276   3.003
   16SAPS   C27 2043   6.314   3.439   3.097
   16SAPS   H7R 2044   6.254   3.514   3.040
   16SAPS   H7S 2045   6.418   3.477   3.101
   16SAPS   C28 2046   6.255   3.437   3.239
   16SAPS   H8R 2047   6.199   3.346   3.262
   16SAPS   C29 2048   6.236   3.546   3.314
   16SAPS   H9R 2049   6.183   3.529   3.409
   16SAPS  C210 2050   6.271   3.686   3.269
   16SAPS  H10R 2051   6.349   3.687   3.190
   16SAPS  H10S 2052   6.310   3.742   3.357
   16SAPS  C211 2053   6.148   3.761   3.224
   16SAPS  H11R 2054   6.124   3.770   3.117
   16SAPS  C212 2055   6.086   3.853   3.298
   16SAPS  H12R 2056   5.997   3.910   3.268
   16SAPS  C213 2057   6.115   3.903   3.434
   16SAPS  H13R 2058   6.082   4.007   3.448
   16SAPS  H13S 2059   6.224   3.909   3.458
   16SAPS  C214 2060   6.047   3.820   3.545
   16SAPS  H14R 2061   6.114   3.751   3.599
   16SAPS  C215 2062   5.914   3.817   3.562
   16SAPS  H15R 2063   5.874   3.744   3.634
   16SAPS  C216 2064   5.807   3.895   3.481
   16SAPS  H16R 2065   5.815   3.858   3.377
   16SAPS  H16S 2066   5.829   4.004   3.478
   16SAPS  C217 2067   5.658   3.875   3.523
   16SAPS  H17R 2068   5.634   3.768   3.536
   16SAPS  H17S 2069   5.576   3.908   3.456
   16SAPS  C218 2070   5.633   3.942   3.657
   16SAPS  H18R 2071   5.657   4.050   3.648
   16SAPS  H18S 2072   5.699   3.903   3.737
   16SAPS  C219 2073   5.484   3.932   3.708
   16SAPS  H19R 2074   5.486   3.826   3.740
   16SAPS  H19S 2075   5.422   3.941   3.616
   16SAPS  C220 2076   5.445   4.031   3.819
   16SAPS  H20R 2077   5.347   4.007   3.865
   16SAPS  H20S 2078   5.432   4.118   3.751
   16SAPS  H20T 2079   5.525   4.069   3.885
   16SAPS   C33 2080   6.054   3.868   2.790
   16SAPS   H3X 2081   6.135   3.923   2.842
   16SAPS   H3Y 2082   6.094   3.765   2.784
   16SAPS   C34 2083   5.932   3.884   2.884
   16SAPS   H4X 2084   5.957   3.839   2.983
   16SAPS   H4Y 2085   5.844   3.825   2.852
   16SAPS   C35 2086   5.880   4.032   2.892
   16SAPS   H5X 2087   5.826   4.057   2.799
   16SAPS   H5Y 2088   5.964   4.100   2.917
   16SAPS   C36 2089   5.782   4.046   3.010
   16SAPS   H6X 2090   5.765   4.155   3.027
   16SAPS   H6Y 2091   5.829   4.004   3.102
   16SAPS   C37 2092   5.642   3.977   3.004
   16SAPS   H7X 2093   5.670   3.871   2.987
   16SAPS   H7Y 2094   5.588   4.028   2.921
   16SAPS   C38 2095   5.556   3.985   3.136
   16SAPS   H8X 2096   5.603   3.924   3.216
   16SAPS   H8Y 2097   5.455   3.944   3.116
   16SAPS   C39 2098   5.538   4.126   3.188
   16SAPS   H9X 2099   5.533   4.202   3.107
   16SAPS   H9Y 2100   5.630   4.150   3.245
   16SAPS  C310 2101   5.418   4.150   3.272
   16SAPS  H10X 2102   5.447   4.098   3.366
   16SAPS  H10Y 2103   5.326   4.114   3.222
   16SAPS  C311 2104   5.393   4.296   3.315
   16SAPS  H11X 2105   5.352   4.356   3.231
   16SAPS  H11Y 2106   5.493   4.338   3.337
   16SAPS  C312 2107   5.292   4.322   3.431
   16SAPS  H12X 2108   5.344   4.290   3.524
   16SAPS  H12Y 2109   5.198   4.265   3.419
   16SAPS  C313 2110   5.245   4.467   3.444
   16SAPS  H13X 2111   5.333   4.529   3.472
   16SAPS  H13Y 2112   5.178   4.473   3.532
   16SAPS  C314 2113   5.166   4.515   3.322
   16SAPS  H14X 2114   5.088   4.437   3.309
   16SAPS  H14Y 2115   5.229   4.507   3.230
   16SAPS  C315 2116   5.105   4.656   3.329
   16SAPS  H15X 2117   5.190   4.727   3.339
   16SAPS  H15Y 2118   5.048   4.662   3.424
   16SAPS  C316 2119   5.023   4.684   3.203
   16SAPS  H16X 2120   4.933   4.619   3.202
   16SAPS  H16Y 2121   5.084   4.660   3.113
   16SAPS  C317 2122   4.973   4.822   3.181
   16SAPS  H17X 2123   4.956   4.823   3.072
   16SAPS  H17Y 2124   5.060   4.890   3.193
   16SAPS  C318 2125   4.849   4.858   3.269
   16SAPS  H18X 2126   4.831   4.965   3.244
   16SAPS  H18Y 2127   4.854   4.838   3.378
   16SAPS  H18Z 2128   4.764   4.805   3.221
   17SAPS     N 2129   1.853   2.139   1.922
   17SAPS   HN1 2130   1.928   2.153   1.992
   17SAPS   HN2 2131   1.816   2.234   1.898
   17SAPS   HN3 2132   1.770   2.093   1.965
   17SAPS   C12 2133   1.881   2.083   1.795
   17SAPS  H12A 2134   1.849   2.163   1.730
   17SAPS   C13 2135   2.026   2.045   1.762
   17SAPS  O13A 2136   2.121   2.078   1.844
   17SAPS  O13B 2137   2.047   2.000   1.639
   17SAPS   C11 2138   1.801   1.949   1.783
   17SAPS  H11A 2139   1.852   1.865   1.834
   17SAPS  H11B 2140   1.792   1.924   1.675
   17SAPS     P 2141   1.543   1.964   1.749
   17SAPS   O13 2142   1.545   2.078   1.652
   17SAPS   O14 2143   1.530   1.835   1.684
   17SAPS   O12 2144   1.672   1.968   1.841
   17SAPS   O11 2145   1.428   1.980   1.856
   17SAPS    C1 2146   1.438   2.092   1.944
   17SAPS    HA 2147   1.537   2.140   1.936
   17SAPS    HB 2148   1.363   2.165   1.907
   17SAPS    C2 2149   1.417   2.057   2.093
   17SAPS    HS 2150   1.465   2.136   2.155
   17SAPS   O21 2151   1.477   1.929   2.125
   17SAPS   C21 2152   1.611   1.923   2.128
   17SAPS   O22 2153   1.684   2.022   2.129
   17SAPS   C22 2154   1.663   1.776   2.144
   17SAPS   H2R 2155   1.588   1.718   2.203
   17SAPS   H2S 2156   1.655   1.735   2.041
   17SAPS    C3 2157   1.273   2.045   2.132
   17SAPS    HX 2158   1.220   1.975   2.064
   17SAPS    HY 2159   1.229   2.142   2.101
   17SAPS   O31 2160   1.254   2.028   2.272
   17SAPS   C31 2161   1.234   1.902   2.325
   17SAPS   O32 2162   1.233   1.795   2.266
   17SAPS   C32 2163   1.214   1.924   2.471
   17SAPS   H2X 2164   1.115   1.973   2.482
   17SAPS   H2Y 2165   1.300   1.984   2.508
   17SAPS   C23 2166   1.805   1.780   2.189
   17SAPS   H3R 2167   1.871   1.841   2.125
   17SAPS   H3S 2168   1.842   1.675   2.183
   17SAPS   C24 2169   1.807   1.808   2.335
   17SAPS   H4R 2170   1.716   1.769   2.384
   17SAPS   H4S 2171   1.789   1.918   2.338
   17SAPS   C25 2172   1.927   1.767   2.404
   17SAPS   H5R 2173   2.018   1.822   2.375
   17SAPS   C26 2174   1.941   1.674   2.501
   17SAPS   H6R 2175   2.042   1.654   2.540
   17SAPS   C27 2176   1.841   1.588   2.567
   17SAPS   H7R 2177   1.780   1.538   2.488
   17SAPS   H7S 2178   1.769   1.636   2.636
   17SAPS   C28 2179   1.901   1.457   2.629
   17SAPS   H8R 2180   1.924   1.380   2.554
   17SAPS   C29 2181   1.935   1.439   2.762
   17SAPS   H9R 2182   1.975   1.341   2.793
   17SAPS  C210 2183   1.938   1.540   2.873
   17SAPS  H10R 2184   1.839   1.537   2.925
   17SAPS  H10S 2185   1.940   1.637   2.821
   17SAPS  C211 2186   2.044   1.511   2.975
   17SAPS  H11R 2187   2.137   1.567   2.956
   17SAPS  C212 2188   2.039   1.430   3.079
   17SAPS  H12R 2189   2.127   1.409   3.142
   17SAPS  C213 2190   1.915   1.351   3.113
   17SAPS  H13R 2191   1.833   1.381   3.044
   17SAPS  H13S 2192   1.890   1.387   3.215
   17SAPS  C214 2193   1.931   1.204   3.130
   17SAPS  H14R 2194   1.918   1.139   3.042
   17SAPS  C215 2195   1.963   1.151   3.250
   17SAPS  H15R 2196   1.978   1.042   3.251
   17SAPS  C216 2197   1.997   1.221   3.378
   17SAPS  H16R 2198   2.006   1.331   3.364
   17SAPS  H16S 2199   2.083   1.187   3.439
   17SAPS  C217 2200   1.888   1.194   3.492
   17SAPS  H17R 2201   1.891   1.083   3.502
   17SAPS  H17S 2202   1.788   1.236   3.470
   17SAPS  C218 2203   1.934   1.250   3.628
   17SAPS  H18R 2204   1.931   1.361   3.638
   17SAPS  H18S 2205   2.041   1.222   3.642
   17SAPS  C219 2206   1.874   1.186   3.757
   17SAPS  H19R 2207   1.903   1.078   3.760
   17SAPS  H19S 2208   1.765   1.178   3.739
   17SAPS  C220 2209   1.918   1.243   3.889
   17SAPS  H20R 2210   1.871   1.342   3.909
   17SAPS  H20S 2211   2.026   1.266   3.901
   17SAPS  H20T 2212   1.876   1.180   3.969
   17SAPS   C33 2213   1.194   1.784   2.534
   17SAPS   H3X 2214   1.288   1.728   2.513
   17SAPS   H3Y 2215   1.104   1.735   2.491
   17SAPS   C34 2216   1.168   1.784   2.689
   17SAPS   H4X 2217   1.252   1.841   2.733
   17SAPS   H4Y 2218   1.174   1.675   2.714
   17SAPS   C35 2219   1.039   1.849   2.734
   17SAPS   H5X 2220   0.957   1.774   2.724
   17SAPS   H5Y 2221   1.020   1.931   2.662
   17SAPS   C36 2222   1.047   1.902   2.876
   17SAPS   H6X 2223   0.969   1.978   2.898
   17SAPS   H6Y 2224   1.144   1.956   2.881
   17SAPS   C37 2225   1.031   1.794   2.980
   17SAPS   H7X 2226   1.107   1.718   2.953
   17SAPS   H7Y 2227   0.936   1.737   2.969
   17SAPS   C38 2228   1.036   1.846   3.125
   17SAPS   H8X 2229   0.947   1.907   3.152
   17SAPS   H8Y 2230   1.125   1.913   3.133
   17SAPS   C39 2231   1.042   1.728   3.229
   17SAPS   H9X 2232   1.143   1.682   3.224
   17SAPS   H9Y 2233   0.966   1.655   3.193
   17SAPS  C310 2234   1.015   1.773   3.371
   17SAPS  H10X 2235   0.906   1.780   3.393
   17SAPS  H10Y 2236   1.071   1.867   3.386
   17SAPS  C311 2237   1.057   1.656   3.461
   17SAPS  H11X 2238   1.167   1.646   3.447
   17SAPS  H11Y 2239   1.011   1.557   3.438
   17SAPS  C312 2240   1.029   1.677   3.615
   17SAPS  H12X 2241   0.918   1.682   3.617
   17SAPS  H12Y 2242   1.069   1.777   3.642
   17SAPS  C313 2243   1.078   1.570   3.707
   17SAPS  H13X 2244   1.184   1.551   3.679
   17SAPS  H13Y 2245   1.014   1.481   3.690
   17SAPS  C314 2246   1.076   1.611   3.856
   17SAPS  H14X 2247   0.970   1.637   3.873
   17SAPS  H14Y 2248   1.147   1.694   3.876
   17SAPS  C315 2249   1.110   1.500   3.956
   17SAPS  H15X 2250   1.216   1.475   3.937
   17SAPS  H15Y 2251   1.052   1.409   3.929
   17SAPS  C316 2252   1.076   1.535   4.107
   17SAPS  H16X 2253   1.131   1.469   4.177
   17SAPS  H16Y 2254   0.967   1.546   4.127
   17SAPS  C317 2255   1.126   1.675   4.152
   17SAPS  H17X 2256   1.067   1.755   4.102
   17SAPS  H17Y 2257   1.226   1.689   4.107
   17SAPS  C318 2258   1.141   1.689   4.300
   17SAPS  H18X 2259   1.199   1.611   4.354
   17SAPS  H18Y 2260   1.044   1.673   4.351
   17SAPS  H18Z 2261   1.177   1.791   4.327
   18SAPS     N 2262   4.229   2.305   2.178
   18SAPS   HN1 2263   4.226   2.408   2.198
   18SAPS   HN2 2264   4.172   2.288   2.093
   18SAPS   HN3 2265   4.189   2.249   2.255
   18SAPS   C12 2266   4.372   2.272   2.154
   18SAPS  H12A 2267   4.383   2.166   2.142
   18SAPS   C13 2268   4.427   2.342   2.024
   18SAPS  O13A 2269   4.352   2.420   1.961
   18SAPS  O13B 2270   4.532   2.299   1.975
   18SAPS   C11 2271   4.466   2.311   2.277
   18SAPS  H11A 2272   4.564   2.269   2.247
   18SAPS  H11B 2273   4.419   2.262   2.365
   18SAPS     P 2274   4.395   2.540   2.383
   18SAPS   O13 2275   4.461   2.675   2.395
   18SAPS   O14 2276   4.251   2.527   2.348
   18SAPS   O12 2277   4.485   2.454   2.285
   18SAPS   O11 2278   4.414   2.471   2.519
   18SAPS    C1 2279   4.541   2.437   2.576
   18SAPS    HA 2280   4.572   2.335   2.545
   18SAPS    HB 2281   4.623   2.505   2.545
   18SAPS    C2 2282   4.539   2.434   2.736
   18SAPS    HS 2283   4.643   2.399   2.759
   18SAPS   O21 2284   4.434   2.356   2.795
   18SAPS   C21 2285   4.451   2.233   2.780
   18SAPS   O22 2286   4.539   2.174   2.719
   18SAPS   C22 2287   4.339   2.160   2.844
   18SAPS   H2R 2288   4.277   2.239   2.891
   18SAPS   H2S 2289   4.275   2.114   2.765
   18SAPS    C3 2290   4.537   2.580   2.789
   18SAPS    HX 2291   4.457   2.626   2.728
   18SAPS    HY 2292   4.628   2.639   2.763
   18SAPS   O31 2293   4.496   2.590   2.926
   18SAPS   C31 2294   4.581   2.532   3.014
   18SAPS   O32 2295   4.680   2.464   2.985
   18SAPS   C32 2296   4.530   2.561   3.153
   18SAPS   H2X 2297   4.441   2.498   3.174
   18SAPS   H2Y 2298   4.494   2.666   3.149
   18SAPS   C23 2299   4.381   2.051   2.953
   18SAPS   H3R 2300   4.472   1.994   2.925
   18SAPS   H3S 2301   4.297   1.980   2.970
   18SAPS   C24 2302   4.392   2.118   3.091
   18SAPS   H4R 2303   4.313   2.195   3.105
   18SAPS   H4S 2304   4.485   2.176   3.112
   18SAPS   C25 2305   4.380   2.020   3.208
   18SAPS   H5R 2306   4.312   1.936   3.185
   18SAPS   C26 2307   4.439   2.017   3.330
   18SAPS   H6R 2308   4.427   1.931   3.398
   18SAPS   C27 2309   4.533   2.123   3.382
   18SAPS   H7R 2310   4.462   2.197   3.425
   18SAPS   H7S 2311   4.588   2.182   3.305
   18SAPS   C28 2312   4.623   2.064   3.488
   18SAPS   H8R 2313   4.717   2.028   3.445
   18SAPS   C29 2314   4.601   2.050   3.621
   18SAPS   H9R 2315   4.671   1.985   3.675
   18SAPS  C210 2316   4.471   2.082   3.696
   18SAPS  H10R 2317   4.433   1.985   3.733
   18SAPS  H10S 2318   4.394   2.128   3.630
   18SAPS  C211 2319   4.492   2.185   3.803
   18SAPS  H11R 2320   4.464   2.290   3.783
   18SAPS  C212 2321   4.526   2.147   3.930
   18SAPS  H12R 2322   4.518   2.223   4.010
   18SAPS  C213 2323   4.571   2.019   3.991
   18SAPS  H13R 2324   4.651   1.986   3.920
   18SAPS  H13S 2325   4.495   1.938   3.983
   18SAPS  C214 2326   4.628   2.031   4.131
   18SAPS  H14R 2327   4.728   2.078   4.134
   18SAPS  C215 2328   4.563   1.990   4.240
   18SAPS  H15R 2329   4.612   1.991   4.339
   18SAPS  C216 2330   4.421   1.941   4.252
   18SAPS  H16R 2331   4.435   1.835   4.283
   18SAPS  H16S 2332   4.368   1.933   4.155
   18SAPS  C217 2333   4.346   2.021   4.365
   18SAPS  H17R 2334   4.318   2.118   4.319
   18SAPS  H17S 2335   4.410   2.030   4.455
   18SAPS  C218 2336   4.219   1.955   4.412
   18SAPS  H18R 2337   4.250   1.857   4.454
   18SAPS  H18S 2338   4.141   1.946   4.334
   18SAPS  C219 2339   4.153   2.048   4.516
   18SAPS  H19R 2340   4.224   2.059   4.600
   18SAPS  H19S 2341   4.070   1.988   4.560
   18SAPS  C220 2342   4.105   2.184   4.451
   18SAPS  H20R 2343   4.198   2.245   4.458
   18SAPS  H20S 2344   4.020   2.233   4.502
   18SAPS  H20T 2345   4.075   2.160   4.347
   18SAPS   C33 2346   4.635   2.532   3.258
   18SAPS   H3X 2347   4.736   2.577   3.244
   18SAPS   H3Y 2348   4.662   2.426   3.239
   18SAPS   C34 2349   4.585   2.540   3.407
   18SAPS   H4X 2350   4.488   2.487   3.416
   18SAPS   H4Y 2351   4.568   2.644   3.441
   18SAPS   C35 2352   4.684   2.474   3.504
   18SAPS   H5X 2353   4.790   2.495   3.482
   18SAPS   H5Y 2354   4.677   2.363   3.499
   18SAPS   C36 2355   4.659   2.518   3.649
   18SAPS   H6X 2356   4.558   2.484   3.679
   18SAPS   H6Y 2357   4.676   2.628   3.654
   18SAPS   C37 2358   4.750   2.448   3.743
   18SAPS   H7X 2359   4.859   2.458   3.722
   18SAPS   H7Y 2360   4.730   2.339   3.739
   18SAPS   C38 2361   4.731   2.487   3.884
   18SAPS   H8X 2362   4.632   2.456   3.922
   18SAPS   H8Y 2363   4.742   2.597   3.896
   18SAPS   C39 2364   4.822   2.406   3.969
   18SAPS   H9X 2365   4.919   2.417   3.917
   18SAPS   H9Y 2366   4.795   2.298   3.968
   18SAPS  C310 2367   4.839   2.432   4.113
   18SAPS  H10X 2368   4.893   2.342   4.148
   18SAPS  H10Y 2369   4.737   2.438   4.157
   18SAPS  C311 2370   4.921   2.559   4.159
   18SAPS  H11X 2371   4.883   2.652   4.111
   18SAPS  H11Y 2372   5.026   2.555   4.121
   18SAPS  C312 2373   4.932   2.585   4.314
   18SAPS  H12X 2374   4.840   2.567   4.373
   18SAPS  H12Y 2375   4.941   2.695   4.325
   18SAPS  C313 2376   5.056   2.513   4.372
   18SAPS  H13X 2377   5.145   2.564   4.329
   18SAPS  H13Y 2378   5.056   2.406   4.345
   18SAPS  C314 2379   5.073   2.511   4.524
   18SAPS  H14X 2380   5.158   2.445   4.548
   18SAPS  H14Y 2381   4.984   2.466   4.571
   18SAPS  C315 2382   5.099   2.643   4.589
   18SAPS  H15X 2383   5.152   2.620   4.683
   18SAPS  H15Y 2384   4.999   2.688   4.611
   18SAPS  C316 2385   5.166   2.753   4.507
   18SAPS  H16X 2386   5.169   2.839   4.577
   18SAPS  H16Y 2387   5.110   2.783   4.416
   18SAPS  C317 2388   5.320   2.717   4.489
   18SAPS  H17X 2389   5.329   2.639   4.410
   18SAPS  H17Y 2390   5.357   2.664   4.580
   18SAPS  C318 2391   5.417   2.833   4.463
   18SAPS  H18X 2392   5.522   2.804   4.484
   18SAPS  H18Y 2393   5.403   2.934   4.508
   18SAPS  H18Z 2394   5.415   2.868   4.357
   19SAPS     N 2395   4.555   4.401   2.328
   19SAPS   HN1 2396   4.591   4.321   2.272
   19SAPS   HN2 2397   4.581   4.373   2.425
   19SAPS   HN3 2398   4.453   4.413   2.314
   19SAPS   C12 2399   4.621   4.526   2.297
   19SAPS  H12A 2400   4.723   4.526   2.333
   19SAPS   C13 2401   4.638   4.565   2.146
   19SAPS  O13A 2402   4.612   4.482   2.057
   19SAPS  O13B 2403   4.721   4.655   2.122
   19SAPS   C11 2404   4.556   4.642   2.376
   19SAPS  H11A 2405   4.618   4.733   2.367
   19SAPS  H11B 2406   4.556   4.604   2.480
   19SAPS     P 2407   4.345   4.798   2.377
   19SAPS   O13 2408   4.439   4.904   2.351
   19SAPS   O14 2409   4.209   4.799   2.319
   19SAPS   O12 2410   4.414   4.663   2.338
   19SAPS   O11 2411   4.328   4.776   2.535
   19SAPS    C1 2412   4.276   4.655   2.579
   19SAPS    HA 2413   4.316   4.564   2.528
   19SAPS    HB 2414   4.298   4.646   2.687
   19SAPS    C2 2415   4.120   4.640   2.588
   19SAPS    HS 2416   4.086   4.606   2.488
   19SAPS   O21 2417   4.072   4.765   2.618
   19SAPS   C21 2418   3.944   4.787   2.598
   19SAPS   O22 2419   3.861   4.710   2.555
   19SAPS   C22 2420   3.904   4.924   2.645
   19SAPS   H2R 2421   3.942   4.940   2.748
   19SAPS   H2S 2422   3.959   5.005   2.592
   19SAPS    C3 2423   4.084   4.540   2.694
   19SAPS    HX 2424   4.114   4.437   2.663
   19SAPS    HY 2425   3.974   4.530   2.702
   19SAPS   O31 2426   4.133   4.564   2.823
   19SAPS   C31 2427   4.067   4.646   2.903
   19SAPS   O32 2428   3.965   4.709   2.885
   19SAPS   C32 2429   4.121   4.621   3.050
   19SAPS   H2X 2430   4.198   4.696   3.078
   19SAPS   H2Y 2431   4.178   4.525   3.044
   19SAPS   C23 2432   3.750   4.957   2.651
   19SAPS   H3R 2433   3.706   4.874   2.710
   19SAPS   H3S 2434   3.710   4.949   2.548
   19SAPS   C24 2435   3.713   5.102   2.700
   19SAPS   H4R 2436   3.603   5.117   2.714
   19SAPS   H4S 2437   3.751   5.168   2.620
   19SAPS   C25 2438   3.790   5.162   2.817
   19SAPS   H5R 2439   3.870   5.233   2.790
   19SAPS   C26 2440   3.756   5.162   2.952
   19SAPS   H6R 2441   3.821   5.219   3.020
   19SAPS   C27 2442   3.664   5.078   3.028
   19SAPS   H7R 2443   3.570   5.066   2.970
   19SAPS   H7S 2444   3.632   5.140   3.115
   19SAPS   C28 2445   3.712   4.936   3.063
   19SAPS   H8R 2446   3.735   4.869   2.979
   19SAPS   C29 2447   3.729   4.897   3.189
   19SAPS   H9R 2448   3.764   4.793   3.201
   19SAPS  C210 2449   3.723   4.966   3.324
   19SAPS  H10R 2450   3.647   5.047   3.324
   19SAPS  H10S 2451   3.822   5.014   3.333
   19SAPS  C211 2452   3.705   4.879   3.443
   19SAPS  H11R 2453   3.691   4.771   3.433
   19SAPS  C212 2454   3.690   4.930   3.569
   19SAPS  H12R 2455   3.673   4.858   3.651
   19SAPS  C213 2456   3.711   5.073   3.606
   19SAPS  H13R 2457   3.690   5.139   3.520
   19SAPS  H13S 2458   3.820   5.088   3.617
   19SAPS  C214 2459   3.624   5.107   3.726
   19SAPS  H14R 2460   3.518   5.130   3.710
   19SAPS  C215 2461   3.670   5.096   3.851
   19SAPS  H15R 2462   3.595   5.113   3.929
   19SAPS  C216 2463   3.805   5.066   3.914
   19SAPS  H16R 2464   3.802   5.078   4.024
   19SAPS  H16S 2465   3.898   5.115   3.877
   19SAPS  C217 2466   3.845   4.919   3.910
   19SAPS  H17R 2467   3.934   4.920   3.976
   19SAPS  H17S 2468   3.874   4.885   3.809
   19SAPS  C218 2469   3.739   4.817   3.964
   19SAPS  H18R 2470   3.641   4.824   3.912
   19SAPS  H18S 2471   3.716   4.827   4.073
   19SAPS  C219 2472   3.781   4.667   3.957
   19SAPS  H19R 2473   3.688   4.623   3.998
   19SAPS  H19S 2474   3.864   4.642   4.027
   19SAPS  C220 2475   3.823   4.618   3.824
   19SAPS  H20R 2476   3.919   4.658   3.785
   19SAPS  H20S 2477   3.750   4.636   3.743
   19SAPS  H20T 2478   3.847   4.509   3.828
   19SAPS   C33 2479   4.009   4.626   3.153
   19SAPS   H3X 2480   3.914   4.571   3.135
   19SAPS   H3Y 2481   3.989   4.734   3.170
   19SAPS   C34 2482   4.070   4.583   3.292
   19SAPS   H4X 2483   4.155   4.645   3.327
   19SAPS   H4Y 2484   4.124   4.487   3.276
   19SAPS   C35 2485   3.963   4.558   3.397
   19SAPS   H5X 2486   3.891   4.479   3.366
   19SAPS   H5Y 2487   3.904   4.650   3.418
   19SAPS   C36 2488   4.027   4.523   3.531
   19SAPS   H6X 2489   4.091   4.434   3.516
   19SAPS   H6Y 2490   3.953   4.493   3.608
   19SAPS   C37 2491   4.112   4.636   3.601
   19SAPS   H7X 2492   4.044   4.717   3.635
   19SAPS   H7Y 2493   4.183   4.690   3.535
   19SAPS   C38 2494   4.192   4.577   3.717
   19SAPS   H8X 2495   4.269   4.515   3.666
   19SAPS   H8Y 2496   4.118   4.509   3.764
   19SAPS   C39 2497   4.240   4.674   3.826
   19SAPS   H9X 2498   4.156   4.728   3.875
   19SAPS   H9Y 2499   4.303   4.758   3.789
   19SAPS  C310 2500   4.323   4.599   3.935
   19SAPS  H10X 2501   4.413   4.561   3.883
   19SAPS  H10Y 2502   4.274   4.512   3.983
   19SAPS  C311 2503   4.367   4.686   4.044
   19SAPS  H11X 2504   4.281   4.706   4.112
   19SAPS  H11Y 2505   4.402   4.775   3.988
   19SAPS  C312 2506   4.479   4.621   4.133
   19SAPS  H12X 2507   4.551   4.589   4.054
   19SAPS  H12Y 2508   4.439   4.531   4.183
   19SAPS  C313 2509   4.525   4.718   4.237
   19SAPS  H13X 2510   4.434   4.737   4.297
   19SAPS  H13Y 2511   4.553   4.815   4.192
   19SAPS  C314 2512   4.641   4.660   4.331
   19SAPS  H14X 2513   4.735   4.640   4.276
   19SAPS  H14Y 2514   4.613   4.561   4.373
   19SAPS  C315 2515   4.677   4.752   4.451
   19SAPS  H15X 2516   4.752   4.687   4.502
   19SAPS  H15Y 2517   4.593   4.779   4.518
   19SAPS  C316 2518   4.760   4.881   4.412
   19SAPS  H16X 2519   4.700   4.949   4.347
   19SAPS  H16Y 2520   4.847   4.850   4.350
   19SAPS  C317 2521   4.825   4.950   4.525
   19SAPS  H17X 2522   4.897   4.881   4.574
   19SAPS  H17Y 2523   4.752   4.990   4.599
   19SAPS  C318 2524   4.893   5.083   4.480
   19SAPS  H18X 2525   4.912   5.153   4.564
   19SAPS  H18Y 2526   4.821   5.134   4.413
   19SAPS  H18Z 2527   4.991   5.064   4.431
   20SAPS     N 2528   4.715   5.280   2.176
   20SAPS   HN1 2529   4.737   5.324   2.268
   20SAPS   HN2 2530   4.628   5.227   2.193
   20SAPS   HN3 2531   4.793   5.212   2.166
   20SAPS   C12 2532   4.711   5.384   2.074
   20SAPS  H12A 2533   4.812   5.399   2.039
   20SAPS   C13 2534   4.598   5.358   1.963
   20SAPS  O13A 2535   4.525   5.253   1.971
   20SAPS  O13B 2536   4.587   5.441   1.867
   20SAPS   C11 2537   4.680   5.527   2.135
   20SAPS  H11A 2538   4.670   5.597   2.048
   20SAPS  H11B 2539   4.772   5.546   2.195
   20SAPS     P 2540   4.528   5.658   2.294
   20SAPS   O13 2541   4.516   5.766   2.200
   20SAPS   O14 2542   4.419   5.631   2.388
   20SAPS   O12 2543   4.570   5.527   2.225
   20SAPS   O11 2544   4.659   5.682   2.378
   20SAPS    C1 2545   4.685   5.618   2.507
   20SAPS    HA 2546   4.622   5.530   2.529
   20SAPS    HB 2547   4.784   5.571   2.492
   20SAPS    C2 2548   4.681   5.706   2.629
   20SAPS    HS 2549   4.587   5.763   2.610
   20SAPS   O21 2550   4.798   5.794   2.632
   20SAPS   C21 2551   4.760   5.912   2.682
   20SAPS   O22 2552   4.650   5.944   2.728
   20SAPS   C22 2553   4.875   6.006   2.648
   20SAPS   H2R 2554   4.976   5.961   2.648
   20SAPS   H2S 2555   4.851   6.044   2.546
   20SAPS    C3 2556   4.663   5.624   2.757
   20SAPS    HX 2557   4.668   5.695   2.842
   20SAPS    HY 2558   4.742   5.546   2.762
   20SAPS   O31 2559   4.540   5.552   2.764
   20SAPS   C31 2560   4.425   5.620   2.777
   20SAPS   O32 2561   4.409   5.737   2.772
   20SAPS   C32 2562   4.325   5.526   2.836
   20SAPS   H2X 2563   4.316   5.547   2.945
   20SAPS   H2Y 2564   4.358   5.423   2.815
   20SAPS   C23 2565   4.886   6.131   2.747
   20SAPS   H3R 2566   4.796   6.197   2.746
   20SAPS   H3S 2567   4.967   6.186   2.694
   20SAPS   C24 2568   4.918   6.099   2.890
   20SAPS   H4R 2569   5.010   6.038   2.886
   20SAPS   H4S 2570   4.840   6.029   2.927
   20SAPS   C25 2571   4.924   6.218   2.985
   20SAPS   H5R 2572   4.823   6.260   2.994
   20SAPS   C26 2573   5.031   6.255   3.058
   20SAPS   H6R 2574   5.024   6.342   3.125
   20SAPS   C27 2575   5.167   6.201   3.054
   20SAPS   H7R 2576   5.186   6.149   2.958
   20SAPS   H7S 2577   5.160   6.125   3.135
   20SAPS   C28 2578   5.278   6.295   3.085
   20SAPS   H8R 2579   5.281   6.372   3.007
   20SAPS   C29 2580   5.346   6.302   3.200
   20SAPS   H9R 2581   5.433   6.370   3.199
   20SAPS  C210 2582   5.338   6.215   3.320
   20SAPS  H10R 2583   5.439   6.187   3.358
   20SAPS  H10S 2584   5.277   6.124   3.301
   20SAPS  C211 2585   5.258   6.280   3.431
   20SAPS  H11R 2586   5.166   6.333   3.402
   20SAPS  C212 2587   5.289   6.282   3.563
   20SAPS  H12R 2588   5.215   6.332   3.627
   20SAPS  C213 2589   5.414   6.221   3.630
   20SAPS  H13R 2590   5.468   6.142   3.573
   20SAPS  H13S 2591   5.384   6.174   3.725
   20SAPS  C214 2592   5.510   6.326   3.673
   20SAPS  H14R 2593   5.606   6.324   3.620
   20SAPS  C215 2594   5.491   6.420   3.771
   20SAPS  H15R 2595   5.553   6.511   3.769
   20SAPS  C216 2596   5.357   6.439   3.845
   20SAPS  H16R 2597   5.315   6.336   3.856
   20SAPS  H16S 2598   5.290   6.508   3.790
   20SAPS  C217 2599   5.394   6.495   3.983
   20SAPS  H17R 2600   5.428   6.601   3.977
   20SAPS  H17S 2601   5.485   6.443   4.020
   20SAPS  C218 2602   5.289   6.489   4.101
   20SAPS  H18R 2603   5.259   6.382   4.109
   20SAPS  H18S 2604   5.203   6.555   4.079
   20SAPS  C219 2605   5.340   6.545   4.233
   20SAPS  H19R 2606   5.398   6.633   4.198
   20SAPS  H19S 2607   5.414   6.473   4.276
   20SAPS  C220 2608   5.226   6.576   4.334
   20SAPS  H20R 2609   5.274   6.625   4.422
   20SAPS  H20S 2610   5.169   6.486   4.365
   20SAPS  H20T 2611   5.155   6.640   4.277
   20SAPS   C33 2612   4.184   5.558   2.783
   20SAPS   H3X 2613   4.183   5.518   2.679
   20SAPS   H3Y 2614   4.160   5.667   2.782
   20SAPS   C34 2615   4.069   5.494   2.872
   20SAPS   H4X 2616   4.114   5.398   2.906
   20SAPS   H4Y 2617   3.973   5.466   2.824
   20SAPS   C35 2618   4.032   5.582   2.993
   20SAPS   H5X 2619   3.966   5.663   2.956
   20SAPS   H5Y 2620   4.125   5.617   3.043
   20SAPS   C36 2621   3.965   5.504   3.100
   20SAPS   H6X 2622   4.039   5.425   3.125
   20SAPS   H6Y 2623   3.883   5.449   3.049
   20SAPS   C37 2624   3.933   5.575   3.223
   20SAPS   H7X 2625   3.845   5.641   3.206
   20SAPS   H7Y 2626   4.023   5.635   3.249
   20SAPS   C38 2627   3.903   5.469   3.327
   20SAPS   H8X 2628   3.985   5.395   3.335
   20SAPS   H8Y 2629   3.811   5.410   3.305
   20SAPS   C39 2630   3.892   5.542   3.464
   20SAPS   H9X 2631   3.803   5.608   3.464
   20SAPS   H9Y 2632   3.985   5.600   3.483
   20SAPS  C310 2633   3.863   5.443   3.582
   20SAPS  H10X 2634   3.945   5.369   3.597
   20SAPS  H10Y 2635   3.768   5.388   3.567
   20SAPS  C311 2636   3.847   5.520   3.719
   20SAPS  H11X 2637   3.738   5.525   3.742
   20SAPS  H11Y 2638   3.889   5.623   3.712
   20SAPS  C312 2639   3.909   5.445   3.841
   20SAPS  H12X 2640   4.018   5.446   3.821
   20SAPS  H12Y 2641   3.886   5.336   3.840
   20SAPS  C313 2642   3.866   5.504   3.973
   20SAPS  H13X 2643   3.757   5.490   3.987
   20SAPS  H13Y 2644   3.908   5.607   3.978
   20SAPS  C314 2645   3.936   5.419   4.086
   20SAPS  H14X 2646   4.046   5.425   4.072
   20SAPS  H14Y 2647   3.901   5.313   4.087
   20SAPS  C315 2648   3.916   5.475   4.223
   20SAPS  H15X 2649   3.807   5.463   4.243
   20SAPS  H15Y 2650   3.937   5.584   4.233
   20SAPS  C316 2651   3.984   5.396   4.335
   20SAPS  H16X 2652   4.089   5.392   4.299
   20SAPS  H16Y 2653   3.942   5.293   4.336
   20SAPS  C317 2654   3.961   5.461   4.473
   20SAPS  H17X 2655   3.856   5.499   4.477
   20SAPS  H17Y 2656   4.035   5.544   4.478
   20SAPS  C318 2657   3.992   5.355   4.587
   20SAPS  H18X 2658   3.922   5.269   4.584
   20SAPS  H18Y 2659   3.971   5.403   4.685
   20SAPS  H18Z 2660   4.096   5.315   4.588
   21CHL1    C3 2661   1.749   3.430   6.214
   21CHL1    H3 2662   1.853   3.396   6.193
   21CHL1    O3 2663   1.729   3.462   6.349
   21CHL1   H3' 2664   1.717   3.379   6.396
   21CHL1    C4 2665   1.736   3.563   6.131
   21CHL1   H4A 2666   1.634   3.603   6.153
   21CHL1   H4B 2667   1.810   3.637   6.168
   21CHL1    C5 2668   1.751   3.519   5.987
   21CHL1    C6 2669   1.852   3.569   5.916
   21CHL1    H6 2670   1.926   3.641   5.953
   21CHL1    C7 2671   1.865   3.532   5.772
   21CHL1   H7A 2672   1.883   3.626   5.715
   21CHL1   H7B 2673   1.949   3.465   5.746
   21CHL1    C8 2674   1.742   3.471   5.700
   21CHL1    H8 2675   1.672   3.555   5.679
   21CHL1   C14 2676   1.781   3.415   5.563
   21CHL1   H14 2677   1.842   3.322   5.573
   21CHL1   C15 2678   1.864   3.500   5.467
   21CHL1  H15A 2679   1.812   3.597   5.477
   21CHL1  H15B 2680   1.968   3.512   5.506
   21CHL1   C16 2681   1.842   3.446   5.325
   21CHL1  H16A 2682   1.807   3.529   5.259
   21CHL1  H16B 2683   1.941   3.414   5.287
   21CHL1   C17 2684   1.738   3.325   5.350
   21CHL1   H17 2685   1.813   3.247   5.377
   21CHL1   C13 2686   1.661   3.367   5.479
   21CHL1   C18 2687   1.565   3.485   5.440
   21CHL1  H18A 2688   1.617   3.561   5.377
   21CHL1  H18B 2689   1.479   3.445   5.382
   21CHL1  H18C 2690   1.529   3.534   5.533
   21CHL1   C12 2691   1.606   3.258   5.571
   21CHL1  H12A 2692   1.514   3.207   5.535
   21CHL1  H12B 2693   1.688   3.186   5.592
   21CHL1   C11 2694   1.549   3.303   5.705
   21CHL1  H11A 2695   1.475   3.384   5.688
   21CHL1  H11B 2696   1.506   3.229   5.777
   21CHL1    C9 2697   1.669   3.365   5.787
   21CHL1    H9 2698   1.741   3.282   5.801
   21CHL1   C10 2699   1.641   3.416   5.931
   21CHL1   C19 2700   1.509   3.484   5.926
   21CHL1  H19A 2701   1.503   3.578   5.867
   21CHL1  H19B 2702   1.427   3.419   5.891
   21CHL1  H19C 2703   1.485   3.532   6.023
   21CHL1    C1 2704   1.648   3.296   6.027
   21CHL1   H1A 2705   1.568   3.223   6.003
   21CHL1   H1B 2706   1.744   3.244   6.005
   21CHL1    C2 2707   1.638   3.324   6.174
   21CHL1   H2A 2708   1.662   3.230   6.227
   21CHL1   H2B 2709   1.537   3.358   6.204
   21CHL1   C20 2710   1.661   3.296   5.219
   21CHL1   H20 2711   1.583   3.375   5.212
   21CHL1   C21 2712   1.578   3.165   5.244
   21CHL1  H21A 2713   1.637   3.078   5.278
   21CHL1  H21B 2714   1.517   3.138   5.155
   21CHL1  H21C 2715   1.507   3.192   5.325
   21CHL1   C22 2716   1.758   3.288   5.095
   21CHL1  H22A 2717   1.785   3.393   5.070
   21CHL1  H22B 2718   1.845   3.228   5.128
   21CHL1   C23 2719   1.691   3.231   4.967
   21CHL1  H23A 2720   1.649   3.129   4.978
   21CHL1  H23B 2721   1.611   3.304   4.943
   21CHL1   C24 2722   1.792   3.224   4.853
   21CHL1  H24A 2723   1.831   3.325   4.830
   21CHL1  H24B 2724   1.875   3.154   4.876
   21CHL1   C25 2725   1.751   3.148   4.721
   21CHL1   H25 2726   1.725   3.047   4.759
   21CHL1   C26 2727   1.618   3.198   4.659
   21CHL1  H26A 2728   1.597   3.306   4.674
   21CHL1  H26B 2729   1.606   3.174   4.552
   21CHL1  H26C 2730   1.533   3.148   4.711
   21CHL1   C27 2731   1.863   3.159   4.621
   21CHL1  H27A 2732   1.894   3.265   4.614
   21CHL1  H27B 2733   1.949   3.095   4.650
   21CHL1  H27C 2734   1.818   3.110   4.532
   22CHL1    C3 2735   2.173   2.001   6.295
   22CHL1    H3 2736   2.253   2.069   6.258
   22CHL1    O3 2737   2.170   1.989   6.435
   22CHL1   H3' 2738   2.145   1.896   6.437
   22CHL1    C4 2739   2.048   2.049   6.230
   22CHL1   H4A 2740   1.963   1.986   6.264
   22CHL1   H4B 2741   2.018   2.148   6.270
   22CHL1    C5 2742   2.047   2.042   6.079
   22CHL1    C6 2743   2.017   2.144   6.002
   22CHL1    H6 2744   1.984   2.237   6.049
   22CHL1    C7 2745   2.006   2.154   5.851
   22CHL1   H7A 2746   1.916   2.201   5.805
   22CHL1   H7B 2747   2.086   2.216   5.806
   22CHL1    C8 2748   2.021   2.014   5.792
   22CHL1    H8 2749   1.920   1.971   5.806
   22CHL1   C14 2750   2.066   2.020   5.643
   22CHL1   H14 2751   2.170   2.057   5.635
   22CHL1   C15 2752   1.979   2.117   5.554
   22CHL1  H15A 2753   1.873   2.101   5.584
   22CHL1  H15B 2754   2.013   2.222   5.558
   22CHL1   C16 2755   2.003   2.061   5.413
   22CHL1  H16A 2756   1.908   2.030   5.364
   22CHL1  H16B 2757   2.038   2.143   5.346
   22CHL1   C17 2758   2.098   1.939   5.428
   22CHL1   H17 2759   2.200   1.983   5.431
   22CHL1   C13 2760   2.076   1.886   5.570
   22CHL1   C18 2761   1.947   1.807   5.581
   22CHL1  H18A 2762   1.925   1.772   5.684
   22CHL1  H18B 2763   1.858   1.864   5.547
   22CHL1  H18C 2764   1.953   1.719   5.514
   22CHL1   C12 2765   2.194   1.814   5.638
   22CHL1  H12A 2766   2.213   1.715   5.590
   22CHL1  H12B 2767   2.281   1.883   5.642
   22CHL1   C11 2768   2.165   1.799   5.786
   22CHL1  H11A 2769   2.090   1.718   5.797
   22CHL1  H11B 2770   2.261   1.771   5.836
   22CHL1    C9 2771   2.118   1.929   5.863
   22CHL1    H9 2772   2.214   1.985   5.853
   22CHL1   C10 2773   2.097   1.912   6.013
   22CHL1   C19 2774   1.993   1.803   6.033
   22CHL1  H19A 2775   1.912   1.816   5.958
   22CHL1  H19B 2776   2.033   1.700   6.022
   22CHL1  H19C 2777   1.944   1.803   6.133
   22CHL1    C1 2778   2.231   1.866   6.084
   22CHL1   H1A 2779   2.256   1.762   6.054
   22CHL1   H1B 2780   2.319   1.932   6.066
   22CHL1    C2 2781   2.217   1.859   6.242
   22CHL1   H2A 2782   2.317   1.840   6.288
   22CHL1   H2B 2783   2.133   1.795   6.277
   22CHL1   C20 2784   2.109   1.841   5.312
   22CHL1   H20 2785   2.051   1.750   5.339
   22CHL1   C21 2786   2.264   1.798   5.297
   22CHL1  H21A 2787   2.308   1.775   5.396
   22CHL1  H21B 2788   2.319   1.878   5.242
   22CHL1  H21C 2789   2.264   1.712   5.227
   22CHL1   C22 2790   2.046   1.890   5.177
   22CHL1  H22A 2791   1.937   1.890   5.196
   22CHL1  H22B 2792   2.084   1.993   5.158
   22CHL1   C23 2793   2.066   1.798   5.053
   22CHL1  H23A 2794   2.174   1.798   5.025
   22CHL1  H23B 2795   2.023   1.698   5.076
   22CHL1   C24 2796   1.967   1.843   4.946
   22CHL1  H24A 2797   1.861   1.821   4.972
   22CHL1  H24B 2798   1.965   1.955   4.942
   22CHL1   C25 2799   1.997   1.769   4.813
   22CHL1   H25 2800   2.106   1.778   4.791
   22CHL1   C26 2801   1.983   1.620   4.838
   22CHL1  H26A 2802   1.886   1.607   4.890
   22CHL1  H26B 2803   1.986   1.565   4.741
   22CHL1  H26C 2804   2.068   1.584   4.900
   22CHL1   C27 2805   1.907   1.826   4.700
   22CHL1  H27A 2806   1.945   1.781   4.606
   22CHL1  H27B 2807   1.805   1.794   4.731
   22CHL1  H27C 2808   1.933   1.934   4.689
   23CHL1    C3 2809   1.027   3.240   5.880
   23CHL1    H3 2810   0.958   3.325   5.869
   23CHL1    O3 2811   1.040   3.198   6.017
   23CHL1   H3' 2812   1.089   3.266   6.064
   23CHL1    C4 2813   0.975   3.124   5.796
   23CHL1   H4A 2814   1.025   3.027   5.819
   23CHL1   H4B 2815   0.873   3.110   5.836
   23CHL1    C5 2816   0.975   3.158   5.647
   23CHL1    C6 2817   0.868   3.147   5.567
   23CHL1    H6 2818   0.772   3.116   5.611
   23CHL1    C7 2819   0.855   3.175   5.424
   23CHL1   H7A 2820   0.793   3.103   5.366
   23CHL1   H7B 2821   0.810   3.275   5.404
   23CHL1    C8 2822   0.994   3.165   5.359
   23CHL1    H8 2823   1.031   3.060   5.361
   23CHL1   C14 2824   0.984   3.219   5.215
   23CHL1   H14 2825   0.953   3.325   5.222
   23CHL1   C15 2826   0.881   3.157   5.125
   23CHL1  H15A 2827   0.871   3.046   5.125
   23CHL1  H15B 2828   0.778   3.195   5.140
   23CHL1   C16 2829   0.933   3.201   4.992
   23CHL1  H16A 2830   0.925   3.116   4.920
   23CHL1  H16B 2831   0.880   3.285   4.942
   23CHL1   C17 2832   1.071   3.263   5.007
   23CHL1   H17 2833   1.053   3.372   5.018
   23CHL1   C13 2834   1.116   3.210   5.144
   23CHL1   C18 2835   1.162   3.060   5.121
   23CHL1  H18A 2836   1.242   3.060   5.043
   23CHL1  H18B 2837   1.198   3.022   5.219
   23CHL1  H18C 2838   1.088   2.990   5.077
   23CHL1   C12 2839   1.217   3.306   5.214
   23CHL1  H12A 2840   1.321   3.285   5.183
   23CHL1  H12B 2841   1.186   3.412   5.201
   23CHL1   C11 2842   1.227   3.270   5.365
   23CHL1  H11A 2843   1.273   3.169   5.366
   23CHL1  H11B 2844   1.285   3.350   5.416
   23CHL1    C9 2845   1.092   3.252   5.435
   23CHL1    H9 2846   1.047   3.353   5.443
   23CHL1   C10 2847   1.107   3.196   5.583
   23CHL1   C19 2848   1.198   3.073   5.578
   23CHL1  H19A 2849   1.161   2.996   5.506
   23CHL1  H19B 2850   1.304   3.086   5.548
   23CHL1  H19C 2851   1.203   3.023   5.677
   23CHL1    C1 2852   1.161   3.307   5.676
   23CHL1   H1A 2853   1.266   3.332   5.651
   23CHL1   H1B 2854   1.096   3.395   5.656
   23CHL1    C2 2855   1.163   3.277   5.831
   23CHL1   H2A 2856   1.190   3.361   5.899
   23CHL1   H2B 2857   1.230   3.193   5.858
   23CHL1   C20 2858   1.157   3.243   4.883
   23CHL1   H20 2859   1.159   3.137   4.850
   23CHL1   C21 2860   1.301   3.290   4.909
   23CHL1  H21A 2861   1.351   3.229   4.988
   23CHL1  H21B 2862   1.305   3.397   4.938
   23CHL1  H21C 2863   1.360   3.278   4.815
   23CHL1   C22 2864   1.107   3.331   4.767
   23CHL1  H22A 2865   1.005   3.303   4.734
   23CHL1  H22B 2866   1.109   3.437   4.799
   23CHL1   C23 2867   1.189   3.322   4.640
   23CHL1  H23A 2868   1.295   3.354   4.647
   23CHL1  H23B 2869   1.180   3.216   4.610
   23CHL1   C24 2870   1.131   3.418   4.539
   23CHL1  H24A 2871   1.021   3.414   4.544
   23CHL1  H24B 2872   1.166   3.523   4.553
   23CHL1   C25 2873   1.171   3.392   4.387
   23CHL1   H25 2874   1.133   3.292   4.356
   23CHL1   C26 2875   1.113   3.498   4.293
   23CHL1  H26A 2876   1.003   3.507   4.305
   23CHL1  H26B 2877   1.151   3.602   4.303
   23CHL1  H26C 2878   1.137   3.461   4.191
   23CHL1   C27 2879   1.324   3.387   4.367
   23CHL1  H27A 2880   1.360   3.378   4.263
   23CHL1  H27B 2881   1.370   3.475   4.418
   23CHL1  H27C 2882   1.365   3.296   4.416
   24CHL1    C3 2883   3.073   4.649   5.835
   24CHL1    H3 2884   3.026   4.749   5.836
   24CHL1    O3 2885   3.085   4.591   5.968
   24CHL1   H3' 2886   3.166   4.623   6.007
   24CHL1    C4 2887   2.989   4.542   5.752
   24CHL1   H4A 2888   3.035   4.443   5.768
   24CHL1   H4B 2889   2.889   4.551   5.800
   24CHL1    C5 2890   2.989   4.575   5.602
   24CHL1    C6 2891   2.879   4.595   5.534
   24CHL1    H6 2892   2.784   4.598   5.590
   24CHL1    C7 2893   2.868   4.626   5.392
   24CHL1   H7A 2894   2.789   4.568   5.340
   24CHL1   H7B 2895   2.847   4.733   5.370
   24CHL1    C8 2896   2.998   4.585   5.314
   24CHL1    H8 2897   2.996   4.474   5.308
   24CHL1   C14 2898   2.993   4.637   5.177
   24CHL1   H14 2899   2.974   4.747   5.170
   24CHL1   C15 2900   2.879   4.583   5.083
   24CHL1  H15A 2901   2.874   4.473   5.098
   24CHL1  H15B 2902   2.786   4.635   5.116
   24CHL1   C16 2903   2.931   4.629   4.943
   24CHL1  H16A 2904   2.941   4.545   4.870
   24CHL1  H16B 2905   2.875   4.717   4.905
   24CHL1   C17 2906   3.076   4.681   4.964
   24CHL1   H17 2907   3.073   4.792   4.970
   24CHL1   C13 2908   3.117   4.620   5.102
   24CHL1   C18 2909   3.158   4.469   5.080
   24CHL1  H18A 2910   3.074   4.418   5.028
   24CHL1  H18B 2911   3.256   4.442   5.036
   24CHL1  H18C 2912   3.162   4.428   5.183
   24CHL1   C12 2913   3.227   4.699   5.173
   24CHL1  H12A 2914   3.323   4.707   5.118
   24CHL1  H12B 2915   3.200   4.806   5.187
   24CHL1   C11 2916   3.255   4.633   5.309
   24CHL1  H11A 2917   3.285   4.527   5.301
   24CHL1  H11B 2918   3.329   4.694   5.365
   24CHL1    C9 2919   3.120   4.643   5.392
   24CHL1    H9 2920   3.092   4.750   5.395
   24CHL1   C10 2921   3.127   4.587   5.539
   24CHL1   C19 2922   3.184   4.449   5.537
   24CHL1  H19A 2923   3.282   4.450   5.485
   24CHL1  H19B 2924   3.199   4.408   5.639
   24CHL1  H19C 2925   3.115   4.376   5.488
   24CHL1    C1 2926   3.211   4.687   5.629
   24CHL1   H1A 2927   3.312   4.684   5.582
   24CHL1   H1B 2928   3.180   4.793   5.622
   24CHL1    C2 2929   3.220   4.654   5.776
   24CHL1   H2A 2930   3.264   4.741   5.831
   24CHL1   H2B 2931   3.278   4.562   5.798
   24CHL1   C20 2932   3.167   4.651   4.845
   24CHL1   H20 2933   3.157   4.542   4.824
   24CHL1   C21 2934   3.321   4.687   4.856
   24CHL1  H21A 2935   3.366   4.620   4.932
   24CHL1  H21B 2936   3.317   4.790   4.898
   24CHL1  H21C 2937   3.372   4.679   4.758
   24CHL1   C22 2938   3.115   4.726   4.716
   24CHL1  H22A 2939   3.004   4.733   4.715
   24CHL1  H22B 2940   3.141   4.833   4.731
   24CHL1   C23 2941   3.179   4.675   4.585
   24CHL1  H23A 2942   3.286   4.707   4.588
   24CHL1  H23B 2943   3.158   4.571   4.551
   24CHL1   C24 2944   3.129   4.777   4.473
   24CHL1  H24A 2945   3.026   4.748   4.442
   24CHL1  H24B 2946   3.110   4.875   4.521
   24CHL1   C25 2947   3.206   4.777   4.339
   24CHL1   H25 2948   3.295   4.842   4.353
   24CHL1   C26 2949   3.250   4.632   4.314
   24CHL1  H26A 2950   3.163   4.563   4.312
   24CHL1  H26B 2951   3.302   4.625   4.216
   24CHL1  H26C 2952   3.320   4.594   4.391
   24CHL1   C27 2953   3.131   4.825   4.215
   24CHL1  H27A 2954   3.042   4.763   4.190
   24CHL1  H27B 2955   3.098   4.931   4.225
   24CHL1  H27C 2956   3.198   4.829   4.126
   25CHL1    C3 2957   6.227   5.267   5.978
   25CHL1    H3 2958   6.324   5.319   5.964
   25CHL1    O3 2959   6.211   5.227   6.110
   25CHL1   H3' 2960   6.232   5.134   6.104
   25CHL1    C4 2961   6.112   5.362   5.937
   25CHL1   H4A 2962   6.017   5.315   5.971
   25CHL1   H4B 2963   6.132   5.456   5.992
   25CHL1    C5 2964   6.101   5.399   5.792
   25CHL1    C6 2965   6.100   5.530   5.750
   25CHL1    H6 2966   6.107   5.615   5.819
   25CHL1    C7 2967   6.086   5.565   5.605
   25CHL1   H7A 2968   6.011   5.647   5.605
   25CHL1   H7B 2969   6.189   5.593   5.575
   25CHL1    C8 2970   6.043   5.455   5.513
   25CHL1    H8 2971   5.937   5.425   5.522
   25CHL1   C14 2972   6.067   5.493   5.368
   25CHL1   H14 2973   6.176   5.511   5.363
   25CHL1   C15 2974   6.004   5.619   5.317
   25CHL1  H15A 2975   5.899   5.636   5.349
   25CHL1  H15B 2976   6.058   5.707   5.355
   25CHL1   C16 2977   5.989   5.610   5.165
   25CHL1  H16A 2978   5.884   5.622   5.132
   25CHL1  H16B 2979   6.053   5.677   5.103
   25CHL1   C17 2980   6.050   5.467   5.131
   25CHL1   H17 2981   6.159   5.474   5.112
   25CHL1   C13 2982   6.028   5.385   5.264
   25CHL1   C18 2983   5.882   5.352   5.277
   25CHL1  H18A 2984   5.820   5.440   5.253
   25CHL1  H18B 2985   5.848   5.278   5.202
   25CHL1  H18C 2986   5.860   5.312   5.378
   25CHL1   C12 2987   6.119   5.259   5.288
   25CHL1  H12A 2988   6.081   5.175   5.226
   25CHL1  H12B 2989   6.223   5.272   5.253
   25CHL1   C11 2990   6.105   5.215   5.435
   25CHL1  H11A 2991   6.002   5.175   5.450
   25CHL1  H11B 2992   6.174   5.129   5.438
   25CHL1    C9 2993   6.127   5.327   5.542
   25CHL1    H9 2994   6.232   5.363   5.536
   25CHL1   C10 2995   6.110   5.275   5.692
   25CHL1   C19 2996   5.972   5.208   5.710
   25CHL1  H19A 2997   5.962   5.189   5.819
   25CHL1  H19B 2998   5.891   5.276   5.674
   25CHL1  H19C 2999   5.972   5.111   5.656
   25CHL1    C1 3000   6.220   5.177   5.736
   25CHL1   H1A 3001   6.207   5.082   5.679
   25CHL1   H1B 3002   6.316   5.230   5.716
   25CHL1    C2 3003   6.221   5.143   5.887
   25CHL1   H2A 3004   6.317   5.088   5.896
   25CHL1   H2B 3005   6.130   5.082   5.908
   25CHL1   C20 3006   5.995   5.415   4.997
   25CHL1   H20 3007   5.886   5.416   5.020
   25CHL1   C21 3008   6.049   5.271   4.974
   25CHL1  H21A 3009   6.011   5.200   5.051
   25CHL1  H21B 3010   6.159   5.285   4.970
   25CHL1  H21C 3011   6.021   5.236   4.872
   25CHL1   C22 3012   6.009   5.504   4.874
   25CHL1  H22A 3013   5.955   5.449   4.794
   25CHL1  H22B 3014   5.951   5.598   4.886
   25CHL1   C23 3015   6.154   5.544   4.831
   25CHL1  H23A 3016   6.185   5.631   4.892
   25CHL1  H23B 3017   6.223   5.459   4.851
   25CHL1   C24 3018   6.167   5.576   4.681
   25CHL1  H24A 3019   6.088   5.516   4.631
   25CHL1  H24B 3020   6.130   5.675   4.648
   25CHL1   C25 3021   6.297   5.562   4.605
   25CHL1   H25 3022   6.378   5.629   4.640
   25CHL1   C26 3023   6.350   5.414   4.603
   25CHL1  H26A 3024   6.280   5.343   4.555
   25CHL1  H26B 3025   6.443   5.409   4.542
   25CHL1  H26C 3026   6.363   5.398   4.712
   25CHL1   C27 3027   6.276   5.614   4.468
   25CHL1  H27A 3028   6.208   5.551   4.407
   25CHL1  H27B 3029   6.240   5.719   4.474
   25CHL1  H27C 3030   6.372   5.601   4.412
   26CHL1    C3 3031   4.105   2.806   6.311
   26CHL1    H3 3032   4.195   2.810   6.246
   26CHL1    O3 3033   4.135   2.772   6.444
   26CHL1   H3' 3034   4.060   2.806   6.493
   26CHL1    C4 3035   4.032   2.947   6.301
   26CHL1   H4A 3036   3.934   2.922   6.345
   26CHL1   H4B 3037   4.082   3.022   6.366
   26CHL1    C5 3038   4.015   2.982   6.156
   26CHL1    C6 3039   4.071   3.091   6.107
   26CHL1    H6 3040   4.129   3.163   6.168
   26CHL1    C7 3041   4.052   3.135   5.964
   26CHL1   H7A 3042   4.036   3.243   5.940
   26CHL1   H7B 3043   4.144   3.117   5.904
   26CHL1    C8 3044   3.933   3.067   5.894
   26CHL1    H8 3045   3.843   3.117   5.936
   26CHL1   C14 3046   3.935   3.089   5.747
   26CHL1   H14 3047   4.025   3.034   5.711
   26CHL1   C15 3048   3.964   3.229   5.701
   26CHL1  H15A 3049   3.887   3.288   5.756
   26CHL1  H15B 3050   4.063   3.271   5.729
   26CHL1   C16 3051   3.931   3.225   5.555
   26CHL1  H16A 3052   3.857   3.304   5.530
   26CHL1  H16B 3053   4.024   3.240   5.495
   26CHL1   C17 3054   3.871   3.085   5.520
   26CHL1   H17 3055   3.956   3.016   5.505
   26CHL1   C13 3056   3.826   3.032   5.662
   26CHL1   C18 3057   3.689   3.088   5.704
   26CHL1  H18A 3058   3.612   3.047   5.635
   26CHL1  H18B 3059   3.661   3.063   5.809
   26CHL1  H18C 3060   3.691   3.199   5.706
   26CHL1   C12 3061   3.822   2.880   5.685
   26CHL1  H12A 3062   3.726   2.835   5.650
   26CHL1  H12B 3063   3.907   2.830   5.634
   26CHL1   C11 3064   3.813   2.845   5.836
   26CHL1  H11A 3065   3.716   2.876   5.879
   26CHL1  H11B 3066   3.841   2.739   5.854
   26CHL1    C9 3067   3.930   2.913   5.922
   26CHL1    H9 3068   4.030   2.878   5.892
   26CHL1   C10 3069   3.924   2.881   6.076
   26CHL1   C19 3070   3.778   2.903   6.126
   26CHL1  H19A 3071   3.751   3.005   6.090
   26CHL1  H19B 3072   3.707   2.830   6.080
   26CHL1  H19C 3073   3.772   2.923   6.235
   26CHL1    C1 3074   3.975   2.736   6.105
   26CHL1   H1A 3075   3.894   2.665   6.078
   26CHL1   H1B 3076   4.063   2.712   6.042
   26CHL1    C2 3077   4.009   2.703   6.254
   26CHL1   H2A 3078   4.054   2.602   6.265
   26CHL1   H2B 3079   3.917   2.714   6.314
   26CHL1   C20 3080   3.780   3.090   5.404
   26CHL1   H20 3081   3.689   3.143   5.439
   26CHL1   C21 3082   3.739   2.948   5.376
   26CHL1  H21A 3083   3.681   2.899   5.458
   26CHL1  H21B 3084   3.832   2.893   5.352
   26CHL1  H21C 3085   3.680   2.938   5.282
   26CHL1   C22 3086   3.829   3.175   5.286
   26CHL1  H22A 3087   3.840   3.280   5.321
   26CHL1  H22B 3088   3.928   3.134   5.258
   26CHL1   C23 3089   3.751   3.172   5.151
   26CHL1  H23A 3090   3.751   3.064   5.128
   26CHL1  H23B 3091   3.645   3.204   5.161
   26CHL1   C24 3092   3.816   3.254   5.038
   26CHL1  H24A 3093   3.798   3.362   5.057
   26CHL1  H24B 3094   3.925   3.235   5.033
   26CHL1   C25 3095   3.772   3.199   4.902
   26CHL1   H25 3096   3.818   3.099   4.887
   26CHL1   C26 3097   3.623   3.170   4.876
   26CHL1  H26A 3098   3.570   3.265   4.898
   26CHL1  H26B 3099   3.614   3.133   4.771
   26CHL1  H26C 3100   3.582   3.084   4.934
   26CHL1   C27 3101   3.837   3.291   4.799
   26CHL1  H27A 3102   3.947   3.283   4.797
   26CHL1  H27B 3103   3.811   3.267   4.693
   26CHL1  H27C 3104   3.831   3.399   4.825
   27CHL1    C3 3105   0.631   2.034   6.099
   27CHL1    H3 3106   0.601   1.929   6.080
   27CHL1    O3 3107   0.632   2.055   6.234
   27CHL1   H3' 3108   0.633   1.969   6.276
   27CHL1    C4 3109   0.781   2.065   6.058
   27CHL1   H4A 3110   0.805   2.172   6.076
   27CHL1   H4B 3111   0.847   2.010   6.128
   27CHL1    C5 3112   0.804   2.038   5.912
   27CHL1    C6 3113   0.897   1.961   5.862
   27CHL1    H6 3114   0.956   1.905   5.936
   27CHL1    C7 3115   0.910   1.937   5.715
   27CHL1   H7A 3116   1.018   1.949   5.692
   27CHL1   H7B 3117   0.866   1.837   5.691
   27CHL1    C8 3118   0.838   2.042   5.624
   27CHL1    H8 3119   0.889   2.140   5.639
   27CHL1   C14 3120   0.838   2.010   5.470
   27CHL1   H14 3121   0.774   1.919   5.469
   27CHL1   C15 3122   0.968   1.969   5.406
   27CHL1  H15A 3123   1.047   2.036   5.445
   27CHL1  H15B 3124   0.998   1.864   5.424
   27CHL1   C16 3125   0.945   2.000   5.257
   27CHL1  H16A 3126   1.010   2.086   5.230
   27CHL1  H16B 3127   0.970   1.910   5.197
   27CHL1   C17 3128   0.794   2.049   5.239
   27CHL1   H17 3129   0.722   1.964   5.236
   27CHL1   C13 3130   0.763   2.109   5.384
   27CHL1   C18 3131   0.831   2.247   5.390
   27CHL1  H18A 3132   0.786   2.330   5.331
   27CHL1  H18B 3133   0.822   2.285   5.494
   27CHL1  H18C 3134   0.940   2.237   5.369
   27CHL1   C12 3135   0.621   2.117   5.429
   27CHL1  H12A 3136   0.570   2.194   5.368
   27CHL1  H12B 3137   0.564   2.025   5.403
   27CHL1   C11 3138   0.606   2.143   5.582
   27CHL1  H11A 3139   0.618   2.253   5.590
   27CHL1  H11B 3140   0.502   2.121   5.617
   27CHL1    C9 3141   0.697   2.062   5.678
   27CHL1    H9 3142   0.641   1.966   5.687
   27CHL1   C10 3143   0.700   2.117   5.825
   27CHL1   C19 3144   0.748   2.270   5.825
   27CHL1  H19A 3145   0.731   2.300   5.931
   27CHL1  H19B 3146   0.854   2.275   5.790
   27CHL1  H19C 3147   0.683   2.332   5.760
   27CHL1    C1 3148   0.553   2.121   5.878
   27CHL1   H1A 3149   0.511   2.214   5.835
   27CHL1   H1B 3150   0.506   2.029   5.838
   27CHL1    C2 3151   0.533   2.127   6.031
   27CHL1   H2A 3152   0.434   2.087   6.062
   27CHL1   H2B 3153   0.535   2.234   6.062
   27CHL1   C20 3154   0.776   2.123   5.107
   27CHL1   H20 3155   0.843   2.212   5.110
   27CHL1   C21 3156   0.625   2.166   5.084
   27CHL1  H21A 3157   0.567   2.072   5.084
   27CHL1  H21B 3158   0.603   2.204   4.982
   27CHL1  H21C 3159   0.588   2.240   5.159
   27CHL1   C22 3160   0.812   2.022   4.991
   27CHL1  H22A 3161   0.917   1.991   5.005
   27CHL1  H22B 3162   0.746   1.933   4.993
   27CHL1   C23 3163   0.799   2.083   4.847
   27CHL1  H23A 3164   0.690   2.090   4.828
   27CHL1  H23B 3165   0.832   2.189   4.842
   27CHL1   C24 3166   0.851   1.997   4.728
   27CHL1  H24A 3167   0.824   1.890   4.740
   27CHL1  H24B 3168   0.804   2.035   4.634
   27CHL1   C25 3169   1.000   1.973   4.715
   27CHL1   H25 3170   1.032   1.918   4.807
   27CHL1   C26 3171   1.027   1.885   4.595
   27CHL1  H26A 3172   0.969   1.791   4.606
   27CHL1  H26B 3173   1.008   1.938   4.499
   27CHL1  H26C 3174   1.132   1.851   4.606
   27CHL1   C27 3175   1.070   2.106   4.708
   27CHL1  H27A 3176   1.046   2.161   4.801
   27CHL1  H27B 3177   1.020   2.176   4.637
   27CHL1  H27C 3178   1.180   2.114   4.700
   28CHL1    C3 3179   5.682   1.966   6.313
   28CHL1    H3 3180   5.789   1.996   6.304
   28CHL1    O3 3181   5.654   1.993   6.447
   28CHL1   H3' 3182   5.573   1.946   6.470
   28CHL1    C4 3183   5.588   2.043   6.219
   28CHL1   H4A 3184   5.490   1.992   6.231
   28CHL1   H4B 3185   5.575   2.150   6.246
   28CHL1    C5 3186   5.633   2.035   6.076
   28CHL1    C6 3187   5.673   2.138   5.997
   28CHL1    H6 3188   5.692   2.243   6.024
   28CHL1    C7 3189   5.709   2.118   5.856
   28CHL1   H7A 3190   5.668   2.194   5.786
   28CHL1   H7B 3191   5.818   2.130   5.840
   28CHL1    C8 3192   5.669   1.980   5.798
   28CHL1    H8 3193   5.561   1.991   5.775
   28CHL1   C14 3194   5.745   1.954   5.667
   28CHL1   H14 3195   5.851   1.946   5.699
   28CHL1   C15 3196   5.731   2.064   5.562
   28CHL1  H15A 3197   5.626   2.098   5.548
   28CHL1  H15B 3198   5.779   2.158   5.597
   28CHL1   C16 3199   5.779   2.004   5.430
   28CHL1  H16A 3200   5.694   2.016   5.360
   28CHL1  H16B 3201   5.866   2.061   5.390
   28CHL1   C17 3202   5.805   1.850   5.467
   28CHL1   H17 3203   5.913   1.843   5.495
   28CHL1   C13 3204   5.713   1.826   5.592
   28CHL1   C18 3205   5.560   1.810   5.554
   28CHL1  H18A 3206   5.490   1.811   5.641
   28CHL1  H18B 3207   5.541   1.897   5.487
   28CHL1  H18C 3208   5.547   1.714   5.501
   28CHL1   C12 3209   5.756   1.714   5.689
   28CHL1  H12A 3210   5.724   1.611   5.661
   28CHL1  H12B 3211   5.865   1.707   5.707
   28CHL1   C11 3212   5.695   1.732   5.832
   28CHL1  H11A 3213   5.589   1.699   5.838
   28CHL1  H11B 3214   5.740   1.655   5.898
   28CHL1    C9 3215   5.697   1.875   5.892
   28CHL1    H9 3216   5.802   1.886   5.925
   28CHL1   C10 3217   5.628   1.879   6.032
   28CHL1   C19 3218   5.474   1.845   6.009
   28CHL1  H19A 3219   5.436   1.906   5.924
   28CHL1  H19B 3220   5.457   1.737   5.989
   28CHL1  H19C 3221   5.402   1.874   6.088
   28CHL1    C1 3222   5.698   1.788   6.139
   28CHL1   H1A 3223   5.674   1.684   6.108
   28CHL1   H1B 3224   5.806   1.813   6.132
   28CHL1    C2 3225   5.669   1.815   6.283
   28CHL1   H2A 3226   5.745   1.772   6.351
   28CHL1   H2B 3227   5.564   1.794   6.312
   28CHL1   C20 3228   5.789   1.750   5.348
   28CHL1   H20 3229   5.682   1.720   5.348
   28CHL1   C21 3230   5.880   1.633   5.373
   28CHL1  H21A 3231   5.988   1.657   5.378
   28CHL1  H21B 3232   5.874   1.560   5.290
   28CHL1  H21C 3233   5.850   1.566   5.457
   28CHL1   C22 3234   5.841   1.809   5.214
   28CHL1  H22A 3235   5.787   1.906   5.204
   28CHL1  H22B 3236   5.948   1.839   5.203
   28CHL1   C23 3237   5.816   1.714   5.096
   28CHL1  H23A 3238   5.898   1.638   5.097
   28CHL1  H23B 3239   5.720   1.659   5.100
   28CHL1   C24 3240   5.830   1.787   4.954
   28CHL1  H24A 3241   5.750   1.863   4.943
   28CHL1  H24B 3242   5.917   1.856   4.956
   28CHL1   C25 3243   5.831   1.697   4.826
   28CHL1   H25 3244   5.899   1.611   4.847
   28CHL1   C26 3245   5.699   1.631   4.801
   28CHL1  H26A 3246   5.722   1.553   4.726
   28CHL1  H26B 3247   5.658   1.582   4.892
   28CHL1  H26C 3248   5.624   1.710   4.779
   28CHL1   C27 3249   5.879   1.775   4.705
   28CHL1  H27A 3250   5.814   1.864   4.686
   28CHL1  H27B 3251   5.986   1.802   4.707
   28CHL1  H27C 3252   5.876   1.708   4.616
   29CHL1    C3 3253   2.506   3.643   6.269
   29CHL1    H3 3254   2.600   3.700   6.255
   29CHL1    O3 3255   2.485   3.630   6.410
   29CHL1   H3' 3256   2.512   3.717   6.439
   29CHL1    C4 3257   2.394   3.731   6.197
   29CHL1   H4A 3258   2.290   3.699   6.214
   29CHL1   H4B 3259   2.401   3.834   6.237
   29CHL1    C5 3260   2.416   3.734   6.048
   29CHL1    C6 3261   2.418   3.851   5.983
   29CHL1    H6 3262   2.407   3.943   6.042
   29CHL1    C7 3263   2.423   3.869   5.836
   29CHL1   H7A 3264   2.352   3.951   5.812
   29CHL1   H7B 3265   2.525   3.899   5.804
   29CHL1    C8 3266   2.380   3.740   5.763
   29CHL1    H8 3267   2.270   3.727   5.774
   29CHL1   C14 3268   2.409   3.753   5.614
   29CHL1   H14 3269   2.520   3.759   5.612
   29CHL1   C15 3270   2.357   3.873   5.545
   29CHL1  H15A 3271   2.251   3.890   5.573
   29CHL1  H15B 3272   2.413   3.965   5.576
   29CHL1   C16 3273   2.365   3.830   5.395
   29CHL1  H16A 3274   2.273   3.863   5.342
   29CHL1  H16B 3275   2.449   3.889   5.352
   29CHL1   C17 3276   2.405   3.675   5.389
   29CHL1   H17 3277   2.515   3.672   5.398
   29CHL1   C13 3278   2.368   3.631   5.534
   29CHL1   C18 3279   2.216   3.607   5.538
   29CHL1  H18A 3280   2.204   3.574   5.643
   29CHL1  H18B 3281   2.148   3.692   5.516
   29CHL1  H18C 3282   2.195   3.517   5.477
   29CHL1   C12 3283   2.446   3.508   5.589
   29CHL1  H12A 3284   2.424   3.410   5.542
   29CHL1  H12B 3285   2.554   3.522   5.564
   29CHL1   C11 3286   2.425   3.483   5.742
   29CHL1  H11A 3287   2.323   3.443   5.760
   29CHL1  H11B 3288   2.492   3.400   5.774
   29CHL1    C9 3289   2.450   3.611   5.823
   29CHL1    H9 3290   2.554   3.639   5.797
   29CHL1   C10 3291   2.426   3.589   5.976
   29CHL1   C19 3292   2.293   3.511   6.001
   29CHL1  H19A 3293   2.301   3.409   5.959
   29CHL1  H19B 3294   2.262   3.509   6.107
   29CHL1  H19C 3295   2.213   3.568   5.948
   29CHL1    C1 3296   2.537   3.509   6.048
   29CHL1   H1A 3297   2.544   3.407   6.005
   29CHL1   H1B 3298   2.630   3.565   6.024
   29CHL1    C2 3299   2.521   3.505   6.207
   29CHL1   H2A 3300   2.622   3.472   6.240
   29CHL1   H2B 3301   2.441   3.438   6.244
   29CHL1   C20 3302   2.355   3.600   5.273
   29CHL1   H20 3303   2.326   3.498   5.307
   29CHL1   C21 3304   2.467   3.580   5.169
   29CHL1  H21A 3305   2.510   3.675   5.131
   29CHL1  H21B 3306   2.428   3.529   5.078
   29CHL1  H21C 3307   2.543   3.506   5.205
   29CHL1   C22 3308   2.223   3.646   5.208
   29CHL1  H22A 3309   2.152   3.667   5.291
   29CHL1  H22B 3310   2.242   3.745   5.162
   29CHL1   C23 3311   2.150   3.552   5.110
   29CHL1  H23A 3312   2.222   3.522   5.031
   29CHL1  H23B 3313   2.133   3.454   5.160
   29CHL1   C24 3314   2.036   3.620   5.036
   29CHL1  H24A 3315   1.948   3.611   5.103
   29CHL1  H24B 3316   2.056   3.729   5.029
   29CHL1   C25 3317   1.997   3.557   4.904
   29CHL1   H25 3318   1.972   3.451   4.922
   29CHL1   C26 3319   1.876   3.622   4.841
   29CHL1  H26A 3320   1.902   3.715   4.786
   29CHL1  H26B 3321   1.828   3.545   4.777
   29CHL1  H26C 3322   1.806   3.645   4.924
   29CHL1   C27 3323   2.103   3.564   4.801
   29CHL1  H27A 3324   2.147   3.664   4.777
   29CHL1  H27B 3325   2.186   3.498   4.834
   29CHL1  H27C 3326   2.059   3.519   4.710
   30CHL1    C3 3327   3.045   3.777   6.144
   30CHL1    H3 3328   3.046   3.884   6.112
   30CHL1    O3 3329   3.030   3.791   6.289
   30CHL1   H3' 3330   2.943   3.831   6.288
   30CHL1    C4 3331   2.919   3.708   6.093
   30CHL1   H4A 3332   2.924   3.607   6.141
   30CHL1   H4B 3333   2.828   3.760   6.128
   30CHL1    C5 3334   2.918   3.696   5.939
   30CHL1    C6 3335   2.819   3.751   5.868
   30CHL1    H6 3336   2.747   3.810   5.925
   30CHL1    C7 3337   2.827   3.755   5.718
   30CHL1   H7A 3338   2.728   3.728   5.673
   30CHL1   H7B 3339   2.857   3.856   5.682
   30CHL1    C8 3340   2.914   3.652   5.658
   30CHL1    H8 3341   2.867   3.552   5.648
   30CHL1   C14 3342   2.937   3.698   5.513
   30CHL1   H14 3343   2.990   3.795   5.512
   30CHL1   C15 3344   2.812   3.738   5.423
   30CHL1  H15A 3345   2.731   3.664   5.436
   30CHL1  H15B 3346   2.780   3.844   5.434
   30CHL1   C16 3347   2.876   3.713   5.283
   30CHL1  H16A 3348   2.808   3.641   5.232
   30CHL1  H16B 3349   2.861   3.806   5.223
   30CHL1   C17 3350   3.026   3.678   5.295
   30CHL1   H17 3351   3.079   3.773   5.314
   30CHL1   C13 3352   3.030   3.606   5.434
   30CHL1   C18 3353   2.971   3.461   5.415
   30CHL1  H18A 3354   2.865   3.454   5.383
   30CHL1  H18B 3355   3.036   3.399   5.349
   30CHL1  H18C 3356   2.964   3.401   5.508
   30CHL1   C12 3357   3.166   3.609   5.510
   30CHL1  H12A 3358   3.229   3.536   5.454
   30CHL1  H12B 3359   3.219   3.706   5.503
   30CHL1   C11 3360   3.153   3.567   5.658
   30CHL1  H11A 3361   3.113   3.464   5.651
   30CHL1  H11B 3362   3.246   3.576   5.718
   30CHL1    C9 3363   3.047   3.649   5.736
   30CHL1    H9 3364   3.084   3.753   5.724
   30CHL1   C10 3365   3.035   3.618   5.880
   30CHL1   C19 3366   3.000   3.469   5.899
   30CHL1  H19A 3367   2.984   3.441   6.006
   30CHL1  H19B 3368   2.906   3.452   5.843
   30CHL1  H19C 3369   3.086   3.411   5.858
   30CHL1    C1 3370   3.168   3.658   5.947
   30CHL1   H1A 3371   3.238   3.574   5.928
   30CHL1   H1B 3372   3.202   3.753   5.900
   30CHL1    C2 3373   3.164   3.688   6.101
   30CHL1   H2A 3374   3.251   3.721   6.160
   30CHL1   H2B 3375   3.145   3.588   6.145
   30CHL1   C20 3376   3.089   3.628   5.169
   30CHL1   H20 3377   3.024   3.545   5.131
   30CHL1   C21 3378   3.235   3.579   5.185
   30CHL1  H21A 3379   3.293   3.667   5.223
   30CHL1  H21B 3380   3.284   3.536   5.095
   30CHL1  H21C 3381   3.236   3.494   5.257
   30CHL1   C22 3382   3.086   3.742   5.066
   30CHL1  H22A 3383   2.985   3.787   5.063
   30CHL1  H22B 3384   3.143   3.826   5.109
   30CHL1   C23 3385   3.149   3.716   4.931
   30CHL1  H23A 3386   3.137   3.812   4.876
   30CHL1  H23B 3387   3.259   3.710   4.941
   30CHL1   C24 3388   3.084   3.590   4.859
   30CHL1  H24A 3389   3.116   3.503   4.919
   30CHL1  H24B 3390   2.976   3.612   4.849
   30CHL1   C25 3391   3.149   3.562   4.718
   30CHL1   H25 3392   3.259   3.551   4.731
   30CHL1   C26 3393   3.104   3.425   4.665
   30CHL1  H26A 3394   3.133   3.350   4.742
   30CHL1  H26B 3395   2.994   3.413   4.664
   30CHL1  H26C 3396   3.151   3.391   4.570
   30CHL1   C27 3397   3.121   3.667   4.604
   30CHL1  H27A 3398   3.159   3.766   4.635
   30CHL1  H27B 3399   3.175   3.646   4.510
   30CHL1  H27C 3400   3.013   3.672   4.577
   31CHL1    C3 3401   1.773   4.080   6.050
   31CHL1    H3 3402   1.672   4.122   6.034
   31CHL1    O3 3403   1.791   4.073   6.191
   31CHL1   H3' 3404   1.880   4.038   6.201
   31CHL1    C4 3405   1.790   3.935   5.989
   31CHL1   H4A 3406   1.881   3.888   6.031
   31CHL1   H4B 3407   1.704   3.882   6.033
   31CHL1    C5 3408   1.790   3.939   5.836
   31CHL1    C6 3409   1.712   3.858   5.763
   31CHL1    H6 3410   1.648   3.785   5.815
   31CHL1    C7 3411   1.696   3.868   5.613
   31CHL1   H7A 3412   1.689   3.771   5.559
   31CHL1   H7B 3413   1.603   3.918   5.579
   31CHL1    C8 3414   1.814   3.938   5.542
   31CHL1    H8 3415   1.897   3.866   5.535
   31CHL1   C14 3416   1.767   3.976   5.405
   31CHL1   H14 3417   1.681   4.045   5.404
   31CHL1   C15 3418   1.719   3.857   5.311
   31CHL1  H15A 3419   1.797   3.779   5.306
   31CHL1  H15B 3420   1.627   3.804   5.343
   31CHL1   C16 3421   1.714   3.918   5.172
   31CHL1  H16A 3422   1.743   3.839   5.099
   31CHL1  H16B 3423   1.614   3.954   5.141
   31CHL1   C17 3424   1.798   4.050   5.184
   31CHL1   H17 3425   1.726   4.133   5.198
   31CHL1   C13 3426   1.873   4.051   5.318
   31CHL1   C18 3427   1.998   3.963   5.301
   31CHL1  H18A 3428   2.082   4.007   5.244
   31CHL1  H18B 3429   2.035   3.919   5.396
   31CHL1  H18C 3430   1.966   3.883   5.231
   31CHL1   C12 3431   1.884   4.183   5.397
   31CHL1  H12A 3432   1.940   4.264   5.345
   31CHL1  H12B 3433   1.780   4.221   5.401
   31CHL1   C11 3434   1.944   4.158   5.537
   31CHL1  H11A 3435   2.047   4.115   5.531
   31CHL1  H11B 3436   1.953   4.259   5.583
   31CHL1    C9 3437   1.850   4.065   5.616
   31CHL1    H9 3438   1.752   4.118   5.614
   31CHL1   C10 3439   1.877   4.047   5.769
   31CHL1   C19 3440   2.021   3.992   5.779
   31CHL1  H19A 3441   2.106   4.056   5.746
   31CHL1  H19B 3442   2.038   3.972   5.887
   31CHL1  H19C 3443   2.038   3.891   5.736
   31CHL1    C1 3444   1.865   4.181   5.841
   31CHL1   H1A 3445   1.935   4.252   5.793
   31CHL1   H1B 3446   1.762   4.220   5.823
   31CHL1    C2 3447   1.882   4.171   5.995
   31CHL1   H2A 3448   1.868   4.271   6.042
   31CHL1   H2B 3449   1.987   4.140   6.014
   31CHL1   C20 3450   1.877   4.082   5.056
   31CHL1   H20 3451   1.937   3.992   5.029
   31CHL1   C21 3452   1.957   4.213   5.075
   31CHL1  H21A 3453   1.878   4.290   5.086
   31CHL1  H21B 3454   2.033   4.231   4.995
   31CHL1  H21C 3455   2.013   4.209   5.171
   31CHL1   C22 3456   1.783   4.109   4.932
   31CHL1  H22A 3457   1.674   4.109   4.949
   31CHL1  H22B 3458   1.814   4.205   4.883
   31CHL1   C23 3459   1.818   4.010   4.820
   31CHL1  H23A 3460   1.926   4.021   4.797
   31CHL1  H23B 3461   1.809   3.907   4.861
   31CHL1   C24 3462   1.726   4.022   4.696
   31CHL1  H24A 3463   1.744   3.924   4.647
   31CHL1  H24B 3464   1.617   4.025   4.716
   31CHL1   C25 3465   1.772   4.140   4.608
   31CHL1   H25 3466   1.756   4.236   4.663
   31CHL1   C26 3467   1.925   4.139   4.569
   31CHL1  H26A 3468   1.967   4.048   4.521
   31CHL1  H26B 3469   1.940   4.231   4.508
   31CHL1  H26C 3470   1.989   4.162   4.657
   31CHL1   C27 3471   1.685   4.146   4.489
   31CHL1  H27A 3472   1.581   4.151   4.526
   31CHL1  H27B 3473   1.691   4.242   4.435
   31CHL1  H27C 3474   1.714   4.057   4.429
   32CHL1    C3 3475   2.566   2.137   6.167
   32CHL1    H3 3476   2.505   2.046   6.152
   32CHL1    O3 3477   2.593   2.166   6.305
   32CHL1   H3' 3478   2.510   2.187   6.348
   32CHL1    C4 3479   2.689   2.122   6.078
   32CHL1   H4A 3480   2.764   2.203   6.089
   32CHL1   H4B 3481   2.734   2.025   6.109
   32CHL1    C5 3482   2.652   2.121   5.929
   32CHL1    C6 3483   2.693   2.021   5.849
   32CHL1    H6 3484   2.751   1.939   5.894
   32CHL1    C7 3485   2.654   2.004   5.701
   32CHL1   H7A 3486   2.733   1.946   5.649
   32CHL1   H7B 3487   2.569   1.932   5.708
   32CHL1    C8 3488   2.606   2.136   5.643
   32CHL1    H8 3489   2.694   2.203   5.635
   32CHL1   C14 3490   2.539   2.111   5.504
   32CHL1   H14 3491   2.453   2.044   5.526
   32CHL1   C15 3492   2.625   2.043   5.393
   32CHL1  H15A 3493   2.712   2.111   5.385
   32CHL1  H15B 3494   2.641   1.937   5.419
   32CHL1   C16 3495   2.543   2.068   5.263
   32CHL1  H16A 3496   2.609   2.124   5.195
   32CHL1  H16B 3497   2.513   1.967   5.228
   32CHL1   C17 3498   2.430   2.169   5.306
   32CHL1   H17 3499   2.335   2.113   5.322
   32CHL1   C13 3500   2.469   2.230   5.443
   32CHL1   C18 3501   2.580   2.338   5.409
   32CHL1  H18A 3502   2.532   2.438   5.403
   32CHL1  H18B 3503   2.651   2.327   5.494
   32CHL1  H18C 3504   2.653   2.319   5.327
   32CHL1   C12 3505   2.361   2.281   5.535
   32CHL1  H12A 3506   2.319   2.377   5.498
   32CHL1  H12B 3507   2.274   2.213   5.537
   32CHL1   C11 3508   2.426   2.318   5.672
   32CHL1  H11A 3509   2.497   2.399   5.647
   32CHL1  H11B 3510   2.346   2.366   5.732
   32CHL1    C9 3511   2.506   2.199   5.738
   32CHL1    H9 3512   2.424   2.126   5.751
   32CHL1   C10 3513   2.560   2.234   5.872
   32CHL1   C19 3514   2.646   2.360   5.863
   32CHL1  H19A 3515   2.713   2.368   5.775
   32CHL1  H19B 3516   2.577   2.448   5.861
   32CHL1  H19C 3517   2.705   2.382   5.954
   32CHL1    C1 3518   2.445   2.260   5.973
   32CHL1   H1A 3519   2.382   2.350   5.953
   32CHL1   H1B 3520   2.379   2.172   5.957
   32CHL1    C2 3521   2.488   2.263   6.121
   32CHL1   H2A 3522   2.402   2.287   6.186
   32CHL1   H2B 3523   2.555   2.351   6.136
   32CHL1   C20 3524   2.396   2.274   5.190
   32CHL1   H20 3525   2.485   2.337   5.171
   32CHL1   C21 3526   2.261   2.353   5.221
   32CHL1  H21A 3527   2.257   2.420   5.309
   32CHL1  H21B 3528   2.177   2.280   5.212
   32CHL1  H21C 3529   2.247   2.426   5.139
   32CHL1   C22 3530   2.367   2.207   5.050
   32CHL1  H22A 3531   2.401   2.101   5.044
   32CHL1  H22B 3532   2.260   2.213   5.022
   32CHL1   C23 3533   2.433   2.290   4.928
   32CHL1  H23A 3534   2.389   2.392   4.926
   32CHL1  H23B 3535   2.537   2.303   4.965
   32CHL1   C24 3536   2.422   2.223   4.789
   32CHL1  H24A 3537   2.464   2.288   4.710
   32CHL1  H24B 3538   2.481   2.129   4.778
   32CHL1   C25 3539   2.279   2.195   4.746
   32CHL1   H25 3540   2.234   2.131   4.826
   32CHL1   C26 3541   2.203   2.335   4.727
   32CHL1  H26A 3542   2.103   2.308   4.687
   32CHL1  H26B 3543   2.190   2.389   4.823
   32CHL1  H26C 3544   2.249   2.395   4.645
   32CHL1   C27 3545   2.268   2.112   4.619
   32CHL1  H27A 3546   2.302   2.174   4.533
   32CHL1  H27B 3547   2.332   2.021   4.616
   32CHL1  H27C 3548   2.162   2.079   4.608
   33CHL1    C3 3549   0.874   1.326   5.917
   33CHL1    H3 3550   0.970   1.378   5.900
   33CHL1    O3 3551   0.873   1.304   6.055
   33CHL1   H3' 3552   0.942   1.237   6.067
   33CHL1    C4 3553   0.751   1.418   5.880
   33CHL1   H4A 3554   0.655   1.368   5.903
   33CHL1   H4B 3555   0.758   1.506   5.947
   33CHL1    C5 3556   0.762   1.440   5.730
   33CHL1    C6 3557   0.786   1.560   5.683
   33CHL1    H6 3558   0.793   1.642   5.757
   33CHL1    C7 3559   0.813   1.598   5.539
   33CHL1   H7A 3560   0.744   1.684   5.525
   33CHL1   H7B 3561   0.919   1.629   5.523
   33CHL1    C8 3562   0.772   1.486   5.441
   33CHL1    H8 3563   0.661   1.495   5.442
   33CHL1   C14 3564   0.819   1.524   5.296
   33CHL1   H14 3565   0.930   1.530   5.299
   33CHL1   C15 3566   0.793   1.669   5.244
   33CHL1  H15A 3567   0.687   1.701   5.252
   33CHL1  H15B 3568   0.858   1.745   5.292
   33CHL1   C16 3569   0.838   1.645   5.098
   33CHL1  H16A 3570   0.764   1.687   5.027
   33CHL1  H16B 3571   0.935   1.696   5.083
   33CHL1   C17 3572   0.841   1.491   5.062
   33CHL1   H17 3573   0.949   1.466   5.065
   33CHL1   C13 3574   0.779   1.420   5.187
   33CHL1   C18 3575   0.624   1.425   5.168
   33CHL1  H18A 3576   0.593   1.330   5.121
   33CHL1  H18B 3577   0.563   1.431   5.261
   33CHL1  H18C 3578   0.589   1.512   5.108
   33CHL1   C12 3579   0.828   1.279   5.239
   33CHL1  H12A 3580   0.787   1.204   5.168
   33CHL1  H12B 3581   0.939   1.275   5.230
   33CHL1   C11 3582   0.788   1.234   5.377
   33CHL1  H11A 3583   0.680   1.206   5.375
   33CHL1  H11B 3584   0.832   1.134   5.402
   33CHL1    C9 3585   0.822   1.349   5.484
   33CHL1    H9 3586   0.933   1.352   5.479
   33CHL1   C10 3587   0.768   1.318   5.634
   33CHL1   C19 3588   0.625   1.254   5.629
   33CHL1  H19A 3589   0.556   1.321   5.573
   33CHL1  H19B 3590   0.624   1.159   5.572
   33CHL1  H19C 3591   0.597   1.231   5.734
   33CHL1    C1 3592   0.871   1.213   5.695
   33CHL1   H1A 3593   0.847   1.113   5.651
   33CHL1   H1B 3594   0.980   1.231   5.677
   33CHL1    C2 3595   0.857   1.187   5.847
   33CHL1   H2A 3596   0.934   1.113   5.876
   33CHL1   H2B 3597   0.762   1.137   5.877
   33CHL1   C20 3598   0.798   1.458   4.925
   33CHL1   H20 3599   0.688   1.472   4.915
   33CHL1   C21 3600   0.821   1.305   4.897
   33CHL1  H21A 3601   0.785   1.292   4.792
   33CHL1  H21B 3602   0.758   1.246   4.967
   33CHL1  H21C 3603   0.925   1.267   4.903
   33CHL1   C22 3604   0.868   1.553   4.812
   33CHL1  H22A 3605   0.834   1.658   4.823
   33CHL1  H22B 3606   0.975   1.546   4.842
   33CHL1   C23 3607   0.849   1.508   4.668
   33CHL1  H23A 3608   0.923   1.566   4.609
   33CHL1  H23B 3609   0.872   1.400   4.653
   33CHL1   C24 3610   0.706   1.538   4.623
   33CHL1  H24A 3611   0.629   1.494   4.690
   33CHL1  H24B 3612   0.696   1.647   4.603
   33CHL1   C25 3613   0.672   1.470   4.488
   33CHL1   H25 3614   0.680   1.360   4.496
   33CHL1   C26 3615   0.547   1.517   4.420
   33CHL1  H26A 3616   0.462   1.469   4.472
   33CHL1  H26B 3617   0.545   1.628   4.424
   33CHL1  H26C 3618   0.549   1.485   4.314
   33CHL1   C27 3619   0.789   1.502   4.397
   33CHL1  H27A 3620   0.799   1.612   4.384
   33CHL1  H27B 3621   0.883   1.458   4.438
   33CHL1  H27C 3622   0.767   1.462   4.296
   34CHL1    C3 3623   2.892   2.472   6.193
   34CHL1    H3 3624   2.792   2.445   6.155
   34CHL1    O3 3625   2.889   2.451   6.335
   34CHL1   H3' 3626   2.860   2.366   6.368
   34CHL1    C4 3627   3.000   2.373   6.134
   34CHL1   H4A 3628   3.096   2.406   6.180
   34CHL1   H4B 3629   2.972   2.278   6.185
   34CHL1    C5 3630   3.000   2.385   5.985
   34CHL1    C6 3631   2.973   2.276   5.909
   34CHL1    H6 3632   2.949   2.181   5.960
   34CHL1    C7 3633   2.980   2.282   5.755
   34CHL1   H7A 3634   3.045   2.200   5.719
   34CHL1   H7B 3635   2.879   2.271   5.710
   34CHL1    C8 3636   3.031   2.415   5.701
   34CHL1    H8 3637   3.142   2.412   5.706
   34CHL1   C14 3638   2.989   2.432   5.554
   34CHL1   H14 3639   2.878   2.438   5.555
   34CHL1   C15 3640   3.022   2.310   5.461
   34CHL1  H15A 3641   3.128   2.277   5.473
   34CHL1  H15B 3642   2.954   2.224   5.480
   34CHL1   C16 3643   3.015   2.368   5.318
   34CHL1  H16A 3644   3.106   2.343   5.260
   34CHL1  H16B 3645   2.922   2.336   5.266
   34CHL1   C17 3646   3.000   2.526   5.341
   34CHL1   H17 3647   2.889   2.535   5.337
   34CHL1   C13 3648   3.040   2.559   5.483
   34CHL1   C18 3649   3.193   2.572   5.485
   34CHL1  H18A 3650   3.245   2.506   5.412
   34CHL1  H18B 3651   3.216   2.679   5.463
   34CHL1  H18C 3652   3.227   2.550   5.588
   34CHL1   C12 3653   2.971   2.678   5.558
   34CHL1  H12A 3654   3.002   2.775   5.514
   34CHL1  H12B 3655   2.860   2.674   5.551
   34CHL1   C11 3656   3.013   2.675   5.706
   34CHL1  H11A 3657   3.122   2.697   5.704
   34CHL1  H11B 3658   2.947   2.743   5.764
   34CHL1    C9 3659   2.978   2.538   5.774
   34CHL1    H9 3660   2.867   2.532   5.773
   34CHL1   C10 3661   3.018   2.533   5.929
   34CHL1   C19 3662   3.166   2.568   5.951
   34CHL1  H19A 3663   3.236   2.508   5.888
   34CHL1  H19B 3664   3.192   2.672   5.922
   34CHL1  H19C 3665   3.194   2.550   6.057
   34CHL1    C1 3666   2.916   2.628   6.003
   34CHL1   H1A 3667   2.926   2.737   5.986
   34CHL1   H1B 3668   2.816   2.599   5.965
   34CHL1    C2 3669   2.921   2.616   6.159
   34CHL1   H2A 3670   2.837   2.668   6.210
   34CHL1   H2B 3671   3.021   2.646   6.198
   34CHL1   C20 3672   3.056   2.599   5.218
   34CHL1   H20 3673   3.165   2.585   5.203
   34CHL1   C21 3674   3.032   2.756   5.226
   34CHL1  H21A 3675   2.925   2.770   5.251
   34CHL1  H21B 3676   3.057   2.791   5.124
   34CHL1  H21C 3677   3.093   2.811   5.301
   34CHL1   C22 3678   3.002   2.547   5.081
   34CHL1  H22A 3679   3.007   2.436   5.072
   34CHL1  H22B 3680   2.897   2.582   5.072
   34CHL1   C23 3681   3.083   2.592   4.953
   34CHL1  H23A 3682   3.070   2.702   4.940
   34CHL1  H23B 3683   3.192   2.578   4.970
   34CHL1   C24 3684   3.062   2.510   4.822
   34CHL1  H24A 3685   3.128   2.552   4.743
   34CHL1  H24B 3686   3.088   2.402   4.835
   34CHL1   C25 3687   2.917   2.529   4.762
   34CHL1   H25 3688   2.848   2.498   4.844
   34CHL1   C26 3689   2.882   2.673   4.730
   34CHL1  H26A 3690   2.934   2.705   4.637
   34CHL1  H26B 3691   2.778   2.693   4.697
   34CHL1  H26C 3692   2.901   2.749   4.809
   34CHL1   C27 3693   2.900   2.437   4.634
   34CHL1  H27A 3694   2.951   2.482   4.547
   34CHL1  H27B 3695   2.945   2.339   4.663
   34CHL1  H27C 3696   2.792   2.425   4.610
   35CHL1    C3 3697   4.183   4.587   6.081
   35CHL1    H3 3698   4.285   4.544   6.077
   35CHL1    O3 3699   4.138   4.558   6.212
   35CHL1   H3' 3700   4.198   4.609   6.268
   35CHL1    C4 3701   4.186   4.739   6.054
   35CHL1   H4A 3702   4.080   4.774   6.058
   35CHL1   H4B 3703   4.235   4.792   6.139
   35CHL1    C5 3704   4.243   4.775   5.918
   35CHL1    C6 3705   4.356   4.848   5.903
   35CHL1    H6 3706   4.424   4.884   5.982
   35CHL1    C7 3707   4.403   4.878   5.764
   35CHL1   H7A 3708   4.435   4.983   5.744
   35CHL1   H7B 3709   4.487   4.810   5.737
   35CHL1    C8 3710   4.290   4.862   5.649
   35CHL1    H8 3711   4.216   4.943   5.666
   35CHL1   C14 3712   4.342   4.876   5.503
   35CHL1   H14 3713   4.418   4.796   5.485
   35CHL1   C15 3714   4.393   5.017   5.476
   35CHL1  H15A 3715   4.325   5.101   5.505
   35CHL1  H15B 3716   4.495   5.030   5.520
   35CHL1   C16 3717   4.393   5.012   5.319
   35CHL1  H16A 3718   4.340   5.102   5.282
   35CHL1  H16B 3719   4.499   5.025   5.289
   35CHL1   C17 3720   4.314   4.885   5.274
   35CHL1   H17 3721   4.391   4.806   5.265
   35CHL1   C13 3722   4.235   4.843   5.399
   35CHL1   C18 3723   4.115   4.946   5.415
   35CHL1  H18A 3724   4.140   5.051   5.392
   35CHL1  H18B 3725   4.039   4.915   5.340
   35CHL1  H18C 3726   4.059   4.942   5.511
   35CHL1   C12 3727   4.190   4.698   5.415
   35CHL1  H12A 3728   4.113   4.671   5.340
   35CHL1  H12B 3729   4.267   4.619   5.401
   35CHL1   C11 3730   4.125   4.680   5.546
   35CHL1  H11A 3731   4.026   4.730   5.540
   35CHL1  H11B 3732   4.110   4.570   5.554
   35CHL1    C9 3733   4.221   4.723   5.664
   35CHL1    H9 3734   4.303   4.648   5.669
   35CHL1   C10 3735   4.149   4.707   5.800
   35CHL1   C19 3736   4.013   4.773   5.802
   35CHL1  H19A 3737   3.950   4.728   5.722
   35CHL1  H19B 3738   3.949   4.745   5.888
   35CHL1  H19C 3739   4.014   4.883   5.785
   35CHL1    C1 3740   4.137   4.552   5.837
   35CHL1   H1A 3741   4.069   4.498   5.767
   35CHL1   H1B 3742   4.238   4.508   5.824
   35CHL1    C2 3743   4.095   4.521   5.982
   35CHL1   H2A 3744   4.092   4.411   5.997
   35CHL1   H2B 3745   3.989   4.554   5.991
   35CHL1   C20 3746   4.242   4.903   5.137
   35CHL1   H20 3747   4.161   4.974   5.163
   35CHL1   C21 3748   4.172   4.769   5.090
   35CHL1  H21A 3749   4.131   4.789   4.989
   35CHL1  H21B 3750   4.096   4.726   5.158
   35CHL1  H21C 3751   4.254   4.694   5.080
   35CHL1   C22 3752   4.328   4.967   5.025
   35CHL1  H22A 3753   4.392   5.051   5.059
   35CHL1  H22B 3754   4.417   4.905   5.000
   35CHL1   C23 3755   4.236   5.002   4.906
   35CHL1  H23A 3756   4.228   4.923   4.829
   35CHL1  H23B 3757   4.141   5.030   4.957
   35CHL1   C24 3758   4.286   5.129   4.830
   35CHL1  H24A 3759   4.211   5.160   4.754
   35CHL1  H24B 3760   4.286   5.219   4.895
   35CHL1   C25 3761   4.427   5.122   4.767
   35CHL1   H25 3762   4.491   5.108   4.857
   35CHL1   C26 3763   4.445   4.993   4.690
   35CHL1  H26A 3764   4.452   4.910   4.762
   35CHL1  H26B 3765   4.350   4.977   4.635
   35CHL1  H26C 3766   4.529   4.984   4.617
   35CHL1   C27 3767   4.489   5.249   4.701
   35CHL1  H27A 3768   4.598   5.231   4.698
   35CHL1  H27B 3769   4.439   5.269   4.604
   35CHL1  H27C 3770   4.477   5.334   4.772
   36CHL1    C3 3771   0.584   3.553   5.996
   36CHL1    H3 3772   0.635   3.456   5.984
   36CHL1    O3 3773   0.567   3.583   6.132
   36CHL1   H3' 3774   0.651   3.556   6.170
   36CHL1    C4 3775   0.673   3.665   5.928
   36CHL1   H4A 3776   0.633   3.769   5.938
   36CHL1   H4B 3777   0.764   3.669   5.991
   36CHL1    C5 3778   0.710   3.617   5.788
   36CHL1    C6 3779   0.837   3.601   5.750
   36CHL1    H6 3780   0.919   3.618   5.822
   36CHL1    C7 3781   0.870   3.581   5.603
   36CHL1   H7A 3782   0.955   3.646   5.572
   36CHL1   H7B 3783   0.899   3.476   5.583
   36CHL1    C8 3784   0.749   3.617   5.508
   36CHL1    H8 3785   0.738   3.726   5.523
   36CHL1   C14 3786   0.776   3.582   5.362
   36CHL1   H14 3787   0.778   3.471   5.354
   36CHL1   C15 3788   0.902   3.645   5.296
   36CHL1  H15A 3789   0.916   3.751   5.324
   36CHL1  H15B 3790   0.988   3.582   5.330
   36CHL1   C16 3791   0.875   3.618   5.145
   36CHL1  H16A 3792   0.886   3.714   5.091
   36CHL1  H16B 3793   0.944   3.542   5.104
   36CHL1   C17 3794   0.729   3.561   5.135
   36CHL1   H17 3795   0.738   3.451   5.145
   36CHL1   C13 3796   0.662   3.606   5.265
   36CHL1   C18 3797   0.623   3.760   5.243
   36CHL1  H18A 3798   0.598   3.802   5.343
   36CHL1  H18B 3799   0.706   3.818   5.197
   36CHL1  H18C 3800   0.530   3.763   5.182
   36CHL1   C12 3801   0.531   3.537   5.315
   36CHL1  H12A 3802   0.448   3.562   5.245
   36CHL1  H12B 3803   0.549   3.428   5.300
   36CHL1   C11 3804   0.492   3.578   5.458
   36CHL1  H11A 3805   0.460   3.684   5.458
   36CHL1  H11B 3806   0.403   3.523   5.496
   36CHL1    C9 3807   0.612   3.558   5.556
   36CHL1    H9 3808   0.616   3.447   5.560
   36CHL1   C10 3809   0.577   3.604   5.702
   36CHL1   C19 3810   0.513   3.743   5.698
   36CHL1  H19A 3811   0.570   3.824   5.648
   36CHL1  H19B 3812   0.416   3.738   5.645
   36CHL1  H19C 3813   0.489   3.776   5.802
   36CHL1    C1 3814   0.477   3.508   5.769
   36CHL1   H1A 3815   0.378   3.517   5.720
   36CHL1   H1B 3816   0.503   3.401   5.755
   36CHL1    C2 3817   0.450   3.541   5.924
   36CHL1   H2A 3818   0.391   3.463   5.976
   36CHL1   H2B 3819   0.402   3.640   5.935
   36CHL1   C20 3820   0.664   3.584   4.999
   36CHL1   H20 3821   0.622   3.686   5.000
   36CHL1   C21 3822   0.547   3.482   4.991
   36CHL1  H21A 3823   0.461   3.506   5.057
   36CHL1  H21B 3824   0.588   3.380   5.006
   36CHL1  H21C 3825   0.501   3.476   4.890
   36CHL1   C22 3826   0.760   3.582   4.881
   36CHL1  H22A 3827   0.830   3.666   4.898
   36CHL1  H22B 3828   0.810   3.482   4.880
   36CHL1   C23 3829   0.683   3.603   4.749
   36CHL1  H23A 3830   0.629   3.512   4.715
   36CHL1  H23B 3831   0.618   3.692   4.763
   36CHL1   C24 3832   0.788   3.643   4.639
   36CHL1  H24A 3833   0.854   3.724   4.677
   36CHL1  H24B 3834   0.850   3.554   4.619
   36CHL1   C25 3835   0.735   3.698   4.502
   36CHL1   H25 3836   0.713   3.621   4.425
   36CHL1   C26 3837   0.609   3.785   4.510
   36CHL1  H26A 3838   0.621   3.859   4.592
   36CHL1  H26B 3839   0.610   3.828   4.408
   36CHL1  H26C 3840   0.527   3.711   4.525
   36CHL1   C27 3841   0.841   3.790   4.437
   36CHL1  H27A 3842   0.795   3.852   4.357
   36CHL1  H27B 3843   0.894   3.849   4.515
   36CHL1  H27C 3844   0.923   3.728   4.395
   37CHL1    C3 3845   1.117   0.056   5.959
   37CHL1    H3 3846   1.119   6.781   5.911
   37CHL1    O3 3847   1.114   0.049   6.102
   37CHL1   H3' 3848   1.042   6.815   6.127
   37CHL1    C4 3849   1.233   0.146   5.915
   37CHL1   H4A 3850   1.244   0.239   5.975
   37CHL1   H4B 3851   1.323   0.086   5.943
   37CHL1    C5 3852   1.242   0.179   5.764
   37CHL1    C6 3853   1.340   0.140   5.683
   37CHL1    H6 3854   1.431   0.098   5.727
   37CHL1    C7 3855   1.352   0.167   5.532
   37CHL1   H7A 3856   1.454   0.198   5.499
   37CHL1   H7B 3857   1.331   0.077   5.472
   37CHL1    C8 3858   1.244   0.268   5.487
   37CHL1    H8 3859   1.289   0.366   5.511
   37CHL1   C14 3860   1.222   0.271   5.338
   37CHL1   H14 3861   1.178   0.174   5.303
   37CHL1   C15 3862   1.348   0.270   5.247
   37CHL1  H15A 3863   1.420   0.329   5.306
   37CHL1  H15B 3864   1.393   0.170   5.233
   37CHL1   C16 3865   1.300   0.337   5.122
   37CHL1  H16A 3866   1.351   0.433   5.097
   37CHL1  H16B 3867   1.323   0.276   5.032
   37CHL1   C17 3868   1.149   0.357   5.134
   37CHL1   H17 3869   1.109   0.256   5.111
   37CHL1   C13 3870   1.126   0.371   5.284
   37CHL1   C18 3871   1.174   0.522   5.319
   37CHL1  H18A 3872   1.089   0.590   5.303
   37CHL1  H18B 3873   1.194   0.517   5.428
   37CHL1  H18C 3874   1.261   0.557   5.259
   37CHL1   C12 3875   0.993   0.343   5.347
   37CHL1  H12A 3876   0.914   0.416   5.319
   37CHL1  H12B 3877   0.958   0.243   5.313
   37CHL1   C11 3878   0.987   0.340   5.499
   37CHL1  H11A 3879   1.005   0.437   5.550
   37CHL1  H11B 3880   0.890   0.302   5.538
   37CHL1    C9 3881   1.108   0.246   5.558
   37CHL1    H9 3882   1.073   0.143   5.534
   37CHL1   C10 3883   1.113   0.237   5.717
   37CHL1   C19 3884   1.101   0.379   5.773
   37CHL1  H19A 3885   1.000   0.422   5.754
   37CHL1  H19B 3886   1.110   0.389   5.883
   37CHL1  H19C 3887   1.173   0.454   5.735
   37CHL1    C1 3888   0.996   0.151   5.765
   37CHL1   H1A 3889   0.904   0.197   5.723
   37CHL1   H1B 3890   1.001   0.053   5.712
   37CHL1    C2 3891   0.987   0.123   5.916
   37CHL1   H2A 3892   0.897   0.062   5.937
   37CHL1   H2B 3893   0.980   0.220   5.970
   37CHL1   C20 3894   1.082   0.457   5.033
   37CHL1   H20 3895   1.121   0.557   5.062
   37CHL1   C21 3896   0.927   0.451   5.048
   37CHL1  H21A 3897   0.886   0.505   5.136
   37CHL1  H21B 3898   0.903   0.344   5.062
   37CHL1  H21C 3899   0.885   0.499   4.957
   37CHL1   C22 3900   1.123   0.434   4.889
   37CHL1  H22A 3901   1.048   0.494   4.832
   37CHL1  H22B 3902   1.223   0.474   4.864
   37CHL1   C23 3903   1.119   0.291   4.832
   37CHL1  H23A 3904   1.197   0.223   4.873
   37CHL1  H23B 3905   1.019   0.253   4.863
   37CHL1   C24 3906   1.137   0.276   4.682
   37CHL1  H24A 3907   1.062   0.324   4.617
   37CHL1  H24B 3908   1.235   0.320   4.654
   37CHL1   C25 3909   1.155   0.123   4.643
   37CHL1   H25 3910   1.209   0.066   4.721
   37CHL1   C26 3911   1.016   0.057   4.638
   37CHL1  H26A 3912   0.958   0.084   4.729
   37CHL1  H26B 3913   0.952   0.070   4.548
   37CHL1  H26C 3914   1.039   6.774   4.634
   37CHL1   C27 3915   1.244   0.112   4.512
   37CHL1  H27A 3916   1.184   0.122   4.419
   37CHL1  H27B 3917   1.327   0.185   4.508
   37CHL1  H27C 3918   1.286   0.009   4.509
   38CHL1    C3 3919   1.831   0.942   5.932
   38CHL1    H3 3920   1.735   0.886   5.929
   38CHL1    O3 3921   1.851   0.996   6.065
   38CHL1   H3' 3922   1.786   1.066   6.070
   38CHL1    C4 3923   1.956   0.851   5.897
   38CHL1   H4A 3924   2.044   0.918   5.912
   38CHL1   H4B 3925   1.968   0.772   5.974
   38CHL1    C5 3926   1.957   0.821   5.744
   38CHL1    C6 3927   1.966   0.696   5.705
   38CHL1    H6 3928   1.985   0.625   5.788
   38CHL1    C7 3929   1.977   0.648   5.561
   38CHL1   H7A 3930   2.049   0.565   5.546
   38CHL1   H7B 3931   1.875   0.608   5.542
   38CHL1    C8 3932   1.992   0.765   5.459
   38CHL1    H8 3933   2.099   0.794   5.454
   38CHL1   C14 3934   1.953   0.720   5.318
   38CHL1   H14 3935   1.842   0.731   5.323
   38CHL1   C15 3936   1.986   0.575   5.271
   38CHL1  H15A 3937   2.093   0.554   5.292
   38CHL1  H15B 3938   1.920   0.508   5.330
   38CHL1   C16 3939   1.966   0.583   5.117
   38CHL1  H16A 3940   2.066   0.566   5.072
   38CHL1  H16B 3941   1.897   0.509   5.070
   38CHL1   C17 3942   1.933   0.736   5.088
   38CHL1   H17 3943   1.822   0.736   5.085
   38CHL1   C13 3944   1.979   0.822   5.207
   38CHL1   C18 3945   2.134   0.845   5.184
   38CHL1  H18A 3946   2.187   0.754   5.149
   38CHL1  H18B 3947   2.151   0.927   5.112
   38CHL1  H18C 3948   2.189   0.867   5.278
   38CHL1   C12 3949   1.910   0.955   5.252
   38CHL1  H12A 3950   1.931   1.041   5.185
   38CHL1  H12B 3951   1.801   0.941   5.234
   38CHL1   C11 3952   1.951   0.999   5.397
   38CHL1  H11A 3953   2.056   1.033   5.389
   38CHL1  H11B 3954   1.883   1.086   5.411
   38CHL1    C9 3955   1.914   0.890   5.497
   38CHL1    H9 3956   1.804   0.876   5.487
   38CHL1   C10 3957   1.939   0.936   5.644
   38CHL1   C19 3958   2.076   1.016   5.652
   38CHL1  H19A 3959   2.070   1.105   5.586
   38CHL1  H19B 3960   2.091   1.061   5.753
   38CHL1  H19C 3961   2.160   0.948   5.628
   38CHL1    C1 3962   1.818   1.024   5.694
   38CHL1   H1A 3963   1.823   1.114   5.629
   38CHL1   H1B 3964   1.723   0.972   5.668
   38CHL1    C2 3965   1.816   1.064   5.839
   38CHL1   H2A 3966   1.716   1.105   5.865
   38CHL1   H2B 3967   1.898   1.131   5.873
   38CHL1   C20 3968   1.974   0.773   4.941
   38CHL1   H20 3969   2.085   0.785   4.946
   38CHL1   C21 3970   1.915   0.912   4.911
   38CHL1  H21A 3971   1.812   0.916   4.954
   38CHL1  H21B 3972   1.911   0.939   4.803
   38CHL1  H21C 3973   1.975   0.994   4.956
   38CHL1   C22 3974   1.948   0.667   4.832
   38CHL1  H22A 3975   1.985   0.567   4.865
   38CHL1  H22B 3976   1.839   0.649   4.828
   38CHL1   C23 3977   1.999   0.691   4.691
   38CHL1  H23A 3978   1.957   0.787   4.652
   38CHL1  H23B 3979   2.107   0.713   4.699
   38CHL1   C24 3980   1.974   0.575   4.596
   38CHL1  H24A 3981   2.007   0.479   4.641
   38CHL1  H24B 3982   1.865   0.566   4.579
   38CHL1   C25 3983   2.046   0.588   4.459
   38CHL1   H25 3984   2.156   0.586   4.473
   38CHL1   C26 3985   2.018   0.468   4.365
   38CHL1  H26A 3986   1.910   0.449   4.350
   38CHL1  H26B 3987   2.080   0.478   4.273
   38CHL1  H26C 3988   2.067   0.380   4.412
   38CHL1   C27 3989   2.002   0.717   4.388
   38CHL1  H27A 3990   1.892   0.720   4.375
   38CHL1  H27B 3991   2.024   0.811   4.443
   38CHL1  H27C 3992   2.051   0.717   4.288
   39CHL1    C3 3993   3.748   1.221   6.181
   39CHL1    H3 3994   3.644   1.260   6.177
   39CHL1    O3 3995   3.767   1.161   6.307
   39CHL1   H3' 3996   3.834   1.094   6.292
   39CHL1    C4 3997   3.776   1.120   6.067
   39CHL1   H4A 3998   3.876   1.075   6.085
   39CHL1   H4B 3999   3.704   1.036   6.066
   39CHL1    C5 4000   3.794   1.175   5.934
   39CHL1    C6 4001   3.722   1.138   5.829
   39CHL1    H6 4002   3.647   1.059   5.841
   39CHL1    C7 4003   3.757   1.178   5.692
   39CHL1   H7A 4004   3.778   1.081   5.643
   39CHL1   H7B 4005   3.675   1.231   5.640
   39CHL1    C8 4006   3.886   1.268   5.679
   39CHL1    H8 4007   3.979   1.207   5.688
   39CHL1   C14 4008   3.874   1.327   5.543
   39CHL1   H14 4009   3.775   1.376   5.532
   39CHL1   C15 4010   3.880   1.229   5.429
   39CHL1  H15A 4011   3.955   1.147   5.440
   39CHL1  H15B 4012   3.781   1.180   5.420
   39CHL1   C16 4013   3.907   1.321   5.304
   39CHL1  H16A 4014   3.997   1.293   5.247
   39CHL1  H16B 4015   3.811   1.332   5.249
   39CHL1   C17 4016   3.938   1.460   5.366
   39CHL1   H17 4017   3.842   1.516   5.378
   39CHL1   C13 4018   3.981   1.431   5.515
   39CHL1   C18 4019   4.127   1.366   5.500
   39CHL1  H18A 4020   4.211   1.438   5.496
   39CHL1  H18B 4021   4.135   1.307   5.594
   39CHL1  H18C 4022   4.138   1.299   5.412
   39CHL1   C12 4023   3.982   1.540   5.624
   39CHL1  H12A 4024   4.049   1.627   5.608
   39CHL1  H12B 4025   3.882   1.589   5.629
   39CHL1   C11 4026   4.004   1.475   5.765
   39CHL1  H11A 4027   4.111   1.445   5.762
   39CHL1  H11B 4028   4.006   1.554   5.843
   39CHL1    C9 4029   3.891   1.375   5.789
   39CHL1    H9 4030   3.792   1.424   5.774
   39CHL1   C10 4031   3.890   1.300   5.932
   39CHL1   C19 4032   4.036   1.260   5.971
   39CHL1  H19A 4033   4.104   1.215   5.896
   39CHL1  H19B 4034   4.086   1.354   6.003
   39CHL1  H19C 4035   4.035   1.188   6.055
   39CHL1    C1 4036   3.844   1.396   6.037
   39CHL1   H1A 4037   3.910   1.485   6.028
   39CHL1   H1B 4038   3.745   1.440   6.010
   39CHL1    C2 4039   3.844   1.343   6.176
   39CHL1   H2A 4040   3.796   1.418   6.243
   39CHL1   H2B 4041   3.946   1.321   6.215
   39CHL1   C20 4042   4.018   1.539   5.259
   39CHL1   H20 4043   4.101   1.476   5.220
   39CHL1   C21 4044   4.072   1.664   5.325
   39CHL1  H21A 4045   4.131   1.652   5.418
   39CHL1  H21B 4046   3.989   1.731   5.356
   39CHL1  H21C 4047   4.122   1.726   5.246
   39CHL1   C22 4048   3.935   1.571   5.134
   39CHL1  H22A 4049   3.882   1.480   5.098
   39CHL1  H22B 4050   3.861   1.648   5.165
   39CHL1   C23 4051   4.010   1.632   5.016
   39CHL1  H23A 4052   3.937   1.672   4.942
   39CHL1  H23B 4053   4.071   1.719   5.047
   39CHL1   C24 4054   4.108   1.543   4.938
   39CHL1  H24A 4055   4.167   1.488   5.014
   39CHL1  H24B 4056   4.044   1.478   4.876
   39CHL1   C25 4057   4.208   1.639   4.849
   39CHL1   H25 4058   4.238   1.724   4.913
   39CHL1   C26 4059   4.332   1.568   4.783
   39CHL1  H26A 4060   4.404   1.636   4.733
   39CHL1  H26B 4061   4.381   1.513   4.868
   39CHL1  H26C 4062   4.289   1.492   4.714
   39CHL1   C27 4063   4.124   1.698   4.736
   39CHL1  H27A 4064   4.182   1.776   4.681
   39CHL1  H27B 4065   4.102   1.620   4.660
   39CHL1  H27C 4066   4.032   1.750   4.771
   40CHL1    C3 4067   3.630   3.995   6.211
   40CHL1    H3 4068   3.585   4.095   6.226
   40CHL1    O3 4069   3.675   3.942   6.334
   40CHL1   H3' 4070   3.761   3.984   6.348
   40CHL1    C4 4071   3.525   3.917   6.147
   40CHL1   H4A 4072   3.557   3.811   6.149
   40CHL1   H4B 4073   3.433   3.906   6.209
   40CHL1    C5 4074   3.485   3.967   6.011
   40CHL1    C6 4075   3.362   4.011   5.983
   40CHL1    H6 4076   3.284   4.004   6.061
   40CHL1    C7 4077   3.324   4.052   5.843
   40CHL1   H7A 4078   3.226   4.004   5.820
   40CHL1   H7B 4079   3.319   4.162   5.832
   40CHL1    C8 4080   3.417   4.000   5.731
   40CHL1    H8 4081   3.405   3.890   5.725
   40CHL1   C14 4082   3.385   4.062   5.599
   40CHL1   H14 4083   3.406   4.170   5.614
   40CHL1   C15 4084   3.241   4.062   5.538
   40CHL1  H15A 4085   3.216   3.954   5.539
   40CHL1  H15B 4086   3.169   4.128   5.591
   40CHL1   C16 4087   3.256   4.104   5.390
   40CHL1  H16A 4088   3.191   4.039   5.328
   40CHL1  H16B 4089   3.218   4.207   5.374
   40CHL1   C17 4090   3.409   4.091   5.362
   40CHL1   H17 4091   3.462   4.189   5.367
   40CHL1   C13 4092   3.470   4.010   5.479
   40CHL1   C18 4093   3.452   3.860   5.446
   40CHL1  H18A 4094   3.545   3.826   5.396
   40CHL1  H18B 4095   3.457   3.808   5.544
   40CHL1  H18C 4096   3.359   3.830   5.393
   40CHL1   C12 4097   3.622   4.034   5.509
   40CHL1  H12A 4098   3.684   3.984   5.431
   40CHL1  H12B 4099   3.634   4.144   5.510
   40CHL1   C11 4100   3.663   3.985   5.649
   40CHL1  H11A 4101   3.668   3.874   5.639
   40CHL1  H11B 4102   3.763   4.030   5.670
   40CHL1    C9 4103   3.566   4.024   5.765
   40CHL1    H9 4104   3.576   4.135   5.767
   40CHL1   C10 4105   3.596   3.969   5.909
   40CHL1   C19 4106   3.637   3.817   5.885
   40CHL1  H19A 4107   3.730   3.820   5.824
   40CHL1  H19B 4108   3.667   3.762   5.977
   40CHL1  H19C 4109   3.558   3.755   5.837
   40CHL1    C1 4110   3.721   4.046   5.966
   40CHL1   H1A 4111   3.812   4.043   5.901
   40CHL1   H1B 4112   3.684   4.150   5.979
   40CHL1    C2 4113   3.756   3.997   6.114
   40CHL1   H2A 4114   3.831   4.070   6.149
   40CHL1   H2B 4115   3.795   3.894   6.109
   40CHL1   C20 4116   3.438   4.045   5.219
   40CHL1   H20 4117   3.393   3.943   5.213
   40CHL1   C21 4118   3.589   4.046   5.194
   40CHL1  H21A 4119   3.610   4.023   5.087
   40CHL1  H21B 4120   3.634   3.960   5.247
   40CHL1  H21C 4121   3.629   4.148   5.210
   40CHL1   C22 4122   3.365   4.136   5.119
   40CHL1  H22A 4123   3.259   4.161   5.143
   40CHL1  H22B 4124   3.412   4.236   5.131
   40CHL1   C23 4125   3.370   4.100   4.970
   40CHL1  H23A 4126   3.472   4.058   4.963
   40CHL1  H23B 4127   3.290   4.025   4.951
   40CHL1   C24 4128   3.355   4.225   4.884
   40CHL1  H24A 4129   3.254   4.269   4.895
   40CHL1  H24B 4130   3.416   4.310   4.923
   40CHL1   C25 4131   3.392   4.207   4.731
   40CHL1   H25 4132   3.493   4.163   4.721
   40CHL1   C26 4133   3.289   4.120   4.665
   40CHL1  H26A 4134   3.192   4.157   4.704
   40CHL1  H26B 4135   3.289   4.131   4.555
   40CHL1  H26C 4136   3.304   4.013   4.692
   40CHL1   C27 4137   3.374   4.343   4.658
   40CHL1  H27A 4138   3.409   4.341   4.553
   40CHL1  H27B 4139   3.271   4.384   4.649
   40CHL1  H27C 4140   3.432   4.426   4.703
   41CHL1    C3 4141   0.777   4.747   5.851
   41CHL1    H3 4142   0.669   4.772   5.857
   41CHL1    O3 4143   0.813   4.749   5.990
   41CHL1   H3' 4144   0.800   4.842   6.011
   41CHL1    C4 4145   0.769   4.600   5.809
   41CHL1   H4A 4146   0.869   4.555   5.823
   41CHL1   H4B 4147   0.702   4.540   5.874
   41CHL1    C5 4148   0.736   4.589   5.660
   41CHL1    C6 4149   0.638   4.513   5.609
   41CHL1    H6 4150   0.579   4.447   5.674
   41CHL1    C7 4151   0.608   4.497   5.458
   41CHL1   H7A 4152   0.592   4.390   5.434
   41CHL1   H7B 4153   0.514   4.549   5.429
   41CHL1    C8 4154   0.731   4.544   5.369
   41CHL1    H8 4155   0.810   4.468   5.390
   41CHL1   C14 4156   0.682   4.549   5.222
   41CHL1   H14 4157   0.602   4.626   5.225
   41CHL1   C15 4158   0.633   4.420   5.154
   41CHL1  H15A 4159   0.700   4.333   5.138
   41CHL1  H15B 4160   0.541   4.373   5.194
   41CHL1   C16 4161   0.618   4.468   5.007
   41CHL1  H16A 4162   0.637   4.389   4.932
   41CHL1  H16B 4163   0.514   4.507   5.008
   41CHL1   C17 4164   0.718   4.589   4.990
   41CHL1   H17 4165   0.646   4.673   4.979
   41CHL1   C13 4166   0.793   4.605   5.124
   41CHL1   C18 4167   0.915   4.510   5.105
   41CHL1  H18A 4168   0.991   4.566   5.046
   41CHL1  H18B 4169   0.960   4.486   5.203
   41CHL1  H18C 4170   0.887   4.412   5.062
   41CHL1   C12 4171   0.843   4.744   5.174
   41CHL1  H12A 4172   0.924   4.786   5.111
   41CHL1  H12B 4173   0.763   4.820   5.163
   41CHL1   C11 4174   0.898   4.735   5.316
   41CHL1  H11A 4175   0.986   4.667   5.308
   41CHL1  H11B 4176   0.931   4.835   5.352
   41CHL1    C9 4177   0.787   4.679   5.412
   41CHL1    H9 4178   0.697   4.742   5.401
   41CHL1   C10 4179   0.827   4.681   5.567
   41CHL1   C19 4180   0.975   4.639   5.580
   41CHL1  H19A 4181   1.033   4.705   5.512
   41CHL1  H19B 4182   1.021   4.663   5.678
   41CHL1  H19C 4183   0.991   4.532   5.555
   41CHL1    C1 4184   0.822   4.831   5.621
   41CHL1   H1A 4185   0.900   4.883   5.561
   41CHL1   H1B 4186   0.719   4.872   5.628
   41CHL1    C2 4187   0.860   4.841   5.767
   41CHL1   H2A 4188   0.825   4.945   5.788
   41CHL1   H2B 4189   0.969   4.835   5.789
   41CHL1   C20 4190   0.792   4.589   4.858
   41CHL1   H20 4191   0.865   4.506   4.854
   41CHL1   C21 4192   0.868   4.719   4.841
   41CHL1  H21A 4193   0.897   4.744   4.737
   41CHL1  H21B 4194   0.960   4.741   4.898
   41CHL1  H21C 4195   0.795   4.802   4.859
   41CHL1   C22 4196   0.695   4.579   4.738
   41CHL1  H22A 4197   0.614   4.504   4.749
   41CHL1  H22B 4198   0.655   4.680   4.715
   41CHL1   C23 4199   0.765   4.549   4.600
   41CHL1  H23A 4200   0.856   4.613   4.593
   41CHL1  H23B 4201   0.799   4.443   4.589
   41CHL1   C24 4202   0.673   4.590   4.483
   41CHL1  H24A 4203   0.596   4.513   4.460
   41CHL1  H24B 4204   0.618   4.680   4.517
   41CHL1   C25 4205   0.750   4.618   4.354
   41CHL1   H25 4206   0.803   4.713   4.375
   41CHL1   C26 4207   0.868   4.516   4.325
   41CHL1  H26A 4208   0.828   4.413   4.331
   41CHL1  H26B 4209   0.917   4.541   4.229
   41CHL1  H26C 4210   0.939   4.521   4.410
   41CHL1   C27 4211   0.648   4.618   4.240
   41CHL1  H27A 4212   0.571   4.694   4.267
   41CHL1  H27B 4213   0.702   4.646   4.147
   41CHL1  H27C 4214   0.595   4.522   4.225
   42CHL1    C3 4215   5.717   3.519   6.162
   42CHL1    H3 4216   5.676   3.620   6.139
   42CHL1    O3 4217   5.747   3.499   6.297
   42CHL1   H3' 4218   5.781   3.414   6.326
   42CHL1    C4 4219   5.611   3.415   6.117
   42CHL1   H4A 4220   5.633   3.309   6.146
   42CHL1   H4B 4221   5.515   3.440   6.167
   42CHL1    C5 4222   5.593   3.442   5.969
   42CHL1    C6 4223   5.481   3.474   5.910
   42CHL1    H6 4224   5.393   3.477   5.975
   42CHL1    C7 4225   5.447   3.485   5.765
   42CHL1   H7A 4226   5.353   3.437   5.729
   42CHL1   H7B 4227   5.432   3.594   5.746
   42CHL1    C8 4228   5.559   3.430   5.675
   42CHL1    H8 4229   5.553   3.321   5.693
   42CHL1   C14 4230   5.530   3.453   5.527
   42CHL1   H14 4231   5.540   3.563   5.510
   42CHL1   C15 4232   5.392   3.418   5.469
   42CHL1  H15A 4233   5.355   3.322   5.512
   42CHL1  H15B 4234   5.313   3.488   5.501
   42CHL1   C16 4235   5.415   3.419   5.312
   42CHL1  H16A 4236   5.390   3.321   5.265
   42CHL1  H16B 4237   5.374   3.510   5.265
   42CHL1   C17 4238   5.573   3.434   5.290
   42CHL1   H17 4239   5.592   3.543   5.293
   42CHL1   C13 4240   5.634   3.389   5.425
   42CHL1   C18 4241   5.618   3.240   5.436
   42CHL1  H18A 4242   5.693   3.190   5.372
   42CHL1  H18B 4243   5.655   3.209   5.536
   42CHL1  H18C 4244   5.514   3.206   5.420
   42CHL1   C12 4245   5.763   3.462   5.467
   42CHL1  H12A 4246   5.854   3.433   5.410
   42CHL1  H12B 4247   5.752   3.573   5.472
   42CHL1   C11 4248   5.805   3.434   5.615
   42CHL1  H11A 4249   5.829   3.326   5.616
   42CHL1  H11B 4250   5.891   3.498   5.646
   42CHL1    C9 4251   5.693   3.469   5.725
   42CHL1    H9 4252   5.697   3.580   5.724
   42CHL1   C10 4253   5.716   3.431   5.878
   42CHL1   C19 4254   5.762   3.283   5.876
   42CHL1  H19A 4255   5.756   3.227   5.971
   42CHL1  H19B 4256   5.680   3.231   5.821
   42CHL1  H19C 4257   5.853   3.264   5.814
   42CHL1    C1 4258   5.824   3.521   5.938
   42CHL1   H1A 4259   5.922   3.511   5.888
   42CHL1   H1B 4260   5.801   3.627   5.916
   42CHL1    C2 4261   5.846   3.504   6.087
   42CHL1   H2A 4262   5.920   3.575   6.128
   42CHL1   H2B 4263   5.900   3.410   6.113
   42CHL1   C20 4264   5.632   3.372   5.162
   42CHL1   H20 4265   5.639   3.261   5.158
   42CHL1   C21 4266   5.778   3.412   5.142
   42CHL1  H21A 4267   5.792   3.516   5.179
   42CHL1  H21B 4268   5.818   3.404   5.039
   42CHL1  H21C 4269   5.843   3.353   5.210
   42CHL1   C22 4270   5.542   3.421   5.047
   42CHL1  H22A 4271   5.435   3.397   5.062
   42CHL1  H22B 4272   5.561   3.530   5.034
   42CHL1   C23 4273   5.581   3.372   4.901
   42CHL1  H23A 4274   5.524   3.430   4.825
   42CHL1  H23B 4275   5.688   3.395   4.885
   42CHL1   C24 4276   5.563   3.220   4.882
   42CHL1  H24A 4277   5.608   3.166   4.968
   42CHL1  H24B 4278   5.456   3.191   4.889
   42CHL1   C25 4279   5.617   3.167   4.751
   42CHL1   H25 4280   5.725   3.191   4.757
   42CHL1   C26 4281   5.596   3.012   4.744
   42CHL1  H26A 4282   5.608   2.968   4.642
   42CHL1  H26B 4283   5.671   2.957   4.805
   42CHL1  H26C 4284   5.498   2.987   4.789
   42CHL1   C27 4285   5.559   3.231   4.630
   42CHL1  H27A 4286   5.576   3.341   4.624
   42CHL1  H27B 4287   5.610   3.187   4.542
   42CHL1  H27C 4288   5.453   3.200   4.636
   43CHL1    C3 4289   6.447   1.515   6.256
   43CHL1    H3 4290   6.341   1.492   6.229
   43CHL1    O3 4291   6.457   1.487   6.396
   43CHL1   H3' 4292   6.552   1.492   6.404
   43CHL1    C4 4293   6.547   1.422   6.185
   43CHL1   H4A 4294   6.646   1.407   6.233
   43CHL1   H4B 4295   6.496   1.324   6.192
   43CHL1    C5 4296   6.564   1.469   6.040
   43CHL1    C6 4297   6.544   1.381   5.939
   43CHL1    H6 4298   6.518   1.278   5.969
   43CHL1    C7 4299   6.566   1.412   5.793
   43CHL1   H7A 4300   6.628   1.326   5.760
   43CHL1   H7B 4301   6.463   1.403   5.753
   43CHL1    C8 4302   6.635   1.553   5.766
   43CHL1    H8 4303   6.744   1.543   5.788
   43CHL1   C14 4304   6.606   1.599   5.620
   43CHL1   H14 4305   6.497   1.610   5.604
   43CHL1   C15 4306   6.648   1.511   5.504
   43CHL1  H15A 4307   6.742   1.455   5.521
   43CHL1  H15B 4308   6.563   1.444   5.477
   43CHL1   C16 4309   6.673   1.612   5.391
   43CHL1  H16A 4310   6.779   1.605   5.358
   43CHL1  H16B 4311   6.608   1.595   5.302
   43CHL1   C17 4312   6.653   1.749   5.445
   43CHL1   H17 4313   6.545   1.770   5.455
   43CHL1   C13 4314   6.672   1.732   5.595
   43CHL1   C18 4315   0.008   1.724   5.601
   43CHL1  H18A 4316   0.060   1.650   5.536
   43CHL1  H18B 4317   0.043   1.819   5.556
   43CHL1  H18C 4318   0.035   1.711   5.708
   43CHL1   C12 4319   6.618   1.842   5.685
   43CHL1  H12A 4320   6.663   1.940   5.657
   43CHL1  H12B 4321   6.510   1.855   5.659
   43CHL1   C11 4322   6.631   1.803   5.831
   43CHL1  H11A 4323   6.738   1.816   5.860
   43CHL1  H11B 4324   6.562   1.876   5.877
   43CHL1    C9 4325   6.582   1.659   5.866
   43CHL1    H9 4326   6.474   1.652   5.843
   43CHL1   C10 4327   6.603   1.618   6.015
   43CHL1   C19 4328   6.750   1.630   6.052
   43CHL1  H19A 4329   6.766   1.738   6.072
   43CHL1  H19B 4330   6.774   1.574   6.145
   43CHL1  H19C 4331   6.822   1.588   5.978
   43CHL1    C1 4332   6.500   1.707   6.095
   43CHL1   H1A 4333   6.530   1.814   6.094
   43CHL1   H1B 4334   6.403   1.691   6.043
   43CHL1    C2 4335   6.497   1.653   6.237
   43CHL1   H2A 4336   6.433   1.724   6.295
   43CHL1   H2B 4337   6.597   1.659   6.286
   43CHL1   C20 4338   6.706   1.855   5.353
   43CHL1   H20 4339   6.816   1.860   5.338
   43CHL1   C21 4340   6.663   1.999   5.398
   43CHL1  H21A 4341   6.565   1.997   5.450
   43CHL1  H21B 4342   6.644   2.068   5.313
   43CHL1  H21C 4343   6.734   2.039   5.473
   43CHL1   C22 4344   6.656   1.840   5.205
   43CHL1  H22A 4345   6.664   1.738   5.162
   43CHL1  H22B 4346   6.549   1.869   5.214
   43CHL1   C23 4347   6.733   1.936   5.105
   43CHL1  H23A 4348   6.773   2.031   5.147
   43CHL1  H23B 4349   0.002   1.887   5.074
   43CHL1   C24 4350   6.649   1.967   4.973
   43CHL1  H24A 4351   6.606   1.877   4.924
   43CHL1  H24B 4352   6.562   2.030   5.002
   43CHL1   C25 4353   6.719   2.039   4.850
   43CHL1   H25 4354   6.765   2.132   4.890
   43CHL1   C26 4355   0.004   1.949   4.801
   43CHL1  H26A 4356   0.050   1.986   4.707
   43CHL1  H26B 4357   0.088   1.939   4.873
   43CHL1  H26C 4358   6.776   1.854   4.776
   43CHL1   C27 4359   6.628   2.070   4.735
   43CHL1  H27A 4360   6.530   2.114   4.765
   43CHL1  H27B 4361   6.672   2.143   4.665
   43CHL1  H27C 4362   6.603   1.977   4.679
   44CHL1    C3 4363   0.015   2.583   6.067
   44CHL1    H3 4364   6.804   2.482   6.040
   44CHL1    O3 4365   0.058   2.564   6.200
   44CHL1   H3' 4366   0.105   2.643   6.229
   44CHL1    C4 4367   0.139   2.628   5.982
   44CHL1   H4A 4368   0.181   2.723   6.021
   44CHL1   H4B 4369   0.217   2.551   5.999
   44CHL1    C5 4370   0.101   2.645   5.843
   44CHL1    C6 4371   0.158   2.577   5.740
   44CHL1    H6 4372   0.244   2.515   5.769
   44CHL1    C7 4373   0.127   2.602   5.594
   44CHL1   H7A 4374   0.218   2.612   5.530
   44CHL1   H7B 4375   0.074   2.516   5.551
   44CHL1    C8 4376   0.042   2.734   5.575
   44CHL1    H8 4377   0.117   2.814   5.591
   44CHL1   C14 4378   6.798   2.746   5.432
   44CHL1   H14 4379   6.720   2.667   5.432
   44CHL1   C15 4380   0.065   2.725   5.306
   44CHL1  H15A 4381   0.151   2.794   5.314
   44CHL1  H15B 4382   0.103   2.624   5.282
   44CHL1   C16 4383   6.800   2.781   5.186
   44CHL1  H16A 4384   0.033   2.859   5.132
   44CHL1  H16B 4385   6.777   2.703   5.110
   44CHL1   C17 4386   6.674   2.851   5.254
   44CHL1   H17 4387   6.597   2.771   5.258
   44CHL1   C13 4388   6.715   2.874   5.400
   44CHL1   C18 4389   6.815   2.997   5.411
   44CHL1  H18A 4390   0.083   2.985   5.471
   44CHL1  H18B 4391   0.029   3.018   5.309
   44CHL1  H18C 4392   6.756   3.088   5.433
   44CHL1   C12 4393   6.611   2.891   5.507
   44CHL1  H12A 4394   6.556   2.987   5.497
   44CHL1  H12B 4395   6.542   2.804   5.512
   44CHL1   C11 4396   6.672   2.880   5.652
   44CHL1  H11A 4397   6.720   2.980   5.663
   44CHL1  H11B 4398   6.584   2.869   5.719
   44CHL1    C9 4399   6.763   2.759   5.682
   44CHL1    H9 4400   6.700   2.669   5.668
   44CHL1   C10 4401   6.809   2.749   5.826
   44CHL1   C19 4402   0.029   2.890   5.867
   44CHL1  H19A 4403   0.044   2.888   5.977
   44CHL1  H19B 4404   0.124   2.912   5.814
   44CHL1  H19C 4405   6.775   2.968   5.864
   44CHL1    C1 4406   6.687   2.719   5.917
   44CHL1   H1A 4407   6.623   2.809   5.929
   44CHL1   H1B 4408   6.621   2.649   5.863
   44CHL1    C2 4409   6.723   2.677   6.063
   44CHL1   H2A 4410   6.639   2.636   6.123
   44CHL1   H2B 4411   6.740   2.772   6.117
   44CHL1   C20 4412   6.597   2.958   5.167
   44CHL1   H20 4413   6.673   3.039   5.156
   44CHL1   C21 4414   6.469   3.008   5.240
   44CHL1  H21A 4415   6.411   2.924   5.285
   44CHL1  H21B 4416   6.408   3.065   5.167
   44CHL1  H21C 4417   6.491   3.082   5.319
   44CHL1   C22 4418   6.573   2.909   5.020
   44CHL1  H22A 4419   6.669   2.879   4.973
   44CHL1  H22B 4420   6.508   2.819   5.022
   44CHL1   C23 4421   6.500   3.006   4.932
   44CHL1  H23A 4422   6.505   2.973   4.826
   44CHL1  H23B 4423   6.398   3.031   4.970
   44CHL1   C24 4424   6.572   3.142   4.907
   44CHL1  H24A 4425   6.604   3.189   5.002
   44CHL1  H24B 4426   6.666   3.135   4.847
   44CHL1   C25 4427   6.473   3.251   4.844
   44CHL1   H25 4428   6.379   3.246   4.903
   44CHL1   C26 4429   6.535   3.393   4.849
   44CHL1  H26A 4430   6.572   3.412   4.952
   44CHL1  H26B 4431   6.621   3.405   4.780
   44CHL1  H26C 4432   6.453   3.465   4.826
   44CHL1   C27 4433   6.432   3.218   4.700
   44CHL1  H27A 4434   6.363   3.298   4.664
   44CHL1  H27B 4435   6.518   3.210   4.631
   44CHL1  H27C 4436   6.385   3.118   4.689
   45CHL1    C3 4437   0.264   3.948   5.945
   45CHL1    H3 4438   0.356   3.888   5.928
   45CHL1    O3 4439   0.246   3.986   6.081
   45CHL1   H3' 4440   0.300   3.922   6.129
   45CHL1    C4 4441   0.285   4.074   5.859
   45CHL1   H4A 4442   0.194   4.132   5.885
   45CHL1   H4B 4443   0.379   4.123   5.895
   45CHL1    C5 4444   0.294   4.042   5.711
   45CHL1    C6 4445   0.396   4.076   5.642
   45CHL1    H6 4446   0.474   4.140   5.686
   45CHL1    C7 4447   0.402   4.046   5.492
   45CHL1   H7A 4448   0.432   4.140   5.440
   45CHL1   H7B 4449   0.486   3.977   5.472
   45CHL1    C8 4450   0.269   3.998   5.430
   45CHL1    H8 4451   0.198   4.083   5.414
   45CHL1   C14 4452   0.304   3.935   5.300
   45CHL1   H14 4453   0.375   3.851   5.311
   45CHL1   C15 4454   0.385   4.032   5.208
   45CHL1  H15A 4455   0.338   4.132   5.210
   45CHL1  H15B 4456   0.491   4.031   5.241
   45CHL1   C16 4457   0.362   3.966   5.072
   45CHL1  H16A 4458   0.333   4.046   4.999
   45CHL1  H16B 4459   0.461   3.926   5.042
   45CHL1   C17 4460   0.263   3.848   5.091
   45CHL1   H17 4461   0.331   3.763   5.113
   45CHL1   C13 4462   0.187   3.883   5.219
   45CHL1   C18 4463   0.091   4.002   5.191
   45CHL1  H18A 4464   0.007   3.970   5.126
   45CHL1  H18B 4465   0.040   4.045   5.279
   45CHL1  H18C 4466   0.140   4.087   5.140
   45CHL1   C12 4467   0.119   3.767   5.300
   45CHL1  H12A 4468   0.026   3.735   5.248
   45CHL1  H12B 4469   0.195   3.688   5.311
   45CHL1   C11 4470   0.082   3.822   5.441
   45CHL1  H11A 4471   6.821   3.891   5.423
   45CHL1  H11B 4472   0.044   3.748   5.514
   45CHL1    C9 4473   0.200   3.902   5.514
   45CHL1    H9 4474   0.272   3.819   5.528
   45CHL1   C10 4475   0.174   3.953   5.657
   45CHL1   C19 4476   0.043   4.033   5.654
   45CHL1  H19A 4477   0.016   4.073   5.754
   45CHL1  H19B 4478   0.051   4.122   5.588
   45CHL1  H19C 4479   6.780   3.980   5.612
   45CHL1    C1 4480   0.149   3.832   5.753
   45CHL1   H1A 4481   0.057   3.780   5.718
   45CHL1   H1B 4482   0.241   3.769   5.747
   45CHL1    C2 4483   0.141   3.872   5.904
   45CHL1   H2A 4484   0.112   3.783   5.964
   45CHL1   H2B 4485   0.055   3.941   5.918
   45CHL1   C20 4486   0.189   3.811   4.960
   45CHL1   H20 4487   0.105   3.883   4.962
   45CHL1   C21 4488   0.142   3.665   4.969
   45CHL1  H21A 4489   0.081   3.647   5.060
   45CHL1  H21B 4490   0.227   3.593   4.962
   45CHL1  H21C 4491   0.077   3.645   4.881
   45CHL1   C22 4492   0.270   3.845   4.831
   45CHL1  H22A 4493   0.303   3.951   4.835
   45CHL1  H22B 4494   0.368   3.795   4.814
   45CHL1   C23 4495   0.181   3.847   4.707
   45CHL1  H23A 4496   0.133   3.748   4.691
   45CHL1  H23B 4497   0.100   3.921   4.729
   45CHL1   C24 4498   0.252   3.904   4.577
   45CHL1  H24A 4499   0.327   3.976   4.617
   45CHL1  H24B 4500   0.301   3.818   4.526
   45CHL1   C25 4501   0.152   3.959   4.485
   45CHL1   H25 4502   0.110   4.048   4.535
   45CHL1   C26 4503   0.220   3.994   4.355
   45CHL1  H26A 4504   0.293   4.077   4.367
   45CHL1  H26B 4505   0.259   3.908   4.295
   45CHL1  H26C 4506   0.149   4.038   4.282
   45CHL1   C27 4507   0.033   3.866   4.447
   45CHL1  H27A 4508   6.793   3.851   4.536
   45CHL1  H27B 4509   6.801   3.935   4.380
   45CHL1  H27C 4510   0.057   3.774   4.388
   46CHL1    C3 4511   2.065   5.953   6.199
   46CHL1    H3 4512   2.093   5.848   6.175
   46CHL1    O3 4513   2.027   5.959   6.339
   46CHL1   H3' 4514   2.111   5.955   6.386
   46CHL1    C4 4515   2.183   6.044   6.159
   46CHL1   H4A 4516   2.143   6.145   6.182
   46CHL1   H4B 4517   2.264   6.012   6.227
   46CHL1    C5 4518   2.223   6.020   6.015
   46CHL1    C6 4519   2.347   5.977   5.985
   46CHL1    H6 4520   2.413   5.959   6.071
   46CHL1    C7 4521   2.395   5.959   5.845
   46CHL1   H7A 4522   2.493   6.010   5.833
   46CHL1   H7B 4523   2.404   5.853   5.814
   46CHL1    C8 4524   2.301   6.030   5.744
   46CHL1    H8 4525   2.328   6.137   5.754
   46CHL1   C14 4526   2.327   5.996   5.601
   46CHL1   H14 4527   2.325   5.885   5.592
   46CHL1   C15 4528   2.465   6.036   5.536
   46CHL1  H15A 4529   2.482   6.146   5.544
   46CHL1  H15B 4530   2.559   6.002   5.585
   46CHL1   C16 4531   2.449   6.008   5.391
   46CHL1  H16A 4532   2.496   6.092   5.336
   46CHL1  H16B 4533   2.494   5.908   5.371
   46CHL1   C17 4534   2.296   5.987   5.364
   46CHL1   H17 4535   2.277   5.879   5.350
   46CHL1   C13 4536   2.227   6.034   5.499
   46CHL1   C18 4537   2.216   6.185   5.487
   46CHL1  H18A 4538   2.186   6.236   5.581
   46CHL1  H18B 4539   2.307   6.238   5.449
   46CHL1  H18C 4540   2.136   6.219   5.418
   46CHL1   C12 4541   2.092   5.970   5.539
   46CHL1  H12A 4542   2.009   5.988   5.468
   46CHL1  H12B 4543   2.119   5.863   5.535
   46CHL1   C11 4544   2.048   6.015   5.671
   46CHL1  H11A 4545   2.018   6.122   5.674
   46CHL1  H11B 4546   1.954   5.962   5.695
   46CHL1    C9 4547   2.158   5.992   5.782
   46CHL1    H9 4548   2.164   5.882   5.795
   46CHL1   C10 4549   2.104   6.045   5.917
   46CHL1   C19 4550   2.070   6.195   5.910
   46CHL1  H19A 4551   2.161   6.249   5.875
   46CHL1  H19B 4552   1.991   6.215   5.835
   46CHL1  H19C 4553   2.030   6.234   6.006
   46CHL1    C1 4554   1.977   5.962   5.957
   46CHL1   H1A 4555   1.889   5.984   5.893
   46CHL1   H1B 4556   1.991   5.852   5.952
   46CHL1    C2 4557   1.941   5.986   6.112
   46CHL1   H2A 4558   1.854   5.927   6.148
   46CHL1   H2B 4559   1.911   6.092   6.129
   46CHL1   C20 4560   2.261   6.058   5.228
   46CHL1   H20 4561   2.273   6.167   5.240
   46CHL1   C21 4562   2.113   6.023   5.187
   46CHL1  H21A 4563   2.083   6.095   5.108
   46CHL1  H21B 4564   2.037   6.032   5.267
   46CHL1  H21C 4565   2.109   5.923   5.138
   46CHL1   C22 4566   2.349   6.005   5.106
   46CHL1  H22A 4567   2.457   6.028   5.118
   46CHL1  H22B 4568   2.336   5.895   5.109
   46CHL1   C23 4569   2.301   6.048   4.968
   46CHL1  H23A 4570   2.193   6.028   4.948
   46CHL1  H23B 4571   2.311   6.158   4.966
   46CHL1   C24 4572   2.389   5.991   4.852
   46CHL1  H24A 4573   2.484   6.049   4.842
   46CHL1  H24B 4574   2.409   5.884   4.874
   46CHL1   C25 4575   2.326   6.012   4.712
   46CHL1   H25 4576   2.304   6.118   4.688
   46CHL1   C26 4577   2.409   5.962   4.600
   46CHL1  H26A 4578   2.357   5.960   4.502
   46CHL1  H26B 4579   2.492   6.035   4.593
   46CHL1  H26C 4580   2.451   5.862   4.626
   46CHL1   C27 4581   2.198   5.922   4.700
   46CHL1  H27A 4582   2.141   5.924   4.605
   46CHL1  H27B 4583   2.220   5.816   4.727
   46CHL1  H27C 4584   2.128   5.955   4.780
   47CHL1    C3 4585   3.686   4.588   5.993
   47CHL1    H3 4586   3.779   4.649   5.992
   47CHL1    O3 4587   3.619   4.569   6.117
   47CHL1   H3' 4588   3.531   4.534   6.106
   47CHL1    C4 4589   3.584   4.646   5.902
   47CHL1   H4A 4590   3.497   4.578   5.904
   47CHL1   H4B 4591   3.536   4.736   5.946
   47CHL1    C5 4592   3.629   4.656   5.756
   47CHL1    C6 4593   3.642   4.773   5.692
   47CHL1    H6 4594   3.634   4.871   5.741
   47CHL1    C7 4595   3.678   4.785   5.549
   47CHL1   H7A 4596   3.612   4.851   5.490
   47CHL1   H7B 4597   3.779   4.828   5.529
   47CHL1    C8 4598   3.659   4.652   5.474
   47CHL1    H8 4599   3.552   4.622   5.470
   47CHL1   C14 4600   3.710   4.661   5.336
   47CHL1   H14 4601   3.817   4.693   5.337
   47CHL1   C15 4602   3.634   4.757   5.244
   47CHL1  H15A 4603   3.527   4.754   5.274
   47CHL1  H15B 4604   3.675   4.858   5.265
   47CHL1   C16 4605   3.665   4.709   5.106
   47CHL1  H16A 4606   3.574   4.702   5.042
   47CHL1  H16B 4607   3.750   4.762   5.058
   47CHL1   C17 4608   3.737   4.569   5.119
   47CHL1   H17 4609   3.847   4.588   5.111
   47CHL1   C13 4610   3.708   4.525   5.260
   47CHL1   C18 4611   3.570   4.449   5.250
   47CHL1  H18A 4612   3.578   4.358   5.187
   47CHL1  H18B 4613   3.537   4.413   5.350
   47CHL1  H18C 4614   3.493   4.520   5.212
   47CHL1   C12 4615   3.813   4.443   5.333
   47CHL1  H12A 4616   3.825   4.346   5.280
   47CHL1  H12B 4617   3.906   4.503   5.322
   47CHL1   C11 4618   3.778   4.419   5.474
   47CHL1  H11A 4619   3.692   4.351   5.455
   47CHL1  H11B 4620   3.857   4.370   5.534
   47CHL1    C9 4621   3.740   4.548   5.555
   47CHL1    H9 4622   3.831   4.609   5.570
   47CHL1   C10 4623   3.673   4.518   5.694
   47CHL1   C19 4624   3.551   4.422   5.674
   47CHL1  H19A 4625   3.490   4.464   5.591
   47CHL1  H19B 4626   3.578   4.318   5.646
   47CHL1  H19C 4627   3.484   4.419   5.763
   47CHL1    C1 4628   3.770   4.453   5.793
   47CHL1   H1A 4629   3.783   4.348   5.759
   47CHL1   H1B 4630   3.873   4.493   5.779
   47CHL1    C2 4631   3.726   4.445   5.937
   47CHL1   H2A 4632   3.810   4.412   6.001
   47CHL1   H2B 4633   3.634   4.386   5.960
   47CHL1   C20 4634   3.713   4.475   4.999
   47CHL1   H20 4635   3.608   4.445   4.981
   47CHL1   C21 4636   3.799   4.355   5.025
   47CHL1  H21A 4637   3.900   4.391   5.054
   47CHL1  H21B 4638   3.811   4.275   4.949
   47CHL1  H21C 4639   3.755   4.297   5.110
   47CHL1   C22 4640   3.759   4.537   4.863
   47CHL1  H22A 4641   3.691   4.622   4.842
   47CHL1  H22B 4642   3.867   4.564   4.863
   47CHL1   C23 4643   3.747   4.438   4.742
   47CHL1  H23A 4644   3.827   4.362   4.754
   47CHL1  H23B 4645   3.648   4.388   4.742
   47CHL1   C24 4646   3.773   4.507   4.609
   47CHL1  H24A 4647   3.678   4.564   4.599
   47CHL1  H24B 4648   3.856   4.580   4.619
   47CHL1   C25 4649   3.807   4.421   4.485
   47CHL1   H25 4650   3.730   4.341   4.480
   47CHL1   C26 4651   3.797   4.502   4.355
   47CHL1  H26A 4652   3.817   4.443   4.263
   47CHL1  H26B 4653   3.699   4.552   4.345
   47CHL1  H26C 4654   3.878   4.579   4.354
   47CHL1   C27 4655   3.950   4.356   4.501
   47CHL1  H27A 4656   4.015   4.444   4.523
   47CHL1  H27B 4657   3.965   4.286   4.586
   47CHL1  H27C 4658   3.982   4.312   4.404
   48CHL1    C3 4659   1.480   5.577   5.816
   48CHL1    H3 4660   1.585   5.603   5.789
   48CHL1    O3 4661   1.465   5.570   5.953
   48CHL1   H3' 4662   1.424   5.653   5.979
   48CHL1    C4 4663   1.367   5.670   5.760
   48CHL1   H4A 4664   1.264   5.639   5.788
   48CHL1   H4B 4665   1.382   5.768   5.809
   48CHL1    C5 4666   1.361   5.680   5.611
   48CHL1    C6 4667   1.359   5.795   5.541
   48CHL1    H6 4668   1.358   5.888   5.601
   48CHL1    C7 4669   1.357   5.809   5.390
   48CHL1   H7A 4670   1.290   5.894   5.365
   48CHL1   H7B 4671   1.465   5.831   5.372
   48CHL1    C8 4672   1.315   5.679   5.323
   48CHL1    H8 4673   1.204   5.675   5.330
   48CHL1   C14 4674   1.344   5.684   5.173
   48CHL1   H14 4675   1.454   5.694   5.168
   48CHL1   C15 4676   1.285   5.798   5.089
   48CHL1  H15A 4677   1.178   5.813   5.113
   48CHL1  H15B 4678   1.332   5.893   5.121
   48CHL1   C16 4679   1.302   5.748   4.947
   48CHL1  H16A 4680   1.209   5.765   4.888
   48CHL1  H16B 4681   1.381   5.819   4.916
   48CHL1   C17 4682   1.346   5.597   4.954
   48CHL1   H17 4683   1.456   5.593   4.937
   48CHL1   C13 4684   1.318   5.554   5.096
   48CHL1   C18 4685   1.164   5.528   5.103
   48CHL1  H18A 4686   1.136   5.506   5.208
   48CHL1  H18B 4687   1.113   5.622   5.076
   48CHL1  H18C 4688   1.133   5.445   5.035
   48CHL1   C12 4689   1.406   5.442   5.155
   48CHL1  H12A 4690   1.392   5.343   5.106
   48CHL1  H12B 4691   1.512   5.475   5.152
   48CHL1   C11 4692   1.368   5.421   5.305
   48CHL1  H11A 4693   1.266   5.379   5.319
   48CHL1  H11B 4694   1.429   5.338   5.346
   48CHL1    C9 4695   1.387   5.555   5.386
   48CHL1    H9 4696   1.495   5.582   5.383
   48CHL1   C10 4697   1.353   5.541   5.540
   48CHL1   C19 4698   1.211   5.487   5.555
   48CHL1  H19A 4699   1.185   5.488   5.663
   48CHL1  H19B 4700   1.142   5.546   5.491
   48CHL1  H19C 4701   1.209   5.379   5.529
   48CHL1    C1 4702   1.453   5.436   5.609
   48CHL1   H1A 4703   1.429   5.331   5.583
   48CHL1   H1B 4704   1.555   5.464   5.575
   48CHL1    C2 4705   1.457   5.435   5.763
   48CHL1   H2A 4706   1.539   5.370   5.801
   48CHL1   H2B 4707   1.360   5.393   5.796
   48CHL1   C20 4708   1.286   5.514   4.829
   48CHL1   H20 4709   1.176   5.529   4.826
   48CHL1   C21 4710   1.317   5.366   4.843
   48CHL1  H21A 4711   1.274   5.308   4.758
   48CHL1  H21B 4712   1.428   5.366   4.834
   48CHL1  H21C 4713   1.283   5.337   4.945
   48CHL1   C22 4714   1.334   5.574   4.693
   48CHL1  H22A 4715   1.323   5.685   4.695
   48CHL1  H22B 4716   1.444   5.564   4.688
   48CHL1   C23 4717   1.268   5.506   4.571
   48CHL1  H23A 4718   1.338   5.533   4.489
   48CHL1  H23B 4719   1.272   5.396   4.581
   48CHL1   C24 4720   1.124   5.542   4.553
   48CHL1  H24A 4721   1.080   5.486   4.467
   48CHL1  H24B 4722   1.068   5.521   4.647
   48CHL1   C25 4723   1.087   5.689   4.520
   48CHL1   H25 4724   1.128   5.752   4.602
   48CHL1   C26 4725   1.149   5.722   4.390
   48CHL1  H26A 4726   1.147   5.642   4.313
   48CHL1  H26B 4727   1.119   5.820   4.346
   48CHL1  H26C 4728   1.259   5.738   4.399
   48CHL1   C27 4729   0.930   5.711   4.524
   48CHL1  H27A 4730   0.906   5.819   4.536
   48CHL1  H27B 4731   0.886   5.664   4.433
   48CHL1  H27C 4732   0.903   5.651   4.613
   49CHL1    C3 4733   4.430   4.024   3.034
   49CHL1    H3 4734   4.510   3.954   3.066
   49CHL1    O3 4735   4.409   4.022   2.892
   49CHL1   H3' 4736   4.497   4.030   2.854
   49CHL1    C4 4737   4.292   3.996   3.103
   49CHL1   H4A 4738   4.228   4.081   3.072
   49CHL1   H4B 4739   4.254   3.899   3.066
   49CHL1    C5 4740   4.310   4.004   3.254
   49CHL1    C6 4741   4.264   3.908   3.338
   49CHL1    H6 4742   4.217   3.818   3.294
   49CHL1    C7 4743   4.263   3.909   3.488
   49CHL1   H7A 4744   4.156   3.890   3.513
   49CHL1   H7B 4745   4.328   3.828   3.527
   49CHL1    C8 4746   4.315   4.046   3.553
   49CHL1    H8 4747   4.224   4.108   3.569
   49CHL1   C14 4748   4.368   4.022   3.686
   49CHL1   H14 4749   4.458   3.960   3.670
   49CHL1   C15 4750   4.283   3.950   3.791
   49CHL1  H15A 4751   4.180   3.990   3.801
   49CHL1  H15B 4752   4.284   3.840   3.779
   49CHL1   C16 4753   4.370   3.972   3.919
   49CHL1  H16A 4754   4.305   3.987   4.008
   49CHL1  H16B 4755   4.419   3.875   3.942
   49CHL1   C17 4756   4.474   4.089   3.891
   49CHL1   H17 4757   4.567   4.034   3.862
   49CHL1   C13 4758   4.424   4.153   3.761
   49CHL1   C18 4759   4.302   4.249   3.776
   49CHL1  H18A 4760   4.234   4.218   3.858
   49CHL1  H18B 4761   4.351   4.338   3.821
   49CHL1  H18C 4762   4.262   4.291   3.681
   49CHL1   C12 4763   4.537   4.207   3.671
   49CHL1  H12A 4764   4.586   4.295   3.717
   49CHL1  H12B 4765   4.614   4.128   3.659
   49CHL1   C11 4766   4.482   4.239   3.533
   49CHL1  H11A 4767   4.411   4.324   3.540
   49CHL1  H11B 4768   4.565   4.279   3.471
   49CHL1    C9 4769   4.420   4.112   3.459
   49CHL1    H9 4770   4.503   4.039   3.451
   49CHL1   C10 4771   4.376   4.133   3.310
   49CHL1   C19 4772   4.276   4.246   3.299
   49CHL1  H19A 4773   4.185   4.222   3.357
   49CHL1  H19B 4774   4.312   4.339   3.349
   49CHL1  H19C 4775   4.245   4.268   3.195
   49CHL1    C1 4776   4.512   4.157   3.224
   49CHL1   H1A 4777   4.554   4.256   3.250
   49CHL1   H1B 4778   4.579   4.076   3.259
   49CHL1    C2 4779   4.487   4.160   3.074
   49CHL1   H2A 4780   4.581   4.165   3.015
   49CHL1   H2B 4781   4.420   4.244   3.045
   49CHL1   C20 4782   4.495   4.175   4.017
   49CHL1   H20 4783   4.390   4.205   4.040
   49CHL1   C21 4784   4.578   4.303   3.992
   49CHL1  H21A 4785   4.533   4.374   3.920
   49CHL1  H21B 4786   4.677   4.270   3.952
   49CHL1  H21C 4787   4.586   4.365   4.083
   49CHL1   C22 4788   4.560   4.096   4.141
   49CHL1  H22A 4789   4.509   3.996   4.142
   49CHL1  H22B 4790   4.667   4.082   4.117
   49CHL1   C23 4791   4.525   4.142   4.282
   49CHL1  H23A 4792   4.603   4.116   4.357
   49CHL1  H23B 4793   4.533   4.253   4.286
   49CHL1   C24 4794   4.386   4.096   4.333
   49CHL1  H24A 4795   4.322   4.117   4.245
   49CHL1  H24B 4796   4.395   3.987   4.350
   49CHL1   C25 4797   4.330   4.165   4.458
   49CHL1   H25 4798   4.328   4.275   4.440
   49CHL1   C26 4799   4.195   4.099   4.497
   49CHL1  H26A 4800   4.204   3.991   4.519
   49CHL1  H26B 4801   4.173   4.136   4.599
   49CHL1  H26C 4802   4.110   4.113   4.427
   49CHL1   C27 4803   4.430   4.140   4.571
   49CHL1  H27A 4804   4.388   4.178   4.666
   49CHL1  H27B 4805   4.446   4.030   4.583
   49CHL1  H27C 4806   4.527   4.186   4.543
   50CHL1    C3 4807   3.600   1.409   2.756
   50CHL1    H3 4808   3.507   1.461   2.788
   50CHL1    O3 4809   3.616   1.393   2.621
   50CHL1   H3' 4810   3.560   1.322   2.589
   50CHL1    C4 4811   3.726   1.476   2.820
   50CHL1   H4A 4812   3.816   1.421   2.786
   50CHL1   H4B 4813   3.719   1.580   2.780
   50CHL1    C5 4814   3.712   1.474   2.969
   50CHL1    C6 4815   3.721   1.599   3.029
   50CHL1    H6 4816   3.745   1.687   2.968
   50CHL1    C7 4817   3.714   1.616   3.181
   50CHL1   H7A 4818   3.797   1.682   3.212
   50CHL1   H7B 4819   3.616   1.662   3.204
   50CHL1    C8 4820   3.727   1.480   3.260
   50CHL1    H8 4821   3.830   1.439   3.248
   50CHL1   C14 4822   3.686   1.505   3.406
   50CHL1   H14 4823   3.585   1.550   3.401
   50CHL1   C15 4824   3.770   1.607   3.485
   50CHL1  H15A 4825   3.880   1.598   3.471
   50CHL1  H15B 4826   3.728   1.706   3.458
   50CHL1   C16 4827   3.727   1.565   3.629
   50CHL1  H16A 4828   3.805   1.551   3.707
   50CHL1  H16B 4829   3.652   1.641   3.659
   50CHL1   C17 4830   3.637   1.433   3.617
   50CHL1   H17 4831   3.533   1.471   3.607
   50CHL1   C13 4832   3.662   1.375   3.480
   50CHL1   C18 4833   3.801   1.301   3.480
   50CHL1  H18A 4834   3.794   1.213   3.548
   50CHL1  H18B 4835   3.833   1.271   3.378
   50CHL1  H18C 4836   3.876   1.368   3.528
   50CHL1   C12 4837   3.551   1.292   3.417
   50CHL1  H12A 4838   3.534   1.202   3.479
   50CHL1  H12B 4839   3.461   1.357   3.419
   50CHL1   C11 4840   3.592   1.253   3.275
   50CHL1  H11A 4841   3.663   1.169   3.291
   50CHL1  H11B 4842   3.503   1.209   3.225
   50CHL1    C9 4843   3.634   1.377   3.195
   50CHL1    H9 4844   3.541   1.438   3.203
   50CHL1   C10 4845   3.674   1.343   3.048
   50CHL1   C19 4846   3.793   1.243   3.055
   50CHL1  H19A 4847   3.868   1.297   3.115
   50CHL1  H19B 4848   3.765   1.143   3.093
   50CHL1  H19C 4849   3.839   1.224   2.955
   50CHL1    C1 4850   3.558   1.289   2.966
   50CHL1   H1A 4851   3.537   1.183   2.991
   50CHL1   H1B 4852   3.467   1.350   2.984
   50CHL1    C2 4853   3.581   1.270   2.815
   50CHL1   H2A 4854   3.490   1.224   2.771
   50CHL1   H2B 4855   3.673   1.209   2.806
   50CHL1   C20 4856   3.635   1.335   3.738
   50CHL1   H20 4857   3.608   1.234   3.702
   50CHL1   C21 4858   3.517   1.379   3.826
   50CHL1  H21A 4859   3.537   1.466   3.892
   50CHL1  H21B 4860   3.483   1.295   3.890
   50CHL1  H21C 4861   3.421   1.403   3.775
   50CHL1   C22 4862   3.768   1.333   3.822
   50CHL1  H22A 4863   3.858   1.333   3.757
   50CHL1  H22B 4864   3.768   1.426   3.884
   50CHL1   C23 4865   3.779   1.210   3.910
   50CHL1  H23A 4866   3.689   1.219   3.974
   50CHL1  H23B 4867   3.770   1.120   3.846
   50CHL1   C24 4868   3.917   1.202   3.970
   50CHL1  H24A 4869   3.992   1.199   3.888
   50CHL1  H24B 4870   3.941   1.295   4.026
   50CHL1   C25 4871   3.953   1.078   4.059
   50CHL1   H25 4872   3.926   0.986   4.004
   50CHL1   C26 4873   4.104   1.069   4.094
   50CHL1  H26A 4874   4.136   0.969   4.128
   50CHL1  H26B 4875   4.164   1.093   4.003
   50CHL1  H26C 4876   4.123   1.134   4.182
   50CHL1   C27 4877   3.873   1.080   4.195
   50CHL1  H27A 4878   3.764   1.078   4.172
   50CHL1  H27B 4879   3.903   0.990   4.254
   50CHL1  H27C 4880   3.912   1.170   4.247
   51CHL1    C3 4881   3.945   2.683   2.587
   51CHL1    H3 4882   3.876   2.597   2.576
   51CHL1    O3 4883   3.969   2.742   2.459
   51CHL1   H3' 4884   4.008   2.824   2.489
   51CHL1    C4 4885   3.879   2.787   2.682
   51CHL1   H4A 4886   3.937   2.882   2.676
   51CHL1   H4B 4887   3.777   2.811   2.645
   51CHL1    C5 4888   3.871   2.725   2.822
   51CHL1    C6 4889   3.758   2.703   2.894
   51CHL1    H6 4890   3.664   2.717   2.839
   51CHL1    C7 4891   3.757   2.654   3.040
   51CHL1   H7A 4892   3.676   2.694   3.105
   51CHL1   H7B 4893   3.746   2.543   3.034
   51CHL1    C8 4894   3.891   2.675   3.117
   51CHL1    H8 4895   3.904   2.785   3.128
   51CHL1   C14 4896   3.892   2.598   3.245
   51CHL1   H14 4897   3.883   2.493   3.210
   51CHL1   C15 4898   3.778   2.623   3.341
   51CHL1  H15A 4899   3.753   2.730   3.356
   51CHL1  H15B 4900   3.681   2.576   3.314
   51CHL1   C16 4901   3.839   2.574   3.476
   51CHL1  H16A 4902   3.832   2.660   3.546
   51CHL1  H16B 4903   3.779   2.495   3.527
   51CHL1   C17 4904   3.986   2.522   3.450
   51CHL1   H17 4905   3.972   2.417   3.416
   51CHL1   C13 4906   4.019   2.599   3.322
   51CHL1   C18 4907   4.057   2.745   3.369
   51CHL1  H18A 4908   4.045   2.816   3.284
   51CHL1  H18B 4909   3.984   2.780   3.445
   51CHL1  H18C 4910   4.160   2.760   3.408
   51CHL1   C12 4911   4.128   2.531   3.235
   51CHL1  H12A 4912   4.223   2.531   3.293
   51CHL1  H12B 4913   4.098   2.425   3.219
   51CHL1   C11 4914   4.138   2.614   3.102
   51CHL1  H11A 4915   4.170   2.717   3.126
   51CHL1  H11B 4916   4.213   2.570   3.033
   51CHL1    C9 4917   4.004   2.619   3.029
   51CHL1    H9 4918   3.980   2.512   3.007
   51CHL1   C10 4919   4.011   2.686   2.885
   51CHL1   C19 4920   4.112   2.802   2.886
   51CHL1  H19A 4921   4.215   2.764   2.904
   51CHL1  H19B 4922   4.114   2.854   2.788
   51CHL1  H19C 4923   4.101   2.875   2.969
   51CHL1    C1 4924   4.066   2.581   2.783
   51CHL1   H1A 4925   4.169   2.552   2.815
   51CHL1   H1B 4926   4.013   2.483   2.788
   51CHL1    C2 4927   4.076   2.629   2.646
   51CHL1   H2A 4928   4.116   2.551   2.577
   51CHL1   H2B 4929   4.149   2.711   2.630
   51CHL1   C20 4930   4.071   2.531   3.578
   51CHL1   H20 4931   4.098   2.636   3.600
   51CHL1   C21 4932   4.205   2.460   3.550
   51CHL1  H21A 4933   4.278   2.510   3.482
   51CHL1  H21B 4934   4.188   2.358   3.510
   51CHL1  H21C 4935   4.258   2.432   3.643
   51CHL1   C22 4936   3.986   2.468   3.698
   51CHL1  H22A 4937   3.918   2.552   3.724
   51CHL1  H22B 4938   3.926   2.377   3.677
   51CHL1   C23 4939   4.071   2.439   3.825
   51CHL1  H23A 4940   4.142   2.355   3.813
   51CHL1  H23B 4941   4.136   2.528   3.840
   51CHL1   C24 4942   3.987   2.421   3.952
   51CHL1  H24A 4943   3.921   2.510   3.961
   51CHL1  H24B 4944   3.921   2.332   3.951
   51CHL1   C25 4945   4.077   2.413   4.080
   51CHL1   H25 4946   4.160   2.484   4.061
   51CHL1   C26 4947   4.011   2.464   4.214
   51CHL1  H26A 4948   3.925   2.398   4.239
   51CHL1  H26B 4949   4.081   2.478   4.298
   51CHL1  H26C 4950   3.967   2.565   4.199
   51CHL1   C27 4951   4.150   2.274   4.103
   51CHL1  H27A 4952   4.075   2.192   4.109
   51CHL1  H27B 4953   4.219   2.260   4.017
   51CHL1  H27C 4954   4.215   2.269   4.193
   52CHL1    C3 4955   3.363   4.006   2.595
   52CHL1    H3 4956   3.256   4.034   2.602
   52CHL1    O3 4957   3.413   4.024   2.465
   52CHL1   H3' 4958   3.507   4.009   2.480
   52CHL1    C4 4959   3.459   4.079   2.690
   52CHL1   H4A 4960   3.559   4.036   2.667
   52CHL1   H4B 4961   3.458   4.185   2.656
   52CHL1    C5 4962   3.417   4.062   2.834
   52CHL1    C6 4963   3.384   4.168   2.906
   52CHL1    H6 4964   3.380   4.261   2.848
   52CHL1    C7 4965   3.341   4.147   3.045
   52CHL1   H7A 4966   3.382   4.220   3.117
   52CHL1   H7B 4967   3.230   4.146   3.057
   52CHL1    C8 4968   3.386   4.011   3.107
   52CHL1    H8 4969   3.497   4.006   3.108
   52CHL1   C14 4970   3.328   3.993   3.243
   52CHL1   H14 4971   3.218   4.002   3.229
   52CHL1   C15 4972   3.361   4.099   3.346
   52CHL1  H15A 4973   3.469   4.123   3.332
   52CHL1  H15B 4974   3.304   4.192   3.323
   52CHL1   C16 4975   3.317   4.039   3.476
   52CHL1  H16A 4976   3.387   4.063   3.559
   52CHL1  H16B 4977   3.220   4.088   3.500
   52CHL1   C17 4978   3.291   3.892   3.454
   52CHL1   H17 4979   3.180   3.880   3.447
   52CHL1   C13 4980   3.359   3.864   3.314
   52CHL1   C18 4981   3.514   3.851   3.327
   52CHL1  H18A 4982   3.546   3.932   3.396
   52CHL1  H18B 4983   3.540   3.757   3.381
   52CHL1  H18C 4984   3.559   3.859   3.225
   52CHL1   C12 4985   3.301   3.747   3.227
   52CHL1  H12A 4986   3.334   3.654   3.278
   52CHL1  H12B 4987   3.190   3.754   3.226
   52CHL1   C11 4988   3.355   3.756   3.083
   52CHL1  H11A 4989   3.456   3.713   3.075
   52CHL1  H11B 4990   3.295   3.688   3.019
   52CHL1    C9 4991   3.344   3.895   3.013
   52CHL1    H9 4992   3.234   3.908   3.001
   52CHL1   C10 4993   3.412   3.909   2.875
   52CHL1   C19 4994   3.557   3.855   2.871
   52CHL1  H19A 4995   3.554   3.748   2.902
   52CHL1  H19B 4996   3.602   3.868   2.771
   52CHL1  H19C 4997   3.626   3.906   2.942
   52CHL1    C1 4998   3.322   3.822   2.772
   52CHL1   H1A 4999   3.336   3.716   2.801
   52CHL1   H1B 5000   3.221   3.857   2.802
   52CHL1    C2 5001   3.350   3.854   2.623
   52CHL1   H2A 5002   3.275   3.814   2.552
   52CHL1   H2B 5003   3.447   3.806   2.597
   52CHL1   C20 5004   3.327   3.802   3.577
   52CHL1   H20 5005   3.436   3.814   3.595
   52CHL1   C21 5006   3.309   3.654   3.556
   52CHL1  H21A 5007   3.341   3.602   3.649
   52CHL1  H21B 5008   3.384   3.619   3.482
   52CHL1  H21C 5009   3.203   3.642   3.523
   52CHL1   C22 5010   3.244   3.836   3.701
   52CHL1  H22A 5011   3.219   3.945   3.701
   52CHL1  H22B 5012   3.147   3.783   3.690
   52CHL1   C23 5013   3.313   3.801   3.835
   52CHL1  H23A 5014   3.320   3.691   3.847
   52CHL1  H23B 5015   3.415   3.843   3.831
   52CHL1   C24 5016   3.228   3.856   3.954
   52CHL1  H24A 5017   3.245   3.965   3.945
   52CHL1  H24B 5018   3.122   3.825   3.941
   52CHL1   C25 5019   3.272   3.806   4.088
   52CHL1   H25 5020   3.282   3.696   4.072
   52CHL1   C26 5021   3.410   3.859   4.125
   52CHL1  H26A 5022   3.451   3.830   4.225
   52CHL1  H26B 5023   3.491   3.837   4.053
   52CHL1  H26C 5024   3.407   3.969   4.129
   52CHL1   C27 5025   3.169   3.854   4.188
   52CHL1  H27A 5026   3.082   3.788   4.165
   52CHL1  H27B 5027   3.194   3.817   4.290
   52CHL1  H27C 5028   3.144   3.961   4.175
   53CHL1    C3 5029   3.270   3.040   2.826
   53CHL1    H3 5030   3.340   3.124   2.805
   53CHL1    O3 5031   3.220   2.999   2.700
   53CHL1   H3' 5032   3.176   2.914   2.712
   53CHL1    C4 5033   3.348   2.930   2.896
   53CHL1   H4A 5034   3.281   2.841   2.889
   53CHL1   H4B 5035   3.438   2.895   2.841
   53CHL1    C5 5036   3.382   2.941   3.048
   53CHL1    C6 5037   3.509   2.935   3.091
   53CHL1    H6 5038   3.593   2.913   3.024
   53CHL1    C7 5039   3.540   2.949   3.232
   53CHL1   H7A 5040   3.609   2.878   3.282
   53CHL1   H7B 5041   3.583   3.049   3.255
   53CHL1    C8 5042   3.412   2.944   3.327
   53CHL1    H8 5043   3.377   2.839   3.337
   53CHL1   C14 5044   3.448   2.999   3.472
   53CHL1   H14 5045   3.472   3.106   3.455
   53CHL1   C15 5046   3.566   2.935   3.537
   53CHL1  H15A 5047   3.576   2.830   3.501
   53CHL1  H15B 5048   3.659   2.990   3.511
   53CHL1   C16 5049   3.540   2.949   3.686
   53CHL1  H16A 5050   3.544   2.850   3.738
   53CHL1  H16B 5051   3.625   3.007   3.728
   53CHL1   C17 5052   3.406   3.036   3.694
   53CHL1   H17 5053   3.438   3.140   3.673
   53CHL1   C13 5054   3.330   2.995   3.571
   53CHL1   C18 5055   3.273   2.853   3.590
   53CHL1  H18A 5056   3.221   2.813   3.501
   53CHL1  H18B 5057   3.355   2.785   3.622
   53CHL1  H18C 5058   3.196   2.857   3.670
   53CHL1   C12 5059   3.226   3.091   3.513
   53CHL1  H12A 5060   3.139   3.100   3.582
   53CHL1  H12B 5061   3.272   3.191   3.502
   53CHL1   C11 5062   3.186   3.057   3.375
   53CHL1  H11A 5063   3.135   2.958   3.381
   53CHL1  H11B 5064   3.113   3.134   3.343
   53CHL1    C9 5065   3.304   3.039   3.274
   53CHL1    H9 5066   3.350   3.139   3.263
   53CHL1   C10 5067   3.260   2.988   3.137
   53CHL1   C19 5068   3.160   2.874   3.145
   53CHL1  H19A 5069   3.135   2.837   3.043
   53CHL1  H19B 5070   3.196   2.789   3.207
   53CHL1  H19C 5071   3.062   2.911   3.181
   53CHL1    C1 5072   3.195   3.110   3.057
   53CHL1   H1A 5073   3.105   3.143   3.114
   53CHL1   H1B 5074   3.269   3.192   3.066
   53CHL1    C2 5075   3.160   3.092   2.909
   53CHL1   H2A 5076   3.130   3.192   2.870
   53CHL1   H2B 5077   3.075   3.020   2.911
   53CHL1   C20 5078   3.329   3.027   3.830
   53CHL1   H20 5079   3.221   3.045   3.816
   53CHL1   C21 5080   3.395   3.136   3.920
   53CHL1  H21A 5081   3.397   3.234   3.870
   53CHL1  H21B 5082   3.503   3.113   3.933
   53CHL1  H21C 5083   3.364   3.153   4.026
   53CHL1   C22 5084   3.335   2.888   3.897
   53CHL1  H22A 5085   3.314   2.802   3.829
   53CHL1  H22B 5086   3.433   2.875   3.946
   53CHL1   C23 5087   3.224   2.871   4.001
   53CHL1  H23A 5088   3.236   2.959   4.068
   53CHL1  H23B 5089   3.133   2.875   3.937
   53CHL1   C24 5090   3.237   2.739   4.075
   53CHL1  H24A 5091   3.218   2.649   4.012
   53CHL1  H24B 5092   3.337   2.739   4.122
   53CHL1   C25 5093   3.124   2.747   4.175
   53CHL1   H25 5094   3.125   2.852   4.212
   53CHL1   C26 5095   2.992   2.724   4.102
   53CHL1  H26A 5096   2.994   2.623   4.056
   53CHL1  H26B 5097   2.914   2.737   4.180
   53CHL1  H26C 5098   2.964   2.801   4.025
   53CHL1   C27 5099   3.145   2.647   4.285
   53CHL1  H27A 5100   3.246   2.661   4.329
   53CHL1  H27B 5101   3.074   2.648   4.371
   53CHL1  H27C 5102   3.137   2.547   4.236
   54CHL1    C3 5103   2.665   3.061   3.037
   54CHL1    H3 5104   2.694   3.167   3.055
   54CHL1    O3 5105   2.688   3.034   2.903
   54CHL1   H3' 5106   2.703   2.940   2.892
   54CHL1    C4 5107   2.762   2.970   3.117
   54CHL1   H4A 5108   2.751   2.864   3.084
   54CHL1   H4B 5109   2.865   2.984   3.078
   54CHL1    C5 5110   2.734   2.984   3.264
   54CHL1    C6 5111   2.830   3.025   3.346
   54CHL1    H6 5112   2.931   3.042   3.306
   54CHL1    C7 5113   2.821   3.040   3.492
   54CHL1   H7A 5114   2.911   3.000   3.542
   54CHL1   H7B 5115   2.785   3.138   3.530
   54CHL1    C8 5116   2.701   2.958   3.541
   54CHL1    H8 5117   2.716   2.848   3.532
   54CHL1   C14 5118   2.689   2.982   3.687
   54CHL1   H14 5119   2.679   3.093   3.690
   54CHL1   C15 5120   2.804   2.934   3.783
   54CHL1  H15A 5121   2.838   2.831   3.759
   54CHL1  H15B 5122   2.885   3.010   3.780
   54CHL1   C16 5123   2.740   2.927   3.925
   54CHL1  H16A 5124   2.741   2.825   3.971
   54CHL1  H16B 5125   2.804   2.986   3.994
   54CHL1   C17 5126   2.594   2.982   3.907
   54CHL1   H17 5127   2.609   3.092   3.915
   54CHL1   C13 5128   2.562   2.936   3.764
   54CHL1   C18 5129   2.554   2.784   3.744
   54CHL1  H18A 5130   2.558   2.742   3.641
   54CHL1  H18B 5131   2.640   2.733   3.792
   54CHL1  H18C 5132   2.462   2.747   3.794
   54CHL1   C12 5133   2.444   3.005   3.690
   54CHL1  H12A 5134   2.354   2.966   3.742
   54CHL1  H12B 5135   2.457   3.115   3.702
   54CHL1   C11 5136   2.446   2.970   3.533
   54CHL1  H11A 5137   2.421   2.863   3.512
   54CHL1  H11B 5138   2.360   3.027   3.492
   54CHL1    C9 5139   2.582   2.998   3.461
   54CHL1    H9 5140   2.576   3.108   3.449
   54CHL1   C10 5141   2.593   2.956   3.315
   54CHL1   C19 5142   2.569   2.803   3.294
   54CHL1  H19A 5143   2.573   2.779   3.186
   54CHL1  H19B 5144   2.651   2.745   3.342
   54CHL1  H19C 5145   2.472   2.767   3.334
   54CHL1    C1 5146   2.486   3.042   3.235
   54CHL1   H1A 5147   2.388   2.992   3.248
   54CHL1   H1B 5148   2.483   3.152   3.251
   54CHL1    C2 5149   2.517   3.032   3.080
   54CHL1   H2A 5150   2.443   3.096   3.027
   54CHL1   H2B 5151   2.493   2.929   3.043
   54CHL1   C20 5152   2.494   2.942   4.023
   54CHL1   H20 5153   2.450   2.843   3.999
   54CHL1   C21 5154   2.374   3.040   4.029
   54CHL1  H21A 5155   2.293   3.014   4.101
   54CHL1  H21B 5156   2.320   3.052   3.932
   54CHL1  H21C 5157   2.413   3.138   4.064
   54CHL1   C22 5158   2.557   2.927   4.163
   54CHL1  H22A 5159   2.485   2.873   4.229
   54CHL1  H22B 5160   2.631   2.848   4.137
   54CHL1   C23 5161   2.618   3.049   4.231
   54CHL1  H23A 5162   2.658   3.125   4.161
   54CHL1  H23B 5163   2.529   3.093   4.281
   54CHL1   C24 5164   2.724   3.034   4.338
   54CHL1  H24A 5165   2.673   2.988   4.425
   54CHL1  H24B 5166   2.800   2.958   4.310
   54CHL1   C25 5167   2.810   3.162   4.383
   54CHL1   H25 5168   2.873   3.186   4.294
   54CHL1   C26 5169   2.741   3.301   4.402
   54CHL1  H26A 5170   2.687   3.320   4.307
   54CHL1  H26B 5171   2.675   3.308   4.491
   54CHL1  H26C 5172   2.822   3.376   4.411
   54CHL1   C27 5173   2.897   3.130   4.509
   54CHL1  H27A 5174   2.906   3.020   4.527
   54CHL1  H27B 5175   2.999   3.173   4.497
   54CHL1  H27C 5176   2.844   3.173   4.597
   55CHL1    C3 5177   3.642   6.250   2.769
   55CHL1    H3 5178   3.541   6.295   2.776
   55CHL1    O3 5179   3.679   6.271   2.630
   55CHL1   H3' 5180   3.765   6.235   2.607
   55CHL1    C4 5181   3.742   6.323   2.863
   55CHL1   H4A 5182   3.837   6.273   2.834
   55CHL1   H4B 5183   3.759   6.433   2.856
   55CHL1    C5 5184   3.713   6.282   3.008
   55CHL1    C6 5185   3.695   6.380   3.098
   55CHL1    H6 5186   3.707   6.486   3.071
   55CHL1    C7 5187   3.679   6.349   3.241
   55CHL1   H7A 5188   3.731   6.423   3.307
   55CHL1   H7B 5189   3.572   6.365   3.266
   55CHL1    C8 5190   3.714   6.197   3.284
   55CHL1    H8 5191   3.824   6.189   3.298
   55CHL1   C14 5192   3.649   6.165   3.422
   55CHL1   H14 5193   3.541   6.186   3.406
   55CHL1   C15 5194   3.690   6.253   3.546
   55CHL1  H15A 5195   3.801   6.259   3.542
   55CHL1  H15B 5196   3.649   6.356   3.541
   55CHL1   C16 5197   3.636   6.169   3.666
   55CHL1  H16A 5198   3.708   6.166   3.751
   55CHL1  H16B 5199   3.545   6.203   3.719
   55CHL1   C17 5200   3.603   6.036   3.608
   55CHL1   H17 5201   3.494   6.038   3.587
   55CHL1   C13 5202   3.676   6.023   3.472
   55CHL1   C18 5203   3.829   5.985   3.489
   55CHL1  H18A 5204   3.870   6.041   3.576
   55CHL1  H18B 5205   3.854   5.877   3.490
   55CHL1  H18C 5206   3.889   6.017   3.401
   55CHL1   C12 5207   3.613   5.929   3.365
   55CHL1  H12A 5208   3.626   5.824   3.398
   55CHL1  H12B 5209   3.504   5.952   3.366
   55CHL1   C11 5210   3.667   5.948   3.226
   55CHL1  H11A 5211   3.774   5.920   3.233
   55CHL1  H11B 5212   3.624   5.875   3.153
   55CHL1    C9 5213   3.650   6.101   3.180
   55CHL1    H9 5214   3.540   6.116   3.183
   55CHL1   C10 5215   3.704   6.131   3.035
   55CHL1   C19 5216   3.842   6.060   3.020
   55CHL1  H19A 5217   3.900   6.108   2.939
   55CHL1  H19B 5218   3.902   6.080   3.112
   55CHL1  H19C 5219   3.837   5.952   2.998
   55CHL1    C1 5220   3.606   6.070   2.935
   55CHL1   H1A 5221   3.616   5.960   2.930
   55CHL1   H1B 5222   3.504   6.109   2.956
   55CHL1    C2 5223   3.647   6.103   2.793
   55CHL1   H2A 5224   3.579   6.049   2.724
   55CHL1   H2B 5225   3.747   6.058   2.773
   55CHL1   C20 5226   3.620   5.923   3.713
   55CHL1   H20 5227   3.719   5.923   3.763
   55CHL1   C21 5228   3.586   5.791   3.652
   55CHL1  H21A 5229   3.479   5.797   3.622
   55CHL1  H21B 5230   3.581   5.714   3.732
   55CHL1  H21C 5231   3.651   5.752   3.570
   55CHL1   C22 5232   3.526   5.941   3.839
   55CHL1  H22A 5233   3.534   6.035   3.899
   55CHL1  H22B 5234   3.420   5.922   3.810
   55CHL1   C23 5235   3.565   5.842   3.955
   55CHL1  H23A 5236   3.598   5.742   3.920
   55CHL1  H23B 5237   3.654   5.887   4.004
   55CHL1   C24 5238   3.467   5.820   4.063
   55CHL1  H24A 5239   3.385   5.894   4.076
   55CHL1  H24B 5240   3.421   5.719   4.055
   55CHL1   C25 5241   3.532   5.818   4.204
   55CHL1   H25 5242   3.580   5.917   4.220
   55CHL1   C26 5243   3.431   5.808   4.318
   55CHL1  H26A 5244   3.485   5.790   4.414
   55CHL1  H26B 5245   3.366   5.898   4.320
   55CHL1  H26C 5246   3.360   5.725   4.300
   55CHL1   C27 5247   3.654   5.722   4.208
   55CHL1  H27A 5248   3.696   5.701   4.309
   55CHL1  H27B 5249   3.623   5.626   4.163
   55CHL1  H27C 5250   3.745   5.749   4.151
   56CHL1    C3 5251   5.809   1.727   2.759
   56CHL1    H3 5252   5.864   1.824   2.762
   56CHL1    O3 5253   5.756   1.688   2.631
   56CHL1   H3' 5254   5.702   1.612   2.654
   56CHL1    C4 5255   5.905   1.614   2.812
   56CHL1   H4A 5256   5.850   1.518   2.808
   56CHL1   H4B 5257   5.985   1.606   2.736
   56CHL1    C5 5258   5.950   1.645   2.953
   56CHL1    C6 5259   6.085   1.656   2.975
   56CHL1    H6 5260   6.153   1.629   2.892
   56CHL1    C7 5261   6.146   1.690   3.105
   56CHL1   H7A 5262   6.240   1.636   3.129
   56CHL1   H7B 5263   6.184   1.794   3.110
   56CHL1    C8 5264   6.040   1.671   3.220
   56CHL1    H8 5265   6.021   1.562   3.230
   56CHL1   C14 5266   6.089   1.722   3.350
   56CHL1   H14 5267   6.091   1.833   3.344
   56CHL1   C15 5268   6.225   1.673   3.404
   56CHL1  H15A 5269   6.222   1.562   3.410
   56CHL1  H15B 5270   6.310   1.702   3.339
   56CHL1   C16 5271   6.232   1.728   3.546
   56CHL1  H16A 5272   6.259   1.639   3.607
   56CHL1  H16B 5273   6.301   1.815   3.547
   56CHL1   C17 5274   6.087   1.768   3.583
   56CHL1   H17 5275   6.085   1.876   3.559
   56CHL1   C13 5276   5.996   1.704   3.468
   56CHL1   C18 5277   5.963   1.554   3.498
   56CHL1  H18A 5278   5.892   1.515   3.421
   56CHL1  H18B 5279   6.047   1.483   3.485
   56CHL1  H18C 5280   5.917   1.547   3.599
   56CHL1   C12 5281   5.863   1.778   3.439
   56CHL1  H12A 5282   5.797   1.752   3.524
   56CHL1  H12B 5283   5.883   1.887   3.443
   56CHL1   C11 5284   5.801   1.751   3.306
   56CHL1  H11A 5285   5.738   1.663   3.333
   56CHL1  H11B 5286   5.738   1.838   3.279
   56CHL1    C9 5287   5.902   1.739   3.184
   56CHL1    H9 5288   5.925   1.844   3.154
   56CHL1   C10 5289   5.840   1.686   3.048
   56CHL1   C19 5290   5.768   1.556   3.087
   56CHL1  H19A 5291   5.686   1.571   3.160
   56CHL1  H19B 5292   5.726   1.493   3.005
   56CHL1  H19C 5293   5.846   1.496   3.138
   56CHL1    C1 5294   5.740   1.791   2.991
   56CHL1   H1A 5295   5.653   1.799   3.060
   56CHL1   H1B 5296   5.797   1.887   2.994
   56CHL1    C2 5297   5.691   1.753   2.848
   56CHL1   H2A 5298   5.627   1.829   2.798
   56CHL1   H2B 5299   5.634   1.661   2.873
   56CHL1   C20 5300   6.044   1.759   3.731
   56CHL1   H20 5301   6.045   1.648   3.744
   56CHL1   C21 5302   5.907   1.819   3.765
   56CHL1  H21A 5303   5.832   1.770   3.699
   56CHL1  H21B 5304   5.897   1.927   3.739
   56CHL1  H21C 5305   5.884   1.793   3.871
   56CHL1   C22 5306   6.151   1.823   3.824
   56CHL1  H22A 5307   6.242   1.762   3.805
   56CHL1  H22B 5308   6.193   1.924   3.807
   56CHL1   C23 5309   6.113   1.821   3.976
   56CHL1  H23A 5310   6.019   1.879   3.987
   56CHL1  H23B 5311   6.096   1.714   4.002
   56CHL1   C24 5312   6.216   1.868   4.079
   56CHL1  H24A 5313   6.314   1.820   4.059
   56CHL1  H24B 5314   6.228   1.978   4.067
   56CHL1   C25 5315   6.167   1.839   4.221
   56CHL1   H25 5316   6.164   1.728   4.213
   56CHL1   C26 5317   6.285   1.865   4.317
   56CHL1  H26A 5318   6.380   1.821   4.281
   56CHL1  H26B 5319   6.294   1.975   4.334
   56CHL1  H26C 5320   6.260   1.814   4.413
   56CHL1   C27 5321   6.037   1.898   4.261
   56CHL1  H27A 5322   5.965   1.872   4.180
   56CHL1  H27B 5323   6.009   1.855   4.360
   56CHL1  H27C 5324   6.051   2.008   4.271
   57CHL1    C3 5325   4.620   6.596   2.878
   57CHL1    H3 5326   4.661   6.699   2.881
   57CHL1    O3 5327   4.606   6.563   2.744
   57CHL1   H3' 5328   4.570   6.474   2.741
   57CHL1    C4 5329   4.720   6.495   2.934
   57CHL1   H4A 5330   4.684   6.392   2.913
   57CHL1   H4B 5331   4.809   6.511   2.869
   57CHL1    C5 5332   4.740   6.526   3.081
   57CHL1    C6 5333   4.861   6.550   3.136
   57CHL1    H6 5334   4.949   6.559   3.070
   57CHL1    C7 5335   4.884   6.568   3.285
   57CHL1   H7A 5336   4.979   6.514   3.301
   57CHL1   H7B 5337   4.899   6.675   3.310
   57CHL1    C8 5338   4.763   6.512   3.368
   57CHL1    H8 5339   4.758   6.402   3.360
   57CHL1   C14 5340   4.774   6.546   3.518
   57CHL1   H14 5341   4.784   6.657   3.527
   57CHL1   C15 5342   4.897   6.509   3.594
   57CHL1  H15A 5343   4.912   6.399   3.581
   57CHL1  H15B 5344   4.988   6.562   3.561
   57CHL1   C16 5345   4.863   6.528   3.743
   57CHL1  H16A 5346   4.893   6.433   3.793
   57CHL1  H16B 5347   4.915   6.610   3.796
   57CHL1   C17 5348   4.712   6.566   3.752
   57CHL1   H17 5349   4.717   6.677   3.745
   57CHL1   C13 5350   4.659   6.521   3.610
   57CHL1   C18 5351   4.639   6.359   3.623
   57CHL1  H18A 5352   4.656   6.317   3.521
   57CHL1  H18B 5353   4.721   6.325   3.690
   57CHL1  H18C 5354   4.534   6.332   3.647
   57CHL1   C12 5355   4.524   6.584   3.557
   57CHL1  H12A 5356   4.433   6.562   3.616
   57CHL1  H12B 5357   4.548   6.693   3.557
   57CHL1   C11 5358   4.502   6.545   3.411
   57CHL1  H11A 5359   4.469   6.440   3.399
   57CHL1  H11B 5360   4.427   6.618   3.374
   57CHL1    C9 5361   4.629   6.567   3.313
   57CHL1    H9 5362   4.645   6.676   3.298
   57CHL1   C10 5363   4.611   6.511   3.163
   57CHL1   C19 5364   4.570   6.360   3.167
   57CHL1  H19A 5365   4.472   6.350   3.218
   57CHL1  H19B 5366   4.556   6.325   3.062
   57CHL1  H19C 5367   4.653   6.301   3.213
   57CHL1    C1 5368   4.499   6.601   3.100
   57CHL1   H1A 5369   4.403   6.566   3.144
   57CHL1   H1B 5370   4.524   6.708   3.115
   57CHL1    C2 5371   4.483   6.591   2.945
   57CHL1   H2A 5372   4.414   6.667   2.903
   57CHL1   H2B 5373   4.444   6.488   2.929
   57CHL1   C20 5374   4.633   6.526   3.876
   57CHL1   H20 5375   4.611   6.419   3.858
   57CHL1   C21 5376   4.505   6.609   3.896
   57CHL1  H21A 5377   4.448   6.579   3.987
   57CHL1  H21B 5378   4.428   6.583   3.821
   57CHL1  H21C 5379   4.530   6.717   3.910
   57CHL1   C22 5380   4.725   6.528   3.993
   57CHL1  H22A 5381   4.690   6.461   4.075
   57CHL1  H22B 5382   4.829   6.488   3.985
   57CHL1   C23 5383   4.743   6.670   4.048
   57CHL1  H23A 5384   4.764   6.735   3.960
   57CHL1  H23B 5385   4.654   6.707   4.104
   57CHL1   C24 5386   4.854   6.686   4.142
   57CHL1  H24A 5387   4.829   6.634   4.237
   57CHL1  H24B 5388   4.949   6.639   4.107
   57CHL1   C25 5389   4.881   0.006   4.180
   57CHL1   H25 5390   4.785   0.061   4.184
   57CHL1   C26 5391   4.939   0.017   4.324
   57CHL1  H26A 5392   4.915   0.118   4.364
   57CHL1  H26B 5393   4.886   6.768   4.388
   57CHL1  H26C 5394   5.046   6.812   4.325
   57CHL1   C27 5395   4.970   0.083   4.083
   57CHL1  H27A 5396   4.957   0.193   4.085
   57CHL1  H27B 5397   5.081   0.075   4.092
   57CHL1  H27C 5398   4.947   0.048   3.980
   58CHL1    C3 5399   4.554   0.490   2.981
   58CHL1    H3 5400   4.660   0.469   3.004
   58CHL1    O3 5401   4.526   0.499   2.843
   58CHL1   H3' 5402   4.433   0.522   2.841
   58CHL1    C4 5403   4.476   0.369   3.037
   58CHL1   H4A 5404   4.369   0.390   3.018
   58CHL1   H4B 5405   4.514   0.276   2.991
   58CHL1    C5 5406   4.483   0.349   3.187
   58CHL1    C6 5407   4.503   0.225   3.242
   58CHL1    H6 5408   4.529   0.140   3.178
   58CHL1    C7 5409   4.511   0.200   3.390
   58CHL1   H7A 5410   4.446   0.115   3.420
   58CHL1   H7B 5411   4.612   0.163   3.416
   58CHL1    C8 5412   4.470   0.325   3.479
   58CHL1    H8 5413   4.362   0.330   3.500
   58CHL1   C14 5414   4.543   0.314   3.616
   58CHL1   H14 5415   4.650   0.338   3.596
   58CHL1   C15 5416   4.543   0.181   3.682
   58CHL1  H15A 5417   4.444   0.130   3.682
   58CHL1  H15B 5418   4.597   0.104   3.623
   58CHL1   C16 5419   4.595   0.216   3.824
   58CHL1  H16A 5420   4.517   0.193   3.899
   58CHL1  H16B 5421   4.691   0.166   3.851
   58CHL1   C17 5422   4.603   0.374   3.836
   58CHL1   H17 5423   4.711   0.392   3.815
   58CHL1   C13 5424   4.506   0.419   3.716
   58CHL1   C18 5425   4.361   0.408   3.770
   58CHL1  H18A 5426   4.291   0.414   3.685
   58CHL1  H18B 5427   4.339   0.312   3.822
   58CHL1  H18C 5428   4.347   0.495   3.838
   58CHL1   C12 5429   4.529   0.560   3.647
   58CHL1  H12A 5430   4.493   0.643   3.711
   58CHL1  H12B 5431   4.639   0.571   3.631
   58CHL1   C11 5432   4.465   0.576   3.507
   58CHL1  H11A 5433   4.354   0.574   3.523
   58CHL1  H11B 5434   4.494   0.676   3.469
   58CHL1    C9 5435   4.497   0.464   3.410
   58CHL1    H9 5436   4.607   0.465   3.399
   58CHL1   C10 5437   4.454   0.477   3.263
   58CHL1   C19 5438   4.308   0.497   3.267
   58CHL1  H19A 5439   4.276   0.536   3.168
   58CHL1  H19B 5440   4.252   0.402   3.271
   58CHL1  H19C 5441   4.272   0.573   3.340
   58CHL1    C1 5442   4.522   0.602   3.202
   58CHL1   H1A 5443   4.480   0.688   3.259
   58CHL1   H1B 5444   4.629   0.596   3.232
   58CHL1    C2 5445   4.511   0.615   3.054
   58CHL1   H2A 5446   4.577   0.697   3.017
   58CHL1   H2B 5447   4.405   0.639   3.030
   58CHL1   C20 5448   4.578   0.429   3.976
   58CHL1   H20 5449   4.470   0.412   3.996
   58CHL1   C21 5450   4.605   0.583   3.973
   58CHL1  H21A 5451   4.523   0.642   3.925
   58CHL1  H21B 5452   4.700   0.617   3.926
   58CHL1  H21C 5453   4.607   0.625   4.075
   58CHL1   C22 5454   4.671   0.357   4.087
   58CHL1  H22A 5455   4.643   0.249   4.082
   58CHL1  H22B 5456   4.777   0.372   4.055
   58CHL1   C23 5457   4.653   0.400   4.228
   58CHL1  H23A 5458   4.706   0.497   4.240
   58CHL1  H23B 5459   4.544   0.404   4.251
   58CHL1   C24 5460   4.731   0.312   4.331
   58CHL1  H24A 5461   4.696   0.208   4.317
   58CHL1  H24B 5462   4.839   0.302   4.309
   58CHL1   C25 5463   4.708   0.356   4.473
   58CHL1   H25 5464   4.738   0.462   4.491
   58CHL1   C26 5465   4.555   0.339   4.506
   58CHL1  H26A 5466   4.555   0.348   4.617
   58CHL1  H26B 5467   4.496   0.420   4.459
   58CHL1  H26C 5468   4.521   0.240   4.471
   58CHL1   C27 5469   4.791   0.276   4.578
   58CHL1  H27A 5470   4.897   0.291   4.547
   58CHL1  H27B 5471   4.771   0.313   4.681
   58CHL1  H27C 5472   4.765   0.168   4.584
   59CHL1    C3 5473   2.992   4.635   2.555
   59CHL1    H3 5474   2.939   4.554   2.500
   59CHL1    O3 5475   3.036   4.721   2.452
   59CHL1   H3' 5476   3.088   4.787   2.497
   59CHL1    C4 5477   2.896   4.721   2.655
   59CHL1   H4A 5478   2.948   4.814   2.686
   59CHL1   H4B 5479   2.803   4.744   2.601
   59CHL1    C5 5480   2.875   4.651   2.787
   59CHL1    C6 5481   2.755   4.639   2.837
   59CHL1    H6 5482   2.675   4.687   2.779
   59CHL1    C7 5483   2.717   4.569   2.965
   59CHL1   H7A 5484   2.628   4.614   3.014
   59CHL1   H7B 5485   2.687   4.463   2.947
   59CHL1    C8 5486   2.843   4.571   3.058
   59CHL1    H8 5487   2.862   4.674   3.095
   59CHL1   C14 5488   2.825   4.486   3.183
   59CHL1   H14 5489   2.810   4.385   3.138
   59CHL1   C15 5490   2.687   4.496   3.263
   59CHL1  H15A 5491   2.645   4.598   3.276
   59CHL1  H15B 5492   2.610   4.430   3.216
   59CHL1   C16 5493   2.727   4.432   3.397
   59CHL1  H16A 5494   2.722   4.515   3.471
   59CHL1  H16B 5495   2.658   4.351   3.432
   59CHL1   C17 5496   2.870   4.381   3.396
   59CHL1   H17 5497   2.876   4.279   3.353
   59CHL1   C13 5498   2.939   4.473   3.287
   59CHL1   C18 5499   2.969   4.608   3.339
   59CHL1  H18A 5500   2.992   4.682   3.259
   59CHL1  H18B 5501   2.882   4.653   3.392
   59CHL1  H18C 5502   3.055   4.607   3.409
   59CHL1   C12 5503   3.052   4.408   3.206
   59CHL1  H12A 5504   3.138   4.398   3.276
   59CHL1  H12B 5505   3.009   4.309   3.181
   59CHL1   C11 5506   3.091   4.475   3.068
   59CHL1  H11A 5507   3.147   4.566   3.099
   59CHL1  H11B 5508   3.149   4.395   3.018
   59CHL1    C9 5509   2.969   4.518   2.980
   59CHL1    H9 5510   2.934   4.419   2.945
   59CHL1   C10 5511   3.004   4.601   2.861
   59CHL1   C19 5512   3.098   4.717   2.898
   59CHL1  H19A 5513   3.053   4.772   2.983
   59CHL1  H19B 5514   3.198   4.689   2.937
   59CHL1  H19C 5515   3.108   4.787   2.811
   59CHL1    C1 5516   3.084   4.508   2.758
   59CHL1   H1A 5517   3.179   4.469   2.800
   59CHL1   H1B 5518   3.018   4.421   2.735
   59CHL1    C2 5519   3.121   4.578   2.625
   59CHL1   H2A 5520   3.183   4.513   2.560
   59CHL1   H2B 5521   3.184   4.665   2.654
   59CHL1   C20 5522   2.939   4.374   3.534
   59CHL1   H20 5523   2.969   4.474   3.572
   59CHL1   C21 5524   3.063   4.283   3.531
   59CHL1  H21A 5525   3.131   4.307   3.616
   59CHL1  H21B 5526   3.122   4.298   3.439
   59CHL1  H21C 5527   3.043   4.175   3.544
   59CHL1   C22 5528   2.836   4.316   3.636
   59CHL1  H22A 5529   2.753   4.389   3.651
   59CHL1  H22B 5530   2.789   4.226   3.592
   59CHL1   C23 5531   2.884   4.284   3.781
   59CHL1  H23A 5532   2.959   4.201   3.771
   59CHL1  H23B 5533   2.934   4.370   3.828
   59CHL1   C24 5534   2.780   4.231   3.882
   59CHL1  H24A 5535   2.692   4.298   3.890
   59CHL1  H24B 5536   2.727   4.142   3.842
   59CHL1   C25 5537   2.841   4.217   4.021
   59CHL1   H25 5538   2.891   4.309   4.058
   59CHL1   C26 5539   2.734   4.183   4.124
   59CHL1  H26A 5540   2.664   4.270   4.119
   59CHL1  H26B 5541   2.685   4.087   4.098
   59CHL1  H26C 5542   2.781   4.190   4.224
   59CHL1   C27 5543   2.949   4.108   4.021
   59CHL1  H27A 5544   2.904   4.012   3.988
   59CHL1  H27B 5545   3.026   4.140   3.948
   59CHL1  H27C 5546   2.997   4.100   4.121
   60CHL1    C3 5547   5.562   5.720   2.938
   60CHL1    H3 5548   5.624   5.812   2.935
   60CHL1    O3 5549   5.533   5.674   2.806
   60CHL1   H3' 5550   5.520   5.750   2.748
   60CHL1    C4 5551   5.632   5.601   3.017
   60CHL1   H4A 5552   5.579   5.507   2.989
   60CHL1   H4B 5553   5.735   5.592   2.977
   60CHL1    C5 5554   5.628   5.613   3.173
   60CHL1    C6 5555   5.737   5.595   3.244
   60CHL1    H6 5556   5.830   5.561   3.196
   60CHL1    C7 5557   5.740   5.600   3.393
   60CHL1   H7A 5558   5.790   5.508   3.432
   60CHL1   H7B 5559   5.807   5.683   3.424
   60CHL1    C8 5560   5.604   5.616   3.464
   60CHL1    H8 5561   5.543   5.524   3.475
   60CHL1   C14 5562   5.624   5.684   3.607
   60CHL1   H14 5563   5.658   5.789   3.595
   60CHL1   C15 5564   5.729   5.626   3.706
   60CHL1  H15A 5565   5.728   5.517   3.686
   60CHL1  H15B 5566   5.825   5.671   3.672
   60CHL1   C16 5567   5.690   5.674   3.842
   60CHL1  H16A 5568   5.667   5.582   3.900
   60CHL1  H16B 5569   5.770   5.733   3.892
   60CHL1   C17 5570   5.551   5.751   3.830
   60CHL1   H17 5571   5.576   5.858   3.815
   60CHL1   C13 5572   5.494   5.696   3.689
   60CHL1   C18 5573   5.418   5.559   3.706
   60CHL1  H18A 5574   5.479   5.494   3.773
   60CHL1  H18B 5575   5.322   5.567   3.762
   60CHL1  H18C 5576   5.391   5.509   3.611
   60CHL1   C12 5577   5.411   5.799   3.603
   60CHL1  H12A 5578   5.313   5.787   3.653
   60CHL1  H12B 5579   5.450   5.903   3.601
   60CHL1   C11 5580   5.391   5.749   3.464
   60CHL1  H11A 5581   5.327   5.658   3.470
   60CHL1  H11B 5582   5.332   5.827   3.410
   60CHL1    C9 5583   5.518   5.707   3.383
   60CHL1    H9 5584   5.571   5.805   3.375
   60CHL1   C10 5585   5.499   5.657   3.237
   60CHL1   C19 5586   5.411   5.532   3.240
   60CHL1  H19A 5587   5.461   5.451   3.298
   60CHL1  H19B 5588   5.308   5.551   3.275
   60CHL1  H19C 5589   5.398   5.501   3.134
   60CHL1    C1 5590   5.438   5.771   3.158
   60CHL1   H1A 5591   5.332   5.787   3.187
   60CHL1   H1B 5592   5.501   5.860   3.176
   60CHL1    C2 5593   5.428   5.745   3.006
   60CHL1   H2A 5594   5.379   5.824   2.944
   60CHL1   H2B 5595   5.365   5.655   2.993
   60CHL1   C20 5596   5.467   5.732   3.944
   60CHL1   H20 5597   5.446   5.627   3.972
   60CHL1   C21 5598   5.328   5.796   3.938
   60CHL1  H21A 5599   5.265   5.774   4.026
   60CHL1  H21B 5600   5.263   5.761   3.855
   60CHL1  H21C 5601   5.344   5.904   3.916
   60CHL1   C22 5602   5.530   5.782   4.084
   60CHL1  H22A 5603   5.635   5.750   4.066
   60CHL1  H22B 5604   5.529   5.893   4.080
   60CHL1   C23 5605   5.505   5.717   4.213
   60CHL1  H23A 5606   5.543   5.779   4.297
   60CHL1  H23B 5607   5.395   5.704   4.218
   60CHL1   C24 5608   5.570   5.581   4.225
   60CHL1  H24A 5609   5.564   5.529   4.127
   60CHL1  H24B 5610   5.678   5.591   4.250
   60CHL1   C25 5611   5.493   5.499   4.328
   60CHL1   H25 5612   5.565   5.419   4.358
   60CHL1   C26 5613   5.462   5.572   4.462
   60CHL1  H26A 5614   5.442   5.494   4.538
   60CHL1  H26B 5615   5.547   5.631   4.504
   60CHL1  H26C 5616   5.371   5.635   4.456
   60CHL1   C27 5617   5.361   5.433   4.280
   60CHL1  H27A 5618   5.350   5.353   4.356
   60CHL1  H27B 5619   5.276   5.506   4.281
   60CHL1  H27C 5620   5.372   5.387   4.179
   61CHL1    C3 5621   5.619   2.143   2.884
   61CHL1    H3 5622   5.681   2.051   2.885
   61CHL1    O3 5623   5.600   2.182   2.749
   61CHL1   H3' 5624   5.578   2.275   2.751
   61CHL1    C4 5625   5.478   2.133   2.947
   61CHL1   H4A 5626   5.426   2.227   2.918
   61CHL1   H4B 5627   5.424   2.053   2.891
   61CHL1    C5 5628   5.472   2.107   3.101
   61CHL1    C6 5629   5.401   2.003   3.150
   61CHL1    H6 5630   5.332   1.944   3.087
   61CHL1    C7 5631   5.396   1.968   3.293
   61CHL1   H7A 5632   5.293   1.976   3.334
   61CHL1   H7B 5633   5.439   1.866   3.308
   61CHL1    C8 5634   5.473   2.073   3.384
   61CHL1    H8 5635   5.397   2.152   3.400
   61CHL1   C14 5636   5.511   2.006   3.513
   61CHL1   H14 5637   5.596   1.937   3.493
   61CHL1   C15 5638   5.395   1.925   3.584
   61CHL1  H15A 5639   5.301   1.984   3.580
   61CHL1  H15B 5640   5.374   1.827   3.535
   61CHL1   C16 5641   5.464   1.902   3.722
   61CHL1  H16A 5642   5.380   1.925   3.792
   61CHL1  H16B 5643   5.506   1.799   3.730
   61CHL1   C17 5644   5.581   2.001   3.749
   61CHL1   H17 5645   5.673   1.939   3.734
   61CHL1   C13 5646   5.566   2.102   3.624
   61CHL1   C18 5647   5.470   2.214   3.663
   61CHL1  H18A 5648   5.439   2.262   3.568
   61CHL1  H18B 5649   5.378   2.195   3.722
   61CHL1  H18C 5650   5.538   2.286   3.715
   61CHL1   C12 5651   5.691   2.163   3.563
   61CHL1  H12A 5652   5.734   2.247   3.622
   61CHL1  H12B 5653   5.779   2.094   3.563
   61CHL1   C11 5654   5.677   2.220   3.418
   61CHL1  H11A 5655   5.622   2.314   3.439
   61CHL1  H11B 5656   5.780   2.244   3.385
   61CHL1    C9 5657   5.597   2.130   3.318
   61CHL1    H9 5658   5.670   2.050   3.297
   61CHL1   C10 5659   5.569   2.193   3.182
   61CHL1   C19 5660   5.501   2.329   3.197
   61CHL1  H19A 5661   5.403   2.322   3.248
   61CHL1  H19B 5662   5.566   2.393   3.261
   61CHL1  H19C 5663   5.471   2.382   3.104
   61CHL1    C1 5664   5.695   2.223   3.107
   61CHL1   H1A 5665   5.745   2.309   3.158
   61CHL1   H1B 5666   5.760   2.134   3.113
   61CHL1    C2 5667   5.687   2.252   2.952
   61CHL1   H2A 5668   5.789   2.270   2.911
   61CHL1   H2B 5669   5.642   2.350   2.924
   61CHL1   C20 5670   5.591   2.055   3.892
   61CHL1   H20 5671   5.502   2.118   3.911
   61CHL1   C21 5672   5.718   2.140   3.913
   61CHL1  H21A 5673   5.721   2.187   4.014
   61CHL1  H21B 5674   5.720   2.216   3.832
   61CHL1  H21C 5675   5.809   2.077   3.910
   61CHL1   C22 5676   5.607   1.944   3.996
   61CHL1  H22A 5677   5.516   1.881   3.998
   61CHL1  H22B 5678   5.693   1.877   3.974
   61CHL1   C23 5679   5.618   1.996   4.143
   61CHL1  H23A 5680   5.711   2.054   4.162
   61CHL1  H23B 5681   5.536   2.072   4.140
   61CHL1   C24 5682   5.609   1.889   4.253
   61CHL1  H24A 5683   5.533   1.812   4.230
   61CHL1  H24B 5684   5.710   1.850   4.274
   61CHL1   C25 5685   5.565   1.945   4.386
   61CHL1   H25 5686   5.461   1.984   4.377
   61CHL1   C26 5687   5.548   1.845   4.505
   61CHL1  H26A 5688   5.521   1.897   4.600
   61CHL1  H26B 5689   5.491   1.755   4.473
   61CHL1  H26C 5690   5.651   1.805   4.522
   61CHL1   C27 5691   5.646   2.070   4.432
   61CHL1  H27A 5692   5.582   2.127   4.502
   61CHL1  H27B 5693   5.746   2.050   4.476
   61CHL1  H27C 5694   5.663   2.146   4.353
   62CHL1    C3 5695   1.348   0.484   2.702
   62CHL1    H3 5696   1.314   0.587   2.724
   62CHL1    O3 5697   1.335   0.463   2.563
   62CHL1   H3' 5698   1.371   0.374   2.558
   62CHL1    C4 5699   1.493   0.477   2.741
   62CHL1   H4A 5700   1.539   0.385   2.699
   62CHL1   H4B 5701   1.544   0.566   2.698
   62CHL1    C5 5702   1.509   0.482   2.894
   62CHL1    C6 5703   1.593   0.569   2.957
   62CHL1    H6 5704   1.651   0.641   2.897
   62CHL1    C7 5705   1.622   0.560   3.108
   62CHL1   H7A 5706   1.730   0.567   3.136
   62CHL1   H7B 5707   1.572   0.645   3.158
   62CHL1    C8 5708   1.563   0.434   3.177
   62CHL1    H8 5709   1.630   0.347   3.162
   62CHL1   C14 5710   1.550   0.466   3.326
   62CHL1   H14 5711   1.479   0.550   3.341
   62CHL1   C15 5712   1.671   0.528   3.393
   62CHL1  H15A 5713   1.760   0.469   3.360
   62CHL1  H15B 5714   1.694   0.633   3.366
   62CHL1   C16 5715   1.632   0.519   3.541
   62CHL1  H16A 5716   1.713   0.484   3.609
   62CHL1  H16B 5717   1.611   0.620   3.581
   62CHL1   C17 5718   1.508   0.423   3.553
   62CHL1   H17 5719   1.416   0.484   3.569
   62CHL1   C13 5720   1.498   0.352   3.417
   62CHL1   C18 5721   1.593   0.223   3.409
   62CHL1  H18A 5722   1.606   0.171   3.312
   62CHL1  H18B 5723   1.695   0.247   3.444
   62CHL1  H18C 5724   1.553   0.144   3.477
   62CHL1   C12 5725   1.361   0.325   3.366
   62CHL1  H12A 5726   1.312   0.232   3.404
   62CHL1  H12B 5727   1.292   0.411   3.374
   62CHL1   C11 5728   1.355   0.292   3.215
   62CHL1  H11A 5729   1.401   0.192   3.199
   62CHL1  H11B 5730   1.248   0.285   3.187
   62CHL1    C9 5731   1.419   0.404   3.126
   62CHL1    H9 5732   1.354   0.493   3.138
   62CHL1   C10 5733   1.425   0.379   2.973
   62CHL1   C19 5734   1.483   0.232   2.936
   62CHL1  H19A 5735   1.407   0.156   2.963
   62CHL1  H19B 5736   1.497   0.210   2.828
   62CHL1  H19C 5737   1.569   0.217   3.005
   62CHL1    C1 5738   1.275   0.391   2.925
   62CHL1   H1A 5739   1.218   0.315   2.983
   62CHL1   H1B 5740   1.241   0.494   2.950
   62CHL1    C2 5741   1.260   0.383   2.774
   62CHL1   H2A 5742   1.157   0.404   2.738
   62CHL1   H2B 5743   1.266   0.279   2.737
   62CHL1   C20 5744   1.521   0.342   3.683
   62CHL1   H20 5745   1.593   0.259   3.664
   62CHL1   C21 5746   1.382   0.275   3.714
   62CHL1  H21A 5747   1.350   0.208   3.631
   62CHL1  H21B 5748   1.307   0.354   3.734
   62CHL1  H21C 5749   1.390   0.208   3.803
   62CHL1   C22 5750   1.572   0.424   3.812
   62CHL1  H22A 5751   1.664   0.482   3.792
   62CHL1  H22B 5752   1.497   0.492   3.858
   62CHL1   C23 5753   1.618   0.332   3.934
   62CHL1  H23A 5754   1.539   0.261   3.966
   62CHL1  H23B 5755   1.698   0.263   3.900
   62CHL1   C24 5756   1.664   0.412   4.062
   62CHL1  H24A 5757   1.744   0.357   4.116
   62CHL1  H24B 5758   1.705   0.511   4.032
   62CHL1   C25 5759   1.552   0.442   4.168
   62CHL1   H25 5760   1.474   0.501   4.115
   62CHL1   C26 5761   1.502   0.309   4.229
   62CHL1  H26A 5762   1.423   0.312   4.307
   62CHL1  H26B 5763   1.458   0.238   4.157
   62CHL1  H26C 5764   1.594   0.260   4.268
   62CHL1   C27 5765   1.609   0.546   4.264
   62CHL1  H27A 5766   1.529   0.566   4.339
   62CHL1  H27B 5767   1.700   0.510   4.316
   62CHL1  H27C 5768   1.638   0.642   4.216
   63CHL1    C3 5769   4.414   4.957   2.819
   63CHL1    H3 5770   4.418   4.850   2.850
   63CHL1    O3 5771   4.428   4.985   2.685
   63CHL1   H3' 5772   4.392   4.906   2.643
   63CHL1    C4 5773   4.285   5.030   2.874
   63CHL1   H4A 5774   4.292   5.138   2.850
   63CHL1   H4B 5775   4.200   4.983   2.820
   63CHL1    C5 5776   4.269   5.018   3.023
   63CHL1    C6 5777   4.156   4.969   3.079
   63CHL1    H6 5778   4.074   4.920   3.025
   63CHL1    C7 5779   4.136   4.958   3.230
   63CHL1   H7A 5780   4.028   4.957   3.257
   63CHL1   H7B 5781   4.158   4.855   3.264
   63CHL1    C8 5782   4.233   5.052   3.302
   63CHL1    H8 5783   4.190   5.152   3.281
   63CHL1   C14 5784   4.230   5.015   3.446
   63CHL1   H14 5785   4.275   4.914   3.456
   63CHL1   C15 5786   4.087   4.993   3.511
   63CHL1  H15A 5787   4.027   5.084   3.491
   63CHL1  H15B 5788   4.030   4.905   3.476
   63CHL1   C16 5789   4.116   4.987   3.658
   63CHL1  H16A 5790   4.035   5.036   3.715
   63CHL1  H16B 5791   4.108   4.886   3.704
   63CHL1   C17 5792   4.264   5.041   3.681
   63CHL1   H17 5793   4.331   4.954   3.698
   63CHL1   C13 5794   4.307   5.104   3.541
   63CHL1   C18 5795   4.243   5.246   3.527
   63CHL1  H18A 5796   4.294   5.320   3.594
   63CHL1  H18B 5797   4.258   5.280   3.422
   63CHL1  H18C 5798   4.136   5.247   3.556
   63CHL1   C12 5799   4.453   5.094   3.499
   63CHL1  H12A 5800   4.504   5.165   3.568
   63CHL1  H12B 5801   4.490   4.994   3.530
   63CHL1   C11 5802   4.474   5.121   3.344
   63CHL1  H11A 5803   4.480   5.231   3.328
   63CHL1  H11B 5804   4.573   5.074   3.323
   63CHL1    C9 5805   4.379   5.044   3.250
   63CHL1    H9 5806   4.407   4.941   3.279
   63CHL1   C10 5807   4.391   5.079   3.097
   63CHL1   C19 5808   4.401   5.233   3.082
   63CHL1  H19A 5809   4.312   5.286   3.123
   63CHL1  H19B 5810   4.493   5.277   3.126
   63CHL1  H19C 5811   4.393   5.269   2.977
   63CHL1    C1 5812   4.518   5.003   3.044
   63CHL1   H1A 5813   4.611   5.032   3.097
   63CHL1   H1B 5814   4.497   4.899   3.079
   63CHL1    C2 5815   4.542   5.009   2.893
   63CHL1   H2A 5816   4.626   4.953   2.848
   63CHL1   H2B 5817   4.555   5.117   2.870
   63CHL1   C20 5818   4.273   5.133   3.806
   63CHL1   H20 5819   4.201   5.217   3.796
   63CHL1   C21 5820   4.421   5.180   3.814
   63CHL1  H21A 5821   4.445   5.234   3.907
   63CHL1  H21B 5822   4.445   5.240   3.724
   63CHL1  H21C 5823   4.482   5.087   3.817
   63CHL1   C22 5824   4.225   5.054   3.934
   63CHL1  H22A 5825   4.127   5.005   3.915
   63CHL1  H22B 5826   4.285   4.962   3.952
   63CHL1   C23 5827   4.205   5.122   4.071
   63CHL1  H23A 5828   4.296   5.185   4.082
   63CHL1  H23B 5829   4.110   5.179   4.064
   63CHL1   C24 5830   4.197   5.011   4.185
   63CHL1  H24A 5831   4.122   4.929   4.172
   63CHL1  H24B 5832   4.299   4.967   4.179
   63CHL1   C25 5833   4.172   5.059   4.324
   63CHL1   H25 5834   4.077   5.116   4.324
   63CHL1   C26 5835   4.153   4.938   4.421
   63CHL1  H26A 5836   4.249   4.882   4.424
   63CHL1  H26B 5837   4.118   4.979   4.518
   63CHL1  H26C 5838   4.071   4.872   4.384
   63CHL1   C27 5839   4.287   5.148   4.370
   63CHL1  H27A 5840   4.297   5.237   4.304
   63CHL1  H27B 5841   4.272   5.190   4.472
   63CHL1  H27C 5842   4.381   5.090   4.367
   64CHL1    C3 5843   2.804   2.496   3.161
   64CHL1    H3 5844   2.715   2.554   3.193
   64CHL1    O3 5845   2.811   2.510   3.022
   64CHL1   H3' 5846   2.857   2.431   2.992
   64CHL1    C4 5847   2.935   2.545   3.224
   64CHL1   H4A 5848   3.014   2.495   3.164
   64CHL1   H4B 5849   2.944   2.654   3.209
   64CHL1    C5 5850   2.968   2.507   3.368
   64CHL1    C6 5851   3.007   2.587   3.465
   64CHL1    H6 5852   3.033   2.691   3.442
   64CHL1    C7 5853   3.028   2.547   3.611
   64CHL1   H7A 5854   3.106   2.603   3.666
   64CHL1   H7B 5855   2.929   2.568   3.656
   64CHL1    C8 5856   3.040   2.390   3.626
   64CHL1    H8 5857   3.144   2.373   3.592
   64CHL1   C14 5858   3.022   2.349   3.773
   64CHL1   H14 5859   2.915   2.351   3.804
   64CHL1   C15 5860   3.089   2.435   3.880
   64CHL1  H15A 5861   3.181   2.478   3.835
   64CHL1  H15B 5862   3.015   2.515   3.899
   64CHL1   C16 5863   3.113   2.340   3.995
   64CHL1  H16A 5864   3.222   2.319   3.995
   64CHL1  H16B 5865   3.077   2.373   4.095
   64CHL1   C17 5866   3.045   2.205   3.950
   64CHL1   H17 5867   2.935   2.208   3.963
   64CHL1   C13 5868   3.062   2.203   3.793
   64CHL1   C18 5869   3.203   2.167   3.750
   64CHL1  H18A 5870   3.248   2.084   3.808
   64CHL1  H18B 5871   3.199   2.138   3.643
   64CHL1  H18C 5872   3.271   2.255   3.754
   64CHL1   C12 5873   2.962   2.114   3.711
   64CHL1  H12A 5874   2.982   2.005   3.714
   64CHL1  H12B 5875   2.861   2.132   3.754
   64CHL1   C11 5876   2.949   2.156   3.563
   64CHL1  H11A 5877   3.043   2.116   3.520
   64CHL1  H11B 5878   2.858   2.110   3.517
   64CHL1    C9 5879   2.946   2.313   3.542
   64CHL1    H9 5880   2.846   2.347   3.577
   64CHL1   C10 5881   2.944   2.353   3.395
   64CHL1   C19 5882   3.038   2.259   3.319
   64CHL1  H19A 5883   3.137   2.260   3.371
   64CHL1  H19B 5884   3.003   2.154   3.305
   64CHL1  H19C 5885   3.050   2.292   3.214
   64CHL1    C1 5886   2.796   2.318   3.347
   64CHL1   H1A 5887   2.778   2.212   3.376
   64CHL1   H1B 5888   2.732   2.393   3.398
   64CHL1    C2 5889   2.776   2.351   3.198
   64CHL1   H2A 5890   2.668   2.323   3.192
   64CHL1   H2B 5891   2.833   2.279   3.135
   64CHL1   C20 5892   3.088   2.079   4.032
   64CHL1   H20 5893   3.199   2.071   4.024
   64CHL1   C21 5894   3.023   1.946   3.977
   64CHL1  H21A 5895   2.912   1.958   3.977
   64CHL1  H21B 5896   3.035   1.871   4.058
   64CHL1  H21C 5897   3.065   1.904   3.883
   64CHL1   C22 5898   3.065   2.103   4.181
   64CHL1  H22A 5899   3.112   2.019   4.236
   64CHL1  H22B 5900   3.132   2.185   4.217
   64CHL1   C23 5901   2.920   2.091   4.229
   64CHL1  H23A 5902   2.853   2.161   4.174
   64CHL1  H23B 5903   2.884   1.991   4.197
   64CHL1   C24 5904   2.912   2.107   4.382
   64CHL1  H24A 5905   2.986   2.044   4.436
   64CHL1  H24B 5906   2.923   2.214   4.408
   64CHL1   C25 5907   2.778   2.061   4.453
   64CHL1   H25 5908   2.754   1.959   4.417
   64CHL1   C26 5909   2.788   2.039   4.601
   64CHL1  H26A 5910   2.820   2.136   4.646
   64CHL1  H26B 5911   2.693   2.007   4.649
   64CHL1  H26C 5912   2.859   1.957   4.623
   64CHL1   C27 5913   2.656   2.154   4.424
   64CHL1  H27A 5914   2.688   2.255   4.457
   64CHL1  H27B 5915   2.633   2.158   4.316
   64CHL1  H27C 5916   2.568   2.130   4.487
   65CHL1    C3 5917   0.648   0.381   2.686
   65CHL1    H3 5918   0.540   0.377   2.711
   65CHL1    O3 5919   0.664   0.409   2.548
   65CHL1   H3' 5920   0.730   0.478   2.541
   65CHL1    C4 5921   0.709   0.501   2.766
   65CHL1   H4A 5922   0.815   0.501   2.734
   65CHL1   H4B 5923   0.661   0.592   2.725
   65CHL1    C5 5924   0.703   0.496   2.915
   65CHL1    C6 5925   0.640   0.582   2.997
   65CHL1    H6 5926   0.603   0.680   2.962
   65CHL1    C7 5927   0.648   0.554   3.147
   65CHL1   H7A 5928   0.679   0.648   3.198
   65CHL1   H7B 5929   0.546   0.533   3.188
   65CHL1    C8 5930   0.745   0.439   3.200
   65CHL1    H8 5931   0.847   0.485   3.200
   65CHL1   C14 5932   0.697   0.398   3.340
   65CHL1   H14 5933   0.591   0.367   3.329
   65CHL1   C15 5934   0.687   0.499   3.454
   65CHL1  H15A 5935   0.783   0.555   3.452
   65CHL1  H15B 5936   0.600   0.567   3.445
   65CHL1   C16 5937   0.683   0.408   3.582
   65CHL1  H16A 5938   0.763   0.444   3.650
   65CHL1  H16B 5939   0.585   0.412   3.634
   65CHL1   C17 5940   0.715   0.260   3.537
   65CHL1   H17 5941   0.617   0.210   3.527
   65CHL1   C13 5942   0.774   0.277   3.396
   65CHL1   C18 5943   0.922   0.302   3.420
   65CHL1  H18A 5944   0.958   0.353   3.328
   65CHL1  H18B 5945   0.941   0.370   3.505
   65CHL1  H18C 5946   0.990   0.215   3.435
   65CHL1   C12 5947   0.749   0.154   3.298
   65CHL1  H12A 5948   0.794   0.055   3.322
   65CHL1  H12B 5949   0.640   0.135   3.307
   65CHL1   C11 5950   0.807   0.190   3.163
   65CHL1  H11A 5951   0.913   0.220   3.177
   65CHL1  H11B 5952   0.796   0.107   3.090
   65CHL1    C9 5953   0.737   0.319   3.104
   65CHL1    H9 5954   0.630   0.290   3.115
   65CHL1   C10 5955   0.764   0.357   2.958
   65CHL1   C19 5956   0.914   0.363   2.949
   65CHL1  H19A 5957   0.955   0.437   3.021
   65CHL1  H19B 5958   0.969   0.269   2.972
   65CHL1  H19C 5959   0.939   0.394   2.845
   65CHL1    C1 5960   0.707   0.229   2.876
   65CHL1   H1A 5961   0.758   0.131   2.893
   65CHL1   H1B 5962   0.604   0.219   2.917
   65CHL1    C2 5963   0.715   0.253   2.726
   65CHL1   H2A 5964   0.677   0.169   2.664
   65CHL1   H2B 5965   0.823   0.259   2.700
   65CHL1   C20 5966   0.780   0.181   3.657
   65CHL1   H20 5967   0.872   0.235   3.689
   65CHL1   C21 5968   0.813   0.036   3.609
   65CHL1  H21A 5969   0.900   0.029   3.540
   65CHL1  H21B 5970   0.715   0.003   3.571
   65CHL1  H21C 5971   0.830   6.802   3.702
   65CHL1   C22 5972   0.687   0.180   3.781
   65CHL1  H22A 5973   0.653   0.282   3.810
   65CHL1  H22B 5974   0.596   0.124   3.749
   65CHL1   C23 5975   0.743   0.116   3.903
   65CHL1  H23A 5976   0.664   0.122   3.981
   65CHL1  H23B 5977   0.768   0.010   3.881
   65CHL1   C24 5978   0.866   0.185   3.953
   65CHL1  H24A 5979   0.942   0.169   3.873
   65CHL1  H24B 5980   0.866   0.294   3.976
   65CHL1   C25 5981   0.931   0.112   4.073
   65CHL1   H25 5982   0.912   0.003   4.058
   65CHL1   C26 5983   1.082   0.135   4.076
   65CHL1  H26A 5984   1.139   0.088   4.159
   65CHL1  H26B 5985   1.121   0.082   3.986
   65CHL1  H26C 5986   1.114   0.240   4.092
   65CHL1   C27 5987   0.862   0.146   4.211
   65CHL1  H27A 5988   0.913   0.094   4.295
   65CHL1  H27B 5989   0.877   0.253   4.237
   65CHL1  H27C 5990   0.752   0.127   4.215
   66CHL1    C3 5991   4.206   1.492   2.861
   66CHL1    H3 5992   4.287   1.416   2.852
   66CHL1    O3 5993   4.152   1.514   2.737
   66CHL1   H3' 5994   4.205   1.582   2.694
   66CHL1    C4 5995   4.101   1.437   2.958
   66CHL1   H4A 5996   4.013   1.505   2.948
   66CHL1   H4B 5997   4.075   1.337   2.919
   66CHL1    C5 5998   4.150   1.426   3.094
   66CHL1    C6 5999   4.143   1.307   3.161
   66CHL1    H6 6000   4.093   1.227   3.103
   66CHL1    C7 6001   4.166   1.297   3.310
   66CHL1   H7A 6002   4.083   1.239   3.354
   66CHL1   H7B 6003   4.264   1.249   3.327
   66CHL1    C8 6004   4.176   1.436   3.381
   66CHL1    H8 6005   4.072   1.473   3.393
   66CHL1   C14 6006   4.252   1.413   3.511
   66CHL1   H14 6007   4.353   1.369   3.498
   66CHL1   C15 6008   4.180   1.315   3.609
   66CHL1  H15A 6009   4.073   1.347   3.618
   66CHL1  H15B 6010   4.180   1.207   3.584
   66CHL1   C16 6011   4.246   1.343   3.744
   66CHL1  H16A 6012   4.164   1.351   3.818
   66CHL1  H16B 6013   4.307   1.254   3.771
   66CHL1   C17 6014   4.335   1.473   3.725
   66CHL1   H17 6015   4.433   1.431   3.693
   66CHL1   C13 6016   4.270   1.541   3.605
   66CHL1   C18 6017   4.135   1.604   3.656
   66CHL1  H18A 6018   4.154   1.693   3.719
   66CHL1  H18B 6019   4.083   1.644   3.566
   66CHL1  H18C 6020   4.073   1.531   3.712
   66CHL1   C12 6021   4.354   1.640   3.526
   66CHL1  H12A 6022   4.369   1.739   3.574
   66CHL1  H12B 6023   4.451   1.588   3.512
   66CHL1   C11 6024   4.302   1.663   3.383
   66CHL1  H11A 6025   4.203   1.712   3.398
   66CHL1  H11B 6026   4.368   1.728   3.322
   66CHL1    C9 6027   4.260   1.533   3.297
   66CHL1    H9 6028   4.359   1.486   3.282
   66CHL1   C10 6029   4.203   1.558   3.152
   66CHL1   C19 6030   4.089   1.664   3.166
   66CHL1  H19A 6031   4.022   1.630   3.249
   66CHL1  H19B 6032   4.126   1.767   3.184
   66CHL1  H19C 6033   4.026   1.666   3.075
   66CHL1    C1 6034   4.316   1.608   3.058
   66CHL1   H1A 6035   4.358   1.703   3.096
   66CHL1   H1B 6036   4.392   1.529   3.075
   66CHL1    C2 6037   4.266   1.623   2.909
   66CHL1   H2A 6038   4.350   1.655   2.843
   66CHL1   H2B 6039   4.190   1.705   2.911
   66CHL1   C20 6040   4.358   1.542   3.856
   66CHL1   H20 6041   4.259   1.567   3.899
   66CHL1   C21 6042   4.434   1.676   3.828
   66CHL1  H21A 6043   4.468   1.711   3.928
   66CHL1  H21B 6044   4.361   1.755   3.799
   66CHL1  H21C 6045   4.517   1.679   3.755
   66CHL1   C22 6046   4.436   1.458   3.959
   66CHL1  H22A 6047   4.408   1.353   3.936
   66CHL1  H22B 6048   4.546   1.474   3.953
   66CHL1   C23 6049   4.392   1.479   4.106
   66CHL1  H23A 6050   4.435   1.573   4.148
   66CHL1  H23B 6051   4.283   1.499   4.109
   66CHL1   C24 6052   4.414   1.364   4.208
   66CHL1  H24A 6053   4.392   1.266   4.161
   66CHL1  H24B 6054   4.517   1.347   4.247
   66CHL1   C25 6055   4.318   1.372   4.331
   66CHL1   H25 6056   4.218   1.341   4.294
   66CHL1   C26 6057   4.355   1.259   4.436
   66CHL1  H26A 6058   4.292   1.270   4.527
   66CHL1  H26B 6059   4.323   1.166   4.384
   66CHL1  H26C 6060   4.463   1.256   4.462
   66CHL1   C27 6061   4.300   1.506   4.396
   66CHL1  H27A 6062   4.235   1.498   4.487
   66CHL1  H27B 6063   4.247   1.574   4.327
   66CHL1  H27C 6064   4.395   1.559   4.419
   67CHL1    C3 6065   4.375   5.997   2.978
   67CHL1    H3 6066   4.343   6.099   3.008
   67CHL1    O3 6067   4.393   5.994   2.840
   67CHL1   H3' 6068   4.410   5.902   2.821
   67CHL1    C4 6069   4.501   5.940   3.049
   67CHL1   H4A 6070   4.526   5.837   3.015
   67CHL1   H4B 6071   4.591   5.994   3.011
   67CHL1    C5 6072   4.488   5.919   3.195
   67CHL1    C6 6073   4.576   5.987   3.274
   67CHL1    H6 6074   4.655   6.049   3.229
   67CHL1    C7 6075   4.575   5.966   3.425
   67CHL1   H7A 6076   4.679   5.950   3.458
   67CHL1   H7B 6077   4.554   6.066   3.468
   67CHL1    C8 6078   4.477   5.849   3.467
   67CHL1    H8 6079   4.514   5.749   3.434
   67CHL1   C14 6080   4.458   5.854   3.612
   67CHL1   H14 6081   4.420   5.954   3.642
   67CHL1   C15 6082   4.589   5.843   3.691
   67CHL1  H15A 6083   4.646   5.751   3.663
   67CHL1  H15B 6084   4.652   5.934   3.693
   67CHL1   C16 6085   4.535   5.819   3.834
   67CHL1  H16A 6086   4.590   5.739   3.887
   67CHL1  H16B 6087   4.541   5.918   3.884
   67CHL1   C17 6088   4.379   5.783   3.819
   67CHL1   H17 6089   4.322   5.873   3.849
   67CHL1   C13 6090   4.356   5.754   3.673
   67CHL1   C18 6091   4.389   5.599   3.648
   67CHL1  H18A 6092   4.318   5.530   3.698
   67CHL1  H18B 6093   4.390   5.582   3.538
   67CHL1  H18C 6094   4.489   5.571   3.687
   67CHL1   C12 6095   4.222   5.799   3.608
   67CHL1  H12A 6096   4.130   5.756   3.654
   67CHL1  H12B 6097   4.207   5.904   3.642
   67CHL1   C11 6098   4.224   5.783   3.456
   67CHL1  H11A 6099   4.231   5.673   3.450
   67CHL1  H11B 6100   4.126   5.812   3.412
   67CHL1    C9 6101   4.343   5.864   3.389
   67CHL1    H9 6102   4.317   5.971   3.404
   67CHL1   C10 6103   4.366   5.842   3.238
   67CHL1   C19 6104   4.380   5.691   3.211
   67CHL1  H19A 6105   4.464   5.640   3.263
   67CHL1  H19B 6106   4.286   5.639   3.238
   67CHL1  H19C 6107   4.399   5.676   3.103
   67CHL1    C1 6108   4.238   5.889   3.162
   67CHL1   H1A 6109   4.156   5.817   3.182
   67CHL1   H1B 6110   4.197   5.983   3.204
   67CHL1    C2 6111   4.255   5.900   3.012
   67CHL1   H2A 6112   4.173   5.953   2.959
   67CHL1   H2B 6113   4.253   5.809   2.948
   67CHL1   C20 6114   4.329   5.682   3.923
   67CHL1   H20 6115   4.382   5.585   3.913
   67CHL1   C21 6116   4.180   5.665   3.891
   67CHL1  H21A 6117   4.150   5.579   3.954
   67CHL1  H21B 6118   4.153   5.631   3.789
   67CHL1  H21C 6119   4.128   5.759   3.920
   67CHL1   C22 6120   4.366   5.712   4.068
   67CHL1  H22A 6121   4.474   5.736   4.079
   67CHL1  H22B 6122   4.318   5.809   4.092
   67CHL1   C23 6123   4.309   5.600   4.169
   67CHL1  H23A 6124   4.200   5.611   4.155
   67CHL1  H23B 6125   4.343   5.497   4.144
   67CHL1   C24 6126   4.350   5.630   4.315
   67CHL1  H24A 6127   4.354   5.740   4.331
   67CHL1  H24B 6128   4.277   5.577   4.380
   67CHL1   C25 6129   4.487   5.573   4.353
   67CHL1   H25 6130   4.562   5.601   4.276
   67CHL1   C26 6131   4.536   5.619   4.493
   67CHL1  H26A 6132   4.630   5.566   4.517
   67CHL1  H26B 6133   4.557   5.728   4.492
   67CHL1  H26C 6134   4.451   5.591   4.559
   67CHL1   C27 6135   4.478   5.419   4.365
   67CHL1  H27A 6136   4.570   5.365   4.396
   67CHL1  H27B 6137   4.396   5.397   4.437
   67CHL1  H27C 6138   4.445   5.379   4.267
   68CHL1    C3 6139   2.403   5.205   2.522
   68CHL1    H3 6140   2.473   5.120   2.535
   68CHL1    O3 6141   2.416   5.269   2.393
   68CHL1   H3' 6142   2.401   5.362   2.411
   68CHL1    C4 6143   2.257   5.163   2.535
   68CHL1   H4A 6144   2.183   5.241   2.508
   68CHL1   H4B 6145   2.231   5.084   2.461
   68CHL1    C5 6146   2.219   5.135   2.683
   68CHL1    C6 6147   2.158   5.020   2.707
   68CHL1    H6 6148   2.137   4.952   2.623
   68CHL1    C7 6149   2.106   4.980   2.839
   68CHL1   H7A 6150   2.007   4.930   2.835
   68CHL1   H7B 6151   2.178   4.905   2.878
   68CHL1    C8 6152   2.121   5.093   2.945
   68CHL1    H8 6153   2.037   5.163   2.926
   68CHL1   C14 6154   2.095   5.040   3.087
   68CHL1   H14 6155   2.179   4.973   3.115
   68CHL1   C15 6156   1.964   4.962   3.110
   68CHL1  H15A 6157   1.876   5.019   3.071
   68CHL1  H15B 6158   1.963   4.861   3.064
   68CHL1   C16 6159   1.950   4.959   3.263
   68CHL1  H16A 6160   1.846   4.986   3.290
   68CHL1  H16B 6161   1.967   4.859   3.310
   68CHL1   C17 6162   2.064   5.058   3.313
   68CHL1   H17 6163   2.160   5.008   3.337
   68CHL1   C13 6164   2.102   5.150   3.192
   68CHL1   C18 6165   1.989   5.261   3.173
   68CHL1  H18A 6166   1.890   5.210   3.178
   68CHL1  H18B 6167   1.994   5.321   3.266
   68CHL1  H18C 6168   2.002   5.321   3.081
   68CHL1   C12 6169   2.244   5.215   3.189
   68CHL1  H12A 6170   2.287   5.279   3.270
   68CHL1  H12B 6171   2.318   5.133   3.188
   68CHL1   C11 6172   2.273   5.280   3.054
   68CHL1  H11A 6173   2.200   5.363   3.050
   68CHL1  H11B 6174   2.378   5.315   3.046
   68CHL1    C9 6175   2.251   5.176   2.935
   68CHL1    H9 6176   2.330   5.098   2.941
   68CHL1   C10 6177   2.270   5.234   2.794
   68CHL1   C19 6178   2.187   5.364   2.778
   68CHL1  H19A 6179   2.215   5.441   2.853
   68CHL1  H19B 6180   2.196   5.408   2.676
   68CHL1  H19C 6181   2.079   5.353   2.802
   68CHL1    C1 6182   2.422   5.268   2.770
   68CHL1   H1A 6183   2.443   5.346   2.845
   68CHL1   H1B 6184   2.492   5.184   2.790
   68CHL1    C2 6185   2.451   5.308   2.627
   68CHL1   H2A 6186   2.561   5.324   2.619
   68CHL1   H2B 6187   2.411   5.409   2.605
   68CHL1   C20 6188   2.023   5.122   3.453
   68CHL1   H20 6189   1.923   5.170   3.448
   68CHL1   C21 6190   2.131   5.222   3.495
   68CHL1  H21A 6191   2.230   5.173   3.503
   68CHL1  H21B 6192   2.114   5.265   3.596
   68CHL1  H21C 6193   2.142   5.302   3.420
   68CHL1   C22 6194   2.007   5.018   3.573
   68CHL1  H22A 6195   1.933   4.940   3.545
   68CHL1  H22B 6196   2.104   4.965   3.576
   68CHL1   C23 6197   1.955   5.072   3.704
   68CHL1  H23A 6198   1.988   5.178   3.714
   68CHL1  H23B 6199   1.845   5.072   3.689
   68CHL1   C24 6200   1.993   4.987   3.829
   68CHL1  H24A 6201   1.966   4.880   3.819
   68CHL1  H24B 6202   2.103   4.986   3.842
   68CHL1   C25 6203   1.938   5.049   3.955
   68CHL1   H25 6204   1.929   5.159   3.941
   68CHL1   C26 6205   1.793   5.003   3.978
   68CHL1  H26A 6206   1.777   4.893   3.981
   68CHL1  H26B 6207   1.770   5.053   4.075
   68CHL1  H26C 6208   1.728   5.045   3.898
   68CHL1   C27 6209   2.017   5.019   4.080
   68CHL1  H27A 6210   2.122   5.055   4.079
   68CHL1  H27B 6211   1.977   5.075   4.167
   68CHL1  H27C 6212   2.009   4.908   4.080
   69CHL1    C3 6213   0.995   2.691   2.744
   69CHL1    H3 6214   1.091   2.638   2.730
   69CHL1    O3 6215   0.945   2.754   2.631
   69CHL1   H3' 6216   0.870   2.806   2.661
   69CHL1    C4 6217   0.890   2.586   2.803
   69CHL1   H4A 6218   0.797   2.644   2.822
   69CHL1   H4B 6219   0.862   2.521   2.718
   69CHL1    C5 6220   0.934   2.524   2.934
   69CHL1    C6 6221   0.944   2.396   2.937
   69CHL1    H6 6222   0.915   2.339   2.848
   69CHL1    C7 6223   0.981   2.322   3.059
   69CHL1   H7A 6224   0.912   2.235   3.060
   69CHL1   H7B 6225   1.084   2.282   3.061
   69CHL1    C8 6226   0.978   2.407   3.189
   69CHL1    H8 6227   0.872   2.428   3.216
   69CHL1   C14 6228   1.053   2.336   3.304
   69CHL1   H14 6229   1.155   2.305   3.273
   69CHL1   C15 6230   0.989   2.195   3.353
   69CHL1  H15A 6231   0.881   2.186   3.329
   69CHL1  H15B 6232   1.043   2.120   3.292
   69CHL1   C16 6233   1.025   2.187   3.503
   69CHL1  H16A 6234   0.928   2.201   3.556
   69CHL1  H16B 6235   1.067   2.087   3.529
   69CHL1   C17 6236   1.116   2.307   3.532
   69CHL1   H17 6237   1.214   2.287   3.484
   69CHL1   C13 6238   1.065   2.420   3.432
   69CHL1   C18 6239   0.919   2.468   3.474
   69CHL1  H18A 6240   0.855   2.385   3.510
   69CHL1  H18B 6241   0.943   2.537   3.558
   69CHL1  H18C 6242   0.870   2.541   3.405
   69CHL1   C12 6243   1.154   2.540   3.397
   69CHL1  H12A 6244   1.172   2.593   3.493
   69CHL1  H12B 6245   1.254   2.499   3.371
   69CHL1   C11 6246   1.087   2.626   3.288
   69CHL1  H11A 6247   0.995   2.677   3.325
   69CHL1  H11B 6248   1.157   2.707   3.257
   69CHL1    C9 6249   1.052   2.547   3.162
   69CHL1    H9 6250   1.156   2.519   3.133
   69CHL1   C10 6251   0.970   2.622   3.046
   69CHL1   C19 6252   0.843   2.680   3.098
   69CHL1  H19A 6253   0.764   2.719   3.030
   69CHL1  H19B 6254   0.794   2.604   3.163
   69CHL1  H19C 6255   0.857   2.759   3.175
   69CHL1    C1 6256   1.056   2.734   2.988
   69CHL1   H1A 6257   1.079   2.817   3.059
   69CHL1   H1B 6258   1.153   2.684   2.967
   69CHL1    C2 6259   1.010   2.794   2.855
   69CHL1   H2A 6260   1.073   2.879   2.820
   69CHL1   H2B 6261   0.910   2.835   2.877
   69CHL1   C20 6262   1.127   2.350   3.679
   69CHL1   H20 6263   1.045   2.422   3.702
   69CHL1   C21 6264   1.262   2.413   3.698
   69CHL1  H21A 6265   1.287   2.491   3.623
   69CHL1  H21B 6266   1.340   2.337   3.680
   69CHL1  H21C 6267   1.276   2.466   3.794
   69CHL1   C22 6268   1.113   2.241   3.786
   69CHL1  H22A 6269   1.025   2.175   3.768
   69CHL1  H22B 6270   1.198   2.170   3.790
   69CHL1   C23 6271   1.100   2.301   3.925
   69CHL1  H23A 6272   1.187   2.363   3.956
   69CHL1  H23B 6273   1.010   2.365   3.918
   69CHL1   C24 6274   1.085   2.203   4.032
   69CHL1  H24A 6275   1.003   2.139   3.991
   69CHL1  H24B 6276   1.173   2.136   4.041
   69CHL1   C25 6277   1.030   2.252   4.170
   69CHL1   H25 6278   0.929   2.297   4.156
   69CHL1   C26 6279   1.021   2.144   4.280
   69CHL1  H26A 6280   1.121   2.125   4.323
   69CHL1  H26B 6281   0.949   2.176   4.358
   69CHL1  H26C 6282   0.991   2.051   4.226
   69CHL1   C27 6283   1.105   2.377   4.219
   69CHL1  H27A 6284   1.104   2.462   4.147
   69CHL1  H27B 6285   1.049   2.413   4.308
   69CHL1  H27C 6286   1.212   2.357   4.240
   70CHL1    C3 6287   2.409   0.105   2.981
   70CHL1    H3 6288   2.503   0.049   3.000
   70CHL1    O3 6289   2.329   0.040   2.882
   70CHL1   H3' 6290   2.373   0.067   2.802
   70CHL1    C4 6291   2.339   0.099   3.115
   70CHL1   H4A 6292   2.243   0.156   3.110
   70CHL1   H4B 6293   2.315   6.822   3.151
   70CHL1    C5 6294   2.414   0.174   3.223
   70CHL1    C6 6295   2.453   0.109   3.336
   70CHL1    H6 6296   2.422   0.006   3.359
   70CHL1    C7 6297   2.524   0.181   3.450
   70CHL1   H7A 6298   2.464   0.149   3.538
   70CHL1   H7B 6299   2.629   0.146   3.456
   70CHL1    C8 6300   2.510   0.337   3.436
   70CHL1    H8 6301   2.405   0.368   3.455
   70CHL1   C14 6302   2.603   0.402   3.544
   70CHL1   H14 6303   2.709   0.382   3.517
   70CHL1   C15 6304   2.595   0.355   3.686
   70CHL1  H15A 6305   2.492   0.331   3.719
   70CHL1  H15B 6306   2.646   0.257   3.702
   70CHL1   C16 6307   2.659   0.468   3.765
   70CHL1  H16A 6308   2.581   0.518   3.827
   70CHL1  H16B 6309   2.753   0.442   3.818
   70CHL1   C17 6310   2.688   0.585   3.662
   70CHL1   H17 6311   2.792   0.566   3.629
   70CHL1   C13 6312   2.592   0.555   3.546
   70CHL1   C18 6313   2.455   0.608   3.590
   70CHL1  H18A 6314   2.432   0.562   3.689
   70CHL1  H18B 6315   2.449   0.719   3.601
   70CHL1  H18C 6316   2.379   0.577   3.516
   70CHL1   C12 6317   2.630   0.608   3.404
   70CHL1  H12A 6318   2.608   0.716   3.396
   70CHL1  H12B 6319   2.737   0.588   3.381
   70CHL1   C11 6320   2.549   0.543   3.292
   70CHL1  H11A 6321   2.451   0.596   3.301
   70CHL1  H11B 6322   2.584   0.575   3.191
   70CHL1    C9 6323   2.547   0.387   3.300
   70CHL1    H9 6324   2.649   0.346   3.281
   70CHL1   C10 6325   2.455   0.323   3.188
   70CHL1   C19 6326   2.326   0.403   3.178
   70CHL1  H19A 6327   2.250   0.356   3.112
   70CHL1  H19B 6328   2.284   0.426   3.278
   70CHL1  H19C 6329   2.352   0.505   3.142
   70CHL1    C1 6330   2.524   0.318   3.046
   70CHL1   H1A 6331   2.542   0.424   3.016
   70CHL1   H1B 6332   2.615   0.255   3.040
   70CHL1    C2 6333   2.432   0.252   2.942
   70CHL1   H2A 6334   2.481   0.254   2.842
   70CHL1   H2B 6335   2.336   0.309   2.931
   70CHL1   C20 6336   2.687   0.726   3.733
   70CHL1   H20 6337   2.584   0.754   3.762
   70CHL1   C21 6338   2.726   0.843   3.632
   70CHL1  H21A 6339   2.717   0.943   3.679
   70CHL1  H21B 6340   2.649   0.845   3.551
   70CHL1  H21C 6341   2.828   0.822   3.593
   70CHL1   C22 6342   2.774   0.741   3.863
   70CHL1  H22A 6343   2.770   0.642   3.913
   70CHL1  H22B 6344   2.880   0.763   3.839
   70CHL1   C23 6345   2.726   0.842   3.972
   70CHL1  H23A 6346   2.700   0.941   3.928
   70CHL1  H23B 6347   2.642   0.806   4.034
   70CHL1   C24 6348   2.830   0.859   4.083
   70CHL1  H24A 6349   2.872   0.762   4.118
   70CHL1  H24B 6350   2.920   0.916   4.053
   70CHL1   C25 6351   2.762   0.929   4.211
   70CHL1   H25 6352   2.663   0.879   4.220
   70CHL1   C26 6353   2.855   0.919   4.329
   70CHL1  H26A 6354   2.864   0.813   4.361
   70CHL1  H26B 6355   2.954   0.963   4.301
   70CHL1  H26C 6356   2.829   0.995   4.406
   70CHL1   C27 6357   2.729   1.078   4.191
   70CHL1  H27A 6358   2.661   1.112   4.272
   70CHL1  H27B 6359   2.822   1.138   4.193
   70CHL1  H27C 6360   2.683   1.108   4.094
   71CHL1    C3 6361   6.271   5.731   2.682
   71CHL1    H3 6362   6.226   5.634   2.711
   71CHL1    O3 6363   6.316   5.706   2.549
   71CHL1   H3' 6364   6.390   5.645   2.558
   71CHL1    C4 6365   6.162   5.839   2.685
   71CHL1   H4A 6366   6.204   5.935   2.647
   71CHL1   H4B 6367   6.082   5.814   2.612
   71CHL1    C5 6368   6.108   5.876   2.823
   71CHL1    C6 6369   5.973   5.875   2.848
   71CHL1    H6 6370   5.906   5.861   2.762
   71CHL1    C7 6371   5.913   5.908   2.982
   71CHL1   H7A 6372   5.829   5.981   2.983
   71CHL1   H7B 6373   5.880   5.815   3.032
   71CHL1    C8 6374   6.016   5.959   3.087
   71CHL1    H8 6375   6.030   6.068   3.073
   71CHL1   C14 6376   5.969   5.952   3.232
   71CHL1   H14 6377   5.937   5.847   3.253
   71CHL1   C15 6378   5.836   6.019   3.263
   71CHL1  H15A 6379   5.850   6.121   3.220
   71CHL1  H15B 6380   5.758   5.960   3.209
   71CHL1   C16 6381   5.826   6.029   3.414
   71CHL1  H16A 6382   5.804   6.132   3.448
   71CHL1  H16B 6383   5.740   5.964   3.441
   71CHL1   C17 6384   5.965   5.978   3.472
   71CHL1   H17 6385   5.954   5.868   3.488
   71CHL1   C13 6386   6.065   5.991   3.348
   71CHL1   C18 6387   6.106   6.142   3.339
   71CHL1  H18A 6388   6.157   6.176   3.432
   71CHL1  H18B 6389   6.161   6.168   3.245
   71CHL1  H18C 6390   6.013   6.199   3.321
   71CHL1   C12 6391   6.196   5.907   3.335
   71CHL1  H12A 6392   6.263   5.948   3.414
   71CHL1  H12B 6393   6.169   5.802   3.359
   71CHL1   C11 6394   6.254   5.911   3.194
   71CHL1  H11A 6395   6.318   6.001   3.178
   71CHL1  H11B 6396   6.332   5.833   3.208
   71CHL1    C9 6397   6.147   5.881   3.078
   71CHL1    H9 6398   6.124   5.774   3.094
   71CHL1   C10 6399   6.208   5.893   2.938
   71CHL1   C19 6400   6.258   6.039   2.910
   71CHL1  H19A 6401   6.290   6.070   2.808
   71CHL1  H19B 6402   6.186   6.120   2.936
   71CHL1  H19C 6403   6.350   6.053   2.971
   71CHL1    C1 6404   6.313   5.784   2.926
   71CHL1   H1A 6405   6.395   5.812   2.995
   71CHL1   H1B 6406   6.276   5.680   2.940
   71CHL1    C2 6407   6.377   5.771   2.784
   71CHL1   H2A 6408   6.455   5.692   2.792
   71CHL1   H2B 6409   6.434   5.862   2.754
   71CHL1   C20 6410   5.995   6.037   3.606
   71CHL1   H20 6411   5.998   6.147   3.596
   71CHL1   C21 6412   6.138   5.992   3.653
   71CHL1  H21A 6413   6.205   6.048   3.585
   71CHL1  H21B 6414   6.146   5.881   3.652
   71CHL1  H21C 6415   6.171   6.025   3.754
   71CHL1   C22 6416   5.885   6.001   3.709
   71CHL1  H22A 6417   5.782   5.977   3.674
   71CHL1  H22B 6418   5.920   5.915   3.769
   71CHL1   C23 6419   5.863   6.114   3.811
   71CHL1  H23A 6420   5.958   6.130   3.866
   71CHL1  H23B 6421   5.830   6.202   3.752
   71CHL1   C24 6422   5.754   6.078   3.911
   71CHL1  H24A 6423   5.665   6.028   3.867
   71CHL1  H24B 6424   5.798   6.009   3.986
   71CHL1   C25 6425   5.695   6.199   3.985
   71CHL1   H25 6426   5.645   6.269   3.914
   71CHL1   C26 6427   5.584   6.155   4.089
   71CHL1  H26A 6428   5.548   6.238   4.153
   71CHL1  H26B 6429   5.502   6.109   4.030
   71CHL1  H26C 6430   5.637   6.083   4.155
   71CHL1   C27 6431   5.805   6.263   4.072
   71CHL1  H27A 6432   5.884   6.302   4.004
   71CHL1  H27B 6433   5.762   6.351   4.126
   71CHL1  H27C 6434   5.835   6.191   4.151
   72CHL1    C3 6435   0.375   4.584   2.603
   72CHL1    H3 6436   0.454   4.507   2.593
   72CHL1    O3 6437   0.383   4.666   2.490
   72CHL1   H3' 6438   0.313   4.731   2.500
   72CHL1    C4 6439   0.230   4.531   2.626
   72CHL1   H4A 6440   0.168   4.623   2.620
   72CHL1   H4B 6441   0.193   4.460   2.549
   72CHL1    C5 6442   0.215   4.461   2.757
   72CHL1    C6 6443   0.172   4.335   2.753
   72CHL1    H6 6444   0.141   4.300   2.653
   72CHL1    C7 6445   0.156   4.254   2.884
   72CHL1   H7A 6446   0.069   4.185   2.877
   72CHL1   H7B 6447   0.240   4.181   2.889
   72CHL1    C8 6448   0.150   4.339   3.016
   72CHL1    H8 6449   0.059   4.403   3.012
   72CHL1   C14 6450   0.150   4.249   3.139
   72CHL1   H14 6451   0.254   4.210   3.143
   72CHL1   C15 6452   0.067   4.127   3.151
   72CHL1  H15A 6453   6.786   4.152   3.131
   72CHL1  H15B 6454   0.094   4.055   3.070
   72CHL1   C16 6455   0.090   4.090   3.297
   72CHL1  H16A 6456   6.816   4.069   3.342
   72CHL1  H16B 6457   0.147   3.995   3.303
   72CHL1   C17 6458   0.152   4.215   3.371
   72CHL1   H17 6459   0.262   4.201   3.382
   72CHL1   C13 6460   0.143   4.329   3.264
   72CHL1   C18 6461   0.012   4.399   3.265
   72CHL1  H18A 6462   6.744   4.339   3.253
   72CHL1  H18B 6463   0.009   4.460   3.358
   72CHL1  H18C 6464   0.006   4.477   3.187
   72CHL1   C12 6465   0.266   4.432   3.272
   72CHL1  H12A 6466   0.265   4.501   3.359
   72CHL1  H12B 6467   0.363   4.378   3.272
   72CHL1   C11 6468   0.265   4.523   3.151
   72CHL1  H11A 6469   0.178   4.592   3.162
   72CHL1  H11B 6470   0.358   4.585   3.152
   72CHL1    C9 6471   0.262   4.445   3.016
   72CHL1    H9 6472   0.359   4.392   3.010
   72CHL1   C10 6473   0.258   4.536   2.891
   72CHL1   C19 6474   0.151   4.644   2.913
   72CHL1  H19A 6475   0.057   4.596   2.947
   72CHL1  H19B 6476   0.192   4.716   2.988
   72CHL1  H19C 6477   0.130   4.706   2.824
   72CHL1    C1 6478   0.403   4.592   2.857
   72CHL1   H1A 6479   0.431   4.658   2.942
   72CHL1   H1B 6480   0.469   4.503   2.849
   72CHL1    C2 6481   0.407   4.671   2.723
   72CHL1   H2A 6482   0.509   4.713   2.712
   72CHL1   H2B 6483   0.345   4.761   2.744
   72CHL1   C20 6484   0.101   4.238   3.510
   72CHL1   H20 6485   6.817   4.257   3.513
   72CHL1   C21 6486   0.172   4.357   3.573
   72CHL1  H21A 6487   0.138   4.455   3.536
   72CHL1  H21B 6488   0.280   4.347   3.550
   72CHL1  H21C 6489   0.145   4.383   3.678
   72CHL1   C22 6490   0.118   4.111   3.595
   72CHL1  H22A 6491   0.071   4.021   3.548
   72CHL1  H22B 6492   0.229   4.107   3.608
   72CHL1   C23 6493   0.061   4.111   3.738
   72CHL1  H23A 6494   0.092   4.197   3.801
   72CHL1  H23B 6495   6.775   4.115   3.733
   72CHL1   C24 6496   0.099   3.980   3.809
   72CHL1  H24A 6497   0.044   3.900   3.754
   72CHL1  H24B 6498   0.209   3.964   3.802
   72CHL1   C25 6499   0.057   3.980   3.961
   72CHL1   H25 6500   0.084   4.078   4.005
   72CHL1   C26 6501   6.733   3.988   3.976
   72CHL1  H26A 6502   6.697   4.074   3.916
   72CHL1  H26B 6503   6.687   3.898   3.930
   72CHL1  H26C 6504   6.699   3.998   4.082
   72CHL1   C27 6505   0.120   3.867   4.044
   72CHL1  H27A 6506   0.072   3.770   4.016
   72CHL1  H27B 6507   0.229   3.861   4.023
   72CHL1  H27C 6508   0.092   3.887   4.150
   73CHL1    C3 6509   1.121   5.059   2.730
   73CHL1    H3 6510   1.193   5.134   2.691
   73CHL1    O3 6511   1.051   5.011   2.618
   73CHL1   H3' 6512   0.990   5.086   2.614
   73CHL1    C4 6513   1.197   4.946   2.785
   73CHL1   H4A 6514   1.125   4.862   2.795
   73CHL1   H4B 6515   1.265   4.910   2.705
   73CHL1    C5 6516   1.265   4.969   2.922
   73CHL1    C6 6517   1.397   4.949   2.934
   73CHL1    H6 6518   1.452   4.916   2.844
   73CHL1    C7 6519   1.469   4.963   3.064
   73CHL1   H7A 6520   1.531   4.871   3.072
   73CHL1   H7B 6521   1.529   5.056   3.071
   73CHL1    C8 6522   1.365   4.973   3.188
   73CHL1    H8 6523   1.317   4.874   3.200
   73CHL1   C14 6524   1.430   5.021   3.316
   73CHL1   H14 6525   1.463   5.125   3.296
   73CHL1   C15 6526   1.554   4.938   3.359
   73CHL1  H15A 6527   1.525   4.835   3.388
   73CHL1  H15B 6528   1.647   4.931   3.299
   73CHL1   C16 6529   1.595   5.008   3.491
   73CHL1  H16A 6530   1.621   4.934   3.569
   73CHL1  H16B 6531   1.669   5.090   3.479
   73CHL1   C17 6532   1.464   5.091   3.531
   73CHL1   H17 6533   1.488   5.194   3.497
   73CHL1   C13 6534   1.345   5.043   3.443
   73CHL1   C18 6535   1.263   4.913   3.482
   73CHL1  H18A 6536   1.192   4.941   3.563
   73CHL1  H18B 6537   1.217   4.874   3.388
   73CHL1  H18C 6538   1.330   4.834   3.522
   73CHL1   C12 6539   1.247   5.153   3.407
   73CHL1  H12A 6540   1.172   5.157   3.490
   73CHL1  H12B 6541   1.297   5.250   3.386
   73CHL1   C11 6542   1.166   5.109   3.278
   73CHL1  H11A 6543   1.112   5.020   3.317
   73CHL1  H11B 6544   1.105   5.199   3.254
   73CHL1    C9 6545   1.254   5.073   3.153
   73CHL1    H9 6546   1.298   5.170   3.124
   73CHL1   C10 6547   1.171   5.027   3.031
   73CHL1   C19 6548   1.072   4.923   3.068
   73CHL1  H19A 6549   1.015   4.882   2.981
   73CHL1  H19B 6550   1.115   4.825   3.098
   73CHL1  H19C 6551   0.995   4.953   3.142
   73CHL1    C1 6552   1.091   5.149   2.970
   73CHL1   H1A 6553   1.027   5.206   3.040
   73CHL1   H1B 6554   1.169   5.224   2.945
   73CHL1    C2 6555   1.026   5.123   2.831
   73CHL1   H2A 6556   0.972   5.216   2.802
   73CHL1   H2B 6557   0.940   5.058   2.860
   73CHL1   C20 6558   1.426   5.099   3.682
   73CHL1   H20 6559   1.316   5.092   3.691
   73CHL1   C21 6560   1.472   5.230   3.752
   73CHL1  H21A 6561   1.401   5.238   3.837
   73CHL1  H21B 6562   1.460   5.319   3.686
   73CHL1  H21C 6563   1.571   5.208   3.798
   73CHL1   C22 6564   1.471   4.977   3.768
   73CHL1  H22A 6565   1.436   4.890   3.708
   73CHL1  H22B 6566   1.582   4.978   3.768
   73CHL1   C23 6567   1.411   4.969   3.905
   73CHL1  H23A 6568   1.446   5.047   3.976
   73CHL1  H23B 6569   1.300   4.972   3.903
   73CHL1   C24 6570   1.461   4.836   3.974
   73CHL1  H24A 6571   1.415   4.748   3.924
   73CHL1  H24B 6572   1.571   4.834   3.957
   73CHL1   C25 6573   1.433   4.839   4.126
   73CHL1   H25 6574   1.479   4.930   4.171
   73CHL1   C26 6575   1.286   4.842   4.174
   73CHL1  H26A 6576   1.292   4.834   4.284
   73CHL1  H26B 6577   1.237   4.939   4.149
   73CHL1  H26C 6578   1.231   4.753   4.138
   73CHL1   C27 6579   1.490   4.714   4.197
   73CHL1  H27A 6580   1.464   4.723   4.305
   73CHL1  H27B 6581   1.443   4.626   4.148
   73CHL1  H27C 6582   1.600   4.712   4.177
   74CHL1    C3 6583   0.973   4.181   2.574
   74CHL1    H3 6584   0.893   4.246   2.616
   74CHL1    O3 6585   0.943   4.134   2.443
   74CHL1   H3' 6586   1.011   4.072   2.414
   74CHL1    C4 6587   1.112   4.255   2.573
   74CHL1   H4A 6588   1.180   4.181   2.525
   74CHL1   H4B 6589   1.102   4.349   2.515
   74CHL1    C5 6590   1.153   4.291   2.717
   74CHL1    C6 6591   1.183   4.415   2.744
   74CHL1    H6 6592   1.178   4.492   2.666
   74CHL1    C7 6593   1.215   4.470   2.876
   74CHL1   H7A 6594   1.298   4.544   2.873
   74CHL1   H7B 6595   1.133   4.527   2.924
   74CHL1    C8 6596   1.246   4.357   2.974
   74CHL1    H8 6597   1.351   4.325   2.960
   74CHL1   C14 6598   1.241   4.418   3.113
   74CHL1   H14 6599   1.134   4.444   3.130
   74CHL1   C15 6600   1.310   4.555   3.136
   74CHL1  H15A 6601   1.410   4.570   3.091
   74CHL1  H15B 6602   1.243   4.635   3.097
   74CHL1   C16 6603   1.328   4.560   3.293
   74CHL1  H16A 6604   1.434   4.587   3.311
   74CHL1  H16B 6605   1.266   4.631   3.351
   74CHL1   C17 6606   1.281   4.419   3.349
   74CHL1   H17 6607   1.173   4.416   3.376
   74CHL1   C13 6608   1.292   4.326   3.223
   74CHL1   C18 6609   1.444   4.290   3.201
   74CHL1  H18A 6610   1.489   4.213   3.268
   74CHL1  H18B 6611   1.461   4.247   3.100
   74CHL1  H18C 6612   1.504   4.382   3.217
   74CHL1   C12 6613   1.193   4.202   3.220
   74CHL1  H12A 6614   1.224   4.126   3.295
   74CHL1  H12B 6615   1.095   4.240   3.255
   74CHL1   C11 6616   1.177   4.145   3.082
   74CHL1  H11A 6617   1.276   4.102   3.055
   74CHL1  H11B 6618   1.101   4.065   3.075
   74CHL1    C9 6619   1.156   4.241   2.964
   74CHL1    H9 6620   1.067   4.301   2.994
   74CHL1   C10 6621   1.144   4.181   2.823
   74CHL1   C19 6622   1.270   4.092   2.808
   74CHL1  H19A 6623   1.360   4.153   2.835
   74CHL1  H19B 6624   1.259   3.992   2.855
   74CHL1  H19C 6625   1.288   4.070   2.701
   74CHL1    C1 6626   1.010   4.113   2.810
   74CHL1   H1A 6627   1.013   4.029   2.883
   74CHL1   H1B 6628   0.933   4.186   2.842
   74CHL1    C2 6629   0.981   4.065   2.665
   74CHL1   H2A 6630   0.889   4.003   2.662
   74CHL1   H2B 6631   1.064   3.999   2.634
   74CHL1   C20 6632   1.357   4.384   3.482
   74CHL1   H20 6633   1.464   4.394   3.456
   74CHL1   C21 6634   1.314   4.245   3.526
   74CHL1  H21A 6635   1.348   4.226   3.630
   74CHL1  H21B 6636   1.363   4.169   3.461
   74CHL1  H21C 6637   1.203   4.247   3.516
   74CHL1   C22 6638   1.322   4.483   3.596
   74CHL1  H22A 6639   1.390   4.480   3.684
   74CHL1  H22B 6640   1.344   4.588   3.564
   74CHL1   C23 6641   1.180   4.484   3.648
   74CHL1  H23A 6642   1.122   4.511   3.558
   74CHL1  H23B 6643   1.148   4.379   3.665
   74CHL1   C24 6644   1.170   4.583   3.764
   74CHL1  H24A 6645   1.227   4.538   3.849
   74CHL1  H24B 6646   1.221   4.678   3.737
   74CHL1   C25 6647   1.028   4.600   3.815
   74CHL1   H25 6648   0.985   4.498   3.817
   74CHL1   C26 6649   1.013   4.663   3.961
   74CHL1  H26A 6650   1.058   4.763   3.976
   74CHL1  H26B 6651   0.911   4.643   3.999
   74CHL1  H26C 6652   1.080   4.605   4.029
   74CHL1   C27 6653   0.931   4.666   3.715
   74CHL1  H27A 6654   0.922   4.609   3.620
   74CHL1  H27B 6655   0.827   4.668   3.754
   74CHL1  H27C 6656   0.962   4.769   3.689
   75CHL1    C3 6657   1.240   3.150   2.579
   75CHL1    H3 6658   1.217   3.041   2.571
   75CHL1    O3 6659   1.277   3.185   2.443
   75CHL1   H3' 6660   1.372   3.197   2.441
   75CHL1    C4 6661   1.125   3.228   2.638
   75CHL1   H4A 6662   1.150   3.335   2.625
   75CHL1   H4B 6663   1.043   3.191   2.573
   75CHL1    C5 6664   1.095   3.196   2.786
   75CHL1    C6 6665   0.974   3.159   2.832
   75CHL1    H6 6666   0.888   3.155   2.763
   75CHL1    C7 6667   0.952   3.153   2.976
   75CHL1   H7A 6668   0.853   3.198   3.001
   75CHL1   H7B 6669   0.946   3.043   2.996
   75CHL1    C8 6670   1.064   3.179   3.080
   75CHL1    H8 6671   1.065   3.287   3.106
   75CHL1   C14 6672   1.046   3.097   3.205
   75CHL1   H14 6673   1.043   2.995   3.162
   75CHL1   C15 6674   0.906   3.087   3.275
   75CHL1  H15A 6675   0.888   3.193   3.300
   75CHL1  H15B 6676   0.827   3.039   3.213
   75CHL1   C16 6677   0.935   3.003   3.400
   75CHL1  H16A 6678   0.878   3.055   3.480
   75CHL1  H16B 6679   0.889   2.902   3.396
   75CHL1   C17 6680   1.089   3.003   3.421
   75CHL1   H17 6681   1.124   2.902   3.390
   75CHL1   C13 6682   1.149   3.101   3.316
   75CHL1   C18 6683   1.144   3.255   3.368
   75CHL1  H18A 6684   1.063   3.293   3.434
   75CHL1  H18B 6685   1.232   3.263   3.436
   75CHL1  H18C 6686   1.158   3.331   3.289
   75CHL1   C12 6687   1.283   3.067   3.253
   75CHL1  H12A 6688   1.362   3.094   3.325
   75CHL1  H12B 6689   1.298   2.963   3.216
   75CHL1   C11 6690   1.304   3.162   3.121
   75CHL1  H11A 6691   1.310   3.271   3.142
   75CHL1  H11B 6692   1.410   3.143   3.093
   75CHL1    C9 6693   1.197   3.137   3.019
   75CHL1    H9 6694   1.185   3.029   2.996
   75CHL1   C10 6695   1.215   3.209   2.881
   75CHL1   C19 6696   1.260   3.361   2.903
   75CHL1  H19A 6697   1.279   3.420   2.811
   75CHL1  H19B 6698   1.179   3.413   2.958
   75CHL1  H19C 6699   1.358   3.355   2.956
   75CHL1    C1 6700   1.337   3.143   2.807
   75CHL1   H1A 6701   1.424   3.176   2.867
   75CHL1   H1B 6702   1.321   3.034   2.817
   75CHL1    C2 6703   1.367   3.174   2.662
   75CHL1   H2A 6704   1.443   3.111   2.612
   75CHL1   H2B 6705   1.389   3.283   2.658
   75CHL1   C20 6706   1.139   3.011   3.564
   75CHL1   H20 6707   1.122   3.112   3.607
   75CHL1   C21 6708   1.289   2.978   3.567
   75CHL1  H21A 6709   1.319   2.891   3.504
   75CHL1  H21B 6710   1.327   2.952   3.668
   75CHL1  H21C 6711   1.347   3.064   3.530
   75CHL1   C22 6712   1.069   2.919   3.663
   75CHL1  H22A 6713   0.963   2.905   3.634
   75CHL1  H22B 6714   1.110   2.816   3.653
   75CHL1   C23 6715   1.090   2.966   3.809
   75CHL1  H23A 6716   1.187   3.019   3.824
   75CHL1  H23B 6717   1.004   3.031   3.834
   75CHL1   C24 6718   1.073   2.848   3.906
   75CHL1  H24A 6719   0.983   2.799   3.863
   75CHL1  H24B 6720   1.156   2.775   3.898
   75CHL1   C25 6721   1.033   2.887   4.056
   75CHL1   H25 6722   0.931   2.930   4.048
   75CHL1   C26 6723   1.043   2.770   4.150
   75CHL1  H26A 6724   1.014   2.678   4.096
   75CHL1  H26B 6725   1.146   2.759   4.189
   75CHL1  H26C 6726   0.976   2.771   4.239
   75CHL1   C27 6727   1.116   3.010   4.115
   75CHL1  H27A 6728   1.222   2.986   4.136
   75CHL1  H27B 6729   1.115   3.097   4.045
   75CHL1  H27C 6730   1.065   3.043   4.208
   76CHL1    C3 6731   6.589   4.926   2.700
   76CHL1    H3 6732   6.690   4.940   2.744
   76CHL1    O3 6733   6.598   4.924   2.557
   76CHL1   H3' 6734   6.657   4.999   2.546
   76CHL1    C4 6735   6.538   4.788   2.762
   76CHL1   H4A 6736   6.449   4.754   2.704
   76CHL1   H4B 6737   6.617   4.713   2.741
   76CHL1    C5 6738   6.504   4.792   2.908
   76CHL1    C6 6739   6.566   4.717   3.003
   76CHL1    H6 6740   6.644   4.645   2.973
   76CHL1    C7 6741   6.505   4.709   3.142
   76CHL1   H7A 6742   6.479   4.603   3.160
   76CHL1   H7B 6743   6.581   4.750   3.211
   76CHL1    C8 6744   6.376   4.778   3.165
   76CHL1    H8 6745   6.287   4.722   3.130
   76CHL1   C14 6746   6.358   4.796   3.315
   76CHL1   H14 6747   6.435   4.870   3.347
   76CHL1   C15 6748   6.381   4.665   3.406
   76CHL1  H15A 6749   6.326   4.585   3.352
   76CHL1  H15B 6750   6.487   4.645   3.432
   76CHL1   C16 6751   6.298   4.693   3.537
   76CHL1  H16A 6752   6.212   4.622   3.544
   76CHL1  H16B 6753   6.360   4.685   3.629
   76CHL1   C17 6754   6.247   4.843   3.518
   76CHL1   H17 6755   6.339   4.904   3.534
   76CHL1   C13 6756   6.232   4.858   3.359
   76CHL1   C18 6757   6.112   4.772   3.317
   76CHL1  H18A 6758   6.088   4.794   3.211
   76CHL1  H18B 6759   6.129   4.663   3.329
   76CHL1  H18C 6760   6.028   4.806   3.380
   76CHL1   C12 6761   6.226   5.001   3.299
   76CHL1  H12A 6762   6.129   5.043   3.331
   76CHL1  H12B 6763   6.308   5.059   3.348
   76CHL1   C11 6764   6.257   5.005   3.146
   76CHL1  H11A 6765   6.163   4.990   3.089
   76CHL1  H11B 6766   6.286   5.110   3.123
   76CHL1    C9 6767   6.371   4.913   3.097
   76CHL1    H9 6768   6.463   4.964   3.133
   76CHL1   C10 6769   6.393   4.895   2.947
   76CHL1   C19 6770   6.264   4.856   2.872
   76CHL1  H19A 6771   6.277   4.858   2.762
   76CHL1  H19B 6772   6.245   4.753   2.911
   76CHL1  H19C 6773   6.182   4.928   2.894
   76CHL1    C1 6774   6.446   5.026   2.890
   76CHL1   H1A 6775   6.370   5.105   2.904
   76CHL1   H1B 6776   6.539   5.066   2.938
   76CHL1    C2 6777   6.479   5.026   2.736
   76CHL1   H2A 6778   6.511   5.127   2.701
   76CHL1   H2B 6779   6.394   4.999   2.671
   76CHL1   C20 6780   6.144   4.899   3.622
   76CHL1   H20 6781   6.044   4.880   3.577
   76CHL1   C21 6782   6.162   5.051   3.639
   76CHL1  H21A 6783   6.109   5.095   3.552
   76CHL1  H21B 6784   6.267   5.087   3.640
   76CHL1  H21C 6785   6.126   5.096   3.734
   76CHL1   C22 6786   6.137   4.825   3.757
   76CHL1  H22A 6787   6.126   4.717   3.731
   76CHL1  H22B 6788   6.232   4.838   3.813
   76CHL1   C23 6789   6.011   4.848   3.846
   76CHL1  H23A 6790   6.008   4.958   3.860
   76CHL1  H23B 6791   5.921   4.816   3.789
   76CHL1   C24 6792   6.017   4.765   3.972
   76CHL1  H24A 6793   6.002   4.656   3.962
   76CHL1  H24B 6794   6.121   4.775   4.010
   76CHL1   C25 6795   5.930   4.805   4.093
   76CHL1   H25 6796   5.841   4.856   4.050
   76CHL1   C26 6797   5.888   4.692   4.191
   76CHL1  H26A 6798   5.811   4.627   4.145
   76CHL1  H26B 6799   5.971   4.620   4.200
   76CHL1  H26C 6800   5.850   4.747   4.280
   76CHL1   C27 6801   6.012   4.905   4.188
   76CHL1  H27A 6802   5.948   4.927   4.277
   76CHL1  H27B 6803   6.118   4.876   4.206
   76CHL1  H27C 6804   6.013   5.003   4.136
   77SOPE     N 6805   3.593   3.021   6.942
   77SOPE   HN1 6806   3.524   3.099   6.947
   77SOPE   HN2 6807   3.613   2.989   7.039
   77SOPE   HN3 6808   3.676   3.041   6.883
   77SOPE   C12 6809   3.521   2.916   6.872
   77SOPE  H12A 6810   3.464   2.969   6.794
   77SOPE  H12B 6811   3.452   2.859   6.938
   77SOPE   C11 6812   3.617   2.821   6.790
   77SOPE  H11A 6813   3.563   2.763   6.711
   77SOPE  H11B 6814   3.658   2.758   6.871
   77SOPE     P 6815   3.797   2.829   6.598
   77SOPE   O13 6816   3.754   2.687   6.575
   77SOPE   O14 6817   3.944   2.850   6.603
   77SOPE   O12 6818   3.727   2.888   6.731
   77SOPE   O11 6819   3.731   2.913   6.488
   77SOPE    C1 6820   3.721   3.057   6.484
   77SOPE    HA 6821   3.759   3.098   6.388
   77SOPE    HB 6822   3.785   3.099   6.564
   77SOPE    C2 6823   3.570   3.094   6.500
   77SOPE    HS 6824   3.528   3.051   6.593
   77SOPE   O21 6825   3.501   3.060   6.378
   77SOPE   C21 6826   3.425   2.956   6.378
   77SOPE   O22 6827   3.408   2.879   6.470
   77SOPE   C22 6828   3.344   2.951   6.251
   77SOPE   H2R 6829   3.301   3.053   6.242
   77SOPE   H2S 6830   3.268   2.869   6.261
   77SOPE    C3 6831   3.556   3.249   6.514
   77SOPE    HX 6832   3.616   3.272   6.605
   77SOPE    HY 6833   3.451   3.280   6.532
   77SOPE   O31 6834   3.617   3.310   6.403
   77SOPE   C31 6835   3.529   3.343   6.302
   77SOPE   O32 6836   3.409   3.315   6.303
   77SOPE   C32 6837   3.609   3.388   6.180
   77SOPE   H2X 6838   3.713   3.352   6.192
   77SOPE   H2Y 6839   3.618   3.497   6.197
   77SOPE   C23 6840   3.427   2.920   6.125
   77SOPE   H3R 6841   3.473   2.822   6.150
   77SOPE   H3S 6842   3.510   2.992   6.110
   77SOPE   C24 6843   3.343   2.917   5.993
   77SOPE   H4R 6844   3.405   2.846   5.934
   77SOPE   H4S 6845   3.248   2.861   6.004
   77SOPE   C25 6846   3.325   3.046   5.919
   77SOPE   H5R 6847   3.289   3.116   5.997
   77SOPE   H5S 6848   3.423   3.085   5.885
   77SOPE   C26 6849   3.233   3.046   5.797
   77SOPE   H6R 6850   3.260   2.954   5.741
   77SOPE   H6S 6851   3.128   3.033   5.829
   77SOPE   C27 6852   3.250   3.173   5.715
   77SOPE   H7R 6853   3.218   3.254   5.784
   77SOPE   H7S 6854   3.354   3.194   5.681
   77SOPE   C28 6855   3.167   3.162   5.583
   77SOPE   H8R 6856   3.063   3.140   5.613
   77SOPE   H8S 6857   3.169   3.258   5.527
   77SOPE   C29 6858   3.198   3.046   5.491
   77SOPE   H91 6859   3.144   2.951   5.508
   77SOPE  C210 6860   3.279   3.036   5.385
   77SOPE  H101 6861   3.289   2.942   5.329
   77SOPE  C211 6862   3.365   3.138   5.312
   77SOPE  H11R 6863   3.444   3.081   5.257
   77SOPE  H11S 6864   3.416   3.207   5.383
   77SOPE  C212 6865   3.282   3.215   5.215
   77SOPE  H12R 6866   3.334   3.304   5.174
   77SOPE  H12S 6867   3.189   3.249   5.265
   77SOPE  C213 6868   3.244   3.123   5.094
   77SOPE  H13R 6869   3.180   3.041   5.132
   77SOPE  H13S 6870   3.345   3.088   5.065
   77SOPE  C214 6871   3.172   3.192   4.982
   77SOPE  H14R 6872   3.239   3.270   4.940
   77SOPE  H14S 6873   3.090   3.261   5.010
   77SOPE  C215 6874   3.137   3.087   4.882
   77SOPE  H15R 6875   3.096   3.143   4.795
   77SOPE  H15S 6876   3.059   3.015   4.914
   77SOPE  C216 6877   3.257   3.007   4.823
   77SOPE  H16R 6878   3.315   2.943   4.894
   77SOPE  H16S 6879   3.314   3.078   4.760
   77SOPE  C217 6880   3.220   2.900   4.720
   77SOPE  H17R 6881   3.173   2.964   4.642
   77SOPE  H17S 6882   3.139   2.831   4.752
   77SOPE  C218 6883   3.336   2.827   4.644
   77SOPE  H18R 6884   3.293   2.755   4.572
   77SOPE  H18S 6885   3.400   2.769   4.714
   77SOPE  H18T 6886   3.407   2.900   4.597
   77SOPE   C33 6887   3.543   3.355   6.049
   77SOPE   H3X 6888   3.448   3.411   6.060
   77SOPE   H3Y 6889   3.511   3.250   6.033
   77SOPE   C34 6890   3.626   3.413   5.933
   77SOPE   H4X 6891   3.720   3.355   5.921
   77SOPE   H4Y 6892   3.650   3.519   5.958
   77SOPE   C35 6893   3.554   3.422   5.799
   77SOPE   H5X 6894   3.465   3.490   5.797
   77SOPE   H5Y 6895   3.524   3.321   5.764
   77SOPE   C36 6896   3.645   3.483   5.697
   77SOPE   H6X 6897   3.745   3.433   5.689
   77SOPE   H6Y 6898   3.678   3.585   5.724
   77SOPE   C37 6899   3.579   3.500   5.563
   77SOPE   H7X 6900   3.501   3.578   5.570
   77SOPE   H7Y 6901   3.531   3.405   5.533
   77SOPE   C38 6902   3.676   3.533   5.449
   77SOPE   H8X 6903   3.758   3.460   5.435
   77SOPE   H8Y 6904   3.709   3.634   5.483
   77SOPE   C39 6905   3.617   3.560   5.304
   77SOPE   H9X 6906   3.535   3.634   5.311
   77SOPE   H9Y 6907   3.570   3.468   5.262
   77SOPE  C310 6908   3.713   3.611   5.192
   77SOPE  H10X 6909   3.802   3.546   5.178
   77SOPE  H10Y 6910   3.742   3.715   5.219
   77SOPE  C311 6911   3.640   3.616   5.052
   77SOPE  H11X 6912   3.539   3.662   5.060
   77SOPE  H11Y 6913   3.630   3.514   5.011
   77SOPE  C312 6914   3.719   3.702   4.950
   77SOPE  H12X 6915   3.810   3.644   4.926
   77SOPE  H12Y 6916   3.745   3.800   4.996
   77SOPE  C313 6917   3.647   3.744   4.817
   77SOPE  H13X 6918   3.556   3.804   4.840
   77SOPE  H13Y 6919   3.614   3.665   4.745
   77SOPE  C314 6920   3.743   3.844   4.738
   77SOPE  H14X 6921   3.848   3.812   4.758
   77SOPE  H14Y 6922   3.728   3.950   4.768
   77SOPE  C315 6923   3.698   3.850   4.594
   77SOPE  H15X 6924   3.593   3.887   4.603
   77SOPE  H15Y 6925   3.711   3.746   4.559
   77SOPE  C316 6926   3.774   3.951   4.498
   77SOPE  H16X 6927   3.877   3.911   4.503
   77SOPE  H16Y 6928   3.771   4.051   4.547
   77SOPE  C317 6929   3.712   3.971   4.357
   77SOPE  H17X 6930   3.698   3.871   4.310
   77SOPE  H17Y 6931   3.786   4.024   4.292
   77SOPE  C318 6932   3.581   4.050   4.361
   77SOPE  H18X 6933   3.538   4.077   4.262
   77SOPE  H18Y 6934   3.605   4.148   4.407
   77SOPE  H18Z 6935   3.502   3.991   4.411
   78SOPE     N 6936   2.752   3.703   6.758
   78SOPE   HN1 6937   2.793   3.767   6.829
   78SOPE   HN2 6938   2.830   3.652   6.711
   78SOPE   HN3 6939   2.720   3.775   6.690
   78SOPE   C12 6940   2.626   3.622   6.800
   78SOPE  H12A 6941   2.578   3.584   6.707
   78SOPE  H12B 6942   2.556   3.688   6.855
   78SOPE   C11 6943   2.654   3.515   6.905
   78SOPE  H11A 6944   2.576   3.437   6.893
   78SOPE  H11B 6945   2.650   3.557   7.008
   78SOPE     P 6946   2.818   3.333   6.786
   78SOPE   O13 6947   2.742   3.216   6.826
   78SOPE   O14 6948   2.961   3.319   6.777
   78SOPE   O12 6949   2.782   3.454   6.889
   78SOPE   O11 6950   2.765   3.387   6.651
   78SOPE    C1 6951   2.639   3.334   6.596
   78SOPE    HA 6952   2.594   3.420   6.542
   78SOPE    HB 6953   2.559   3.301   6.665
   78SOPE    C2 6954   2.665   3.224   6.487
   78SOPE    HS 6955   2.718   3.142   6.541
   78SOPE   O21 6956   2.747   3.283   6.380
   78SOPE   C21 6957   2.835   3.191   6.320
   78SOPE   O22 6958   2.851   3.078   6.366
   78SOPE   C22 6959   2.918   3.241   6.203
   78SOPE   H2R 6960   2.986   3.321   6.239
   78SOPE   H2S 6961   2.847   3.291   6.134
   78SOPE    C3 6962   2.528   3.193   6.437
   78SOPE    HX 6963   2.476   3.282   6.395
   78SOPE    HY 6964   2.467   3.152   6.521
   78SOPE   O31 6965   2.538   3.104   6.320
   78SOPE   C31 6966   2.570   2.983   6.350
   78SOPE   O32 6967   2.587   2.931   6.459
   78SOPE   C32 6968   2.593   2.909   6.221
   78SOPE   H2X 6969   2.702   2.889   6.219
   78SOPE   H2Y 6970   2.575   2.974   6.132
   78SOPE   C23 6971   3.011   3.151   6.124
   78SOPE   H3R 6972   3.073   3.094   6.197
   78SOPE   H3S 6973   3.079   3.217   6.065
   78SOPE   C24 6974   2.946   3.048   6.033
   78SOPE   H4R 6975   3.029   2.987   5.991
   78SOPE   H4S 6976   2.882   2.989   6.100
   78SOPE   C25 6977   2.870   3.114   5.916
   78SOPE   H5R 6978   2.793   3.186   5.950
   78SOPE   H5S 6979   2.947   3.167   5.856
   78SOPE   C26 6980   2.802   3.002   5.834
   78SOPE   H6R 6981   2.886   2.950   5.783
   78SOPE   H6S 6982   2.751   2.934   5.906
   78SOPE   C27 6983   2.703   3.064   5.733
   78SOPE   H7R 6984   2.652   2.991   5.667
   78SOPE   H7S 6985   2.626   3.121   5.790
   78SOPE   C28 6986   2.778   3.162   5.637
   78SOPE   H8R 6987   2.821   3.244   5.698
   78SOPE   H8S 6988   2.858   3.105   5.585
   78SOPE   C29 6989   2.680   3.218   5.540
   78SOPE   H91 6990   2.604   3.282   5.587
   78SOPE  C210 6991   2.674   3.195   5.407
   78SOPE  H101 6992   2.591   3.244   5.354
   78SOPE  C211 6993   2.764   3.117   5.312
   78SOPE  H11R 6994   2.700   3.047   5.253
   78SOPE  H11S 6995   2.840   3.052   5.360
   78SOPE  C212 6996   2.832   3.197   5.194
   78SOPE  H12R 6997   2.921   3.148   5.148
   78SOPE  H12S 6998   2.869   3.297   5.225
   78SOPE  C213 6999   2.733   3.213   5.075
   78SOPE  H13R 7000   2.635   3.245   5.116
   78SOPE  H13S 7001   2.726   3.118   5.019
   78SOPE  C214 7002   2.771   3.330   4.983
   78SOPE  H14R 7003   2.875   3.314   4.947
   78SOPE  H14S 7004   2.800   3.418   5.045
   78SOPE  C215 7005   2.666   3.367   4.887
   78SOPE  H15R 7006   2.574   3.398   4.941
   78SOPE  H15S 7007   2.640   3.286   4.815
   78SOPE  C216 7008   2.703   3.492   4.806
   78SOPE  H16R 7009   2.651   3.502   4.709
   78SOPE  H16S 7010   2.811   3.491   4.778
   78SOPE  C217 7011   2.657   3.617   4.874
   78SOPE  H17R 7012   2.710   3.620   4.972
   78SOPE  H17S 7013   2.547   3.610   4.892
   78SOPE  C218 7014   2.681   3.745   4.804
   78SOPE  H18R 7015   2.791   3.747   4.783
   78SOPE  H18S 7016   2.631   3.826   4.861
   78SOPE  H18T 7017   2.636   3.758   4.704
   78SOPE   C33 7018   2.517   2.777   6.199
   78SOPE   H3X 7019   2.406   2.777   6.210
   78SOPE   H3Y 7020   2.561   2.711   6.277
   78SOPE   C34 7021   2.547   2.724   6.058
   78SOPE   H4X 7022   2.543   2.613   6.060
   78SOPE   H4Y 7023   2.652   2.747   6.029
   78SOPE   C35 7024   2.451   2.773   5.945
   78SOPE   H5X 7025   2.450   2.885   5.941
   78SOPE   H5Y 7026   2.356   2.715   5.941
   78SOPE   C36 7027   2.501   2.733   5.801
   78SOPE   H6X 7028   2.495   2.622   5.791
   78SOPE   H6Y 7029   2.603   2.776   5.796
   78SOPE   C37 7030   2.414   2.795   5.684
   78SOPE   H7X 7031   2.420   2.905   5.691
   78SOPE   H7Y 7032   2.310   2.757   5.685
   78SOPE   C38 7033   2.476   2.762   5.546
   78SOPE   H8X 7034   2.436   2.668   5.503
   78SOPE   H8Y 7035   2.582   2.735   5.564
   78SOPE   C39 7036   2.464   2.865   5.433
   78SOPE   H9X 7037   2.516   2.954   5.474
   78SOPE   H9Y 7038   2.361   2.902   5.412
   78SOPE  C310 7039   2.530   2.825   5.298
   78SOPE  H10X 7040   2.638   2.810   5.322
   78SOPE  H10Y 7041   2.523   2.914   5.233
   78SOPE  C311 7042   2.476   2.706   5.223
   78SOPE  H11X 7043   2.386   2.746   5.173
   78SOPE  H11Y 7044   2.450   2.631   5.301
   78SOPE  C312 7045   2.574   2.652   5.122
   78SOPE  H12X 7046   2.521   2.571   5.068
   78SOPE  H12Y 7047   2.659   2.612   5.181
   78SOPE  C313 7048   2.629   2.766   5.037
   78SOPE  H13X 7049   2.725   2.728   4.996
   78SOPE  H13Y 7050   2.674   2.845   5.101
   78SOPE  C314 7051   2.548   2.829   4.915
   78SOPE  H14X 7052   2.614   2.903   4.866
   78SOPE  H14Y 7053   2.460   2.885   4.953
   78SOPE  C315 7054   2.506   2.720   4.816
   78SOPE  H15X 7055   2.440   2.642   4.859
   78SOPE  H15Y 7056   2.594   2.662   4.781
   78SOPE  C316 7057   2.433   2.778   4.683
   78SOPE  H16X 7058   2.500   2.853   4.637
   78SOPE  H16Y 7059   2.342   2.823   4.729
   78SOPE  C317 7060   2.383   2.673   4.581
   78SOPE  H17X 7061   2.325   2.728   4.503
   78SOPE  H17Y 7062   2.309   2.601   4.621
   78SOPE  C318 7063   2.483   2.588   4.509
   78SOPE  H18X 7064   2.557   2.551   4.583
   78SOPE  H18Y 7065   2.537   2.650   4.434
   78SOPE  H18Z 7066   2.424   2.509   4.458
   79SOPE     N 7067   5.419   0.534   6.493
   79SOPE   HN1 7068   5.465   0.516   6.402
   79SOPE   HN2 7069   5.416   0.636   6.513
   79SOPE   HN3 7070   5.482   0.495   6.566
   79SOPE   C12 7071   5.292   0.460   6.524
   79SOPE  H12A 7072   5.307   0.364   6.577
   79SOPE  H12B 7073   5.245   0.443   6.425
   79SOPE   C11 7074   5.185   0.540   6.600
   79SOPE  H11A 7075   5.102   0.467   6.604
   79SOPE  H11B 7076   5.172   0.630   6.536
   79SOPE     P 7077   5.117   0.643   6.832
   79SOPE   O13 7078   5.167   0.755   6.913
   79SOPE   O14 7079   5.063   0.527   6.913
   79SOPE   O12 7080   5.229   0.577   6.734
   79SOPE   O11 7081   5.019   0.697   6.720
   79SOPE    C1 7082   4.887   0.741   6.755
   79SOPE    HA 7083   4.890   0.851   6.773
   79SOPE    HB 7084   4.838   0.691   6.841
   79SOPE    C2 7085   4.786   0.741   6.635
   79SOPE    HS 7086   4.697   0.802   6.663
   79SOPE   O21 7087   4.753   0.606   6.604
   79SOPE   C21 7088   4.651   0.583   6.525
   79SOPE   O22 7089   4.577   0.668   6.490
   79SOPE   C22 7090   4.661   0.440   6.482
   79SOPE   H2R 7091   4.610   0.388   6.566
   79SOPE   H2S 7092   4.768   0.410   6.471
   79SOPE    C3 7093   4.854   0.807   6.515
   79SOPE    HX 7094   4.920   0.728   6.472
   79SOPE    HY 7095   4.930   0.883   6.542
   79SOPE   O31 7096   4.757   0.859   6.418
   79SOPE   C31 7097   4.798   0.843   6.293
   79SOPE   O32 7098   4.895   0.788   6.250
   79SOPE   C32 7099   4.700   0.903   6.205
   79SOPE   H2X 7100   4.677   1.000   6.254
   79SOPE   H2Y 7101   4.603   0.848   6.210
   79SOPE   C23 7102   4.578   0.421   6.353
   79SOPE   H3R 7103   4.481   0.475   6.357
   79SOPE   H3S 7104   4.549   0.314   6.347
   79SOPE   C24 7105   4.661   0.459   6.230
   79SOPE   H4R 7106   4.593   0.433   6.147
   79SOPE   H4S 7107   4.683   0.567   6.215
   79SOPE   C25 7108   4.792   0.385   6.209
   79SOPE   H5R 7109   4.872   0.447   6.256
   79SOPE   H5S 7110   4.802   0.289   6.263
   79SOPE   C26 7111   4.839   0.354   6.062
   79SOPE   H6R 7112   4.842   0.444   5.998
   79SOPE   H6S 7113   4.946   0.324   6.067
   79SOPE   C27 7114   4.749   0.251   6.001
   79SOPE   H7R 7115   4.737   0.169   6.075
   79SOPE   H7S 7116   4.650   0.288   5.969
   79SOPE   C28 7117   4.810   0.183   5.875
   79SOPE   H8R 7118   4.909   0.143   5.905
   79SOPE   H8S 7119   4.732   0.110   5.846
   79SOPE   C29 7120   4.825   0.282   5.765
   79SOPE   H91 7121   4.931   0.308   5.757
   79SOPE  C210 7122   4.733   0.330   5.679
   79SOPE  H101 7123   4.764   0.398   5.597
   79SOPE  C211 7124   4.587   0.289   5.687
   79SOPE  H11R 7125   4.566   0.232   5.780
   79SOPE  H11S 7126   4.563   0.216   5.607
   79SOPE  C212 7127   4.484   0.403   5.682
   79SOPE  H12R 7128   4.534   0.488   5.732
   79SOPE  H12S 7129   4.398   0.376   5.748
   79SOPE  C213 7130   4.441   0.435   5.539
   79SOPE  H13R 7131   4.396   0.341   5.500
   79SOPE  H13S 7132   4.531   0.441   5.473
   79SOPE  C214 7133   4.351   0.555   5.525
   79SOPE  H14R 7134   4.403   0.640   5.572
   79SOPE  H14S 7135   4.261   0.541   5.589
   79SOPE  C215 7136   4.329   0.604   5.389
   79SOPE  H15R 7137   4.261   0.538   5.330
   79SOPE  H15S 7138   4.419   0.608   5.323
   79SOPE  C216 7139   4.267   0.748   5.400
   79SOPE  H16R 7140   4.352   0.804   5.443
   79SOPE  H16S 7141   4.188   0.731   5.476
   79SOPE  C217 7142   4.222   0.815   5.273
   79SOPE  H17R 7143   4.164   0.743   5.212
   79SOPE  H17S 7144   4.313   0.821   5.209
   79SOPE  C218 7145   4.163   0.946   5.294
   79SOPE  H18R 7146   4.163   0.998   5.196
   79SOPE  H18S 7147   4.208   1.015   5.370
   79SOPE  H18T 7148   4.061   0.943   5.337
   79SOPE   C33 7149   4.740   0.918   6.052
   79SOPE   H3X 7150   4.844   0.957   6.048
   79SOPE   H3Y 7151   4.666   0.988   6.008
   79SOPE   C34 7152   4.727   0.784   5.984
   79SOPE   H4X 7153   4.625   0.742   5.989
   79SOPE   H4Y 7154   4.803   0.711   6.019
   79SOPE   C35 7155   4.781   0.790   5.839
   79SOPE   H5X 7156   4.825   0.695   5.803
   79SOPE   H5Y 7157   4.869   0.858   5.845
   79SOPE   C36 7158   4.689   0.852   5.730
   79SOPE   H6X 7159   4.589   0.804   5.732
   79SOPE   H6Y 7160   4.747   0.820   5.640
   79SOPE   C37 7161   4.684   1.002   5.727
   79SOPE   H7X 7162   4.782   1.041   5.692
   79SOPE   H7Y 7163   4.658   1.039   5.828
   79SOPE   C38 7164   4.585   1.061   5.631
   79SOPE   H8X 7165   4.555   1.162   5.666
   79SOPE   H8Y 7166   4.488   1.006   5.632
   79SOPE   C39 7167   4.633   1.065   5.481
   79SOPE   H9X 7168   4.678   0.965   5.460
   79SOPE   H9Y 7169   4.717   1.135   5.465
   79SOPE  C310 7170   4.518   1.110   5.396
   79SOPE  H10X 7171   4.486   1.212   5.426
   79SOPE  H10Y 7172   4.434   1.042   5.422
   79SOPE  C311 7173   4.549   1.129   5.243
   79SOPE  H11X 7174   4.619   1.215   5.228
   79SOPE  H11Y 7175   4.448   1.147   5.200
   79SOPE  C312 7176   4.610   1.004   5.160
   79SOPE  H12X 7177   4.554   0.914   5.192
   79SOPE  H12Y 7178   4.711   1.005   5.205
   79SOPE  C313 7179   4.620   1.008   5.007
   79SOPE  H13X 7180   4.696   0.930   4.986
   79SOPE  H13Y 7181   4.642   1.107   4.961
   79SOPE  C314 7182   4.485   0.955   4.940
   79SOPE  H14X 7183   4.407   0.930   5.014
   79SOPE  H14Y 7184   4.513   0.854   4.903
   79SOPE  C315 7185   4.426   1.051   4.838
   79SOPE  H15X 7186   4.343   0.999   4.785
   79SOPE  H15Y 7187   4.507   1.074   4.766
   79SOPE  C316 7188   4.371   1.184   4.892
   79SOPE  H16X 7189   4.332   1.239   4.804
   79SOPE  H16Y 7190   4.450   1.240   4.946
   79SOPE  C317 7191   4.257   1.165   4.990
   79SOPE  H17X 7192   4.230   1.264   5.032
   79SOPE  H17Y 7193   4.291   1.099   5.073
   79SOPE  C318 7194   4.134   1.094   4.927
   79SOPE  H18X 7195   4.100   1.148   4.836
   79SOPE  H18Y 7196   4.054   1.093   5.004
   79SOPE  H18Z 7197   4.158   0.989   4.901
   80SOPE     N 7198   1.794   3.343   7.253
   80SOPE   HN1 7199   1.760   3.346   7.351
   80SOPE   HN2 7200   1.890   3.381   7.240
   80SOPE   HN3 7201   1.724   3.400   7.201
   80SOPE   C12 7202   1.812   3.201   7.208
   80SOPE  H12A 7203   1.717   3.150   7.234
   80SOPE  H12B 7204   1.893   3.153   7.267
   80SOPE   C11 7205   1.850   3.187   7.056
   80SOPE  H11A 7206   1.948   3.227   7.024
   80SOPE  H11B 7207   1.778   3.249   7.000
   80SOPE     P 7208   1.741   2.998   6.927
   80SOPE   O13 7209   1.723   3.089   6.810
   80SOPE   O14 7210   1.622   2.985   7.013
   80SOPE   O12 7211   1.855   3.051   7.025
   80SOPE   O11 7212   1.763   2.854   6.861
   80SOPE    C1 7213   1.887   2.813   6.806
   80SOPE    HA 7214   1.892   2.703   6.800
   80SOPE    HB 7215   1.974   2.850   6.865
   80SOPE    C2 7216   1.906   2.866   6.661
   80SOPE    HS 7217   1.915   2.977   6.664
   80SOPE   O21 7218   1.806   2.812   6.575
   80SOPE   C21 7219   1.766   2.898   6.477
   80SOPE   O22 7220   1.810   3.012   6.468
   80SOPE   C22 7221   1.677   2.823   6.374
   80SOPE   H2R 7222   1.582   2.789   6.420
   80SOPE   H2S 7223   1.737   2.736   6.342
   80SOPE    C3 7224   2.043   2.820   6.614
   80SOPE    HX 7225   2.051   2.710   6.614
   80SOPE    HY 7226   2.095   2.859   6.704
   80SOPE   O31 7227   2.077   2.877   6.487
   80SOPE   C31 7228   2.162   2.980   6.490
   80SOPE   O32 7229   2.210   3.026   6.593
   80SOPE   C32 7230   2.217   3.025   6.350
   80SOPE   H2X 7231   2.272   2.937   6.311
   80SOPE   H2Y 7232   2.283   3.112   6.368
   80SOPE   C23 7233   1.658   2.902   6.244
   80SOPE   H3R 7234   1.757   2.916   6.196
   80SOPE   H3S 7235   1.616   3.003   6.269
   80SOPE   C24 7236   1.557   2.831   6.150
   80SOPE   H4R 7237   1.599   2.734   6.118
   80SOPE   H4S 7238   1.464   2.812   6.208
   80SOPE   C25 7239   1.531   2.914   6.024
   80SOPE   H5R 7240   1.495   3.018   6.041
   80SOPE   H5S 7241   1.635   2.918   5.984
   80SOPE   C26 7242   1.442   2.853   5.914
   80SOPE   H6R 7243   1.375   2.777   5.959
   80SOPE   H6S 7244   1.384   2.929   5.858
   80SOPE   C27 7245   1.520   2.767   5.807
   80SOPE   H7R 7246   1.597   2.707   5.860
   80SOPE   H7S 7247   1.457   2.691   5.755
   80SOPE   C28 7248   1.580   2.858   5.693
   80SOPE   H8R 7249   1.500   2.927   5.660
   80SOPE   H8S 7250   1.670   2.915   5.726
   80SOPE   C29 7251   1.635   2.780   5.573
   80SOPE   H91 7252   1.742   2.761   5.585
   80SOPE  C210 7253   1.565   2.723   5.462
   80SOPE  H101 7254   1.622   2.666   5.387
   80SOPE  C211 7255   1.415   2.746   5.434
   80SOPE  H11R 7256   1.372   2.802   5.520
   80SOPE  H11S 7257   1.367   2.646   5.428
   80SOPE  C212 7258   1.407   2.826   5.300
   80SOPE  H12R 7259   1.474   2.915   5.305
   80SOPE  H12S 7260   1.311   2.880   5.287
   80SOPE  C213 7261   1.442   2.745   5.171
   80SOPE  H13R 7262   1.366   2.663   5.169
   80SOPE  H13S 7263   1.543   2.699   5.175
   80SOPE  C214 7264   1.438   2.823   5.034
   80SOPE  H14R 7265   1.478   2.924   5.058
   80SOPE  H14S 7266   1.331   2.843   5.014
   80SOPE  C215 7267   1.506   2.753   4.916
   80SOPE  H15R 7268   1.469   2.650   4.897
   80SOPE  H15S 7269   1.615   2.743   4.937
   80SOPE  C216 7270   1.475   2.836   4.786
   80SOPE  H16R 7271   1.512   2.940   4.805
   80SOPE  H16S 7272   1.365   2.848   4.776
   80SOPE  C217 7273   1.517   2.772   4.650
   80SOPE  H17R 7274   1.476   2.670   4.641
   80SOPE  H17S 7275   1.627   2.763   4.658
   80SOPE  C218 7276   1.458   2.850   4.532
   80SOPE  H18R 7277   1.477   2.955   4.563
   80SOPE  H18S 7278   1.349   2.834   4.524
   80SOPE  H18T 7279   1.501   2.814   4.436
   80SOPE   C33 7280   2.107   3.071   6.249
   80SOPE   H3X 7281   2.033   3.145   6.285
   80SOPE   H3Y 7282   2.061   2.976   6.215
   80SOPE   C34 7283   2.152   3.086   6.102
   80SOPE   H4X 7284   2.203   2.997   6.058
   80SOPE   H4Y 7285   2.214   3.177   6.088
   80SOPE   C35 7286   2.031   3.101   6.003
   80SOPE   H5X 7287   1.934   3.129   6.051
   80SOPE   H5Y 7288   2.007   3.002   5.958
   80SOPE   C36 7289   2.057   3.196   5.882
   80SOPE   H6X 7290   2.110   3.286   5.917
   80SOPE   H6Y 7291   1.958   3.215   5.835
   80SOPE   C37 7292   2.136   3.116   5.778
   80SOPE   H7X 7293   2.115   3.007   5.785
   80SOPE   H7Y 7294   2.241   3.113   5.815
   80SOPE   C38 7295   2.124   3.183   5.644
   80SOPE   H8X 7296   2.133   3.292   5.664
   80SOPE   H8Y 7297   2.024   3.167   5.599
   80SOPE   C39 7298   2.210   3.126   5.534
   80SOPE   H9X 7299   2.194   3.016   5.534
   80SOPE   H9Y 7300   2.317   3.142   5.558
   80SOPE  C310 7301   2.170   3.160   5.393
   80SOPE  H10X 7302   2.172   3.271   5.398
   80SOPE  H10Y 7303   2.066   3.128   5.370
   80SOPE  C311 7304   2.274   3.115   5.285
   80SOPE  H11X 7305   2.275   3.004   5.278
   80SOPE  H11Y 7306   2.377   3.149   5.310
   80SOPE  C312 7307   2.235   3.171   5.149
   80SOPE  H12X 7308   2.243   3.281   5.160
   80SOPE  H12Y 7309   2.132   3.156   5.109
   80SOPE  C313 7310   2.338   3.132   5.041
   80SOPE  H13X 7311   2.334   3.021   5.033
   80SOPE  H13Y 7312   2.441   3.140   5.083
   80SOPE  C314 7313   2.313   3.208   4.917
   80SOPE  H14X 7314   2.353   3.311   4.925
   80SOPE  H14Y 7315   2.204   3.219   4.898
   80SOPE  C315 7316   2.371   3.135   4.796
   80SOPE  H15X 7317   2.311   3.052   4.752
   80SOPE  H15Y 7318   2.472   3.101   4.829
   80SOPE  C316 7319   2.393   3.228   4.678
   80SOPE  H16X 7320   2.448   3.162   4.608
   80SOPE  H16Y 7321   2.458   3.307   4.722
   80SOPE  C317 7322   2.257   3.272   4.610
   80SOPE  H17X 7323   2.178   3.290   4.687
   80SOPE  H17Y 7324   2.223   3.181   4.558
   80SOPE  C318 7325   2.271   3.397   4.524
   80SOPE  H18X 7326   2.288   3.490   4.581
   80SOPE  H18Y 7327   2.180   3.407   4.460
   80SOPE  H18Z 7328   2.350   3.392   4.446
   81SOPE     N 7329   4.787   6.673   6.444
   81SOPE   HN1 7330   4.860   6.700   6.513
   81SOPE   HN2 7331   4.708   6.622   6.488
   81SOPE   HN3 7332   4.826   6.625   6.360
   81SOPE   C12 7333   4.716   6.802   6.400
   81SOPE  H12A 7334   4.609   6.774   6.406
   81SOPE  H12B 7335   4.744   0.001   6.295
   81SOPE   C11 7336   4.745   0.090   6.505
   81SOPE  H11A 7337   4.742   0.055   6.611
   81SOPE  H11B 7338   4.666   0.164   6.482
   81SOPE     P 7339   5.006   0.146   6.567
   81SOPE   O13 7340   5.034   0.001   6.575
   81SOPE   O14 7341   4.999   0.221   6.691
   81SOPE   O12 7342   4.869   0.165   6.497
   81SOPE   O11 7343   5.096   0.213   6.465
   81SOPE    C1 7344   5.082   0.212   6.325
   81SOPE    HA 7345   5.032   0.309   6.302
   81SOPE    HB 7346   5.014   0.136   6.280
   81SOPE    C2 7347   5.215   0.219   6.248
   81SOPE    HS 7348   5.279   0.298   6.293
   81SOPE   O21 7349   5.171   0.253   6.116
   81SOPE   C21 7350   5.268   0.275   6.026
   81SOPE   O22 7351   5.383   0.289   6.052
   81SOPE   C22 7352   5.208   0.293   5.879
   81SOPE   H2R 7353   5.099   0.271   5.887
   81SOPE   H2S 7354   5.261   0.213   5.823
   81SOPE    C3 7355   5.284   0.079   6.263
   81SOPE    HX 7356   5.223   0.010   6.200
   81SOPE    HY 7357   5.267   0.064   6.371
   81SOPE   O31 7358   5.429   0.080   6.239
   81SOPE   C31 7359   5.464   0.006   6.135
   81SOPE   O32 7360   5.393   6.752   6.078
   81SOPE   C32 7361   5.609   0.037   6.097
   81SOPE   H2X 7362   5.672   6.791   6.153
   81SOPE   H2Y 7363   5.643   0.139   6.124
   81SOPE   C23 7364   5.236   0.431   5.822
   81SOPE   H3R 7365   5.232   0.423   5.711
   81SOPE   H3S 7366   5.340   0.466   5.839
   81SOPE   C24 7367   5.129   0.532   5.873
   81SOPE   H4R 7368   5.026   0.493   5.858
   81SOPE   H4S 7369   5.140   0.557   5.981
   81SOPE   C25 7370   5.131   0.675   5.803
   81SOPE   H5R 7371   5.166   0.668   5.698
   81SOPE   H5S 7372   5.025   0.709   5.806
   81SOPE   C26 7373   5.196   0.783   5.889
   81SOPE   H6R 7374   5.173   0.883   5.846
   81SOPE   H6S 7375   5.148   0.769   5.988
   81SOPE   C27 7376   5.345   0.766   5.891
   81SOPE   H7R 7377   5.377   0.674   5.945
   81SOPE   H7S 7378   5.388   0.754   5.790
   81SOPE   C28 7379   5.411   0.894   5.967
   81SOPE   H8R 7380   5.517   0.861   5.971
   81SOPE   H8S 7381   5.403   0.989   5.911
   81SOPE   C29 7382   5.369   0.925   6.108
   81SOPE   H91 7383   5.419   0.860   6.181
   81SOPE  C210 7384   5.286   1.016   6.169
   81SOPE  H101 7385   5.268   1.028   6.277
   81SOPE  C211 7386   5.209   1.123   6.103
   81SOPE  H11R 7387   5.253   1.140   6.002
   81SOPE  H11S 7388   5.224   1.226   6.142
   81SOPE  C212 7389   5.061   1.099   6.105
   81SOPE  H12R 7390   5.016   1.067   6.202
   81SOPE  H12S 7391   5.032   1.024   6.028
   81SOPE  C213 7392   4.977   1.228   6.069
   81SOPE  H13R 7393   4.981   1.307   6.148
   81SOPE  H13S 7394   4.874   1.191   6.054
   81SOPE  C214 7395   5.024   1.296   5.935
   81SOPE  H14R 7396   5.121   1.350   5.938
   81SOPE  H14S 7397   4.943   1.368   5.910
   81SOPE  C215 7398   5.027   1.198   5.819
   81SOPE  H15R 7399   4.926   1.151   5.814
   81SOPE  H15S 7400   5.104   1.119   5.832
   81SOPE  C216 7401   5.050   1.256   5.682
   81SOPE  H16R 7402   5.157   1.283   5.683
   81SOPE  H16S 7403   4.995   1.350   5.662
   81SOPE  C217 7404   5.017   1.169   5.563
   81SOPE  H17R 7405   5.034   1.233   5.475
   81SOPE  H17S 7406   4.907   1.153   5.554
   81SOPE  C218 7407   5.104   1.043   5.568
   81SOPE  H18R 7408   5.213   1.063   5.562
   81SOPE  H18S 7409   5.078   0.971   5.487
   81SOPE  H18T 7410   5.079   0.985   5.659
   81SOPE   C33 7411   5.648   6.825   5.947
   81SOPE   H3X 7412   5.606   6.725   5.924
   81SOPE   H3Y 7413   5.758   0.007   5.934
   81SOPE   C34 7414   5.594   0.099   5.840
   81SOPE   H4X 7415   5.629   0.198   5.875
   81SOPE   H4Y 7416   5.483   0.092   5.835
   81SOPE   C35 7417   5.646   0.075   5.701
   81SOPE   H5X 7418   5.643   6.793   5.671
   81SOPE   H5Y 7419   5.753   0.104   5.691
   81SOPE   C36 7420   5.560   0.152   5.595
   81SOPE   H6X 7421   5.560   0.257   5.633
   81SOPE   H6Y 7422   5.461   0.103   5.600
   81SOPE   C37 7423   5.613   0.147   5.452
   81SOPE   H7X 7424   5.621   0.039   5.427
   81SOPE   H7Y 7425   5.714   0.194   5.454
   81SOPE   C38 7426   5.528   0.213   5.350
   81SOPE   H8X 7427   5.500   0.315   5.385
   81SOPE   H8Y 7428   5.435   0.152   5.343
   81SOPE   C39 7429   5.589   0.210   5.207
   81SOPE   H9X 7430   5.519   0.245   5.129
   81SOPE   H9Y 7431   5.608   0.104   5.179
   81SOPE  C310 7432   5.723   0.291   5.193
   81SOPE  H10X 7433   5.771   0.257   5.099
   81SOPE  H10Y 7434   5.783   0.279   5.286
   81SOPE  C311 7435   5.700   0.443   5.169
   81SOPE  H11X 7436   5.629   0.497   5.236
   81SOPE  H11Y 7437   5.660   0.444   5.065
   81SOPE  C312 7438   5.838   0.513   5.168
   81SOPE  H12X 7439   5.901   0.476   5.085
   81SOPE  H12Y 7440   5.899   0.499   5.260
   81SOPE  C313 7441   5.828   0.659   5.141
   81SOPE  H13X 7442   5.728   0.689   5.178
   81SOPE  H13Y 7443   5.851   0.674   5.033
   81SOPE  C314 7444   5.944   0.737   5.211
   81SOPE  H14X 7445   6.033   0.722   5.146
   81SOPE  H14Y 7446   5.956   0.698   5.314
   81SOPE  C315 7447   5.908   0.887   5.234
   81SOPE  H15X 7448   5.801   0.889   5.264
   81SOPE  H15Y 7449   5.903   0.948   5.142
   81SOPE  C316 7450   5.981   0.953   5.342
   81SOPE  H16X 7451   5.960   0.893   5.433
   81SOPE  H16Y 7452   5.958   1.060   5.360
   81SOPE  C317 7453   6.136   0.950   5.322
   81SOPE  H17X 7454   6.168   0.845   5.340
   81SOPE  H17Y 7455   6.175   1.005   5.409
   81SOPE  C318 7456   6.194   1.003   5.192
   81SOPE  H18X 7457   6.156   1.106   5.174
   81SOPE  H18Y 7458   6.163   0.946   5.103
   81SOPE  H18Z 7459   6.304   1.003   5.180
   82SOPE     N 7460   2.160   1.083   6.848
   82SOPE   HN1 7461   2.248   1.029   6.832
   82SOPE   HN2 7462   2.201   1.176   6.866
   82SOPE   HN3 7463   2.103   1.050   6.929
   82SOPE   C12 7464   2.089   1.076   6.712
   82SOPE  H12A 7465   2.027   1.168   6.701
   82SOPE  H12B 7466   2.021   0.988   6.710
   82SOPE   C11 7467   2.190   1.065   6.603
   82SOPE  H11A 7468   2.275   1.135   6.616
   82SOPE  H11B 7469   2.146   1.086   6.504
   82SOPE     P 7470   2.205   0.822   6.501
   82SOPE   O13 7471   2.061   0.809   6.527
   82SOPE   O14 7472   2.290   0.704   6.519
   82SOPE   O12 7473   2.251   0.936   6.603
   82SOPE   O11 7474   2.233   0.888   6.360
   82SOPE    C1 7475   2.193   0.835   6.241
   82SOPE    HA 7476   2.150   0.919   6.182
   82SOPE    HB 7477   2.108   0.764   6.256
   82SOPE    C2 7478   2.299   0.768   6.156
   82SOPE    HS 7479   2.396   0.819   6.173
   82SOPE   O21 7480   2.272   0.772   6.015
   82SOPE   C21 7481   2.378   0.729   5.942
   82SOPE   O22 7482   2.492   0.728   5.987
   82SOPE   C22 7483   2.328   0.660   5.805
   82SOPE   H2R 7484   2.293   0.736   5.733
   82SOPE   H2S 7485   2.249   0.590   5.839
   82SOPE    C3 7486   2.339   0.625   6.203
   82SOPE    HX 7487   2.379   0.632   6.306
   82SOPE    HY 7488   2.421   0.573   6.148
   82SOPE   O31 7489   2.219   0.548   6.216
   82SOPE   C31 7490   2.189   0.460   6.118
   82SOPE   O32 7491   2.254   0.436   6.022
   82SOPE   C32 7492   2.051   0.391   6.151
   82SOPE   H2X 7493   2.014   0.430   6.249
   82SOPE   H2Y 7494   2.069   0.283   6.167
   82SOPE   C23 7495   2.452   0.596   5.745
   82SOPE   H3R 7496   2.481   0.503   5.798
   82SOPE   H3S 7497   2.530   0.674   5.745
   82SOPE   C24 7498   2.424   0.562   5.594
   82SOPE   H4R 7499   2.362   0.469   5.587
   82SOPE   H4S 7500   2.361   0.645   5.555
   82SOPE   C25 7501   2.545   0.548   5.503
   82SOPE   H5R 7502   2.623   0.622   5.531
   82SOPE   H5S 7503   2.603   0.454   5.513
   82SOPE   C26 7504   2.504   0.552   5.351
   82SOPE   H6R 7505   2.428   0.472   5.337
   82SOPE   H6S 7506   2.464   0.653   5.329
   82SOPE   C27 7507   2.626   0.515   5.259
   82SOPE   H7R 7508   2.706   0.589   5.283
   82SOPE   H7S 7509   2.656   0.412   5.290
   82SOPE   C28 7510   2.590   0.526   5.109
   82SOPE   H8R 7511   2.504   0.459   5.089
   82SOPE   H8S 7512   2.563   0.633   5.096
   82SOPE   C29 7513   2.712   0.495   5.020
   82SOPE   H91 7514   2.801   0.460   5.074
   82SOPE  C210 7515   2.713   0.527   4.889
   82SOPE  H101 7516   2.801   0.496   4.830
   82SOPE  C211 7517   2.604   0.593   4.804
   82SOPE  H11R 7518   2.634   0.696   4.775
   82SOPE  H11S 7519   2.516   0.598   4.872
   82SOPE  C212 7520   2.578   0.514   4.679
   82SOPE  H12R 7521   2.493   0.571   4.636
   82SOPE  H12S 7522   2.553   0.406   4.689
   82SOPE  C213 7523   2.693   0.522   4.582
   82SOPE  H13R 7524   2.779   0.457   4.610
   82SOPE  H13S 7525   2.732   0.626   4.590
   82SOPE  C214 7526   2.660   0.489   4.430
   82SOPE  H14R 7527   2.607   0.392   4.440
   82SOPE  H14S 7528   2.761   0.485   4.383
   82SOPE  C215 7529   2.562   0.574   4.347
   82SOPE  H15R 7530   2.612   0.672   4.331
   82SOPE  H15S 7531   2.468   0.587   4.405
   82SOPE  C216 7532   2.528   0.503   4.211
   82SOPE  H16R 7533   2.497   0.398   4.228
   82SOPE  H16S 7534   2.615   0.508   4.142
   82SOPE  C217 7535   2.408   0.580   4.148
   82SOPE  H17R 7536   2.409   0.688   4.174
   82SOPE  H17S 7537   2.319   0.548   4.208
   82SOPE  C218 7538   2.394   0.573   3.995
   82SOPE  H18R 7539   2.290   0.602   3.966
   82SOPE  H18S 7540   2.408   0.469   3.960
   82SOPE  H18T 7541   2.467   0.643   3.948
   82SOPE   C33 7542   1.954   0.437   6.037
   82SOPE   H3X 7543   1.973   0.370   5.950
   82SOPE   H3Y 7544   1.963   0.544   6.008
   82SOPE   C34 7545   1.808   0.425   6.082
   82SOPE   H4X 7546   1.805   0.493   6.170
   82SOPE   H4Y 7547   1.785   0.320   6.114
   82SOPE   C35 7548   1.702   0.492   5.996
   82SOPE   H5X 7549   1.748   0.576   5.940
   82SOPE   H5Y 7550   1.616   0.526   6.057
   82SOPE   C36 7551   1.635   0.390   5.897
   82SOPE   H6X 7552   1.573   0.320   5.957
   82SOPE   H6Y 7553   1.699   0.325   5.833
   82SOPE   C37 7554   1.550   0.455   5.788
   82SOPE   H7X 7555   1.471   0.525   5.822
   82SOPE   H7Y 7556   1.492   0.378   5.731
   82SOPE   C38 7557   1.627   0.528   5.675
   82SOPE   H8X 7558   1.703   0.457   5.636
   82SOPE   H8Y 7559   1.678   0.621   5.707
   82SOPE   C39 7560   1.526   0.562   5.563
   82SOPE   H9X 7561   1.442   0.621   5.604
   82SOPE   H9Y 7562   1.476   0.470   5.525
   82SOPE  C310 7563   1.583   0.631   5.440
   82SOPE  H10X 7564   1.667   0.565   5.409
   82SOPE  H10Y 7565   1.630   0.729   5.459
   82SOPE  C311 7566   1.495   0.641   5.314
   82SOPE  H11X 7567   1.416   0.719   5.323
   82SOPE  H11Y 7568   1.458   0.536   5.314
   82SOPE  C312 7569   1.572   0.690   5.194
   82SOPE  H12X 7570   1.653   0.614   5.185
   82SOPE  H12Y 7571   1.619   0.788   5.219
   82SOPE  C313 7572   1.476   0.702   5.072
   82SOPE  H13X 7573   1.398   0.776   5.100
   82SOPE  H13Y 7574   1.426   0.606   5.048
   82SOPE  C314 7575   1.560   0.749   4.951
   82SOPE  H14X 7576   1.653   0.690   4.936
   82SOPE  H14Y 7577   1.572   0.859   4.937
   82SOPE  C315 7578   1.483   0.711   4.816
   82SOPE  H15X 7579   1.377   0.746   4.815
   82SOPE  H15Y 7580   1.490   0.601   4.810
   82SOPE  C316 7581   1.551   0.763   4.687
   82SOPE  H16X 7582   1.662   0.756   4.693
   82SOPE  H16Y 7583   1.518   0.867   4.668
   82SOPE  C317 7584   1.503   0.691   4.563
   82SOPE  H17X 7585   1.540   0.586   4.565
   82SOPE  H17Y 7586   1.538   0.731   4.466
   82SOPE  C318 7587   1.348   0.673   4.542
   82SOPE  H18X 7588   1.302   0.596   4.607
   82SOPE  H18Y 7589   1.331   0.644   4.436
   82SOPE  H18Z 7590   1.296   0.771   4.549
   83SOPE     N 7591   1.298   2.189   1.623
   83SOPE   HN1 7592   1.290   2.144   1.529
   83SOPE   HN2 7593   1.391   2.160   1.657
   83SOPE   HN3 7594   1.225   2.160   1.691
   83SOPE   C12 7595   1.316   2.335   1.615
   83SOPE  H12A 7596   1.219   2.374   1.577
   83SOPE  H12B 7597   1.400   2.356   1.545
   83SOPE   C11 7598   1.351   2.384   1.756
   83SOPE  H11A 7599   1.286   2.357   1.842
   83SOPE  H11B 7600   1.334   2.492   1.737
   83SOPE     P 7601   1.594   2.451   1.819
   83SOPE   O13 7602   1.602   2.540   1.702
   83SOPE   O14 7603   1.717   2.386   1.857
   83SOPE   O12 7604   1.485   2.337   1.786
   83SOPE   O11 7605   1.518   2.522   1.937
   83SOPE    C1 7606   1.484   2.452   2.057
   83SOPE    HA 7607   1.463   2.344   2.042
   83SOPE    HB 7608   1.387   2.498   2.088
   83SOPE    C2 7609   1.586   2.463   2.171
   83SOPE    HS 7610   1.686   2.438   2.129
   83SOPE   O21 7611   1.545   2.355   2.259
   83SOPE   C21 7612   1.651   2.294   2.318
   83SOPE   O22 7613   1.767   2.325   2.307
   83SOPE   C22 7614   1.601   2.180   2.409
   83SOPE   H2R 7615   1.564   2.098   2.344
   83SOPE   H2S 7616   1.518   2.223   2.469
   83SOPE    C3 7617   1.592   2.598   2.252
   83SOPE    HX 7618   1.653   2.663   2.186
   83SOPE    HY 7619   1.650   2.577   2.345
   83SOPE   O31 7620   1.457   2.635   2.282
   83SOPE   C31 7621   1.436   2.765   2.297
   83SOPE   O32 7622   1.513   2.852   2.260
   83SOPE   C32 7623   1.303   2.798   2.375
   83SOPE   H2X 7624   1.210   2.762   2.327
   83SOPE   H2Y 7625   1.288   2.907   2.385
   83SOPE   C23 7626   1.705   2.131   2.507
   83SOPE   H3R 7627   1.756   2.223   2.543
   83SOPE   H3S 7628   1.773   2.063   2.452
   83SOPE   C24 7629   1.637   2.052   2.619
   83SOPE   H4R 7630   1.572   2.122   2.675
   83SOPE   H4S 7631   1.580   1.965   2.580
   83SOPE   C25 7632   1.740   1.991   2.719
   83SOPE   H5R 7633   1.792   1.903   2.676
   83SOPE   H5S 7634   1.820   2.068   2.727
   83SOPE   C26 7635   1.688   1.953   2.858
   83SOPE   H6R 7636   1.767   1.934   2.934
   83SOPE   H6S 7637   1.627   2.035   2.902
   83SOPE   C27 7638   1.599   1.831   2.853
   83SOPE   H7R 7639   1.519   1.848   2.777
   83SOPE   H7S 7640   1.655   1.745   2.810
   83SOPE   C28 7641   1.549   1.789   3.000
   83SOPE   H8R 7642   1.636   1.736   3.044
   83SOPE   H8S 7643   1.515   1.882   3.050
   83SOPE   C29 7644   1.428   1.691   3.001
   83SOPE   H91 7645   1.351   1.727   2.931
   83SOPE  C210 7646   1.392   1.578   3.070
   83SOPE  H101 7647   1.288   1.550   3.050
   83SOPE  C211 7648   1.475   1.516   3.179
   83SOPE  H11R 7649   1.563   1.578   3.205
   83SOPE  H11S 7650   1.520   1.420   3.148
   83SOPE  C212 7651   1.390   1.494   3.309
   83SOPE  H12R 7652   1.282   1.479   3.291
   83SOPE  H12S 7653   1.391   1.594   3.356
   83SOPE  C213 7654   1.453   1.386   3.405
   83SOPE  H13R 7655   1.562   1.373   3.390
   83SOPE  H13S 7656   1.409   1.288   3.375
   83SOPE  C214 7657   1.434   1.415   3.555
   83SOPE  H14R 7658   1.324   1.426   3.573
   83SOPE  H14S 7659   1.481   1.505   3.600
   83SOPE  C215 7660   1.487   1.297   3.647
   83SOPE  H15R 7661   1.596   1.282   3.631
   83SOPE  H15S 7662   1.443   1.202   3.612
   83SOPE  C216 7663   1.459   1.310   3.799
   83SOPE  H16R 7664   1.500   1.210   3.827
   83SOPE  H16S 7665   1.350   1.326   3.807
   83SOPE  C217 7666   1.542   1.409   3.876
   83SOPE  H17R 7667   1.512   1.510   3.839
   83SOPE  H17S 7668   1.651   1.414   3.854
   83SOPE  C218 7669   1.534   1.402   4.036
   83SOPE  H18R 7670   1.588   1.318   4.084
   83SOPE  H18S 7671   1.428   1.388   4.065
   83SOPE  H18T 7672   1.564   1.500   4.078
   83SOPE   C33 7673   1.292   2.728   2.514
   83SOPE   H3X 7674   1.311   2.618   2.506
   83SOPE   H3Y 7675   1.185   2.739   2.542
   83SOPE   C34 7676   1.385   2.787   2.616
   83SOPE   H4X 7677   1.367   2.893   2.641
   83SOPE   H4Y 7678   1.484   2.784   2.567
   83SOPE   C35 7679   1.379   2.720   2.759
   83SOPE   H5X 7680   1.407   2.612   2.762
   83SOPE   H5Y 7681   1.287   2.738   2.818
   83SOPE   C36 7682   1.488   2.789   2.856
   83SOPE   H6X 7683   1.477   2.899   2.846
   83SOPE   H6Y 7684   1.589   2.756   2.822
   83SOPE   C37 7685   1.470   2.769   3.007
   83SOPE   H7X 7686   1.486   2.660   3.025
   83SOPE   H7Y 7687   1.364   2.786   3.035
   83SOPE   C38 7688   1.569   2.833   3.101
   83SOPE   H8X 7689   1.552   2.943   3.109
   83SOPE   H8Y 7690   1.671   2.819   3.059
   83SOPE   C39 7691   1.562   2.778   3.244
   83SOPE   H9X 7692   1.568   2.667   3.241
   83SOPE   H9Y 7693   1.466   2.815   3.286
   83SOPE  C310 7694   1.682   2.818   3.342
   83SOPE  H10X 7695   1.679   2.927   3.364
   83SOPE  H10Y 7696   1.778   2.801   3.288
   83SOPE  C311 7697   1.692   2.727   3.462
   83SOPE  H11X 7698   1.778   2.765   3.521
   83SOPE  H11Y 7699   1.719   2.622   3.434
   83SOPE  C312 7700   1.569   2.733   3.549
   83SOPE  H12X 7701   1.479   2.683   3.506
   83SOPE  H12Y 7702   1.551   2.842   3.565
   83SOPE  C313 7703   1.594   2.679   3.688
   83SOPE  H13X 7704   1.510   2.719   3.749
   83SOPE  H13Y 7705   1.684   2.725   3.734
   83SOPE  C314 7706   1.604   2.523   3.692
   83SOPE  H14X 7707   1.702   2.497   3.646
   83SOPE  H14Y 7708   1.531   2.480   3.619
   83SOPE  C315 7709   1.598   2.450   3.830
   83SOPE  H15X 7710   1.497   2.471   3.871
   83SOPE  H15Y 7711   1.680   2.489   3.894
   83SOPE  C316 7712   1.605   2.294   3.820
   83SOPE  H16X 7713   1.698   2.280   3.761
   83SOPE  H16Y 7714   1.527   2.251   3.755
   83SOPE  C317 7715   1.624   2.210   3.948
   83SOPE  H17X 7716   1.725   2.238   3.985
   83SOPE  H17Y 7717   1.621   2.108   3.903
   83SOPE  C318 7718   1.511   2.224   4.050
   83SOPE  H18X 7719   1.417   2.181   4.010
   83SOPE  H18Y 7720   1.488   2.331   4.073
   83SOPE  H18Z 7721   1.539   2.184   4.150
   84SOPE     N 7722   6.719   0.924   2.267
   84SOPE   HN1 7723   6.803   0.889   2.319
   84SOPE   HN2 7724   6.705   1.024   2.292
   84SOPE   HN3 7725   6.640   0.862   2.294
   84SOPE   C12 7726   6.757   0.912   2.122
   84SOPE  H12A 7727   6.694   0.985   2.066
   84SOPE  H12B 7728   6.739   0.807   2.092
   84SOPE   C11 7729   0.086   0.939   2.100
   84SOPE  H11A 7730   0.112   1.045   2.120
   84SOPE  H11B 7731   0.109   0.922   1.992
   84SOPE     P 7732   0.217   0.716   2.128
   84SOPE   O13 7733   0.333   0.762   2.051
   84SOPE   O14 7734   0.115   0.633   2.057
   84SOPE   O12 7735   0.156   0.852   2.183
   84SOPE   O11 7736   0.269   0.650   2.257
   84SOPE    C1 7737   0.193   0.615   2.370
   84SOPE    HA 7738   0.212   0.507   2.391
   84SOPE    HB 7739   0.084   0.622   2.351
   84SOPE    C2 7740   0.245   0.693   2.496
   84SOPE    HS 7741   0.161   0.702   2.568
   84SOPE   O21 7742   0.306   0.825   2.464
   84SOPE   C21 7743   0.216   0.924   2.459
   84SOPE   O22 7744   0.092   0.914   2.458
   84SOPE   C22 7745   0.288   1.056   2.446
   84SOPE   H2R 7746   0.239   1.113   2.364
   84SOPE   H2S 7747   0.394   1.046   2.414
   84SOPE    C3 7748   0.356   0.621   2.582
   84SOPE    HX 7749   0.374   0.688   2.669
   84SOPE    HY 7750   0.446   0.630   2.517
   84SOPE   O31 7751   0.315   0.487   2.626
   84SOPE   C31 7752   0.254   0.489   2.745
   84SOPE   O32 7753   0.221   0.591   2.801
   84SOPE   C32 7754   0.229   0.350   2.796
   84SOPE   H2X 7755   0.311   0.284   2.760
   84SOPE   H2Y 7756   0.132   0.313   2.756
   84SOPE   C23 7757   0.275   1.150   2.563
   84SOPE   H3R 7758   0.168   1.180   2.573
   84SOPE   H3S 7759   0.325   1.248   2.550
   84SOPE   C24 7760   0.315   1.092   2.698
   84SOPE   H4R 7761   0.293   1.177   2.765
   84SOPE   H4S 7762   0.267   0.995   2.725
   84SOPE   C25 7763   0.457   1.047   2.717
   84SOPE   H5R 7764   0.461   0.944   2.675
   84SOPE   H5S 7765   0.521   1.110   2.653
   84SOPE   C26 7766   0.496   1.035   2.864
   84SOPE   H6R 7767   0.510   1.135   2.912
   84SOPE   H6S 7768   0.416   0.978   2.915
   84SOPE   C27 7769   0.634   0.970   2.889
   84SOPE   H7R 7770   0.648   0.881   2.825
   84SOPE   H7S 7771   0.709   1.049   2.868
   84SOPE   C28 7772   0.644   0.929   3.044
   84SOPE   H8R 7773   0.561   0.860   3.072
   84SOPE   H8S 7774   0.732   0.865   3.063
   84SOPE   C29 7775   0.658   1.054   3.133
   84SOPE   H91 7776   0.729   1.134   3.105
   84SOPE  C210 7777   0.585   1.077   3.234
   84SOPE  H101 7778   0.601   1.174   3.284
   84SOPE  C211 7779   0.466   0.989   3.271
   84SOPE  H11R 7780   0.418   0.933   3.188
   84SOPE  H11S 7781   0.391   1.065   3.303
   84SOPE  C212 7782   0.483   0.875   3.367
   84SOPE  H12R 7783   0.528   0.792   3.308
   84SOPE  H12S 7784   0.391   0.823   3.402
   84SOPE  C213 7785   0.568   0.925   3.487
   84SOPE  H13R 7786   0.536   1.028   3.517
   84SOPE  H13S 7787   0.667   0.954   3.446
   84SOPE  C214 7788   0.589   0.828   3.606
   84SOPE  H14R 7789   0.664   0.753   3.573
   84SOPE  H14S 7790   0.492   0.778   3.625
   84SOPE  C215 7791   0.658   0.910   3.724
   84SOPE  H15R 7792   0.595   0.999   3.745
   84SOPE  H15S 7793   0.757   0.946   3.691
   84SOPE  C216 7794   0.678   0.821   3.848
   84SOPE  H16R 7795   0.744   0.870   3.923
   84SOPE  H16S 7796   0.740   0.733   3.819
   84SOPE  C217 7797   0.552   0.774   3.919
   84SOPE  H17R 7798   0.483   0.713   3.856
   84SOPE  H17S 7799   0.490   0.856   3.960
   84SOPE  C218 7800   0.580   0.678   4.033
   84SOPE  H18R 7801   0.663   0.710   4.100
   84SOPE  H18S 7802   0.620   0.583   3.990
   84SOPE  H18T 7803   0.491   0.668   4.099
   84SOPE   C33 7804   0.213   0.346   2.951
   84SOPE   H3X 7805   0.151   0.260   2.985
   84SOPE   H3Y 7806   0.168   0.439   2.991
   84SOPE   C34 7807   0.358   0.332   3.014
   84SOPE   H4X 7808   0.419   0.422   2.992
   84SOPE   H4Y 7809   0.400   0.245   2.961
   84SOPE   C35 7810   0.347   0.288   3.156
   84SOPE   H5X 7811   0.439   0.238   3.193
   84SOPE   H5Y 7812   0.277   0.203   3.169
   84SOPE   C36 7813   0.295   0.401   3.251
   84SOPE   H6X 7814   0.195   0.430   3.213
   84SOPE   H6Y 7815   0.362   0.490   3.245
   84SOPE   C37 7816   0.299   0.349   3.395
   84SOPE   H7X 7817   0.404   0.314   3.407
   84SOPE   H7Y 7818   0.230   0.263   3.402
   84SOPE   C38 7819   0.259   0.436   3.511
   84SOPE   H8X 7820   0.164   0.493   3.506
   84SOPE   H8Y 7821   0.332   0.516   3.536
   84SOPE   C39 7822   0.244   0.356   3.646
   84SOPE   H9X 7823   0.332   0.289   3.644
   84SOPE   H9Y 7824   0.173   0.271   3.650
   84SOPE  C310 7825   0.241   0.440   3.774
   84SOPE  H10X 7826   0.149   0.501   3.787
   84SOPE  H10Y 7827   0.331   0.503   3.784
   84SOPE  C311 7828   0.251   0.341   3.894
   84SOPE  H11X 7829   0.353   0.296   3.893
   84SOPE  H11Y 7830   0.172   0.265   3.875
   84SOPE  C312 7831   0.230   0.421   4.026
   84SOPE  H12X 7832   0.137   0.478   4.006
   84SOPE  H12Y 7833   0.312   0.495   4.043
   84SOPE  C313 7834   0.212   0.324   4.142
   84SOPE  H13X 7835   0.119   0.265   4.135
   84SOPE  H13Y 7836   0.189   0.389   4.230
   84SOPE  C314 7837   0.336   0.233   4.157
   84SOPE  H14X 7838   0.428   0.296   4.163
   84SOPE  H14Y 7839   0.349   0.162   4.072
   84SOPE  C315 7840   0.337   0.154   4.288
   84SOPE  H15X 7841   0.264   0.070   4.285
   84SOPE  H15Y 7842   0.307   0.218   4.374
   84SOPE  C316 7843   0.476   0.098   4.321
   84SOPE  H16X 7844   0.545   0.180   4.350
   84SOPE  H16Y 7845   0.520   0.052   4.230
   84SOPE  C317 7846   0.468   6.811   4.430
   84SOPE  H17X 7847   0.411   6.724   4.392
   84SOPE  H17Y 7848   0.430   0.019   4.530
   84SOPE  C318 7849   0.614   6.740   4.444
   84SOPE  H18X 7850   0.604   6.635   4.479
   84SOPE  H18Y 7851   0.674   6.801   4.514
   84SOPE  H18Z 7852   0.665   6.743   4.345
   85SOPE     N 7853   5.844   4.382   2.329
   85SOPE   HN1 7854   5.858   4.280   2.344
   85SOPE   HN2 7855   5.929   4.422   2.284
   85SOPE   HN3 7856   5.835   4.430   2.421
   85SOPE   C12 7857   5.734   4.401   2.231
   85SOPE  H12A 7858   5.787   4.378   2.137
   85SOPE  H12B 7859   5.698   4.506   2.230
   85SOPE   C11 7860   5.623   4.297   2.257
   85SOPE  H11A 7861   5.554   4.298   2.169
   85SOPE  H11B 7862   5.564   4.328   2.346
   85SOPE     P 7863   5.604   4.033   2.274
   85SOPE   O13 7864   5.675   3.934   2.192
   85SOPE   O14 7865   5.468   4.067   2.229
   85SOPE   O12 7866   5.686   4.168   2.268
   85SOPE   O11 7867   5.599   3.986   2.429
   85SOPE    C1 7868   5.578   4.072   2.537
   85SOPE    HA 7869   5.523   4.161   2.499
   85SOPE    HB 7870   5.675   4.102   2.582
   85SOPE    C2 7871   5.480   4.005   2.633
   85SOPE    HS 7872   5.396   3.978   2.565
   85SOPE   O21 7873   5.447   4.098   2.737
   85SOPE   C21 7874   5.317   4.101   2.761
   85SOPE   O22 7875   5.230   4.061   2.688
   85SOPE   C22 7876   5.290   4.169   2.898
   85SOPE   H2R 7877   5.306   4.279   2.890
   85SOPE   H2S 7878   5.350   4.113   2.972
   85SOPE    C3 7879   5.551   3.867   2.697
   85SOPE    HX 7880   5.633   3.919   2.752
   85SOPE    HY 7881   5.597   3.794   2.627
   85SOPE   O31 7882   5.473   3.795   2.796
   85SOPE   C31 7883   5.357   3.746   2.757
   85SOPE   O32 7884   5.311   3.758   2.644
   85SOPE   C32 7885   5.282   3.679   2.876
   85SOPE   H2X 7886   5.327   3.578   2.886
   85SOPE   H2Y 7887   5.178   3.673   2.838
   85SOPE   C23 7888   5.134   4.146   2.929
   85SOPE   H3R 7889   5.115   4.039   2.948
   85SOPE   H3S 7890   5.078   4.192   2.844
   85SOPE   C24 7891   5.085   4.218   3.055
   85SOPE   H4R 7892   5.140   4.177   3.143
   85SOPE   H4S 7893   5.093   4.327   3.036
   85SOPE   C25 7894   4.927   4.187   3.076
   85SOPE   H5R 7895   4.871   4.229   2.990
   85SOPE   H5S 7896   4.921   4.077   3.063
   85SOPE   C26 7897   4.874   4.242   3.210
   85SOPE   H6R 7898   4.898   4.350   3.218
   85SOPE   H6S 7899   4.764   4.230   3.206
   85SOPE   C27 7900   4.931   4.156   3.325
   85SOPE   H7R 7901   4.917   4.049   3.299
   85SOPE   H7S 7902   5.039   4.181   3.329
   85SOPE   C28 7903   4.862   4.177   3.459
   85SOPE   H8R 7904   4.848   4.285   3.478
   85SOPE   H8S 7905   4.761   4.134   3.442
   85SOPE   C29 7906   4.950   4.117   3.566
   85SOPE   H91 7907   4.975   4.010   3.556
   85SOPE  C210 7908   5.001   4.191   3.661
   85SOPE  H101 7909   5.068   4.136   3.729
   85SOPE  C211 7910   4.987   4.332   3.693
   85SOPE  H11R 7911   4.940   4.383   3.606
   85SOPE  H11S 7912   5.085   4.382   3.710
   85SOPE  C212 7913   4.896   4.358   3.817
   85SOPE  H12R 7914   4.960   4.315   3.897
   85SOPE  H12S 7915   4.807   4.294   3.801
   85SOPE  C213 7916   4.858   4.505   3.839
   85SOPE  H13R 7917   4.811   4.522   3.938
   85SOPE  H13S 7918   4.778   4.519   3.763
   85SOPE  C214 7919   4.983   4.597   3.830
   85SOPE  H14R 7920   5.000   4.623   3.723
   85SOPE  H14S 7921   5.060   4.530   3.875
   85SOPE  C215 7922   4.982   4.732   3.906
   85SOPE  H15R 7923   5.058   4.799   3.859
   85SOPE  H15S 7924   5.004   4.708   4.013
   85SOPE  C216 7925   4.860   4.820   3.875
   85SOPE  H16R 7926   4.762   4.782   3.911
   85SOPE  H16S 7927   4.855   4.824   3.764
   85SOPE  C217 7928   4.876   4.965   3.911
   85SOPE  H17R 7929   4.776   5.013   3.920
   85SOPE  H17S 7930   4.929   5.021   3.830
   85SOPE  C218 7931   4.955   4.994   4.038
   85SOPE  H18R 7932   4.978   5.103   4.032
   85SOPE  H18S 7933   5.058   4.953   4.041
   85SOPE  H18T 7934   4.903   4.985   4.136
   85SOPE   C33 7935   5.265   3.764   3.007
   85SOPE   H3X 7936   5.252   3.873   2.991
   85SOPE   H3Y 7937   5.351   3.747   3.075
   85SOPE   C34 7938   5.137   3.727   3.095
   85SOPE   H4X 7939   5.120   3.617   3.102
   85SOPE   H4Y 7940   5.050   3.767   3.038
   85SOPE   C35 7941   5.129   3.787   3.239
   85SOPE   H5X 7942   5.043   3.734   3.285
   85SOPE   H5Y 7943   5.119   3.898   3.233
   85SOPE   C36 7944   5.240   3.727   3.330
   85SOPE   H6X 7945   5.334   3.772   3.290
   85SOPE   H6Y 7946   5.254   3.618   3.313
   85SOPE   C37 7947   5.221   3.749   3.479
   85SOPE   H7X 7948   5.234   3.856   3.504
   85SOPE   H7Y 7949   5.305   3.695   3.529
   85SOPE   C38 7950   5.094   3.700   3.542
   85SOPE   H8X 7951   5.077   3.596   3.507
   85SOPE   H8Y 7952   5.007   3.760   3.506
   85SOPE   C39 7953   5.098   3.704   3.695
   85SOPE   H9X 7954   5.196   3.671   3.737
   85SOPE   H9Y 7955   5.013   3.638   3.723
   85SOPE  C310 7956   5.078   3.843   3.762
   85SOPE  H10X 7957   4.980   3.883   3.730
   85SOPE  H10Y 7958   5.158   3.909   3.722
   85SOPE  C311 7959   5.076   3.844   3.915
   85SOPE  H11X 7960   5.164   3.792   3.957
   85SOPE  H11Y 7961   4.993   3.777   3.947
   85SOPE  C312 7962   5.056   3.984   3.982
   85SOPE  H12X 7963   4.966   4.032   3.938
   85SOPE  H12Y 7964   5.151   4.038   3.961
   85SOPE  C313 7965   5.041   3.963   4.129
   85SOPE  H13X 7966   5.135   3.929   4.177
   85SOPE  H13Y 7967   4.963   3.885   4.146
   85SOPE  C314 7968   4.980   4.091   4.208
   85SOPE  H14X 7969   4.924   4.064   4.300
   85SOPE  H14Y 7970   4.910   4.139   4.137
   85SOPE  C315 7971   5.090   4.199   4.241
   85SOPE  H15X 7972   5.130   4.245   4.149
   85SOPE  H15Y 7973   5.168   4.156   4.308
   85SOPE  C316 7974   5.024   4.308   4.331
   85SOPE  H16X 7975   5.012   4.256   4.429
   85SOPE  H16Y 7976   4.926   4.342   4.291
   85SOPE  C317 7977   5.127   4.415   4.358
   85SOPE  H17X 7978   5.173   4.443   4.260
   85SOPE  H17Y 7979   5.210   4.377   4.421
   85SOPE  C318 7980   5.054   4.532   4.417
   85SOPE  H18X 7981   5.039   4.605   4.335
   85SOPE  H18Y 7982   5.111   4.597   4.487
   85SOPE  H18Z 7983   4.963   4.491   4.466
   86SOPE     N 7984   5.275   1.278   2.294
   86SOPE   HN1 7985   5.262   1.368   2.244
   86SOPE   HN2 7986   5.215   1.290   2.378
   86SOPE   HN3 7987   5.370   1.286   2.334
   86SOPE   C12 7988   5.249   1.158   2.207
   86SOPE  H12A 7989   5.177   1.186   2.127
   86SOPE  H12B 7990   5.212   1.071   2.265
   86SOPE   C11 7991   5.380   1.107   2.142
   86SOPE  H11A 7992   5.418   1.190   2.079
   86SOPE  H11B 7993   5.342   1.017   2.088
   86SOPE     P 7994   5.570   0.943   2.212
   86SOPE   O13 7995   5.705   0.978   2.161
   86SOPE   O14 7996   5.504   0.848   2.119
   86SOPE   O12 7997   5.485   1.076   2.234
   86SOPE   O11 7998   5.579   0.868   2.349
   86SOPE    C1 7999   5.485   0.904   2.454
   86SOPE    HA 8000   5.385   0.867   2.424
   86SOPE    HB 8001   5.479   1.015   2.464
   86SOPE    C2 8002   5.528   0.842   2.591
   86SOPE    HS 8003   5.439   0.853   2.657
   86SOPE   O21 8004   5.642   0.908   2.651
   86SOPE   C21 8005   5.624   1.026   2.713
   86SOPE   O22 8006   5.515   1.084   2.726
   86SOPE   C22 8007   5.757   1.085   2.766
   86SOPE   H2R 8008   5.810   1.148   2.692
   86SOPE   H2S 8009   5.821   0.995   2.780
   86SOPE    C3 8010   5.555   0.685   2.572
   86SOPE    HX 8011   5.646   0.675   2.510
   86SOPE    HY 8012   5.462   0.654   2.521
   86SOPE   O31 8013   5.572   0.611   2.698
   86SOPE   C31 8014   5.452   0.575   2.747
   86SOPE   O32 8015   5.342   0.595   2.697
   86SOPE   C32 8016   5.476   0.489   2.876
   86SOPE   H2X 8017   5.562   0.539   2.927
   86SOPE   H2Y 8018   5.503   0.387   2.842
   86SOPE   C23 8019   5.741   1.158   2.900
   86SOPE   H3R 8020   5.644   1.128   2.947
   86SOPE   H3S 8021   5.740   1.269   2.893
   86SOPE   C24 8022   5.860   1.115   2.976
   86SOPE   H4R 8023   5.832   1.011   3.006
   86SOPE   H4S 8024   5.949   1.128   2.911
   86SOPE   C25 8025   5.873   1.193   3.108
   86SOPE   H5R 8026   5.945   1.278   3.107
   86SOPE   H5S 8027   5.775   1.239   3.133
   86SOPE   C26 8028   5.919   1.115   3.233
   86SOPE   H6R 8029   5.843   1.038   3.256
   86SOPE   H6S 8030   6.011   1.062   3.200
   86SOPE   C27 8031   5.942   1.202   3.352
   86SOPE   H7R 8032   6.028   1.264   3.320
   86SOPE   H7S 8033   5.848   1.257   3.375
   86SOPE   C28 8034   5.982   1.117   3.475
   86SOPE   H8R 8035   5.971   1.171   3.571
   86SOPE   H8S 8036   5.911   1.032   3.475
   86SOPE   C29 8037   6.124   1.072   3.461
   86SOPE   H91 8038   6.127   0.969   3.421
   86SOPE  C210 8039   6.237   1.119   3.521
   86SOPE  H101 8040   6.330   1.059   3.520
   86SOPE  C211 8041   6.246   1.253   3.599
   86SOPE  H11R 8042   6.148   1.301   3.621
   86SOPE  H11S 8043   6.304   1.325   3.539
   86SOPE  C212 8044   6.309   1.215   3.736
   86SOPE  H12R 8045   6.419   1.233   3.727
   86SOPE  H12S 8046   6.310   1.108   3.766
   86SOPE  C213 8047   6.249   1.295   3.849
   86SOPE  H13R 8048   6.155   1.240   3.870
   86SOPE  H13S 8049   6.244   1.405   3.834
   86SOPE  C214 8050   6.337   1.287   3.977
   86SOPE  H14R 8051   6.441   1.312   3.946
   86SOPE  H14S 8052   6.344   1.188   4.026
   86SOPE  C215 8053   6.288   1.393   4.074
   86SOPE  H15R 8054   6.177   1.400   4.076
   86SOPE  H15S 8055   6.317   1.495   4.041
   86SOPE  C216 8056   6.336   1.368   4.213
   86SOPE  H16R 8057   6.446   1.364   4.206
   86SOPE  H16S 8058   6.285   1.277   4.252
   86SOPE  C217 8059   6.298   1.480   4.313
   86SOPE  H17R 8060   6.328   1.577   4.267
   86SOPE  H17S 8061   6.355   1.471   4.409
   86SOPE  C218 8062   6.151   1.474   4.347
   86SOPE  H18R 8063   6.132   1.557   4.418
   86SOPE  H18S 8064   6.125   1.376   4.392
   86SOPE  H18T 8065   6.095   1.495   4.253
   86SOPE   C33 8066   5.353   0.484   2.963
   86SOPE   H3X 8067   5.275   0.427   2.908
   86SOPE   H3Y 8068   5.303   0.582   2.976
   86SOPE   C34 8069   5.374   0.425   3.102
   86SOPE   H4X 8070   5.436   0.489   3.167
   86SOPE   H4Y 8071   5.426   0.329   3.080
   86SOPE   C35 8072   5.245   0.385   3.177
   86SOPE   H5X 8073   5.195   0.295   3.135
   86SOPE   H5Y 8074   5.167   0.462   3.162
   86SOPE   C36 8075   5.281   0.365   3.333
   86SOPE   H6X 8076   5.359   0.286   3.335
   86SOPE   H6Y 8077   5.187   0.324   3.377
   86SOPE   C37 8078   5.302   0.496   3.403
   86SOPE   H7X 8079   5.201   0.533   3.429
   86SOPE   H7Y 8080   5.342   0.575   3.335
   86SOPE   C38 8081   5.402   0.491   3.523
   86SOPE   H8X 8082   5.510   0.483   3.497
   86SOPE   H8Y 8083   5.362   0.398   3.569
   86SOPE   C39 8084   5.398   0.597   3.625
   86SOPE   H9X 8085   5.296   0.610   3.669
   86SOPE   H9Y 8086   5.423   0.700   3.594
   86SOPE  C310 8087   5.489   0.564   3.747
   86SOPE  H10X 8088   5.598   0.574   3.731
   86SOPE  H10Y 8089   5.477   0.456   3.770
   86SOPE  C311 8090   5.463   0.647   3.868
   86SOPE  H11X 8091   5.361   0.623   3.904
   86SOPE  H11Y 8092   5.475   0.755   3.842
   86SOPE  C312 8093   5.557   0.619   3.983
   86SOPE  H12X 8094   5.646   0.685   3.973
   86SOPE  H12Y 8095   5.582   0.511   3.967
   86SOPE  C313 8096   5.497   0.661   4.119
   86SOPE  H13X 8097   5.406   0.597   4.115
   86SOPE  H13Y 8098   5.470   0.767   4.105
   86SOPE  C314 8099   5.588   0.636   4.244
   86SOPE  H14X 8100   5.687   0.686   4.236
   86SOPE  H14Y 8101   5.613   0.528   4.250
   86SOPE  C315 8102   5.516   0.673   4.376
   86SOPE  H15X 8103   5.418   0.622   4.372
   86SOPE  H15Y 8104   5.506   0.784   4.382
   86SOPE  C316 8105   5.589   0.616   4.499
   86SOPE  H16X 8106   5.691   0.657   4.512
   86SOPE  H16Y 8107   5.595   0.505   4.491
   86SOPE  C317 8108   5.510   0.633   4.628
   86SOPE  H17X 8109   5.408   0.591   4.613
   86SOPE  H17Y 8110   5.495   0.742   4.637
   86SOPE  C318 8111   5.577   0.575   4.752
   86SOPE  H18X 8112   5.600   0.468   4.734
   86SOPE  H18Y 8113   5.512   0.593   4.840
   86SOPE  H18Z 8114   5.670   0.633   4.771
   87SOPE     N 8115   6.391   0.248   2.415
   87SOPE   HN1 8116   6.394   0.144   2.413
   87SOPE   HN2 8117   6.295   0.284   2.396
   87SOPE   HN3 8118   6.454   0.297   2.348
   87SOPE   C12 8119   6.426   0.318   2.547
   87SOPE  H12A 8120   6.536   0.309   2.562
   87SOPE  H12B 8121   6.371   0.257   2.622
   87SOPE   C11 8122   6.378   0.467   2.530
   87SOPE  H11A 8123   6.389   0.520   2.627
   87SOPE  H11B 8124   6.268   0.470   2.513
   87SOPE     P 8125   6.581   0.606   2.435
   87SOPE   O13 8126   6.581   0.727   2.349
   87SOPE   O14 8127   6.695   0.517   2.406
   87SOPE   O12 8128   6.439   0.529   2.418
   87SOPE   O11 8129   6.577   0.647   2.587
   87SOPE    C1 8130   6.688   0.658   2.679
   87SOPE    HA 8131   6.745   0.753   2.663
   87SOPE    HB 8132   6.755   0.573   2.655
   87SOPE    C2 8133   6.624   0.638   2.821
   87SOPE    HS 8134   6.570   0.541   2.818
   87SOPE   O21 8135   6.546   0.756   2.851
   87SOPE   C21 8136   6.438   0.726   2.923
   87SOPE   O22 8137   6.396   0.609   2.944
   87SOPE   C22 8138   6.372   0.854   2.987
   87SOPE   H2R 8139   6.322   0.897   2.898
   87SOPE   H2S 8140   6.451   0.929   3.012
   87SOPE    C3 8141   6.736   0.616   2.926
   87SOPE    HX 8142   6.802   0.706   2.926
   87SOPE    HY 8143   6.801   0.535   2.886
   87SOPE   O31 8144   6.691   0.590   3.061
   87SOPE   C31 8145   6.682   0.462   3.094
   87SOPE   O32 8146   6.691   0.365   3.019
   87SOPE   C32 8147   6.648   0.452   3.240
   87SOPE   H2X 8148   6.537   0.448   3.244
   87SOPE   H2Y 8149   6.686   0.531   3.309
   87SOPE   C23 8150   6.279   0.824   3.110
   87SOPE   H3R 8151   6.202   0.748   3.088
   87SOPE   H3S 8152   6.228   0.919   3.138
   87SOPE   C24 8153   6.356   0.764   3.229
   87SOPE   H4R 8154   6.419   0.679   3.193
   87SOPE   H4S 8155   6.430   0.835   3.272
   87SOPE   C25 8156   6.263   0.704   3.337
   87SOPE   H5R 8157   6.211   0.778   3.400
   87SOPE   H5S 8158   6.198   0.630   3.284
   87SOPE   C26 8159   6.337   0.615   3.439
   87SOPE   H6R 8160   6.383   0.526   3.390
   87SOPE   H6S 8161   6.424   0.672   3.478
   87SOPE   C27 8162   6.247   0.583   3.561
   87SOPE   H7R 8163   6.236   0.683   3.608
   87SOPE   H7S 8164   6.147   0.548   3.527
   87SOPE   C28 8165   6.301   0.475   3.669
   87SOPE   H8R 8166   6.217   0.461   3.740
   87SOPE   H8S 8167   6.312   0.379   3.615
   87SOPE   C29 8168   6.422   0.502   3.752
   87SOPE   H91 8169   6.507   0.435   3.734
   87SOPE  C210 8170   6.442   0.584   3.858
   87SOPE  H101 8171   6.542   0.584   3.905
   87SOPE  C211 8172   6.344   0.684   3.917
   87SOPE  H11R 8173   6.355   0.667   4.026
   87SOPE  H11S 8174   6.237   0.658   3.901
   87SOPE  C212 8175   6.372   0.826   3.865
   87SOPE  H12R 8176   6.276   0.876   3.889
   87SOPE  H12S 8177   6.379   0.820   3.754
   87SOPE  C213 8178   6.486   0.905   3.926
   87SOPE  H13R 8179   6.485   1.013   3.898
   87SOPE  H13S 8180   6.582   0.863   3.888
   87SOPE  C214 8181   6.495   0.901   4.078
   87SOPE  H14R 8182   6.545   0.809   4.117
   87SOPE  H14S 8183   6.396   0.917   4.125
   87SOPE  C215 8184   6.585   1.017   4.128
   87SOPE  H15R 8185   6.533   1.111   4.101
   87SOPE  H15S 8186   6.686   1.010   4.083
   87SOPE  C216 8187   6.618   1.034   4.279
   87SOPE  H16R 8188   6.662   0.939   4.316
   87SOPE  H16S 8189   6.526   1.056   4.338
   87SOPE  C217 8190   6.708   1.161   4.301
   87SOPE  H17R 8191   6.669   1.235   4.228
   87SOPE  H17S 8192   6.810   1.142   4.263
   87SOPE  C218 8193   6.722   1.215   4.441
   87SOPE  H18R 8194   6.750   1.130   4.507
   87SOPE  H18S 8195   6.628   1.254   4.486
   87SOPE  H18T 8196   6.806   1.288   4.447
   87SOPE   C33 8197   6.701   0.330   3.312
   87SOPE   H3X 8198   6.811   0.341   3.298
   87SOPE   H3Y 8199   6.677   0.236   3.257
   87SOPE   C34 8200   6.643   0.324   3.452
   87SOPE   H4X 8201   6.534   0.308   3.439
   87SOPE   H4Y 8202   6.654   0.414   3.517
   87SOPE   C35 8203   6.714   0.215   3.528
   87SOPE   H5X 8204   6.824   0.230   3.519
   87SOPE   H5Y 8205   6.698   0.123   3.469
   87SOPE   C36 8206   6.689   0.190   3.673
   87SOPE   H6X 8207   6.582   0.159   3.680
   87SOPE   H6Y 8208   6.719   0.282   3.727
   87SOPE   C37 8209   6.777   0.084   3.735
   87SOPE   H7X 8210   0.056   0.123   3.729
   87SOPE   H7Y 8211   6.779   6.812   3.680
   87SOPE   C38 8212   6.737   0.059   3.876
   87SOPE   H8X 8213   6.647   6.819   3.881
   87SOPE   H8Y 8214   6.708   0.159   3.917
   87SOPE   C39 8215   0.013   6.811   3.972
   87SOPE   H9X 8216   0.106   0.047   3.978
   87SOPE   H9Y 8217   0.031   6.708   3.933
   87SOPE  C310 8218   6.787   6.794   4.116
   87SOPE  H10X 8219   6.775   0.069   4.161
   87SOPE  H10Y 8220   0.034   6.744   4.185
   87SOPE  C311 8221   6.668   6.708   4.140
   87SOPE  H11X 8222   6.689   6.608   4.097
   87SOPE  H11Y 8223   6.588   6.758   4.081
   87SOPE  C312 8224   6.628   6.708   4.286
   87SOPE  H12X 8225   6.639   6.810   4.327
   87SOPE  H12Y 8226   6.677   6.632   4.350
   87SOPE  C313 8227   6.487   6.651   4.305
   87SOPE  H13X 8228   6.486   6.547   4.267
   87SOPE  H13Y 8229   6.402   6.705   4.260
   87SOPE  C314 8230   6.441   6.637   4.451
   87SOPE  H14X 8231   6.331   6.626   4.442
   87SOPE  H14Y 8232   6.447   6.730   4.510
   87SOPE  C315 8233   6.511   6.523   4.517
   87SOPE  H15X 8234   6.612   6.548   4.557
   87SOPE  H15Y 8235   6.532   6.441   4.445
   87SOPE  C316 8236   6.417   6.460   4.618
   87SOPE  H16X 8237   6.337   6.403   4.568
   87SOPE  H16Y 8238   6.369   6.542   4.676
   87SOPE  C317 8239   6.474   6.356   4.712
   87SOPE  H17X 8240   6.496   6.265   4.652
   87SOPE  H17Y 8241   6.398   6.327   4.787
   87SOPE  C318 8242   6.603   6.408   4.776
   87SOPE  H18X 8243   6.620   6.346   4.866
   87SOPE  H18Y 8244   6.603   6.516   4.804
   87SOPE  H18Z 8245   6.690   6.395   4.709
   88SOPE     N 8246   1.011   5.509   2.169
   88SOPE   HN1 8247   1.027   5.407   2.179
   88SOPE   HN2 8248   1.028   5.557   2.078
   88SOPE   HN3 8249   1.065   5.556   2.244
   88SOPE   C12 8250   0.867   5.551   2.191
   88SOPE  H12A 8251   0.848   5.512   2.293
   88SOPE  H12B 8252   0.797   5.506   2.117
   88SOPE   C11 8253   0.855   5.704   2.184
   88SOPE  H11A 8254   0.753   5.736   2.214
   88SOPE  H11B 8255   0.868   5.727   2.076
   88SOPE     P 8256   0.952   5.936   2.268
   88SOPE   O13 8257   0.813   5.983   2.236
   88SOPE   O14 8258   1.072   5.990   2.193
   88SOPE   O12 8259   0.951   5.773   2.263
   88SOPE   O11 8260   0.970   5.955   2.427
   88SOPE    C1 8261   0.906   5.865   2.521
   88SOPE    HA 8262   0.855   5.779   2.472
   88SOPE    HB 8263   0.831   5.926   2.576
   88SOPE    C2 8264   1.011   5.820   2.628
   88SOPE    HS 8265   0.974   5.728   2.679
   88SOPE   O21 8266   1.051   5.924   2.718
   88SOPE   C21 8267   0.967   5.930   2.825
   88SOPE   O22 8268   0.872   5.860   2.850
   88SOPE   C22 8269   1.007   6.048   2.914
   88SOPE   H2R 8270   0.995   6.130   2.840
   88SOPE   H2S 8271   1.113   6.040   2.945
   88SOPE    C3 8272   1.136   5.762   2.552
   88SOPE    HX 8273   1.171   5.835   2.476
   88SOPE    HY 8274   1.105   5.677   2.486
   88SOPE   O31 8275   1.241   5.726   2.640
   88SOPE   C31 8276   1.225   5.611   2.709
   88SOPE   O32 8277   1.132   5.538   2.703
   88SOPE   C32 8278   1.353   5.577   2.788
   88SOPE   H2X 8279   1.427   5.556   2.708
   88SOPE   H2Y 8280   1.324   5.491   2.851
   88SOPE   C23 8281   0.919   6.070   3.043
   88SOPE   H3R 8282   0.816   6.088   3.008
   88SOPE   H3S 8283   0.948   6.161   3.100
   88SOPE   C24 8284   0.921   5.951   3.149
   88SOPE   H4R 8285   0.900   5.850   3.107
   88SOPE   H4S 8286   1.022   5.942   3.196
   88SOPE   C25 8287   0.818   5.964   3.264
   88SOPE   H5R 8288   0.845   6.052   3.327
   88SOPE   H5S 8289   0.719   5.983   3.219
   88SOPE   C26 8290   0.805   5.843   3.358
   88SOPE   H6R 8291   0.744   5.771   3.299
   88SOPE   H6S 8292   0.905   5.798   3.378
   88SOPE   C27 8293   0.744   5.864   3.495
   88SOPE   H7R 8294   0.790   5.942   3.560
   88SOPE   H7S 8295   0.641   5.900   3.477
   88SOPE   C28 8296   0.747   5.728   3.577
   88SOPE   H8R 8297   0.709   5.638   3.525
   88SOPE   H8S 8298   0.852   5.704   3.604
   88SOPE   C29 8299   0.674   5.734   3.711
   88SOPE   H91 8300   0.580   5.792   3.714
   88SOPE  C210 8301   0.731   5.719   3.838
   88SOPE  H101 8302   0.656   5.717   3.919
   88SOPE  C211 8303   0.863   5.654   3.872
   88SOPE  H11R 8304   0.892   5.685   3.975
   88SOPE  H11S 8305   0.946   5.691   3.808
   88SOPE  C212 8306   0.852   5.503   3.875
   88SOPE  H12R 8307   0.801   5.455   3.789
   88SOPE  H12S 8308   0.780   5.472   3.954
   88SOPE  C213 8309   0.987   5.423   3.897
   88SOPE  H13R 8310   1.065   5.436   3.818
   88SOPE  H13S 8311   0.953   5.318   3.888
   88SOPE  C214 8312   1.039   5.441   4.044
   88SOPE  H14R 8313   0.946   5.427   4.102
   88SOPE  H14S 8314   1.081   5.542   4.060
   88SOPE  C215 8315   1.135   5.328   4.091
   88SOPE  H15R 8316   1.218   5.340   4.018
   88SOPE  H15S 8317   1.091   5.227   4.077
   88SOPE  C216 8318   1.169   5.353   4.238
   88SOPE  H16R 8319   1.080   5.354   4.304
   88SOPE  H16S 8320   1.228   5.447   4.246
   88SOPE  C217 8321   1.247   5.237   4.305
   88SOPE  H17R 8322   1.183   5.148   4.296
   88SOPE  H17S 8323   1.271   5.265   4.410
   88SOPE  C218 8324   1.387   5.210   4.234
   88SOPE  H18R 8325   1.380   5.185   4.126
   88SOPE  H18S 8326   1.444   5.127   4.282
   88SOPE  H18T 8327   1.453   5.299   4.229
   88SOPE   C33 8328   1.396   5.692   2.878
   88SOPE   H3X 8329   1.398   5.789   2.823
   88SOPE   H3Y 8330   1.503   5.685   2.907
   88SOPE   C34 8331   1.302   5.705   3.002
   88SOPE   H4X 8332   1.279   5.600   3.030
   88SOPE   H4Y 8333   1.210   5.761   2.976
   88SOPE   C35 8334   1.368   5.760   3.127
   88SOPE   H5X 8335   1.420   5.855   3.103
   88SOPE   H5Y 8336   1.445   5.692   3.169
   88SOPE   C36 8337   1.274   5.779   3.249
   88SOPE   H6X 8338   1.171   5.813   3.223
   88SOPE   H6Y 8339   1.324   5.858   3.308
   88SOPE   C37 8340   1.254   5.650   3.332
   88SOPE   H7X 8341   1.348   5.626   3.385
   88SOPE   H7Y 8342   1.242   5.567   3.259
   88SOPE   C38 8343   1.136   5.658   3.426
   88SOPE   H8X 8344   1.044   5.653   3.365
   88SOPE   H8Y 8345   1.111   5.748   3.486
   88SOPE   C39 8346   1.140   5.539   3.533
   88SOPE   H9X 8347   1.118   5.450   3.470
   88SOPE   H9Y 8348   1.055   5.555   3.602
   88SOPE  C310 8349   1.274   5.528   3.619
   88SOPE  H10X 8350   1.360   5.498   3.556
   88SOPE  H10Y 8351   1.248   5.447   3.691
   88SOPE  C311 8352   1.311   5.659   3.695
   88SOPE  H11X 8353   1.222   5.679   3.757
   88SOPE  H11Y 8354   1.326   5.740   3.621
   88SOPE  C312 8355   1.441   5.660   3.783
   88SOPE  H12X 8356   1.527   5.641   3.715
   88SOPE  H12Y 8357   1.444   5.574   3.853
   88SOPE  C313 8358   1.462   5.783   3.867
   88SOPE  H13X 8359   1.369   5.793   3.927
   88SOPE  H13Y 8360   1.486   5.868   3.800
   88SOPE  C314 8361   1.578   5.767   3.973
   88SOPE  H14X 8362   1.600   5.869   4.012
   88SOPE  H14Y 8363   1.669   5.726   3.925
   88SOPE  C315 8364   1.527   5.679   4.093
   88SOPE  H15X 8365   1.515   5.581   4.040
   88SOPE  H15Y 8366   1.426   5.711   4.127
   88SOPE  C316 8367   1.622   5.673   4.214
   88SOPE  H16X 8368   1.567   5.646   4.306
   88SOPE  H16Y 8369   1.660   5.775   4.233
   88SOPE  C317 8370   1.738   5.576   4.196
   88SOPE  H17X 8371   1.818   5.598   4.270
   88SOPE  H17Y 8372   1.783   5.589   4.096
   88SOPE  C318 8373   1.709   5.427   4.215
   88SOPE  H18X 8374   1.807   5.374   4.208
   88SOPE  H18Y 8375   1.639   5.377   4.145
   88SOPE  H18Z 8376   1.677   5.411   4.320
   89SAPC     N 8377   5.333   2.697   7.228
   89SAPC   C12 8378   5.317   2.596   7.113
   89SAPC  H12A 8379   5.246   2.523   7.149
   89SAPC  H12B 8380   5.409   2.539   7.103
   89SAPC   C13 8381   5.204   2.762   7.279
   89SAPC  H13A 8382   5.226   2.845   7.345
   89SAPC  H13B 8383   5.132   2.799   7.208
   89SAPC  H13C 8384   5.146   2.690   7.335
   89SAPC   C14 8385   5.402   2.635   7.340
   89SAPC  H14A 8386   5.411   2.697   7.428
   89SAPC  H14B 8387   5.356   2.543   7.374
   89SAPC  H14C 8388   5.503   2.612   7.309
   89SAPC   C15 8389   5.430   2.802   7.172
   89SAPC  H15A 8390   5.451   2.874   7.250
   89SAPC  H15B 8391   5.526   2.757   7.149
   89SAPC  H15C 8392   5.391   2.858   7.088
   89SAPC   C11 8393   5.265   2.656   6.972
   89SAPC  H11A 8394   5.232   2.568   6.913
   89SAPC  H11B 8395   5.349   2.709   6.922
   89SAPC     P 8396   5.135   2.893   6.952
   89SAPC   O13 8397   5.020   2.949   7.032
   89SAPC   O14 8398   5.264   2.960   6.965
   89SAPC   O12 8399   5.152   2.741   6.992
   89SAPC   O11 8400   5.100   2.880   6.802
   89SAPC    C1 8401   4.965   2.913   6.754
   89SAPC    HA 8402   4.892   2.834   6.779
   89SAPC    HB 8403   4.923   3.011   6.784
   89SAPC    C2 8404   4.954   2.927   6.602
   89SAPC    HS 8405   4.851   2.962   6.577
   89SAPC   O21 8406   4.983   2.798   6.546
   89SAPC   C21 8407   4.916   2.771   6.433
   89SAPC   O22 8408   4.831   2.835   6.383
   89SAPC   C22 8409   4.978   2.650   6.365
   89SAPC   H2R 8410   5.058   2.692   6.301
   89SAPC   H2S 8411   5.040   2.597   6.441
   89SAPC    C3 8412   5.051   3.033   6.536
   89SAPC    HX 8413   5.151   2.987   6.549
   89SAPC    HY 8414   5.048   3.129   6.592
   89SAPC   O31 8415   5.027   3.048   6.394
   89SAPC   C31 8416   4.921   3.127   6.370
   89SAPC   O32 8417   4.867   3.200   6.448
   89SAPC   C32 8418   4.894   3.120   6.217
   89SAPC   H2X 8419   4.955   3.033   6.184
   89SAPC   H2Y 8420   4.937   3.208   6.164
   89SAPC   C23 8421   4.871   2.572   6.291
   89SAPC   H3R 8422   4.829   2.644   6.217
   89SAPC   H3S 8423   4.785   2.537   6.351
   89SAPC   C24 8424   4.940   2.453   6.224
   89SAPC   H4R 8425   4.954   2.375   6.302
   89SAPC   H4S 8426   5.035   2.493   6.183
   89SAPC   C25 8427   4.851   2.404   6.115
   89SAPC   H5R 8428   4.752   2.369   6.146
   89SAPC   C26 8429   4.878   2.399   5.982
   89SAPC   H6R 8430   4.788   2.386   5.920
   89SAPC   C27 8431   5.005   2.437   5.912
   89SAPC   H7R 8432   4.995   2.389   5.812
   89SAPC   H7S 8433   5.098   2.398   5.958
   89SAPC   C28 8434   5.048   2.585   5.895
   89SAPC   H8R 8435   5.139   2.612   5.950
   89SAPC   C29 8436   4.987   2.681   5.820
   89SAPC   H9R 8437   5.026   2.783   5.812
   89SAPC  C210 8438   4.859   2.673   5.742
   89SAPC  H10R 8439   4.820   2.777   5.734
   89SAPC  H10S 8440   4.786   2.609   5.796
   89SAPC  C211 8441   4.880   2.602   5.607
   89SAPC  H11R 8442   4.961   2.528   5.596
   89SAPC  C212 8443   4.812   2.633   5.497
   89SAPC  H12R 8444   4.853   2.586   5.406
   89SAPC  C213 8445   4.698   2.728   5.491
   89SAPC  H13R 8446   4.623   2.710   5.571
   89SAPC  H13S 8447   4.636   2.691   5.407
   89SAPC  C214 8448   4.729   2.876   5.476
   89SAPC  H14R 8449   4.804   2.905   5.551
   89SAPC  C215 8450   4.685   2.957   5.384
   89SAPC  H15R 8451   4.695   3.066   5.384
   89SAPC  C216 8452   4.591   2.923   5.273
   89SAPC  H16R 8453   4.521   3.007   5.249
   89SAPC  H16S 8454   4.528   2.836   5.302
   89SAPC  C217 8455   4.660   2.902   5.139
   89SAPC  H17R 8456   4.581   2.889   5.062
   89SAPC  H17S 8457   4.715   2.806   5.149
   89SAPC  C218 8458   4.743   3.023   5.106
   89SAPC  H18R 8459   4.826   3.027   5.181
   89SAPC  H18S 8460   4.697   3.118   5.140
   89SAPC  C219 8461   4.786   3.036   4.963
   89SAPC  H19R 8462   4.703   3.025   4.890
   89SAPC  H19S 8463   4.848   2.949   4.935
   89SAPC  C220 8464   4.864   3.166   4.938
   89SAPC  H20R 8465   4.905   3.161   4.835
   89SAPC  H20S 8466   4.955   3.151   5.000
   89SAPC  H20T 8467   4.807   3.258   4.961
   89SAPC   C33 8468   4.743   3.096   6.181
   89SAPC   H3X 8469   4.694   3.193   6.202
   89SAPC   H3Y 8470   4.702   3.022   6.254
   89SAPC   C34 8471   4.723   3.053   6.038
   89SAPC   H4X 8472   4.800   2.977   6.013
   89SAPC   H4Y 8473   4.739   3.145   5.977
   89SAPC   C35 8474   4.582   3.001   5.998
   89SAPC   H5X 8475   4.570   2.906   6.054
   89SAPC   H5Y 8476   4.570   2.984   5.889
   89SAPC   C36 8477   4.465   3.093   6.028
   89SAPC   H6X 8478   4.447   3.092   6.138
   89SAPC   H6Y 8479   4.378   3.053   5.970
   89SAPC   C37 8480   4.478   3.239   5.982
   89SAPC   H7X 8481   4.557   3.284   6.046
   89SAPC   H7Y 8482   4.388   3.296   6.015
   89SAPC   C38 8483   4.497   3.253   5.836
   89SAPC   H8X 8484   4.435   3.188   5.771
   89SAPC   H8Y 8485   4.605   3.230   5.822
   89SAPC   C39 8486   4.472   3.398   5.790
   89SAPC   H9X 8487   4.525   3.476   5.849
   89SAPC   H9Y 8488   4.363   3.410   5.808
   89SAPC  C310 8489   4.500   3.431   5.642
   89SAPC  H10X 8490   4.609   3.415   5.627
   89SAPC  H10Y 8491   4.482   3.540   5.635
   89SAPC  C311 8492   4.418   3.348   5.541
   89SAPC  H11X 8493   4.308   3.357   5.543
   89SAPC  H11Y 8494   4.452   3.243   5.550
   89SAPC  C312 8495   4.455   3.380   5.389
   89SAPC  H12X 8496   4.565   3.379   5.376
   89SAPC  H12Y 8497   4.416   3.483   5.374
   89SAPC  C313 8498   4.395   3.279   5.287
   89SAPC  H13X 8499   4.285   3.275   5.304
   89SAPC  H13Y 8500   4.434   3.176   5.300
   89SAPC  C314 8501   4.435   3.316   5.141
   89SAPC  H14X 8502   4.544   3.327   5.128
   89SAPC  H14Y 8503   4.396   3.416   5.113
   89SAPC  C315 8504   4.391   3.218   5.030
   89SAPC  H15X 8505   4.280   3.211   5.028
   89SAPC  H15Y 8506   4.451   3.126   5.046
   89SAPC  C316 8507   4.437   3.266   4.889
   89SAPC  H16X 8508   4.547   3.262   4.877
   89SAPC  H16Y 8509   4.401   3.369   4.870
   89SAPC  C317 8510   4.375   3.177   4.776
   89SAPC  H17X 8511   4.362   3.080   4.827
   89SAPC  H17Y 8512   4.451   3.168   4.695
   89SAPC  C318 8513   4.243   3.223   4.711
   89SAPC  H18X 8514   4.213   3.165   4.621
   89SAPC  H18Y 8515   4.246   3.332   4.690
   89SAPC  H18Z 8516   4.165   3.193   4.785
   90SAPC     N 8517   3.179   5.646   6.990
   90SAPC   C12 8518   3.233   5.687   6.859
   90SAPC  H12A 8519   3.192   5.621   6.783
   90SAPC  H12B 8520   3.339   5.672   6.862
   90SAPC   C13 8521   3.238   5.733   7.099
   90SAPC  H13A 8522   3.346   5.727   7.096
   90SAPC  H13B 8523   3.205   5.834   7.081
   90SAPC  H13C 8524   3.206   5.710   7.200
   90SAPC   C14 8525   3.037   5.653   6.996
   90SAPC  H14A 8526   2.978   5.597   6.925
   90SAPC  H14B 8527   2.991   5.606   7.082
   90SAPC  H14C 8528   3.004   5.756   6.990
   90SAPC   C15 8529   3.225   5.502   7.013
   90SAPC  H15A 8530   3.173   5.434   6.947
   90SAPC  H15B 8531   3.329   5.495   6.985
   90SAPC  H15C 8532   3.209   5.476   7.117
   90SAPC   C11 8533   3.211   5.837   6.811
   90SAPC  H11A 8534   3.116   5.878   6.852
   90SAPC  H11B 8535   3.182   5.833   6.704
   90SAPC     P 8536   3.463   5.881   6.755
   90SAPC   O13 8537   3.551   5.995   6.786
   90SAPC   O14 8538   3.522   5.752   6.792
   90SAPC   O12 8539   3.328   5.908   6.837
   90SAPC   O11 8540   3.427   5.881   6.600
   90SAPC    C1 8541   3.535   5.860   6.504
   90SAPC    HA 8542   3.604   5.944   6.480
   90SAPC    HB 8543   3.604   5.783   6.545
   90SAPC    C2 8544   3.464   5.811   6.368
   90SAPC    HS 8545   3.543   5.759   6.309
   90SAPC   O21 8546   3.403   5.914   6.287
   90SAPC   C21 8547   3.459   5.947   6.171
   90SAPC   O22 8548   3.560   5.899   6.118
   90SAPC   C22 8549   3.373   6.052   6.104
   90SAPC   H2R 8550   3.346   6.132   6.175
   90SAPC   H2S 8551   3.439   6.100   6.029
   90SAPC    C3 8552   3.358   5.704   6.392
   90SAPC    HX 8553   3.288   5.757   6.460
   90SAPC    HY 8554   3.405   5.623   6.452
   90SAPC   O31 8555   3.285   5.658   6.281
   90SAPC   C31 8556   3.365   5.599   6.190
   90SAPC   O32 8557   3.481   5.569   6.203
   90SAPC   C32 8558   3.271   5.603   6.065
   90SAPC   H2X 8559   3.251   5.711   6.048
   90SAPC   H2Y 8560   3.175   5.553   6.091
   90SAPC   C23 8561   3.236   5.999   6.051
   90SAPC   H3R 8562   3.177   5.959   6.136
   90SAPC   H3S 8563   3.260   5.920   5.976
   90SAPC   C24 8564   3.141   6.102   5.993
   90SAPC   H4R 8565   3.100   6.168   6.072
   90SAPC   H4S 8566   3.049   6.047   5.964
   90SAPC   C25 8567   3.204   6.190   5.885
   90SAPC   H5R 8568   3.211   6.294   5.922
   90SAPC   C26 8569   3.251   6.153   5.761
   90SAPC   H6R 8570   3.303   6.232   5.705
   90SAPC   C27 8571   3.235   6.020   5.701
   90SAPC   H7R 8572   3.157   6.018   5.622
   90SAPC   H7S 8573   3.188   5.960   5.782
   90SAPC   C28 8574   3.365   5.958   5.648
   90SAPC   H8R 8575   3.449   5.964   5.719
   90SAPC   C29 8576   3.392   5.920   5.522
   90SAPC   H9R 8577   3.494   5.886   5.497
   90SAPC  C210 8578   3.291   5.922   5.408
   90SAPC  H10R 8579   3.193   5.895   5.454
   90SAPC  H10S 8580   3.305   5.831   5.345
   90SAPC  C211 8581   3.280   6.061   5.348
   90SAPC  H11R 8582   3.284   6.146   5.417
   90SAPC  C212 8583   3.272   6.088   5.212
   90SAPC  H12R 8584   3.273   6.196   5.189
   90SAPC  C213 8585   3.269   5.987   5.103
   90SAPC  H13R 8586   3.236   5.884   5.132
   90SAPC  H13S 8587   3.372   5.977   5.062
   90SAPC  C214 8588   3.163   6.030   5.000
   90SAPC  H14R 8589   3.071   6.080   5.033
   90SAPC  C215 8590   3.188   6.045   4.867
   90SAPC  H15R 8591   3.100   6.072   4.807
   90SAPC  C216 8592   3.318   6.008   4.799
   90SAPC  H16R 8593   3.302   5.951   4.706
   90SAPC  H16S 8594   3.390   5.951   4.862
   90SAPC  C217 8595   3.381   6.137   4.749
   90SAPC  H17R 8596   3.490   6.126   4.730
   90SAPC  H17S 8597   3.377   6.214   4.830
   90SAPC  C218 8598   3.322   6.203   4.619
   90SAPC  H18R 8599   3.216   6.230   4.639
   90SAPC  H18S 8600   3.344   6.134   4.535
   90SAPC  C219 8601   3.406   6.337   4.597
   90SAPC  H19R 8602   3.512   6.306   4.606
   90SAPC  H19S 8603   3.375   6.411   4.674
   90SAPC  C220 8604   3.390   6.402   4.462
   90SAPC  H20R 8605   3.288   6.446   4.461
   90SAPC  H20S 8606   3.421   6.338   4.377
   90SAPC  H20T 8607   3.461   6.486   4.452
   90SAPC   C33 8608   3.329   5.535   5.938
   90SAPC   H3X 8609   3.378   5.440   5.969
   90SAPC   H3Y 8610   3.406   5.599   5.889
   90SAPC   C34 8611   3.225   5.518   5.828
   90SAPC   H4X 8612   3.137   5.471   5.876
   90SAPC   H4Y 8613   3.264   5.442   5.757
   90SAPC   C35 8614   3.185   5.644   5.755
   90SAPC   H5X 8615   3.279   5.693   5.721
   90SAPC   H5Y 8616   3.140   5.717   5.825
   90SAPC   C36 8617   3.112   5.631   5.622
   90SAPC   H6X 8618   3.106   5.731   5.575
   90SAPC   H6Y 8619   3.005   5.608   5.643
   90SAPC   C37 8620   3.179   5.538   5.515
   90SAPC   H7X 8621   3.127   5.527   5.417
   90SAPC   H7Y 8622   3.177   5.434   5.556
   90SAPC   C38 8623   3.326   5.575   5.482
   90SAPC   H8X 8624   3.395   5.540   5.562
   90SAPC   H8Y 8625   3.333   5.685   5.494
   90SAPC   C39 8626   3.379   5.512   5.349
   90SAPC   H9X 8627   3.358   5.404   5.338
   90SAPC   H9Y 8628   3.490   5.526   5.354
   90SAPC  C310 8629   3.321   5.571   5.219
   90SAPC  H10X 8630   3.342   5.680   5.220
   90SAPC  H10Y 8631   3.211   5.556   5.213
   90SAPC  C311 8632   3.405   5.508   5.107
   90SAPC  H11X 8633   3.375   5.401   5.113
   90SAPC  H11Y 8634   3.512   5.519   5.134
   90SAPC  C312 8635   3.371   5.570   4.968
   90SAPC  H12X 8636   3.390   5.679   4.984
   90SAPC  H12Y 8637   3.263   5.555   4.945
   90SAPC  C313 8638   3.457   5.531   4.844
   90SAPC  H13X 8639   3.554   5.511   4.894
   90SAPC  H13Y 8640   3.455   5.616   4.772
   90SAPC  C314 8641   3.403   5.411   4.776
   90SAPC  H14X 8642   3.295   5.425   4.758
   90SAPC  H14Y 8643   3.421   5.330   4.850
   90SAPC  C315 8644   3.490   5.369   4.654
   90SAPC  H15X 8645   3.597   5.365   4.683
   90SAPC  H15Y 8646   3.478   5.451   4.579
   90SAPC  C316 8647   3.445   5.237   4.584
   90SAPC  H16X 8648   3.438   5.158   4.662
   90SAPC  H16Y 8649   3.517   5.207   4.506
   90SAPC  C317 8650   3.313   5.265   4.513
   90SAPC  H17X 8651   3.333   5.354   4.450
   90SAPC  H17Y 8652   3.245   5.305   4.592
   90SAPC  C318 8653   3.257   5.140   4.431
   90SAPC  H18X 8654   3.156   5.168   4.395
   90SAPC  H18Y 8655   3.229   5.069   4.512
   90SAPC  H18Z 8656   3.323   5.106   4.348
   91SAPC     N 8657   1.260   5.917   6.896
   91SAPC   C12 8658   1.180   5.923   6.767
   91SAPC  H12A 8659   1.159   6.025   6.738
   91SAPC  H12B 8660   1.081   5.893   6.797
   91SAPC   C13 8661   1.264   5.775   6.940
   91SAPC  H13A 8662   1.169   5.732   6.968
   91SAPC  H13B 8663   1.308   5.708   6.868
   91SAPC  H13C 8664   1.314   5.770   7.036
   91SAPC   C14 8665   1.396   5.966   6.868
   91SAPC  H14A 8666   1.446   6.000   6.957
   91SAPC  H14B 8667   1.455   5.889   6.820
   91SAPC  H14C 8668   1.394   6.052   6.802
   91SAPC   C15 8669   1.187   5.995   6.996
   91SAPC  H15A 8670   1.154   6.086   6.949
   91SAPC  H15B 8671   1.100   5.938   7.026
   91SAPC  H15C 8672   1.237   6.018   7.089
   91SAPC   C11 8673   1.239   5.849   6.644
   91SAPC  H11A 8674   1.235   5.739   6.631
   91SAPC  H11B 8675   1.345   5.879   6.626
   91SAPC     P 8676   1.053   5.847   6.435
   91SAPC   O13 8677   0.924   5.821   6.510
   91SAPC   O14 8678   1.040   5.943   6.324
   91SAPC   O12 8679   1.167   5.909   6.531
   91SAPC   O11 8680   1.093   5.704   6.385
   91SAPC    C1 8681   1.208   5.664   6.321
   91SAPC    HA 8682   1.276   5.751   6.307
   91SAPC    HB 8683   1.251   5.583   6.384
   91SAPC    C2 8684   1.196   5.597   6.182
   91SAPC    HS 8685   1.299   5.566   6.152
   91SAPC   O21 8686   1.135   5.678   6.081
   91SAPC   C21 8687   1.204   5.793   6.059
   91SAPC   O22 8688   1.322   5.806   6.070
   91SAPC   C22 8689   1.109   5.882   5.977
   91SAPC   H2R 8690   1.077   5.825   5.886
   91SAPC   H2S 8691   1.017   5.906   6.035
   91SAPC    C3 8692   1.105   5.467   6.205
   91SAPC    HX 8693   1.012   5.494   6.259
   91SAPC    HY 8694   1.163   5.400   6.272
   91SAPC   O31 8695   1.063   5.410   6.084
   91SAPC   C31 8696   1.140   5.320   6.040
   91SAPC   O32 8697   1.252   5.287   6.074
   91SAPC   C32 8698   1.057   5.233   5.942
   91SAPC   H2X 8699   0.968   5.189   5.992
   91SAPC   H2Y 8700   1.123   5.149   5.911
   91SAPC   C23 8701   1.172   6.013   5.926
   91SAPC   H3R 8702   1.247   5.992   5.847
   91SAPC   H3S 8703   1.225   6.061   6.011
   91SAPC   C24 8704   1.058   6.106   5.885
   91SAPC   H4R 8705   1.009   6.144   5.978
   91SAPC   H4S 8706   0.975   6.050   5.838
   91SAPC   C25 8707   1.103   6.213   5.786
   91SAPC   H5R 8708   1.098   6.318   5.820
   91SAPC   C26 8709   1.142   6.201   5.660
   91SAPC   H6R 8710   1.167   6.294   5.607
   91SAPC   C27 8711   1.146   6.080   5.569
   91SAPC   H7R 8712   1.123   5.982   5.616
   91SAPC   H7S 8713   1.246   6.077   5.520
   91SAPC   C28 8714   1.034   6.091   5.476
   91SAPC   H8R 8715   0.933   6.068   5.512
   91SAPC   C29 8716   1.061   6.136   5.351
   91SAPC   H9R 8717   0.981   6.139   5.276
   91SAPC  C210 8718   1.185   6.177   5.282
   91SAPC  H10R 8719   1.214   6.100   5.207
   91SAPC  H10S 8720   1.273   6.182   5.349
   91SAPC  C211 8721   1.142   6.308   5.226
   91SAPC  H11R 8722   1.169   6.390   5.294
   91SAPC  C212 8723   1.079   6.326   5.107
   91SAPC  H12R 8724   1.049   6.427   5.077
   91SAPC  C213 8725   1.040   6.223   5.008
   91SAPC  H13R 8726   0.929   6.225   5.017
   91SAPC  H13S 8727   1.080   6.124   5.041
   91SAPC  C214 8728   1.092   6.246   4.870
   91SAPC  H14R 8729   1.195   6.215   4.845
   91SAPC  C215 8730   1.031   6.321   4.773
   91SAPC  H15R 8731   1.076   6.329   4.673
   91SAPC  C216 8732   0.907   6.400   4.781
   91SAPC  H16R 8733   0.922   6.504   4.816
   91SAPC  H16S 8734   0.834   6.360   4.855
   91SAPC  C217 8735   0.849   6.414   4.638
   91SAPC  H17R 8736   0.926   6.429   4.559
   91SAPC  H17S 8737   0.774   6.496   4.642
   91SAPC  C218 8738   0.761   6.298   4.593
   91SAPC  H18R 8739   0.666   6.296   4.650
   91SAPC  H18S 8740   0.812   6.206   4.630
   91SAPC  C219 8741   0.729   6.287   4.444
   91SAPC  H19R 8742   0.826   6.276   4.391
   91SAPC  H19S 8743   0.698   6.387   4.407
   91SAPC  C220 8744   0.640   6.168   4.408
   91SAPC  H20R 8745   0.595   6.170   4.306
   91SAPC  H20S 8746   0.554   6.148   4.476
   91SAPC  H20T 8747   0.697   6.074   4.420
   91SAPC   C33 8748   1.002   5.310   5.820
   91SAPC   H3X 8749   1.086   5.337   5.753
   91SAPC   H3Y 8750   0.954   5.395   5.872
   91SAPC   C34 8751   0.890   5.234   5.762
   91SAPC   H4X 8752   0.840   5.175   5.842
   91SAPC   H4Y 8753   0.913   5.159   5.684
   91SAPC   C35 8754   0.777   5.318   5.705
   91SAPC   H5X 8755   0.814   5.369   5.613
   91SAPC   H5Y 8756   0.738   5.390   5.781
   91SAPC   C36 8757   0.648   5.243   5.678
   91SAPC   H6X 8758   0.611   5.219   5.780
   91SAPC   H6Y 8759   0.662   5.144   5.630
   91SAPC   C37 8760   0.543   5.325   5.605
   91SAPC   H7X 8761   0.563   5.335   5.496
   91SAPC   H7Y 8762   0.545   5.431   5.639
   91SAPC   C38 8763   0.397   5.267   5.628
   91SAPC   H8X 8764   0.393   5.243   5.737
   91SAPC   H8Y 8765   0.373   5.179   5.566
   91SAPC   C39 8766   0.271   5.360   5.604
   91SAPC   H9X 8767   0.273   5.440   5.681
   91SAPC   H9Y 8768   0.179   5.300   5.622
   91SAPC  C310 8769   0.265   5.426   5.465
   91SAPC  H10X 8770   0.355   5.488   5.444
   91SAPC  H10Y 8771   0.170   5.483   5.462
   91SAPC  C311 8772   0.256   5.327   5.348
   91SAPC  H11X 8773   0.158   5.276   5.354
   91SAPC  H11Y 8774   0.330   5.245   5.350
   91SAPC  C312 8775   0.290   5.387   5.215
   91SAPC  H12X 8776   0.397   5.417   5.210
   91SAPC  H12Y 8777   0.228   5.478   5.200
   91SAPC  C313 8778   0.259   5.301   5.096
   91SAPC  H13X 8779   0.161   5.328   5.052
   91SAPC  H13Y 8780   0.235   5.197   5.127
   91SAPC  C314 8781   0.371   5.299   5.003
   91SAPC  H14X 8782   0.461   5.249   5.046
   91SAPC  H14Y 8783   0.401   5.401   4.970
   91SAPC  C315 8784   0.329   5.239   4.858
   91SAPC  H15X 8785   0.246   5.300   4.817
   91SAPC  H15Y 8786   0.297   5.135   4.878
   91SAPC  C316 8787   0.434   5.235   4.752
   91SAPC  H16X 8788   0.524   5.193   4.802
   91SAPC  H16Y 8789   0.469   5.337   4.726
   91SAPC  C317 8790   0.413   5.144   4.631
   91SAPC  H17X 8791   0.407   5.037   4.662
   91SAPC  H17Y 8792   0.506   5.148   4.571
   91SAPC  C318 8793   0.293   5.190   4.541
   91SAPC  H18X 8794   0.195   5.170   4.589
   91SAPC  H18Y 8795   0.308   5.132   4.447
   91SAPC  H18Z 8796   0.295   5.300   4.528
   92SAPC     N 8797   5.885   4.789   7.022
   92SAPC   C12 8798   5.910   4.754   6.881
   92SAPC  H12A 8799   5.826   4.701   6.838
   92SAPC  H12B 8800   6.005   4.703   6.876
   92SAPC   C13 8801   5.827   4.671   7.086
   92SAPC  H13A 8802   5.892   4.585   7.071
   92SAPC  H13B 8803   5.815   4.687   7.192
   92SAPC  H13C 8804   5.732   4.646   7.041
   92SAPC   C14 8805   6.000   4.835   7.105
   92SAPC  H14A 8806   6.090   4.777   7.090
   92SAPC  H14B 8807   6.025   4.938   7.084
   92SAPC  H14C 8808   5.978   4.819   7.210
   92SAPC   C15 8809   5.774   4.888   7.038
   92SAPC  H15A 8810   5.796   4.971   6.973
   92SAPC  H15B 8811   5.673   4.859   7.010
   92SAPC  H15C 8812   5.754   4.918   7.140
   92SAPC   C11 8813   5.930   4.884   6.789
   92SAPC  H11A 8814   5.836   4.943   6.793
   92SAPC  H11B 8815   5.943   4.852   6.684
   92SAPC     P 8816   6.184   4.938   6.781
   92SAPC   O13 8817   6.266   5.056   6.781
   92SAPC   O14 8818   6.240   4.827   6.864
   92SAPC   O12 8819   6.028   4.974   6.827
   92SAPC   O11 8820   6.182   4.901   6.625
   92SAPC    C1 8821   6.159   4.996   6.527
   92SAPC    HA 8822   6.066   4.971   6.472
   92SAPC    HB 8823   6.146   5.098   6.567
   92SAPC    C2 8824   6.267   4.998   6.424
   92SAPC    HS 8825   6.236   5.080   6.356
   92SAPC   O21 8826   6.268   4.872   6.358
   92SAPC   C21 8827   6.275   4.863   6.228
   92SAPC   O22 8828   6.272   4.955   6.146
   92SAPC   C22 8829   6.321   4.714   6.199
   92SAPC   H2R 8830   6.382   4.684   6.287
   92SAPC   H2S 8831   6.239   4.639   6.197
   92SAPC    C3 8832   6.407   5.026   6.478
   92SAPC    HX 8833   6.435   4.946   6.550
   92SAPC    HY 8834   6.424   5.122   6.531
   92SAPC   O31 8835   6.507   5.015   6.368
   92SAPC   C31 8836   6.521   5.128   6.297
   92SAPC   O32 8837   6.447   5.225   6.301
   92SAPC   C32 8838   6.638   5.114   6.191
   92SAPC   H2X 8839   6.712   5.047   6.240
   92SAPC   H2Y 8840   6.683   5.216   6.187
   92SAPC   C23 8841   6.399   4.699   6.067
   92SAPC   H3R 8842   6.463   4.610   6.083
   92SAPC   H3S 8843   6.472   4.780   6.045
   92SAPC   C24 8844   6.310   4.673   5.951
   92SAPC   H4R 8845   6.265   4.768   5.916
   92SAPC   H4S 8846   6.221   4.609   5.962
   92SAPC   C25 8847   6.401   4.618   5.838
   92SAPC   H5R 8848   6.457   4.529   5.871
   92SAPC   C26 8849   6.423   4.670   5.716
   92SAPC   H6R 8850   6.470   4.604   5.642
   92SAPC   C27 8851   6.346   4.776   5.636
   92SAPC   H7R 8852   6.425   4.834   5.584
   92SAPC   H7S 8853   6.294   4.851   5.699
   92SAPC   C28 8854   6.255   4.711   5.527
   92SAPC   H8R 8855   6.162   4.671   5.571
   92SAPC   C29 8856   6.266   4.698   5.390
   92SAPC   H9R 8857   6.176   4.680   5.330
   92SAPC  C210 8858   6.393   4.748   5.318
   92SAPC  H10R 8859   6.396   4.684   5.228
   92SAPC  H10S 8860   6.484   4.744   5.382
   92SAPC  C211 8861   6.349   4.893   5.284
   92SAPC  H11R 8862   6.328   4.952   5.374
   92SAPC  C212 8863   6.312   4.946   5.165
   92SAPC  H12R 8864   6.282   5.052   5.156
   92SAPC  C213 8865   6.325   4.879   5.031
   92SAPC  H13R 8866   6.253   4.795   5.024
   92SAPC  H13S 8867   6.422   4.827   5.020
   92SAPC  C214 8868   6.301   4.968   4.909
   92SAPC  H14R 8869   6.200   5.011   4.915
   92SAPC  C215 8870   6.392   5.013   4.825
   92SAPC  H15R 8871   6.354   5.081   4.747
   92SAPC  C216 8872   6.539   4.998   4.826
   92SAPC  H16R 8873   6.568   4.895   4.859
   92SAPC  H16S 8874   6.588   5.051   4.911
   92SAPC  C217 8875   6.605   5.012   4.687
   92SAPC  H17R 8876   6.706   4.964   4.687
   92SAPC  H17S 8877   6.610   5.118   4.653
   92SAPC  C218 8878   6.542   4.933   4.577
   92SAPC  H18R 8879   6.441   4.976   4.556
   92SAPC  H18S 8880   6.513   4.834   4.617
   92SAPC  C219 8881   6.634   4.925   4.450
   92SAPC  H19R 8882   6.580   4.875   4.368
   92SAPC  H19S 8883   6.712   4.849   4.470
   92SAPC  C220 8884   6.687   5.062   4.402
   92SAPC  H20R 8885   6.604   5.119   4.355
   92SAPC  H20S 8886   6.767   5.049   4.326
   92SAPC  H20T 8887   6.734   5.124   4.481
   92SAPC   C33 8888   6.597   5.053   6.048
   92SAPC   H3X 8889   6.503   5.103   6.015
   92SAPC   H3Y 8890   6.574   4.947   6.071
   92SAPC   C34 8891   6.696   5.083   5.942
   92SAPC   H4X 8892   6.785   5.017   5.944
   92SAPC   H4Y 8893   6.744   5.182   5.961
   92SAPC   C35 8894   6.655   5.065   5.795
   92SAPC   H5X 8895   6.578   5.140   5.768
   92SAPC   H5Y 8896   6.612   4.963   5.790
   92SAPC   C36 8897   6.766   5.061   5.690
   92SAPC   H6X 8898   0.018   4.990   5.728
   92SAPC   H6Y 8899   6.809   5.161   5.669
   92SAPC   C37 8900   6.711   5.009   5.555
   92SAPC   H7X 8901   6.633   5.086   5.535
   92SAPC   H7Y 8902   6.645   4.920   5.554
   92SAPC   C38 8903   6.819   5.004   5.443
   92SAPC   H8X 8904   0.077   4.935   5.470
   92SAPC   H8Y 8905   0.031   5.107   5.428
   92SAPC   C39 8906   6.759   4.951   5.313
   92SAPC   H9X 8907   6.670   5.007   5.277
   92SAPC   H9Y 8908   6.717   4.849   5.325
   92SAPC  C310 8909   0.032   4.947   5.195
   92SAPC  H10X 8910   0.124   4.890   5.216
   92SAPC  H10Y 8911   0.057   5.052   5.168
   92SAPC  C311 8912   6.792   4.881   5.077
   92SAPC  H11X 8913   6.693   4.923   5.049
   92SAPC  H11Y 8914   6.784   4.771   5.088
   92SAPC  C312 8915   0.054   4.902   4.952
   92SAPC  H12X 8916   0.059   5.009   4.922
   92SAPC  H12Y 8917   0.006   4.838   4.875
   92SAPC  C313 8918   0.197   4.853   4.962
   92SAPC  H13X 8919   0.197   4.748   4.998
   92SAPC  H13Y 8920   0.257   4.924   5.023
   92SAPC  C314 8921   0.268   4.849   4.819
   92SAPC  H14X 8922   0.374   4.881   4.826
   92SAPC  H14Y 8923   0.231   4.931   4.755
   92SAPC  C315 8924   0.237   4.719   4.746
   92SAPC  H15X 8925   0.127   4.705   4.749
   92SAPC  H15Y 8926   0.295   4.646   4.807
   92SAPC  C316 8927   0.290   4.702   4.607
   92SAPC  H16X 8928   0.277   4.601   4.563
   92SAPC  H16Y 8929   0.393   4.736   4.581
   92SAPC  C317 8930   0.204   4.789   4.511
   92SAPC  H17X 8931   0.172   4.886   4.556
   92SAPC  H17Y 8932   0.114   4.725   4.498
   92SAPC  C318 8933   0.260   4.807   4.364
   92SAPC  H18X 8934   0.309   4.712   4.334
   92SAPC  H18Y 8935   0.336   4.888   4.355
   92SAPC  H18Z 8936   0.178   4.846   4.300
   93SAPC     N 8937   0.795   6.571   6.622
   93SAPC   C12 8938   0.774   6.505   6.482
   93SAPC  H12A 8939   0.750   6.585   6.413
   93SAPC  H12B 8940   0.687   6.441   6.477
   93SAPC   C13 8941   0.904   6.674   6.614
   93SAPC  H13A 8942   0.946   6.696   6.711
   93SAPC  H13B 8943   0.984   6.635   6.553
   93SAPC  H13C 8944   0.868   6.769   6.578
   93SAPC   C14 8945   0.673   6.628   6.682
   93SAPC  H14A 8946   0.629   6.706   6.621
   93SAPC  H14B 8947   0.600   6.551   6.702
   93SAPC  H14C 8948   0.696   6.675   6.776
   93SAPC   C15 8949   0.836   6.467   6.723
   93SAPC  H15A 8950   0.822   6.503   6.824
   93SAPC  H15B 8951   0.766   6.386   6.708
   93SAPC  H15C 8952   0.939   6.441   6.704
   93SAPC   C11 8953   0.888   6.428   6.420
   93SAPC  H11A 8954   0.853   6.397   6.319
   93SAPC  H11B 8955   0.903   6.340   6.486
   93SAPC     P 8956   1.147   6.458   6.445
   93SAPC   O13 8957   1.235   6.583   6.449
   93SAPC   O14 8958   1.153   6.375   6.567
   93SAPC   O12 8959   1.007   6.513   6.404
   93SAPC   O11 8960   1.191   6.369   6.327
   93SAPC    C1 8961   1.167   6.426   6.192
   93SAPC    HA 8962   1.139   6.336   6.133
   93SAPC    HB 8963   1.091   6.506   6.180
   93SAPC    C2 8964   1.284   6.491   6.123
   93SAPC    HS 8965   1.290   6.600   6.144
   93SAPC   O21 8966   1.263   6.476   5.982
   93SAPC   C21 8967   1.331   6.560   5.902
   93SAPC   O22 8968   1.406   6.653   5.939
   93SAPC   C22 8969   1.324   6.514   5.756
   93SAPC   H2R 8970   1.335   6.404   5.741
   93SAPC   H2S 8971   1.223   6.550   5.724
   93SAPC    C3 8972   1.426   6.428   6.156
   93SAPC    HX 8973   1.444   6.428   6.266
   93SAPC    HY 8974   1.511   6.489   6.119
   93SAPC   O31 8975   1.432   6.293   6.105
   93SAPC   C31 8976   1.550   6.225   6.114
   93SAPC   O32 8977   1.638   6.259   6.195
   93SAPC   C32 8978   1.542   6.112   6.013
   93SAPC   H2X 8979   1.440   6.071   6.032
   93SAPC   H2Y 8980   1.613   6.033   6.045
   93SAPC   C23 8981   1.440   6.575   5.669
   93SAPC   H3R 8982   1.540   6.576   5.716
   93SAPC   H3S 8983   1.420   6.683   5.650
   93SAPC   C24 8984   1.445   6.515   5.525
   93SAPC   H4R 8985   1.438   6.404   5.522
   93SAPC   H4S 8986   1.536   6.550   5.472
   93SAPC   C25 8987   1.326   6.558   5.451
   93SAPC   H5R 8988   1.228   6.547   5.500
   93SAPC   C26 8989   1.335   6.611   5.323
   93SAPC   H6R 8990   1.251   6.673   5.290
   93SAPC   C27 8991   1.460   6.641   5.242
   93SAPC   H7R 8992   1.513   6.559   5.191
   93SAPC   H7S 8993   1.530   6.698   5.307
   93SAPC   C28 8994   1.421   6.735   5.127
   93SAPC   H8R 8995   1.450   0.015   5.141
   93SAPC   C29 8996   1.384   6.696   5.000
   93SAPC   H9R 8997   1.389   6.774   4.923
   93SAPC  C210 8998   1.359   6.557   4.955
   93SAPC  H10R 8999   1.317   6.499   5.041
   93SAPC  H10S 9000   1.452   6.499   4.938
   93SAPC  C211 9001   1.279   6.551   4.834
   93SAPC  H11R 9002   1.170   6.563   4.847
   93SAPC  C212 9003   1.310   6.523   4.711
   93SAPC  H12R 9004   1.235   6.539   4.632
   93SAPC  C213 9005   1.443   6.490   4.657
   93SAPC  H13R 9006   1.434   6.401   4.592
   93SAPC  H13S 9007   1.515   6.456   4.734
   93SAPC  C214 9008   1.499   6.604   4.576
   93SAPC  H14R 9009   1.518   6.693   4.638
   93SAPC  C215 9010   1.524   6.604   4.448
   93SAPC  H15R 9011   1.554   6.700   4.403
   93SAPC  C216 9012   1.508   6.490   4.345
   93SAPC  H16R 9013   1.564   6.405   4.388
   93SAPC  H16S 9014   1.556   6.523   4.250
   93SAPC  C217 9015   1.362   6.453   4.326
   93SAPC  H17R 9016   1.311   6.407   4.414
   93SAPC  H17S 9017   1.370   6.367   4.256
   93SAPC  C218 9018   1.276   6.561   4.261
   93SAPC  H18R 9019   1.335   6.624   4.191
   93SAPC  H18S 9020   1.239   6.630   4.340
   93SAPC  C219 9021   1.139   6.511   4.196
   93SAPC  H19R 9022   1.152   6.447   4.106
   93SAPC  H19S 9023   1.094   6.605   4.158
   93SAPC  C220 9024   1.051   6.439   4.295
   93SAPC  H20R 9025   0.955   6.434   4.239
   93SAPC  H20S 9026   1.040   6.501   4.387
   93SAPC  H20T 9027   1.085   6.337   4.321
   93SAPC   C33 9028   1.567   6.150   5.868
   93SAPC   H3X 9029   1.644   6.230   5.874
   93SAPC   H3Y 9030   1.467   6.187   5.838
   93SAPC   C34 9031   1.613   6.046   5.772
   93SAPC   H4X 9032   1.533   5.969   5.765
   93SAPC   H4Y 9033   1.708   6.009   5.816
   93SAPC   C35 9034   1.648   6.109   5.643
   93SAPC   H5X 9035   1.721   6.193   5.653
   93SAPC   H5Y 9036   1.559   6.165   5.606
   93SAPC   C36 9037   1.692   6.013   5.535
   93SAPC   H6X 9038   1.604   5.948   5.513
   93SAPC   H6Y 9039   1.781   5.960   5.573
   93SAPC   C37 9040   1.747   6.086   5.408
   93SAPC   H7X 9041   1.809   6.016   5.348
   93SAPC   H7Y 9042   1.805   6.177   5.431
   93SAPC   C38 9043   1.630   6.134   5.322
   93SAPC   H8X 9044   1.591   6.229   5.363
   93SAPC   H8Y 9045   1.548   6.060   5.328
   93SAPC   C39 9046   1.665   6.149   5.179
   93SAPC   H9X 9047   1.705   6.052   5.142
   93SAPC   H9Y 9048   1.739   6.232   5.170
   93SAPC  C310 9049   1.536   6.175   5.101
   93SAPC  H10X 9050   1.481   6.257   5.152
   93SAPC  H10Y 9051   1.480   6.079   5.109
   93SAPC  C311 9052   1.551   6.220   4.958
   93SAPC  H11X 9053   1.597   6.322   4.956
   93SAPC  H11Y 9054   1.450   6.239   4.917
   93SAPC  C312 9055   1.633   6.117   4.883
   93SAPC  H12X 9056   1.576   6.021   4.884
   93SAPC  H12Y 9057   1.740   6.103   4.909
   93SAPC  C313 9058   1.647   6.146   4.727
   93SAPC  H13X 9059   1.692   6.052   4.691
   93SAPC  H13Y 9060   1.709   6.237   4.709
   93SAPC  C314 9061   1.512   6.153   4.657
   93SAPC  H14X 9062   1.542   6.204   4.562
   93SAPC  H14Y 9063   1.433   6.212   4.709
   93SAPC  C315 9064   1.462   6.010   4.613
   93SAPC  H15X 9065   1.440   5.955   4.707
   93SAPC  H15Y 9066   1.536   5.953   4.553
   93SAPC  C316 9067   1.342   6.011   4.507
   93SAPC  H16X 9068   1.302   5.908   4.514
   93SAPC  H16Y 9069   1.384   6.021   4.404
   93SAPC  C317 9070   1.240   6.110   4.543
   93SAPC  H17X 9071   1.289   6.208   4.526
   93SAPC  H17Y 9072   1.222   6.119   4.653
   93SAPC  C318 9073   1.115   6.094   4.459
   93SAPC  H18X 9074   1.039   6.164   4.499
   93SAPC  H18Y 9075   1.090   5.986   4.453
   93SAPC  H18Z 9076   1.142   6.129   4.357
   94SAPC     N 9077   0.050   5.332   7.161
   94SAPC   C12 9078   0.008   5.225   7.064
   94SAPC  H12A 9079   0.056   5.249   6.971
   94SAPC  H12B 9080   6.731   5.232   7.029
   94SAPC   C13 9081   0.002   5.284   7.295
   94SAPC  H13A 9082   6.723   5.260   7.278
   94SAPC  H13B 9083   0.051   5.192   7.324
   94SAPC  H13C 9084   0.015   5.366   7.364
   94SAPC   C14 9085   0.195   5.359   7.151
   94SAPC  H14A 9086   0.229   5.379   7.051
   94SAPC  H14B 9087   0.218   5.439   7.219
   94SAPC  H14C 9088   0.244   5.271   7.191
   94SAPC   C15 9089   6.807   5.462   7.123
   94SAPC  H15A 9090   0.015   5.492   7.024
   94SAPC  H15B 9091   6.700   5.456   7.132
   94SAPC  H15C 9092   0.011   5.537   7.194
   94SAPC   C11 9093   0.042   5.080   7.095
   94SAPC  H11A 9094   6.791   5.030   7.158
   94SAPC  H11B 9095   0.141   5.082   7.146
   94SAPC     P 9096   6.753   4.991   6.876
   94SAPC   O13 9097   6.683   4.865   6.905
   94SAPC   O14 9098   6.667   5.113   6.884
   94SAPC   O12 9099   0.056   5.022   6.959
   94SAPC   O11 9100   6.817   4.985   6.730
   94SAPC    C1 9101   0.077   4.878   6.686
   94SAPC    HA 9102   0.184   4.904   6.703
   94SAPC    HB 9103   0.059   4.788   6.749
   94SAPC    C2 9104   0.036   4.835   6.543
   94SAPC    HS 9105   0.093   4.741   6.526
   94SAPC   O21 9106   0.060   4.938   6.442
   94SAPC   C21 9107   0.189   4.963   6.419
   94SAPC   O22 9108   0.283   4.906   6.474
   94SAPC   C22 9109   0.194   5.057   6.298
   94SAPC   H2R 9110   0.124   5.139   6.325
   94SAPC   H2S 9111   0.295   5.102   6.291
   94SAPC    C3 9112   6.712   4.792   6.548
   94SAPC    HX 9113   6.663   4.889   6.521
   94SAPC    HY 9114   6.677   4.761   6.648
   94SAPC   O31 9115   6.690   4.699   6.438
   94SAPC   C31 9116   6.732   4.576   6.449
   94SAPC   O32 9117   6.800   4.528   6.538
   94SAPC   C32 9118   6.703   4.506   6.315
   94SAPC   H2X 9119   6.753   4.566   6.236
   94SAPC   H2Y 9120   6.594   4.512   6.295
   94SAPC   C23 9121   0.174   4.991   6.163
   94SAPC   H3R 9122   0.162   5.072   6.088
   94SAPC   H3S 9123   0.079   4.935   6.168
   94SAPC   C24 9124   0.286   4.898   6.120
   94SAPC   H4R 9125   0.245   4.820   6.053
   94SAPC   H4S 9126   0.318   4.839   6.208
   94SAPC   C25 9127   0.402   4.959   6.047
   94SAPC   H5R 9128   0.485   4.996   6.109
   94SAPC   C26 9129   0.422   4.968   5.915
   94SAPC   H6R 9130   0.517   5.013   5.884
   94SAPC   C27 9131   0.329   4.934   5.798
   94SAPC   H7R 9132   0.323   5.024   5.733
   94SAPC   H7S 9133   0.225   4.935   5.837
   94SAPC   C28 9134   0.368   4.805   5.729
   94SAPC   H8R 9135   0.363   4.710   5.784
   94SAPC   C29 9136   0.404   4.796   5.597
   94SAPC   H9R 9137   0.454   4.707   5.555
   94SAPC  C210 9138   0.410   4.916   5.506
   94SAPC  H10R 9139   0.492   4.984   5.539
   94SAPC  H10S 9140   0.319   4.979   5.515
   94SAPC  C211 9141   0.401   4.863   5.363
   94SAPC  H11R 9142   0.348   4.768   5.352
   94SAPC  C212 9143   0.480   4.909   5.258
   94SAPC  H12R 9144   0.486   4.854   5.162
   94SAPC  C213 9145   0.567   5.032   5.265
   94SAPC  H13R 9146   0.495   5.110   5.299
   94SAPC  H13S 9147   0.589   5.060   5.160
   94SAPC  C214 9148   0.689   5.027   5.345
   94SAPC  H14R 9149   0.704   4.931   5.396
   94SAPC  C215 9150   0.780   5.121   5.352
   94SAPC  H15R 9151   0.861   5.116   5.425
   94SAPC  C216 9152   0.767   5.252   5.287
   94SAPC  H16R 9153   0.781   5.319   5.374
   94SAPC  H16S 9154   0.669   5.264   5.237
   94SAPC  C217 9155   0.884   5.283   5.185
   94SAPC  H17R 9156   0.977   5.249   5.237
   94SAPC  H17S 9157   0.892   5.392   5.172
   94SAPC  C218 9158   0.872   5.201   5.051
   94SAPC  H18R 9159   0.858   5.093   5.069
   94SAPC  H18S 9160   0.976   5.209   5.011
   94SAPC  C219 9161   0.780   5.247   4.950
   94SAPC  H19R 9162   0.686   5.192   4.972
   94SAPC  H19S 9163   0.812   5.214   4.849
   94SAPC  C220 9164   0.747   5.396   4.946
   94SAPC  H20R 9165   0.685   5.430   5.031
   94SAPC  H20S 9166   0.701   5.431   4.852
   94SAPC  H20T 9167   0.842   5.453   4.949
   94SAPC   C33 9168   6.744   4.358   6.310
   94SAPC   H3X 9169   6.654   4.313   6.357
   94SAPC   H3Y 9170   0.012   4.340   6.368
   94SAPC   C34 9171   6.766   4.311   6.163
   94SAPC   H4X 9172   0.036   4.253   6.157
   94SAPC   H4Y 9173   6.795   4.399   6.102
   94SAPC   C35 9174   6.652   4.245   6.099
   94SAPC   H5X 9175   6.573   4.323   6.101
   94SAPC   H5Y 9176   6.614   4.176   6.177
   94SAPC   C36 9177   6.671   4.189   5.954
   94SAPC   H6X 9178   6.756   4.117   5.958
   94SAPC   H6Y 9179   6.683   4.277   5.888
   94SAPC   C37 9180   6.552   4.112   5.909
   94SAPC   H7X 9181   6.512   4.049   5.991
   94SAPC   H7Y 9182   6.583   4.051   5.822
   94SAPC   C38 9183   6.448   4.215   5.867
   94SAPC   H8X 9184   6.428   4.305   5.930
   94SAPC   H8Y 9185   6.349   4.169   5.850
   94SAPC   C39 9186   6.468   4.273   5.724
   94SAPC   H9X 9187   6.574   4.299   5.704
   94SAPC   H9Y 9188   6.410   4.367   5.711
   94SAPC  C310 9189   6.418   4.177   5.612
   94SAPC  H10X 9190   6.312   4.149   5.632
   94SAPC  H10Y 9191   6.470   4.079   5.615
   94SAPC  C311 9192   6.430   4.237   5.471
   94SAPC  H11X 9193   6.397   4.341   5.487
   94SAPC  H11Y 9194   6.372   4.191   5.388
   94SAPC  C312 9195   6.574   4.250   5.431
   94SAPC  H12X 9196   6.617   4.149   5.447
   94SAPC  H12Y 9197   6.616   4.325   5.501
   94SAPC  C313 9198   6.587   4.286   5.284
   94SAPC  H13X 9199   6.526   4.211   5.229
   94SAPC  H13Y 9200   6.694   4.267   5.259
   94SAPC  C314 9201   6.544   4.430   5.250
   94SAPC  H14X 9202   6.593   4.509   5.312
   94SAPC  H14Y 9203   6.434   4.434   5.264
   94SAPC  C315 9204   6.581   4.463   5.112
   94SAPC  H15X 9205   6.691   4.457   5.100
   94SAPC  H15Y 9206   6.568   4.571   5.089
   94SAPC  C316 9207   6.505   4.384   5.001
   94SAPC  H16X 9208   6.404   4.431   5.002
   94SAPC  H16Y 9209   6.490   4.276   5.022
   94SAPC  C317 9210   6.578   4.392   4.858
   94SAPC  H17X 9211   6.500   4.351   4.790
   94SAPC  H17Y 9212   6.677   4.342   4.865
   94SAPC  C318 9213   6.609   4.543   4.811
   94SAPC  H18X 9214   6.516   4.603   4.820
   94SAPC  H18Y 9215   6.646   4.552   4.707
   94SAPC  H18Z 9216   6.695   4.583   4.869
   95SAPC     N 9217   3.186   6.489   1.808
   95SAPC   C12 9218   3.178   6.375   1.903
   95SAPC  H12A 9219   3.226   6.288   1.861
   95SAPC  H12B 9220   3.076   6.339   1.910
   95SAPC   C13 9221   3.334   6.529   1.781
   95SAPC  H13A 9222   3.392   6.438   1.770
   95SAPC  H13B 9223   3.348   6.596   1.698
   95SAPC  H13C 9224   3.367   6.570   1.876
   95SAPC   C14 9225   3.130   6.452   1.668
   95SAPC  H14A 9226   3.215   6.434   1.604
   95SAPC  H14B 9227   3.063   6.367   1.663
   95SAPC  H14C 9228   3.082   6.539   1.625
   95SAPC   C15 9229   3.112   6.608   1.852
   95SAPC  H15A 9230   3.110   6.689   1.781
   95SAPC  H15B 9231   3.008   6.588   1.873
   95SAPC  H15C 9232   3.156   6.646   1.943
   95SAPC   C11 9233   3.232   6.397   2.050
   95SAPC  H11A 9234   3.200   6.310   2.113
   95SAPC  H11B 9235   3.171   6.481   2.089
   95SAPC     P 9236   3.484   6.334   2.049
   95SAPC   O13 9237   3.470   6.268   1.914
   95SAPC   O14 9238   3.610   6.408   2.078
   95SAPC   O12 9239   3.370   6.432   2.059
   95SAPC   O11 9240   3.463   6.229   2.160
   95SAPC    C1 9241   3.438   6.094   2.135
   95SAPC    HA 9242   3.475   6.055   2.038
   95SAPC    HB 9243   3.507   6.041   2.204
   95SAPC    C2 9244   3.296   6.046   2.180
   95SAPC    HS 9245   3.227   6.092   2.106
   95SAPC   O21 9246   3.279   6.093   2.316
   95SAPC   C21 9247   3.152   6.089   2.371
   95SAPC   O22 9248   3.057   6.063   2.302
   95SAPC   C22 9249   3.147   6.131   2.516
   95SAPC   H2R 9250   3.210   6.056   2.568
   95SAPC   H2S 9251   3.192   6.232   2.517
   95SAPC    C3 9252   3.278   5.888   2.158
   95SAPC    HX 9253   3.266   5.870   2.049
   95SAPC    HY 9254   3.180   5.870   2.208
   95SAPC   O31 9255   3.388   5.805   2.205
   95SAPC   C31 9256   3.388   5.774   2.337
   95SAPC   O32 9257   3.301   5.811   2.416
   95SAPC   C32 9258   3.518   5.700   2.374
   95SAPC   H2X 9259   3.596   5.774   2.347
   95SAPC   H2Y 9260   3.530   5.601   2.324
   95SAPC   C23 9261   3.007   6.127   2.573
   95SAPC   H3R 9262   2.975   6.020   2.578
   95SAPC   H3S 9263   2.938   6.176   2.502
   95SAPC   C24 9264   2.991   6.201   2.714
   95SAPC   H4R 9265   3.036   6.302   2.701
   95SAPC   H4S 9266   3.042   6.136   2.788
   95SAPC   C25 9267   2.844   6.213   2.757
   95SAPC   H5R 9268   2.782   6.235   2.669
   95SAPC   C26 9269   2.791   6.184   2.878
   95SAPC   H6R 9270   2.683   6.203   2.889
   95SAPC   C27 9271   2.859   6.120   3.000
   95SAPC   H7R 9272   2.846   6.187   3.087
   95SAPC   H7S 9273   2.967   6.109   2.975
   95SAPC   C28 9274   2.801   5.985   3.033
   95SAPC   H8R 9275   2.832   5.896   2.977
   95SAPC   C29 9276   2.699   5.963   3.122
   95SAPC   H9R 9277   2.657   5.861   3.120
   95SAPC  C210 9278   2.631   6.058   3.219
   95SAPC  H10R 9279   2.521   6.044   3.213
   95SAPC  H10S 9280   2.651   6.163   3.187
   95SAPC  C211 9281   2.651   6.050   3.366
   95SAPC  H11R 9282   2.589   5.975   3.418
   95SAPC  C212 9283   2.704   6.148   3.445
   95SAPC  H12R 9284   2.729   6.112   3.546
   95SAPC  C213 9285   2.773   6.278   3.405
   95SAPC  H13R 9286   2.709   6.322   3.326
   95SAPC  H13S 9287   2.861   6.235   3.352
   95SAPC  C214 9288   2.820   6.378   3.503
   95SAPC  H14R 9289   2.929   6.380   3.494
   95SAPC  C215 9290   2.748   6.459   3.585
   95SAPC  H15R 9291   2.805   6.532   3.645
   95SAPC  C216 9292   2.595   6.456   3.602
   95SAPC  H16R 9293   2.578   6.493   3.705
   95SAPC  H16S 9294   2.565   6.349   3.595
   95SAPC  C217 9295   2.516   6.538   3.495
   95SAPC  H17R 9296   2.537   6.489   3.398
   95SAPC  H17S 9297   2.551   6.641   3.472
   95SAPC  C218 9298   2.356   6.526   3.509
   95SAPC  H18R 9299   2.337   6.432   3.566
   95SAPC  H18S 9300   2.313   6.525   3.406
   95SAPC  C219 9301   2.292   6.639   3.592
   95SAPC  H19R 9302   2.183   6.637   3.570
   95SAPC  H19S 9303   2.336   6.736   3.562
   95SAPC  C220 9304   2.317   6.633   3.741
   95SAPC  H20R 9305   2.303   6.731   3.791
   95SAPC  H20S 9306   2.421   6.601   3.764
   95SAPC  H20T 9307   2.246   6.560   3.784
   95SAPC   C33 9308   3.526   5.694   2.530
   95SAPC   H3X 9309   3.448   5.626   2.570
   95SAPC   H3Y 9310   3.492   5.787   2.582
   95SAPC   C34 9311   3.668   5.659   2.581
   95SAPC   H4X 9312   3.739   5.723   2.524
   95SAPC   H4Y 9313   3.681   5.554   2.548
   95SAPC   C35 9314   3.680   5.669   2.733
   95SAPC   H5X 9315   3.685   5.777   2.757
   95SAPC   H5Y 9316   3.775   5.623   2.768
   95SAPC   C36 9317   3.573   5.592   2.815
   95SAPC   H6X 9318   3.591   5.483   2.812
   95SAPC   H6Y 9319   3.466   5.612   2.791
   95SAPC   C37 9320   3.578   5.629   2.964
   95SAPC   H7X 9321   3.544   5.734   2.965
   95SAPC   H7Y 9322   3.683   5.617   3.000
   95SAPC   C38 9323   3.494   5.539   3.051
   95SAPC   H8X 9324   3.526   5.434   3.038
   95SAPC   H8Y 9325   3.388   5.551   3.017
   95SAPC   C39 9326   3.506   5.580   3.199
   95SAPC   H9X 9327   3.485   5.689   3.205
   95SAPC   H9Y 9328   3.615   5.578   3.219
   95SAPC  C310 9329   3.437   5.483   3.292
   95SAPC  H10X 9330   3.470   5.378   3.280
   95SAPC  H10Y 9331   3.332   5.479   3.255
   95SAPC  C311 9332   3.452   5.523   3.440
   95SAPC  H11X 9333   3.417   5.629   3.443
   95SAPC  H11Y 9334   3.561   5.513   3.460
   95SAPC  C312 9335   3.378   5.438   3.544
   95SAPC  H12X 9336   3.419   5.335   3.549
   95SAPC  H12Y 9337   3.273   5.437   3.506
   95SAPC  C313 9338   3.378   5.507   3.676
   95SAPC  H13X 9339   3.324   5.604   3.669
   95SAPC  H13Y 9340   3.485   5.523   3.702
   95SAPC  C314 9341   3.312   5.417   3.775
   95SAPC  H14X 9342   3.365   5.319   3.781
   95SAPC  H14Y 9343   3.212   5.398   3.730
   95SAPC  C315 9344   3.301   5.482   3.911
   95SAPC  H15X 9345   3.230   5.567   3.906
   95SAPC  H15Y 9346   3.399   5.526   3.941
   95SAPC  C316 9347   3.252   5.408   4.033
   95SAPC  H16X 9348   3.151   5.370   4.005
   95SAPC  H16Y 9349   3.245   5.467   4.127
   95SAPC  C317 9350   3.332   5.286   4.068
   95SAPC  H17X 9351   3.363   5.228   3.978
   95SAPC  H17Y 9352   3.264   5.216   4.122
   95SAPC  C318 9353   3.458   5.325   4.141
   95SAPC  H18X 9354   3.518   5.400   4.085
   95SAPC  H18Y 9355   3.524   5.239   4.165
   95SAPC  H18Z 9356   3.432   5.383   4.232
   96SAPC     N 9357   4.113   1.446   2.339
   96SAPC   C12 9358   3.968   1.465   2.337
   96SAPC  H12A 9359   3.921   1.368   2.348
   96SAPC  H12B 9360   3.942   1.510   2.242
   96SAPC   C13 9361   4.150   1.359   2.222
   96SAPC  H13A 9362   4.089   1.270   2.218
   96SAPC  H13B 9363   4.138   1.411   2.128
   96SAPC  H13C 9364   4.254   1.331   2.235
   96SAPC   C14 9365   4.182   1.578   2.335
   96SAPC  H14A 9366   4.168   1.615   2.234
   96SAPC  H14B 9367   4.149   1.638   2.419
   96SAPC  H14C 9368   4.289   1.566   2.343
   96SAPC   C15 9369   4.145   1.373   2.468
   96SAPC  H15A 9370   4.251   1.359   2.479
   96SAPC  H15B 9371   4.109   1.418   2.560
   96SAPC  H15C 9372   4.099   1.275   2.463
   96SAPC   C11 9373   3.905   1.554   2.450
   96SAPC  H11A 9374   3.934   1.530   2.555
   96SAPC  H11B 9375   3.796   1.547   2.470
   96SAPC     P 9376   3.862   1.763   2.294
   96SAPC   O13 9377   3.961   1.822   2.202
   96SAPC   O14 9378   3.753   1.676   2.235
   96SAPC   O12 9379   3.925   1.692   2.419
   96SAPC   O11 9380   3.786   1.875   2.368
   96SAPC    C1 9381   3.676   1.840   2.453
   96SAPC    HA 9382   3.581   1.855   2.396
   96SAPC    HB 9383   3.675   1.734   2.486
   96SAPC    C2 9384   3.667   1.931   2.579
   96SAPC    HS 9385   3.669   2.034   2.537
   96SAPC   O21 9386   3.772   1.894   2.668
   96SAPC   C21 9387   3.894   1.941   2.639
   96SAPC   O22 9388   3.917   2.033   2.564
   96SAPC   C22 9389   3.998   1.895   2.747
   96SAPC   H2R 9390   3.974   1.786   2.750
   96SAPC   H2S 9391   4.103   1.919   2.720
   96SAPC    C3 9392   3.543   1.910   2.659
   96SAPC    HX 9393   3.534   1.804   2.689
   96SAPC    HY 9394   3.466   1.940   2.585
   96SAPC   O31 9395   3.535   2.000   2.778
   96SAPC   C31 9396   3.495   1.940   2.896
   96SAPC   O32 9397   3.435   1.838   2.904
   96SAPC   C32 9398   3.524   2.042   3.005
   96SAPC   H2X 9399   3.434   2.107   2.998
   96SAPC   H2Y 9400   3.614   2.104   2.985
   96SAPC   C23 9401   3.955   1.964   2.875
   96SAPC   H3R 9402   4.015   1.914   2.953
   96SAPC   H3S 9403   3.849   1.950   2.906
   96SAPC   C24 9404   3.989   2.112   2.875
   96SAPC   H4R 9405   3.999   2.149   2.771
   96SAPC   H4S 9406   4.090   2.121   2.920
   96SAPC   C25 9407   3.895   2.202   2.958
   96SAPC   H5R 9408   3.828   2.274   2.907
   96SAPC   C26 9409   3.895   2.204   3.090
   96SAPC   H6R 9410   3.837   2.279   3.144
   96SAPC   C27 9411   3.975   2.117   3.186
   96SAPC   H7R 9412   4.027   2.179   3.262
   96SAPC   H7S 9413   4.064   2.073   3.135
   96SAPC   C28 9414   3.895   2.005   3.240
   96SAPC   H8R 9415   3.806   1.970   3.187
   96SAPC   C29 9416   3.921   1.942   3.358
   96SAPC   H9R 9417   3.851   1.873   3.407
   96SAPC  C210 9418   4.042   1.979   3.438
   96SAPC  H10R 9419   4.123   2.009   3.368
   96SAPC  H10S 9420   4.078   1.890   3.494
   96SAPC  C211 9421   4.011   2.084   3.542
   96SAPC  H11R 9422   3.952   2.173   3.513
   96SAPC  C212 9423   4.036   2.069   3.677
   96SAPC  H12R 9424   4.005   2.144   3.751
   96SAPC  C213 9425   4.108   1.956   3.738
   96SAPC  H13R 9426   4.190   1.913   3.676
   96SAPC  H13S 9427   4.032   1.876   3.749
   96SAPC  C214 9428   4.167   1.987   3.875
   96SAPC  H14R 9429   4.247   2.063   3.876
   96SAPC  C215 9430   4.120   1.939   3.990
   96SAPC  H15R 9431   4.165   1.975   4.083
   96SAPC  C216 9432   4.017   1.831   4.022
   96SAPC  H16R 9433   3.960   1.790   3.936
   96SAPC  H16S 9434   3.945   1.881   4.091
   96SAPC  C217 9435   4.085   1.717   4.101
   96SAPC  H17R 9436   4.144   1.762   4.183
   96SAPC  H17S 9437   4.171   1.674   4.045
   96SAPC  C218 9438   4.002   1.599   4.136
   96SAPC  H18R 9439   4.064   1.523   4.189
   96SAPC  H18S 9440   3.965   1.546   4.046
   96SAPC  C219 9441   3.886   1.625   4.235
   96SAPC  H19R 9442   3.819   1.705   4.196
   96SAPC  H19S 9443   3.937   1.673   4.321
   96SAPC  C220 9444   3.807   1.498   4.260
   96SAPC  H20R 9445   3.893   1.438   4.297
   96SAPC  H20S 9446   3.768   1.449   4.168
   96SAPC  H20T 9447   3.743   1.499   4.351
   96SAPC   C33 9448   3.513   1.989   3.143
   96SAPC   H3X 9449   3.580   1.901   3.158
   96SAPC   H3Y 9450   3.408   1.955   3.151
   96SAPC   C34 9451   3.521   2.101   3.246
   96SAPC   H4X 9452   3.435   2.169   3.230
   96SAPC   H4Y 9453   3.619   2.153   3.236
   96SAPC   C35 9454   3.515   2.041   3.390
   96SAPC   H5X 9455   3.598   1.971   3.416
   96SAPC   H5Y 9456   3.426   1.975   3.384
   96SAPC   C36 9457   3.502   2.150   3.500
   96SAPC   H6X 9458   3.403   2.200   3.487
   96SAPC   H6Y 9459   3.576   2.229   3.473
   96SAPC   C37 9460   3.522   2.087   3.634
   96SAPC   H7X 9461   3.451   2.001   3.634
   96SAPC   H7Y 9462   3.504   2.164   3.712
   96SAPC   C38 9463   3.664   2.027   3.669
   96SAPC   H8X 9464   3.742   2.086   3.617
   96SAPC   H8Y 9465   3.680   1.922   3.637
   96SAPC   C39 9466   3.692   2.025   3.822
   96SAPC   H9X 9467   3.703   2.132   3.850
   96SAPC   H9Y 9468   3.788   1.970   3.830
   96SAPC  C310 9469   3.588   1.953   3.909
   96SAPC  H10X 9470   3.583   1.847   3.876
   96SAPC  H10Y 9471   3.484   1.989   3.891
   96SAPC  C311 9472   3.613   1.955   4.060
   96SAPC  H11X 9473   3.623   2.063   4.083
   96SAPC  H11Y 9474   3.708   1.913   4.100
   96SAPC  C312 9475   3.506   1.880   4.145
   96SAPC  H12X 9476   3.412   1.939   4.132
   96SAPC  H12Y 9477   3.523   1.893   4.254
   96SAPC  C313 9478   3.493   1.726   4.127
   96SAPC  H13X 9479   3.595   1.685   4.142
   96SAPC  H13Y 9480   3.456   1.702   4.025
   96SAPC  C314 9481   3.403   1.649   4.221
   96SAPC  H14X 9482   3.426   1.677   4.326
   96SAPC  H14Y 9483   3.429   1.541   4.215
   96SAPC  C315 9484   3.252   1.669   4.209
   96SAPC  H15X 9485   3.233   1.776   4.230
   96SAPC  H15Y 9486   3.210   1.620   4.300
   96SAPC  C316 9487   3.190   1.615   4.077
   96SAPC  H16X 9488   3.262   1.601   3.994
   96SAPC  H16Y 9489   3.109   1.682   4.042
   96SAPC  C317 9490   3.133   1.470   4.099
   96SAPC  H17X 9491   3.219   1.409   4.134
   96SAPC  H17Y 9492   3.096   1.426   4.004
   96SAPC  C318 9493   3.013   1.461   4.198
   96SAPC  H18X 9494   3.062   1.472   4.297
   96SAPC  H18Y 9495   2.965   1.360   4.198
   96SAPC  H18Z 9496   2.958   1.555   4.181
   97SAPC     N 9497   3.374   6.771   2.357
   97SAPC   C12 9498   3.421   0.010   2.485
   97SAPC  H12A 9499   3.484   0.093   2.457
   97SAPC  H12B 9500   3.500   6.774   2.527
   97SAPC   C13 9501   3.491   6.711   2.290
   97SAPC  H13A 9502   3.533   6.636   2.356
   97SAPC  H13B 9503   3.475   6.666   2.193
   97SAPC  H13C 9504   3.575   6.778   2.279
   97SAPC   C14 9505   3.277   6.665   2.381
   97SAPC  H14A 9506   3.322   6.597   2.452
   97SAPC  H14B 9507   3.183   6.707   2.416
   97SAPC  H14C 9508   3.272   6.602   2.294
   97SAPC   C15 9509   3.310   0.055   2.268
   97SAPC  H15A 9510   3.266   0.007   2.182
   97SAPC  H15B 9511   3.232   0.105   2.324
   97SAPC  H15C 9512   3.388   0.129   2.257
   97SAPC   C11 9513   3.325   0.051   2.602
   97SAPC  H11A 9514   3.379   0.094   2.690
   97SAPC  H11B 9515   3.285   6.780   2.640
   97SAPC     P 9516   3.077   0.125   2.565
   97SAPC   O13 9517   3.016   0.200   2.452
   97SAPC   O14 9518   3.042   6.807   2.584
   97SAPC   O12 9519   3.227   0.140   2.552
   97SAPC   O11 9520   3.041   0.188   2.707
   97SAPC    C1 9521   3.073   0.328   2.722
   97SAPC    HA 9522   3.156   0.367   2.658
   97SAPC    HB 9523   2.979   0.387   2.720
   97SAPC    C2 9524   3.128   0.344   2.866
   97SAPC    HS 9525   3.215   0.275   2.877
   97SAPC   O21 9526   3.011   0.325   2.953
   97SAPC   C21 9527   3.047   0.258   3.061
   97SAPC   O22 9528   3.156   0.222   3.094
   97SAPC   C22 9529   2.920   0.246   3.155
   97SAPC   H2R 9530   2.838   0.301   3.104
   97SAPC   H2S 9531   2.903   0.137   3.149
   97SAPC    C3 9532   3.185   0.483   2.885
   97SAPC    HX 9533   3.098   0.550   2.866
   97SAPC    HY 9534   3.267   0.502   2.813
   97SAPC   O31 9535   3.239   0.502   3.021
   97SAPC   C31 9536   3.352   0.441   3.048
   97SAPC   O32 9537   3.420   0.374   2.973
   97SAPC   C32 9538   3.388   0.468   3.192
   97SAPC   H2X 9539   3.307   0.509   3.255
   97SAPC   H2Y 9540   3.466   0.546   3.178
   97SAPC   C23 9541   2.944   0.281   3.303
   97SAPC   H3R 9542   2.847   0.272   3.356
   97SAPC   H3S 9543   2.970   0.386   3.327
   97SAPC   C24 9544   3.043   0.185   3.384
   97SAPC   H4R 9545   3.045   0.218   3.490
   97SAPC   H4S 9546   3.140   0.187   3.328
   97SAPC   C25 9547   3.001   0.049   3.382
   97SAPC   H5R 9548   3.018   0.007   3.282
   97SAPC   C26 9549   2.942   6.804   3.486
   97SAPC   H6R 9550   2.901   6.705   3.464
   97SAPC   C27 9551   2.921   0.029   3.629
   97SAPC   H7R 9552   2.930   0.140   3.637
   97SAPC   H7S 9553   2.995   6.815   3.702
   97SAPC   C28 9554   2.785   6.821   3.698
   97SAPC   H8R 9555   2.706   6.805   3.623
   97SAPC   C29 9556   2.770   6.807   3.830
   97SAPC   H9R 9557   2.672   6.786   3.876
   97SAPC  C210 9558   2.863   0.014   3.945
   97SAPC  H10R 9559   2.968   6.818   3.916
   97SAPC  H10S 9560   2.839   6.765   4.024
   97SAPC  C211 9561   2.847   0.158   3.986
   97SAPC  H11R 9562   2.868   0.227   3.904
   97SAPC  C212 9563   2.810   0.202   4.105
   97SAPC  H12R 9564   2.798   0.311   4.115
   97SAPC  C213 9565   2.772   0.118   4.222
   97SAPC  H13R 9566   2.827   0.155   4.312
   97SAPC  H13S 9567   2.804   0.013   4.211
   97SAPC  C214 9568   2.621   0.126   4.243
   97SAPC  H14R 9569   2.563   0.177   4.165
   97SAPC  C215 9570   2.558   0.072   4.350
   97SAPC  H15R 9571   2.453   0.089   4.378
   97SAPC  C216 9572   2.631   0.006   4.464
   97SAPC  H16R 9573   2.715   6.763   4.437
   97SAPC  H16S 9574   2.557   6.776   4.525
   97SAPC  C217 9575   2.693   0.116   4.554
   97SAPC  H17R 9576   2.609   0.183   4.584
   97SAPC  H17S 9577   2.765   0.182   4.503
   97SAPC  C218 9578   2.746   0.061   4.685
   97SAPC  H18R 9579   2.844   0.008   4.680
   97SAPC  H18S 9580   2.673   6.823   4.738
   97SAPC  C219 9581   2.778   0.182   4.780
   97SAPC  H19R 9582   2.684   0.236   4.804
   97SAPC  H19S 9583   2.849   0.242   4.719
   97SAPC  C220 9584   2.841   0.139   4.910
   97SAPC  H20R 9585   2.934   0.081   4.894
   97SAPC  H20S 9586   2.771   0.083   4.976
   97SAPC  H20T 9587   2.877   0.231   4.961
   97SAPC   C33 9588   3.450   0.345   3.259
   97SAPC   H3X 9589   3.546   0.322   3.208
   97SAPC   H3Y 9590   3.390   0.254   3.239
   97SAPC   C34 9591   3.487   0.349   3.409
   97SAPC   H4X 9592   3.572   0.417   3.429
   97SAPC   H4Y 9593   3.521   0.244   3.422
   97SAPC   C35 9594   3.370   0.377   3.505
   97SAPC   H5X 9595   3.282   0.310   3.490
   97SAPC   H5Y 9596   3.347   0.484   3.483
   97SAPC   C36 9597   3.401   0.355   3.655
   97SAPC   H6X 9598   3.480   0.429   3.682
   97SAPC   H6Y 9599   3.453   0.257   3.662
   97SAPC   C37 9600   3.284   0.366   3.753
   97SAPC   H7X 9601   3.336   0.356   3.850
   97SAPC   H7Y 9602   3.221   0.275   3.744
   97SAPC   C38 9603   3.198   0.490   3.758
   97SAPC   H8X 9604   3.146   0.496   3.660
   97SAPC   H8Y 9605   3.253   0.580   3.792
   97SAPC   C39 9606   3.098   0.485   3.880
   97SAPC   H9X 9607   3.032   0.396   3.868
   97SAPC   H9Y 9608   3.036   0.577   3.876
   97SAPC  C310 9609   3.166   0.493   4.012
   97SAPC  H10X 9610   3.239   0.577   4.011
   97SAPC  H10Y 9611   3.223   0.400   4.029
   97SAPC  C311 9612   3.069   0.499   4.130
   97SAPC  H11X 9613   2.996   0.415   4.126
   97SAPC  H11Y 9614   3.007   0.589   4.112
   97SAPC  C312 9615   3.144   0.532   4.267
   97SAPC  H12X 9616   3.085   0.603   4.329
   97SAPC  H12Y 9617   3.237   0.590   4.248
   97SAPC  C313 9618   3.182   0.414   4.354
   97SAPC  H13X 9619   3.227   0.452   4.448
   97SAPC  H13Y 9620   3.248   0.346   4.296
   97SAPC  C314 9621   3.058   0.334   4.394
   97SAPC  H14X 9622   2.993   0.312   4.306
   97SAPC  H14Y 9623   2.995   0.388   4.467
   97SAPC  C315 9624   3.102   0.195   4.459
   97SAPC  H15X 9625   3.015   0.155   4.515
   97SAPC  H15Y 9626   3.187   0.202   4.531
   97SAPC  C316 9627   3.144   0.097   4.348
   97SAPC  H16X 9628   3.226   0.139   4.286
   97SAPC  H16Y 9629   3.064   0.078   4.273
   97SAPC  C317 9630   3.174   6.779   4.399
   97SAPC  H17X 9631   3.259   6.790   4.470
   97SAPC  H17Y 9632   3.217   6.723   4.313
   97SAPC  C318 9633   3.064   6.693   4.449
   97SAPC  H18X 9634   2.978   6.670   4.383
   97SAPC  H18Y 9635   3.023   6.732   4.544
   97SAPC  H18Z 9636   3.110   6.594   4.471
   98SAPC     N 9637   6.305   0.677   1.818
   98SAPC   C12 9638   6.358   0.740   1.949
   98SAPC  H12A 9639   6.457   0.702   1.968
   98SAPC  H12B 9640   6.289   0.703   2.025
   98SAPC   C13 9641   6.386   0.727   1.704
   98SAPC  H13A 9642   6.394   0.835   1.714
   98SAPC  H13B 9643   6.485   0.685   1.693
   98SAPC  H13C 9644   6.332   0.713   1.611
   98SAPC   C14 9645   6.321   0.530   1.815
   98SAPC  H14A 9646   6.420   0.491   1.836
   98SAPC  H14B 9647   6.263   0.477   1.888
   98SAPC  H14C 9648   6.299   0.499   1.714
   98SAPC   C15 9649   6.162   0.717   1.799
   98SAPC  H15A 9650   6.109   0.672   1.882
   98SAPC  H15B 9651   6.144   0.823   1.802
   98SAPC  H15C 9652   6.125   0.666   1.711
   98SAPC   C11 9653   6.374   0.890   1.971
   98SAPC  H11A 9654   6.439   0.934   1.893
   98SAPC  H11B 9655   6.435   0.906   2.062
   98SAPC     P 9656   6.167   0.959   2.100
   98SAPC   O13 9657   6.075   1.074   2.086
   98SAPC   O14 9658   6.110   0.829   2.128
   98SAPC   O12 9659   6.247   0.952   1.972
   98SAPC   O11 9660   6.270   1.002   2.209
   98SAPC    C1 9661   6.312   0.915   2.312
   98SAPC    HA 9662   6.311   0.806   2.289
   98SAPC    HB 9663   6.411   0.953   2.345
   98SAPC    C2 9664   6.229   0.919   2.443
   98SAPC    HS 9665   6.125   0.891   2.418
   98SAPC   O21 9666   6.233   1.047   2.503
   98SAPC   C21 9667   6.121   1.073   2.572
   98SAPC   O22 9668   6.023   1.005   2.579
   98SAPC   C22 9669   6.127   1.214   2.633
   98SAPC   H2R 9670   6.156   1.285   2.552
   98SAPC   H2S 9671   6.025   1.237   2.670
   98SAPC    C3 9672   6.283   0.811   2.550
   98SAPC    HX 9673   6.388   0.841   2.569
   98SAPC    HY 9674   6.285   0.710   2.503
   98SAPC   O31 9675   6.207   0.810   2.676
   98SAPC   C31 9676   6.117   0.715   2.668
   98SAPC   O32 9677   6.078   0.654   2.571
   98SAPC   C32 9678   6.062   0.697   2.810
   98SAPC   H2X 9679   6.012   0.792   2.840
   98SAPC   H2Y 9680   6.141   0.665   2.880
   98SAPC   C23 9681   6.223   1.222   2.745
   98SAPC   H3R 9682   6.329   1.219   2.711
   98SAPC   H3S 9683   6.210   1.127   2.801
   98SAPC   C24 9684   6.186   1.340   2.839
   98SAPC   H4R 9685   6.111   1.318   2.918
   98SAPC   H4S 9686   6.152   1.415   2.764
   98SAPC   C25 9687   6.318   1.402   2.881
   98SAPC   H5R 9688   6.343   1.490   2.818
   98SAPC   C26 9689   6.387   1.385   2.990
   98SAPC   H6R 9690   6.486   1.432   2.996
   98SAPC   C27 9691   6.381   1.270   3.086
   98SAPC   H7R 9692   6.467   1.203   3.065
   98SAPC   H7S 9693   6.296   1.199   3.080
   98SAPC   C28 9694   6.378   1.326   3.223
   98SAPC   H8R 9695   6.289   1.385   3.248
   98SAPC   C29 9696   6.475   1.328   3.314
   98SAPC   H9R 9697   6.459   1.377   3.411
   98SAPC  C210 9698   6.610   1.270   3.293
   98SAPC  H10R 9699   6.605   1.188   3.218
   98SAPC  H10S 9700   6.637   1.210   3.381
   98SAPC  C211 9701   6.713   1.371   3.240
   98SAPC  H11R 9702   6.686   1.422   3.147
   98SAPC  C212 9703   0.002   1.398   3.306
   98SAPC  H12R 9704   0.084   1.459   3.265
   98SAPC  C213 9705   0.049   1.329   3.431
   98SAPC  H13R 9706   0.159   1.346   3.441
   98SAPC  H13S 9707   0.042   1.218   3.423
   98SAPC  C214 9708   6.793   1.377   3.555
   98SAPC  H14R 9709   6.688   1.409   3.544
   98SAPC  C215 9710   0.010   1.359   3.684
   98SAPC  H15R 9711   6.766   1.384   3.765
   98SAPC  C216 9712   0.143   1.302   3.737
   98SAPC  H16R 9713   0.233   1.355   3.700
   98SAPC  H16S 9714   0.162   1.194   3.718
   98SAPC  C217 9715   0.147   1.327   3.886
   98SAPC  H17R 9716   0.078   1.256   3.937
   98SAPC  H17S 9717   0.126   1.434   3.908
   98SAPC  C218 9718   0.280   1.294   3.959
   98SAPC  H18R 9719   0.352   1.372   3.929
   98SAPC  H18S 9720   0.305   1.192   3.922
   98SAPC  C219 9721   0.268   1.296   4.117
   98SAPC  H19R 9722   0.375   1.308   4.146
   98SAPC  H19S 9723   0.232   1.196   4.150
   98SAPC  C220 9724   0.185   1.405   4.188
   98SAPC  H20R 9725   0.161   1.397   4.297
   98SAPC  H20S 9726   0.087   1.421   4.138
   98SAPC  H20T 9727   0.247   1.498   4.182
   98SAPC   C33 9728   5.939   0.600   2.806
   98SAPC   H3X 9729   5.951   0.520   2.731
   98SAPC   H3Y 9730   5.857   0.661   2.762
   98SAPC   C34 9731   5.889   0.549   2.946
   98SAPC   H4X 9732   5.969   0.491   2.997
   98SAPC   H4Y 9733   5.799   0.486   2.932
   98SAPC   C35 9734   5.869   0.664   3.041
   98SAPC   H5X 9735   5.813   0.742   2.986
   98SAPC   H5Y 9736   5.969   0.710   3.058
   98SAPC   C36 9737   5.793   0.633   3.169
   98SAPC   H6X 9738   5.827   0.545   3.227
   98SAPC   H6Y 9739   5.685   0.618   3.147
   98SAPC   C37 9740   5.795   0.745   3.263
   98SAPC   H7X 9741   5.748   0.830   3.208
   98SAPC   H7Y 9742   5.897   0.778   3.293
   98SAPC   C38 9743   5.716   0.711   3.393
   98SAPC   H8X 9744   5.621   0.666   3.357
   98SAPC   H8Y 9745   5.683   0.808   3.435
   98SAPC   C39 9746   5.803   0.624   3.493
   98SAPC   H9X 9747   5.853   0.549   3.429
   98SAPC   H9Y 9748   5.733   0.576   3.565
   98SAPC  C310 9749   5.905   0.701   3.578
   98SAPC  H10X 9750   5.966   0.760   3.506
   98SAPC  H10Y 9751   5.973   0.630   3.630
   98SAPC  C311 9752   5.846   0.789   3.678
   98SAPC  H11X 9753   5.774   0.725   3.733
   98SAPC  H11Y 9754   5.784   0.874   3.641
   98SAPC  C312 9755   5.952   0.856   3.766
   98SAPC  H12X 9756   6.041   0.899   3.714
   98SAPC  H12Y 9757   6.001   0.776   3.825
   98SAPC  C313 9758   5.898   0.951   3.869
   98SAPC  H13X 9759   5.802   0.919   3.914
   98SAPC  H13Y 9760   5.860   1.044   3.822
   98SAPC  C314 9761   5.999   0.977   3.978
   98SAPC  H14X 9762   6.083   1.044   3.950
   98SAPC  H14Y 9763   6.038   0.879   4.013
   98SAPC  C315 9764   5.926   1.041   4.098
   98SAPC  H15X 9765   5.853   0.962   4.124
   98SAPC  H15Y 9766   5.891   1.145   4.079
   98SAPC  C316 9767   6.017   1.052   4.228
   98SAPC  H16X 9768   6.119   1.093   4.211
   98SAPC  H16Y 9769   6.042   0.949   4.262
   98SAPC  C317 9770   5.946   1.125   4.338
   98SAPC  H17X 9771   5.921   1.221   4.287
   98SAPC  H17Y 9772   6.011   1.148   4.424
   98SAPC  C318 9773   5.808   1.077   4.383
   98SAPC  H18X 9774   5.737   1.080   4.298
   98SAPC  H18Y 9775   5.765   1.149   4.456
   98SAPC  H18Z 9776   5.803   0.972   4.421
   99SAPC     N 9777   3.561   4.764   1.733
   99SAPC   C12 9778   3.636   4.847   1.836
   99SAPC  H12A 9779   3.682   4.933   1.789
   99SAPC  H12B 9780   3.722   4.794   1.875
   99SAPC   C13 9781   3.452   4.846   1.675
   99SAPC  H13A 9782   3.379   4.863   1.752
   99SAPC  H13B 9783   3.486   4.934   1.622
   99SAPC  H13C 9784   3.404   4.788   1.598
   99SAPC   C14 9785   3.651   4.718   1.627
   99SAPC  H14A 9786   3.737   4.662   1.662
   99SAPC  H14B 9787   3.610   4.672   1.538
   99SAPC  H14C 9788   3.698   4.800   1.577
   99SAPC   C15 9789   3.496   4.645   1.798
   99SAPC  H15A 9790   3.561   4.579   1.855
   99SAPC  H15B 9791   3.437   4.687   1.878
   99SAPC  H15C 9792   3.429   4.591   1.734
   99SAPC   C11 9793   3.556   4.896   1.960
   99SAPC  H11A 9794   3.617   4.951   2.035
   99SAPC  H11B 9795   3.516   4.809   2.016
   99SAPC     P 9796   3.439   5.124   1.934
   99SAPC   O13 9797   3.569   5.185   1.912
   99SAPC   O14 9798   3.329   5.178   1.852
   99SAPC   O12 9799   3.442   4.972   1.916
   99SAPC   O11 9800   3.389   5.131   2.082
   99SAPC    C1 9801   3.257   5.095   2.125
   99SAPC    HA 9802   3.185   5.176   2.147
   99SAPC    HB 9803   3.204   5.027   2.055
   99SAPC    C2 9804   3.278   5.010   2.256
   99SAPC    HS 9805   3.178   4.962   2.264
   99SAPC   O21 9806   3.300   5.092   2.368
   99SAPC   C21 9807   3.263   5.039   2.488
   99SAPC   O22 9808   3.194   4.939   2.497
   99SAPC   C22 9809   3.321   5.115   2.601
   99SAPC   H2R 9810   3.269   5.091   2.696
   99SAPC   H2S 9811   3.426   5.082   2.613
   99SAPC    C3 9812   3.381   4.895   2.245
   99SAPC    HX 9813   3.481   4.943   2.237
   99SAPC    HY 9814   3.365   4.847   2.146
   99SAPC   O31 9815   3.371   4.785   2.340
   99SAPC   C31 9816   3.485   4.717   2.368
   99SAPC   O32 9817   3.587   4.738   2.314
   99SAPC   C32 9818   3.442   4.594   2.449
   99SAPC   H2X 9819   3.421   4.521   2.369
   99SAPC   H2Y 9820   3.338   4.610   2.485
   99SAPC   C23 9821   3.310   5.265   2.573
   99SAPC   H3R 9822   3.211   5.286   2.527
   99SAPC   H3S 9823   3.385   5.297   2.497
   99SAPC   C24 9824   3.321   5.359   2.696
   99SAPC   H4R 9825   3.327   5.463   2.657
   99SAPC   H4S 9826   3.419   5.334   2.742
   99SAPC   C25 9827   3.192   5.350   2.777
   99SAPC   H5R 9828   3.103   5.385   2.722
   99SAPC   C26 9829   3.172   5.314   2.904
   99SAPC   H6R 9830   3.078   5.326   2.959
   99SAPC   C27 9831   3.276   5.266   3.002
   99SAPC   H7R 9832   3.246   5.311   3.099
   99SAPC   H7S 9833   3.374   5.310   2.974
   99SAPC   C28 9834   3.279   5.112   3.003
   99SAPC   H8R 9835   3.312   5.063   2.910
   99SAPC   C29 9836   3.248   5.025   3.104
   99SAPC   H9R 9837   3.267   4.920   3.080
   99SAPC  C210 9838   3.220   5.058   3.246
   99SAPC  H10R 9839   3.165   4.975   3.295
   99SAPC  H10S 9840   3.153   5.147   3.242
   99SAPC  C211 9841   3.338   5.090   3.331
   99SAPC  H11R 9842   3.429   5.135   3.287
   99SAPC  C212 9843   3.347   5.081   3.466
   99SAPC  H12R 9844   3.438   5.119   3.513
   99SAPC  C213 9845   3.232   5.026   3.557
   99SAPC  H13R 9846   3.141   5.013   3.494
   99SAPC  H13S 9847   3.205   5.095   3.639
   99SAPC  C214 9848   3.268   4.887   3.608
   99SAPC  H14R 9849   3.375   4.862   3.603
   99SAPC  C215 9850   3.181   4.809   3.679
   99SAPC  H15R 9851   3.210   4.714   3.726
   99SAPC  C216 9852   3.029   4.842   3.690
   99SAPC  H16R 9853   2.993   4.788   3.600
   99SAPC  H16S 9854   2.992   4.947   3.684
   99SAPC  C217 9855   2.980   4.763   3.810
   99SAPC  H17R 9856   3.028   4.794   3.906
   99SAPC  H17S 9857   3.015   4.659   3.794
   99SAPC  C218 9858   2.831   4.764   3.834
   99SAPC  H18R 9859   2.767   4.762   3.744
   99SAPC  H18S 9860   2.812   4.860   3.886
   99SAPC  C219 9861   2.773   4.649   3.920
   99SAPC  H19R 9862   2.797   4.553   3.868
   99SAPC  H19S 9863   2.665   4.673   3.930
   99SAPC  C220 9864   2.831   4.638   4.058
   99SAPC  H20R 9865   2.939   4.615   4.045
   99SAPC  H20S 9866   2.771   4.565   4.116
   99SAPC  H20T 9867   2.821   4.736   4.110
   99SAPC   C33 9868   3.548   4.525   2.530
   99SAPC   H3X 9869   3.649   4.535   2.485
   99SAPC   H3Y 9870   3.524   4.417   2.540
   99SAPC   C34 9871   3.531   4.573   2.670
   99SAPC   H4X 9872   3.439   4.522   2.704
   99SAPC   H4Y 9873   3.523   4.684   2.671
   99SAPC   C35 9874   3.648   4.529   2.764
   99SAPC   H5X 9875   3.742   4.557   2.710
   99SAPC   H5Y 9876   3.643   4.418   2.767
   99SAPC   C36 9877   3.650   4.582   2.903
   99SAPC   H6X 9878   3.656   4.692   2.887
   99SAPC   H6Y 9879   3.748   4.551   2.943
   99SAPC   C37 9880   3.537   4.530   2.995
   99SAPC   H7X 9881   3.535   4.419   2.991
   99SAPC   H7Y 9882   3.437   4.564   2.961
   99SAPC   C38 9883   3.557   4.586   3.136
   99SAPC   H8X 9884   3.517   4.689   3.145
   99SAPC   H8Y 9885   3.665   4.582   3.160
   99SAPC   C39 9886   3.474   4.508   3.241
   99SAPC   H9X 9887   3.513   4.404   3.234
   99SAPC   H9Y 9888   3.367   4.499   3.213
   99SAPC  C310 9889   3.475   4.571   3.380
   99SAPC  H10X 9890   3.374   4.616   3.391
   99SAPC  H10Y 9891   3.546   4.656   3.391
   99SAPC  C311 9892   3.494   4.467   3.487
   99SAPC  H11X 9893   3.598   4.428   3.491
   99SAPC  H11Y 9894   3.431   4.377   3.469
   99SAPC  C312 9895   3.458   4.520   3.627
   99SAPC  H12X 9896   3.349   4.540   3.635
   99SAPC  H12Y 9897   3.518   4.612   3.646
   99SAPC  C313 9898   3.490   4.429   3.743
   99SAPC  H13X 9899   3.489   4.493   3.834
   99SAPC  H13Y 9900   3.593   4.388   3.734
   99SAPC  C314 9901   3.377   4.327   3.764
   99SAPC  H14X 9902   3.362   4.277   3.666
   99SAPC  H14Y 9903   3.286   4.380   3.798
   99SAPC  C315 9904   3.398   4.226   3.875
   99SAPC  H15X 9905   3.483   4.165   3.838
   99SAPC  H15Y 9906   3.310   4.158   3.867
   99SAPC  C316 9907   3.411   4.274   4.022
   99SAPC  H16X 9908   3.451   4.378   4.016
   99SAPC  H16Y 9909   3.479   4.199   4.067
   99SAPC  C317 9910   3.277   4.273   4.090
   99SAPC  H17X 9911   3.235   4.172   4.071
   99SAPC  H17Y 9912   3.217   4.352   4.041
   99SAPC  C318 9913   3.291   4.311   4.236
   99SAPC  H18X 9914   3.357   4.399   4.244
   99SAPC  H18Y 9915   3.327   4.222   4.292
   99SAPC  H18Z 9916   3.193   4.339   4.281
  100SAPC     N 9917   1.765   4.081   1.648
  100SAPC   C12 9918   1.765   4.223   1.705
  100SAPC  H12A 9919   1.737   4.294   1.628
  100SAPC  H12B 9920   1.867   4.245   1.731
  100SAPC   C13 9921   1.640   4.067   1.555
  100SAPC  H13A 9922   1.546   4.084   1.606
  100SAPC  H13B 9923   1.643   4.145   1.480
  100SAPC  H13C 9924   1.630   3.963   1.531
  100SAPC   C14 9925   1.892   4.061   1.572
  100SAPC  H14A 9926   1.907   4.128   1.489
  100SAPC  H14B 9927   1.974   4.073   1.641
  100SAPC  H14C 9928   1.895   3.964   1.524
  100SAPC   C15 9929   1.760   3.982   1.760
  100SAPC  H15A 9930   1.688   4.011   1.835
  100SAPC  H15B 9931   1.735   3.883   1.722
  100SAPC  H15C 9932   1.853   3.964   1.812
  100SAPC   C11 9933   1.668   4.250   1.820
  100SAPC  H11A 9934   1.681   4.357   1.847
  100SAPC  H11B 9935   1.710   4.193   1.905
  100SAPC     P 9936   1.431   4.194   1.888
  100SAPC   O13 9937   1.417   4.318   1.977
  100SAPC   O14 9938   1.307   4.147   1.817
  100SAPC   O12 9939   1.536   4.219   1.781
  100SAPC   O11 9940   1.509   4.080   1.965
  100SAPC    C1 9941   1.429   4.011   2.062
  100SAPC    HA 9942   1.371   4.075   2.132
  100SAPC    HB 9943   1.360   3.944   2.008
  100SAPC    C2 9944   1.524   3.922   2.147
  100SAPC    HS 9945   1.470   3.839   2.198
  100SAPC   O21 9946   1.597   3.991   2.244
  100SAPC   C21 9947   1.523   4.043   2.339
  100SAPC   O22 9948   1.405   4.024   2.353
  100SAPC   C22 9949   1.624   4.097   2.442
  100SAPC   H2R 9950   1.691   4.009   2.449
  100SAPC   H2S 9951   1.679   4.181   2.396
  100SAPC    C3 9952   1.631   3.846   2.060
  100SAPC    HX 9953   1.692   3.927   2.015
  100SAPC    HY 9954   1.583   3.784   1.982
  100SAPC   O31 9955   1.708   3.762   2.144
  100SAPC   C31 9956   1.838   3.783   2.162
  100SAPC   O32 9957   1.893   3.876   2.107
  100SAPC   C32 9958   1.892   3.691   2.263
  100SAPC   H2X 9959   1.999   3.667   2.246
  100SAPC   H2Y 9960   1.839   3.594   2.250
  100SAPC   C23 9961   1.563   4.126   2.579
  100SAPC   H3R 9962   1.494   4.044   2.610
  100SAPC   H3S 9963   1.502   4.218   2.570
  100SAPC   C24 9964   1.674   4.145   2.683
  100SAPC   H4R 9965   1.727   4.047   2.688
  100SAPC   H4S 9966   1.637   4.179   2.782
  100SAPC   C25 9967   1.776   4.250   2.647
  100SAPC   H5R 9968   1.742   4.317   2.567
  100SAPC   C26 9969   1.891   4.265   2.717
  100SAPC   H6R 9970   1.966   4.331   2.671
  100SAPC   C27 9971   1.931   4.184   2.836
  100SAPC   H7R 9972   1.959   4.083   2.799
  100SAPC   H7S 9973   1.843   4.177   2.904
  100SAPC   C28 9974   2.059   4.218   2.910
  100SAPC   H8R 9975   2.139   4.247   2.839
  100SAPC   C29 9976   2.089   4.213   3.038
  100SAPC   H9R 9977   2.190   4.248   3.066
  100SAPC  C210 9978   1.990   4.178   3.143
  100SAPC  H10R 9979   1.987   4.069   3.164
  100SAPC  H10S 9980   1.885   4.198   3.112
  100SAPC  C211 9981   1.999   4.259   3.277
  100SAPC  H11R 9982   2.042   4.360   3.276
  100SAPC  C212 9983   1.955   4.214   3.403
  100SAPC  H12R 9984   1.985   4.274   3.490
  100SAPC  C213 9985   1.888   4.084   3.425
  100SAPC  H13R 9986   1.936   4.016   3.499
  100SAPC  H13S 9987   1.859   4.022   3.338
  100SAPC  C214 9988   1.759   4.116   3.493
  100SAPC  H14R 9989   1.693   4.120   3.405
  100SAPC  C215 9990   1.718   4.143   3.620
  100SAPC  H15R 9991   1.611   4.162   3.638
  100SAPC  C216 9992   1.805   4.144   3.736
  100SAPC  H16R 9993   1.802   4.244   3.784
  100SAPC  H16S 9994   1.910   4.124   3.706
  100SAPC  C217 9995   1.768   4.040   3.842
  100SAPC  H17R 9996   1.840   4.061   3.924
  100SAPC  H17S 9997   1.797   3.937   3.811
  100SAPC  C218 9998   1.632   4.053   3.893
  100SAPC  H18R 9999   1.550   4.078   3.822
  100SAPC  H18S10000   1.622   4.151   3.945
  100SAPC  C21910001   1.587   3.942   3.988
  100SAPC  H19R10002   1.501   3.969   4.052
  100SAPC  H19S10003   1.663   3.924   4.067
  100SAPC  C22010004   1.550   3.816   3.902
  100SAPC  H20R10005   1.526   3.728   3.965
  100SAPC  H20S10006   1.629   3.788   3.829
  100SAPC  H20T10007   1.456   3.851   3.854
  100SAPC   C3310008   1.875   3.720   2.412
  100SAPC   H3X10009   1.894   3.623   2.464
  100SAPC   H3Y10010   1.769   3.744   2.434
  100SAPC   C3410011   1.974   3.825   2.470
  100SAPC   H4X10012   1.933   3.920   2.429
  100SAPC   H4Y10013   2.076   3.805   2.432
  100SAPC   C3510014   1.979   3.842   2.617
  100SAPC   H5X10015   1.880   3.811   2.656
  100SAPC   H5Y10016   2.009   3.939   2.661
  100SAPC   C3610017   2.072   3.729   2.667
  100SAPC   H6X10018   2.166   3.765   2.620
  100SAPC   H6Y10019   2.050   3.639   2.605
  100SAPC   C3710020   2.077   3.717   2.822
  100SAPC   H7X10021   2.136   3.630   2.859
  100SAPC   H7Y10022   1.975   3.683   2.849
  100SAPC   C3810023   2.120   3.842   2.904
  100SAPC   H8X10024   2.034   3.913   2.904
  100SAPC   H8Y10025   2.200   3.888   2.843
  100SAPC   C3910026   2.170   3.805   3.049
  100SAPC   H9X10027   2.219   3.890   3.102
  100SAPC   H9Y10028   2.246   3.725   3.053
  100SAPC  C31010029   2.047   3.776   3.141
  100SAPC  H10X10030   1.997   3.692   3.089
  100SAPC  H10Y10031   1.991   3.871   3.144
  100SAPC  C31110032   2.091   3.760   3.284
  100SAPC  H11X10033   2.139   3.844   3.339
  100SAPC  H11Y10034   2.155   3.670   3.295
  100SAPC  C31210035   1.963   3.719   3.360
  100SAPC  H12X10036   1.918   3.632   3.307
  100SAPC  H12Y10037   1.899   3.810   3.349
  100SAPC  C31310038   1.999   3.688   3.507
  100SAPC  H13X10039   2.079   3.757   3.543
  100SAPC  H13Y10040   2.025   3.580   3.508
  100SAPC  C31410041   1.882   3.694   3.604
  100SAPC  H14X10042   1.792   3.642   3.563
  100SAPC  H14Y10043   1.855   3.802   3.600
  100SAPC  C31510044   1.910   3.642   3.747
  100SAPC  H15X10045   1.940   3.536   3.735
  100SAPC  H15Y10046   1.817   3.645   3.807
  100SAPC  C31610047   2.023   3.725   3.815
  100SAPC  H16X10048   1.996   3.833   3.817
  100SAPC  H16Y10049   2.121   3.707   3.767
  100SAPC  C31710050   2.044   3.688   3.959
  100SAPC  H17X10051   2.154   3.686   3.977
  100SAPC  H17Y10052   2.004   3.587   3.979
  100SAPC  C31810053   1.977   3.784   4.058
  100SAPC  H18X10054   1.990   3.743   4.160
  100SAPC  H18Y10055   1.868   3.788   4.038
  100SAPC  H18Z10056   2.035   3.879   4.061
  101OSM      N10057   3.956   2.680   6.994
  101OSM    C1510058   3.835   2.601   7.041
  101OSM   H15A10059   3.747   2.640   6.992
  101OSM   H15B10060   3.831   2.612   7.148
  101OSM   H15C10061   3.849   2.495   7.027
  101OSM    C1410062   3.977   2.652   6.851
  101OSM   H14A10063   3.895   2.688   6.790
  101OSM   H14B10064   4.001   2.549   6.829
  101OSM   H14C10065   4.076   2.687   6.824
  101OSM    C1310066   3.923   2.821   7.016
  101OSM   H13A10067   3.860   2.830   7.103
  101OSM   H13B10068   3.866   2.851   6.929
  101OSM   H13C10069   4.006   2.884   7.045
  101OSM    C1210070   4.079   2.648   7.073
  101OSM   H12A10071   4.081   2.540   7.066
  101OSM   H12B10072   4.061   2.677   7.176
  101OSM    C1110073   4.218   2.696   7.030
  101OSM   H11A10074   4.283   2.700   7.120
  101OSM   H11B10075   4.214   2.803   7.001
  101OSM      P10076   4.309   2.466   6.930
  101OSM    O1310077   4.455   2.459   6.947
  101OSM    O1410078   4.219   2.390   7.019
  101OSM    O1110079   4.280   2.412   6.787
  101OSM    O1210080   4.266   2.622   6.916
  101OSM    C1S10081   4.282   2.508   6.686
  101OSM    H1S10082   4.387   2.543   6.673
  101OSM    H1T10083   4.222   2.599   6.705
  101OSM     NF10084   4.274   2.521   6.438
  101OSM    HNF10085   4.214   2.593   6.405
  101OSM    C2S10086   4.224   2.448   6.553
  101OSM    H2S10087   4.277   2.350   6.547
  101OSM    C3S10088   4.076   2.436   6.578
  101OSM    H3S10089   4.030   2.538   6.581
  101OSM     O310090   4.025   2.373   6.693
  101OSM    HO310091   4.101   2.347   6.746
  101OSM    C4S10092   4.001   2.374   6.464
  101OSM    H4S10093   4.063   2.313   6.398
  101OSM    C5S10094   3.877   2.401   6.422
  101OSM    H5S10095   3.814   2.473   6.476
  101OSM    C6S10096   3.811   2.335   6.310
  101OSM    H6S10097   3.703   2.320   6.327
  101OSM    H6T10098   3.859   2.241   6.276
  101OSM    C7S10099   3.810   2.429   6.184
  101OSM    H7S10100   3.910   2.455   6.144
  101OSM    H7T10101   3.749   2.522   6.196
  101OSM    C8S10102   3.752   2.353   6.081
  101OSM    H8S10103   3.646   2.324   6.101
  101OSM    H8T10104   3.804   2.258   6.054
  101OSM    C9S10105   3.760   2.434   5.952
  101OSM    H9S10106   3.852   2.422   5.891
  101OSM    H9T10107   3.741   2.540   5.980
  101OSM   C10S10108   3.652   2.404   5.849
  101OSM   H10S10109   3.552   2.405   5.897
  101OSM   H10T10110   3.673   2.304   5.805
  101OSM   C11S10111   3.645   2.507   5.739
  101OSM   H11S10112   3.750   2.515   5.704
  101OSM   H11T10113   3.618   2.610   5.772
  101OSM   C12S10114   3.555   2.471   5.629
  101OSM   H12S10115   3.454   2.441   5.664
  101OSM   H12T10116   3.595   2.372   5.596
  101OSM   C13S10117   3.543   2.578   5.522
  101OSM   H13S10118   3.630   2.647   5.519
  101OSM   H13T10119   3.455   2.643   5.543
  101OSM   C14S10120   3.523   2.515   5.381
  101OSM   H14S10121   3.435   2.448   5.385
  101OSM   H14T10122   3.612   2.448   5.380
  101OSM   C15S10123   3.527   2.613   5.263
  101OSM   H15S10124   3.622   2.669   5.272
  101OSM   H15T10125   3.433   2.670   5.282
  101OSM   C16S10126   3.527   2.543   5.126
  101OSM   H16S10127   3.443   2.473   5.107
  101OSM   H16T10128   3.629   2.504   5.103
  101OSM   C17S10129   3.518   2.639   5.009
  101OSM   H17S10130   3.421   2.687   5.032
  101OSM   H17T10131   3.507   2.589   4.910
  101OSM   C18S10132   3.625   2.745   4.998
  101OSM   H18S10133   3.598   2.809   4.912
  101OSM   H18T10134   3.725   2.704   4.974
  101OSM   H18U10135   3.633   2.812   5.086
  101OSM    C1F10136   4.399   2.517   6.397
  101OSM     OF10137   4.484   2.457   6.456
  101OSM    C2F10138   4.433   2.605   6.273
  101OSM    H2F10139   4.530   2.657   6.289
  101OSM    H2G10140   4.364   2.691   6.258
  101OSM    C3F10141   4.440   2.507   6.155
  101OSM    H3F10142   4.339   2.465   6.139
  101OSM    H3G10143   4.511   2.422   6.161
  101OSM    C4F10144   4.481   2.585   6.028
  101OSM    H4F10145   4.525   2.521   5.949
  101OSM    H4G10146   4.566   2.650   6.059
  101OSM    C5F10147   4.372   2.668   5.963
  101OSM    H5F10148   4.373   2.765   6.017
  101OSM    H5G10149   4.276   2.616   5.987
  101OSM    C6F10150   4.396   2.692   5.813
  101OSM    H6F10151   4.362   2.606   5.752
  101OSM    H6G10152   4.506   2.701   5.802
  101OSM    C7F10153   4.327   2.815   5.764
  101OSM    H7F10154   4.335   2.895   5.841
  101OSM    H7G10155   4.220   2.797   5.740
  101OSM    C8F10156   4.382   2.867   5.622
  101OSM    H8F10157   4.387   2.781   5.551
  101OSM    H8G10158   4.488   2.888   5.651
  101OSM    C9F10159   4.305   2.980   5.564
  101OSM    H9F10160   4.334   3.071   5.618
  101OSM   C10F10161   4.220   2.985   5.463
  101OSM   H10F10162   4.183   3.081   5.426
  101OSM   C11F10163   4.167   2.868   5.378
  101OSM   H11F10164   4.056   2.862   5.386
  101OSM   H11G10165   4.218   2.773   5.401
  101OSM   C12F10166   4.187   2.910   5.224
  101OSM   H12F10167   4.296   2.913   5.206
  101OSM   H12G10168   4.148   3.014   5.222
  101OSM   C13F10169   4.110   2.831   5.123
  101OSM   H13F10170   4.006   2.828   5.162
  101OSM   H13G10171   4.141   2.724   5.120
  101OSM   C14F10172   4.105   2.891   4.977
  101OSM   H14F10173   4.204   2.883   4.929
  101OSM   H14G10174   4.077   2.998   4.987
  101OSM   C15F10175   4.008   2.805   4.888
  101OSM   H15F10176   3.908   2.777   4.927
  101OSM   H15G10177   4.058   2.706   4.882
  101OSM   C16F10178   3.993   2.871   4.744
  101OSM   H16F10179   4.097   2.893   4.710
  101OSM   H16G10180   3.937   2.967   4.748
  101OSM   C17F10181   3.933   2.783   4.638
  101OSM   H17F10182   3.917   2.841   4.545
  101OSM   H17G10183   3.836   2.750   4.681
  101OSM   C18F10184   4.007   2.659   4.583
  101OSM   H18F10185   3.966   2.634   4.482
  101OSM   H18G10186   3.989   2.578   4.656
  101OSM   H18H10187   4.113   2.686   4.564
  102OSM      N10188   4.476   2.079   7.156
  102OSM    C1510189   4.610   2.017   7.193
  102OSM   H15A10190   4.592   1.913   7.212
  102OSM   H15B10191   4.657   2.074   7.273
  102OSM   H15C10192   4.674   2.012   7.106
  102OSM    C1410193   4.375   2.043   7.264
  102OSM   H14A10194   4.306   2.125   7.281
  102OSM   H14B10195   4.416   2.025   7.363
  102OSM   H14C10196   4.324   1.951   7.242
  102OSM    C1310197   4.493   2.233   7.159
  102OSM   H13A10198   4.549   2.266   7.073
  102OSM   H13B10199   4.549   2.258   7.247
  102OSM   H13C10200   4.400   2.280   7.188
  102OSM    C1210201   4.430   2.043   7.013
  102OSM   H12A10202   4.504   2.079   6.943
  102OSM   H12B10203   4.345   2.106   6.990
  102OSM    C1110204   4.399   1.895   6.975
  102OSM   H11A10205   4.340   1.894   6.880
  102OSM   H11B10206   4.331   1.851   7.050
  102OSM      P10207   4.641   1.839   6.872
  102OSM    O1310208   4.753   1.899   6.945
  102OSM    O1410209   4.658   1.720   6.790
  102OSM    O1110210   4.592   1.954   6.769
  102OSM    O1210211   4.514   1.821   6.968
  102OSM    C1S10212   4.662   1.976   6.648
  102OSM    H1S10213   4.730   1.896   6.613
  102OSM    H1T10214   4.718   2.072   6.647
  102OSM     NF10215   4.639   2.014   6.407
  102OSM    HNF10216   4.647   2.105   6.369
  102OSM    C2S10217   4.565   2.004   6.530
  102OSM    H2S10218   4.514   1.906   6.528
  102OSM    C3S10219   4.463   2.114   6.556
  102OSM    H3S10220   4.512   2.213   6.571
  102OSM     O310221   4.385   2.114   6.675
  102OSM    HO310222   4.428   2.040   6.718
  102OSM    C4S10223   4.377   2.117   6.433
  102OSM    H4S10224   4.422   2.188   6.363
  102OSM    C5S10225   4.262   2.059   6.401
  102OSM    H5S10226   4.216   2.008   6.487
  102OSM    C6S10227   4.189   2.071   6.265
  102OSM    H6S10228   4.080   2.063   6.283
  102OSM    H6T10229   4.221   1.981   6.207
  102OSM    C7S10230   4.215   2.191   6.170
  102OSM    H7S10231   4.318   2.197   6.128
  102OSM    H7T10232   4.191   2.283   6.228
  102OSM    C8S10233   4.125   2.191   6.041
  102OSM    H8S10234   4.016   2.204   6.059
  102OSM    H8T10235   4.134   2.090   5.996
  102OSM    C9S10236   4.167   2.298   5.935
  102OSM    H9S10237   4.275   2.297   5.911
  102OSM    H9T10238   4.149   2.405   5.960
  102OSM   C10S10239   4.101   2.279   5.798
  102OSM   H10S10240   4.008   2.222   5.815
  102OSM   H10T10241   4.163   2.211   5.736
  102OSM   C11S10242   4.075   2.412   5.718
  102OSM   H11S10243   4.177   2.454   5.707
  102OSM   H11T10244   4.023   2.496   5.769
  102OSM   C12S10245   4.021   2.390   5.573
  102OSM   H12S10246   3.917   2.350   5.573
  102OSM   H12T10247   4.097   2.323   5.527
  102OSM   C13S10248   4.021   2.527   5.496
  102OSM   H13S10249   4.126   2.552   5.472
  102OSM   H13T10250   3.970   2.602   5.561
  102OSM   C14S10251   3.930   2.538   5.370
  102OSM   H14S10252   3.920   2.647   5.349
  102OSM   H14T10253   3.829   2.500   5.399
  102OSM   C15S10254   3.996   2.472   5.251
  102OSM   H15S10255   4.006   2.368   5.289
  102OSM   H15T10256   4.091   2.527   5.232
  102OSM   C16S10257   3.915   2.461   5.120
  102OSM   H16S10258   3.903   2.561   5.074
  102OSM   H16T10259   3.810   2.426   5.128
  102OSM   C17S10260   3.991   2.391   5.003
  102OSM   H17S10261   3.995   2.283   5.027
  102OSM   H17T10262   4.095   2.429   4.993
  102OSM   C18S10263   3.903   2.412   4.877
  102OSM   H18S10264   3.900   2.520   4.851
  102OSM   H18T10265   3.802   2.384   4.915
  102OSM   H18U10266   3.934   2.348   4.792
  102OSM    C1F10267   4.691   1.910   6.353
  102OSM     OF10268   4.672   1.799   6.409
  102OSM    C2F10269   4.779   1.926   6.232
  102OSM    H2F10270   4.879   1.882   6.254
  102OSM    H2G10271   4.785   2.031   6.198
  102OSM    C3F10272   4.734   1.838   6.112
  102OSM    H3F10273   4.732   1.732   6.146
  102OSM    H3G10274   4.806   1.856   6.030
  102OSM    C4F10275   4.587   1.869   6.065
  102OSM    H4F10276   4.519   1.846   6.150
  102OSM    H4G10277   4.569   1.801   5.979
  102OSM    C5F10278   4.548   2.010   6.028
  102OSM    H5F10279   4.543   2.080   6.114
  102OSM    H5G10280   4.442   1.994   5.998
  102OSM    C6F10281   4.624   2.073   5.917
  102OSM    H6F10282   4.630   2.010   5.826
  102OSM    H6G10283   4.728   2.099   5.946
  102OSM    C7F10284   4.558   2.205   5.862
  102OSM    H7F10285   4.581   2.283   5.937
  102OSM    H7G10286   4.449   2.184   5.862
  102OSM    C8F10287   4.616   2.246   5.726
  102OSM    H8F10288   4.568   2.176   5.654
  102OSM    H8G10289   4.725   2.225   5.731
  102OSM    C9F10290   4.590   2.385   5.681
  102OSM    H9F10291   4.633   2.469   5.737
  102OSM   C10F10292   4.507   2.429   5.586
  102OSM   H10F10293   4.493   2.537   5.573
  102OSM   C11F10294   4.418   2.348   5.491
  102OSM   H11F10295   4.314   2.382   5.505
  102OSM   H11G10296   4.416   2.241   5.522
  102OSM   C12F10297   4.472   2.363   5.350
  102OSM   H12F10298   4.426   2.288   5.282
  102OSM   H12G10299   4.582   2.362   5.336
  102OSM   C13F10300   4.441   2.501   5.294
  102OSM   H13F10301   4.478   2.584   5.359
  102OSM   H13G10302   4.331   2.512   5.291
  102OSM   C14F10303   4.499   2.519   5.147
  102OSM   H14F10304   4.498   2.418   5.102
  102OSM   H14G10305   4.604   2.556   5.140
  102OSM   C15F10306   4.423   2.616   5.053
  102OSM   H15F10307   4.422   2.717   5.100
  102OSM   H15G10308   4.319   2.580   5.045
  102OSM   C16F10309   4.499   2.648   4.924
  102OSM   H16F10310   4.501   2.548   4.874
  102OSM   H16G10311   4.603   2.678   4.950
  102OSM   C17F10312   4.442   2.751   4.826
  102OSM   H17F10313   4.404   2.844   4.873
  102OSM   H17G10314   4.355   2.703   4.776
  102OSM   C18F10315   4.540   2.784   4.707
  102OSM   H18F10316   4.496   2.854   4.632
  102OSM   H18G10317   4.560   2.689   4.653
  102OSM   H18H10318   4.640   2.821   4.738
  103OSM      N10319   3.765   4.362   6.662
  103OSM    C1510320   3.733   4.234   6.593
  103OSM   H15A10321   3.649   4.193   6.648
  103OSM   H15B10322   3.806   4.154   6.601
  103OSM   H15C10323   3.708   4.254   6.490
  103OSM    C1410324   3.645   4.453   6.663
  103OSM   H14A10325   3.669   4.549   6.707
  103OSM   H14B10326   3.572   4.414   6.732
  103OSM   H14C10327   3.605   4.473   6.565
  103OSM    C1310328   3.815   4.321   6.805
  103OSM   H13A10329   3.810   4.406   6.871
  103OSM   H13B10330   3.920   4.297   6.806
  103OSM   H13C10331   3.763   4.232   6.838
  103OSM    C1210332   3.870   4.432   6.581
  103OSM   H12A10333   3.873   4.536   6.607
  103OSM   H12B10334   3.836   4.422   6.479
  103OSM    C1110335   4.017   4.369   6.576
  103OSM   H11A10336   4.082   4.430   6.510
  103OSM   H11B10337   3.993   4.275   6.522
  103OSM      P10338   4.196   4.441   6.740
  103OSM    O1310339   4.149   4.585   6.744
  103OSM    O1410340   4.259   4.404   6.870
  103OSM    O1110341   4.301   4.431   6.628
  103OSM    O1210342   4.081   4.334   6.704
  103OSM    C1S10343   4.325   4.308   6.563
  103OSM    H1S10344   4.245   4.231   6.558
  103OSM    H1T10345   4.416   4.262   6.608
  103OSM     NF10346   4.360   4.227   6.330
  103OSM    HNF10347   4.444   4.179   6.304
  103OSM    C2S10348   4.374   4.338   6.421
  103OSM    H2S10349   4.314   4.424   6.384
  103OSM    C3S10350   4.523   4.399   6.431
  103OSM    H3S10351   4.588   4.313   6.459
  103OSM     O310352   4.544   4.492   6.531
  103OSM    HO310353   4.470   4.482   6.591
  103OSM    C4S10354   4.572   4.444   6.293
  103OSM    H4S10355   4.614   4.360   6.236
  103OSM    C5S10356   4.553   4.562   6.232
  103OSM    H5S10357   4.486   4.635   6.279
  103OSM    C6S10358   4.594   4.581   6.092
  103OSM    H6S10359   4.694   4.627   6.079
  103OSM    H6T10360   4.520   4.652   6.049
  103OSM    C7S10361   4.589   4.464   5.986
  103OSM    H7S10362   4.489   4.415   5.988
  103OSM    H7T10363   4.659   4.386   6.022
  103OSM    C8S10364   4.619   4.488   5.841
  103OSM    H8S10365   4.717   4.539   5.830
  103OSM    H8T10366   4.545   4.556   5.793
  103OSM    C9S10367   4.640   4.357   5.753
  103OSM    H9S10368   4.551   4.291   5.756
  103OSM    H9T10369   4.722   4.299   5.801
  103OSM   C10S10370   4.686   4.390   5.612
  103OSM   H10S10371   4.691   4.299   5.549
  103OSM   H10T10372   4.785   4.439   5.624
  103OSM   C11S10373   4.595   4.493   5.545
  103OSM   H11S10374   4.607   4.593   5.591
  103OSM   H11T10375   4.493   4.449   5.548
  103OSM   C12S10376   4.642   4.507   5.397
  103OSM   H12S10377   4.598   4.421   5.341
  103OSM   H12T10378   4.752   4.496   5.393
  103OSM   C13S10379   4.609   4.632   5.319
  103OSM   H13S10380   4.617   4.730   5.370
  103OSM   H13T10381   4.502   4.634   5.288
  103OSM   C14S10382   4.710   4.651   5.197
  103OSM   H14S10383   4.760   4.560   5.158
  103OSM   H14T10384   4.781   4.728   5.233
  103OSM   C15S10385   4.639   4.724   5.086
  103OSM   H15S10386   4.593   4.815   5.131
  103OSM   H15T10387   4.555   4.657   5.060
  103OSM   C16S10388   4.735   4.757   4.971
  103OSM   H16S10389   4.816   4.820   5.014
  103OSM   H16T10390   4.677   4.822   4.902
  103OSM   C17S10391   4.795   4.642   4.894
  103OSM   H17S10392   4.709   4.607   4.833
  103OSM   H17T10393   4.824   4.560   4.963
  103OSM   C18S10394   4.906   4.666   4.790
  103OSM   H18S10395   4.880   4.745   4.716
  103OSM   H18T10396   4.938   4.574   4.735
  103OSM   H18U10397   4.996   4.703   4.844
  103OSM    C1F10398   4.246   4.158   6.306
  103OSM     OF10399   4.135   4.199   6.331
  103OSM    C2F10400   4.270   4.026   6.242
  103OSM    H2F10401   4.226   3.945   6.304
  103OSM    H2G10402   4.379   4.009   6.232
  103OSM    C3F10403   4.224   4.022   6.098
  103OSM    H3F10404   4.114   4.021   6.113
  103OSM    H3G10405   4.265   3.924   6.067
  103OSM    C4F10406   4.279   4.133   6.007
  103OSM    H4F10407   4.389   4.138   6.022
  103OSM    H4G10408   4.234   4.231   6.034
  103OSM    C5F10409   4.237   4.112   5.867
  103OSM    H5F10410   4.278   4.018   5.823
  103OSM    H5G10411   4.273   4.193   5.801
  103OSM    C6F10412   4.086   4.113   5.851
  103OSM    H6F10413   4.038   4.163   5.938
  103OSM    H6G10414   4.041   4.012   5.856
  103OSM    C7F10415   4.044   4.173   5.706
  103OSM    H7F10416   4.098   4.267   5.680
  103OSM    H7G10417   3.943   4.210   5.731
  103OSM    C8F10418   4.040   4.062   5.597
  103OSM    H8F10419   3.960   4.085   5.523
  103OSM    H8G10420   3.998   3.975   5.651
  103OSM    C9F10421   4.170   4.036   5.537
  103OSM    H9F10422   4.221   3.952   5.587
  103OSM   C10F10423   4.202   4.090   5.414
  103OSM   H10F10424   4.300   4.066   5.370
  103OSM   C11F10425   4.119   4.185   5.335
  103OSM   H11F10426   4.027   4.215   5.389
  103OSM   H11G10427   4.087   4.130   5.244
  103OSM   C12F10428   4.199   4.315   5.307
  103OSM   H12F10429   4.236   4.348   5.406
  103OSM   H12G10430   4.123   4.381   5.259
  103OSM   C13F10431   4.324   4.300   5.209
  103OSM   H13F10432   4.390   4.234   5.268
  103OSM   H13G10433   4.368   4.402   5.202
  103OSM   C14F10434   4.264   4.255   5.080
  103OSM   H14F10435   4.179   4.322   5.056
  103OSM   H14G10436   4.218   4.156   5.100
  103OSM   C15F10437   4.356   4.240   4.961
  103OSM   H15F10438   4.316   4.191   4.870
  103OSM   H15G10439   4.439   4.171   4.990
  103OSM   C16F10440   4.415   4.370   4.905
  103OSM   H16F10441   4.502   4.330   4.848
  103OSM   H16G10442   4.458   4.434   4.984
  103OSM   C17F10443   4.311   4.442   4.814
  103OSM   H17F10444   4.234   4.493   4.875
  103OSM   H17G10445   4.264   4.369   4.745
  103OSM   C18F10446   4.387   4.553   4.724
  103OSM   H18F10447   4.313   4.616   4.671
  103OSM   H18G10448   4.455   4.502   4.651
  103OSM   H18H10449   4.439   4.618   4.798
  104OSM      N10450   5.844   3.002   7.342
  104OSM    C1510451   5.735   3.085   7.403
  104OSM   H15A10452   5.633   3.050   7.401
  104OSM   H15B10453   5.739   3.181   7.353
  104OSM   H15C10454   5.757   3.112   7.505
  104OSM    C1410455   5.805   2.974   7.203
  104OSM   H14A10456   5.721   2.907   7.190
  104OSM   H14B10457   5.892   2.933   7.155
  104OSM   H14C10458   5.792   3.055   7.133
  104OSM    C1310459   5.971   3.080   7.337
  104OSM   H13A10460   5.953   3.181   7.305
  104OSM   H13B10461   6.045   3.032   7.276
  104OSM   H13C10462   6.020   3.097   7.432
  104OSM    C1210463   5.857   2.866   7.418
  104OSM   H12A10464   5.878   2.901   7.518
  104OSM   H12B10465   5.949   2.821   7.382
  104OSM    C1110466   5.741   2.764   7.409
  104OSM   H11A10467   5.651   2.812   7.454
  104OSM   H11B10468   5.778   2.684   7.476
  104OSM      P10469   5.794   2.589   7.222
  104OSM    O1310470   5.940   2.591   7.250
  104OSM    O1410471   5.711   2.470   7.252
  104OSM    O1110472   5.789   2.614   7.064
  104OSM    O1210473   5.717   2.717   7.277
  104OSM    C1S10474   5.671   2.635   6.989
  104OSM    H1S10475   5.639   2.741   6.995
  104OSM    H1T10476   5.587   2.573   7.025
  104OSM     NF10477   5.604   2.673   6.749
  104OSM    HNF10478   5.536   2.620   6.700
  104OSM    C2S10479   5.697   2.607   6.839
  104OSM    H2S10480   5.793   2.654   6.811
  104OSM    C3S10481   5.717   2.450   6.807
  104OSM    H3S10482   5.622   2.399   6.834
  104OSM     O310483   5.813   2.392   6.894
  104OSM    HO310484   5.813   2.434   6.980
  104OSM    C4S10485   5.766   2.419   6.660
  104OSM    H4S10486   5.856   2.470   6.622
  104OSM    C5S10487   5.695   2.348   6.574
  104OSM    H5S10488   5.598   2.306   6.604
  104OSM    C6S10489   5.724   2.324   6.426
  104OSM    H6S10490   5.649   2.379   6.365
  104OSM    H6T10491   5.705   2.217   6.405
  104OSM    C7S10492   5.870   2.350   6.373
  104OSM    H7S10493   5.942   2.301   6.443
  104OSM    H7T10494   5.891   2.459   6.372
  104OSM    C8S10495   5.892   2.293   6.234
  104OSM    H8S10496   5.822   2.346   6.165
  104OSM    H8T10497   5.864   2.186   6.228
  104OSM    C9S10498   6.033   2.312   6.179
  104OSM    H9S10499   6.105   2.243   6.228
  104OSM    H9T10500   6.071   2.414   6.199
  104OSM   C10S10501   6.027   2.299   6.024
  104OSM   H10S10502   5.932   2.355   6.009
  104OSM   H10T10503   6.004   2.193   5.999
  104OSM   C11S10504   6.142   2.359   5.936
  104OSM   H11S10505   6.235   2.301   5.955
  104OSM   H11T10506   6.168   2.461   5.970
  104OSM   C12S10507   6.099   2.347   5.795
  104OSM   H12S10508   6.032   2.259   5.785
  104OSM   H12T10509   6.178   2.323   5.720
  104OSM   C13S10510   6.006   2.460   5.764
  104OSM   H13S10511   6.061   2.551   5.731
  104OSM   H13T10512   5.947   2.494   5.851
  104OSM   C14S10513   5.894   2.435   5.660
  104OSM   H14S10514   5.827   2.524   5.662
  104OSM   H14T10515   5.838   2.345   5.694
  104OSM   C15S10516   5.943   2.430   5.515
  104OSM   H15S10517   6.011   2.345   5.496
  104OSM   H15T10518   5.996   2.523   5.486
  104OSM   C16S10519   5.826   2.410   5.417
  104OSM   H16S10520   5.746   2.488   5.422
  104OSM   H16T10521   5.767   2.326   5.460
  104OSM   C17S10522   5.861   2.383   5.277
  104OSM   H17S10523   5.943   2.309   5.270
  104OSM   H17T10524   5.914   2.473   5.237
  104OSM   C18S10525   5.757   2.332   5.176
  104OSM   H18S10526   5.807   2.302   5.082
  104OSM   H18T10527   5.689   2.414   5.145
  104OSM   H18U10528   5.705   2.242   5.215
  104OSM    C1F10529   5.583   2.801   6.751
  104OSM     OF10530   5.652   2.879   6.819
  104OSM    C2F10531   5.467   2.853   6.669
  104OSM    H2F10532   5.402   2.905   6.742
  104OSM    H2G10533   5.398   2.773   6.636
  104OSM    C3F10534   5.526   2.930   6.544
  104OSM    H3F10535   5.591   2.861   6.487
  104OSM    H3G10536   5.587   3.018   6.575
  104OSM    C4F10537   5.413   2.970   6.447
  104OSM    H4F10538   5.351   3.045   6.503
  104OSM    H4G10539   5.353   2.879   6.431
  104OSM    C5F10540   5.452   3.040   6.319
  104OSM    H5F10541   5.530   2.993   6.256
  104OSM    H5G10542   5.489   3.143   6.337
  104OSM    C6F10543   5.328   3.056   6.230
  104OSM    H6F10544   5.258   3.124   6.283
  104OSM    H6G10545   5.274   2.960   6.224
  104OSM    C7F10546   5.358   3.110   6.097
  104OSM    H7F10547   5.452   3.068   6.055
  104OSM    H7G10548   5.384   3.218   6.099
  104OSM    C8F10549   5.242   3.081   6.000
  104OSM    H8F10550   5.158   3.111   6.066
  104OSM    H8G10551   5.232   2.973   5.979
  104OSM    C9F10552   5.254   3.163   5.877
  104OSM    H9F10553   5.236   3.270   5.895
  104OSM   C10F10554   5.273   3.127   5.752
  104OSM   H10F10555   5.274   3.205   5.675
  104OSM   C11F10556   5.309   2.981   5.712
  104OSM   H11F10557   5.304   2.901   5.789
  104OSM   H11G10558   5.413   2.991   5.673
  104OSM   C12F10559   5.221   2.934   5.595
  104OSM   H12F10560   5.115   2.943   5.629
  104OSM   H12G10561   5.239   2.827   5.574
  104OSM   C13F10562   5.247   3.013   5.463
  104OSM   H13F10563   5.357   3.016   5.447
  104OSM   H13G10564   5.207   3.116   5.464
  104OSM   C14F10565   5.189   2.954   5.333
  104OSM   H14F10566   5.085   2.937   5.366
  104OSM   H14G10567   5.240   2.856   5.326
  104OSM   C15F10568   5.197   3.051   5.212
  104OSM   H15F10569   5.302   3.086   5.201
  104OSM   H15G10570   5.126   3.136   5.223
  104OSM   C16F10571   5.171   2.979   5.079
  104OSM   H16F10572   5.063   2.963   5.058
  104OSM   H16G10573   5.212   2.876   5.090
  104OSM   C17F10574   5.255   3.049   4.966
  104OSM   H17F10575   5.362   3.059   4.994
  104OSM   H17G10576   5.211   3.151   4.962
  104OSM   C18F10577   5.242   2.983   4.827
  104OSM   H18F10578   5.135   2.973   4.798
  104OSM   H18G10579   5.279   2.878   4.825
  104OSM   H18H10580   5.283   3.043   4.743
  105OSM      N10581   5.532   3.413   6.731
  105OSM    C1510582   5.390   3.434   6.778
  105OSM   H15A10583   5.384   3.498   6.866
  105OSM   H15B10584   5.337   3.343   6.800
  105OSM   H15C10585   5.325   3.476   6.703
  105OSM    C1410586   5.609   3.363   6.852
  105OSM   H14A10587   5.715   3.376   6.831
  105OSM   H14B10588   5.576   3.264   6.876
  105OSM   H14C10589   5.590   3.422   6.940
  105OSM    C1310590   5.538   3.307   6.626
  105OSM   H13A10591   5.489   3.218   6.661
  105OSM   H13B10592   5.636   3.269   6.601
  105OSM   H13C10593   5.487   3.349   6.540
  105OSM    C1210594   5.596   3.543   6.683
  105OSM   H12A10595   5.581   3.613   6.764
  105OSM   H12B10596   5.541   3.581   6.599
  105OSM    C1110597   5.744   3.533   6.649
  105OSM   H11A10598   5.777   3.613   6.579
  105OSM   H11B10599   5.772   3.431   6.616
  105OSM      P10600   5.979   3.508   6.759
  105OSM    O1310601   6.078   3.576   6.844
  105OSM    O1410602   5.973   3.361   6.774
  105OSM    O1110603   6.013   3.555   6.611
  105OSM    O1210604   5.829   3.564   6.765
  105OSM    C1S10605   6.102   3.484   6.525
  105OSM    H1S10606   6.063   3.380   6.521
  105OSM    H1T10607   6.202   3.479   6.573
  105OSM     NF10608   6.199   3.483   6.293
  105OSM    HNF10609   6.266   3.533   6.239
  105OSM    C2S10610   6.097   3.552   6.382
  105OSM    H2S10611   5.996   3.544   6.337
  105OSM    C3S10612   6.124   3.713   6.406
  105OSM    H3S10613   6.225   3.732   6.449
  105OSM     O310614   6.029   3.779   6.497
  105OSM    HO310615   5.993   3.707   6.550
  105OSM    C4S10616   6.114   3.779   6.277
  105OSM    H4S10617   6.209   3.814   6.233
  105OSM    C5S10618   6.003   3.816   6.200
  105OSM    H5S10619   5.904   3.785   6.235
  105OSM    C6S10620   6.005   3.868   6.059
  105OSM    H6S10621   5.986   3.978   6.057
  105OSM    H6T10622   5.927   3.819   5.997
  105OSM    C7S10623   6.147   3.862   5.988
  105OSM    H7S10624   6.180   3.756   5.980
  105OSM    H7T10625   6.222   3.917   6.047
  105OSM    C8S10626   6.137   3.927   5.844
  105OSM    H8S10627   6.236   3.934   5.794
  105OSM    H8T10628   6.105   4.033   5.852
  105OSM    C9S10629   6.044   3.851   5.741
  105OSM    H9S10630   5.938   3.847   5.773
  105OSM    H9T10631   6.076   3.745   5.734
  105OSM   C10S10632   6.056   3.910   5.600
  105OSM   H10S10633   6.162   3.939   5.580
  105OSM   H10T10634   6.008   4.011   5.607
  105OSM   C11S10635   6.011   3.810   5.495
  105OSM   H11S10636   5.914   3.768   5.530
  105OSM   H11T10637   6.091   3.734   5.482
  105OSM   C12S10638   5.993   3.879   5.358
  105OSM   H12S10639   5.902   3.943   5.365
  105OSM   H12T10640   5.965   3.797   5.288
  105OSM   C13S10641   6.116   3.951   5.297
  105OSM   H13S10642   6.173   3.872   5.243
  105OSM   H13T10643   6.184   3.991   5.374
  105OSM   C14S10644   6.090   4.071   5.211
  105OSM   H14S10645   6.034   4.054   5.116
  105OSM   H14T10646   6.188   4.105   5.171
  105OSM   C15S10647   6.016   4.186   5.277
  105OSM   H15S10648   6.060   4.217   5.374
  105OSM   H15T10649   5.915   4.149   5.303
  105OSM   C16S10650   6.008   4.309   5.189
  105OSM   H16S10651   5.940   4.384   5.235
  105OSM   H16T10652   5.966   4.272   5.093
  105OSM   C17S10653   6.139   4.380   5.146
  105OSM   H17S10654   6.199   4.306   5.090
  105OSM   H17T10655   6.204   4.394   5.235
  105OSM   C18S10656   6.116   4.511   5.067
  105OSM   H18S10657   6.088   4.473   4.966
  105OSM   H18T10658   6.211   4.570   5.062
  105OSM   H18U10659   6.035   4.566   5.119
  105OSM    C1F10660   6.200   3.352   6.272
  105OSM     OF10661   6.111   3.275   6.317
  105OSM    C2F10662   6.331   3.305   6.212
  105OSM    H2F10663   6.393   3.251   6.287
  105OSM    H2G10664   6.383   3.397   6.177
  105OSM    C3F10665   6.301   3.209   6.093
  105OSM    H3F10666   6.232   3.129   6.129
  105OSM    H3G10667   6.398   3.161   6.065
  105OSM    C4F10668   6.229   3.269   5.970
  105OSM    H4F10669   6.146   3.328   6.016
  105OSM    H4G10670   6.174   3.188   5.918
  105OSM    C5F10671   6.317   3.349   5.880
  105OSM    H5F10672   6.394   3.281   5.837
  105OSM    H5G10673   6.375   3.417   5.946
  105OSM    C6F10674   6.250   3.420   5.765
  105OSM    H6F10675   6.313   3.504   5.729
  105OSM    H6G10676   6.155   3.470   5.793
  105OSM    C7F10677   6.223   3.332   5.638
  105OSM    H7F10678   6.150   3.250   5.657
  105OSM    H7G10679   6.318   3.283   5.605
  105OSM    C8F10680   6.177   3.419   5.518
  105OSM    H8F10681   6.246   3.506   5.523
  105OSM    H8G10682   6.083   3.472   5.547
  105OSM    C9F10683   6.167   3.342   5.398
  105OSM    H9F10684   6.102   3.253   5.403
  105OSM   C10F10685   6.246   3.350   5.288
  105OSM   H10F10686   6.223   3.282   5.205
  105OSM   C11F10687   6.352   3.461   5.264
  105OSM   H11F10688   6.440   3.413   5.216
  105OSM   H11G10689   6.389   3.503   5.360
  105OSM   C12F10690   6.307   3.575   5.180
  105OSM   H12F10691   6.400   3.635   5.170
  105OSM   H12G10692   6.243   3.635   5.247
  105OSM   C13F10693   6.245   3.557   5.036
  105OSM   H13F10694   6.183   3.465   5.036
  105OSM   H13G10695   6.334   3.531   4.973
  105OSM   C14F10696   6.167   3.674   4.981
  105OSM   H14F10697   6.225   3.768   4.990
  105OSM   H14G10698   6.073   3.679   5.041
  105OSM   C15F10699   6.132   3.668   4.832
  105OSM   H15F10700   6.092   3.569   4.799
  105OSM   H15G10701   6.222   3.677   4.768
  105OSM   C16F10702   6.041   3.773   4.775
  105OSM   H16F10703   6.024   3.757   4.667
  105OSM   H16G10704   6.085   3.874   4.783
  105OSM   C17F10705   5.898   3.775   4.836
  105OSM   H17F10706   5.842   3.853   4.780
  105OSM   H17G10707   5.912   3.805   4.942
  105OSM   C18F10708   5.814   3.638   4.843
  105OSM   H18F10709   5.862   3.572   4.919
  105OSM   H18G10710   5.806   3.587   4.745
  105OSM   H18H10711   5.715   3.659   4.889
  106OSM      N10712   4.374   1.278   6.966
  106OSM    C1510713   4.495   1.261   7.047
  106OSM   H15A10714   4.473   1.194   7.129
  106OSM   H15B10715   4.535   1.352   7.087
  106OSM   H15C10716   4.573   1.224   6.981
  106OSM    C1410717   4.319   1.147   6.907
  106OSM   H14A10718   4.394   1.112   6.837
  106OSM   H14B10719   4.245   1.174   6.834
  106OSM   H14C10720   4.287   1.069   6.975
  106OSM    C1310721   4.262   1.340   7.049
  106OSM   H13A10722   4.168   1.293   7.025
  106OSM   H13B10723   4.258   1.448   7.050
  106OSM   H13C10724   4.283   1.303   7.149
  106OSM    C1210725   4.399   1.378   6.857
  106OSM   H12A10726   4.442   1.469   6.896
  106OSM   H12B10727   4.303   1.405   6.814
  106OSM    C1110728   4.485   1.322   6.733
  106OSM   H11A10729   4.502   1.413   6.672
  106OSM   H11B10730   4.409   1.253   6.692
  106OSM      P10731   4.655   1.129   6.705
  106OSM    O1310732   4.782   1.086   6.762
  106OSM    O1410733   4.548   1.021   6.704
  106OSM    O1110734   4.685   1.184   6.562
  106OSM    O1210735   4.603   1.259   6.785
  106OSM    C1S10736   4.744   1.313   6.544
  106OSM    H1S10737   4.849   1.308   6.581
  106OSM    H1T10738   4.694   1.393   6.603
  106OSM     NF10739   4.810   1.490   6.371
  106OSM    HNF10740   4.757   1.572   6.387
  106OSM    C2S10741   4.741   1.363   6.394
  106OSM    H2S10742   4.789   1.278   6.342
  106OSM    C3S10743   4.594   1.364   6.337
  106OSM    H3S10744   4.529   1.444   6.378
  106OSM     O310745   4.528   1.240   6.365
  106OSM    HO310746   4.574   1.201   6.440
  106OSM    C4S10747   4.604   1.384   6.186
  106OSM    H4S10748   4.623   1.490   6.163
  106OSM    C5S10749   4.606   1.300   6.082
  106OSM    H5S10750   4.581   1.195   6.101
  106OSM    C6S10751   4.622   1.323   5.937
  106OSM    H6S10752   4.532   1.282   5.886
  106OSM    H6T10753   4.707   1.265   5.895
  106OSM    C7S10754   4.635   1.468   5.885
  106OSM    H7S10755   4.707   1.519   5.953
  106OSM    H7T10756   4.545   1.530   5.904
  106OSM    C8S10757   4.666   1.480   5.732
  106OSM    H8S10758   4.578   1.446   5.672
  106OSM    H8T10759   4.758   1.421   5.710
  106OSM    C9S10760   4.675   1.631   5.685
  106OSM    H9S10761   4.745   1.692   5.745
  106OSM    H9T10762   4.573   1.673   5.701
  106OSM   C10S10763   4.705   1.647   5.541
  106OSM   H10S10764   4.802   1.595   5.527
  106OSM   H10T10765   4.720   1.756   5.523
  106OSM   C11S10766   4.603   1.592   5.435
  106OSM   H11S10767   4.503   1.638   5.449
  106OSM   H11T10768   4.587   1.482   5.443
  106OSM   C12S10769   4.642   1.630   5.293
  106OSM   H12S10770   4.652   1.741   5.289
  106OSM   H12T10771   4.562   1.603   5.221
  106OSM   C13S10772   4.776   1.575   5.243
  106OSM   H13S10773   4.785   1.471   5.283
  106OSM   H13T10774   4.851   1.641   5.290
  106OSM   C14S10775   4.792   1.566   5.089
  106OSM   H14S10776   4.773   1.665   5.041
  106OSM   H14T10777   4.713   1.501   5.047
  106OSM   C15S10778   4.929   1.517   5.039
  106OSM   H15S10779   5.008   1.581   5.084
  106OSM   H15T10780   4.929   1.532   4.929
  106OSM   C16S10781   4.955   1.369   5.073
  106OSM   H16S10782   4.863   1.309   5.059
  106OSM   H16T10783   4.982   1.370   5.181
  106OSM   C17S10784   5.075   1.306   5.000
  106OSM   H17S10785   5.165   1.364   5.032
  106OSM   H17T10786   5.070   1.329   4.891
  106OSM   C18S10787   5.087   1.164   5.030
  106OSM   H18S10788   5.161   1.098   4.979
  106OSM   H18T10789   4.988   1.114   5.025
  106OSM   H18U10790   5.112   1.159   5.138
  106OSM    C1F10791   4.945   1.496   6.374
  106OSM     OF10792   5.022   1.401   6.378
  106OSM    C2F10793   5.007   1.633   6.376
  106OSM    H2F10794   5.065   1.645   6.470
  106OSM    H2G10795   4.929   1.712   6.381
  106OSM    C3F10796   5.112   1.657   6.261
  106OSM    H3F10797   5.197   1.585   6.266
  106OSM    H3G10798   5.156   1.758   6.271
  106OSM    C4F10799   5.048   1.633   6.116
  106OSM    H4F10800   4.992   1.722   6.079
  106OSM    H4G10801   4.989   1.539   6.120
  106OSM    C5F10802   5.161   1.610   6.017
  106OSM    H5F10803   5.186   1.502   6.009
  106OSM    H5G10804   5.250   1.663   6.056
  106OSM    C6F10805   5.135   1.660   5.873
  106OSM    H6F10806   5.124   1.770   5.876
  106OSM    H6G10807   5.037   1.621   5.840
  106OSM    C7F10808   5.255   1.607   5.794
  106OSM    H7F10809   5.252   1.496   5.786
  106OSM    H7G10810   5.352   1.629   5.843
  106OSM    C8F10811   5.265   1.661   5.644
  106OSM    H8F10812   5.360   1.622   5.603
  106OSM    H8G10813   5.293   1.768   5.647
  106OSM    C9F10814   5.138   1.655   5.565
  106OSM    H9F10815   5.050   1.623   5.623
  106OSM   C10F10816   5.127   1.681   5.433
  106OSM   H10F10817   5.025   1.679   5.393
  106OSM   C11F10818   5.229   1.742   5.336
  106OSM   H11F10819   5.316   1.782   5.393
  106OSM   H11G10820   5.169   1.823   5.289
  106OSM   C12F10821   5.282   1.638   5.240
  106OSM   H12F10822   5.205   1.605   5.168
  106OSM   H12G10823   5.331   1.560   5.303
  106OSM   C13F10824   5.394   1.693   5.157
  106OSM   H13F10825   5.474   1.616   5.152
  106OSM   H13G10826   5.436   1.786   5.203
  106OSM   C14F10827   5.346   1.734   5.016
  106OSM   H14F10828   5.405   1.822   4.981
  106OSM   H14G10829   5.243   1.773   5.030
  106OSM   C15F10830   5.344   1.627   4.915
  106OSM   H15F10831   5.299   1.537   4.960
  106OSM   H15G10832   5.450   1.598   4.894
  106OSM   C16F10833   5.257   1.665   4.791
  106OSM   H16F10834   5.295   1.757   4.741
  106OSM   H16G10835   5.155   1.695   4.821
  106OSM   C17F10836   5.251   1.548   4.690
  106OSM   H17F10837   5.202   1.459   4.736
  106OSM   H17G10838   5.351   1.507   4.663
  106OSM   C18F10839   5.174   1.592   4.570
  106OSM   H18F10840   5.222   1.678   4.520
  106OSM   H18G10841   5.074   1.624   4.608
  106OSM   H18H10842   5.172   1.507   4.498
  107OSM      N10843   3.944   6.008   6.958
  107OSM    C1510844   3.873   6.010   7.089
  107OSM   H15A10845   3.792   6.080   7.096
  107OSM   H15B10846   3.940   6.021   7.173
  107OSM   H15C10847   3.827   5.916   7.115
  107OSM    C1410848   4.016   6.135   6.932
  107OSM   H14A10849   4.071   6.137   6.839
  107OSM   H14B10850   4.084   6.154   7.013
  107OSM   H14C10851   3.948   6.218   6.926
  107OSM    C1310852   4.041   5.893   6.964
  107OSM   H13A10853   4.115   5.904   7.042
  107OSM   H13B10854   4.099   5.891   6.873
  107OSM   H13C10855   3.984   5.802   6.970
  107OSM    C1210856   3.845   5.987   6.846
  107OSM   H12A10857   3.761   6.055   6.857
  107OSM   H12B10858   3.803   5.888   6.856
  107OSM    C1110859   3.890   5.992   6.700
  107OSM   H11A10860   3.810   5.947   6.636
  107OSM   H11B10861   3.969   5.916   6.682
  107OSM      P10862   4.028   6.144   6.555
  107OSM    O1310863   4.016   6.278   6.498
  107OSM    O1410864   4.162   6.120   6.613
  107OSM    O1110865   3.994   6.036   6.444
  107OSM    O1210866   3.917   6.129   6.664
  107OSM    C1S10867   3.905   6.074   6.333
  107OSM    H1S10868   3.942   6.165   6.281
  107OSM    H1T10869   3.801   6.084   6.369
  107OSM     NF10870   3.840   6.001   6.101
  107OSM    HNF10871   3.763   5.940   6.083
  107OSM    C2S10872   3.908   5.960   6.221
  107OSM    H2S10873   4.016   5.949   6.199
  107OSM    C3S10874   3.869   5.825   6.280
  107OSM    H3S10875   3.761   5.832   6.309
  107OSM     O310876   3.926   5.791   6.401
  107OSM    HO310877   3.979   5.870   6.416
  107OSM    C4S10878   3.900   5.712   6.180
  107OSM    H4S10879   4.004   5.717   6.142
  107OSM    C5S10880   3.811   5.628   6.116
  107OSM    H5S10881   3.704   5.650   6.128
  107OSM    C6S10882   3.839   5.531   6.011
  107OSM    H6S10883   3.799   5.429   6.029
  107OSM    H6T10884   3.950   5.527   6.006
  107OSM    C7S10885   3.779   5.566   5.869
  107OSM    H7S10886   3.668   5.558   5.864
  107OSM    H7T10887   3.826   5.506   5.788
  107OSM    C8S10888   3.809   5.706   5.825
  107OSM    H8S10889   3.918   5.731   5.826
  107OSM    H8T10890   3.752   5.762   5.901
  107OSM    C9S10891   3.752   5.751   5.689
  107OSM    H9S10892   3.780   5.858   5.675
  107OSM    H9T10893   3.643   5.734   5.680
  107OSM   C10S10894   3.808   5.669   5.572
  107OSM   H10S10895   3.769   5.566   5.581
  107OSM   H10T10896   3.919   5.666   5.584
  107OSM   C11S10897   3.761   5.733   5.442
  107OSM   H11S10898   3.797   5.837   5.456
  107OSM   H11T10899   3.650   5.739   5.438
  107OSM   C12S10900   3.819   5.675   5.310
  107OSM   H12S10901   3.792   5.567   5.302
  107OSM   H12T10902   3.930   5.685   5.317
  107OSM   C13S10903   3.752   5.745   5.184
  107OSM   H13S10904   3.789   5.850   5.182
  107OSM   H13T10905   3.641   5.743   5.182
  107OSM   C14S10906   3.794   5.676   5.053
  107OSM   H14S10907   3.750   5.574   5.049
  107OSM   H14T10908   3.903   5.658   5.049
  107OSM   C15S10909   3.747   5.751   4.931
  107OSM   H15S10910   3.753   5.861   4.949
  107OSM   H15T10911   3.636   5.756   4.928
  107OSM   C16S10912   3.808   5.704   4.797
  107OSM   H16S10913   3.750   5.611   4.779
  107OSM   H16T10914   3.916   5.680   4.800
  107OSM   C17S10915   3.768   5.794   4.677
  107OSM   H17S10916   3.661   5.779   4.653
  107OSM   H17T10917   3.824   5.761   4.586
  107OSM   C18S10918   3.805   5.939   4.702
  107OSM   H18S10919   3.908   5.948   4.743
  107OSM   H18T10920   3.738   5.989   4.776
  107OSM   H18U10921   3.800   6.007   4.614
  107OSM    C1F10922   3.888   6.096   6.015
  107OSM     OF10923   4.004   6.140   6.023
  107OSM    C2F10924   3.805   6.122   5.898
  107OSM    H2F10925   3.697   6.125   5.924
  107OSM    H2G10926   3.815   6.034   5.831
  107OSM    C3F10927   3.850   6.251   5.827
  107OSM    H3F10928   3.953   6.232   5.790
  107OSM    H3G10929   3.845   6.332   5.902
  107OSM    C4F10930   3.751   6.285   5.710
  107OSM    H4F10931   3.784   6.372   5.651
  107OSM    H4G10932   3.651   6.297   5.757
  107OSM    C5F10933   3.737   6.175   5.602
  107OSM    H5F10934   3.712   6.075   5.642
  107OSM    H5G10935   3.841   6.159   5.568
  107OSM    C6F10936   3.657   6.199   5.470
  107OSM    H6F10937   3.669   6.306   5.443
  107OSM    H6G10938   3.548   6.183   5.480
  107OSM    C7F10939   3.704   6.112   5.355
  107OSM    H7F10940   3.675   6.005   5.364
  107OSM    H7G10941   3.814   6.115   5.346
  107OSM    C8F10942   3.652   6.148   5.218
  107OSM    H8F10943   3.542   6.147   5.229
  107OSM    H8G10944   3.691   6.074   5.145
  107OSM    C9F10945   3.705   6.283   5.160
  107OSM    H9F10946   3.814   6.296   5.162
  107OSM   C10F10947   3.628   6.383   5.109
  107OSM   H10F10948   3.680   6.477   5.085
  107OSM   C11F10949   3.480   6.382   5.079
  107OSM   H11F10950   3.412   6.405   5.164
  107OSM   H11G10951   3.459   6.278   5.046
  107OSM   C12F10952   3.442   6.464   4.956
  107OSM   H12F10953   3.338   6.448   4.922
  107OSM   H12G10954   3.506   6.417   4.879
  107OSM   C13F10955   3.460   6.615   4.967
  107OSM   H13F10956   3.564   6.648   4.989
  107OSM   H13G10957   3.389   6.649   5.045
  107OSM   C14F10958   3.428   6.698   4.843
  107OSM   H14F10959   3.358   6.649   4.772
  107OSM   H14G10960   3.522   6.707   4.785
  107OSM   C15F10961   3.365   0.018   4.864
  107OSM   H15F10962   3.423   0.071   4.942
  107OSM   H15G10963   3.263   0.008   4.908
  107OSM   C16F10964   3.374   0.102   4.739
  107OSM   H16F10965   3.328   0.050   4.653
  107OSM   H16G10966   3.484   0.102   4.722
  107OSM   C17F10967   3.325   0.234   4.758
  107OSM   H17F10968   3.218   0.242   4.786
  107OSM   H17G10969   3.334   0.282   4.658
  107OSM   C18F10970   3.417   0.317   4.847
  107OSM   H18F10971   3.515   0.343   4.802
  107OSM   H18G10972   3.432   0.263   4.943
  107OSM   H18H10973   3.370   0.413   4.877
  108OSM      N10974   6.150   5.589   6.977
  108OSM    C1510975   6.022   5.623   7.048
  108OSM   H15A10976   6.005   5.563   7.137
  108OSM   H15B10977   5.936   5.603   6.986
  108OSM   H15C10978   6.020   5.729   7.070
  108OSM    C1410979   6.265   5.594   7.074
  108OSM   H14A10980   6.363   5.579   7.032
  108OSM   H14B10981   6.256   5.521   7.154
  108OSM   H14C10982   6.275   5.694   7.111
  108OSM    C1310983   6.130   5.449   6.918
  108OSM   H13A10984   6.046   5.447   6.850
  108OSM   H13B10985   6.111   5.383   7.001
  108OSM   H13C10986   6.220   5.415   6.870
  108OSM    C1210987   6.176   5.684   6.871
  108OSM   H12A10988   6.190   5.780   6.919
  108OSM   H12B10989   6.089   5.699   6.809
  108OSM    C1110990   6.307   5.666   6.793
  108OSM   H11A10991   6.290   5.720   6.698
  108OSM   H11B10992   6.312   5.559   6.762
  108OSM      P10993   6.557   5.631   6.864
  108OSM    O1310994   6.671   5.711   6.929
  108OSM    O1410995   6.532   5.499   6.918
  108OSM    O1110996   6.586   5.627   6.706
  108OSM    O1210997   6.417   5.707   6.872
  108OSM    C1S10998   6.583   5.753   6.637
  108OSM    H1S10999   6.657   5.823   6.681
  108OSM    H1T11000   6.484   5.803   6.646
  108OSM     NF11001   6.580   5.861   6.416
  108OSM    HNF11002   6.508   5.869   6.348
  108OSM    C2S11003   6.599   5.729   6.487
  108OSM    H2S11004   6.705   5.701   6.473
  108OSM    C3S11005   6.514   5.623   6.424
  108OSM    H3S11006   6.415   5.672   6.415
  108OSM     O311007   6.485   5.508   6.494
  108OSM    HO311008   6.520   5.520   6.583
  108OSM    C4S11009   6.563   5.590   6.285
  108OSM    H4S11010   6.506   5.658   6.220
  108OSM    C5S11011   6.665   5.514   6.240
  108OSM    H5S11012   6.727   5.453   6.307
  108OSM    C6S11013   6.712   5.514   6.090
  108OSM    H6S11014   6.793   5.441   6.069
  108OSM    H6T11015   6.752   5.616   6.073
  108OSM    C7S11016   6.591   5.499   5.997
  108OSM    H7S11017   6.545   5.601   5.996
  108OSM    H7T11018   6.517   5.422   6.026
  108OSM    C8S11019   6.640   5.477   5.856
  108OSM    H8S11020   6.693   5.379   5.852
  108OSM    H8T11021   6.718   5.553   5.834
  108OSM    C9S11022   6.527   5.498   5.746
  108OSM    H9S11023   6.476   5.593   5.773
  108OSM    H9T11024   6.457   5.411   5.750
  108OSM   C10S11025   6.576   5.509   5.601
  108OSM   H10S11026   6.670   5.567   5.606
  108OSM   H10T11027   6.500   5.561   5.538
  108OSM   C11S11028   6.613   5.369   5.549
  108OSM   H11S11029   6.515   5.318   5.545
  108OSM   H11T11030   6.679   5.314   5.620
  108OSM   C12S11031   6.673   5.373   5.405
  108OSM   H12S11032   6.731   5.279   5.393
  108OSM   H12T11033   6.754   5.449   5.406
  108OSM   C13S11034   6.582   5.400   5.290
  108OSM   H13S11035   6.550   5.506   5.294
  108OSM   H13T11036   6.496   5.329   5.296
  108OSM   C14S11037   6.655   5.373   5.157
  108OSM   H14S11038   6.682   5.266   5.155
  108OSM   H14T11039   6.745   5.437   5.164
  108OSM   C15S11040   6.568   5.421   5.043
  108OSM   H15S11041   6.556   5.529   5.065
  108OSM   H15T11042   6.470   5.375   5.068
  108OSM   C16S11043   6.613   5.381   4.902
  108OSM   H16S11044   6.572   5.450   4.826
  108OSM   H16T11045   6.576   5.278   4.887
  108OSM   C17S11046   6.766   5.369   4.867
  108OSM   H17S11047   6.807   5.269   4.893
  108OSM   H17T11048   0.002   5.451   4.911
  108OSM   C18S11049   6.756   5.382   4.711
  108OSM   H18S11050   0.029   5.368   4.661
  108OSM   H18T11051   6.721   5.485   4.692
  108OSM   H18U11052   6.676   5.314   4.674
  108OSM    C1F11053   6.680   5.946   6.421
  108OSM     OF11054   6.760   5.952   6.515
  108OSM    C2F11055   6.687   6.048   6.311
  108OSM    H2F11056   6.676   6.152   6.347
  108OSM    H2G11057   6.609   6.023   6.234
  108OSM    C3F11058   0.001   6.033   6.235
  108OSM    H3F11059   0.082   6.017   6.311
  108OSM    H3G11060   0.027   6.124   6.179
  108OSM    C4F11061   6.824   5.931   6.117
  108OSM    H4F11062   0.004   5.825   6.150
  108OSM    H4G11063   0.102   5.946   6.077
  108OSM    C5F11064   6.717   5.972   6.013
  108OSM    H5F11065   6.743   6.076   5.985
  108OSM    H5G11066   6.615   5.966   6.056
  108OSM    C6F11067   6.724   5.879   5.889
  108OSM    H6F11068   6.647   5.916   5.818
  108OSM    H6G11069   6.691   5.779   5.922
  108OSM    C7F11070   0.043   5.867   5.839
  108OSM    H7F11071   0.101   5.801   5.906
  108OSM    H7G11072   0.095   5.966   5.840
  108OSM    C8F11073   0.040   5.815   5.696
  108OSM    H8F11074   6.793   5.865   5.628
  108OSM    H8G11075   6.820   5.713   5.701
  108OSM    C9F11076   0.176   5.808   5.629
  108OSM    H9F11077   0.263   5.796   5.695
  108OSM   C10F11078   0.205   5.811   5.495
  108OSM   H10F11079   0.307   5.794   5.457
  108OSM   C11F11080   0.098   5.838   5.389
  108OSM   H11F11081   0.025   5.904   5.441
  108OSM   H11G11082   0.048   5.746   5.354
  108OSM   C12F11083   0.156   5.908   5.265
  108OSM   H12F11084   0.216   6.000   5.286
  108OSM   H12G11085   0.079   5.956   5.201
  108OSM   C13F11086   0.237   5.818   5.175
  108OSM   H13F11087   0.170   5.747   5.122
  108OSM   H13G11088   0.307   5.764   5.243
  108OSM   C14F11089   0.320   5.901   5.081
  108OSM   H14F11090   0.370   5.977   5.145
  108OSM   H14G11091   0.242   5.944   5.014
  108OSM   C15F11092   0.420   5.823   5.001
  108OSM   H15F11093   0.511   5.796   5.059
  108OSM   H15G11094   0.452   5.897   4.925
  108OSM   C16F11095   0.362   5.699   4.928
  108OSM   H16F11096   0.286   5.728   4.852
  108OSM   H16G11097   0.314   5.626   4.997
  108OSM   C17F11098   0.473   5.632   4.839
  108OSM   H17F11099   0.435   5.540   4.791
  108OSM   H17G11100   0.557   5.604   4.906
  108OSM   C18F11101   0.532   5.729   4.738
  108OSM   H18F11102   0.597   5.681   4.661
  108OSM   H18G11103   0.595   5.812   4.776
  108OSM   H18H11104   0.447   5.774   4.683
  109OSM      N11105   3.137   2.715   6.578
  109OSM    C1511106   3.022   2.655   6.651
  109OSM   H15A11107   3.045   2.551   6.667
  109OSM   H15B11108   2.929   2.646   6.598
  109OSM   H15C11109   3.002   2.704   6.745
  109OSM    C1411110   3.196   2.633   6.460
  109OSM   H14A11111   3.240   2.538   6.486
  109OSM   H14B11112   3.269   2.683   6.397
  109OSM   H14C11113   3.112   2.616   6.395
  109OSM    C1311114   3.095   2.847   6.532
  109OSM   H13A11115   3.185   2.902   6.507
  109OSM   H13B11116   3.045   2.891   6.616
  109OSM   H13C11117   3.031   2.847   6.445
  109OSM    C1211118   3.250   2.736   6.681
  109OSM   H12A11119   3.216   2.816   6.745
  109OSM   H12B11120   3.327   2.776   6.617
  109OSM    C1111121   3.305   2.614   6.755
  109OSM   H11A11122   3.369   2.654   6.836
  109OSM   H11B11123   3.357   2.559   6.674
  109OSM      P11124   3.234   2.394   6.863
  109OSM    O1311125   3.359   2.388   6.951
  109OSM    O1411126   3.112   2.321   6.911
  109OSM    O1111127   3.279   2.346   6.711
  109OSM    O1211128   3.201   2.543   6.833
  109OSM    C1S11129   3.238   2.215   6.670
  109OSM    H1S11130   3.130   2.194   6.682
  109OSM    H1T11131   3.299   2.133   6.714
  109OSM     NF11132   3.253   2.037   6.499
  109OSM    HNF11133   3.337   1.983   6.488
  109OSM    C2S11134   3.264   2.182   6.515
  109OSM    H2S11135   3.179   2.231   6.465
  109OSM    C3S11136   3.402   2.233   6.468
  109OSM    H3S11137   3.470   2.169   6.528
  109OSM     O311138   3.440   2.364   6.500
  109OSM    HO311139   3.398   2.376   6.586
  109OSM    C4S11140   3.405   2.200   6.320
  109OSM    H4S11141   3.440   2.100   6.292
  109OSM    C5S11142   3.364   2.273   6.219
  109OSM    H5S11143   3.325   2.375   6.234
  109OSM    C6S11144   3.359   2.229   6.080
  109OSM    H6S11145   3.422   2.299   6.021
  109OSM    H6T11146   3.257   2.238   6.036
  109OSM    C7S11147   3.427   2.093   6.050
  109OSM    H7S11148   3.361   2.015   6.094
  109OSM    H7T11149   3.524   2.097   6.105
  109OSM    C8S11150   3.457   2.059   5.911
  109OSM    H8S11151   3.469   1.949   5.902
  109OSM    H8T11152   3.544   2.116   5.874
  109OSM    C9S11153   3.336   2.096   5.817
  109OSM    H9S11154   3.335   2.207   5.808
  109OSM    H9T11155   3.240   2.066   5.865
  109OSM   C10S11156   3.342   2.042   5.676
  109OSM   H10S11157   3.239   2.025   5.639
  109OSM   H10T11158   3.403   1.948   5.682
  109OSM   C11S11159   3.393   2.138   5.562
  109OSM   H11S11160   3.498   2.169   5.577
  109OSM   H11T11161   3.325   2.226   5.552
  109OSM   C12S11162   3.395   2.073   5.426
  109OSM   H12S11163   3.293   2.028   5.418
  109OSM   H12T11164   3.466   1.988   5.415
  109OSM   C13S11165   3.406   2.162   5.305
  109OSM   H13S11166   3.503   2.216   5.313
  109OSM   H13T11167   3.315   2.226   5.310
  109OSM   C14S11168   3.406   2.087   5.171
  109OSM   H14S11169   3.323   2.014   5.166
  109OSM   H14T11170   3.512   2.056   5.168
  109OSM   C15S11171   3.397   2.198   5.058
  109OSM   H15S11172   3.467   2.277   5.094
  109OSM   H15T11173   3.295   2.242   5.060
  109OSM   C16S11174   3.435   2.151   4.916
  109OSM   H16S11175   3.530   2.095   4.919
  109OSM   H16T11176   3.466   2.237   4.853
  109OSM   C17S11177   3.330   2.072   4.840
  109OSM   H17S11178   3.229   2.118   4.847
  109OSM   H17T11179   3.326   1.971   4.884
  109OSM   C18S11180   3.370   2.047   4.694
  109OSM   H18S11181   3.363   2.148   4.648
  109OSM   H18T11182   3.298   1.980   4.642
  109OSM   H18U11183   3.470   2.001   4.681
  109OSM    C1F11184   3.131   1.972   6.496
  109OSM     OF11185   3.019   2.024   6.501
  109OSM    C2F11186   3.146   1.820   6.483
  109OSM    H2F11187   3.106   1.771   6.574
  109OSM    H2G11188   3.249   1.779   6.471
  109OSM    C3F11189   3.059   1.774   6.366
  109OSM    H3F11190   2.953   1.806   6.368
  109OSM    H3G11191   3.054   1.663   6.370
  109OSM    C4F11192   3.124   1.804   6.224
  109OSM    H4F11193   3.216   1.743   6.210
  109OSM    H4G11194   3.155   1.911   6.216
  109OSM    C5F11195   3.016   1.778   6.123
  109OSM    H5F11196   2.922   1.817   6.166
  109OSM    H5G11197   3.005   1.670   6.100
  109OSM    C6F11198   3.038   1.863   5.997
  109OSM    H6F11199   3.072   1.965   6.024
  109OSM    H6G11200   2.944   1.884   5.941
  109OSM    C7F11201   3.137   1.793   5.894
  109OSM    H7F11202   3.229   1.767   5.950
  109OSM    H7G11203   3.163   1.868   5.816
  109OSM    C8F11204   3.076   1.670   5.819
  109OSM    H8F11205   3.068   1.584   5.889
  109OSM    H8G11206   3.152   1.640   5.743
  109OSM    C9F11207   2.941   1.701   5.762
  109OSM    H9F11208   2.853   1.696   5.828
  109OSM   C10F11209   2.921   1.729   5.633
  109OSM   H10F11210   2.819   1.743   5.594
  109OSM   C11F11211   3.021   1.740   5.523
  109OSM   H11F11212   2.997   1.666   5.443
  109OSM   H11G11213   3.128   1.725   5.549
  109OSM   C12F11214   3.004   1.879   5.449
  109OSM   H12F11215   3.057   1.968   5.489
  109OSM   H12G11216   2.897   1.908   5.446
  109OSM   C13F11217   3.056   1.872   5.312
  109OSM   H13F11218   3.001   1.794   5.254
  109OSM   H13G11219   3.166   1.857   5.309
  109OSM   C14F11220   3.014   2.011   5.252
  109OSM   H14F11221   3.086   2.086   5.291
  109OSM   H14G11222   2.914   2.051   5.280
  109OSM   C15F11223   3.030   2.012   5.098
  109OSM   H15F11224   2.989   1.920   5.052
  109OSM   H15G11225   3.139   2.003   5.075
  109OSM   C16F11226   2.974   2.139   5.024
  109OSM   H16F11227   2.996   2.129   4.916
  109OSM   H16G11228   3.019   2.227   5.074
  109OSM   C17F11229   2.821   2.159   5.037
  109OSM   H17F11230   2.794   2.258   4.993
  109OSM   H17G11231   2.804   2.171   5.146
  109OSM   C18F11232   2.738   2.044   4.970
  109OSM   H18F11233   2.763   1.951   5.024
  109OSM   H18G11234   2.769   2.031   4.864
  109OSM   H18H11235   2.628   2.060   4.977
  110OSM      N11236   4.985   5.579   6.568
  110OSM    C1511237   5.058   5.571   6.692
  110OSM   H15A11238   5.109   5.477   6.703
  110OSM   H15B11239   5.010   5.586   6.788
  110OSM   H15C11240   5.115   5.663   6.692
  110OSM    C1411241   5.075   5.528   6.459
  110OSM   H14A11242   5.096   5.423   6.468
  110OSM   H14B11243   5.170   5.581   6.456
  110OSM   H14C11244   5.023   5.539   6.365
  110OSM    C1311245   4.869   5.485   6.582
  110OSM   H13A11246   4.896   5.385   6.614
  110OSM   H13B11247   4.822   5.479   6.485
  110OSM   H13C11248   4.790   5.519   6.647
  110OSM    C1211249   4.937   5.722   6.546
  110OSM   H12A11250   4.872   5.757   6.625
  110OSM   H12B11251   4.880   5.719   6.453
  110OSM    C1111252   5.045   5.827   6.516
  110OSM   H11A11253   4.998   5.922   6.483
  110OSM   H11B11254   5.092   5.795   6.420
  110OSM      P11255   5.283   5.879   6.623
  110OSM    O1311256   5.308   6.024   6.644
  110OSM    O1411257   5.342   5.781   6.714
  110OSM    O1111258   5.332   5.838   6.479
  110OSM    O1211259   5.129   5.857   6.629
  110OSM    C1S11260   5.346   5.938   6.380
  110OSM    H1S11261   5.413   6.021   6.410
  110OSM    H1T11262   5.247   5.978   6.350
  110OSM     NF11263   5.417   5.987   6.152
  110OSM    HNF11264   5.344   5.999   6.085
  110OSM    C2S11265   5.407   5.876   6.249
  110OSM    H2S11266   5.508   5.838   6.276
  110OSM    C3S11267   5.316   5.760   6.198
  110OSM    H3S11268   5.209   5.786   6.191
  110OSM     O311269   5.318   5.656   6.290
  110OSM    HO311270   5.348   5.703   6.368
  110OSM    C4S11271   5.362   5.697   6.068
  110OSM    H4S11272   5.464   5.654   6.070
  110OSM    C5S11273   5.283   5.698   5.954
  110OSM    H5S11274   5.181   5.740   5.960
  110OSM    C6S11275   5.318   5.649   5.821
  110OSM    H6S11276   5.291   5.542   5.817
  110OSM    H6T11277   5.418   5.684   5.789
  110OSM    C7S11278   5.225   5.712   5.708
  110OSM    H7S11279   5.120   5.693   5.741
  110OSM    H7T11280   5.233   5.659   5.611
  110OSM    C8S11281   5.253   5.855   5.684
  110OSM    H8S11282   5.360   5.883   5.669
  110OSM    H8T11283   5.212   5.914   5.769
  110OSM    C9S11284   5.188   5.911   5.555
  110OSM    H9S11285   5.098   5.850   5.530
  110OSM    H9T11286   5.236   5.905   5.455
  110OSM   C10S11287   5.149   6.052   5.572
  110OSM   H10S11288   5.237   6.111   5.604
  110OSM   H10T11289   5.064   6.054   5.643
  110OSM   C11S11290   5.099   6.114   5.439
  110OSM   H11S11291   5.025   6.050   5.387
  110OSM   H11T11292   5.176   6.117   5.359
  110OSM   C12S11293   5.036   6.258   5.446
  110OSM   H12S11294   5.111   6.324   5.496
  110OSM   H12T11295   4.947   6.252   5.511
  110OSM   C13S11296   5.009   6.322   5.308
  110OSM   H13S11297   4.929   6.261   5.262
  110OSM   H13T11298   5.098   6.310   5.242
  110OSM   C14S11299   4.966   6.467   5.330
  110OSM   H14S11300   5.005   6.537   5.254
  110OSM   H14T11301   5.013   6.510   5.421
  110OSM   C15S11302   4.814   6.493   5.329
  110OSM   H15S11303   4.761   6.429   5.403
  110OSM   H15T11304   4.755   6.478   5.237
  110OSM   C16S11305   4.771   6.640   5.385
  110OSM   H16S11306   4.799   6.645   5.493
  110OSM   H16T11307   4.662   6.651   5.369
  110OSM   C17S11308   4.834   6.762   5.313
  110OSM   H17S11309   4.796   6.743   5.210
  110OSM   H17T11310   4.944   6.776   5.315
  110OSM   C18S11311   4.766   0.068   5.357
  110OSM   H18S11312   4.813   0.153   5.304
  110OSM   H18T11313   4.766   0.076   5.468
  110OSM   H18U11314   4.658   0.056   5.335
  110OSM    C1F11315   5.516   6.079   6.150
  110OSM     OF11316   5.608   6.077   6.235
  110OSM    C2F11317   5.517   6.186   6.044
  110OSM    H2F11318   5.468   6.271   6.095
  110OSM    H2G11319   5.449   6.163   5.959
  110OSM    C3F11320   5.649   6.239   5.996
  110OSM    H3F11321   5.732   6.176   5.958
  110OSM    H3G11322   5.695   6.289   6.084
  110OSM    C4F11323   5.629   6.365   5.903
  110OSM    H4F11324   5.719   6.426   5.924
  110OSM    H4G11325   5.535   6.424   5.908
  110OSM    C5F11326   5.641   6.323   5.759
  110OSM    H5F11327   5.570   6.239   5.738
  110OSM    H5G11328   5.742   6.289   5.727
  110OSM    C6F11329   5.594   6.439   5.660
  110OSM    H6F11330   5.686   6.500   5.655
  110OSM    H6G11331   5.519   6.509   5.705
  110OSM    C7F11332   5.547   6.399   5.518
  110OSM    H7F11333   5.439   6.374   5.531
  110OSM    H7G11334   5.598   6.305   5.489
  110OSM    C8F11335   5.567   6.502   5.409
  110OSM    H8F11336   5.565   6.447   5.312
  110OSM    H8G11337   5.669   6.547   5.415
  110OSM    C9F11338   5.471   6.619   5.419
  110OSM    H9F11339   5.462   6.658   5.521
  110OSM   C10F11340   5.399   6.683   5.325
  110OSM   H10F11341   5.332   6.763   5.360
  110OSM   C11F11342   5.401   6.652   5.172
  110OSM   H11F11343   5.480   6.576   5.153
  110OSM   H11G11344   5.413   6.752   5.125
  110OSM   C12F11345   5.261   6.598   5.130
  110OSM   H12F11346   5.178   6.661   5.170
  110OSM   H12G11347   5.248   6.497   5.175
  110OSM   C13F11348   5.242   6.568   4.979
  110OSM   H13F11349   5.333   6.526   4.929
  110OSM   H13G11350   5.211   6.653   4.915
  110OSM   C14F11351   5.137   6.450   4.953
  110OSM   H14F11352   5.043   6.457   5.013
  110OSM   H14G11353   5.186   6.354   4.979
  110OSM   C15F11354   5.102   6.452   4.802
  110OSM   H15F11355   5.178   6.400   4.740
  110OSM   H15G11356   5.095   6.559   4.776
  110OSM   C16F11357   4.964   6.384   4.782
  110OSM   H16F11358   4.910   6.409   4.875
  110OSM   H16G11359   4.975   6.276   4.756
  110OSM   C17F11360   4.879   6.447   4.667
  110OSM   H17F11361   4.859   6.552   4.698
  110OSM   H17G11362   4.779   6.399   4.666
  110OSM   C18F11363   4.934   6.457   4.523
  110OSM   H18F11364   4.870   6.522   4.460
  110OSM   H18G11365   4.969   6.358   4.486
  110OSM   H18H11366   5.024   6.521   4.533
  111OSM      N11367   1.272   3.370   6.730
  111OSM    C1511368   1.341   3.245   6.777
  111OSM   H15A11369   1.425   3.217   6.716
  111OSM   H15B11370   1.264   3.170   6.783
  111OSM   H15C11371   1.380   3.259   6.877
  111OSM    C1411372   1.183   3.415   6.850
  111OSM   H14A11373   1.120   3.499   6.825
  111OSM   H14B11374   1.243   3.439   6.936
  111OSM   H14C11375   1.120   3.331   6.877
  111OSM    C1311376   1.369   3.487   6.705
  111OSM   H13A11377   1.431   3.493   6.793
  111OSM   H13B11378   1.322   3.583   6.688
  111OSM   H13C11379   1.435   3.453   6.627
  111OSM    C1211380   1.196   3.339   6.608
  111OSM   H12A11381   1.108   3.286   6.641
  111OSM   H12B11382   1.253   3.267   6.550
  111OSM    C1111383   1.146   3.458   6.516
  111OSM   H11A11384   1.107   3.416   6.421
  111OSM   H11B11385   1.237   3.510   6.478
  111OSM      P11386   0.906   3.542   6.567
  111OSM    O1311387   0.853   3.403   6.547
  111OSM    O1411388   0.836   3.614   6.676
  111OSM    O1111389   0.893   3.627   6.435
  111OSM    O1211390   1.059   3.541   6.594
  111OSM    C1S11391   0.986   3.740   6.430
  111OSM    H1S11392   1.081   3.702   6.388
  111OSM    H1T11393   1.013   3.788   6.526
  111OSM     NF11394   1.042   3.941   6.292
  111OSM    HNF11395   1.054   4.034   6.327
  111OSM    C2S11396   0.935   3.857   6.342
  111OSM    H2S11397   0.883   3.807   6.258
  111OSM    C3S11398   0.818   3.930   6.411
  111OSM    H3S11399   0.855   3.984   6.500
  111OSM     O311400   0.719   3.840   6.459
  111OSM    HO311401   0.763   3.755   6.461
  111OSM    C4S11402   0.768   4.030   6.320
  111OSM    H4S11403   0.813   4.130   6.329
  111OSM    C5S11404   0.662   4.030   6.238
  111OSM    H5S11405   0.595   3.943   6.235
  111OSM    C6S11406   0.606   4.151   6.151
  111OSM    H6S11407   0.662   4.242   6.184
  111OSM    H6T11408   0.500   4.167   6.180
  111OSM    C7S11409   0.638   4.124   6.004
  111OSM    H7S11410   0.610   4.216   5.948
  111OSM    H7T11411   0.585   4.033   5.970
  111OSM    C8S11412   0.793   4.086   5.974
  111OSM    H8S11413   0.803   3.982   6.010
  111OSM    H8T11414   0.865   4.155   6.023
  111OSM    C9S11415   0.828   4.069   5.826
  111OSM    H9S11416   0.768   3.978   5.805
  111OSM    H9T11417   0.936   4.043   5.824
  111OSM   C10S11418   0.796   4.188   5.737
  111OSM   H10S11419   0.825   4.282   5.788
  111OSM   H10T11420   0.688   4.209   5.721
  111OSM   C11S11421   0.863   4.204   5.601
  111OSM   H11S11422   0.972   4.222   5.612
  111OSM   H11T11423   0.821   4.298   5.560
  111OSM   C12S11424   0.839   4.104   5.493
  111OSM   H12S11425   0.732   4.078   5.474
  111OSM   H12T11426   0.889   4.006   5.510
  111OSM   C13S11427   0.906   4.133   5.360
  111OSM   H13S11428   1.007   4.086   5.359
  111OSM   H13T11429   0.911   4.244   5.354
  111OSM   C14S11430   0.839   4.069   5.235
  111OSM   H14S11431   0.736   4.105   5.219
  111OSM   H14T11432   0.837   3.958   5.248
  111OSM   C15S11433   0.910   4.097   5.098
  111OSM   H15S11434   1.015   4.061   5.108
  111OSM   H15T11435   0.924   4.205   5.074
  111OSM   C16S11436   0.846   4.025   4.982
  111OSM   H16S11437   0.844   3.917   5.009
  111OSM   H16T11438   0.908   4.043   4.892
  111OSM   C17S11439   0.706   4.062   4.943
  111OSM   H17S11440   0.705   4.172   4.951
  111OSM   H17T11441   0.641   4.014   5.020
  111OSM   C18S11442   0.662   4.012   4.809
  111OSM   H18S11443   0.552   4.004   4.802
  111OSM   H18T11444   0.685   3.904   4.813
  111OSM   H18U11445   0.692   4.058   4.713
  111OSM    C1F11446   1.121   3.893   6.200
  111OSM     OF11447   1.115   3.780   6.157
  111OSM    C2F11448   1.235   3.981   6.169
  111OSM    H2F11449   1.291   4.005   6.262
  111OSM    H2G11450   1.181   4.075   6.142
  111OSM    C3F11451   1.321   3.936   6.051
  111OSM    H3F11452   1.376   3.844   6.082
  111OSM    H3G11453   1.403   4.010   6.041
  111OSM    C4F11454   1.245   3.924   5.914
  111OSM    H4F11455   1.188   4.019   5.906
  111OSM    H4G11456   1.163   3.851   5.930
  111OSM    C5F11457   1.335   3.871   5.800
  111OSM    H5F11458   1.376   3.778   5.844
  111OSM    H5G11459   1.406   3.953   5.777
  111OSM    C6F11460   1.253   3.827   5.679
  111OSM    H6F11461   1.193   3.915   5.648
  111OSM    H6G11462   1.191   3.740   5.709
  111OSM    C7F11463   1.345   3.790   5.560
  111OSM    H7F11464   1.423   3.723   5.601
  111OSM    H7G11465   1.405   3.879   5.530
  111OSM    C8F11466   1.277   3.727   5.442
  111OSM    H8F11467   1.194   3.658   5.468
  111OSM    H8G11468   1.352   3.663   5.390
  111OSM    C9F11469   1.225   3.834   5.351
  111OSM    H9F11470   1.156   3.906   5.397
  111OSM   C10F11471   1.271   3.852   5.220
  111OSM   H10F11472   1.246   3.941   5.160
  111OSM   C11F11473   1.365   3.760   5.143
  111OSM   H11F11474   1.337   3.655   5.161
  111OSM   H11G11475   1.465   3.778   5.188
  111OSM   C12F11476   1.366   3.787   4.990
  111OSM   H12F11477   1.398   3.894   4.985
  111OSM   H12G11478   1.266   3.758   4.952
  111OSM   C13F11479   1.468   3.695   4.915
  111OSM   H13F11480   1.418   3.597   4.905
  111OSM   H13G11481   1.571   3.685   4.954
  111OSM   C14F11482   1.496   3.741   4.774
  111OSM   H14F11483   1.568   3.672   4.724
  111OSM   H14G11484   1.550   3.838   4.777
  111OSM   C15F11485   1.366   3.760   4.690
  111OSM   H15F11486   1.300   3.825   4.752
  111OSM   H15G11487   1.313   3.663   4.676
  111OSM   C16F11488   1.392   3.831   4.561
  111OSM   H16F11489   1.472   3.773   4.510
  111OSM   H16G11490   1.430   3.934   4.579
  111OSM   C17F11491   1.272   3.852   4.467
  111OSM   H17F11492   1.196   3.917   4.515
  111OSM   H17G11493   1.226   3.753   4.449
  111OSM   C18F11494   1.325   3.911   4.337
  111OSM   H18F11495   1.386   4.004   4.343
  111OSM   H18G11496   1.249   3.923   4.257
  111OSM   H18H11497   1.386   3.831   4.290
  112OSM      N11498   4.049   0.659   6.685
  112OSM    C1511499   4.042   0.505   6.696
  112OSM   H15A11500   3.941   0.472   6.718
  112OSM   H15B11501   4.119   0.469   6.762
  112OSM   H15C11502   4.060   0.465   6.597
  112OSM    C1411503   4.182   0.692   6.632
  112OSM   H14A11504   4.258   0.646   6.694
  112OSM   H14B11505   4.212   0.796   6.631
  112OSM   H14C11506   4.208   0.638   6.542
  112OSM    C1311507   3.938   0.715   6.601
  112OSM   H13A11508   3.939   0.822   6.612
  112OSM   H13B11509   3.840   0.694   6.643
  112OSM   H13C11510   3.948   0.682   6.499
  112OSM    C1211511   4.033   0.720   6.828
  112OSM   H12A11512   4.100   0.668   6.894
  112OSM   H12B11513   3.931   0.704   6.858
  112OSM    C1111514   4.061   0.871   6.837
  112OSM   H11A11515   4.167   0.890   6.810
  112OSM   H11B11516   4.033   0.885   6.944
  112OSM      P11517   3.976   1.115   6.751
  112OSM    O1311518   3.860   1.161   6.672
  112OSM    O1411519   3.980   1.157   6.893
  112OSM    O1111520   4.112   1.168   6.692
  112OSM    O1211521   3.983   0.954   6.750
  112OSM    C1S11522   4.162   1.128   6.566
  112OSM    H1S11523   4.112   1.035   6.530
  112OSM    H1T11524   4.267   1.097   6.579
  112OSM     NF11525   4.225   1.171   6.335
  112OSM    HNF11526   4.318   1.207   6.331
  112OSM    C2S11527   4.156   1.230   6.450
  112OSM    H2S11528   4.052   1.250   6.415
  112OSM    C3S11529   4.211   1.367   6.490
  112OSM    H3S11530   4.319   1.354   6.468
  112OSM     O311531   4.200   1.405   6.626
  112OSM    HO311532   4.150   1.332   6.663
  112OSM    C4S11533   4.160   1.483   6.403
  112OSM    H4S11534   4.051   1.468   6.391
  112OSM    C5S11535   4.229   1.573   6.327
  112OSM    H5S11536   4.339   1.559   6.325
  112OSM    C6S11537   4.167   1.665   6.220
  112OSM    H6S11538   4.150   1.769   6.256
  112OSM    H6T11539   4.065   1.628   6.200
  112OSM    C7S11540   4.249   1.662   6.091
  112OSM    H7S11541   4.234   1.557   6.058
  112OSM    H7T11542   4.352   1.693   6.116
  112OSM    C8S11543   4.197   1.765   5.987
  112OSM    H8S11544   4.211   1.867   6.030
  112OSM    H8T11545   4.088   1.755   5.971
  112OSM    C9S11546   4.266   1.754   5.849
  112OSM    H9S11547   4.227   1.659   5.805
  112OSM    H9T11548   4.374   1.729   5.860
  112OSM   C10S11549   4.254   1.863   5.750
  112OSM   H10S11550   4.292   1.955   5.800
  112OSM   H10T11551   4.149   1.893   5.732
  112OSM   C11S11552   4.304   1.841   5.600
  112OSM   H11S11553   4.235   1.765   5.558
  112OSM   H11T11554   4.411   1.810   5.600
  112OSM   C12S11555   4.303   1.965   5.502
  112OSM   H12S11556   4.376   2.043   5.530
  112OSM   H12T11557   4.198   2.000   5.505
  112OSM   C13S11558   4.339   1.933   5.354
  112OSM   H13S11559   4.268   1.858   5.312
  112OSM   H13T11560   4.435   1.877   5.346
  112OSM   C14S11561   4.335   2.050   5.254
  112OSM   H14S11562   4.439   2.088   5.254
  112OSM   H14T11563   4.259   2.125   5.284
  112OSM   C15S11564   4.299   1.999   5.115
  112OSM   H15S11565   4.196   1.958   5.117
  112OSM   H15T11566   4.368   1.913   5.095
  112OSM   C16S11567   4.304   2.115   5.010
  112OSM   H16S11568   4.401   2.167   5.020
  112OSM   H16T11569   4.224   2.189   5.032
  112OSM   C17S11570   4.293   2.073   4.864
  112OSM   H17S11571   4.283   2.157   4.791
  112OSM   H17T11572   4.201   2.011   4.858
  112OSM   C18S11573   4.416   1.990   4.809
  112OSM   H18S11574   4.506   2.055   4.817
  112OSM   H18T11575   4.408   1.984   4.698
  112OSM   H18U11576   4.433   1.894   4.863
  112OSM    C1F11577   4.175   1.078   6.257
  112OSM     OF11578   4.062   1.036   6.258
  112OSM    C2F11579   4.281   1.025   6.162
  112OSM    H2F11580   4.363   0.970   6.213
  112OSM    H2G11581   4.328   1.115   6.118
  112OSM    C3F11582   4.227   0.930   6.057
  112OSM    H3F11583   4.127   0.960   6.019
  112OSM    H3G11584   4.212   0.830   6.104
  112OSM    C4F11585   4.329   0.914   5.939
  112OSM    H4F11586   4.423   0.861   5.964
  112OSM    H4G11587   4.351   1.013   5.892
  112OSM    C5F11588   4.266   0.828   5.831
  112OSM    H5F11589   4.333   0.829   5.743
  112OSM    H5G11590   4.167   0.863   5.793
  112OSM    C6F11591   4.253   0.674   5.871
  112OSM    H6F11592   4.287   0.648   5.974
  112OSM    H6G11593   4.332   0.620   5.815
  112OSM    C7F11594   4.109   0.623   5.839
  112OSM    H7F11595   4.116   0.512   5.838
  112OSM    H7G11596   4.091   0.654   5.734
  112OSM    C8F11597   3.997   0.681   5.933
  112OSM    H8F11598   3.999   0.790   5.914
  112OSM    H8G11599   4.025   0.657   6.038
  112OSM    C9F11600   3.865   0.624   5.899
  112OSM    H9F11601   3.822   0.566   5.982
  112OSM   C10F11602   3.784   0.648   5.793
  112OSM   H10F11603   3.687   0.595   5.796
  112OSM   C11F11604   3.802   0.756   5.691
  112OSM   H11F11605   3.881   0.826   5.724
  112OSM   H11G11606   3.709   0.816   5.677
  112OSM   C12F11607   3.812   0.696   5.550
  112OSM   H12F11608   3.755   0.601   5.558
  112OSM   H12G11609   3.918   0.670   5.529
  112OSM   C13F11610   3.760   0.787   5.432
  112OSM   H13F11611   3.825   0.875   5.417
  112OSM   H13G11612   3.659   0.821   5.464
  112OSM   C14F11613   3.730   0.700   5.305
  112OSM   H14F11614   3.663   0.619   5.340
  112OSM   H14G11615   3.826   0.647   5.286
  112OSM   C15F11616   3.688   0.766   5.184
  112OSM   H15F11617   3.741   0.860   5.156
  112OSM   H15G11618   3.582   0.797   5.201
  112OSM   C16F11619   3.706   0.685   5.068
  112OSM   H16F11620   3.648   0.713   4.976
  112OSM   H16G11621   3.689   0.581   5.102
  112OSM   C17F11622   3.851   0.677   5.022
  112OSM   H17F11623   3.868   0.573   4.987
  112OSM   H17G11624   3.916   0.688   5.112
  112OSM   C18F11625   3.894   0.772   4.909
  112OSM   H18F11626   3.850   0.731   4.815
  112OSM   H18G11627   4.004   0.791   4.906
  112OSM   H18H11628   3.854   0.871   4.937
  113OSM      N11629   1.166   1.422   6.829
  113OSM    C1511630   1.096   1.327   6.926
  113OSM   H15A11631   1.093   1.232   6.875
  113OSM   H15B11632   1.000   1.373   6.942
  113OSM   H15C11633   1.139   1.310   7.024
  113OSM    C1411634   1.187   1.557   6.892
  113OSM   H14A11635   1.160   1.641   6.830
  113OSM   H14B11636   1.280   1.565   6.946
  113OSM   H14C11637   1.104   1.562   6.961
  113OSM    C1311638   1.303   1.363   6.804
  113OSM   H13A11639   1.355   1.341   6.896
  113OSM   H13B11640   1.374   1.424   6.750
  113OSM   H13C11641   1.295   1.272   6.747
  113OSM    C1211642   1.090   1.451   6.696
  113OSM   H12A11643   1.135   1.532   6.641
  113OSM   H12B11644   0.989   1.486   6.714
  113OSM    C1111645   1.073   1.344   6.589
  113OSM   H11A11646   1.169   1.320   6.538
  113OSM   H11B11647   1.031   1.405   6.505
  113OSM      P11648   0.857   1.219   6.681
  113OSM    O1311649   0.808   1.083   6.694
  113OSM    O1411650   0.831   1.307   6.797
  113OSM    O1111651   0.783   1.290   6.564
  113OSM    O1211652   0.998   1.224   6.628
  113OSM    C1S11653   0.770   1.227   6.437
  113OSM    H1S11654   0.733   1.123   6.446
  113OSM    H1T11655   0.869   1.220   6.387
  113OSM     NF11656   0.673   1.225   6.215
  113OSM    HNF11657   0.732   1.233   6.135
  113OSM    C2S11658   0.688   1.308   6.333
  113OSM    H2S11659   0.586   1.335   6.366
  113OSM    C3S11660   0.748   1.451   6.314
  113OSM    H3S11661   0.850   1.441   6.270
  113OSM     O311662   0.769   1.529   6.425
  113OSM    HO311663   0.731   1.474   6.493
  113OSM    C4S11664   0.664   1.530   6.224
  113OSM    H4S11665   0.715   1.531   6.127
  113OSM    C5S11666   0.541   1.593   6.243
  113OSM    H5S11667   0.493   1.587   6.342
  113OSM    C6S11668   0.469   1.672   6.130
  113OSM    H6S11669   0.461   1.781   6.148
  113OSM    H6T11670   0.363   1.639   6.133
  113OSM    C7S11671   0.519   1.654   5.992
  113OSM    H7S11672   0.530   1.547   5.961
  113OSM    H7T11673   0.618   1.705   5.991
  113OSM    C8S11674   0.430   1.721   5.891
  113OSM    H8S11675   0.420   1.828   5.919
  113OSM    H8T11676   0.333   1.667   5.883
  113OSM    C9S11677   0.485   1.706   5.744
  113OSM    H9S11678   0.487   1.596   5.732
  113OSM    H9T11679   0.588   1.746   5.732
  113OSM   C10S11680   0.392   1.766   5.640
  113OSM   H10S11681   0.394   1.876   5.654
  113OSM   H10T11682   0.291   1.720   5.652
  113OSM   C11S11683   0.422   1.714   5.500
  113OSM   H11S11684   0.423   1.603   5.509
  113OSM   H11T11685   0.525   1.754   5.493
  113OSM   C12S11686   0.333   1.771   5.385
  113OSM   H12S11687   0.334   1.881   5.397
  113OSM   H12T11688   0.231   1.731   5.399
  113OSM   C13S11689   0.385   1.747   5.243
  113OSM   H13S11690   0.425   1.644   5.234
  113OSM   H13T11691   0.471   1.812   5.220
  113OSM   C14S11692   0.281   1.778   5.136
  113OSM   H14S11693   0.257   1.887   5.134
  113OSM   H14T11694   0.190   1.719   5.159
  113OSM   C15S11695   0.323   1.740   4.993
  113OSM   H15S11696   0.237   1.721   4.926
  113OSM   H15T11697   0.379   1.644   5.002
  113OSM   C16S11698   0.414   1.844   4.921
  113OSM   H16S11699   0.508   1.844   4.982
  113OSM   H16T11700   0.371   1.947   4.924
  113OSM   C17S11701   0.462   1.804   4.777
  113OSM   H17S11702   0.515   1.707   4.790
  113OSM   H17T11703   0.537   1.882   4.751
  113OSM   C18S11704   0.348   1.812   4.668
  113OSM   H18S11705   0.405   1.813   4.573
  113OSM   H18T11706   0.300   1.912   4.669
  113OSM   H18U11707   0.269   1.735   4.676
  113OSM    C1F11708   0.592   1.122   6.204
  113OSM     OF11709   0.520   1.084   6.298
  113OSM    C2F11710   0.605   1.033   6.093
  113OSM    H2F11711   0.706   0.987   6.093
  113OSM    H2G11712   0.592   1.092   6.000
  113OSM    C3F11713   0.498   0.915   6.094
  113OSM    H3F11714   0.396   0.956   6.105
  113OSM    H3G11715   0.535   0.861   6.184
  113OSM    C4F11716   0.508   0.818   5.980
  113OSM    H4F11717   0.444   0.731   6.007
  113OSM    H4G11718   0.611   0.777   5.979
  113OSM    C5F11719   0.469   0.871   5.846
  113OSM    H5F11720   0.504   0.976   5.833
  113OSM    H5G11721   0.358   0.879   5.845
  113OSM    C6F11722   0.504   0.778   5.730
  113OSM    H6F11723   0.444   0.686   5.745
  113OSM    H6G11724   0.608   0.742   5.746
  113OSM    C7F11725   0.495   0.852   5.601
  113OSM    H7F11726   0.563   0.939   5.599
  113OSM    H7G11727   0.392   0.889   5.581
  113OSM    C8F11728   0.536   0.756   5.487
  113OSM    H8F11729   0.457   0.679   5.474
  113OSM    H8G11730   0.627   0.697   5.514
  113OSM    C9F11731   0.556   0.833   5.364
  113OSM    H9F11732   0.557   0.941   5.385
  113OSM   C10F11733   0.556   0.794   5.241
  113OSM   H10F11734   0.576   0.865   5.159
  113OSM   C11F11735   0.542   0.649   5.195
  113OSM   H11F11736   0.546   0.579   5.281
  113OSM   H11G11737   0.610   0.631   5.109
  113OSM   C12F11738   0.399   0.632   5.121
  113OSM   H12F11739   0.339   0.724   5.140
  113OSM   H12G11740   0.352   0.540   5.163
  113OSM   C13F11741   0.417   0.614   4.967
  113OSM   H13F11742   0.485   0.527   4.953
  113OSM   H13G11743   0.471   0.704   4.930
  113OSM   C14F11744   0.288   0.603   4.884
  113OSM   H14F11745   0.226   0.516   4.915
  113OSM   H14G11746   0.319   0.592   4.778
  113OSM   C15F11747   0.197   0.730   4.882
  113OSM   H15F11748   0.258   0.819   4.854
  113OSM   H15G11749   0.144   0.770   4.971
  113OSM   C16F11750   0.090   0.711   4.774
  113OSM   H16F11751   0.017   0.640   4.819
  113OSM   H16G11752   0.140   0.673   4.683
  113OSM   C17F11753   0.024   0.837   4.742
  113OSM   H17F11754   0.107   0.910   4.729
  113OSM   H17G11755   6.777   0.872   4.819
  113OSM   C18F11756   6.772   0.827   4.610
  113OSM   H18F11757   0.009   0.807   4.520
  113OSM   H18G11758   6.715   0.920   4.591
  113OSM   H18H11759   6.712   0.734   4.601
  114OSM      N11760   6.659   6.176   6.741
  114OSM    C1511761   6.538   6.133   6.667
  114OSM   H15A11762   6.483   6.210   6.615
  114OSM   H15B11763   6.459   6.089   6.725
  114OSM   H15C11764   6.562   6.055   6.595
  114OSM    C1411765   6.615   6.275   6.842
  114OSM   H14A11766   6.690   6.274   6.920
  114OSM   H14B11767   6.523   6.233   6.880
  114OSM   H14C11768   6.593   6.370   6.797
  114OSM    C1311769   6.709   6.048   6.813
  114OSM   H13A11770   6.736   5.983   6.731
  114OSM   H13B11771   6.637   6.000   6.877
  114OSM   H13C11772   6.798   6.060   6.873
  114OSM    C1211773   6.766   6.221   6.650
  114OSM   H12A11774   6.798   6.143   6.582
  114OSM   H12B11775   0.031   6.250   6.702
  114OSM    C1111776   6.735   6.346   6.564
  114OSM   H11A11777   6.645   6.328   6.502
  114OSM   H11B11778   6.824   6.359   6.499
  114OSM      P11779   0.023   6.543   6.684
  114OSM    O1311780   0.002   6.609   6.817
  114OSM    O1411781   0.143   6.459   6.691
  114OSM    O1111782   0.031   6.664   6.587
  114OSM    O1211783   6.717   6.460   6.645
  114OSM    C1S11784   0.064   6.637   6.445
  114OSM    H1S11785   0.099   6.533   6.431
  114OSM    H1T11786   0.147   6.709   6.429
  114OSM     NF11787   6.802   6.631   6.202
  114OSM    HNF11788   6.793   6.706   6.137
  114OSM    C2S11789   6.772   6.656   6.349
  114OSM    H2S11790   6.688   6.593   6.384
  114OSM    C3S11791   6.715   6.802   6.363
  114OSM    H3S11792   6.791   0.055   6.339
  114OSM     O311793   6.685   0.008   6.497
  114OSM    HO311794   6.753   6.787   6.547
  114OSM    C4S11795   6.585   6.823   6.283
  114OSM    H4S11796   6.504   6.752   6.306
  114OSM    C5S11797   6.560   0.083   6.179
  114OSM    H5S11798   6.645   0.139   6.136
  114OSM    C6S11799   6.421   0.085   6.115
  114OSM    H6S11800   6.390   0.188   6.090
  114OSM    H6T11801   6.348   0.067   6.198
  114OSM    C7S11802   6.406   6.794   6.012
  114OSM    H7S11803   6.320   6.808   5.942
  114OSM    H7T11804   6.388   6.700   6.068
  114OSM    C8S11805   6.522   6.776   5.915
  114OSM    H8S11806   6.615   6.752   5.971
  114OSM    H8T11807   6.538   0.048   5.864
  114OSM    C9S11808   6.488   6.670   5.809
  114OSM    H9S11809   6.393   6.687   5.755
  114OSM    H9T11810   6.486   6.569   5.856
  114OSM   C10S11811   6.610   6.656   5.716
  114OSM   H10S11812   6.699   6.618   5.772
  114OSM   H10T11813   6.636   6.749   5.662
  114OSM   C11S11814   6.580   6.553   5.609
  114OSM   H11S11815   6.508   6.485   5.659
  114OSM   H11T11816   6.666   6.486   5.587
  114OSM   C12S11817   6.513   6.608   5.479
  114OSM   H12S11818   6.591   6.645   5.409
  114OSM   H12T11819   6.447   6.695   5.502
  114OSM   C13S11820   6.430   6.499   5.405
  114OSM   H13S11821   6.382   6.533   5.310
  114OSM   H13T11822   6.344   6.464   5.467
  114OSM   C14S11823   6.516   6.373   5.365
  114OSM   H14S11824   6.439   6.307   5.320
  114OSM   H14T11825   6.548   6.329   5.461
  114OSM   C15S11826   6.643   6.391   5.280
  114OSM   H15S11827   6.721   6.440   5.342
  114OSM   H15T11828   6.626   6.460   5.194
  114OSM   C16S11829   6.693   6.254   5.233
  114OSM   H16S11830   6.614   6.211   5.169
  114OSM   H16T11831   6.705   6.180   5.315
  114OSM   C17S11832   0.001   6.246   5.156
  114OSM   H17S11833   0.001   6.322   5.075
  114OSM   H17T11834   0.008   6.145   5.110
  114OSM   C18S11835   0.117   6.279   5.244
  114OSM   H18S11836   0.109   6.382   5.285
  114OSM   H18T11837   0.212   6.285   5.187
  114OSM   H18U11838   0.129   6.204   5.325
  114OSM    C1F11839   0.020   6.511   6.164
  114OSM     OF11840   0.036   6.423   6.246
  114OSM    C2F11841   0.034   6.488   6.020
  114OSM    H2F11842   0.135   6.528   5.998
  114OSM    H2G11843   6.781   6.548   5.968
  114OSM    C3F11844   0.029   6.338   5.981
  114OSM    H3F11845   6.774   6.284   6.036
  114OSM    H3G11846   0.126   6.293   6.011
  114OSM    C4F11847   0.005   6.323   5.830
  114OSM    H4F11848   6.741   6.377   5.792
  114OSM    H4G11849   6.803   6.216   5.820
  114OSM    C5F11850   0.131   6.363   5.753
  114OSM    H5F11851   0.221   6.354   5.817
  114OSM    H5G11852   0.126   6.473   5.738
  114OSM    C6F11853   0.151   6.319   5.607
  114OSM    H6F11854   0.197   6.397   5.542
  114OSM    H6G11855   0.055   6.281   5.567
  114OSM    C7F11856   0.258   6.204   5.604
  114OSM    H7F11857   0.224   6.134   5.524
  114OSM    H7G11858   0.256   6.157   5.705
  114OSM    C8F11859   0.404   6.233   5.552
  114OSM    H8F11860   0.450   6.310   5.618
  114OSM    H8G11861   0.404   6.270   5.447
  114OSM    C9F11862   0.486   6.107   5.555
  114OSM    H9F11863   0.494   6.067   5.657
  114OSM   C10F11864   0.549   6.055   5.446
  114OSM   H10F11865   0.594   5.956   5.456
  114OSM   C11F11866   0.554   6.122   5.312
  114OSM   H11F11867   0.452   6.143   5.273
  114OSM   H11G11868   0.598   6.044   5.247
  114OSM   C12F11869   0.650   6.243   5.292
  114OSM   H12F11870   0.749   6.229   5.341
  114OSM   H12G11871   0.604   6.327   5.348
  114OSM   C13F11872   0.674   6.294   5.143
  114OSM   H13F11873   0.722   6.214   5.083
  114OSM   H13G11874   0.735   6.387   5.145
  114OSM   C14F11875   0.543   6.325   5.074
  114OSM   H14F11876   0.493   6.402   5.137
  114OSM   H14G11877   0.474   6.237   5.071
  114OSM   C15F11878   0.549   6.382   4.923
  114OSM   H15F11879   0.624   6.331   4.858
  114OSM   H15G11880   0.594   6.483   4.931
  114OSM   C16F11881   0.418   6.379   4.860
  114OSM   H16F11882   0.342   6.420   4.931
  114OSM   H16G11883   0.389   6.275   4.832
  114OSM   C17F11884   0.417   6.463   4.729
  114OSM   H17F11885   0.393   6.397   4.643
  114OSM   H17G11886   0.511   6.513   4.698
  114OSM   C18F11887   0.318   6.583   4.724
  114OSM   H18F11888   0.318   6.620   4.620
  114OSM   H18G11889   0.348   6.665   4.793
  114OSM   H18H11890   0.217   6.545   4.749
  115OSM      N11891   0.455   2.143   6.807
  115OSM    C1511892   0.354   2.040   6.836
  115OSM   H15A11893   0.275   2.030   6.763
  115OSM   H15B11894   0.295   2.080   6.917
  115OSM   H15C11895   0.398   1.944   6.858
  115OSM    C1411896   0.564   2.130   6.917
  115OSM   H14A11897   0.529   2.188   7.001
  115OSM   H14B11898   0.661   2.168   6.889
  115OSM   H14C11899   0.564   2.028   6.952
  115OSM    C1311900   0.530   2.106   6.679
  115OSM   H13A11901   0.564   2.004   6.693
  115OSM   H13B11902   0.599   2.185   6.655
  115OSM   H13C11903   0.456   2.105   6.600
  115OSM    C1211904   0.404   2.291   6.801
  115OSM   H12A11905   0.490   2.351   6.779
  115OSM   H12B11906   0.379   2.315   6.903
  115OSM    C1111907   0.294   2.321   6.703
  115OSM   H11A11908   0.330   2.286   6.604
  115OSM   H11B11909   0.288   2.431   6.691
  115OSM      P11910   0.063   2.313   6.834
  115OSM    O1311911   0.026   2.198   6.922
  115OSM    O1411912   0.113   2.434   6.892
  115OSM    O1111913   6.761   2.362   6.746
  115OSM    O1211914   0.170   2.256   6.733
  115OSM    C1S11915   6.776   2.351   6.600
  115OSM    H1S11916   6.730   2.254   6.570
  115OSM    H1T11917   0.055   2.339   6.565
  115OSM     NF11918   6.693   2.431   6.377
  115OSM    HNF11919   6.760   2.478   6.320
  115OSM    C2S11920   6.703   2.460   6.518
  115OSM    H2S11921   6.601   2.471   6.559
  115OSM    C3S11922   6.778   2.591   6.546
  115OSM    H3S11923   0.053   2.573   6.501
  115OSM     O311924   6.807   2.620   6.679
  115OSM    HO311925   6.790   2.534   6.720
  115OSM    C4S11926   6.728   2.714   6.473
  115OSM    H4S11927   6.774   2.736   6.375
  115OSM    C5S11928   6.640   2.808   6.519
  115OSM    H5S11929   6.603   2.791   6.621
  115OSM    C6S11930   6.610   2.944   6.450
  115OSM    H6S11931   6.616   3.017   6.534
  115OSM    H6T11932   6.508   2.950   6.406
  115OSM    C7S11933   6.705   2.988   6.335
  115OSM    H7S11934   6.689   2.928   6.243
  115OSM    H7T11935   6.812   2.978   6.365
  115OSM    C8S11936   6.667   3.128   6.299
  115OSM    H8S11937   6.670   3.179   6.398
  115OSM    H8T11938   6.569   3.136   6.247
  115OSM    C9S11939   6.765   3.206   6.207
  115OSM    H9S11940   6.771   3.149   6.112
  115OSM    H9T11941   0.039   3.213   6.255
  115OSM   C10S11942   6.714   3.350   6.179
  115OSM   H10S11943   6.723   3.409   6.273
  115OSM   H10T11944   6.611   3.356   6.139
  115OSM   C11S11945   6.807   3.434   6.083
  115OSM   H11S11946   0.088   3.434   6.116
  115OSM   H11T11947   6.789   3.543   6.097
  115OSM   C12S11948   6.795   3.396   5.937
  115OSM   H12S11949   6.688   3.379   5.915
  115OSM   H12T11950   0.029   3.303   5.925
  115OSM   C13S11951   0.015   3.510   5.845
  115OSM   H13S11952   0.107   3.552   5.892
  115OSM   H13T11953   6.765   3.591   5.846
  115OSM   C14S11954   0.054   3.465   5.706
  115OSM   H14S11955   0.131   3.385   5.710
  115OSM   H14T11956   0.102   3.550   5.654
  115OSM   C15S11957   6.761   3.419   5.619
  115OSM   H15S11958   6.672   3.486   5.616
  115OSM   H15T11959   6.720   3.325   5.662
  115OSM   C16S11960   6.804   3.405   5.471
  115OSM   H16S11961   0.040   3.313   5.458
  115OSM   H16T11962   0.024   3.502   5.442
  115OSM   C17S11963   6.677   3.376   5.386
  115OSM   H17S11964   6.596   3.450   5.402
  115OSM   H17T11965   6.635   3.279   5.420
  115OSM   C18S11966   6.722   3.362   5.239
  115OSM   H18S11967   6.798   3.283   5.220
  115OSM   H18T11968   6.759   3.464   5.214
  115OSM   H18U11969   6.631   3.335   5.182
  115OSM    C1F11970   6.613   2.340   6.326
  115OSM     OF11971   6.545   2.262   6.396
  115OSM    C2F11972   6.618   2.314   6.171
  115OSM    H2F11973   6.723   2.297   6.139
  115OSM    H2G11974   6.584   2.414   6.136
  115OSM    C3F11975   6.510   2.219   6.120
  115OSM    H3F11976   6.407   2.260   6.133
  115OSM    H3G11977   6.519   2.123   6.174
  115OSM    C4F11978   6.518   2.196   5.969
  115OSM    H4F11979   6.430   2.142   5.929
  115OSM    H4G11980   6.607   2.137   5.937
  115OSM    C5F11981   6.524   2.327   5.888
  115OSM    H5F11982   6.617   2.383   5.910
  115OSM    H5G11983   6.431   2.378   5.919
  115OSM    C6F11984   6.525   2.297   5.740
  115OSM    H6F11985   6.434   2.247   5.701
  115OSM    H6G11986   6.608   2.223   5.732
  115OSM    C7F11987   6.560   2.425   5.654
  115OSM    H7F11988   6.657   2.470   5.685
  115OSM    H7G11989   6.478   2.499   5.672
  115OSM    C8F11990   6.572   2.395   5.504
  115OSM    H8F11991   6.653   2.319   5.499
  115OSM    H8G11992   6.604   2.479   5.438
  115OSM    C9F11993   6.438   2.343   5.449
  115OSM    H9F11994   6.424   2.242   5.490
  115OSM   C10F11995   6.333   2.411   5.393
  115OSM   H10F11996   6.241   2.359   5.362
  115OSM   C11F11997   6.337   2.558   5.353
  115OSM   H11F11998   6.430   2.603   5.392
  115OSM   H11G11999   6.246   2.611   5.390
  115OSM   C12F12000   6.335   2.582   5.198
  115OSM   H12F12001   6.340   2.692   5.183
  115OSM   H12G12002   6.239   2.534   5.169
  115OSM   C13F12003   6.453   2.530   5.118
  115OSM   H13F12004   6.457   2.420   5.137
  115OSM   H13G12005   6.548   2.574   5.154
  115OSM   C14F12006   6.431   2.552   4.967
  115OSM   H14F12007   6.394   2.656   4.952
  115OSM   H14G12008   6.345   2.492   4.930
  115OSM   C15F12009   6.559   2.527   4.898
  115OSM   H15F12010   6.597   2.430   4.935
  115OSM   H15G12011   6.627   2.610   4.929
  115OSM   C16F12012   6.558   2.493   4.748
  115OSM   H16F12013   6.515   2.580   4.693
  115OSM   H16G12014   6.489   2.407   4.736
  115OSM   C17F12015   6.699   2.465   4.691
  115OSM   H17F12016   6.679   2.426   4.589
  115OSM   H17G12017   6.756   2.384   4.742
  115OSM   C18F12018   6.798   2.586   4.681
  115OSM   H18F12019   6.808   2.631   4.782
  115OSM   H18G12020   6.751   2.666   4.620
  115OSM   H18H12021   0.070   2.546   4.644
  116OSM      N12022   1.395   0.890   6.798
  116OSM    C1512023   1.472   0.991   6.881
  116OSM   H15A12024   1.456   1.088   6.835
  116OSM   H15B12025   1.578   0.970   6.888
  116OSM   H15C12026   1.439   0.987   6.984
  116OSM    C1412027   1.436   0.747   6.838
  116OSM   H14A12028   1.540   0.724   6.820
  116OSM   H14B12029   1.379   0.672   6.787
  116OSM   H14C12030   1.402   0.727   6.939
  116OSM    C1312031   1.245   0.914   6.827
  116OSM   H13A12032   1.231   1.019   6.805
  116OSM   H13B12033   1.226   0.892   6.931
  116OSM   H13C12034   1.175   0.850   6.775
  116OSM    C1212035   1.420   0.903   6.648
  116OSM   H12A12036   1.367   0.821   6.602
  116OSM   H12B12037   1.525   0.885   6.629
  116OSM    C1112038   1.372   1.032   6.571
  116OSM   H11A12039   1.262   1.034   6.592
  116OSM   H11B12040   1.399   1.003   6.467
  116OSM      P12041   1.588   1.171   6.556
  116OSM    O1312042   1.638   1.306   6.613
  116OSM    O1412043   1.673   1.049   6.570
  116OSM    O1112044   1.562   1.203   6.404
  116OSM    O1212045   1.443   1.142   6.619
  116OSM    C1S12046   1.440   1.272   6.359
  116OSM    H1S12047   1.403   1.343   6.437
  116OSM    H1T12048   1.346   1.215   6.346
  116OSM     NF12049   1.348   1.429   6.189
  116OSM    HNF12050   1.319   1.403   6.097
  116OSM    C2S12051   1.463   1.358   6.228
  116OSM    H2S12052   1.539   1.430   6.267
  116OSM    C3S12053   1.531   1.268   6.118
  116OSM    H3S12054   1.465   1.186   6.084
  116OSM     O312055   1.657   1.212   6.139
  116OSM    HO312056   1.672   1.227   6.232
  116OSM    C4S12057   1.549   1.356   5.994
  116OSM    H4S12058   1.483   1.333   5.910
  116OSM    C5S12059   1.635   1.459   5.966
  116OSM    H5S12060   1.705   1.500   6.041
  116OSM    C6S12061   1.640   1.547   5.841
  116OSM    H6S12062   1.746   1.541   5.810
  116OSM    H6T12063   1.614   1.651   5.868
  116OSM    C7S12064   1.560   1.505   5.716
  116OSM    H7S12065   1.453   1.522   5.741
  116OSM    H7T12066   1.579   1.396   5.709
  116OSM    C8S12067   1.608   1.566   5.580
  116OSM    H8S12068   1.717   1.587   5.587
  116OSM    H8T12069   1.566   1.668   5.571
  116OSM    C9S12070   1.570   1.489   5.445
  116OSM    H9S12071   1.460   1.475   5.455
  116OSM    H9T12072   1.621   1.391   5.434
  116OSM   C10S12073   1.583   1.565   5.308
  116OSM   H10S12074   1.553   1.672   5.306
  116OSM   H10T12075   1.524   1.511   5.231
  116OSM   C11S12076   1.725   1.554   5.251
  116OSM   H11S12077   1.792   1.556   5.339
  116OSM   H11T12078   1.746   1.646   5.194
  116OSM   C12S12079   1.750   1.428   5.177
  116OSM   H12S12080   1.714   1.338   5.231
  116OSM   H12T12081   1.859   1.410   5.177
  116OSM   C13S12082   1.684   1.417   5.042
  116OSM   H13S12083   1.714   1.514   4.998
  116OSM   H13T12084   1.574   1.419   5.052
  116OSM   C14S12085   1.756   1.309   4.958
  116OSM   H14S12086   1.715   1.215   5.001
  116OSM   H14T12087   1.866   1.315   4.976
  116OSM   C15S12088   1.725   1.308   4.813
  116OSM   H15S12089   1.754   1.405   4.768
  116OSM   H15T12090   1.616   1.300   4.791
  116OSM   C16S12091   1.786   1.183   4.755
  116OSM   H16S12092   1.733   1.094   4.796
  116OSM   H16T12093   1.896   1.177   4.765
  116OSM   C17S12094   1.756   1.183   4.600
  116OSM   H17S12095   1.654   1.224   4.582
  116OSM   H17T12096   1.765   1.083   4.553
  116OSM   C18S12097   1.857   1.274   4.525
  116OSM   H18S12098   1.845   1.378   4.560
  116OSM   H18T12099   1.836   1.275   4.416
  116OSM   H18U12100   1.959   1.231   4.538
  116OSM    C1F12101   1.272   1.503   6.271
  116OSM     OF12102   1.308   1.540   6.383
  116OSM    C2F12103   1.138   1.529   6.232
  116OSM    H2F12104   1.069   1.517   6.318
  116OSM    H2G12105   1.104   1.461   6.151
  116OSM    C3F12106   1.118   1.678   6.196
  116OSM    H3F12107   1.148   1.736   6.286
  116OSM    H3G12108   1.012   1.700   6.170
  116OSM    C4F12109   1.213   1.721   6.080
  116OSM    H4F12110   1.318   1.689   6.100
  116OSM    H4G12111   1.220   1.831   6.078
  116OSM    C5F12112   1.156   1.667   5.943
  116OSM    H5F12113   1.055   1.711   5.949
  116OSM    H5G12114   1.145   1.556   5.940
  116OSM    C6F12115   1.215   1.720   5.813
  116OSM    H6F12116   1.320   1.685   5.811
  116OSM    H6G12117   1.208   1.830   5.807
  116OSM    C7F12118   1.148   1.661   5.688
  116OSM    H7F12119   1.060   1.721   5.655
  116OSM    H7G12120   1.134   1.551   5.699
  116OSM    C8F12121   1.247   1.666   5.572
  116OSM    H8F12122   1.350   1.665   5.613
  116OSM    H8G12123   1.245   1.761   5.514
  116OSM    C9F12124   1.223   1.555   5.467
  116OSM    H9F12125   1.222   1.451   5.504
  116OSM   C10F12126   1.196   1.569   5.330
  116OSM   H10F12127   1.175   1.483   5.265
  116OSM   C11F12128   1.205   1.695   5.251
  116OSM   H11F12129   1.245   1.779   5.311
  116OSM   H11G12130   1.106   1.732   5.215
  116OSM   C12F12131   1.296   1.704   5.132
  116OSM   H12F12132   1.400   1.688   5.166
  116OSM   H12G12133   1.297   1.808   5.093
  116OSM   C13F12134   1.261   1.611   5.012
  116OSM   H13F12135   1.155   1.636   4.988
  116OSM   H13G12136   1.256   1.502   5.035
  116OSM   C14F12137   1.334   1.638   4.877
  116OSM   H14F12138   1.438   1.606   4.898
  116OSM   H14G12139   1.344   1.743   4.842
  116OSM   C15F12140   1.269   1.569   4.747
  116OSM   H15F12141   1.159   1.588   4.743
  116OSM   H15G12142   1.268   1.463   4.778
  116OSM   C16F12143   1.341   1.597   4.616
  116OSM   H16F12144   1.331   1.703   4.584
  116OSM   H16G12145   1.296   1.529   4.540
  116OSM   C17F12146   1.499   1.579   4.620
  116OSM   H17F12147   1.517   1.470   4.633
  116OSM   H17G12148   1.534   1.635   4.710
  116OSM   C18F12149   1.581   1.621   4.502
  116OSM   H18F12150   1.684   1.641   4.536
  116OSM   H18G12151   1.544   1.719   4.465
  116OSM   H18H12152   1.579   1.552   4.415
  117OSM      N12153   0.529   4.090   6.732
  117OSM    C1512154   0.667   4.051   6.765
  117OSM   H15A12155   0.703   4.110   6.848
  117OSM   H15B12156   0.733   4.079   6.684
  117OSM   H15C12157   0.695   3.951   6.794
  117OSM    C1412158   0.474   4.001   6.624
  117OSM   H14A12159   0.546   4.004   6.544
  117OSM   H14B12160   0.376   4.024   6.585
  117OSM   H14C12161   0.474   3.900   6.662
  117OSM    C1312162   0.444   4.059   6.858
  117OSM   H13A12163   0.476   4.108   6.949
  117OSM   H13B12164   0.447   3.956   6.890
  117OSM   H13C12165   0.343   4.093   6.844
  117OSM    C1212166   0.506   4.241   6.692
  117OSM   H12A12167   0.535   4.306   6.773
  117OSM   H12B12168   0.399   4.251   6.674
  117OSM    C1112169   0.575   4.293   6.563
  117OSM   H11A12170   0.542   4.399   6.552
  117OSM   H11B12171   0.528   4.231   6.483
  117OSM      P12172   0.807   4.390   6.635
  117OSM    O1312173   0.773   4.399   6.777
  117OSM    O1412174   0.951   4.360   6.613
  117OSM    O1112175   0.773   4.520   6.563
  117OSM    O1212176   0.717   4.281   6.574
  117OSM    C1S12177   0.824   4.567   6.434
  117OSM    H1S12178   0.918   4.513   6.407
  117OSM    H1T12179   0.839   4.677   6.430
  117OSM     NF12180   0.819   4.518   6.175
  117OSM    HNF12181   0.801   4.575   6.096
  117OSM    C2S12182   0.741   4.527   6.305
  117OSM    H2S12183   0.699   4.428   6.331
  117OSM    C3S12184   0.611   4.620   6.298
  117OSM    H3S12185   0.648   4.721   6.268
  117OSM     O312186   0.554   4.643   6.428
  117OSM    HO312187   0.605   4.580   6.479
  117OSM    C4S12188   0.509   4.572   6.203
  117OSM    H4S12189   0.510   4.636   6.113
  117OSM    C5S12190   0.408   4.483   6.219
  117OSM    H5S12191   0.404   4.438   6.319
  117OSM    C6S12192   0.290   4.463   6.127
  117OSM    H6S12193   0.196   4.495   6.177
  117OSM    H6T12194   0.278   4.354   6.112
  117OSM    C7S12195   0.303   4.521   5.986
  117OSM    H7S12196   0.397   4.480   5.943
  117OSM    H7T12197   0.313   4.631   5.998
  117OSM    C8S12198   0.177   4.486   5.893
  117OSM    H8S12199   0.090   4.542   5.933
  117OSM    H8T12200   0.159   4.378   5.913
  117OSM    C9S12201   0.211   4.506   5.744
  117OSM    H9S12202   0.320   4.495   5.726
  117OSM    H9T12203   0.168   4.605   5.718
  117OSM   C10S12204   0.135   4.399   5.659
  117OSM   H10S12205   0.028   4.392   5.687
  117OSM   H10T12206   0.163   4.297   5.693
  117OSM   C11S12207   0.167   4.392   5.511
  117OSM   H11S12208   0.093   4.321   5.467
  117OSM   H11T12209   0.262   4.334   5.504
  117OSM   C12S12210   0.191   4.523   5.439
  117OSM   H12S12211   0.247   4.594   5.503
  117OSM   H12T12212   0.090   4.569   5.432
  117OSM   C13S12213   0.235   4.512   5.293
  117OSM   H13S12214   0.332   4.459   5.298
  117OSM   H13T12215   0.260   4.610   5.248
  117OSM   C14S12216   0.154   4.423   5.195
  117OSM   H14S12217   0.049   4.460   5.195
  117OSM   H14T12218   0.165   4.317   5.228
  117OSM   C15S12219   0.211   4.430   5.054
  117OSM   H15S12220   0.319   4.409   5.069
  117OSM   H15T12221   0.201   4.534   5.015
  117OSM   C16S12222   0.157   4.319   4.960
  117OSM   H16S12223   0.049   4.314   4.987
  117OSM   H16T12224   0.205   4.224   4.991
  117OSM   C17S12225   0.183   4.347   4.819
  117OSM   H17S12226   0.292   4.359   4.806
  117OSM   H17T12227   0.138   4.445   4.793
  117OSM   C18S12228   0.132   4.234   4.730
  117OSM   H18S12229   0.023   4.223   4.744
  117OSM   H18T12230   0.181   4.137   4.752
  117OSM   H18U12231   0.156   4.242   4.622
  117OSM    C1F12232   0.917   4.439   6.157
  117OSM     OF12233   0.932   4.337   6.220
  117OSM    C2F12234   0.996   4.466   6.039
  117OSM    H2F12235   0.995   4.572   6.004
  117OSM    H2G12236   0.950   4.401   5.962
  117OSM    C3F12237   1.140   4.409   6.059
  117OSM    H3F12238   1.134   4.308   6.105
  117OSM    H3G12239   1.187   4.476   6.135
  117OSM    C4F12240   1.227   4.412   5.929
  117OSM    H4F12241   1.333   4.430   5.957
  117OSM    H4G12242   1.188   4.500   5.874
  117OSM    C5F12243   1.223   4.298   5.830
  117OSM    H5F12244   1.120   4.275   5.795
  117OSM    H5G12245   1.278   4.211   5.873
  117OSM    C6F12246   1.309   4.344   5.709
  117OSM    H6F12247   1.409   4.367   5.751
  117OSM    H6G12248   1.262   4.432   5.661
  117OSM    C7F12249   1.333   4.226   5.614
  117OSM    H7F12250   1.240   4.174   5.583
  117OSM    H7G12251   1.383   4.148   5.676
  117OSM    C8F12252   1.422   4.252   5.491
  117OSM    H8F12253   1.449   4.155   5.443
  117OSM    H8G12254   1.520   4.301   5.512
  117OSM    C9F12255   1.346   4.346   5.402
  117OSM    H9F12256   1.308   4.436   5.452
  117OSM   C10F12257   1.329   4.339   5.271
  117OSM   H10F12258   1.275   4.417   5.217
  117OSM   C11F12259   1.375   4.211   5.196
  117OSM   H11F12260   1.282   4.150   5.197
  117OSM   H11G12261   1.454   4.162   5.257
  117OSM   C12F12262   1.445   4.204   5.055
  117OSM   H12F12263   1.471   4.100   5.027
  117OSM   H12G12264   1.539   4.263   5.059
  117OSM   C13F12265   1.359   4.262   4.943
  117OSM   H13F12266   1.420   4.264   4.849
  117OSM   H13G12267   1.321   4.361   4.976
  117OSM   C14F12268   1.243   4.168   4.899
  117OSM   H14F12269   1.188   4.151   4.994
  117OSM   H14G12270   1.287   4.071   4.869
  117OSM   C15F12271   1.155   4.221   4.795
  117OSM   H15F12272   1.104   4.314   4.829
  117OSM   H15G12273   1.074   4.146   4.781
  117OSM   C16F12274   1.219   4.248   4.660
  117OSM   H16F12275   1.291   4.166   4.639
  117OSM   H16G12276   1.269   4.345   4.678
  117OSM   C17F12277   1.124   4.264   4.532
  117OSM   H17F12278   1.189   4.257   4.442
  117OSM   H17G12279   1.086   4.368   4.538
  117OSM   C18F12280   1.009   4.163   4.510
  117OSM   H18F12281   1.050   4.061   4.492
  117OSM   H18G12282   0.943   4.210   4.434
  117OSM   H18H12283   0.960   4.163   4.610
  118OSM      N12284   0.466   3.442   6.659
  118OSM    C1512285   0.493   3.391   6.524
  118OSM   H15A12286   0.573   3.448   6.481
  118OSM   H15B12287   0.410   3.380   6.456
  118OSM   H15C12288   0.542   3.296   6.539
  118OSM    C1412289   0.596   3.435   6.746
  118OSM   H14A12290   0.647   3.340   6.738
  118OSM   H14B12291   0.579   3.454   6.851
  118OSM   H14C12292   0.663   3.508   6.704
  118OSM    C1312293   0.435   3.587   6.639
  118OSM   H13A12294   0.327   3.591   6.630
  118OSM   H13B12295   0.487   3.637   6.558
  118OSM   H13C12296   0.454   3.639   6.731
  118OSM    C1212297   0.359   3.355   6.726
  118OSM   H12A12298   0.273   3.348   6.661
  118OSM   H12B12299   0.329   3.406   6.817
  118OSM    C1112300   0.393   3.205   6.748
  118OSM   H11A12301   0.317   3.163   6.818
  118OSM   H11B12302   0.495   3.203   6.792
  118OSM      P12303   0.269   3.090   6.545
  118OSM    O1312304   0.245   2.948   6.562
  118OSM    O1412305   0.158   3.178   6.586
  118OSM    O1112306   0.304   3.107   6.401
  118OSM    O1212307   0.400   3.130   6.622
  118OSM    C1S12308   0.434   3.064   6.353
  118OSM    H1S12309   0.459   2.963   6.393
  118OSM    H1T12310   0.522   3.126   6.378
  118OSM     NF12311   0.532   2.973   6.145
  118OSM    HNF12312   0.621   3.016   6.131
  118OSM    C2S12313   0.427   3.058   6.195
  118OSM    H2S12314   0.329   3.012   6.168
  118OSM    C3S12315   0.427   3.202   6.133
  118OSM    H3S12316   0.519   3.254   6.166
  118OSM     O312317   0.321   3.280   6.189
  118OSM    HO312318   0.291   3.215   6.253
  118OSM    C4S12319   0.425   3.194   5.983
  118OSM    H4S12320   0.518   3.159   5.935
  118OSM    C5S12321   0.314   3.209   5.900
  118OSM    H5S12322   0.227   3.253   5.952
  118OSM    C6S12323   0.316   3.185   5.749
  118OSM    H6S12324   0.348   3.271   5.686
  118OSM    H6T12325   0.211   3.165   5.722
  118OSM    C7S12326   0.422   3.081   5.698
  118OSM    H7S12327   0.399   2.993   5.762
  118OSM    H7T12328   0.528   3.110   5.712
  118OSM    C8S12329   0.391   3.034   5.548
  118OSM    H8S12330   0.286   2.997   5.554
  118OSM    H8T12331   0.453   2.942   5.549
  118OSM    C9S12332   0.394   3.146   5.441
  118OSM    H9S12333   0.490   3.200   5.434
  118OSM    H9T12334   0.305   3.209   5.460
  118OSM   C10S12335   0.364   3.100   5.294
  118OSM   H10S12336   0.287   3.020   5.289
  118OSM   H10T12337   0.454   3.050   5.251
  118OSM   C11S12338   0.300   3.202   5.199
  118OSM   H11S12339   0.347   3.299   5.228
  118OSM   H11T12340   0.191   3.213   5.216
  118OSM   C12S12341   0.349   3.174   5.051
  118OSM   H12S12342   0.452   3.131   5.055
  118OSM   H12T12343   0.356   3.279   5.016
  118OSM   C13S12344   0.243   3.094   4.975
  118OSM   H13S12345   0.150   3.143   5.009
  118OSM   H13T12346   0.243   2.995   5.025
  118OSM   C14S12347   0.239   3.080   4.828
  118OSM   H14S12348   0.334   3.050   4.779
  118OSM   H14T12349   0.215   3.181   4.788
  118OSM   C15S12350   0.131   2.973   4.773
  118OSM   H15S12351   0.038   3.000   4.827
  118OSM   H15T12352   0.172   2.871   4.790
  118OSM   C16S12353   0.102   2.994   4.621
  118OSM   H16S12354   0.065   2.903   4.569
  118OSM   H16T12355   0.201   3.015   4.576
  118OSM   C17S12356   0.001   3.106   4.609
  118OSM   H17S12357   0.039   3.191   4.670
  118OSM   H17T12358   6.731   3.072   4.654
  118OSM   C18S12359   6.800   3.150   4.461
  118OSM   H18S12360   6.728   3.235   4.462
  118OSM   H18T12361   6.756   3.066   4.403
  118OSM   H18U12362   0.076   3.185   4.429
  118OSM    C1F12363   0.537   2.839   6.177
  118OSM     OF12364   0.443   2.785   6.236
  118OSM    C2F12365   0.657   2.764   6.135
  118OSM    H2F12366   0.730   2.752   6.219
  118OSM    H2G12367   0.718   2.819   6.060
  118OSM    C3F12368   0.619   2.619   6.094
  118OSM    H3F12369   0.568   2.564   6.176
  118OSM    H3G12370   0.716   2.564   6.088
  118OSM    C4F12371   0.543   2.600   5.962
  118OSM    H4F12372   0.445   2.648   5.983
  118OSM    H4G12373   0.518   2.493   5.948
  118OSM    C5F12374   0.603   2.652   5.835
  118OSM    H5F12375   0.713   2.634   5.835
  118OSM    H5G12376   0.593   2.763   5.831
  118OSM    C6F12377   0.523   2.600   5.714
  118OSM    H6F12378   0.424   2.651   5.715
  118OSM    H6G12379   0.508   2.489   5.715
  118OSM    C7F12380   0.587   2.628   5.576
  118OSM    H7F12381   0.687   2.581   5.576
  118OSM    H7G12382   0.595   2.738   5.563
  118OSM    C8F12383   0.512   2.561   5.463
  118OSM    H8F12384   0.405   2.592   5.459
  118OSM    H8G12385   0.503   2.451   5.475
  118OSM    C9F12386   0.595   2.569   5.336
  118OSM    H9F12387   0.700   2.542   5.359
  118OSM   C10F12388   0.564   2.610   5.207
  118OSM   H10F12389   0.636   2.594   5.126
  118OSM   C11F12390   0.429   2.651   5.153
  118OSM   H11F12391   0.370   2.723   5.214
  118OSM   H11G12392   0.362   2.563   5.142
  118OSM   C12F12393   0.431   2.712   5.013
  118OSM   H12F12394   0.497   2.801   5.011
  118OSM   H12G12395   0.330   2.754   4.991
  118OSM   C13F12396   0.468   2.621   4.898
  118OSM   H13F12397   0.381   2.555   4.879
  118OSM   H13G12398   0.564   2.567   4.911
  118OSM   C14F12399   0.504   2.708   4.776
  118OSM   H14F12400   0.568   2.797   4.791
  118OSM   H14G12401   0.408   2.727   4.723
  118OSM   C15F12402   0.583   2.632   4.676
  118OSM   H15F12403   0.515   2.544   4.671
  118OSM   H15G12404   0.684   2.602   4.712
  118OSM   C16F12405   0.598   2.697   4.541
  118OSM   H16F12406   0.655   2.793   4.541
  118OSM   H16G12407   0.498   2.723   4.500
  118OSM   C17F12408   0.652   2.599   4.438
  118OSM   H17F12409   0.661   2.659   4.346
  118OSM   H17G12410   0.591   2.508   4.420
  118OSM   C18F12411   0.797   2.552   4.464
  118OSM   H18F12412   0.840   2.501   4.376
  118OSM   H18G12413   0.813   2.485   4.552
  118OSM   H18H12414   0.858   2.641   4.489
  119OSM      N12415   2.988   1.114   7.360
  119OSM    C1512416   2.840   1.127   7.369
  119OSM   H15A12417   2.802   1.198   7.296
  119OSM   H15B12418   2.823   1.156   7.472
  119OSM   H15C12419   2.797   1.029   7.354
  119OSM    C1412420   3.050   1.240   7.391
  119OSM   H14A12421   3.012   1.264   7.489
  119OSM   H14B12422   3.018   1.317   7.323
  119OSM   H14C12423   3.157   1.237   7.403
  119OSM    C1312424   3.035   1.021   7.470
  119OSM   H13A12425   3.138   0.987   7.463
  119OSM   H13B12426   2.975   0.932   7.462
  119OSM   H13C12427   3.003   1.055   7.567
  119OSM    C1212428   3.037   1.060   7.223
  119OSM   H12A12429   2.997   0.960   7.215
  119OSM   H12B12430   3.144   1.049   7.221
  119OSM    C1112431   2.988   1.136   7.098
  119OSM   H11A12432   3.050   1.093   7.016
  119OSM   H11B12433   3.006   1.245   7.112
  119OSM      P12434   2.764   1.194   6.992
  119OSM    O1312435   2.627   1.140   6.982
  119OSM    O1412436   2.781   1.339   7.028
  119OSM    O1112437   2.831   1.180   6.850
  119OSM    O1212438   2.847   1.102   7.083
  119OSM    C1S12439   2.797   1.070   6.768
  119OSM    H1S12440   2.699   1.022   6.790
  119OSM    H1T12441   2.869   0.986   6.781
  119OSM     NF12442   2.768   0.982   6.533
  119OSM    HNF12443   2.836   0.946   6.469
  119OSM    C2S12444   2.800   1.103   6.616
  119OSM    H2S12445   2.713   1.172   6.604
  119OSM    C3S12446   2.925   1.179   6.564
  119OSM    H3S12447   3.000   1.097   6.563
  119OSM     O312448   2.972   1.278   6.655
  119OSM    HO312449   2.910   1.268   6.727
  119OSM    C4S12450   2.906   1.222   6.424
  119OSM    H4S12451   2.958   1.156   6.353
  119OSM    C5S12452   2.867   1.342   6.385
  119OSM    H5S12453   2.843   1.424   6.455
  119OSM    C6S12454   2.871   1.388   6.239
  119OSM    H6S12455   2.941   1.474   6.229
  119OSM    H6T12456   2.772   1.425   6.206
  119OSM    C7S12457   2.921   1.286   6.130
  119OSM    H7S12458   2.850   1.203   6.147
  119OSM    H7T12459   3.027   1.258   6.149
  119OSM    C8S12460   2.897   1.340   5.985
  119OSM    H8S12461   2.944   1.440   5.972
  119OSM    H8T12462   2.787   1.340   5.968
  119OSM    C9S12463   2.975   1.261   5.874
  119OSM    H9S12464   2.946   1.154   5.873
  119OSM    H9T12465   3.081   1.269   5.906
  119OSM   C10S12466   2.962   1.338   5.739
  119OSM   H10S12467   3.021   1.430   5.725
  119OSM   H10T12468   2.857   1.375   5.747
  119OSM   C11S12469   2.971   1.247   5.619
  119OSM   H11S12470   2.882   1.183   5.602
  119OSM   H11T12471   3.061   1.182   5.622
  119OSM   C12S12472   2.990   1.321   5.486
  119OSM   H12S12473   3.085   1.377   5.476
  119OSM   H12T12474   2.919   1.406   5.491
  119OSM   C13S12475   2.954   1.242   5.356
  119OSM   H13S12476   2.857   1.188   5.362
  119OSM   H13T12477   3.030   1.164   5.336
  119OSM   C14S12478   2.959   1.328   5.236
  119OSM   H14S12479   2.887   1.411   5.255
  119OSM   H14T12480   2.918   1.266   5.154
  119OSM   C15S12481   3.098   1.388   5.196
  119OSM   H15S12482   3.177   1.312   5.214
  119OSM   H15T12483   3.117   1.477   5.259
  119OSM   C16S12484   3.093   1.435   5.050
  119OSM   H16S12485   3.080   1.346   4.987
  119OSM   H16T12486   3.190   1.486   5.031
  119OSM   C17S12487   2.978   1.533   5.011
  119OSM   H17S12488   2.976   1.609   5.092
  119OSM   H17T12489   2.879   1.484   5.017
  119OSM   C18S12490   2.993   1.593   4.882
  119OSM   H18S12491   3.101   1.614   4.868
  119OSM   H18T12492   2.942   1.692   4.877
  119OSM   H18U12493   2.970   1.528   4.795
  119OSM    C1F12494   2.648   0.927   6.531
  119OSM     OF12495   2.559   0.981   6.591
  119OSM    C2F12496   2.623   0.795   6.452
  119OSM    H2F12497   2.521   0.793   6.409
  119OSM    H2G12498   2.632   0.715   6.530
  119OSM    C3F12499   2.731   0.747   6.347
  119OSM    H3F12500   2.694   0.649   6.309
  119OSM    H3G12501   2.823   0.726   6.405
  119OSM    C4F12502   2.754   0.841   6.230
  119OSM    H4F12503   2.790   0.942   6.261
  119OSM    H4G12504   2.656   0.861   6.182
  119OSM    C5F12505   2.851   0.785   6.128
  119OSM    H5F12506   2.813   0.698   6.070
  119OSM    H5G12507   2.942   0.760   6.186
  119OSM    C6F12508   2.892   0.891   6.016
  119OSM    H6F12509   2.932   0.979   6.070
  119OSM    H6G12510   2.798   0.923   5.968
  119OSM    C7F12511   3.003   0.849   5.914
  119OSM    H7F12512   3.098   0.839   5.972
  119OSM    H7G12513   3.012   0.936   5.845
  119OSM    C8F12514   2.982   0.733   5.826
  119OSM    H8F12515   2.971   0.639   5.884
  119OSM    H8G12516   3.067   0.715   5.755
  119OSM    C9F12517   2.856   0.755   5.741
  119OSM    H9F12518   2.760   0.726   5.786
  119OSM   C10F12519   2.851   0.823   5.622
  119OSM   H10F12520   2.761   0.824   5.558
  119OSM   C11F12521   2.978   0.860   5.548
  119OSM   H11F12522   3.072   0.858   5.608
  119OSM   H11G12523   2.981   0.960   5.500
  119OSM   C12F12524   3.006   0.766   5.434
  119OSM   H12F12525   2.919   0.769   5.365
  119OSM   H12G12526   3.010   0.660   5.468
  119OSM   C13F12527   3.134   0.796   5.361
  119OSM   H13F12528   3.213   0.803   5.438
  119OSM   H13G12529   3.119   0.898   5.320
  119OSM   C14F12530   3.181   0.698   5.249
  119OSM   H14F12531   3.188   0.593   5.285
  119OSM   H14G12532   3.285   0.728   5.223
  119OSM   C15F12533   3.086   0.696   5.128
  119OSM   H15F12534   2.984   0.680   5.170
  119OSM   H15G12535   3.120   0.619   5.057
  119OSM   C16F12536   3.076   0.820   5.041
  119OSM   H16F12537   3.052   0.899   5.116
  119OSM   H16G12538   2.995   0.805   4.966
  119OSM   C17F12539   3.205   0.853   4.974
  119OSM   H17F12540   3.241   0.769   4.911
  119OSM   H17G12541   3.278   0.863   5.057
  119OSM   C18F12542   3.191   0.979   4.886
  119OSM   H18F12543   3.093   0.961   4.836
  119OSM   H18G12544   3.272   0.997   4.813
  119OSM   H18H12545   3.187   1.073   4.945
  120OSM      N12546   5.879   4.208   6.577
  120OSM    C1512547   5.858   4.075   6.625
  120OSM   H15A12548   5.762   4.064   6.673
  120OSM   H15B12549   5.919   4.044   6.709
  120OSM   H15C12550   5.849   4.007   6.541
  120OSM    C1412551   5.871   4.296   6.694
  120OSM   H14A12552   5.770   4.294   6.730
  120OSM   H14B12553   5.894   4.397   6.663
  120OSM   H14C12554   5.939   4.257   6.769
  120OSM    C1312555   6.023   4.223   6.533
  120OSM   H13A12556   6.047   4.326   6.511
  120OSM   H13B12557   6.039   4.156   6.450
  120OSM   H13C12558   6.085   4.187   6.613
  120OSM    C1212559   5.771   4.247   6.471
  120OSM   H12A12560   5.679   4.200   6.504
  120OSM   H12B12561   5.784   4.191   6.379
  120OSM    C1112562   5.754   4.395   6.427
  120OSM   H11A12563   5.687   4.390   6.338
  120OSM   H11B12564   5.855   4.417   6.386
  120OSM      P12565   5.566   4.512   6.549
  120OSM    O1312566   5.479   4.390   6.550
  120OSM    O1412567   5.559   4.599   6.669
  120OSM    O1112568   5.524   4.603   6.427
  120OSM    O1212569   5.717   4.483   6.526
  120OSM    C1S12570   5.604   4.720   6.399
  120OSM    H1S12571   5.714   4.706   6.411
  120OSM    H1T12572   5.579   4.793   6.479
  120OSM     NF12573   5.671   4.856   6.208
  120OSM    HNF12574   5.636   4.949   6.203
  120OSM    C2S12575   5.578   4.757   6.251
  120OSM    H2S12576   5.593   4.657   6.206
  120OSM    C3S12577   5.429   4.802   6.225
  120OSM    H3S12578   5.410   4.907   6.256
  120OSM     O312579   5.333   4.721   6.292
  120OSM    HO312580   5.386   4.663   6.348
  120OSM    C4S12581   5.405   4.797   6.078
  120OSM    H4S12582   5.438   4.701   6.034
  120OSM    C5S12583   5.346   4.890   5.997
  120OSM    H5S12584   5.306   4.980   6.045
  120OSM    C6S12585   5.328   4.876   5.850
  120OSM    H6S12586   5.223   4.890   5.815
  120OSM    H6T12587   5.351   4.772   5.820
  120OSM    C7S12588   5.421   4.969   5.782
  120OSM    H7S12589   5.523   4.955   5.822
  120OSM    H7T12590   5.394   5.076   5.799
  120OSM    C8S12591   5.435   4.941   5.631
  120OSM    H8S12592   5.465   4.836   5.610
  120OSM    H8T12593   5.515   5.006   5.589
  120OSM    C9S12594   5.310   4.974   5.555
  120OSM    H9S12595   5.287   5.080   5.578
  120OSM    H9T12596   5.218   4.921   5.587
  120OSM   C10S12597   5.319   4.964   5.397
  120OSM   H10S12598   5.221   5.003   5.362
  120OSM   H10T12599   5.328   4.854   5.383
  120OSM   C11S12600   5.432   5.039   5.335
  120OSM   H11S12601   5.536   5.018   5.368
  120OSM   H11T12602   5.415   5.144   5.368
  120OSM   C12S12603   5.429   5.034   5.181
  120OSM   H12S12604   5.322   5.061   5.166
  120OSM   H12T12605   5.446   4.929   5.150
  120OSM   C13S12606   5.518   5.141   5.113
  120OSM   H13S12607   5.570   5.097   5.026
  120OSM   H13T12608   5.598   5.184   5.177
  120OSM   C14S12609   5.438   5.258   5.057
  120OSM   H14S12610   5.372   5.295   5.138
  120OSM   H14T12611   5.369   5.206   4.987
  120OSM   C15S12612   5.522   5.370   5.000
  120OSM   H15S12613   5.579   5.328   4.914
  120OSM   H15T12614   5.589   5.395   5.085
  120OSM   C16S12615   5.452   5.503   4.960
  120OSM   H16S12616   5.400   5.558   5.041
  120OSM   H16T12617   5.384   5.485   4.874
  120OSM   C17S12618   5.561   5.607   4.918
  120OSM   H17S12619   5.618   5.558   4.836
  120OSM   H17T12620   5.633   5.615   5.001
  120OSM   C18S12621   5.518   5.743   4.862
  120OSM   H18S12622   5.451   5.732   4.774
  120OSM   H18T12623   5.610   5.803   4.841
  120OSM   H18U12624   5.458   5.803   4.932
  120OSM    C1F12625   5.797   4.823   6.194
  120OSM     OF12626   5.842   4.712   6.226
  120OSM    C2F12627   5.876   4.925   6.119
  120OSM    H2F12628   5.963   4.958   6.181
  120OSM    H2G12629   5.822   5.016   6.084
  120OSM    C3F12630   5.943   4.865   5.993
  120OSM    H3F12631   6.003   4.777   6.027
  120OSM    H3G12632   6.016   4.937   5.950
  120OSM    C4F12633   5.850   4.827   5.876
  120OSM    H4F12634   5.776   4.909   5.883
  120OSM    H4G12635   5.813   4.725   5.900
  120OSM    C5F12636   5.916   4.806   5.736
  120OSM    H5F12637   5.962   4.706   5.724
  120OSM    H5G12638   6.002   4.876   5.732
  120OSM    C6F12639   5.824   4.831   5.616
  120OSM    H6F12640   5.778   4.932   5.627
  120OSM    H6G12641   5.741   4.758   5.614
  120OSM    C7F12642   5.900   4.828   5.483
  120OSM    H7F12643   5.893   4.727   5.436
  120OSM    H7G12644   6.006   4.852   5.503
  120OSM    C8F12645   5.849   4.926   5.378
  120OSM    H8F12646   5.846   5.029   5.420
  120OSM    H8G12647   5.748   4.887   5.350
  120OSM    C9F12648   5.946   4.931   5.258
  120OSM    H9F12649   6.052   4.940   5.285
  120OSM   C10F12650   5.910   4.919   5.128
  120OSM   H10F12651   5.997   4.910   5.062
  120OSM   C11F12652   5.774   4.908   5.067
  120OSM   H11F12653   5.769   4.983   4.985
  120OSM   H11G12654   5.698   4.926   5.146
  120OSM   C12F12655   5.751   4.764   5.007
  120OSM   H12F12656   5.656   4.770   4.951
  120OSM   H12G12657   5.748   4.698   5.097
  120OSM   C13F12658   5.858   4.712   4.907
  120OSM   H13F12659   5.822   4.609   4.885
  120OSM   H13G12660   5.949   4.701   4.970
  120OSM   C14F12661   5.865   4.796   4.776
  120OSM   H14F12662   5.918   4.892   4.790
  120OSM   H14G12663   5.756   4.804   4.752
  120OSM   C15F12664   5.948   4.726   4.663
  120OSM   H15F12665   5.892   4.643   4.615
  120OSM   H15G12666   6.031   4.682   4.722
  120OSM   C16F12667   6.005   4.825   4.570
  120OSM   H16F12668   5.923   4.896   4.544
  120OSM   H16G12669   6.046   4.770   4.483
  120OSM   C17F12670   6.122   4.907   4.621
  120OSM   H17F12671   6.206   4.842   4.650
  120OSM   H17G12672   6.088   4.957   4.714
  120OSM   C18F12673   6.159   5.015   4.521
  120OSM   H18F12674   6.200   4.971   4.428
  120OSM   H18G12675   6.229   5.087   4.568
  120OSM   H18H12676   6.074   5.082   4.494
  121OSM      N12677   0.282   0.721   7.125
  121OSM    C1512678   0.380   0.651   7.217
  121OSM   H15A12679   0.339   0.638   7.316
  121OSM   H15B12680   0.463   0.717   7.236
  121OSM   H15C12681   0.412   0.553   7.184
  121OSM    C1412682   0.366   0.759   7.003
  121OSM   H14A12683   0.301   0.765   6.917
  121OSM   H14B12684   0.434   0.679   6.976
  121OSM   H14C12685   0.423   0.850   7.018
  121OSM    C1312686   0.168   0.632   7.091
  121OSM   H13A12687   0.096   0.684   7.030
  121OSM   H13B12688   0.117   0.598   7.180
  121OSM   H13C12689   0.202   0.553   7.027
  121OSM    C1212690   0.219   0.852   7.195
  121OSM   H12A12691   0.303   0.919   7.205
  121OSM   H12B12692   0.177   0.839   7.293
  121OSM    C1112693   0.117   0.932   7.113
  121OSM   H11A12694   0.087   1.012   7.183
  121OSM   H11B12695   0.019   0.881   7.103
  121OSM      P12696   0.133   0.940   6.848
  121OSM    O1312697   0.203   1.027   6.754
  121OSM    O1412698   0.134   0.798   6.820
  121OSM    O1112699   6.804   0.974   6.863
  121OSM    O1212700   0.175   0.977   6.995
  121OSM    C1S12701   6.721   0.976   6.746
  121OSM    H1S12702   6.769   1.035   6.665
  121OSM    H1T12703   6.622   1.023   6.764
  121OSM     NF12704   6.626   0.834   6.557
  121OSM    HNF12705   6.529   0.819   6.542
  121OSM    C2S12706   6.681   0.830   6.694
  121OSM    H2S12707   6.773   0.771   6.676
  121OSM    C3S12708   6.597   0.743   6.801
  121OSM    H3S12709   6.491   0.778   6.798
  121OSM     O312710   6.647   0.749   6.936
  121OSM    HO312711   6.718   0.814   6.930
  121OSM    C4S12712   6.586   0.602   6.747
  121OSM    H4S12713   6.496   0.589   6.686
  121OSM    C5S12714   6.679   0.502   6.761
  121OSM    H5S12715   6.769   0.510   6.823
  121OSM    C6S12716   6.669   0.368   6.688
  121OSM    H6S12717   6.618   0.302   6.761
  121OSM    H6T12718   6.767   0.323   6.664
  121OSM    C7S12719   6.575   0.371   6.557
  121OSM    H7S12720   6.480   0.420   6.588
  121OSM    H7T12721   6.558   0.268   6.519
  121OSM    C8S12722   6.631   0.459   6.448
  121OSM    H8S12723   6.655   0.562   6.481
  121OSM    H8T12724   6.551   0.481   6.374
  121OSM    C9S12725   6.755   0.404   6.380
  121OSM    H9S12726   6.732   0.301   6.348
  121OSM    H9T12727   0.008   0.395   6.459
  121OSM   C10S12728   6.788   0.502   6.271
  121OSM   H10S12729   6.799   0.600   6.323
  121OSM   H10T12730   6.700   0.509   6.205
  121OSM   C11S12731   0.091   0.471   6.191
  121OSM   H11S12732   0.119   0.367   6.167
  121OSM   H11T12733   0.182   0.507   6.244
  121OSM   C12S12734   0.079   0.550   6.054
  121OSM   H12S12735   0.046   0.656   6.062
  121OSM   H12T12736   6.824   0.499   5.997
  121OSM   C13S12737   0.203   0.532   5.968
  121OSM   H13S12738   0.256   0.436   5.983
  121OSM   H13T12739   0.276   0.609   5.999
  121OSM   C14S12740   0.167   0.543   5.820
  121OSM   H14S12741   0.115   0.447   5.797
  121OSM   H14T12742   0.257   0.547   5.756
  121OSM   C15S12743   0.081   0.657   5.774
  121OSM   H15S12744   0.130   0.755   5.788
  121OSM   H15T12745   6.805   0.659   5.820
  121OSM   C16S12746   0.060   0.650   5.621
  121OSM   H16S12747   6.783   0.691   5.603
  121OSM   H16T12748   0.060   0.544   5.588
  121OSM   C17S12749   0.159   0.728   5.540
  121OSM   H17S12750   0.258   0.706   5.585
  121OSM   H17T12751   0.133   0.836   5.548
  121OSM   C18S12752   0.145   0.695   5.392
  121OSM   H18S12753   0.225   0.740   5.329
  121OSM   H18T12754   0.054   0.751   5.363
  121OSM   H18U12755   0.142   0.586   5.371
  121OSM    C1F12756   6.697   0.871   6.451
  121OSM     OF12757   6.818   0.889   6.460
  121OSM    C2F12758   6.627   0.882   6.324
  121OSM    H2F12759   6.551   0.963   6.327
  121OSM    H2G12760   6.575   0.786   6.301
  121OSM    C3F12761   6.720   0.906   6.199
  121OSM    H3F12762   6.782   0.816   6.180
  121OSM    H3G12763   6.779   1.000   6.205
  121OSM    C4F12764   6.637   0.930   6.071
  121OSM    H4F12765   6.592   1.031   6.076
  121OSM    H4G12766   6.541   0.875   6.055
  121OSM    C5F12767   6.716   0.919   5.938
  121OSM    H5F12768   6.719   0.814   5.901
  121OSM    H5G12769   6.815   0.959   5.966
  121OSM    C6F12770   6.680   1.026   5.830
  121OSM    H6F12771   6.756   1.020   5.749
  121OSM    H6G12772   6.705   1.125   5.873
  121OSM    C7F12773   6.538   1.001   5.781
  121OSM    H7F12774   6.460   1.063   5.830
  121OSM    H7G12775   6.521   0.892   5.792
  121OSM    C8F12776   6.521   1.025   5.627
  121OSM    H8F12777   6.532   1.135   5.616
  121OSM    H8G12778   6.419   1.002   5.588
  121OSM    C9F12779   6.612   0.950   5.530
  121OSM    H9F12780   6.659   0.863   5.580
  121OSM   C10F12781   6.633   0.992   5.403
  121OSM   H10F12782   6.709   0.937   5.345
  121OSM   C11F12783   6.569   1.099   5.327
  121OSM   H11F12784   6.555   1.188   5.393
  121OSM   H11G12785   6.472   1.056   5.295
  121OSM   C12F12786   6.658   1.145   5.207
  121OSM   H12F12787   6.760   1.169   5.242
  121OSM   H12G12788   6.607   1.239   5.176
  121OSM   C13F12789   6.651   1.050   5.086
  121OSM   H13F12790   6.666   0.951   5.133
  121OSM   H13G12791   6.737   1.067   5.017
  121OSM   C14F12792   6.531   1.071   4.994
  121OSM   H14F12793   6.434   1.092   5.045
  121OSM   H14G12794   6.520   0.967   4.958
  121OSM   C15F12795   6.557   1.166   4.878
  121OSM   H15F12796   6.637   1.141   4.806
  121OSM   H15G12797   6.581   1.262   4.929
  121OSM   C16F12798   6.449   1.185   4.776
  121OSM   H16F12799   6.483   1.270   4.713
  121OSM   H16G12800   6.352   1.223   4.813
  121OSM   C17F12801   6.417   1.063   4.698
  121OSM   H17F12802   6.369   0.981   4.756
  121OSM   H17G12803   6.506   1.012   4.655
  121OSM   C18F12804   6.326   1.098   4.582
  121OSM   H18F12805   6.306   1.006   4.523
  121OSM   H18G12806   6.369   1.170   4.510
  121OSM   H18H12807   6.233   1.146   4.619
  122OSM      N12808   6.352   3.083   6.725
  122OSM    C1512809   6.237   3.055   6.821
  122OSM   H15A12810   6.217   3.147   6.873
  122OSM   H15B12811   6.258   2.972   6.886
  122OSM   H15C12812   6.147   3.021   6.772
  122OSM    C1412813   6.484   3.094   6.792
  122OSM   H14A12814   6.478   3.166   6.872
  122OSM   H14B12815   6.557   3.122   6.717
  122OSM   H14C12816   6.516   2.994   6.815
  122OSM    C1312817   6.352   2.969   6.631
  122OSM   H13A12818   6.398   2.990   6.535
  122OSM   H13B12819   6.249   2.942   6.610
  122OSM   H13C12820   6.406   2.885   6.671
  122OSM    C1212821   6.313   3.214   6.659
  122OSM   H12A12822   6.321   3.293   6.733
  122OSM   H12B12823   6.208   3.206   6.636
  122OSM    C1112824   6.395   3.252   6.540
  122OSM   H11A12825   6.334   3.324   6.481
  122OSM   H11B12826   6.417   3.160   6.482
  122OSM      P12827   6.542   3.426   6.664
  122OSM    O1312828   6.450   3.427   6.777
  122OSM    O1412829   6.685   3.456   6.691
  122OSM    O1112830   6.492   3.545   6.571
  122OSM    O1212831   6.527   3.299   6.572
  122OSM    C1S12832   6.562   3.571   6.445
  122OSM    H1S12833   6.527   3.506   6.362
  122OSM    H1T12834   6.673   3.560   6.450
  122OSM     NF12835   6.559   3.734   6.243
  122OSM    HNF12836   6.632   3.800   6.223
  122OSM    C2S12837   6.531   3.719   6.384
  122OSM    H2S12838   6.421   3.725   6.396
  122OSM    C3S12839   6.594   3.824   6.469
  122OSM    H3S12840   6.705   3.813   6.474
  122OSM     O312841   6.566   3.818   6.607
  122OSM    HO312842   6.526   3.733   6.631
  122OSM    C4S12843   6.551   3.964   6.433
  122OSM    H4S12844   6.605   4.009   6.349
  122OSM    C5S12845   6.433   4.023   6.466
  122OSM    H5S12846   6.358   3.963   6.520
  122OSM    C6S12847   6.374   4.147   6.397
  122OSM    H6S12848   6.457   4.206   6.353
  122OSM    H6T12849   6.316   4.215   6.464
  122OSM    C7S12850   6.275   4.115   6.282
  122OSM    H7S12851   6.201   4.043   6.324
  122OSM    H7T12852   6.329   4.061   6.201
  122OSM    C8S12853   6.216   4.247   6.227
  122OSM    H8S12854   6.296   4.320   6.201
  122OSM    H8T12855   6.157   4.294   6.309
  122OSM    C9S12856   6.128   4.235   6.103
  122OSM    H9S12857   6.046   4.169   6.141
  122OSM    H9T12858   6.183   4.184   6.021
  122OSM   C10S12859   6.076   4.375   6.058
  122OSM   H10S12860   6.162   4.432   6.018
  122OSM   H10T12861   6.029   4.422   6.147
  122OSM   C11S12862   5.994   4.362   5.929
  122OSM   H11S12863   6.047   4.316   5.843
  122OSM   H11T12864   5.982   4.463   5.884
  122OSM   C12S12865   5.845   4.312   5.949
  122OSM   H12S12866   5.786   4.393   5.997
  122OSM   H12T12867   5.841   4.221   6.012
  122OSM   C13S12868   5.775   4.273   5.819
  122OSM   H13S12869   5.669   4.244   5.834
  122OSM   H13T12870   5.831   4.187   5.776
  122OSM   C14S12871   5.771   4.384   5.714
  122OSM   H14S12872   5.874   4.423   5.704
  122OSM   H14T12873   5.706   4.469   5.744
  122OSM   C15S12874   5.710   4.337   5.584
  122OSM   H15S12875   5.608   4.302   5.613
  122OSM   H15T12876   5.762   4.246   5.546
  122OSM   C16S12877   5.724   4.441   5.466
  122OSM   H16S12878   5.810   4.448   5.397
  122OSM   H16T12879   5.720   4.544   5.508
  122OSM   C17S12880   5.593   4.431   5.380
  122OSM   H17S12881   5.507   4.447   5.449
  122OSM   H17T12882   5.590   4.328   5.339
  122OSM   C18S12883   5.578   4.533   5.265
  122OSM   H18S12884   5.682   4.557   5.234
  122OSM   H18T12885   5.537   4.624   5.315
  122OSM   H18U12886   5.533   4.495   5.172
  122OSM    C1F12887   6.494   3.670   6.143
  122OSM     OF12888   6.384   3.621   6.163
  122OSM    C2F12889   6.553   3.672   6.011
  122OSM    H2F12890   6.580   3.570   5.977
  122OSM    H2G12891   6.645   3.735   6.008
  122OSM    C3F12892   6.469   3.736   5.893
  122OSM    H3F12893   6.452   3.839   5.931
  122OSM    H3G12894   6.368   3.691   5.882
  122OSM    C4F12895   6.547   3.717   5.758
  122OSM    H4F12896   6.561   3.607   5.748
  122OSM    H4G12897   6.644   3.770   5.774
  122OSM    C5F12898   6.462   3.771   5.636
  122OSM    H5F12899   6.410   3.864   5.666
  122OSM    H5G12900   6.375   3.704   5.619
  122OSM    C6F12901   6.545   3.790   5.508
  122OSM    H6F12902   6.586   3.688   5.495
  122OSM    H6G12903   6.630   3.858   5.527
  122OSM    C7F12904   6.475   3.838   5.377
  122OSM    H7F12905   6.403   3.914   5.415
  122OSM    H7G12906   6.415   3.753   5.340
  122OSM    C8F12907   6.563   3.902   5.272
  122OSM    H8F12908   6.638   3.829   5.235
  122OSM    H8G12909   6.622   3.988   5.310
  122OSM    C9F12910   6.469   3.938   5.151
  122OSM    H9F12911   6.371   3.978   5.181
  122OSM   C10F12912   6.494   3.932   5.021
  122OSM   H10F12913   6.411   3.954   4.952
  122OSM   C11F12914   6.614   3.875   4.942
  122OSM   H11F12915   6.688   3.819   5.002
  122OSM   H11G12916   6.667   3.954   4.884
  122OSM   C12F12917   6.572   3.770   4.835
  122OSM   H12F12918   6.509   3.688   4.875
  122OSM   H12G12919   6.662   3.723   4.790
  122OSM   C13F12920   6.492   3.825   4.715
  122OSM   H13F12921   6.541   3.913   4.669
  122OSM   H13G12922   6.392   3.847   4.758
  122OSM   C14F12923   6.476   3.716   4.612
  122OSM   H14F12924   6.443   3.623   4.663
  122OSM   H14G12925   6.566   3.683   4.556
  122OSM   C15F12926   6.356   3.753   4.520
  122OSM   H15F12927   6.263   3.759   4.581
  122OSM   H15G12928   6.338   3.656   4.468
  122OSM   C16F12929   6.385   3.872   4.428
  122OSM   H16F12930   6.477   3.848   4.370
  122OSM   H16G12931   6.399   3.959   4.495
  122OSM   C17F12932   6.273   3.909   4.333
  122OSM   H17F12933   6.177   3.922   4.388
  122OSM   H17G12934   6.278   3.829   4.256
  122OSM   C18F12935   6.303   4.040   4.249
  122OSM   H18F12936   6.315   4.131   4.312
  122OSM   H18G12937   6.218   4.062   4.181
  122OSM   H18H12938   6.393   4.019   4.188
  123OSM      N12939   2.393   2.423   1.865
  123OSM    C1512940   2.258   2.365   1.856
  123OSM   H15A12941   2.253   2.308   1.765
  123OSM   H15B12942   2.189   2.447   1.870
  123OSM   H15C12943   2.232   2.304   1.942
  123OSM    C1412944   2.415   2.505   1.744
  123OSM   H14A12945   2.436   2.443   1.658
  123OSM   H14B12946   2.508   2.561   1.739
  123OSM   H14C12947   2.340   2.579   1.722
  123OSM    C1312948   2.382   2.506   1.983
  123OSM   H13A12949   2.299   2.575   1.988
  123OSM   H13B12950   2.463   2.577   1.984
  123OSM   H13C12951   2.374   2.450   2.075
  123OSM    C1212952   2.498   2.319   1.865
  123OSM   H12A12953   2.586   2.358   1.915
  123OSM   H12B12954   2.535   2.301   1.765
  123OSM    C1112955   2.464   2.182   1.929
  123OSM   H11A12956   2.548   2.110   1.916
  123OSM   H11B12957   2.378   2.137   1.876
  123OSM      P12958   2.557   2.239   2.178
  123OSM    O1312959   2.613   2.139   2.271
  123OSM    O1412960   2.655   2.318   2.097
  123OSM    O1112961   2.458   2.343   2.258
  123OSM    O1212962   2.448   2.187   2.079
  123OSM    C1S12963   2.341   2.308   2.321
  123OSM    H1S12964   2.291   2.217   2.282
  123OSM    H1T12965   2.271   2.391   2.294
  123OSM     NF12966   2.237   2.244   2.523
  123OSM    HNF12967   2.175   2.298   2.580
  123OSM    C2S12968   2.354   2.302   2.470
  123OSM    H2S12969   2.442   2.246   2.506
  123OSM    C3S12970   2.372   2.448   2.509
  123OSM    H3S12971   2.290   2.507   2.463
  123OSM     O312972   2.480   2.523   2.452
  123OSM    HO312973   2.519   2.465   2.386
  123OSM    C4S12974   2.384   2.459   2.659
  123OSM    H4S12975   2.288   2.461   2.714
  123OSM    C5S12976   2.489   2.467   2.742
  123OSM    H5S12977   2.590   2.477   2.700
  123OSM    C6S12978   2.489   2.472   2.894
  123OSM    H6S12979   2.541   2.562   2.932
  123OSM    H6T12980   2.544   2.378   2.918
  123OSM    C7S12981   2.357   2.462   2.972
  123OSM    H7S12982   2.302   2.370   2.944
  123OSM    H7T12983   2.290   2.551   2.961
  123OSM    C8S12984   2.386   2.438   3.120
  123OSM    H8S12985   2.436   2.529   3.160
  123OSM    H8T12986   2.471   2.367   3.137
  123OSM    C9S12987   2.265   2.390   3.207
  123OSM    H9S12988   2.236   2.289   3.172
  123OSM    H9T12989   2.185   2.464   3.184
  123OSM   C10S12990   2.291   2.395   3.357
  123OSM   H10S12991   2.206   2.360   3.420
  123OSM   H10T12992   2.316   2.503   3.371
  123OSM   C11S12993   2.407   2.306   3.411
  123OSM   H11S12994   2.503   2.329   3.359
  123OSM   H11T12995   2.382   2.200   3.388
  123OSM   C12S12996   2.434   2.322   3.561
  123OSM   H12S12997   2.341   2.298   3.618
  123OSM   H12T12998   2.453   2.429   3.583
  123OSM   C13S12999   2.537   2.228   3.612
  123OSM   H13S13000   2.643   2.252   3.588
  123OSM   H13T13001   2.523   2.124   3.575
  123OSM   C14S13002   2.552   2.231   3.764
  123OSM   H14S13003   2.631   2.154   3.782
  123OSM   H14T13004   2.465   2.196   3.823
  123OSM   C15S13005   2.585   2.369   3.813
  123OSM   H15S13006   2.491   2.429   3.815
  123OSM   H15T13007   2.652   2.423   3.743
  123OSM   C16S13008   2.638   2.361   3.956
  123OSM   H16S13009   2.738   2.313   3.941
  123OSM   H16T13010   2.569   2.305   4.022
  123OSM   C17S13011   2.645   2.500   4.028
  123OSM   H17S13012   2.543   2.543   4.039
  123OSM   H17T13013   2.724   2.553   3.970
  123OSM   C18S13014   2.696   2.501   4.171
  123OSM   H18S13015   2.805   2.479   4.178
  123OSM   H18T13016   2.647   2.419   4.228
  123OSM   H18U13017   2.674   2.591   4.232
  123OSM    C1F13018   2.208   2.112   2.518
  123OSM     OF13019   2.281   2.034   2.456
  123OSM    C2F13020   2.089   2.068   2.590
  123OSM    H2F13021   2.020   2.019   2.517
  123OSM    H2G13022   2.046   2.154   2.645
  123OSM    C3F13023   2.128   1.969   2.703
  123OSM    H3F13024   2.184   1.881   2.664
  123OSM    H3G13025   2.032   1.936   2.749
  123OSM    C4F13026   2.203   2.037   2.820
  123OSM    H4F13027   2.157   2.136   2.839
  123OSM    H4G13028   2.305   2.060   2.781
  123OSM    C5F13029   2.208   1.942   2.934
  123OSM    H5F13030   2.309   1.927   2.979
  123OSM    H5G13031   2.173   1.844   2.895
  123OSM    C6F13032   2.113   1.982   3.050
  123OSM    H6F13033   2.008   1.990   3.016
  123OSM    H6G13034   2.141   2.085   3.082
  123OSM    C7F13035   2.112   1.878   3.158
  123OSM    H7F13036   2.213   1.850   3.195
  123OSM    H7G13037   2.055   1.790   3.123
  123OSM    C8F13038   2.040   1.917   3.295
  123OSM    H8F13039   2.100   1.998   3.343
  123OSM    H8G13040   2.062   1.832   3.363
  123OSM    C9F13041   1.890   1.935   3.273
  123OSM    H9F13042   1.867   2.038   3.241
  123OSM   C10F13043   1.794   1.835   3.286
  123OSM   H10F13044   1.689   1.864   3.269
  123OSM   C11F13045   1.813   1.693   3.315
  123OSM   H11F13046   1.918   1.656   3.319
  123OSM   H11G13047   1.769   1.638   3.230
  123OSM   C12F13048   1.744   1.634   3.442
  123OSM   H12F13049   1.760   1.524   3.452
  123OSM   H12G13050   1.634   1.650   3.436
  123OSM   C13F13051   1.805   1.703   3.564
  123OSM   H13F13052   1.767   1.807   3.558
  123OSM   H13G13053   1.915   1.694   3.546
  123OSM   C14F13054   1.752   1.654   3.702
  123OSM   H14F13055   1.767   1.545   3.715
  123OSM   H14G13056   1.644   1.680   3.690
  123OSM   C15F13057   1.818   1.726   3.826
  123OSM   H15F13058   1.773   1.827   3.824
  123OSM   H15G13059   1.927   1.737   3.806
  123OSM   C16F13060   1.786   1.661   3.955
  123OSM   H16F13061   1.840   1.564   3.958
  123OSM   H16G13062   1.677   1.644   3.965
  123OSM   C17F13063   1.800   1.755   4.074
  123OSM   H17F13064   1.775   1.861   4.054
  123OSM   H17G13065   1.908   1.754   4.099
  123OSM   C18F13066   1.721   1.716   4.192
  123OSM   H18F13067   1.613   1.711   4.165
  123OSM   H18G13068   1.750   1.782   4.276
  123OSM   H18H13069   1.763   1.620   4.228
  124OSM      N13070   3.029   3.305   1.669
  124OSM    C1513071   2.961   3.429   1.647
  124OSM   H15A13072   3.002   3.477   1.559
  124OSM   H15B13073   2.973   3.497   1.729
  124OSM   H15C13074   2.855   3.410   1.638
  124OSM    C1413075   2.980   3.201   1.576
  124OSM   H14A13076   3.025   3.207   1.478
  124OSM   H14B13077   2.872   3.209   1.574
  124OSM   H14C13078   3.008   3.100   1.601
  124OSM    C1313079   3.177   3.329   1.632
  124OSM   H13A13080   3.181   3.364   1.530
  124OSM   H13B13081   3.225   3.232   1.636
  124OSM   H13C13082   3.217   3.400   1.703
  124OSM    C1213083   3.018   3.267   1.816
  124OSM   H12A13084   3.081   3.181   1.833
  124OSM   H12B13085   2.916   3.238   1.837
  124OSM    C1113086   3.056   3.367   1.927
  124OSM   H11A13087   3.153   3.403   1.887
  124OSM   H11B13088   3.068   3.321   2.027
  124OSM      P13089   2.813   3.435   1.976
  124OSM    O1313090   2.751   3.553   2.037
  124OSM    O1413091   2.741   3.381   1.859
  124OSM    O1113092   2.826   3.324   2.087
  124OSM    O1213093   2.960   3.479   1.931
  124OSM    C1S13094   2.869   3.345   2.223
  124OSM    H1S13095   2.946   3.424   2.235
  124OSM    H1T13096   2.908   3.248   2.261
  124OSM     NF13097   2.787   3.392   2.461
  124OSM    HNF13098   2.770   3.310   2.515
  124OSM    C2S13099   2.744   3.380   2.320
  124OSM    H2S13100   2.712   3.483   2.295
  124OSM    C3S13101   2.625   3.284   2.295
  124OSM    H3S13102   2.662   3.184   2.326
  124OSM     O313103   2.567   3.271   2.168
  124OSM    HO313104   2.627   3.324   2.115
  124OSM    C4S13105   2.514   3.311   2.394
  124OSM    H4S13106   2.524   3.244   2.481
  124OSM    C5S13107   2.416   3.402   2.382
  124OSM    H5S13108   2.419   3.475   2.300
  124OSM    C6S13109   2.314   3.431   2.490
  124OSM    H6S13110   2.213   3.417   2.446
  124OSM    H6T13111   2.324   3.536   2.525
  124OSM    C7S13112   2.328   3.346   2.620
  124OSM    H7S13113   2.429   3.333   2.665
  124OSM    H7T13114   2.278   3.248   2.608
  124OSM    C8S13115   2.246   3.417   2.732
  124OSM    H8S13116   2.138   3.426   2.706
  124OSM    H8T13117   2.267   3.525   2.751
  124OSM    C9S13118   2.264   3.339   2.863
  124OSM    H9S13119   2.370   3.340   2.897
  124OSM    H9T13120   2.237   3.234   2.840
  124OSM   C10S13121   2.173   3.377   2.983
  124OSM   H10S13122   2.070   3.389   2.944
  124OSM   H10T13123   2.204   3.480   3.010
  124OSM   C11S13124   2.187   3.282   3.103
  124OSM   H11S13125   2.296   3.276   3.128
  124OSM   H11T13126   2.152   3.181   3.070
  124OSM   C12S13127   2.108   3.337   3.220
  124OSM   H12S13128   2.003   3.318   3.189
  124OSM   H12T13129   2.126   3.446   3.235
  124OSM   C13S13130   2.137   3.240   3.335
  124OSM   H13S13131   2.244   3.209   3.341
  124OSM   H13T13132   2.079   3.146   3.325
  124OSM   C14S13133   2.079   3.286   3.463
  124OSM   H14S13134   1.971   3.298   3.440
  124OSM   H14T13135   2.141   3.378   3.478
  124OSM   C15S13136   2.108   3.196   3.583
  124OSM   H15S13137   2.211   3.191   3.624
  124OSM   H15T13138   2.086   3.088   3.566
  124OSM   C16S13139   2.034   3.256   3.707
  124OSM   H16S13140   1.924   3.255   3.687
  124OSM   H16T13141   2.071   3.359   3.721
  124OSM   C17S13142   2.055   3.181   3.838
  124OSM   H17S13143   1.979   3.220   3.910
  124OSM   H17T13144   2.157   3.213   3.866
  124OSM   C18S13145   2.041   3.026   3.836
  124OSM   H18S13146   2.141   2.996   3.800
  124OSM   H18T13147   1.961   2.992   3.766
  124OSM   H18U13148   2.016   2.990   3.938
  124OSM    C1F13149   2.876   3.481   2.507
  124OSM     OF13150   2.930   3.564   2.433
  124OSM    C2F13151   2.905   3.480   2.653
  124OSM    H2F13152   2.880   3.377   2.686
  124OSM    H2G13153   2.851   3.559   2.711
  124OSM    C3F13154   3.050   3.509   2.675
  124OSM    H3F13155   3.079   3.607   2.631
  124OSM    H3G13156   3.110   3.434   2.619
  124OSM    C4F13157   3.096   3.516   2.821
  124OSM    H4F13158   3.207   3.523   2.818
  124OSM    H4G13159   3.070   3.419   2.870
  124OSM    C5F13160   3.037   3.630   2.910
  124OSM    H5F13161   2.960   3.688   2.855
  124OSM    H5G13162   3.112   3.707   2.939
  124OSM    C6F13163   2.953   3.572   3.028
  124OSM    H6F13164   2.865   3.517   2.988
  124OSM    H6G13165   2.897   3.657   3.071
  124OSM    C7F13166   3.028   3.485   3.126
  124OSM    H7F13167   3.130   3.526   3.111
  124OSM    H7G13168   3.025   3.377   3.097
  124OSM    C8F13169   2.974   3.487   3.269
  124OSM    H8F13170   2.870   3.447   3.260
  124OSM    H8G13171   2.963   3.595   3.292
  124OSM    C9F13172   3.058   3.419   3.371
  124OSM    H9F13173   3.126   3.345   3.327
  124OSM   C10F13174   3.034   3.426   3.502
  124OSM   H10F13175   3.097   3.366   3.570
  124OSM   C11F13176   2.939   3.503   3.585
  124OSM   H11F13177   2.883   3.572   3.519
  124OSM   H11G13178   2.991   3.564   3.662
  124OSM   C12F13179   2.832   3.420   3.650
  124OSM   H12F13180   2.770   3.368   3.574
  124OSM   H12G13181   2.770   3.493   3.706
  124OSM   C13F13182   2.879   3.320   3.751
  124OSM   H13F13183   2.919   3.232   3.697
  124OSM   H13G13184   2.795   3.286   3.815
  124OSM   C14F13185   2.993   3.360   3.849
  124OSM   H14F13186   2.970   3.466   3.875
  124OSM   H14G13187   3.097   3.363   3.809
  124OSM   C15F13188   2.997   3.268   3.976
  124OSM   H15F13189   3.022   3.171   3.929
  124OSM   H15G13190   2.900   3.268   4.030
  124OSM   C16F13191   3.116   3.307   4.066
  124OSM   H16F13192   3.205   3.337   4.007
  124OSM   H16G13193   3.149   3.218   4.123
  124OSM   C17F13194   3.079   3.417   4.171
  124OSM   H17F13195   2.975   3.397   4.203
  124OSM   H17G13196   3.093   3.516   4.122
  124OSM   C18F13197   3.174   3.414   4.290
  124OSM   H18F13198   3.281   3.411   4.260
  124OSM   H18G13199   3.155   3.324   4.353
  124OSM   H18H13200   3.159   3.508   4.348
  125OSM      N13201   4.206   5.964   2.210
  125OSM    C1513202   4.329   6.011   2.125
  125OSM   H15A13203   4.419   5.968   2.165
  125OSM   H15B13204   4.323   6.118   2.136
  125OSM   H15C13205   4.330   5.988   2.020
  125OSM    C1413206   4.081   6.023   2.150
  125OSM   H14A13207   3.993   5.977   2.192
  125OSM   H14B13208   4.073   6.000   2.044
  125OSM   H14C13209   4.074   6.126   2.180
  125OSM    C1313210   4.193   5.812   2.199
  125OSM   H13A13211   4.285   5.763   2.226
  125OSM   H13B13212   4.176   5.788   2.095
  125OSM   H13C13213   4.105   5.789   2.258
  125OSM    C1213214   4.210   6.005   2.352
  125OSM   H12A13215   4.299   5.968   2.401
  125OSM   H12B13216   4.132   5.950   2.403
  125OSM    C1113217   4.208   6.154   2.387
  125OSM   H11A13218   4.289   6.204   2.329
  125OSM   H11B13219   4.234   6.163   2.495
  125OSM      P13220   4.077   6.362   2.309
  125OSM    O1313221   4.158   6.377   2.187
  125OSM    O1413222   3.937   6.413   2.302
  125OSM    O1113223   4.164   6.442   2.418
  125OSM    O1213224   4.083   6.216   2.366
  125OSM    C1S13225   4.129   6.436   2.554
  125OSM    H1S13226   4.161   6.341   2.602
  125OSM    H1T13227   4.019   6.433   2.569
  125OSM     NF13228   4.122   6.550   2.773
  125OSM    HNF13229   4.047   6.613   2.792
  125OSM    C2S13230   4.174   6.561   2.641
  125OSM    H2S13231   4.284   6.550   2.642
  125OSM    C3S13232   4.137   6.697   2.568
  125OSM    H3S13233   4.029   6.695   2.542
  125OSM     O313234   4.205   6.728   2.445
  125OSM    HO313235   4.228   6.644   2.404
  125OSM    C4S13236   4.178   6.813   2.658
  125OSM    H4S13237   4.281   6.809   2.697
  125OSM    C5S13238   4.091   0.083   2.707
  125OSM    H5S13239   3.986   0.065   2.683
  125OSM    C6S13240   4.119   0.189   2.816
  125OSM    H6S13241   4.030   0.254   2.831
  125OSM    H6T13242   4.196   0.257   2.774
  125OSM    C7S13243   4.173   0.129   2.947
  125OSM    H7S13244   4.211   0.211   3.011
  125OSM    H7T13245   4.254   0.054   2.935
  125OSM    C8S13246   4.072   0.056   3.042
  125OSM    H8S13247   4.016   6.799   2.992
  125OSM    H8T13248   3.998   0.129   3.082
  125OSM    C9S13249   4.135   6.823   3.172
  125OSM    H9S13250   4.177   0.085   3.226
  125OSM    H9T13251   4.221   6.756   3.151
  125OSM   C10S13252   4.026   6.752   3.261
  125OSM   H10S13253   3.998   6.654   3.217
  125OSM   H10T13254   3.931   6.809   3.264
  125OSM   C11S13255   4.074   6.722   3.404
  125OSM   H11S13256   4.135   6.808   3.440
  125OSM   H11T13257   4.143   6.635   3.401
  125OSM   C12S13258   3.967   6.678   3.510
  125OSM   H12S13259   3.923   6.581   3.479
  125OSM   H12T13260   3.883   6.750   3.518
  125OSM   C13S13261   4.023   6.641   3.651
  125OSM   H13S13262   4.091   6.554   3.650
  125OSM   H13T13263   3.934   6.615   3.712
  125OSM   C14S13264   4.082   6.763   3.725
  125OSM   H14S13265   4.017   0.028   3.726
  125OSM   H14T13266   4.174   6.788   3.667
  125OSM   C15S13267   4.118   6.745   3.873
  125OSM   H15S13268   4.142   6.637   3.880
  125OSM   H15T13269   4.023   6.774   3.924
  125OSM   C16S13270   4.231   0.001   3.927
  125OSM   H16S13271   4.224   0.101   3.879
  125OSM   H16T13272   4.324   6.787   3.879
  125OSM   C17S13273   4.242   0.020   4.078
  125OSM   H17S13274   4.266   6.745   4.120
  125OSM   H17T13275   4.141   0.055   4.109
  125OSM   C18S13276   4.347   0.122   4.126
  125OSM   H18S13277   4.448   0.107   4.083
  125OSM   H18T13278   4.335   0.136   4.235
  125OSM   H18U13279   4.315   0.220   4.083
  125OSM    C1F13280   4.140   6.443   2.850
  125OSM     OF13281   4.207   6.345   2.833
  125OSM    C2F13282   4.074   6.463   2.987
  125OSM    H2F13283   3.965   6.456   2.972
  125OSM    H2G13284   4.101   6.563   3.026
  125OSM    C3F13285   4.134   6.356   3.084
  125OSM    H3F13286   4.244   6.360   3.090
  125OSM    H3G13287   4.092   6.265   3.036
  125OSM    C4F13288   4.091   6.380   3.226
  125OSM    H4F13289   3.983   6.354   3.233
  125OSM    H4G13290   4.105   6.486   3.256
  125OSM    C5F13291   4.155   6.285   3.322
  125OSM    H5F13292   4.263   6.307   3.334
  125OSM    H5G13293   4.149   6.180   3.286
  125OSM    C6F13294   4.110   6.310   3.466
  125OSM    H6F13295   3.999   6.300   3.461
  125OSM    H6G13296   4.122   6.419   3.484
  125OSM    C7F13297   4.192   6.231   3.567
  125OSM    H7F13298   4.299   6.234   3.535
  125OSM    H7G13299   4.153   6.127   3.572
  125OSM    C8F13300   4.181   6.286   3.713
  125OSM    H8F13301   4.073   6.307   3.726
  125OSM    H8G13302   4.230   6.385   3.720
  125OSM    C9F13303   4.226   6.203   3.829
  125OSM    H9F13304   4.326   6.230   3.868
  125OSM   C10F13305   4.163   6.107   3.897
  125OSM   H10F13306   4.211   6.047   3.976
  125OSM   C11F13307   4.020   6.058   3.873
  125OSM   H11F13308   4.007   5.968   3.809
  125OSM   H11G13309   3.963   6.139   3.822
  125OSM   C12F13310   3.935   6.035   4.001
  125OSM   H12F13311   3.987   5.970   4.074
  125OSM   H12G13312   3.844   5.977   3.975
  125OSM   C13F13313   3.905   6.173   4.067
  125OSM   H13F13314   3.839   6.241   4.008
  125OSM   H13G13315   4.007   6.215   4.075
  125OSM   C14F13316   3.830   6.157   4.203
  125OSM   H14F13317   3.884   6.084   4.267
  125OSM   H14G13318   3.721   6.135   4.192
  125OSM   C15F13319   3.841   6.286   4.296
  125OSM   H15F13320   3.951   6.302   4.305
  125OSM   H15G13321   3.807   6.274   4.401
  125OSM   C16F13322   3.770   6.404   4.233
  125OSM   H16F13323   3.661   6.391   4.217
  125OSM   H16G13324   3.809   6.424   4.130
  125OSM   C17F13325   3.782   6.524   4.321
  125OSM   H17F13326   3.889   6.556   4.313
  125OSM   H17G13327   3.762   6.484   4.422
  125OSM   C18F13328   3.698   6.636   4.269
  125OSM   H18F13329   3.588   6.631   4.280
  125OSM   H18G13330   3.720   6.649   4.160
  125OSM   H18H13331   3.723   6.730   4.324
  126OSM      N13332   3.375   1.552   2.259
  126OSM    C1513333   3.433   1.454   2.158
  126OSM   H15A13334   3.452   1.357   2.202
  126OSM   H15B13335   3.527   1.491   2.122
  126OSM   H15C13336   3.369   1.445   2.071
  126OSM    C1413337   3.457   1.566   2.377
  126OSM   H14A13338   3.473   1.466   2.415
  126OSM   H14B13339   3.416   1.625   2.458
  126OSM   H14C13340   3.557   1.600   2.355
  126OSM    C1313341   3.370   1.689   2.188
  126OSM   H13A13342   3.329   1.753   2.264
  126OSM   H13B13343   3.307   1.689   2.100
  126OSM   H13C13344   3.471   1.723   2.171
  126OSM    C1213345   3.231   1.524   2.283
  126OSM   H12A13346   3.181   1.506   2.189
  126OSM   H12B13347   3.189   1.608   2.336
  126OSM    C1113348   3.204   1.402   2.382
  126OSM   H11A13349   3.097   1.402   2.410
  126OSM   H11B13350   3.257   1.414   2.480
  126OSM      P13351   3.143   1.187   2.261
  126OSM    O1313352   3.043   1.249   2.166
  126OSM    O1413353   3.226   1.084   2.204
  126OSM    O1113354   3.066   1.128   2.383
  126OSM    O1213355   3.242   1.287   2.311
  126OSM    C1S13356   3.122   1.124   2.514
  126OSM    H1S13357   3.148   1.224   2.555
  126OSM    H1T13358   3.215   1.064   2.513
  126OSM     NF13359   3.074   1.070   2.753
  126OSM    HNF13360   3.132   0.992   2.776
  126OSM    C2S13361   3.023   1.058   2.617
  126OSM    H2S13362   2.931   1.120   2.620
  126OSM    C3S13363   2.990   0.908   2.571
  126OSM    H3S13364   3.083   0.849   2.576
  126OSM     O313365   2.955   0.891   2.436
  126OSM    HO313366   2.983   0.973   2.395
  126OSM    C4S13367   2.884   0.843   2.653
  126OSM    H4S13368   2.803   0.908   2.689
  126OSM    C5S13369   2.880   0.720   2.709
  126OSM    H5S13370   2.958   0.645   2.691
  126OSM    C6S13371   2.778   0.687   2.818
  126OSM    H6S13372   2.734   0.587   2.792
  126OSM    H6T13373   2.686   0.749   2.810
  126OSM    C7S13374   2.826   0.680   2.963
  126OSM    H7S13375   2.906   0.605   2.980
  126OSM    H7T13376   2.743   0.644   3.027
  126OSM    C8S13377   2.867   0.819   3.010
  126OSM    H8S13378   2.768   0.868   3.010
  126OSM    H8T13379   2.944   0.857   2.939
  126OSM    C9S13380   2.917   0.819   3.156
  126OSM    H9S13381   2.846   0.762   3.220
  126OSM    H9T13382   2.929   0.923   3.194
  126OSM   C10S13383   3.049   0.754   3.170
  126OSM   H10S13384   3.125   0.809   3.110
  126OSM   H10T13385   3.058   0.650   3.130
  126OSM   C11S13386   3.100   0.735   3.309
  126OSM   H11S13387   3.190   0.670   3.315
  126OSM   H11T13388   3.024   0.695   3.380
  126OSM   C12S13389   3.148   0.873   3.362
  126OSM   H12S13390   3.055   0.932   3.372
  126OSM   H12T13391   3.208   0.926   3.285
  126OSM   C13S13392   3.233   0.861   3.488
  126OSM   H13S13393   3.319   0.930   3.498
  126OSM   H13T13394   3.280   0.760   3.485
  126OSM   C14S13395   3.140   0.870   3.615
  126OSM   H14S13396   3.191   0.825   3.703
  126OSM   H14T13397   3.059   0.797   3.593
  126OSM   C15S13398   3.080   1.006   3.639
  126OSM   H15S13399   2.979   1.001   3.684
  126OSM   H15T13400   3.064   1.056   3.541
  126OSM   C16S13401   3.161   1.099   3.730
  126OSM   H16S13402   3.142   1.204   3.698
  126OSM   H16T13403   3.265   1.069   3.706
  126OSM   C17S13404   3.144   1.105   3.882
  126OSM   H17S13405   3.211   1.184   3.920
  126OSM   H17T13406   3.163   1.003   3.923
  126OSM   C18S13407   2.999   1.155   3.928
  126OSM   H18S13408   2.996   1.261   3.895
  126OSM   H18T13409   2.991   1.134   4.036
  126OSM   H18U13410   2.926   1.100   3.864
  126OSM    C1F13411   3.081   1.187   2.816
  126OSM     OF13412   3.038   1.288   2.767
  126OSM    C2F13413   3.171   1.188   2.938
  126OSM    H2F13414   3.277   1.171   2.912
  126OSM    H2G13415   3.137   1.107   3.006
  126OSM    C3F13416   3.174   1.326   3.012
  126OSM    H3F13417   3.209   1.405   2.941
  126OSM    H3G13418   3.244   1.317   3.098
  126OSM    C4F13419   3.040   1.381   3.062
  126OSM    H4F13420   2.971   1.416   2.982
  126OSM    H4G13421   3.070   1.467   3.127
  126OSM    C5F13422   2.952   1.299   3.158
  126OSM    H5F13423   3.016   1.266   3.243
  126OSM    H5G13424   2.919   1.202   3.115
  126OSM    C6F13425   2.835   1.370   3.221
  126OSM    H6F13426   2.764   1.392   3.139
  126OSM    H6G13427   2.870   1.466   3.264
  126OSM    C7F13428   2.759   1.295   3.334
  126OSM    H7F13429   2.762   1.188   3.305
  126OSM    H7G13430   2.654   1.331   3.336
  126OSM    C8F13431   2.817   1.314   3.473
  126OSM    H8F13432   2.799   1.422   3.496
  126OSM    H8G13433   2.927   1.314   3.459
  126OSM    C9F13434   2.766   1.212   3.572
  126OSM    H9F13435   2.779   1.110   3.534
  126OSM   C10F13436   2.706   1.242   3.688
  126OSM   H10F13437   2.676   1.155   3.749
  126OSM   C11F13438   2.666   1.382   3.737
  126OSM   H11F13439   2.569   1.415   3.695
  126OSM   H11G13440   2.727   1.472   3.718
  126OSM   C12F13441   2.656   1.383   3.887
  126OSM   H12F13442   2.745   1.329   3.927
  126OSM   H12G13443   2.574   1.314   3.914
  126OSM   C13F13444   2.627   1.518   3.941
  126OSM   H13F13445   2.522   1.544   3.917
  126OSM   H13G13446   2.695   1.593   3.896
  126OSM   C14F13447   2.642   1.535   4.096
  126OSM   H14F13448   2.745   1.515   4.131
  126OSM   H14G13449   2.583   1.455   4.146
  126OSM   C15F13450   2.603   1.680   4.138
  126OSM   H15F13451   2.493   1.694   4.138
  126OSM   H15G13452   2.653   1.746   4.064
  126OSM   C16F13453   2.669   1.714   4.263
  126OSM   H16F13454   2.676   1.825   4.266
  126OSM   H16G13455   2.774   1.679   4.253
  126OSM   C17F13456   2.592   1.658   4.384
  126OSM   H17F13457   2.568   1.550   4.371
  126OSM   H17G13458   2.500   1.719   4.390
  126OSM   C18F13459   2.665   1.679   4.509
  126OSM   H18F13460   2.711   1.780   4.521
  126OSM   H18G13461   2.744   1.605   4.534
  126OSM   H18H13462   2.593   1.665   4.593
  127OSM      N13463   1.826   2.892   1.890
  127OSM    C1513464   1.801   2.752   1.833
  127OSM   H15A13465   1.812   2.675   1.907
  127OSM   H15B13466   1.878   2.726   1.762
  127OSM   H15C13467   1.705   2.747   1.784
  127OSM    C1413468   1.886   2.981   1.794
  127OSM   H14A13469   1.816   3.003   1.715
  127OSM   H14B13470   1.977   2.951   1.745
  127OSM   H14C13471   1.908   3.075   1.841
  127OSM    C1313472   1.700   2.962   1.938
  127OSM   H13A13473   1.734   3.030   2.013
  127OSM   H13B13474   1.631   2.891   1.983
  127OSM   H13C13475   1.648   3.003   1.852
  127OSM    C1213476   1.919   2.889   2.011
  127OSM   H12A13477   1.955   2.987   2.038
  127OSM   H12B13478   2.008   2.839   1.975
  127OSM    C1113479   1.879   2.818   2.138
  127OSM   H11A13480   1.777   2.844   2.175
  127OSM   H11B13481   1.962   2.846   2.206
  127OSM      P13482   2.018   2.609   2.108
  127OSM    O1313483   1.998   2.473   2.056
  127OSM    O1413484   2.121   2.690   2.038
  127OSM    O1113485   2.059   2.598   2.262
  127OSM    O1213486   1.880   2.682   2.111
  127OSM    C1S13487   1.967   2.581   2.367
  127OSM    H1S13488   1.955   2.471   2.377
  127OSM    H1T13489   1.869   2.629   2.347
  127OSM     NF13490   1.931   2.629   2.611
  127OSM    HNF13491   1.889   2.712   2.647
  127OSM    C2S13492   2.027   2.643   2.502
  127OSM    H2S13493   2.114   2.576   2.521
  127OSM    C3S13494   2.090   2.790   2.477
  127OSM    H3S13495   2.019   2.866   2.440
  127OSM     O313496   2.189   2.800   2.377
  127OSM    HO313497   2.172   2.727   2.316
  127OSM    C4S13498   2.165   2.818   2.602
  127OSM    H4S13499   2.226   2.734   2.640
  127OSM    C5S13500   2.154   2.926   2.676
  127OSM    H5S13501   2.082   3.008   2.658
  127OSM    C6S13502   2.227   2.924   2.812
  127OSM    H6S13503   2.278   3.017   2.845
  127OSM    H6T13504   2.308   2.848   2.800
  127OSM    C7S13505   2.141   2.866   2.924
  127OSM    H7S13506   2.095   2.771   2.888
  127OSM    H7T13507   2.051   2.931   2.936
  127OSM    C8S13508   2.208   2.850   3.060
  127OSM    H8S13509   2.261   2.946   3.079
  127OSM    H8T13510   2.285   2.771   3.062
  127OSM    C9S13511   2.101   2.842   3.164
  127OSM    H9S13512   2.028   2.759   3.169
  127OSM    H9T13513   2.038   2.934   3.165
  127OSM   C10S13514   2.169   2.833   3.307
  127OSM   H10S13515   2.185   2.936   3.346
  127OSM   H10T13516   2.272   2.791   3.297
  127OSM   C11S13517   2.081   2.772   3.421
  127OSM   H11S13518   2.039   2.679   3.377
  127OSM   H11T13519   1.988   2.832   3.432
  127OSM   C12S13520   2.153   2.754   3.555
  127OSM   H12S13521   2.162   2.860   3.586
  127OSM   H12T13522   2.255   2.715   3.536
  127OSM   C13S13523   2.079   2.660   3.648
  127OSM   H13S13524   2.048   2.570   3.590
  127OSM   H13T13525   1.985   2.707   3.682
  127OSM   C14S13526   2.167   2.613   3.763
  127OSM   H14S13527   2.169   2.684   3.848
  127OSM   H14T13528   2.275   2.611   3.736
  127OSM   C15S13529   2.123   2.480   3.817
  127OSM   H15S13530   2.120   2.400   3.740
  127OSM   H15T13531   2.020   2.493   3.855
  127OSM   C16S13532   2.193   2.424   3.944
  127OSM   H16S13533   2.300   2.393   3.938
  127OSM   H16T13534   2.143   2.327   3.965
  127OSM   C17S13535   2.178   2.510   4.071
  127OSM   H17S13536   2.069   2.518   4.091
  127OSM   H17T13537   2.219   2.611   4.047
  127OSM   C18S13538   2.253   2.463   4.199
  127OSM   H18S13539   2.358   2.450   4.165
  127OSM   H18T13540   2.207   2.367   4.229
  127OSM   H18U13541   2.247   2.537   4.282
  127OSM    C1F13542   1.884   2.511   2.646
  127OSM     OF13543   1.951   2.415   2.613
  127OSM    C2F13544   1.759   2.500   2.733
  127OSM    H2F13545   1.678   2.471   2.662
  127OSM    H2G13546   1.731   2.604   2.762
  127OSM    C3F13547   1.770   2.394   2.837
  127OSM    H3F13548   1.809   2.304   2.784
  127OSM    H3G13549   1.667   2.361   2.864
  127OSM    C4F13550   1.848   2.415   2.964
  127OSM    H4F13551   1.946   2.452   2.926
  127OSM    H4G13552   1.864   2.315   3.009
  127OSM    C5F13553   1.791   2.511   3.070
  127OSM    H5F13554   1.683   2.485   3.079
  127OSM    H5G13555   1.807   2.618   3.041
  127OSM    C6F13556   1.864   2.489   3.200
  127OSM    H6F13557   1.867   2.586   3.254
  127OSM    H6G13558   1.974   2.486   3.185
  127OSM    C7F13559   1.813   2.370   3.288
  127OSM    H7F13560   1.804   2.276   3.230
  127OSM    H7G13561   1.712   2.397   3.324
  127OSM    C8F13562   1.906   2.339   3.411
  127OSM    H8F13563   1.932   2.430   3.468
  127OSM    H8G13564   1.996   2.287   3.371
  127OSM    C9F13565   1.818   2.252   3.500
  127OSM    H9F13566   1.711   2.255   3.474
  127OSM   C10F13567   1.865   2.155   3.580
  127OSM   H10F13568   1.802   2.087   3.639
  127OSM   C11F13569   2.012   2.136   3.612
  127OSM   H11F13570   2.058   2.237   3.605
  127OSM   H11G13571   2.061   2.087   3.524
  127OSM   C12F13572   2.050   2.065   3.746
  127OSM   H12F13573   1.992   1.970   3.749
  127OSM   H12G13574   2.021   2.133   3.828
  127OSM   C13F13575   2.198   2.028   3.740
  127OSM   H13F13576   2.252   2.125   3.728
  127OSM   H13G13577   2.222   1.965   3.651
  127OSM   C14F13578   2.241   1.942   3.864
  127OSM   H14F13579   2.333   1.881   3.850
  127OSM   H14G13580   2.160   1.870   3.890
  127OSM   C15F13581   2.258   2.018   3.995
  127OSM   H15F13582   2.175   2.091   3.998
  127OSM   H15G13583   2.351   2.079   3.995
  127OSM   C16F13584   2.251   1.922   4.123
  127OSM   H16F13585   2.333   1.848   4.120
  127OSM   H16G13586   2.162   1.857   4.104
  127OSM   C17F13587   2.230   1.980   4.256
  127OSM   H17F13588   2.278   2.080   4.250
  127OSM   H17G13589   2.261   1.911   4.337
  127OSM   C18F13590   2.088   2.023   4.272
  127OSM   H18F13591   2.056   2.097   4.195
  127OSM   H18G13592   2.084   2.077   4.369
  127OSM   H18H13593   2.018   1.937   4.260
  128OSM      N13594   2.543   0.946   2.278
  128OSM    C1513595   2.615   1.072   2.229
  128OSM   H15A13596   2.647   1.126   2.318
  128OSM   H15B13597   2.546   1.133   2.173
  128OSM   H15C13598   2.700   1.051   2.166
  128OSM    C1413599   2.536   0.852   2.157
  128OSM   H14A13600   2.474   0.895   2.079
  128OSM   H14B13601   2.508   0.750   2.177
  128OSM   H14C13602   2.637   0.852   2.118
  128OSM    C1313603   2.615   0.890   2.396
  128OSM   H13A13604   2.721   0.876   2.379
  128OSM   H13B13605   2.571   0.802   2.439
  128OSM   H13C13606   2.621   0.968   2.472
  128OSM    C1213607   2.402   0.971   2.329
  128OSM   H12A13608   2.425   1.047   2.402
  128OSM   H12B13609   2.378   0.881   2.383
  128OSM    C1113610   2.287   1.014   2.231
  128OSM   H11A13611   2.296   1.123   2.217
  128OSM   H11B13612   2.191   1.016   2.287
  128OSM      P13613   2.155   0.913   2.023
  128OSM    O1313614   2.129   1.033   1.941
  128OSM    O1413615   2.183   0.789   1.942
  128OSM    O1113616   2.037   0.892   2.131
  128OSM    O1213617   2.278   0.943   2.109
  128OSM    C1S13618   2.047   0.771   2.201
  128OSM    H1S13619   2.149   0.753   2.243
  128OSM    H1T13620   2.025   0.677   2.146
  128OSM     NF13621   1.939   0.650   2.398
  128OSM    HNF13622   1.857   0.595   2.382
  128OSM    C2S13623   1.943   0.771   2.315
  128OSM    H2S13624   1.977   0.860   2.372
  128OSM    C3S13625   1.801   0.806   2.266
  128OSM    H3S13626   1.774   0.721   2.199
  128OSM     O313627   1.791   0.919   2.187
  128OSM    HO313628   1.882   0.929   2.159
  128OSM    C4S13629   1.693   0.821   2.371
  128OSM    H4S13630   1.642   0.727   2.398
  128OSM    C5S13631   1.656   0.932   2.442
  128OSM    H5S13632   1.711   1.027   2.443
  128OSM    C6S13633   1.543   0.922   2.546
  128OSM    H6S13634   1.470   0.844   2.515
  128OSM    H6T13635   1.492   1.020   2.551
  128OSM    C7S13636   1.583   0.891   2.697
  128OSM    H7S13637   1.667   0.959   2.724
  128OSM    H7T13638   1.628   0.793   2.724
  128OSM    C8S13639   1.466   0.933   2.780
  128OSM    H8S13640   1.388   0.861   2.746
  128OSM    H8T13641   1.440   1.038   2.757
  128OSM    C9S13642   1.481   0.905   2.933
  128OSM    H9S13643   1.541   0.812   2.947
  128OSM    H9T13644   1.378   0.900   2.974
  128OSM   C10S13645   1.580   1.010   3.004
  128OSM   H10S13646   1.572   1.104   2.946
  128OSM   H10T13647   1.684   0.972   3.008
  128OSM   C11S13648   1.528   1.042   3.142
  128OSM   H11S13649   1.427   1.089   3.144
  128OSM   H11T13650   1.612   1.104   3.180
  128OSM   C12S13651   1.522   0.920   3.239
  128OSM   H12S13652   1.622   0.871   3.235
  128OSM   H12T13653   1.446   0.844   3.213
  128OSM   C13S13654   1.491   0.973   3.385
  128OSM   H13S13655   1.384   1.004   3.379
  128OSM   H13T13656   1.558   1.060   3.400
  128OSM   C14S13657   1.502   0.860   3.496
  128OSM   H14S13658   1.610   0.834   3.499
  128OSM   H14T13659   1.432   0.781   3.462
  128OSM   C15S13660   1.460   0.919   3.631
  128OSM   H15S13661   1.362   0.972   3.632
  128OSM   H15T13662   1.535   0.993   3.666
  128OSM   C16S13663   1.456   0.816   3.745
  128OSM   H16S13664   1.555   0.765   3.747
  128OSM   H16T13665   1.378   0.741   3.722
  128OSM   C17S13666   1.428   0.887   3.870
  128OSM   H17S13667   1.354   0.969   3.856
  128OSM   H17T13668   1.519   0.938   3.907
  128OSM   C18S13669   1.379   0.788   3.981
  128OSM   H18S13670   1.453   0.717   4.023
  128OSM   H18T13671   1.307   0.712   3.944
  128OSM   H18U13672   1.329   0.843   4.064
  128OSM    C1F13673   2.041   0.614   2.477
  128OSM     OF13674   2.139   0.686   2.488
  128OSM    C2F13675   2.035   0.481   2.552
  128OSM    H2F13676   2.065   0.399   2.483
  128OSM    H2G13677   1.929   0.457   2.576
  128OSM    C3F13678   2.117   0.486   2.685
  128OSM    H3F13679   2.083   0.580   2.734
  128OSM    H3G13680   2.227   0.493   2.672
  128OSM    C4F13681   2.094   0.374   2.792
  128OSM    H4F13682   2.139   0.398   2.890
  128OSM    H4G13683   2.146   0.282   2.759
  128OSM    C5F13684   1.943   0.340   2.813
  128OSM    H5F13685   1.886   0.323   2.719
  128OSM    H5G13686   1.899   0.438   2.840
  128OSM    C6F13687   1.910   0.231   2.905
  128OSM    H6F13688   1.981   0.148   2.882
  128OSM    H6G13689   1.808   0.198   2.877
  128OSM    C7F13690   1.919   0.280   3.047
  128OSM    H7F13691   1.856   0.372   3.054
  128OSM    H7G13692   2.028   0.300   3.061
  128OSM    C8F13693   1.867   0.177   3.147
  128OSM    H8F13694   1.763   0.145   3.127
  128OSM    H8G13695   1.873   0.221   3.249
  128OSM    C9F13696   1.946   0.049   3.139
  128OSM    H9F13697   1.971   0.011   3.038
  128OSM   C10F13698   2.008   6.811   3.243
  128OSM   H10F13699   2.064   6.717   3.229
  128OSM   C11F13700   1.981   0.026   3.393
  128OSM   H11F13701   1.984   6.756   3.451
  128OSM   H11G13702   1.883   0.077   3.400
  128OSM   C12F13703   2.096   0.122   3.445
  128OSM   H12F13704   2.079   0.213   3.384
  128OSM   H12G13705   2.194   0.073   3.425
  128OSM   C13F13706   2.087   0.146   3.594
  128OSM   H13F13707   2.179   0.202   3.623
  128OSM   H13G13708   2.077   0.055   3.657
  128OSM   C14F13709   1.973   0.243   3.619
  128OSM   H14F13710   1.876   0.204   3.583
  128OSM   H14G13711   1.994   0.341   3.570
  128OSM   C15F13712   1.964   0.266   3.775
  128OSM   H15F13713   1.960   0.171   3.833
  128OSM   H15G13714   1.866   0.317   3.783
  128OSM   C16F13715   2.069   0.353   3.835
  128OSM   H16F13716   2.066   0.455   3.791
  128OSM   H16G13717   2.164   0.312   3.795
  128OSM   C17F13718   2.069   0.347   3.989
  128OSM   H17F13719   1.965   0.361   4.027
  128OSM   H17G13720   2.122   0.429   4.043
  128OSM   C18F13721   2.115   0.207   4.047
  128OSM   H18F13722   2.131   0.219   4.157
  128OSM   H18G13723   2.214   0.185   4.002
  128OSM   H18H13724   2.034   0.134   4.028
  129OSM      N13725   3.927   6.789   2.126
  129OSM    C1513726   3.803   0.036   2.080
  129OSM   H15A13727   3.795   0.141   2.101
  129OSM   H15B13728   3.717   6.818   2.129
  129OSM   H15C13729   3.787   0.026   1.974
  129OSM    C1413730   3.915   6.644   2.115
  129OSM   H14A13731   3.971   6.600   2.196
  129OSM   H14B13732   3.942   6.598   2.021
  129OSM   H14C13733   3.811   6.620   2.131
  129OSM    C1313734   4.025   0.017   2.029
  129OSM   H13A13735   4.120   0.011   2.080
  129OSM   H13B13736   4.001   0.117   1.997
  129OSM   H13C13737   4.033   6.775   1.944
  129OSM    C1213738   3.947   0.004   2.268
  129OSM   H12A13739   3.970   0.109   2.281
  129OSM   H12B13740   4.039   6.782   2.299
  129OSM    C1113741   3.838   6.796   2.370
  129OSM   H11A13742   3.873   6.794   2.475
  129OSM   H11B13743   3.807   6.693   2.340
  129OSM      P13744   3.728   0.198   2.424
  129OSM    O1313745   3.844   0.269   2.364
  129OSM    O1413746   3.600   0.268   2.399
  129OSM    O1113747   3.758   0.173   2.578
  129OSM    O1213748   3.722   0.053   2.363
  129OSM    C1S13749   3.663   0.149   2.683
  129OSM    H1S13750   3.647   0.041   2.705
  129OSM    H1T13751   3.564   0.195   2.664
  129OSM     NF13752   3.628   0.180   2.921
  129OSM    HNF13753   3.558   0.245   2.952
  129OSM    C2S13754   3.718   0.221   2.814
  129OSM    H2S13755   3.819   0.179   2.836
  129OSM    C3S13756   3.739   0.383   2.799
  129OSM    H3S13757   3.640   0.419   2.764
  129OSM     O313758   3.816   0.438   2.693
  129OSM    HO313759   3.818   0.370   2.625
  129OSM    C4S13760   3.773   0.429   2.932
  129OSM    H4S13761   3.691   0.444   3.003
  129OSM    C5S13762   3.895   0.451   2.989
  129OSM    H5S13763   3.984   0.434   2.926
  129OSM    C6S13764   3.912   0.502   3.131
  129OSM    H6S13765   3.835   0.574   3.163
  129OSM    H6T13766   4.009   0.553   3.151
  129OSM    C7S13767   3.905   0.387   3.235
  129OSM    H7S13768   3.998   0.327   3.234
  129OSM    H7T13769   3.825   0.314   3.210
  129OSM    C8S13770   3.870   0.432   3.381
  129OSM    H8S13771   3.775   0.489   3.368
  129OSM    H8T13772   3.949   0.502   3.413
  129OSM    C9S13773   3.876   0.315   3.473
  129OSM    H9S13774   3.980   0.279   3.489
  129OSM    H9T13775   3.813   0.233   3.432
  129OSM   C10S13776   3.804   0.354   3.607
  129OSM   H10S13777   3.695   0.359   3.587
  129OSM   H10T13778   3.838   0.455   3.639
  129OSM   C11S13779   3.831   0.250   3.716
  129OSM   H11S13780   3.938   0.265   3.741
  129OSM   H11T13781   3.817   0.142   3.692
  129OSM   C12S13782   3.752   0.288   3.845
  129OSM   H12S13783   3.780   0.216   3.925
  129OSM   H12T13784   3.641   0.277   3.839
  129OSM   C13S13785   3.787   0.421   3.911
  129OSM   H13S13786   3.731   0.424   4.007
  129OSM   H13T13787   3.759   0.503   3.841
  129OSM   C14S13788   3.934   0.446   3.936
  129OSM   H14S13789   3.991   0.448   3.841
  129OSM   H14T13790   3.981   0.373   4.006
  129OSM   C15S13791   3.949   0.589   3.986
  129OSM   H15S13792   3.903   0.609   4.085
  129OSM   H15T13793   3.908   0.650   3.902
  129OSM   C16S13794   4.091   0.639   4.018
  129OSM   H16S13795   4.069   0.738   4.063
  129OSM   H16T13796   4.146   0.648   3.921
  129OSM   C17S13797   4.193   0.570   4.119
  129OSM   H17S13798   4.236   0.474   4.086
  129OSM   H17T13799   4.136   0.541   4.210
  129OSM   C18S13800   4.301   0.667   4.160
  129OSM   H18S13801   4.349   0.712   4.071
  129OSM   H18T13802   4.379   0.603   4.207
  129OSM   H18U13803   4.250   0.737   4.230
  129OSM    C1F13804   3.618   0.059   2.968
  129OSM     OF13805   3.685   6.787   2.926
  129OSM    C2F13806   3.536   0.042   3.090
  129OSM    H2F13807   3.442   0.101   3.084
  129OSM    H2G13808   3.601   0.075   3.173
  129OSM    C3F13809   3.509   6.719   3.123
  129OSM    H3F13810   3.600   6.658   3.136
  129OSM    H3G13811   3.453   6.678   3.037
  129OSM    C4F13812   3.426   6.718   3.256
  129OSM    H4F13813   3.365   6.625   3.247
  129OSM    H4G13814   3.370   6.813   3.262
  129OSM    C5F13815   3.515   6.707   3.374
  129OSM    H5F13816   3.598   6.781   3.371
  129OSM    H5G13817   3.541   6.599   3.379
  129OSM    C6F13818   3.437   6.744   3.505
  129OSM    H6F13819   3.351   6.676   3.523
  129OSM    H6G13820   3.392   0.019   3.491
  129OSM    C7F13821   3.524   6.742   3.633
  129OSM    H7F13822   3.583   0.011   3.639
  129OSM    H7G13823   3.592   6.657   3.614
  129OSM    C8F13824   3.445   6.722   3.761
  129OSM    H8F13825   3.510   6.716   3.851
  129OSM    H8G13826   3.395   6.627   3.730
  129OSM    C9F13827   3.338   0.001   3.787
  129OSM    H9F13828   3.310   0.057   3.697
  129OSM   C10F13829   3.282   0.037   3.905
  129OSM   H10F13830   3.193   0.102   3.913
  129OSM   C11F13831   3.311   6.795   4.044
  129OSM   H11F13832   3.320   6.685   4.055
  129OSM   H11G13833   3.223   0.008   4.100
  129OSM   C12F13834   3.440   0.028   4.113
  129OSM   H12F13835   3.533   6.807   4.074
  129OSM   H12G13836   3.433   6.821   4.219
  129OSM   C13F13837   3.454   0.183   4.104
  129OSM   H13F13838   3.350   0.218   4.125
  129OSM   H13G13839   3.485   0.212   4.002
  129OSM   C14F13840   3.560   0.245   4.200
  129OSM   H14F13841   3.573   0.355   4.191
  129OSM   H14G13842   3.662   0.212   4.168
  129OSM   C15F13843   3.541   0.206   4.349
  129OSM   H15F13844   3.571   0.100   4.362
  129OSM   H15G13845   3.436   0.233   4.371
  129OSM   C16F13846   3.625   0.285   4.455
  129OSM   H16F13847   3.579   0.259   4.553
  129OSM   H16G13848   3.625   0.394   4.433
  129OSM   C17F13849   3.774   0.242   4.459
  129OSM   H17F13850   3.811   0.218   4.357
  129OSM   H17G13851   3.783   0.144   4.511
  129OSM   C18F13852   3.862   0.341   4.528
  129OSM   H18F13853   3.968   0.309   4.522
  129OSM   H18G13854   3.829   0.336   4.634
  129OSM   H18H13855   3.851   0.445   4.490
  130OSM      N13856   3.732   4.200   1.793
  130OSM    C1513857   3.837   4.245   1.897
  130OSM   H15A13858   3.790   4.334   1.938
  130OSM   H15B13859   3.931   4.272   1.851
  130OSM   H15C13860   3.855   4.182   1.982
  130OSM    C1413861   3.688   4.307   1.697
  130OSM   H14A13862   3.607   4.269   1.637
  130OSM   H14B13863   3.769   4.340   1.634
  130OSM   H14C13864   3.651   4.397   1.744
  130OSM    C1313865   3.791   4.092   1.715
  130OSM   H13A13866   3.733   4.063   1.629
  130OSM   H13B13867   3.793   4.003   1.776
  130OSM   H13C13868   3.882   4.126   1.667
  130OSM    C1213869   3.603   4.161   1.866
  130OSM   H12A13870   3.540   4.106   1.798
  130OSM   H12B13871   3.550   4.254   1.885
  130OSM    C1113872   3.627   4.077   1.993
  130OSM   H11A13873   3.523   4.053   2.023
  130OSM   H11B13874   3.662   4.148   2.072
  130OSM      P13875   3.666   3.815   1.971
  130OSM    O1313876   3.542   3.805   1.896
  130OSM    O1413877   3.780   3.725   1.935
  130OSM    O1113878   3.622   3.769   2.114
  130OSM    O1213879   3.713   3.964   1.992
  130OSM    C1S13880   3.716   3.794   2.224
  130OSM    H1S13881   3.744   3.900   2.246
  130OSM    H1T13882   3.814   3.742   2.213
  130OSM     NF13883   3.762   3.774   2.467
  130OSM    HNF13884   3.844   3.721   2.487
  130OSM    C2S13885   3.667   3.730   2.361
  130OSM    H2S13886   3.568   3.771   2.391
  130OSM    C3S13887   3.656   3.574   2.346
  130OSM    H3S13888   3.759   3.533   2.337
  130OSM     O313889   3.591   3.523   2.229
  130OSM    HO313890   3.565   3.604   2.184
  130OSM    C4S13891   3.597   3.507   2.470
  130OSM    H4S13892   3.676   3.461   2.531
  130OSM    C5S13893   3.466   3.511   2.521
  130OSM    H5S13894   3.385   3.568   2.473
  130OSM    C6S13895   3.437   3.426   2.638
  130OSM    H6S13896   3.459   3.322   2.606
  130OSM    H6T13897   3.328   3.422   2.657
  130OSM    C7S13898   3.510   3.459   2.764
  130OSM    H7S13899   3.494   3.567   2.786
  130OSM    H7T13900   3.620   3.455   2.750
  130OSM    C8S13901   3.474   3.378   2.895
  130OSM    H8S13902   3.479   3.270   2.871
  130OSM    H8T13903   3.365   3.398   2.902
  130OSM    C9S13904   3.558   3.432   3.014
  130OSM    H9S13905   3.556   3.543   3.025
  130OSM    H9T13906   3.667   3.415   3.026
  130OSM   C10S13907   3.503   3.384   3.152
  130OSM   H10S13908   3.515   3.273   3.154
  130OSM   H10T13909   3.396   3.410   3.164
  130OSM   C11S13910   3.587   3.442   3.264
  130OSM   H11S13911   3.577   3.552   3.254
  130OSM   H11T13912   3.693   3.412   3.250
  130OSM   C12S13913   3.560   3.386   3.400
  130OSM   H12S13914   3.609   3.287   3.391
  130OSM   H12T13915   3.450   3.383   3.419
  130OSM   C13S13916   3.635   3.470   3.503
  130OSM   H13S13917   3.592   3.572   3.493
  130OSM   H13T13918   3.742   3.467   3.474
  130OSM   C14S13919   3.616   3.422   3.641
  130OSM   H14S13920   3.645   3.315   3.650
  130OSM   H14T13921   3.510   3.428   3.675
  130OSM   C15S13922   3.703   3.499   3.743
  130OSM   H15S13923   3.688   3.608   3.731
  130OSM   H15T13924   3.807   3.471   3.720
  130OSM   C16S13925   3.665   3.475   3.897
  130OSM   H16S13926   3.669   3.365   3.914
  130OSM   H16T13927   3.559   3.503   3.913
  130OSM   C17S13928   3.750   3.552   3.998
  130OSM   H17S13929   3.739   3.663   4.002
  130OSM   H17T13930   3.858   3.535   3.976
  130OSM   C18S13931   3.728   3.499   4.143
  130OSM   H18S13932   3.623   3.514   4.174
  130OSM   H18T13933   3.793   3.551   4.217
  130OSM   H18U13934   3.756   3.392   4.151
  130OSM    C1F13935   3.765   3.900   2.506
  130OSM     OF13936   3.674   3.973   2.463
  130OSM    C2F13937   3.880   3.949   2.590
  130OSM    H2F13938   3.953   3.991   2.519
  130OSM    H2G13939   3.928   3.870   2.652
  130OSM    C3F13940   3.836   4.063   2.681
  130OSM    H3F13941   3.767   4.016   2.756
  130OSM    H3G13942   3.774   4.142   2.633
  130OSM    C4F13943   3.948   4.122   2.749
  130OSM    H4F13944   4.010   4.173   2.672
  130OSM    H4G13945   4.011   4.042   2.795
  130OSM    C5F13946   3.895   4.219   2.860
  130OSM    H5F13947   3.838   4.299   2.808
  130OSM    H5G13948   3.988   4.268   2.897
  130OSM    C6F13949   3.821   4.159   2.977
  130OSM    H6F13950   3.868   4.063   3.008
  130OSM    H6G13951   3.717   4.130   2.949
  130OSM    C7F13952   3.809   4.261   3.089
  130OSM    H7F13953   3.718   4.321   3.066
  130OSM    H7G13954   3.899   4.324   3.105
  130OSM    C8F13955   3.766   4.191   3.224
  130OSM    H8F13956   3.695   4.109   3.199
  130OSM    H8G13957   3.715   4.274   3.278
  130OSM    C9F13958   3.883   4.138   3.296
  130OSM    H9F13959   3.967   4.114   3.229
  130OSM   C10F13960   3.909   4.130   3.425
  130OSM   H10F13961   4.011   4.094   3.448
  130OSM   C11F13962   3.831   4.187   3.541
  130OSM   H11F13963   3.724   4.178   3.513
  130OSM   H11G13964   3.856   4.293   3.562
  130OSM   C12F13965   3.852   4.106   3.674
  130OSM   H12F13966   3.962   4.095   3.691
  130OSM   H12G13967   3.814   4.002   3.670
  130OSM   C13F13968   3.771   4.169   3.787
  130OSM   H13F13969   3.671   4.163   3.738
  130OSM   H13G13970   3.795   4.277   3.793
  130OSM   C14F13971   3.773   4.080   3.911
  130OSM   H14F13972   3.749   3.974   3.888
  130OSM   H14G13973   3.687   4.112   3.973
  130OSM   C15F13974   3.908   4.089   3.992
  130OSM   H15F13975   3.997   4.069   3.928
  130OSM   H15G13976   3.898   4.013   4.072
  130OSM   C16F13977   3.920   4.231   4.062
  130OSM   H16F13978   3.831   4.233   4.130
  130OSM   H16G13979   3.902   4.314   3.991
  130OSM   C17F13980   4.055   4.240   4.127
  130OSM   H17F13981   4.129   4.190   4.060
  130OSM   H17G13982   4.051   4.185   4.223
  130OSM   C18F13983   4.107   4.383   4.155
  130OSM   H18F13984   4.115   4.439   4.059
  130OSM   H18G13985   4.197   4.378   4.220
  130OSM   H18H13986   4.025   4.433   4.212
  131OSM      N13987   0.567   0.428   2.110
  131OSM    C1513988   0.471   0.414   2.223
  131OSM   H15A13989   0.384   0.356   2.195
  131OSM   H15B13990   0.438   0.507   2.266
  131OSM   H15C13991   0.520   0.368   2.307
  131OSM    C1413992   0.622   0.296   2.073
  131OSM   H14A13993   0.559   0.234   2.011
  131OSM   H14B13994   0.655   0.244   2.162
  131OSM   H14C13995   0.712   0.309   2.016
  131OSM    C1313996   0.491   0.480   1.988
  131OSM   H13A13997   0.421   0.406   1.951
  131OSM   H13B13998   0.560   0.512   1.912
  131OSM   H13C13999   0.425   0.557   2.027
  131OSM    C1214000   0.681   0.516   2.153
  131OSM   H12A14001   0.737   0.469   2.233
  131OSM   H12B14002   0.643   0.608   2.194
  131OSM    C1114003   0.780   0.575   2.046
  131OSM   H11A14004   0.847   0.648   2.095
  131OSM   H11B14005   0.715   0.637   1.981
  131OSM      P14006   0.977   0.418   2.000
  131OSM    O1314007   0.998   0.291   1.931
  131OSM    O1414008   1.093   0.512   1.991
  131OSM    O1114009   0.953   0.390   2.153
  131OSM    O1214010   0.841   0.489   1.954
  131OSM    C1S14011   1.019   0.483   2.250
  131OSM    H1S14012   0.972   0.583   2.261
  131OSM    H1T14013   1.128   0.495   2.235
  131OSM     NF14014   1.048   0.507   2.503
  131OSM    HNF14015   1.135   0.487   2.546
  131OSM    C2S14016   1.015   0.421   2.390
  131OSM    H2S14017   0.909   0.389   2.403
  131OSM    C3S14018   1.095   0.281   2.391
  131OSM    H3S14019   1.202   0.310   2.393
  131OSM     O314020   1.084   0.200   2.279
  131OSM    HO314021   1.029   0.250   2.219
  131OSM    C4S14022   1.068   0.194   2.507
  131OSM    H4S14023   1.157   0.205   2.570
  131OSM    C5S14024   0.977   0.099   2.536
  131OSM    H5S14025   0.908   0.068   2.456
  131OSM    C6S14026   0.980   0.011   2.662
  131OSM    H6S14027   1.012   6.733   2.637
  131OSM    H6T14028   0.884   6.814   2.713
  131OSM    C7S14029   1.080   0.046   2.777
  131OSM    H7S14030   1.052   0.149   2.808
  131OSM    H7T14031   1.183   0.030   2.739
  131OSM    C8S14032   1.054   6.796   2.909
  131OSM    H8S14033   1.049   6.687   2.886
  131OSM    H8T14034   0.946   6.819   2.921
  131OSM    C9S14035   1.153   0.007   3.015
  131OSM    H9S14036   1.147   0.117   3.028
  131OSM    H9T14037   1.254   6.814   2.973
  131OSM   C10S14038   1.135   6.741   3.143
  131OSM   H10S14039   1.134   6.631   3.122
  131OSM   H10T14040   1.035   6.751   3.190
  131OSM   C11S14041   1.232   6.784   3.255
  131OSM   H11S14042   1.219   0.064   3.288
  131OSM   H11T14043   1.330   6.784   3.202
  131OSM   C12S14044   1.211   6.689   3.375
  131OSM   H12S14045   1.247   6.586   3.359
  131OSM   H12T14046   1.104   6.674   3.403
  131OSM   C13S14047   1.270   6.742   3.505
  131OSM   H13S14048   1.209   0.003   3.543
  131OSM   H13T14049   1.376   6.768   3.487
  131OSM   C14S14050   1.262   6.645   3.624
  131OSM   H14S14051   1.289   6.539   3.601
  131OSM   H14T14052   1.154   6.632   3.648
  131OSM   C15S14053   1.341   6.690   3.745
  131OSM   H15S14054   1.307   6.634   3.834
  131OSM   H15T14055   1.295   6.789   3.768
  131OSM   C16S14056   1.488   6.691   3.723
  131OSM   H16S14057   1.522   6.733   3.625
  131OSM   H16T14058   1.520   6.586   3.709
  131OSM   C17S14059   1.563   6.755   3.853
  131OSM   H17S14060   1.525   0.033   3.868
  131OSM   H17T14061   1.669   6.757   3.819
  131OSM   C18S14062   1.556   6.667   3.979
  131OSM   H18S14063   1.582   6.562   3.956
  131OSM   H18T14064   1.451   6.670   4.016
  131OSM   H18U14065   1.633   6.699   4.052
  131OSM    C1F14066   0.964   0.603   2.540
  131OSM     OF14067   0.847   0.609   2.507
  131OSM    C2F14068   1.028   0.710   2.620
  131OSM    H2F14069   1.095   0.774   2.559
  131OSM    H2G14070   1.109   0.658   2.676
  131OSM    C3F14071   0.930   0.787   2.715
  131OSM    H3F14072   0.885   0.713   2.784
  131OSM    H3G14073   0.848   0.832   2.655
  131OSM    C4F14074   0.995   0.898   2.788
  131OSM    H4F14075   0.915   0.952   2.843
  131OSM    H4G14076   1.024   0.976   2.715
  131OSM    C5F14077   1.097   0.858   2.891
  131OSM    H5F14078   1.144   0.954   2.923
  131OSM    H5G14079   1.166   0.792   2.834
  131OSM    C6F14080   1.048   0.789   3.012
  131OSM    H6F14081   0.990   0.696   2.990
  131OSM    H6G14082   0.974   0.852   3.066
  131OSM    C7F14083   1.159   0.738   3.107
  131OSM    H7F14084   1.200   0.829   3.157
  131OSM    H7G14085   1.236   0.678   3.054
  131OSM    C8F14086   1.093   0.653   3.220
  131OSM    H8F14087   1.183   0.625   3.280
  131OSM    H8G14088   1.051   0.559   3.179
  131OSM    C9F14089   1.004   0.732   3.303
  131OSM    H9F14090   0.915   0.744   3.239
  131OSM   C10F14091   1.007   0.767   3.432
  131OSM   H10F14092   0.919   0.822   3.468
  131OSM   C11F14093   1.126   0.752   3.523
  131OSM   H11F14094   1.152   0.847   3.574
  131OSM   H11G14095   1.215   0.719   3.466
  131OSM   C12F14096   1.119   0.643   3.636
  131OSM   H12F14097   1.224   0.626   3.668
  131OSM   H12G14098   1.059   0.557   3.599
  131OSM   C13F14099   1.034   0.683   3.754
  131OSM   H13F14100   0.931   0.704   3.719
  131OSM   H13G14101   1.079   0.781   3.784
  131OSM   C14F14102   1.040   0.584   3.875
  131OSM   H14F14103   1.142   0.581   3.919
  131OSM   H14G14104   1.000   0.486   3.840
  131OSM   C15F14105   0.944   0.632   3.983
  131OSM   H15F14106   0.837   0.639   3.956
  131OSM   H15G14107   0.982   0.731   4.017
  131OSM   C16F14108   0.947   0.542   4.111
  131OSM   H16F14109   0.997   0.446   4.085
  131OSM   H16G14110   0.847   0.500   4.135
  131OSM   C17F14111   1.008   0.614   4.228
  131OSM   H17F14112   0.940   0.689   4.274
  131OSM   H17G14113   1.104   0.664   4.200
  131OSM   C18F14114   1.048   0.522   4.348
  131OSM   H18F14115   1.084   0.581   4.435
  131OSM   H18G14116   1.130   0.454   4.314
  131OSM   H18H14117   0.960   0.459   4.372
  132OSM      N14118   6.019   6.659   2.161
  132OSM    C1514119   6.105   6.777   2.118
  132OSM   H15A14120   6.174   6.752   2.039
  132OSM   H15B14121   6.158   6.811   2.205
  132OSM   H15C14122   6.040   0.035   2.095
  132OSM    C1414123   5.922   6.708   2.262
  132OSM   H14A14124   5.972   6.709   2.358
  132OSM   H14B14125   5.854   6.626   2.280
  132OSM   H14C14126   5.871   6.799   2.235
  132OSM    C1314127   5.937   6.629   2.040
  132OSM   H13A14128   5.989   6.604   1.949
  132OSM   H13B14129   5.872   6.713   2.018
  132OSM   H13C14130   5.875   6.546   2.071
  132OSM    C1214131   6.105   6.540   2.205
  132OSM   H12A14132   6.187   6.524   2.137
  132OSM   H12B14133   6.038   6.456   2.208
  132OSM    C1114134   6.166   6.546   2.347
  132OSM   H11A14135   6.219   6.449   2.361
  132OSM   H11B14136   6.094   6.540   2.431
  132OSM      P14137   6.388   6.688   2.334
  132OSM    O1314138   6.447   6.585   2.243
  132OSM    O1414139   6.379   6.824   2.287
  132OSM    O1114140   6.449   6.686   2.472
  132OSM    O1214141   6.242   6.659   2.375
  132OSM    C1S14142   6.441   6.574   2.560
  132OSM    H1S14143   6.464   6.475   2.516
  132OSM    H1T14144   6.345   6.583   2.615
  132OSM     NF14145   6.571   6.483   2.758
  132OSM    HNF14146   6.512   6.489   2.839
  132OSM    C2S14147   6.553   6.599   2.673
  132OSM    H2S14148   6.653   6.601   2.624
  132OSM    C3S14149   6.520   6.731   2.753
  132OSM    H3S14150   6.436   6.706   2.822
  132OSM     O314151   6.473   0.015   2.681
  132OSM    HO314152   6.443   6.803   2.598
  132OSM    C4S14153   6.647   6.762   2.829
  132OSM    H4S14154   6.735   6.750   2.765
  132OSM    C5S14155   6.663   6.814   2.949
  132OSM    H5S14156   6.576   0.015   3.012
  132OSM    C6S14157   6.786   0.025   3.026
  132OSM    H6S14158   6.783   0.134   3.048
  132OSM    H6T14159   0.059   0.010   2.976
  132OSM    C7S14160   6.780   6.782   3.168
  132OSM    H7S14161   6.792   6.672   3.164
  132OSM    H7T14162   6.684   6.808   3.218
  132OSM    C8S14163   0.071   0.004   3.257
  132OSM    H8S14164   0.054   0.105   3.301
  132OSM    H8T14165   0.163   0.017   3.196
  132OSM    C9S14166   0.099   6.737   3.372
  132OSM    H9S14167   0.137   6.640   3.335
  132OSM    H9T14168   0.004   6.731   3.429
  132OSM   C10S14169   0.205   6.790   3.474
  132OSM   H10S14170   0.174   0.066   3.507
  132OSM   H10T14171   0.302   6.801   3.422
  132OSM   C11S14172   0.220   6.691   3.587
  132OSM   H11S14173   0.262   6.595   3.550
  132OSM   H11T14174   0.122   6.686   3.639
  132OSM   C12S14175   0.321   6.740   3.691
  132OSM   H12S14176   0.297   0.016   3.730
  132OSM   H12T14177   0.419   6.741   3.640
  132OSM   C13S14178   0.324   6.649   3.816
  132OSM   H13S14179   0.355   6.553   3.771
  132OSM   H13T14180   0.226   6.652   3.868
  132OSM   C14S14181   0.430   6.689   3.918
  132OSM   H14S14182   0.405   6.784   3.971
  132OSM   H14T14183   0.522   6.702   3.858
  132OSM   C15S14184   0.435   6.576   4.020
  132OSM   H15S14185   0.530   6.593   4.075
  132OSM   H15T14186   0.437   6.475   3.973
  132OSM   C16S14187   0.320   6.580   4.117
  132OSM   H16S14188   0.226   6.585   4.058
  132OSM   H16T14189   0.340   6.670   4.179
  132OSM   C17S14190   0.307   6.462   4.219
  132OSM   H17S14191   0.403   6.452   4.274
  132OSM   H17T14192   0.284   6.369   4.162
  132OSM   C18S14193   0.199   6.475   4.328
  132OSM   H18S14194   0.099   6.496   4.285
  132OSM   H18T14195   0.234   6.559   4.392
  132OSM   H18U14196   0.204   6.376   4.379
  132OSM    C1F14197   6.620   6.366   2.719
  132OSM     OF14198   6.655   6.347   2.601
  132OSM    C2F14199   6.611   6.254   2.817
  132OSM    H2F14200   6.501   6.239   2.822
  132OSM    H2G14201   6.646   6.288   2.917
  132OSM    C3F14202   6.682   6.121   2.778
  132OSM    H3F14203   6.792   6.134   2.773
  132OSM    H3G14204   6.640   6.103   2.677
  132OSM    C4F14205   6.645   6.009   2.883
  132OSM    H4F14206   6.681   5.915   2.835
  132OSM    H4G14207   6.536   5.994   2.896
  132OSM    C5F14208   6.708   6.023   3.027
  132OSM    H5F14209   6.685   6.120   3.074
  132OSM    H5G14210   6.818   6.009   3.012
  132OSM    C6F14211   6.653   5.919   3.118
  132OSM    H6F14212   6.632   5.824   3.064
  132OSM    H6G14213   6.551   5.945   3.153
  132OSM    C7F14214   6.747   5.900   3.238
  132OSM    H7F14215   6.727   5.996   3.291
  132OSM    H7G14216   0.028   5.892   3.205
  132OSM    C8F14217   6.718   5.784   3.328
  132OSM    H8F14218   6.786   5.803   3.414
  132OSM    H8G14219   6.741   5.688   3.276
  132OSM    C9F14220   6.574   5.781   3.378
  132OSM    H9F14221   6.495   5.767   3.303
  132OSM   C10F14222   6.534   5.834   3.493
  132OSM   H10F14223   6.428   5.816   3.512
  132OSM   C11F14224   6.614   5.893   3.602
  132OSM   H11F14225   6.596   6.003   3.603
  132OSM   H11G14226   6.723   5.877   3.590
  132OSM   C12F14227   6.594   5.840   3.745
  132OSM   H12F14228   6.502   5.885   3.788
  132OSM   H12G14229   6.685   5.864   3.804
  132OSM   C13F14230   6.574   5.690   3.766
  132OSM   H13F14231   6.665   5.628   3.751
  132OSM   H13G14232   6.502   5.650   3.691
  132OSM   C14F14233   6.510   5.671   3.901
  132OSM   H14F14234   6.451   5.579   3.921
  132OSM   H14G14235   6.440   5.755   3.923
  132OSM   C15F14236   6.617   5.650   4.006
  132OSM   H15F14237   6.709   5.709   3.987
  132OSM   H15G14238   6.646   5.543   4.010
  132OSM   C16F14239   6.564   5.686   4.144
  132OSM   H16F14240   6.458   5.660   4.161
  132OSM   H16G14241   6.563   5.797   4.154
  132OSM   C17F14242   6.626   5.615   4.268
  132OSM   H17F14243   6.582   5.652   4.363
  132OSM   H17G14244   6.732   5.642   4.285
  132OSM   C18F14245   6.614   5.459   4.264
  132OSM   H18F14246   6.660   5.417   4.356
  132OSM   H18G14247   6.662   5.428   4.169
  132OSM   H18H14248   6.504   5.441   4.265
  133OSM      N14249   4.865   2.575   2.113
  133OSM    C1514250   4.713   2.579   2.110
  133OSM   H15A14251   4.678   2.536   2.017
  133OSM   H15B14252   4.675   2.678   2.129
  133OSM   H15C14253   4.684   2.520   2.197
  133OSM    C1414254   4.917   2.431   2.100
  133OSM   H14A14255   4.866   2.374   2.024
  133OSM   H14B14256   4.903   2.378   2.193
  133OSM   H14C14257   5.021   2.428   2.071
  133OSM    C1314258   4.912   2.642   1.985
  133OSM   H13A14259   4.889   2.581   1.900
  133OSM   H13B14260   5.020   2.644   1.986
  133OSM   H13C14261   4.874   2.741   1.965
  133OSM    C1214262   4.919   2.650   2.231
  133OSM   H12A14263   4.852   2.734   2.243
  133OSM   H12B14264   5.022   2.682   2.222
  133OSM    C1114265   4.911   2.564   2.361
  133OSM   H11A14266   4.816   2.507   2.363
  133OSM   H11B14267   4.904   2.622   2.456
  133OSM      P14268   5.149   2.528   2.446
  133OSM    O1314269   5.256   2.424   2.449
  133OSM    O1414270   5.198   2.652   2.376
  133OSM    O1114271   5.112   2.560   2.594
  133OSM    O1214272   5.022   2.476   2.375
  133OSM    C1S14273   5.014   2.494   2.676
  133OSM    H1S14274   5.031   2.385   2.673
  133OSM    H1T14275   4.911   2.516   2.641
  133OSM     NF14276   4.973   2.461   2.918
  133OSM    HNF14277   4.892   2.487   2.971
  133OSM    C2S14278   5.027   2.552   2.821
  133OSM    H2S14279   5.136   2.558   2.844
  133OSM    C3S14280   4.970   2.696   2.821
  133OSM    H3S14281   4.864   2.678   2.793
  133OSM     O314282   5.026   2.781   2.723
  133OSM    HO314283   5.062   2.721   2.657
  133OSM    C4S14284   4.984   2.765   2.956
  133OSM    H4S14285   5.086   2.800   2.980
  133OSM    C5S14286   4.885   2.783   3.035
  133OSM    H5S14287   4.784   2.748   3.010
  133OSM    C6S14288   4.901   2.854   3.164
  133OSM    H6S14289   4.824   2.819   3.237
  133OSM    H6T14290   4.880   2.963   3.157
  133OSM    C7S14291   5.035   2.832   3.235
  133OSM    H7S14292   5.039   2.910   3.314
  133OSM    H7T14293   5.126   2.850   3.173
  133OSM    C8S14294   5.047   2.703   3.309
  133OSM    H8S14295   5.037   2.627   3.228
  133OSM    H8T14296   4.958   2.689   3.375
  133OSM    C9S14297   5.175   2.684   3.385
  133OSM    H9S14298   5.212   2.783   3.419
  133OSM    H9T14299   5.258   2.635   3.328
  133OSM   C10S14300   5.164   2.587   3.511
  133OSM   H10S14301   5.182   2.487   3.466
  133OSM   H10T14302   5.060   2.593   3.549
  133OSM   C11S14303   5.260   2.614   3.632
  133OSM   H11S14304   5.237   2.715   3.672
  133OSM   H11T14305   5.362   2.616   3.586
  133OSM   C12S14306   5.236   2.511   3.741
  133OSM   H12S14307   5.265   2.408   3.711
  133OSM   H12T14308   5.129   2.512   3.769
  133OSM   C13S14309   5.316   2.533   3.873
  133OSM   H13S14310   5.282   2.626   3.922
  133OSM   H13T14311   5.421   2.546   3.836
  133OSM   C14S14312   5.302   2.419   3.978
  133OSM   H14S14313   5.339   2.321   3.940
  133OSM   H14T14314   5.192   2.408   3.981
  133OSM   C15S14315   5.364   2.448   4.117
  133OSM   H15S14316   5.342   2.369   4.192
  133OSM   H15T14317   5.324   2.541   4.162
  133OSM   C16S14318   5.517   2.465   4.104
  133OSM   H16S14319   5.549   2.560   4.056
  133OSM   H16T14320   5.570   2.384   4.049
  133OSM   C17S14321   5.571   2.473   4.247
  133OSM   H17S14322   5.541   2.384   4.306
  133OSM   H17T14323   5.522   2.561   4.294
  133OSM   C18S14324   5.727   2.495   4.258
  133OSM   H18S14325   5.752   2.502   4.366
  133OSM   H18T14326   5.751   2.589   4.204
  133OSM   H18U14327   5.777   2.405   4.215
  133OSM    C1F14328   5.031   2.346   2.950
  133OSM     OF14329   5.118   2.291   2.881
  133OSM    C2F14330   4.988   2.289   3.085
  133OSM    H2F14331   4.931   2.194   3.075
  133OSM    H2G14332   4.915   2.362   3.125
  133OSM    C3F14333   5.106   2.279   3.186
  133OSM    H3F14334   5.140   2.381   3.215
  133OSM    H3G14335   5.188   2.218   3.143
  133OSM    C4F14336   5.069   2.192   3.314
  133OSM    H4F14337   5.157   2.170   3.378
  133OSM    H4G14338   5.019   2.095   3.293
  133OSM    C5F14339   4.967   2.260   3.408
  133OSM    H5F14340   4.876   2.262   3.343
  133OSM    H5G14341   4.993   2.367   3.423
  133OSM    C6F14342   4.962   2.181   3.543
  133OSM    H6F14343   4.977   2.073   3.526
  133OSM    H6G14344   4.860   2.194   3.585
  133OSM    C7F14345   5.074   2.220   3.642
  133OSM    H7F14346   5.052   2.321   3.682
  133OSM    H7G14347   5.167   2.230   3.581
  133OSM    C8F14348   5.108   2.114   3.749
  133OSM    H8F14349   5.208   2.141   3.790
  133OSM    H8G14350   5.110   2.014   3.701
  133OSM    C9F14351   4.998   2.104   3.855
  133OSM    H9F14352   4.898   2.108   3.809
  133OSM   C10F14353   5.017   2.108   3.994
  133OSM   H10F14354   4.933   2.109   4.064
  133OSM   C11F14355   5.152   2.115   4.065
  133OSM   H11F14356   5.159   2.217   4.109
  133OSM   H11G14357   5.238   2.100   3.998
  133OSM   C12F14358   5.167   2.015   4.187
  133OSM   H12F14359   5.256   2.041   4.248
  133OSM   H12G14360   5.194   1.913   4.152
  133OSM   C13F14361   5.046   2.023   4.285
  133OSM   H13F14362   4.950   1.995   4.236
  133OSM   H13G14363   5.043   2.129   4.317
  133OSM   C14F14364   5.065   1.933   4.413
  133OSM   H14F14365   5.168   1.957   4.449
  133OSM   H14G14366   5.052   1.829   4.378
  133OSM   C15F14367   4.959   1.964   4.519
  133OSM   H15F14368   4.862   1.943   4.467
  133OSM   H15G14369   4.964   2.074   4.528
  133OSM   C16F14370   4.966   1.895   4.659
  133OSM   H16F14371   5.073   1.910   4.683
  133OSM   H16G14372   4.933   1.789   4.650
  133OSM   C17F14373   4.876   1.954   4.765
  133OSM   H17F14374   4.773   1.925   4.735
  133OSM   H17G14375   4.891   2.064   4.763
  133OSM   C18F14376   4.901   1.915   4.911
  133OSM   H18F14377   4.944   1.813   4.912
  133OSM   H18G14378   4.807   1.913   4.969
  133OSM   H18H14379   4.983   1.980   4.950
  134OSM      N14380   5.833   5.513   2.559
  134OSM    C1514381   5.855   5.363   2.571
  134OSM   H15A14382   5.881   5.320   2.475
  134OSM   H15B14383   5.769   5.314   2.613
  134OSM   H15C14384   5.938   5.345   2.638
  134OSM    C1414385   5.825   5.574   2.695
  134OSM   H14A14386   5.917   5.563   2.750
  134OSM   H14B14387   5.746   5.543   2.761
  134OSM   H14C14388   5.817   5.680   2.675
  134OSM    C1314389   5.946   5.581   2.495
  134OSM   H13A14390   5.968   5.545   2.395
  134OSM   H13B14391   6.046   5.579   2.537
  134OSM   H13C14392   5.920   5.684   2.481
  134OSM    C1214393   5.707   5.537   2.482
  134OSM   H12A14394   5.694   5.644   2.479
  134OSM   H12B14395   5.619   5.491   2.524
  134OSM    C1114396   5.720   5.502   2.331
  134OSM   H11A14397   5.775   5.405   2.328
  134OSM   H11B14398   5.790   5.574   2.284
  134OSM      P14399   5.514   5.363   2.249
  134OSM    O1314400   5.397   5.390   2.158
  134OSM    O1414401   5.608   5.256   2.207
  134OSM    O1114402   5.458   5.338   2.391
  134OSM    O1214403   5.597   5.499   2.266
  134OSM    C1S14404   5.386   5.434   2.474
  134OSM    H1S14405   5.294   5.468   2.422
  134OSM    H1T14406   5.447   5.525   2.496
  134OSM     NF14407   5.282   5.474   2.698
  134OSM    HNF14408   5.334   5.531   2.761
  134OSM    C2S14409   5.356   5.377   2.621
  134OSM    H2S14410   5.301   5.283   2.602
  134OSM    C3S14411   5.487   5.327   2.695
  134OSM    H3S14412   5.557   5.410   2.719
  134OSM     O314413   5.577   5.242   2.624
  134OSM    HO314414   5.528   5.230   2.543
  134OSM    C4S14415   5.458   5.271   2.830
  134OSM    H4S14416   5.496   5.333   2.913
  134OSM    C5S14417   5.407   5.154   2.862
  134OSM    H5S14418   5.386   5.070   2.794
  134OSM    C6S14419   5.417   5.116   3.001
  134OSM    H6S14420   5.517   5.145   3.040
  134OSM    H6T14421   5.413   5.006   3.013
  134OSM    C7S14422   5.311   5.177   3.095
  134OSM    H7S14423   5.216   5.132   3.059
  134OSM    H7T14424   5.314   5.288   3.090
  134OSM    C8S14425   5.329   5.129   3.247
  134OSM    H8S14426   5.430   5.166   3.275
  134OSM    H8T14427   5.317   5.019   3.251
  134OSM    C9S14428   5.221   5.186   3.345
  134OSM    H9S14429   5.134   5.118   3.337
  134OSM    H9T14430   5.200   5.287   3.303
  134OSM   C10S14431   5.269   5.195   3.495
  134OSM   H10S14432   5.313   5.295   3.511
  134OSM   H10T14433   5.339   5.109   3.507
  134OSM   C11S14434   5.159   5.164   3.591
  134OSM   H11S14435   5.119   5.061   3.577
  134OSM   H11T14436   5.069   5.221   3.559
  134OSM   C12S14437   5.182   5.212   3.735
  134OSM   H12S14438   5.088   5.234   3.792
  134OSM   H12T14439   5.234   5.310   3.736
  134OSM   C13S14440   5.273   5.110   3.810
  134OSM   H13S14441   5.362   5.079   3.752
  134OSM   H13T14442   5.214   5.016   3.817
  134OSM   C14S14443   5.324   5.166   3.943
  134OSM   H14S14444   5.243   5.206   4.008
  134OSM   H14T14445   5.387   5.256   3.922
  134OSM   C15S14446   5.399   5.058   4.021
  134OSM   H15S14447   5.481   5.018   3.958
  134OSM   H15T14448   5.329   4.977   4.049
  134OSM   C16S14449   5.460   5.101   4.162
  134OSM   H16S14450   5.378   5.111   4.236
  134OSM   H16T14451   5.499   5.204   4.145
  134OSM   C17S14452   5.559   4.994   4.220
  134OSM   H17S14453   5.569   5.012   4.329
  134OSM   H17T14454   5.657   5.024   4.177
  134OSM   C18S14455   5.521   4.853   4.202
  134OSM   H18S14456   5.436   4.815   4.263
  134OSM   H18T14457   5.611   4.790   4.219
  134OSM   H18U14458   5.497   4.834   4.095
  134OSM    C1F14459   5.147   5.493   2.665
  134OSM     OF14460   5.087   5.411   2.594
  134OSM    C2F14461   5.082   5.610   2.733
  134OSM    H2F14462   4.985   5.633   2.685
  134OSM    H2G14463   5.142   5.702   2.719
  134OSM    C3F14464   5.068   5.599   2.883
  134OSM    H3F14465   5.173   5.585   2.918
  134OSM    H3G14466   5.010   5.508   2.911
  134OSM    C4F14467   5.029   5.730   2.956
  134OSM    H4F14468   4.947   5.772   2.893
  134OSM    H4G14469   5.111   5.804   2.954
  134OSM    C5F14470   4.976   5.704   3.089
  134OSM    H5F14471   5.034   5.627   3.145
  134OSM    H5G14472   4.873   5.663   3.085
  134OSM    C6F14473   4.972   5.838   3.176
  134OSM    H6F14474   4.900   5.908   3.130
  134OSM    H6G14475   5.065   5.899   3.182
  134OSM    C7F14476   4.921   5.831   3.317
  134OSM    H7F14477   4.833   5.763   3.314
  134OSM    H7G14478   4.882   5.932   3.343
  134OSM    C8F14479   5.024   5.776   3.418
  134OSM    H8F14480   5.117   5.836   3.422
  134OSM    H8G14481   5.059   5.675   3.385
  134OSM    C9F14482   4.958   5.769   3.550
  134OSM    H9F14483   4.924   5.670   3.583
  134OSM   C10F14484   4.929   5.879   3.627
  134OSM   H10F14485   4.858   5.862   3.709
  134OSM   C11F14486   4.955   6.026   3.603
  134OSM   H11F14487   4.865   6.080   3.566
  134OSM   H11G14488   5.024   6.038   3.517
  134OSM   C12F14489   5.012   6.087   3.732
  134OSM   H12F14490   5.040   6.193   3.714
  134OSM   H12G14491   5.106   6.036   3.761
  134OSM   C13F14492   4.921   6.097   3.858
  134OSM   H13F14493   4.908   5.988   3.875
  134OSM   H13G14494   4.824   6.142   3.830
  134OSM   C14F14495   4.977   6.173   3.975
  134OSM   H14F14496   5.021   6.268   3.940
  134OSM   H14G14497   5.057   6.109   4.020
  134OSM   C15F14498   4.871   6.198   4.086
  134OSM   H15F14499   4.824   6.289   4.042
  134OSM   H15G14500   4.917   6.234   4.180
  134OSM   C16F14501   4.748   6.104   4.101
  134OSM   H16F14502   4.695   6.092   4.004
  134OSM   H16G14503   4.669   6.146   4.167
  134OSM   C17F14504   4.784   5.973   4.161
  134OSM   H17F14505   4.860   5.980   4.241
  134OSM   H17G14506   4.833   5.909   4.084
  134OSM   C18F14507   4.670   5.891   4.219
  134OSM   H18F14508   4.649   5.800   4.158
  134OSM   H18G14509   4.574   5.947   4.226
  134OSM   H18H14510   4.683   5.856   4.324
  135OSM      N14511   0.138   1.317   1.697
  135OSM    C1514512   6.819   1.368   1.694
  135OSM   H15A14513   6.809   1.460   1.750
  135OSM   H15B14514   6.761   1.292   1.744
  135OSM   H15C14515   6.784   1.371   1.592
  135OSM    C1414516   0.143   1.177   1.640
  135OSM   H14A14517   0.243   1.138   1.656
  135OSM   H14B14518   0.127   1.192   1.534
  135OSM   H14C14519   0.074   1.106   1.682
  135OSM    C1314520   0.226   1.403   1.606
  135OSM   H13A14521   0.329   1.373   1.602
  135OSM   H13B14522   0.214   1.508   1.627
  135OSM   H13C14523   0.183   1.393   1.507
  135OSM    C1214524   0.192   1.323   1.841
  135OSM   H12A14525   0.227   1.423   1.858
  135OSM   H12B14526   0.281   1.263   1.843
  135OSM    C1114527   0.102   1.274   1.955
  135OSM   H11A14528   0.153   1.261   2.053
  135OSM   H11B14529   0.056   1.178   1.923
  135OSM      P14530   0.010   1.505   2.031
  135OSM    O1314531   0.108   1.581   1.947
  135OSM    O1414532   6.700   1.571   2.057
  135OSM    O1114533   0.066   1.469   2.176
  135OSM    O1214534   6.808   1.356   1.975
  135OSM    C1S14535   6.796   1.433   2.276
  135OSM    H1S14536   6.738   1.341   2.252
  135OSM    H1T14537   6.719   1.511   2.291
  135OSM     NF14538   6.739   1.373   2.504
  135OSM    HNF14539   6.716   1.432   2.581
  135OSM    C2S14540   0.029   1.417   2.416
  135OSM    H2S14541   0.106   1.337   2.424
  135OSM    C3S14542   0.096   1.543   2.463
  135OSM    H3S14543   0.022   1.627   2.456
  135OSM     O314544   0.204   1.580   2.381
  135OSM    HO314545   0.170   1.545   2.298
  135OSM    C4S14546   0.137   1.536   2.606
  135OSM    H4S14547   0.060   1.558   2.681
  135OSM    C5S14548   0.265   1.500   2.644
  135OSM    H5S14549   0.345   1.494   2.569
  135OSM    C6S14550   0.304   1.503   2.784
  135OSM    H6S14551   0.410   1.518   2.813
  135OSM    H6T14552   0.283   1.403   2.829
  135OSM    C7S14553   0.236   1.606   2.882
  135OSM    H7S14554   0.127   1.590   2.869
  135OSM    H7T14555   0.258   1.712   2.861
  135OSM    C8S14556   0.285   1.561   3.023
  135OSM    H8S14557   0.393   1.588   3.026
  135OSM    H8T14558   0.265   1.452   3.038
  135OSM    C9S14559   0.213   1.637   3.138
  135OSM    H9S14560   0.106   1.608   3.143
  135OSM    H9T14561   0.217   1.744   3.106
  135OSM   C10S14562   0.281   1.618   3.276
  135OSM   H10S14563   0.384   1.660   3.265
  135OSM   H10T14564   0.292   1.509   3.296
  135OSM   C11S14565   0.201   1.683   3.388
  135OSM   H11S14566   0.097   1.643   3.392
  135OSM   H11T14567   0.203   1.791   3.365
  135OSM   C12S14568   0.260   1.666   3.527
  135OSM   H12S14569   0.370   1.649   3.521
  135OSM   H12T14570   0.236   1.564   3.565
  135OSM   C13S14571   0.216   1.768   3.636
  135OSM   H13S14572   0.105   1.774   3.629
  135OSM   H13T14573   0.271   1.863   3.623
  135OSM   C14S14574   0.244   1.719   3.784
  135OSM   H14S14575   0.351   1.692   3.784
  135OSM   H14T14576   0.183   1.626   3.793
  135OSM   C15S14577   0.222   1.823   3.891
  135OSM   H15S14578   0.123   1.872   3.879
  135OSM   H15T14579   0.307   1.896   3.887
  135OSM   C16S14580   0.224   1.764   4.030
  135OSM   H16S14581   0.298   1.682   4.038
  135OSM   H16T14582   0.126   1.711   4.033
  135OSM   C17S14583   0.253   1.858   4.153
  135OSM   H17S14584   0.167   1.928   4.163
  135OSM   H17T14585   0.345   1.912   4.123
  135OSM   C18S14586   0.276   1.796   4.287
  135OSM   H18S14587   0.370   1.739   4.296
  135OSM   H18T14588   0.188   1.731   4.309
  135OSM   H18U14589   0.281   1.882   4.358
  135OSM    C1F14590   6.685   1.256   2.501
  135OSM     OF14591   6.715   1.170   2.415
  135OSM    C2F14592   6.580   1.221   2.607
  135OSM    H2F14593   6.488   1.189   2.554
  135OSM    H2G14594   6.563   1.314   2.665
  135OSM    C3F14595   6.628   1.106   2.707
  135OSM    H3F14596   6.670   1.022   2.647
  135OSM    H3G14597   6.539   1.074   2.764
  135OSM    C4F14598   6.721   1.155   2.822
  135OSM    H4F14599   6.667   1.221   2.894
  135OSM    H4G14600   6.814   1.207   2.790
  135OSM    C5F14601   6.767   1.027   2.908
  135OSM    H5F14602   6.790   0.941   2.842
  135OSM    H5G14603   6.674   0.991   2.956
  135OSM    C6F14604   0.051   1.057   3.007
  135OSM    H6F14605   0.015   1.143   3.067
  135OSM    H6G14606   0.145   1.079   2.952
  135OSM    C7F14607   0.088   0.936   3.089
  135OSM    H7F14608   0.185   0.962   3.137
  135OSM    H7G14609   0.120   0.855   3.021
  135OSM    C8F14610   6.809   0.884   3.197
  135OSM    H8F14611   6.730   0.832   3.139
  135OSM    H8G14612   6.757   0.970   3.245
  135OSM    C9F14613   0.026   0.792   3.309
  135OSM    H9F14614   0.090   0.710   3.272
  135OSM   C10F14615   0.015   0.813   3.444
  135OSM   H10F14616   0.060   0.740   3.514
  135OSM   C11F14617   6.763   0.916   3.515
  135OSM   H11F14618   6.675   0.881   3.573
  135OSM   H11G14619   6.714   0.994   3.453
  135OSM   C12F14620   0.029   0.985   3.619
  135OSM   H12F14621   6.813   1.081   3.657
  135OSM   H12G14622   0.125   1.022   3.576
  135OSM   C13F14623   0.057   0.883   3.732
  135OSM   H13F14624   0.139   0.810   3.712
  135OSM   H13G14625   6.795   0.815   3.747
  135OSM   C14F14626   0.096   0.958   3.863
  135OSM   H14F14627   0.024   1.041   3.882
  135OSM   H14G14628   0.202   0.989   3.861
  135OSM   C15F14629   0.085   0.864   3.985
  135OSM   H15F14630   0.136   0.766   3.973
  135OSM   H15G14631   6.801   0.849   4.000
  135OSM   C16F14632   0.139   0.920   4.124
  135OSM   H16F14633   0.084   1.015   4.139
  135OSM   H16G14634   0.245   0.950   4.116
  135OSM   C17F14635   0.109   0.818   4.238
  135OSM   H17F14636   6.823   0.808   4.245
  135OSM   H17G14637   0.129   0.869   4.335
  135OSM   C18F14638   0.189   0.689   4.229
  135OSM   H18F14639   0.240   0.666   4.325
  135OSM   H18G14640   0.264   0.692   4.148
  135OSM   H18H14641   0.128   0.606   4.186
  136OSM      N14642   2.878   4.298   1.569
  136OSM    C1514643   2.758   4.257   1.646
  136OSM   H15A14644   2.712   4.341   1.696
  136OSM   H15B14645   2.790   4.198   1.730
  136OSM   H15C14646   2.684   4.203   1.588
  136OSM    C1414647   2.903   4.183   1.468
  136OSM   H14A14648   2.971   4.210   1.389
  136OSM   H14B14649   2.808   4.172   1.419
  136OSM   H14C14650   2.935   4.098   1.527
  136OSM    C1314651   2.856   4.427   1.506
  136OSM   H13A14652   2.762   4.441   1.455
  136OSM   H13B14653   2.933   4.445   1.432
  136OSM   H13C14654   2.871   4.508   1.576
  136OSM    C1214655   2.994   4.307   1.665
  136OSM   H12A14656   3.085   4.334   1.615
  136OSM   H12B14657   3.010   4.207   1.704
  136OSM    C1114658   2.989   4.403   1.780
  136OSM   H11A14659   3.084   4.408   1.837
  136OSM   H11B14660   2.911   4.362   1.849
  136OSM      P14661   3.055   4.651   1.699
  136OSM    O1314662   3.145   4.602   1.596
  136OSM    O1414663   2.975   4.769   1.675
  136OSM    O1114664   3.137   4.669   1.835
  136OSM    O1214665   2.949   4.538   1.742
  136OSM    C1S14666   3.085   4.730   1.954
  136OSM    H1S14667   3.011   4.811   1.940
  136OSM    H1T14668   3.167   4.778   2.009
  136OSM     NF14669   2.940   4.698   2.156
  136OSM    HNF14670   2.984   4.702   2.246
  136OSM    C2S14671   3.024   4.628   2.055
  136OSM    H2S14672   2.954   4.563   1.998
  136OSM    C3S14673   3.138   4.543   2.114
  136OSM    H3S14674   3.199   4.614   2.175
  136OSM     O314675   3.227   4.501   2.014
  136OSM    HO314676   3.201   4.548   1.935
  136OSM    C4S14677   3.084   4.429   2.209
  136OSM    H4S14678   3.048   4.466   2.306
  136OSM    C5S14679   3.087   4.295   2.184
  136OSM    H5S14680   3.139   4.262   2.093
  136OSM    C6S14681   3.035   4.189   2.276
  136OSM    H6S14682   3.101   4.099   2.273
  136OSM    H6T14683   2.939   4.143   2.246
  136OSM    C7S14684   3.009   4.241   2.420
  136OSM    H7S14685   2.933   4.322   2.416
  136OSM    H7T14686   3.105   4.283   2.458
  136OSM    C8S14687   2.972   4.134   2.521
  136OSM    H8S14688   3.036   4.044   2.508
  136OSM    H8T14689   2.867   4.105   2.496
  136OSM    C9S14690   2.981   4.176   2.669
  136OSM    H9S14691   2.911   4.262   2.680
  136OSM    H9T14692   3.083   4.210   2.697
  136OSM   C10S14693   2.927   4.064   2.767
  136OSM   H10S14694   2.997   3.982   2.743
  136OSM   H10T14695   2.826   4.036   2.730
  136OSM   C11S14696   2.932   4.098   2.920
  136OSM   H11S14697   2.865   4.185   2.937
  136OSM   H11T14698   3.035   4.132   2.946
  136OSM   C12S14699   2.891   3.987   3.005
  136OSM   H12S14700   2.951   3.896   2.979
  136OSM   H12T14701   2.786   3.956   2.986
  136OSM   C13S14702   2.912   4.029   3.151
  136OSM   H13S14703   2.854   4.123   3.163
  136OSM   H13T14704   3.018   4.054   3.170
  136OSM   C14S14705   2.860   3.921   3.254
  136OSM   H14S14706   2.915   3.826   3.235
  136OSM   H14T14707   2.753   3.907   3.230
  136OSM   C15S14708   2.862   3.971   3.398
  136OSM   H15S14709   2.807   4.068   3.401
  136OSM   H15T14710   2.971   3.988   3.413
  136OSM   C16S14711   2.817   3.856   3.497
  136OSM   H16S14712   2.902   3.784   3.507
  136OSM   H16T14713   2.740   3.806   3.435
  136OSM   C17S14714   2.772   3.901   3.639
  136OSM   H17S14715   2.669   3.943   3.636
  136OSM   H17T14716   2.837   3.978   3.685
  136OSM   C18S14717   2.773   3.780   3.715
  136OSM   H18S14718   2.722   3.809   3.809
  136OSM   H18T14719   2.875   3.741   3.736
  136OSM   H18U14720   2.711   3.703   3.665
  136OSM    C1F14721   2.814   4.740   2.133
  136OSM     OF14722   2.758   4.723   2.024
  136OSM    C2F14723   2.745   4.818   2.235
  136OSM    H2F14724   2.681   4.898   2.191
  136OSM    H2G14725   2.818   4.866   2.303
  136OSM    C3F14726   2.657   4.721   2.321
  136OSM    H3F14727   2.728   4.651   2.371
  136OSM    H3G14728   2.597   4.659   2.251
  136OSM    C4F14729   2.557   4.785   2.419
  136OSM    H4F14730   2.476   4.841   2.368
  136OSM    H4G14731   2.604   4.857   2.490
  136OSM    C5F14732   2.492   4.684   2.517
  136OSM    H5F14733   2.567   4.631   2.581
  136OSM    H5G14734   2.437   4.606   2.460
  136OSM    C6F14735   2.390   4.754   2.609
  136OSM    H6F14736   2.319   4.813   2.548
  136OSM    H6G14737   2.425   4.822   2.690
  136OSM    C7F14738   2.306   4.645   2.677
  136OSM    H7F14739   2.243   4.590   2.604
  136OSM    H7G14740   2.248   4.709   2.747
  136OSM    C8F14741   2.386   4.560   2.777
  136OSM    H8F14742   2.450   4.632   2.832
  136OSM    H8G14743   2.455   4.489   2.727
  136OSM    C9F14744   2.291   4.492   2.882
  136OSM    H9F14745   2.227   4.421   2.827
  136OSM   C10F14746   2.271   4.524   3.009
  136OSM   H10F14747   2.200   4.470   3.074
  136OSM   C11F14748   2.337   4.637   3.081
  136OSM   H11F14749   2.366   4.714   3.006
  136OSM   H11G14750   2.426   4.602   3.136
  136OSM   C12F14751   2.254   4.711   3.181
  136OSM   H12F14752   2.174   4.762   3.122
  136OSM   H12G14753   2.308   4.794   3.232
  136OSM   C13F14754   2.204   4.629   3.295
  136OSM   H13F14755   2.121   4.560   3.267
  136OSM   H13G14756   2.165   4.698   3.373
  136OSM   C14F14757   2.320   4.555   3.360
  136OSM   H14F14758   2.388   4.637   3.392
  136OSM   H14G14759   2.373   4.487   3.290
  136OSM   C15F14760   2.285   4.485   3.492
  136OSM   H15F14761   2.379   4.448   3.537
  136OSM   H15G14762   2.211   4.404   3.469
  136OSM   C16F14763   2.222   4.585   3.591
  136OSM   H16F14764   2.122   4.621   3.559
  136OSM   H16G14765   2.281   4.679   3.593
  136OSM   C17F14766   2.213   4.534   3.730
  136OSM   H17F14767   2.312   4.496   3.763
  136OSM   H17G14768   2.143   4.447   3.729
  136OSM   C18F14769   2.160   4.634   3.835
  136OSM   H18F14770   2.195   4.736   3.809
  136OSM   H18G14771   2.189   4.605   3.938
  136OSM   H18H14772   2.050   4.653   3.833
  137OSM      N14773   1.218   1.680   1.852
  137OSM    C1514774   1.308   1.646   1.737
  137OSM   H15A14775   1.359   1.732   1.695
  137OSM   H15B14776   1.251   1.594   1.662
  137OSM   H15C14777   1.389   1.586   1.774
  137OSM    C1414778   1.143   1.557   1.886
  137OSM   H14A14779   1.100   1.559   1.985
  137OSM   H14B14780   1.208   1.471   1.878
  137OSM   H14C14781   1.061   1.538   1.818
  137OSM    C1314782   1.301   1.728   1.969
  137OSM   H13A14783   1.347   1.825   1.955
  137OSM   H13B14784   1.387   1.664   1.985
  137OSM   H13C14785   1.243   1.739   2.060
  137OSM    C1214786   1.114   1.789   1.799
  137OSM   H12A14787   1.067   1.749   1.710
  137OSM   H12B14788   1.151   1.884   1.762
  137OSM    C1114789   1.000   1.816   1.901
  137OSM   H11A14790   1.050   1.846   1.996
  137OSM   H11B14791   0.937   1.731   1.935
  137OSM      P14792   0.963   2.065   1.838
  137OSM    O1314793   1.102   2.070   1.782
  137OSM    O1414794   0.867   2.150   1.770
  137OSM    O1114795   0.978   2.124   1.987
  137OSM    O1214796   0.911   1.914   1.853
  137OSM    C1S14797   0.863   2.115   2.076
  137OSM    H1S14798   0.824   2.011   2.081
  137OSM    H1T14799   0.779   2.176   2.037
  137OSM     NF14800   0.798   2.129   2.315
  137OSM    HNF14801   0.734   2.206   2.314
  137OSM    C2S14802   0.907   2.151   2.222
  137OSM    H2S14803   0.991   2.085   2.251
  137OSM    C3S14804   0.965   2.297   2.224
  137OSM    H3S14805   0.879   2.365   2.204
  137OSM     O314806   1.053   2.339   2.119
  137OSM    HO314807   1.030   2.276   2.050
  137OSM    C4S14808   1.025   2.330   2.366
  137OSM    H4S14809   0.953   2.387   2.425
  137OSM    C5S14810   1.148   2.304   2.409
  137OSM    H5S14811   1.230   2.269   2.345
  137OSM    C6S14812   1.196   2.345   2.538
  137OSM    H6S14813   1.124   2.407   2.595
  137OSM    H6T14814   1.282   2.413   2.519
  137OSM    C7S14815   1.251   2.242   2.636
  137OSM    H7S14816   1.321   2.176   2.581
  137OSM    H7T14817   1.162   2.182   2.666
  137OSM    C8S14818   1.303   2.305   2.765
  137OSM    H8S14819   1.243   2.389   2.806
  137OSM    H8T14820   1.406   2.340   2.741
  137OSM    C9S14821   1.317   2.194   2.872
  137OSM    H9S14822   1.377   2.113   2.825
  137OSM    H9T14823   1.222   2.149   2.907
  137OSM   C10S14824   1.381   2.239   3.003
  137OSM   H10S14825   1.336   2.336   3.032
  137OSM   H10T14826   1.487   2.258   2.974
  137OSM   C11S14827   1.366   2.141   3.124
  137OSM   H11S14828   1.428   2.051   3.102
  137OSM   H11T14829   1.260   2.112   3.142
  137OSM   C12S14830   1.420   2.212   3.259
  137OSM   H12S14831   1.358   2.297   3.294
  137OSM   H12T14832   1.527   2.236   3.238
  137OSM   C13S14833   1.399   2.124   3.385
  137OSM   H13S14834   1.297   2.082   3.381
  137OSM   H13T14835   1.423   2.175   3.481
  137OSM   C14S14836   1.483   1.995   3.392
  137OSM   H14S14837   1.590   2.019   3.410
  137OSM   H14T14838   1.472   1.946   3.293
  137OSM   C15S14839   1.431   1.908   3.509
  137OSM   H15S14840   1.477   1.807   3.507
  137OSM   H15T14841   1.324   1.884   3.493
  137OSM   C16S14842   1.449   1.948   3.655
  137OSM   H16S14843   1.383   2.036   3.668
  137OSM   H16T14844   1.555   1.979   3.670
  137OSM   C17S14845   1.388   1.847   3.757
  137OSM   H17S14846   1.431   1.746   3.742
  137OSM   H17T14847   1.281   1.842   3.726
  137OSM   C18S14848   1.404   1.893   3.904
  137OSM   H18S14849   1.361   1.993   3.925
  137OSM   H18T14850   1.512   1.887   3.930
  137OSM   H18U14851   1.347   1.821   3.966
  137OSM    C1F14852   0.786   2.009   2.373
  137OSM     OF14853   0.865   1.918   2.356
  137OSM    C2F14854   0.665   1.984   2.462
  137OSM    H2F14855   0.586   1.949   2.393
  137OSM    H2G14856   0.636   2.081   2.508
  137OSM    C3F14857   0.693   1.879   2.574
  137OSM    H3F14858   0.769   1.917   2.646
  137OSM    H3G14859   0.752   1.795   2.531
  137OSM    C4F14860   0.573   1.822   2.642
  137OSM    H4F14861   0.593   1.739   2.713
  137OSM    H4G14862   0.524   1.771   2.557
  137OSM    C5F14863   0.488   1.931   2.701
  137OSM    H5F14864   0.391   1.885   2.732
  137OSM    H5G14865   0.457   2.001   2.621
  137OSM    C6F14866   0.546   2.007   2.823
  137OSM    H6F14867   0.475   2.077   2.874
  137OSM    H6G14868   0.627   2.070   2.781
  137OSM    C7F14869   0.597   1.899   2.923
  137OSM    H7F14870   0.677   1.841   2.873
  137OSM    H7G14871   0.516   1.827   2.948
  137OSM    C8F14872   0.655   1.970   3.050
  137OSM    H8F14873   0.742   2.031   3.019
  137OSM    H8G14874   0.692   1.891   3.119
  137OSM    C9F14875   0.557   2.058   3.121
  137OSM    H9F14876   0.531   2.150   3.068
  137OSM   C10F14877   0.511   2.046   3.250
  137OSM   H10F14878   0.436   2.117   3.286
  137OSM   C11F14879   0.552   1.937   3.348
  137OSM   H11F14880   0.644   1.888   3.309
  137OSM   H11G14881   0.472   1.863   3.366
  137OSM   C12F14882   0.598   1.986   3.494
  137OSM   H12F14883   0.515   2.045   3.537
  137OSM   H12G14884   0.687   2.052   3.496
  137OSM   C13F14885   0.644   1.882   3.595
  137OSM   H13F14886   0.735   1.831   3.554
  137OSM   H13G14887   0.559   1.813   3.612
  137OSM   C14F14888   0.694   1.940   3.730
  137OSM   H14F14889   0.616   2.005   3.776
  137OSM   H14G14890   0.781   2.007   3.715
  137OSM   C15F14891   0.721   1.819   3.831
  137OSM   H15F14892   0.779   1.733   3.791
  137OSM   H15G14893   0.626   1.782   3.875
  137OSM   C16F14894   0.807   1.878   3.946
  137OSM   H16F14895   0.874   1.950   3.895
  137OSM   H16G14896   0.872   1.799   3.990
  137OSM   C17F14897   0.716   1.931   4.061
  137OSM   H17F14898   0.656   2.020   4.030
  137OSM   H17G14899   0.800   1.967   4.125
  137OSM   C18F14900   0.632   1.834   4.136
  137OSM   H18F14901   0.686   1.744   4.170
  137OSM   H18G14902   0.542   1.809   4.076
  137OSM   H18H14903   0.601   1.867   4.237
  138OSM      N14904   6.396   5.989   2.121
  138OSM    C1514905   6.521   6.066   2.073
  138OSM   H15A14906   6.489   6.156   2.023
  138OSM   H15B14907   6.584   6.021   1.997
  138OSM   H15C14908   6.587   6.079   2.158
  138OSM    C1414909   6.282   6.015   2.020
  138OSM   H14A14910   6.318   5.979   1.925
  138OSM   H14B14911   6.254   6.119   2.010
  138OSM   H14C14912   6.202   5.951   2.054
  138OSM    C1314913   6.435   5.848   2.126
  138OSM   H13A14914   6.510   5.833   2.203
  138OSM   H13B14915   6.480   5.820   2.032
  138OSM   H13C14916   6.357   5.781   2.160
  138OSM    C1214917   6.345   6.044   2.261
  138OSM   H12A14918   6.307   6.144   2.252
  138OSM   H12B14919   6.428   6.051   2.329
  138OSM    C1114920   6.223   5.970   2.327
  138OSM   H11A14921   6.219   6.005   2.433
  138OSM   H11B14922   6.239   5.860   2.335
  138OSM      P14923   5.996   6.106   2.305
  138OSM    O1314924   6.033   6.220   2.214
  138OSM    O1414925   5.860   6.048   2.285
  138OSM    O1114926   6.033   6.138   2.454
  138OSM    O1214927   6.099   5.994   2.266
  138OSM    C1S14928   5.938   6.228   2.522
  138OSM    H1S14929   5.837   6.182   2.531
  138OSM    H1T14930   5.939   6.327   2.471
  138OSM     NF14931   5.871   6.351   2.730
  138OSM    HNF14932   5.896   6.448   2.730
  138OSM    C2S14933   5.972   6.263   2.672
  138OSM    H2S14934   5.967   6.167   2.728
  138OSM    C3S14935   6.115   6.327   2.678
  138OSM    H3S14936   6.109   6.418   2.614
  138OSM     O314937   6.226   6.257   2.625
  138OSM    HO314938   6.188   6.179   2.584
  138OSM    C4S14939   6.158   6.386   2.816
  138OSM    H4S14940   6.141   6.313   2.896
  138OSM    C5S14941   6.198   6.511   2.843
  138OSM    H5S14942   6.198   6.586   2.762
  138OSM    C6S14943   6.220   6.571   2.984
  138OSM    H6S14944   6.136   6.528   3.043
  138OSM    H6T14945   6.205   6.681   2.990
  138OSM    C7S14946   6.354   6.533   3.045
  138OSM    H7S14947   6.354   6.578   3.147
  138OSM    H7T14948   6.449   6.569   3.000
  138OSM    C8S14949   6.348   6.376   3.073
  138OSM    H8S14950   6.368   6.321   2.978
  138OSM    H8T14951   6.244   6.361   3.108
  138OSM    C9S14952   6.438   6.320   3.184
  138OSM    H9S14953   6.537   6.366   3.164
  138OSM    H9T14954   6.442   6.210   3.192
  138OSM   C10S14955   6.405   6.371   3.322
  138OSM   H10S14956   6.313   6.318   3.353
  138OSM   H10T14957   6.376   6.478   3.317
  138OSM   C11S14958   6.517   6.347   3.432
  138OSM   H11S14959   6.611   6.400   3.404
  138OSM   H11T14960   6.541   6.239   3.424
  138OSM   C12S14961   6.473   6.393   3.574
  138OSM   H12S14962   6.466   6.504   3.581
  138OSM   H12T14963   6.553   6.376   3.649
  138OSM   C13S14964   6.353   6.323   3.634
  138OSM   H13S14965   6.368   6.212   3.637
  138OSM   H13T14966   6.253   6.357   3.602
  138OSM   C14S14967   6.357   6.352   3.780
  138OSM   H14S14968   6.372   6.461   3.793
  138OSM   H14T14969   6.444   6.300   3.824
  138OSM   C15S14970   6.229   6.311   3.854
  138OSM   H15S14971   6.195   6.216   3.809
  138OSM   H15T14972   6.151   6.390   3.842
  138OSM   C16S14973   6.256   6.307   4.007
  138OSM   H16S14974   6.333   6.229   4.025
  138OSM   H16T14975   6.162   6.276   4.059
  138OSM   C17S14976   6.305   6.439   4.068
  138OSM   H17S14977   6.406   6.471   4.033
  138OSM   H17T14978   6.318   6.422   4.177
  138OSM   C18S14979   6.208   6.557   4.055
  138OSM   H18S14980   6.183   6.573   3.948
  138OSM   H18T14981   6.231   6.650   4.111
  138OSM   H18U14982   6.115   6.515   4.099
  138OSM    C1F14983   5.755   6.307   2.769
  138OSM     OF14984   5.733   6.186   2.756
  138OSM    C2F14985   5.650   6.396   2.828
  138OSM    H2F14986   5.561   6.392   2.761
  138OSM    H2G14987   5.690   6.500   2.835
  138OSM    C3F14988   5.602   6.347   2.969
  138OSM    H3F14989   5.589   6.236   2.964
  138OSM    H3G14990   5.510   6.406   2.983
  138OSM    C4F14991   5.703   6.377   3.075
  138OSM    H4F14992   5.797   6.329   3.039
  138OSM    H4G14993   5.673   6.321   3.166
  138OSM    C5F14994   5.724   6.525   3.113
  138OSM    H5F14995   5.643   6.566   3.177
  138OSM    H5G14996   5.730   6.584   3.019
  138OSM    C6F14997   5.855   6.552   3.185
  138OSM    H6F14998   5.860   6.662   3.196
  138OSM    H6G14999   5.946   6.534   3.124
  138OSM    C7F15000   5.863   6.480   3.318
  138OSM    H7F15001   5.903   6.381   3.288
  138OSM    H7G15002   5.759   6.470   3.357
  138OSM    C8F15003   5.948   6.548   3.421
  138OSM    H8F15004   5.897   6.641   3.454
  138OSM    H8G15005   6.046   6.567   3.372
  138OSM    C9F15006   5.978   6.451   3.525
  138OSM    H9F15007   6.051   6.372   3.499
  138OSM   C10F15008   5.922   6.455   3.649
  138OSM   H10F15009   5.949   6.369   3.712
  138OSM   C11F15010   5.831   6.560   3.706
  138OSM   H11F15011   5.745   6.521   3.765
  138OSM   H11G15012   5.793   6.630   3.629
  138OSM   C12F15013   5.897   6.641   3.815
  138OSM   H12F15014   5.984   6.702   3.785
  138OSM   H12G15015   5.947   6.566   3.882
  138OSM   C13F15016   5.804   6.726   3.904
  138OSM   H13F15017   5.730   6.667   3.962
  138OSM   H13G15018   5.748   6.792   3.833
  138OSM   C14F15019   5.880   6.811   4.007
  138OSM   H14F15020   5.934   0.071   3.960
  138OSM   H14G15021   5.959   6.761   4.067
  138OSM   C15F15022   5.789   0.038   4.123
  138OSM   H15F15023   5.732   6.781   4.172
  138OSM   H15G15024   5.721   0.108   4.070
  138OSM   C16F15025   5.864   0.122   4.224
  138OSM   H16F15026   5.905   0.213   4.177
  138OSM   H16G15027   5.945   0.071   4.280
  138OSM   C17F15028   5.759   0.174   4.332
  138OSM   H17F15029   5.731   0.094   4.403
  138OSM   H17G15030   5.666   0.204   4.279
  138OSM   C18F15031   5.818   0.286   4.423
  138OSM   H18F15032   5.914   0.263   4.473
  138OSM   H18G15033   5.740   0.304   4.500
  138OSM   H18H15034   5.821   0.383   4.368
  139OSM      N15035   0.991   0.852   1.721
  139OSM    C1515036   0.993   0.729   1.638
  139OSM   H15A15037   1.055   0.652   1.683
  139OSM   H15B15038   1.028   0.745   1.537
  139OSM   H15C15039   0.894   0.689   1.627
  139OSM    C1415040   0.922   0.807   1.847
  139OSM   H14A15041   0.997   0.757   1.906
  139OSM   H14B15042   0.835   0.746   1.828
  139OSM   H14C15043   0.896   0.897   1.901
  139OSM    C1315044   1.131   0.888   1.756
  139OSM   H13A15045   1.185   0.802   1.792
  139OSM   H13B15046   1.135   0.964   1.833
  139OSM   H13C15047   1.187   0.932   1.674
  139OSM    C1215048   0.909   0.961   1.650
  139OSM   H12A15049   0.818   0.910   1.621
  139OSM   H12B15050   0.960   0.999   1.563
  139OSM    C1115051   0.856   1.079   1.729
  139OSM   H11A15052   0.789   1.035   1.807
  139OSM   H11B15053   0.805   1.143   1.654
  139OSM      P15054   0.931   1.261   1.902
  139OSM    O1315055   0.905   1.389   1.827
  139OSM    O1415056   0.820   1.214   1.993
  139OSM    O1115057   1.068   1.281   1.983
  139OSM    O1215058   0.963   1.154   1.790
  139OSM    C1S15059   1.136   1.172   2.040
  139OSM    H1S15060   1.199   1.139   1.954
  139OSM    H1T15061   1.073   1.092   2.084
  139OSM     NF15062   1.140   1.234   2.278
  139OSM    HNF15063   1.123   1.329   2.303
  139OSM    C2S15064   1.227   1.224   2.163
  139OSM    H2S15065   1.299   1.141   2.178
  139OSM    C3S15066   1.307   1.345   2.116
  139OSM    H3S15067   1.228   1.422   2.098
  139OSM     O315068   1.372   1.320   1.996
  139OSM    HO315069   1.303   1.269   1.954
  139OSM    C4S15070   1.400   1.380   2.217
  139OSM    H4S15071   1.455   1.290   2.246
  139OSM    C5S15072   1.401   1.496   2.281
  139OSM    H5S15073   1.334   1.574   2.241
  139OSM    C6S15074   1.506   1.531   2.382
  139OSM    H6S15075   1.502   1.638   2.414
  139OSM    H6T15076   1.608   1.525   2.339
  139OSM    C7S15077   1.498   1.449   2.517
  139OSM    H7S15078   1.582   1.487   2.579
  139OSM    H7T15079   1.521   1.344   2.489
  139OSM    C8S15080   1.360   1.454   2.583
  139OSM    H8S15081   1.290   1.416   2.506
  139OSM    H8T15082   1.335   1.559   2.613
  139OSM    C9S15083   1.355   1.358   2.712
  139OSM    H9S15084   1.444   1.371   2.778
  139OSM    H9T15085   1.354   1.258   2.665
  139OSM   C10S15086   1.223   1.371   2.802
  139OSM   H10S15087   1.143   1.332   2.736
  139OSM   H10T15088   1.205   1.478   2.824
  139OSM   C11S15089   1.215   1.274   2.922
  139OSM   H11S15090   1.290   1.298   3.000
  139OSM   H11T15091   1.210   1.169   2.885
  139OSM   C12S15092   1.075   1.294   2.984
  139OSM   H12S15093   1.006   1.307   2.899
  139OSM   H12T15094   1.097   1.394   3.029
  139OSM   C13S15095   1.039   1.190   3.089
  139OSM   H13S15096   1.065   1.093   3.043
  139OSM   H13T15097   0.929   1.187   3.108
  139OSM   C14S15098   1.111   1.202   3.225
  139OSM   H14S15099   1.161   1.302   3.228
  139OSM   H14T15100   1.200   1.136   3.235
  139OSM   C15S15101   1.024   1.207   3.362
  139OSM   H15S15102   0.941   1.138   3.336
  139OSM   H15T15103   0.976   1.306   3.376
  139OSM   C16S15104   1.100   1.147   3.479
  139OSM   H16S15105   1.194   1.200   3.506
  139OSM   H16T15106   1.136   1.045   3.453
  139OSM   C17S15107   1.019   1.138   3.600
  139OSM   H17S15108   0.958   1.045   3.609
  139OSM   H17T15109   0.942   1.218   3.611
  139OSM   C18S15110   1.105   1.154   3.723
  139OSM   H18S15111   1.180   1.073   3.713
  139OSM   H18T15112   1.044   1.147   3.816
  139OSM   H18U15113   1.148   1.257   3.717
  139OSM    C1F15114   1.088   1.124   2.332
  139OSM     OF15115   1.148   1.019   2.303
  139OSM    C2F15116   0.965   1.119   2.411
  139OSM    H2F15117   0.967   1.065   2.508
  139OSM    H2G15118   0.881   1.087   2.346
  139OSM    C3F15119   0.927   1.263   2.471
  139OSM    H3F15120   0.900   1.329   2.385
  139OSM    H3G15121   1.023   1.299   2.514
  139OSM    C4F15122   0.822   1.260   2.581
  139OSM    H4F15123   0.849   1.181   2.655
  139OSM    H4G15124   0.722   1.239   2.537
  139OSM    C5F15125   0.811   1.378   2.677
  139OSM    H5F15126   0.775   1.474   2.633
  139OSM    H5G15127   0.917   1.399   2.703
  139OSM    C6F15128   0.711   1.364   2.797
  139OSM    H6F15129   0.745   1.276   2.857
  139OSM    H6G15130   0.611   1.353   2.750
  139OSM    C7F15131   0.720   1.491   2.887
  139OSM    H7F15132   0.670   1.572   2.830
  139OSM    H7G15133   0.827   1.519   2.898
  139OSM    C8F15134   0.656   1.467   3.022
  139OSM    H8F15135   0.713   1.388   3.076
  139OSM    H8G15136   0.548   1.441   3.018
  139OSM    C9F15137   0.667   1.595   3.111
  139OSM    H9F15138   0.652   1.686   3.052
  139OSM   C10F15139   0.697   1.600   3.246
  139OSM   H10F15140   0.709   1.696   3.297
  139OSM   C11F15141   0.717   1.479   3.337
  139OSM   H11F15142   0.792   1.500   3.416
  139OSM   H11G15143   0.744   1.390   3.276
  139OSM   C12F15144   0.583   1.451   3.407
  139OSM   H12F15145   0.519   1.397   3.334
  139OSM   H12G15146   0.522   1.535   3.447
  139OSM   C13F15147   0.591   1.348   3.528
  139OSM   H13F15148   0.625   1.246   3.500
  139OSM   H13G15149   0.487   1.330   3.563
  139OSM   C14F15150   0.663   1.400   3.650
  139OSM   H14F15151   0.621   1.502   3.664
  139OSM   H14G15152   0.770   1.412   3.625
  139OSM   C15F15153   0.658   1.320   3.775
  139OSM   H15F15154   0.717   1.225   3.769
  139OSM   H15G15155   0.555   1.297   3.808
  139OSM   C16F15156   0.723   1.390   3.888
  139OSM   H16F15157   0.657   1.476   3.912
  139OSM   H16G15158   0.814   1.434   3.841
  139OSM   C17F15159   0.759   1.305   4.007
  139OSM   H17F15160   0.823   1.356   4.082
  139OSM   H17G15161   0.808   1.212   3.971
  139OSM   C18F15162   0.640   1.265   4.090
  139OSM   H18F15163   0.662   1.215   4.187
  139OSM   H18G15164   0.572   1.197   4.034
  139OSM   H18H15165   0.573   1.350   4.116
  140OSM      N15166   4.843   6.523   1.840
  140OSM    C1515167   4.726   6.615   1.860
  140OSM   H15A15168   4.747   6.688   1.937
  140OSM   H15B15169   4.633   6.564   1.880
  140OSM   H15C15170   4.708   6.677   1.773
  140OSM    C1415171   4.814   6.424   1.732
  140OSM   H14A15172   4.896   6.354   1.724
  140OSM   H14B15173   4.816   6.476   1.637
  140OSM   H14C15174   4.723   6.367   1.743
  140OSM    C1315175   4.954   6.609   1.803
  140OSM   H13A15176   4.927   6.681   1.726
  140OSM   H13B15177   5.047   6.559   1.783
  140OSM   H13C15178   4.965   6.677   1.886
  140OSM    C1215179   4.874   6.447   1.966
  140OSM   H12A15180   4.972   6.403   1.962
  140OSM   H12B15181   4.808   6.362   1.974
  140OSM    C1115182   4.881   6.525   2.097
  140OSM   H11A15183   4.908   6.453   2.177
  140OSM   H11B15184   4.781   6.561   2.130
  140OSM      P15185   4.949   6.775   2.138
  140OSM    O1315186   5.076   0.026   2.125
  140OSM    O1415187   4.826   0.006   2.078
  140OSM    O1115188   4.927   6.754   2.298
  140OSM    O1215189   4.976   6.629   2.089
  140OSM    C1S15190   5.040   6.715   2.377
  140OSM    H1S15191   5.136   6.717   2.320
  140OSM    H1T15192   5.028   6.608   2.404
  140OSM     NF15193   5.166   6.720   2.588
  140OSM    HNF15194   5.137   6.655   2.657
  140OSM    C2S15195   5.062   6.790   2.518
  140OSM    H2S15196   5.102   0.066   2.493
  140OSM    C3S15197   4.924   6.809   2.595
  140OSM    H3S15198   4.880   6.708   2.603
  140OSM     O315199   4.824   0.043   2.515
  140OSM    HO315200   4.838   6.822   2.432
  140OSM    C4S15201   4.942   0.061   2.724
  140OSM    H4S15202   4.941   0.170   2.712
  140OSM    C5S15203   4.942   0.010   2.846
  140OSM    H5S15204   4.940   6.726   2.862
  140OSM    C6S15205   4.963   0.103   2.970
  140OSM    H6S15206   5.029   0.188   2.943
  140OSM    H6T15207   5.029   0.057   3.046
  140OSM    C7S15208   4.836   0.151   3.029
  140OSM    H7S15209   4.776   0.070   3.078
  140OSM    H7T15210   4.758   0.182   2.956
  140OSM    C8S15211   4.853   0.261   3.131
  140OSM    H8S15212   4.755   0.311   3.145
  140OSM    H8T15213   4.927   0.333   3.089
  140OSM    C9S15214   4.907   0.217   3.273
  140OSM    H9S15215   5.001   0.158   3.280
  140OSM    H9T15216   4.831   0.158   3.328
  140OSM   C10S15217   4.915   0.340   3.366
  140OSM   H10S15218   4.817   0.393   3.368
  140OSM   H10T15219   4.993   0.410   3.328
  140OSM   C11S15220   4.942   0.299   3.513
  140OSM   H11S15221   5.038   0.244   3.523
  140OSM   H11T15222   4.863   0.228   3.544
  140OSM   C12S15223   4.943   0.418   3.603
  140OSM   H12S15224   4.841   0.452   3.634
  140OSM   H12T15225   4.980   0.506   3.548
  140OSM   C13S15226   5.024   0.411   3.740
  140OSM   H13S15227   5.131   0.391   3.718
  140OSM   H13T15228   4.980   0.326   3.797
  140OSM   C14S15229   5.012   0.537   3.828
  140OSM   H14S15230   4.905   0.558   3.845
  140OSM   H14T15231   5.060   0.623   3.777
  140OSM   C15S15232   5.081   0.531   3.971
  140OSM   H15S15233   5.192   0.527   3.962
  140OSM   H15T15234   5.039   0.437   4.013
  140OSM   C16S15235   5.043   0.650   4.062
  140OSM   H16S15236   4.934   0.643   4.083
  140OSM   H16T15237   5.056   0.747   4.009
  140OSM   C17S15238   5.107   0.635   4.203
  140OSM   H17S15239   5.065   0.719   4.262
  140OSM   H17T15240   5.215   0.649   4.181
  140OSM   C18S15241   5.081   0.502   4.281
  140OSM   H18S15242   5.123   0.495   4.383
  140OSM   H18T15243   5.114   0.411   4.227
  140OSM   H18U15244   4.972   0.487   4.297
  140OSM    C1F15245   5.297   6.736   2.551
  140OSM     OF15246   5.332   0.007   2.474
  140OSM    C2F15247   5.408   6.643   2.597
  140OSM    H2F15248   5.477   6.626   2.512
  140OSM    H2G15249   5.367   6.542   2.619
  140OSM    C3F15250   5.482   6.703   2.715
  140OSM    H3F15251   5.499   6.812   2.702
  140OSM    H3G15252   5.581   6.652   2.722
  140OSM    C4F15253   5.397   6.678   2.844
  140OSM    H4F15254   5.409   6.571   2.869
  140OSM    H4G15255   5.292   6.688   2.810
  140OSM    C5F15256   5.404   6.777   2.959
  140OSM    H5F15257   5.354   0.045   2.927
  140OSM    H5G15258   5.512   6.797   2.977
  140OSM    C6F15259   5.328   6.731   3.086
  140OSM    H6F15260   5.383   6.643   3.125
  140OSM    H6G15261   5.233   6.691   3.047
  140OSM    C7F15262   5.319   0.004   3.205
  140OSM    H7F15263   5.258   0.085   3.161
  140OSM    H7G15264   5.422   0.044   3.220
  140OSM    C8F15265   5.264   6.759   3.338
  140OSM    H8F15266   5.169   6.705   3.318
  140OSM    H8G15267   5.246   0.012   3.414
  140OSM    C9F15268   5.357   6.662   3.401
  140OSM    H9F15269   5.357   6.560   3.359
  140OSM   C10F15270   5.441   6.692   3.493
  140OSM   H10F15271   5.509   6.614   3.531
  140OSM   C11F15272   5.468   6.822   3.555
  140OSM   H11F15273   5.457   0.078   3.480
  140OSM   H11G15274   5.575   0.001   3.586
  140OSM   C12F15275   5.372   0.002   3.674
  140OSM   H12F15276   5.404   6.752   3.749
  140OSM   H12G15277   5.267   6.808   3.643
  140OSM   C13F15278   5.388   0.136   3.740
  140OSM   H13F15279   5.336   0.210   3.676
  140OSM   H13G15280   5.497   0.154   3.750
  140OSM   C14F15281   5.337   0.142   3.879
  140OSM   H14F15282   5.378   0.066   3.948
  140OSM   H14G15283   5.228   0.125   3.865
  140OSM   C15F15284   5.352   0.277   3.956
  140OSM   H15F15285   5.304   0.359   3.899
  140OSM   H15G15286   5.462   0.295   3.955
  140OSM   C16F15287   5.299   0.282   4.103
  140OSM   H16F15288   5.189   0.297   4.105
  140OSM   H16G15289   5.343   0.373   4.151
  140OSM   C17F15290   5.338   0.158   4.186
  140OSM   H17F15291   5.449   0.150   4.184
  140OSM   H17G15292   5.286   0.069   4.144
  140OSM   C18F15293   5.280   0.166   4.331
  140OSM   H18F15294   5.342   0.234   4.394
  140OSM   H18G15295   5.277   0.066   4.379
  140OSM   H18H15296   5.177   0.206   4.330
  141OSM      N15297   1.019   4.212   2.068
  141OSM    C1515298   1.017   4.317   1.962
  141OSM   H15A15299   0.932   4.290   1.900
  141OSM   H15B15300   1.111   4.324   1.910
  141OSM   H15C15301   0.996   4.417   1.997
  141OSM    C1415302   1.082   4.090   2.012
  141OSM   H14A15303   1.009   4.048   1.946
  141OSM   H14B15304   1.104   4.030   2.099
  141OSM   H14C15305   1.179   4.107   1.967
  141OSM    C1315306   1.115   4.263   2.170
  141OSM   H13A15307   1.131   4.195   2.252
  141OSM   H13B15308   1.075   4.356   2.207
  141OSM   H13C15309   1.214   4.288   2.133
  141OSM    C1215310   0.894   4.168   2.145
  141OSM   H12A15311   0.876   4.252   2.211
  141OSM   H12B15312   0.915   4.090   2.216
  141OSM    C1115313   0.759   4.139   2.075
  141OSM   H11A15314   0.744   4.232   2.016
  141OSM   H11B15315   0.670   4.127   2.141
  141OSM      P15316   0.738   3.889   2.019
  141OSM    O1315317   0.612   3.837   1.958
  141OSM    O1415318   0.866   3.821   1.998
  141OSM    O1115319   0.711   3.899   2.173
  141OSM    O1215320   0.760   4.040   1.973
  141OSM    C1S15321   0.726   3.786   2.261
  141OSM    H1S15322   0.825   3.740   2.237
  141OSM    H1T15323   0.654   3.703   2.246
  141OSM     NF15324   0.784   3.742   2.500
  141OSM    HNF15325   0.719   3.718   2.572
  141OSM    C2S15326   0.724   3.838   2.401
  141OSM    H2S15327   0.780   3.934   2.397
  141OSM    C3S15328   0.582   3.889   2.443
  141OSM    H3S15329   0.520   3.797   2.437
  141OSM     O315330   0.509   3.967   2.346
  141OSM    HO315331   0.564   3.972   2.268
  141OSM    C4S15332   0.577   3.950   2.582
  141OSM    H4S15333   0.565   3.880   2.667
  141OSM    C5S15334   0.584   4.085   2.609
  141OSM    H5S15335   0.607   4.158   2.530
  141OSM    C6S15336   0.593   4.135   2.759
  141OSM    H6S15337   0.526   4.223   2.774
  141OSM    H6T15338   0.691   4.183   2.781
  141OSM    C7S15339   0.581   4.027   2.869
  141OSM    H7S15340   0.662   3.950   2.866
  141OSM    H7T15341   0.485   3.971   2.865
  141OSM    C8S15342   0.591   4.077   3.017
  141OSM    H8S15343   0.510   4.150   3.036
  141OSM    H8T15344   0.686   4.133   3.034
  141OSM    C9S15345   0.584   3.965   3.120
  141OSM    H9S15346   0.678   3.906   3.116
  141OSM    H9T15347   0.502   3.898   3.084
  141OSM   C10S15348   0.554   4.016   3.259
  141OSM   H10S15349   0.464   4.082   3.260
  141OSM   H10T15350   0.647   4.068   3.290
  141OSM   C11S15351   0.530   3.895   3.355
  141OSM   H11S15352   0.607   3.882   3.434
  141OSM   H11T15353   0.537   3.802   3.295
  141OSM   C12S15354   0.398   3.892   3.433
  141OSM   H12S15355   0.317   3.875   3.360
  141OSM   H12T15356   0.380   3.993   3.477
  141OSM   C13S15357   0.394   3.785   3.554
  141OSM   H13S15358   0.432   3.695   3.501
  141OSM   H13T15359   0.291   3.765   3.591
  141OSM   C14S15360   0.490   3.816   3.668
  141OSM   H14S15361   0.489   3.924   3.694
  141OSM   H14T15362   0.593   3.787   3.639
  141OSM   C15S15363   0.463   3.736   3.785
  141OSM   H15S15364   0.470   3.628   3.757
  141OSM   H15T15365   0.364   3.764   3.825
  141OSM   C16S15366   0.563   3.772   3.892
  141OSM   H16S15367   0.561   3.882   3.902
  141OSM   H16T15368   0.661   3.741   3.848
  141OSM   C17S15369   0.527   3.709   4.030
  141OSM   H17S15370   0.504   3.600   4.027
  141OSM   H17T15371   0.442   3.764   4.075
  141OSM   C18S15372   0.636   3.726   4.131
  141OSM   H18S15373   0.602   3.709   4.236
  141OSM   H18T15374   0.686   3.823   4.115
  141OSM   H18U15375   0.718   3.654   4.108
  141OSM    C1F15376   0.909   3.705   2.480
  141OSM     OF15377   0.981   3.768   2.399
  141OSM    C2F15378   0.974   3.597   2.558
  141OSM    H2F15379   1.042   3.540   2.492
  141OSM    H2G15380   0.895   3.527   2.592
  141OSM    C3F15381   1.045   3.646   2.691
  141OSM    H3F15382   1.134   3.706   2.663
  141OSM    H3G15383   1.077   3.549   2.736
  141OSM    C4F15384   0.955   3.721   2.797
  141OSM    H4F15385   0.873   3.648   2.815
  141OSM    H4G15386   0.918   3.818   2.759
  141OSM    C5F15387   1.034   3.745   2.923
  141OSM    H5F15388   1.116   3.818   2.903
  141OSM    H5G15389   1.093   3.656   2.953
  141OSM    C6F15390   0.942   3.787   3.043
  141OSM    H6F15391   0.856   3.718   3.056
  141OSM    H6G15392   0.909   3.893   3.035
  141OSM    C7F15393   1.036   3.772   3.168
  141OSM    H7F15394   1.127   3.831   3.144
  141OSM    H7G15395   1.066   3.666   3.179
  141OSM    C8F15396   0.962   3.794   3.299
  141OSM    H8F15397   1.000   3.730   3.382
  141OSM    H8G15398   0.861   3.749   3.288
  141OSM    C9F15399   0.968   3.942   3.331
  141OSM    H9F15400   1.012   4.000   3.248
  141OSM   C10F15401   0.930   4.001   3.445
  141OSM   H10F15402   0.936   4.111   3.451
  141OSM   C11F15403   0.888   3.932   3.569
  141OSM   H11F15404   0.917   3.825   3.563
  141OSM   H11G15405   0.777   3.942   3.564
  141OSM   C12F15406   0.947   4.017   3.681
  141OSM   H12F15407   0.915   4.124   3.680
  141OSM   H12G15408   1.058   4.029   3.687
  141OSM   C13F15409   0.920   3.962   3.821
  141OSM   H13F15410   0.976   3.869   3.845
  141OSM   H13G15411   0.812   3.938   3.822
  141OSM   C14F15412   0.946   4.074   3.925
  141OSM   H14F15413   0.854   4.135   3.937
  141OSM   H14G15414   1.027   4.139   3.886
  141OSM   C15F15415   1.009   4.020   4.053
  141OSM   H15F15416   1.112   3.988   4.028
  141OSM   H15G15417   0.973   3.919   4.084
  141OSM   C16F15418   1.018   4.116   4.170
  141OSM   H16F15419   1.096   4.078   4.239
  141OSM   H16G15420   0.917   4.115   4.218
  141OSM   C17F15421   1.057   4.258   4.134
  141OSM   H17F15422   1.005   4.325   4.206
  141OSM   H17G15423   1.010   4.280   4.036
  141OSM   C18F15424   1.208   4.287   4.118
  141OSM   H18F15425   1.262   4.288   4.215
  141OSM   H18G15426   1.219   4.387   4.072
  141OSM   H18H15427   1.255   4.213   4.049
  142OSM      N15428   1.719   5.597   1.645
  142OSM    C1515429   1.797   5.704   1.559
  142OSM   H15A15430   1.749   5.700   1.462
  142OSM   H15B15431   1.899   5.678   1.536
  142OSM   H15C15432   1.790   5.807   1.590
  142OSM    C1415433   1.571   5.616   1.634
  142OSM   H14A15434   1.516   5.565   1.712
  142OSM   H14B15435   1.531   5.589   1.538
  142OSM   H14C15436   1.551   5.719   1.657
  142OSM    C1315437   1.769   5.460   1.595
  142OSM   H13A15438   1.749   5.452   1.489
  142OSM   H13B15439   1.718   5.382   1.649
  142OSM   H13C15440   1.876   5.461   1.609
  142OSM    C1215441   1.767   5.613   1.787
  142OSM   H12A15442   1.875   5.609   1.790
  142OSM   H12B15443   1.741   5.524   1.842
  142OSM    C1115444   1.733   5.731   1.886
  142OSM   H11A15445   1.764   5.824   1.833
  142OSM   H11B15446   1.799   5.732   1.976
  142OSM      P15447   1.512   5.650   2.011
  142OSM    O1315448   1.471   5.720   2.135
  142OSM    O1415449   1.403   5.594   1.926
  142OSM    O1115450   1.630   5.548   2.042
  142OSM    O1215451   1.591   5.751   1.925
  142OSM    C1S15452   1.711   5.559   2.153
  142OSM    H1S15453   1.686   5.650   2.211
  142OSM    H1T15454   1.818   5.565   2.123
  142OSM     NF15455   1.755   5.465   2.370
  142OSM    HNF15456   1.853   5.447   2.364
  142OSM    C2S15457   1.689   5.437   2.246
  142OSM    H2S15458   1.580   5.432   2.266
  142OSM    C3S15459   1.726   5.304   2.184
  142OSM    H3S15460   1.827   5.311   2.138
  142OSM     O315461   1.641   5.264   2.077
  142OSM    HO315462   1.609   5.353   2.059
  142OSM    C4S15463   1.714   5.190   2.289
  142OSM    H4S15464   1.609   5.184   2.321
  142OSM    C5S15465   1.813   5.104   2.329
  142OSM    H5S15466   1.908   5.095   2.275
  142OSM    C6S15467   1.782   4.986   2.418
  142OSM    H6S15468   1.831   4.893   2.383
  142OSM    H6T15469   1.674   4.962   2.409
  142OSM    C7S15470   1.816   5.015   2.564
  142OSM    H7S15471   1.916   5.062   2.575
  142OSM    H7T15472   1.813   4.923   2.627
  142OSM    C8S15473   1.712   5.110   2.628
  142OSM    H8S15474   1.611   5.063   2.627
  142OSM    H8T15475   1.706   5.209   2.578
  142OSM    C9S15476   1.742   5.123   2.777
  142OSM    H9S15477   1.842   5.170   2.790
  142OSM    H9T15478   1.739   5.027   2.833
  142OSM   C10S15479   1.655   5.219   2.851
  142OSM   H10S15480   1.557   5.170   2.867
  142OSM   H10T15481   1.632   5.302   2.781
  142OSM   C11S15482   1.704   5.280   2.982
  142OSM   H11S15483   1.798   5.336   2.961
  142OSM   H11T15484   1.720   5.197   3.055
  142OSM   C12S15485   1.602   5.382   3.040
  142OSM   H12S15486   1.509   5.329   3.070
  142OSM   H12T15487   1.577   5.464   2.969
  142OSM   C13S15488   1.668   5.461   3.159
  142OSM   H13S15489   1.602   5.550   3.159
  142OSM   H13T15490   1.774   5.490   3.143
  142OSM   C14S15491   1.654   5.386   3.292
  142OSM   H14S15492   1.724   5.300   3.293
  142OSM   H14T15493   1.551   5.343   3.287
  142OSM   C15S15494   1.685   5.483   3.410
  142OSM   H15S15495   1.608   5.563   3.421
  142OSM   H15T15496   1.773   5.539   3.373
  142OSM   C16S15497   1.720   5.416   3.540
  142OSM   H16S15498   1.783   5.326   3.523
  142OSM   H16T15499   1.624   5.388   3.588
  142OSM   C17S15500   1.797   5.513   3.638
  142OSM   H17S15501   1.732   5.601   3.655
  142OSM   H17T15502   1.883   5.539   3.572
  142OSM   C18S15503   1.858   5.445   3.765
  142OSM   H18S15504   1.787   5.409   3.842
  142OSM   H18T15505   1.923   5.523   3.809
  142OSM   H18U15506   1.916   5.356   3.731
  142OSM    C1F15507   1.706   5.552   2.455
  142OSM     OF15508   1.589   5.583   2.449
  142OSM    C2F15509   1.804   5.612   2.557
  142OSM    H2F15510   1.876   5.680   2.506
  142OSM    H2G15511   1.876   5.531   2.584
  142OSM    C3F15512   1.727   5.681   2.662
  142OSM    H3F15513   1.665   5.607   2.716
  142OSM    H3G15514   1.653   5.754   2.624
  142OSM    C4F15515   1.812   5.753   2.769
  142OSM    H4F15516   1.747   5.760   2.859
  142OSM    H4G15517   1.817   5.859   2.734
  142OSM    C5F15518   1.939   5.684   2.806
  142OSM    H5F15519   2.000   5.688   2.714
  142OSM    H5G15520   1.905   5.581   2.830
  142OSM    C6F15521   2.008   5.745   2.930
  142OSM    H6F15522   1.943   5.792   3.007
  142OSM    H6G15523   2.077   5.825   2.894
  142OSM    C7F15524   2.093   5.642   2.999
  142OSM    H7F15525   2.200   5.653   2.972
  142OSM    H7G15526   2.073   5.543   2.953
  142OSM    C8F15527   2.109   5.641   3.155
  142OSM    H8F15528   2.164   5.547   3.181
  142OSM    H8G15529   2.008   5.645   3.201
  142OSM    C9F15530   2.198   5.758   3.201
  142OSM    H9F15531   2.143   5.852   3.217
  142OSM   C10F15532   2.329   5.751   3.230
  142OSM   H10F15533   2.378   5.844   3.264
  142OSM   C11F15534   2.431   5.646   3.207
  142OSM   H11F15535   2.533   5.684   3.186
  142OSM   H11G15536   2.405   5.604   3.107
  142OSM   C12F15537   2.446   5.558   3.325
  142OSM   H12F15538   2.518   5.476   3.305
  142OSM   H12G15539   2.351   5.507   3.353
  142OSM   C13F15540   2.498   5.616   3.456
  142OSM   H13F15541   2.446   5.710   3.482
  142OSM   H13G15542   2.604   5.650   3.451
  142OSM   C14F15543   2.488   5.525   3.577
  142OSM   H14F15544   2.540   5.427   3.563
  142OSM   H14G15545   2.382   5.505   3.601
  142OSM   C15F15546   2.553   5.590   3.700
  142OSM   H15F15547   2.502   5.687   3.722
  142OSM   H15G15548   2.664   5.592   3.695
  142OSM   C16F15549   2.528   5.498   3.825
  142OSM   H16F15550   2.606   5.525   3.900
  142OSM   H16G15551   2.551   5.392   3.800
  142OSM   C17F15552   2.387   5.504   3.896
  142OSM   H17F15553   2.314   5.462   3.824
  142OSM   H17G15554   2.361   5.609   3.921
  142OSM   C18F15555   2.379   5.439   4.035
  142OSM   H18F15556   2.416   5.334   4.038
  142OSM   H18G15557   2.277   5.446   4.077
  142OSM   H18H15558   2.450   5.495   4.101
  143OSM      N15559   1.194   4.980   1.846
  143OSM    C1515560   1.062   5.035   1.844
  143OSM   H15A15561   1.053   5.126   1.787
  143OSM   H15B15562   1.029   5.060   1.943
  143OSM   H15C15563   0.999   4.956   1.806
  143OSM    C1415564   1.248   4.984   1.712
  143OSM   H14A15565   1.260   5.082   1.669
  143OSM   H14B15566   1.192   4.921   1.645
  143OSM   H14C15567   1.350   4.948   1.713
  143OSM    C1315568   1.285   5.061   1.942
  143OSM   H13A15569   1.243   5.060   2.041
  143OSM   H13B15570   1.283   5.165   1.913
  143OSM   H13C15571   1.388   5.032   1.954
  143OSM    C1215572   1.198   4.841   1.907
  143OSM   H12A15573   1.168   4.850   2.010
  143OSM   H12B15574   1.297   4.801   1.919
  143OSM    C1115575   1.114   4.730   1.846
  143OSM   H11A15576   1.143   4.632   1.890
  143OSM   H11B15577   1.146   4.725   1.740
  143OSM      P15578   0.894   4.701   1.986
  143OSM    O1315579   0.777   4.788   2.020
  143OSM    O1415580   0.857   4.564   1.956
  143OSM    O1115581   1.002   4.704   2.110
  143OSM    O1215582   0.974   4.756   1.866
  143OSM    C1S15583   0.955   4.724   2.247
  143OSM    H1S15584   0.871   4.657   2.273
  143OSM    H1T15585   0.919   4.828   2.266
  143OSM     NF15586   1.012   4.733   2.486
  143OSM    HNF15587   1.041   4.822   2.520
  143OSM    C2S15588   1.066   4.701   2.361
  143OSM    H2S15589   1.095   4.594   2.364
  143OSM    C3S15590   1.200   4.771   2.327
  143OSM    H3S15591   1.185   4.877   2.357
  143OSM     O315592   1.239   4.776   2.193
  143OSM    HO315593   1.162   4.744   2.144
  143OSM    C4S15594   1.316   4.715   2.403
  143OSM    H4S15595   1.339   4.610   2.380
  143OSM    C5S15596   1.396   4.793   2.482
  143OSM    H5S15597   1.382   4.902   2.481
  143OSM    C6S15598   1.505   4.738   2.563
  143OSM    H6S15599   1.530   4.809   2.644
  143OSM    H6T15600   1.596   4.732   2.500
  143OSM    C7S15601   1.468   4.603   2.630
  143OSM    H7S15602   1.444   4.531   2.549
  143OSM    H7T15603   1.383   4.609   2.701
  143OSM    C8S15604   1.584   4.538   2.707
  143OSM    H8S15605   1.672   4.527   2.640
  143OSM    H8T15606   1.553   4.438   2.746
  143OSM    C9S15607   1.631   4.632   2.825
  143OSM    H9S15608   1.535   4.681   2.849
  143OSM    H9T15609   1.692   4.717   2.786
  143OSM   C10S15610   1.702   4.552   2.935
  143OSM   H10S15611   1.798   4.518   2.892
  143OSM   H10T15612   1.632   4.470   2.964
  143OSM   C11S15613   1.747   4.642   3.047
  143OSM   H11S15614   1.653   4.695   3.075
  143OSM   H11T15615   1.812   4.720   3.001
  143OSM   C12S15616   1.804   4.572   3.172
  143OSM   H12S15617   1.915   4.575   3.167
  143OSM   H12T15618   1.760   4.470   3.170
  143OSM   C13S15619   1.758   4.647   3.301
  143OSM   H13S15620   1.648   4.657   3.293
  143OSM   H13T15621   1.807   4.747   3.294
  143OSM   C14S15622   1.806   4.575   3.428
  143OSM   H14S15623   1.915   4.560   3.412
  143OSM   H14T15624   1.751   4.478   3.429
  143OSM   C15S15625   1.766   4.647   3.552
  143OSM   H15S15626   1.657   4.671   3.550
  143OSM   H15T15627   1.826   4.740   3.559
  143OSM   C16S15628   1.801   4.555   3.672
  143OSM   H16S15629   1.911   4.540   3.673
  143OSM   H16T15630   1.763   4.451   3.658
  143OSM   C17S15631   1.766   4.600   3.809
  143OSM   H17S15632   1.656   4.616   3.797
  143OSM   H17T15633   1.794   4.704   3.836
  143OSM   C18S15634   1.763   4.496   3.923
  143OSM   H18S15635   1.716   4.397   3.903
  143OSM   H18T15636   1.718   4.526   4.021
  143OSM   H18U15637   1.869   4.471   3.945
  143OSM    C1F15638   0.917   4.650   2.538
  143OSM     OF15639   0.875   4.552   2.477
  143OSM    C2F15640   0.865   4.680   2.671
  143OSM    H2F15641   0.783   4.755   2.679
  143OSM    H2G15642   0.947   4.708   2.740
  143OSM    C3F15643   0.809   4.547   2.735
  143OSM    H3F15644   0.875   4.460   2.714
  143OSM    H3G15645   0.717   4.525   2.676
  143OSM    C4F15646   0.769   4.570   2.886
  143OSM    H4F15647   0.682   4.638   2.885
  143OSM    H4G15648   0.857   4.625   2.927
  143OSM    C5F15649   0.729   4.449   2.970
  143OSM    H5F15650   0.815   4.381   2.987
  143OSM    H5G15651   0.648   4.392   2.920
  143OSM    C6F15652   0.681   4.502   3.111
  143OSM    H6F15653   0.571   4.516   3.115
  143OSM    H6G15654   0.738   4.596   3.130
  143OSM    C7F15655   0.732   4.402   3.227
  143OSM    H7F15656   0.841   4.394   3.211
  143OSM    H7G15657   0.676   4.309   3.206
  143OSM    C8F15658   0.695   4.455   3.361
  143OSM    H8F15659   0.586   4.453   3.383
  143OSM    H8G15660   0.722   4.563   3.357
  143OSM    C9F15661   0.780   4.395   3.470
  143OSM    H9F15662   0.871   4.456   3.487
  143OSM   C10F15663   0.739   4.313   3.572
  143OSM   H10F15664   0.810   4.277   3.647
  143OSM   C11F15665   0.612   4.235   3.569
  143OSM   H11F15666   0.629   4.127   3.552
  143OSM   H11G15667   0.546   4.279   3.491
  143OSM   C12F15668   0.532   4.286   3.693
  143OSM   H12F15669   0.441   4.222   3.698
  143OSM   H12G15670   0.498   4.391   3.682
  143OSM   C13F15671   0.600   4.238   3.823
  143OSM   H13F15672   0.699   4.288   3.832
  143OSM   H13G15673   0.599   4.128   3.812
  143OSM   C14F15674   0.531   4.262   3.962
  143OSM   H14F15675   0.435   4.207   3.948
  143OSM   H14G15676   0.516   4.369   3.986
  143OSM   C15F15677   0.611   4.195   4.079
  143OSM   H15F15678   0.708   4.248   4.084
  143OSM   H15G15679   0.634   4.090   4.053
  143OSM   C16F15680   0.541   4.196   4.218
  143OSM   H16F15681   0.443   4.145   4.205
  143OSM   H16G15682   0.527   4.305   4.234
  143OSM   C17F15683   0.621   4.130   4.325
  143OSM   H17F15684   0.715   4.187   4.343
  143OSM   H17G15685   0.644   4.024   4.298
  143OSM   C18F15686   0.546   4.125   4.456
  143OSM   H18F15687   0.468   4.047   4.440
  143OSM   H18G15688   0.497   4.223   4.475
  143OSM   H18H15689   0.619   4.097   4.534
  144OSM      N15690   0.133   5.792   2.169
  144OSM    C1515691   0.094   5.931   2.201
  144OSM   H15A15692   0.029   5.975   2.127
  144OSM   H15B15693   0.168   6.007   2.219
  144OSM   H15C15694   0.030   5.935   2.288
  144OSM    C1415695   0.007   5.717   2.141
  144OSM   H14A15696   6.773   5.710   2.231
  144OSM   H14B15697   0.036   5.620   2.106
  144OSM   H14C15698   6.771   5.761   2.064
  144OSM    C1315699   0.214   5.790   2.033
  144OSM   H13A15700   0.229   5.690   1.994
  144OSM   H13B15701   0.314   5.830   2.045
  144OSM   H13C15702   0.165   5.864   1.970
  144OSM    C1215703   0.223   5.730   2.276
  144OSM   H12A15704   0.175   5.752   2.371
  144OSM   H12B15705   0.318   5.780   2.272
  144OSM    C1115706   0.240   5.579   2.279
  144OSM   H11A15707   0.272   5.532   2.184
  144OSM   H11B15708   0.142   5.533   2.307
  144OSM      P15709   0.487   5.579   2.355
  144OSM    O1315710   0.541   5.456   2.283
  144OSM    O1415711   0.517   5.709   2.293
  144OSM    O1115712   0.555   5.570   2.504
  144OSM    O1215713   0.332   5.555   2.380
  144OSM    C1S15714   0.563   5.687   2.583
  144OSM    H1S15715   0.464   5.733   2.603
  144OSM    H1T15716   0.629   5.766   2.541
  144OSM     NF15717   0.596   5.749   2.829
  144OSM    HNF15718   0.683   5.780   2.865
  144OSM    C2S15719   0.600   5.638   2.726
  144OSM    H2S15720   0.517   5.569   2.753
  144OSM    C3S15721   0.732   5.563   2.724
  144OSM    H3S15722   0.797   5.635   2.670
  144OSM     O315723   0.726   5.449   2.642
  144OSM    HO315724   0.651   5.467   2.585
  144OSM    C4S15725   0.768   5.520   2.862
  144OSM    H4S15726   0.690   5.477   2.927
  144OSM    C5S15727   0.878   5.548   2.931
  144OSM    H5S15728   0.951   5.616   2.886
  144OSM    C6S15729   0.922   5.507   3.069
  144OSM    H6S15730   0.948   5.596   3.130
  144OSM    H6T15731   1.022   5.459   3.057
  144OSM    C7S15732   0.829   5.416   3.147
  144OSM    H7S15733   0.838   5.309   3.119
  144OSM    H7T15734   0.722   5.440   3.130
  144OSM    C8S15735   0.859   5.416   3.297
  144OSM    H8S15736   0.834   5.514   3.342
  144OSM    H8T15737   0.969   5.406   3.311
  144OSM    C9S15738   0.795   5.301   3.376
  144OSM    H9S15739   0.829   5.206   3.328
  144OSM    H9T15740   0.685   5.313   3.367
  144OSM   C10S15741   0.844   5.281   3.521
  144OSM   H10S15742   0.815   5.368   3.584
  144OSM   H10T15743   0.955   5.274   3.526
  144OSM   C11S15744   0.777   5.159   3.586
  144OSM   H11S15745   0.811   5.065   3.538
  144OSM   H11T15746   0.667   5.168   3.581
  144OSM   C12S15747   0.816   5.144   3.732
  144OSM   H12S15748   0.807   5.249   3.768
  144OSM   H12T15749   0.925   5.122   3.736
  144OSM   C13S15750   0.744   5.046   3.821
  144OSM   H13S15751   0.763   4.944   3.782
  144OSM   H13T15752   0.634   5.053   3.817
  144OSM   C14S15753   0.774   5.060   3.972
  144OSM   H14S15754   0.738   5.162   4.000
  144OSM   H14T15755   0.881   5.053   4.001
  144OSM   C15S15756   0.694   4.962   4.059
  144OSM   H15S15757   0.748   4.865   4.049
  144OSM   H15T15758   0.588   4.943   4.032
  144OSM   C16S15759   0.681   5.003   4.208
  144OSM   H16S15760   0.628   4.916   4.252
  144OSM   H16T15761   0.624   5.097   4.223
  144OSM   C17S15762   0.822   5.020   4.278
  144OSM   H17S15763   0.868   5.114   4.241
  144OSM   H17T15764   0.881   4.940   4.229
  144OSM   C18S15765   0.809   5.017   4.428
  144OSM   H18S15766   0.728   4.949   4.463
  144OSM   H18T15767   0.786   5.122   4.460
  144OSM   H18U15768   0.903   4.984   4.476
  144OSM    C1F15769   0.489   5.816   2.870
  144OSM     OF15770   0.374   5.786   2.838
  144OSM    C2F15771   0.515   5.938   2.953
  144OSM    H2F15772   0.514   6.024   2.882
  144OSM    H2G15773   0.620   5.930   2.988
  144OSM    C3F15774   0.429   5.967   3.078
  144OSM    H3F15775   0.325   5.990   3.047
  144OSM    H3G15776   0.483   6.054   3.121
  144OSM    C4F15777   0.417   5.862   3.183
  144OSM    H4F15778   0.520   5.819   3.182
  144OSM    H4G15779   0.346   5.779   3.162
  144OSM    C5F15780   0.380   5.900   3.326
  144OSM    H5F15781   0.289   5.962   3.310
  144OSM    H5G15782   0.466   5.962   3.358
  144OSM    C6F15783   0.337   5.788   3.425
  144OSM    H6F15784   0.428   5.738   3.464
  144OSM    H6G15785   0.265   5.714   3.384
  144OSM    C7F15786   0.248   5.843   3.534
  144OSM    H7F15787   0.155   5.878   3.485
  144OSM    H7G15788   0.293   5.929   3.587
  144OSM    C8F15789   0.208   5.731   3.627
  144OSM    H8F15790   0.304   5.692   3.667
  144OSM    H8G15791   0.154   5.644   3.583
  144OSM    C9F15792   0.132   5.794   3.748
  144OSM    H9F15793   0.104   5.899   3.732
  144OSM   C10F15794   0.126   5.734   3.868
  144OSM   H10F15795   0.076   5.784   3.953
  144OSM   C11F15796   0.188   5.597   3.883
  144OSM   H11F15797   0.254   5.565   3.799
  144OSM   H11G15798   0.107   5.521   3.887
  144OSM   C12F15799   0.274   5.599   4.007
  144OSM   H12F15800   0.201   5.624   4.087
  144OSM   H12G15801   0.352   5.678   4.008
  144OSM   C13F15802   0.332   5.465   4.037
  144OSM   H13F15803   0.404   5.431   3.959
  144OSM   H13G15804   0.257   5.383   4.029
  144OSM   C14F15805   0.406   5.450   4.175
  144OSM   H14F15806   0.433   5.343   4.170
  144OSM   H14G15807   0.333   5.474   4.256
  144OSM   C15F15808   0.535   5.531   4.182
  144OSM   H15F15809   0.509   5.639   4.186
  144OSM   H15G15810   0.588   5.538   4.085
  144OSM   C16F15811   0.642   5.487   4.281
  144OSM   H16F15812   0.738   5.541   4.293
  144OSM   H16G15813   0.680   5.391   4.241
  144OSM   C17F15814   0.580   5.455   4.418
  144OSM   H17F15815   0.508   5.372   4.400
  144OSM   H17G15816   0.520   5.542   4.453
  144OSM   C18F15817   0.695   5.415   4.510
  144OSM   H18F15818   0.671   5.367   4.608
  144OSM   H18G15819   0.743   5.508   4.547
  144OSM   H18H15820   0.771   5.355   4.456
  145SAPE     N15821   1.819   0.847   6.475
  145SAPE   HN115822   1.921   0.837   6.495
  145SAPE   HN215823   1.795   0.948   6.482
  145SAPE   HN315824   1.755   0.818   6.552
  145SAPE   C1215825   1.784   0.799   6.334
  145SAPE  H12A15826   1.803   0.690   6.335
  145SAPE  H12B15827   1.857   0.849   6.268
  145SAPE   C1115828   1.636   0.840   6.300
  145SAPE  H11A15829   1.620   0.790   6.201
  145SAPE  H11B15830   1.621   0.950   6.294
  145SAPE     P15831   1.443   0.675   6.373
  145SAPE   O1315832   1.522   0.556   6.349
  145SAPE   O1415833   1.346   0.665   6.481
  145SAPE   O1215834   1.548   0.794   6.403
  145SAPE   O1115835   1.363   0.721   6.245
  145SAPE    C115836   1.280   0.832   6.232
  145SAPE    HA15837   1.187   0.820   6.292
  145SAPE    HB15838   1.332   0.924   6.265
  145SAPE    C215839   1.263   0.861   6.084
  145SAPE    HS15840   1.229   0.964   6.063
  145SAPE   O2115841   1.177   0.764   6.015
  145SAPE   C2115842   1.049   0.807   6.012
  145SAPE   O2215843   1.006   0.917   6.051
  145SAPE   C2215844   0.955   0.697   5.963
  145SAPE   H2R15845   1.009   0.611   5.917
  145SAPE   H2S15846   0.905   0.657   6.054
  145SAPE    C315847   1.403   0.860   6.013
  145SAPE    HX15848   1.449   0.763   6.042
  145SAPE    HY15849   1.474   0.937   6.049
  145SAPE   O3115850   1.394   0.864   5.867
  145SAPE   C3115851   1.376   0.982   5.809
  145SAPE   O3215852   1.353   1.087   5.864
  145SAPE   C3215853   1.397   0.955   5.655
  145SAPE   H2X15854   1.303   0.911   5.617
  145SAPE   H2Y15855   1.477   0.878   5.655
  145SAPE   C2315856   0.836   0.757   5.878
  145SAPE   H3R15857   0.777   0.839   5.924
  145SAPE   H3S15858   0.769   0.672   5.852
  145SAPE   C2415859   0.880   0.816   5.743
  145SAPE   H4R15860   0.960   0.889   5.767
  145SAPE   H4S15861   0.793   0.868   5.698
  145SAPE   C2515862   0.942   0.711   5.652
  145SAPE   H5R15863   0.980   0.624   5.707
  145SAPE   C2615864   0.962   0.723   5.525
  145SAPE   H6R15865   1.001   0.634   5.473
  145SAPE   C2715866   0.937   0.844   5.433
  145SAPE   H7R15867   0.917   0.930   5.500
  145SAPE   H7S15868   0.840   0.842   5.378
  145SAPE   C2815869   1.053   0.869   5.340
  145SAPE   H8R15870   1.134   0.927   5.385
  145SAPE   C2915871   1.060   0.844   5.207
  145SAPE   H9R15872   1.154   0.873   5.158
  145SAPE  C21015873   0.949   0.788   5.119
  145SAPE  H10R15874   0.871   0.732   5.174
  145SAPE  H10S15875   0.998   0.719   5.046
  145SAPE  C21115876   0.884   0.903   5.045
  145SAPE  H11R15877   0.807   0.953   5.105
  145SAPE  C21215878   0.903   0.939   4.920
  145SAPE  H12R15879   0.848   1.023   4.875
  145SAPE  C21315880   0.992   0.869   4.820
  145SAPE  H13R15881   0.992   0.759   4.836
  145SAPE  H13S15882   1.097   0.885   4.853
  145SAPE  C21415883   0.963   0.906   4.679
  145SAPE  H14R15884   1.041   0.970   4.635
  145SAPE  C21515885   0.864   0.863   4.593
  145SAPE  H15R15886   0.858   0.912   4.495
  145SAPE  C21615887   0.761   0.763   4.635
  145SAPE  H16R15888   0.663   0.775   4.585
  145SAPE  H16S15889   0.744   0.777   4.744
  145SAPE  C21715890   0.795   0.617   4.610
  145SAPE  H17R15891   0.896   0.591   4.649
  145SAPE  H17S15892   0.798   0.606   4.500
  145SAPE  C21815893   0.692   0.524   4.658
  145SAPE  H18R15894   0.689   0.531   4.769
  145SAPE  H18S15895   0.723   0.420   4.635
  145SAPE  C21915896   0.555   0.543   4.602
  145SAPE  H19R15897   0.516   0.642   4.634
  145SAPE  H19S15898   0.473   0.478   4.639
  145SAPE  C22015899   0.539   0.533   4.453
  145SAPE  H20R15900   0.579   0.437   4.415
  145SAPE  H20S15901   0.591   0.622   4.410
  145SAPE  H20T15902   0.429   0.536   4.434
  145SAPE   C3315903   1.458   1.072   5.575
  145SAPE   H3X15904   1.549   1.106   5.628
  145SAPE   H3Y15905   1.390   1.159   5.565
  145SAPE   C3415906   1.510   1.034   5.435
  145SAPE   H4X15907   1.558   0.934   5.440
  145SAPE   H4Y15908   1.587   1.109   5.407
  145SAPE   C3515909   1.409   1.034   5.322
  145SAPE   H5X15910   1.344   0.946   5.341
  145SAPE   H5Y15911   1.463   1.017   5.227
  145SAPE   C3615912   1.330   1.170   5.314
  145SAPE   H6X15913   1.403   1.254   5.313
  145SAPE   H6Y15914   1.264   1.194   5.400
  145SAPE   C3715915   1.243   1.178   5.188
  145SAPE   H7X15916   1.179   1.267   5.173
  145SAPE   H7Y15917   1.175   1.091   5.197
  145SAPE   C3815918   1.319   1.157   5.057
  145SAPE   H8X15919   1.347   1.050   5.042
  145SAPE   H8Y15920   1.414   1.214   5.054
  145SAPE   C3915921   1.248   1.206   4.934
  145SAPE   H9X15922   1.230   1.315   4.937
  145SAPE   H9Y15923   1.148   1.158   4.931
  145SAPE  C31015924   1.323   1.169   4.799
  145SAPE  H10X15925   1.332   1.059   4.811
  145SAPE  H10Y15926   1.423   1.218   4.794
  145SAPE  C31115927   1.234   1.189   4.674
  145SAPE  H11X15928   1.207   1.297   4.670
  145SAPE  H11Y15929   1.132   1.150   4.693
  145SAPE  C31215930   1.298   1.133   4.547
  145SAPE  H12X15931   1.299   1.022   4.558
  145SAPE  H12Y15932   1.404   1.166   4.538
  145SAPE  C31315933   1.230   1.166   4.415
  145SAPE  H13X15934   1.247   1.273   4.390
  145SAPE  H13Y15935   1.121   1.154   4.431
  145SAPE  C31415936   1.285   1.092   4.301
  145SAPE  H14X15937   1.270   0.983   4.312
  145SAPE  H14Y15938   1.394   1.116   4.301
  145SAPE  C31515939   1.231   1.123   4.155
  145SAPE  H15X15940   1.286   1.054   4.087
  145SAPE  H15Y15941   1.265   1.227   4.137
  145SAPE  C31615942   1.078   1.115   4.148
  145SAPE  H16X15943   1.040   1.161   4.054
  145SAPE  H16Y15944   1.042   1.185   4.226
  145SAPE  C31715945   1.026   0.974   4.179
  145SAPE  H17X15946   1.054   0.936   4.280
  145SAPE  H17Y15947   1.073   0.904   4.108
  145SAPE  C31815948   0.879   0.951   4.154
  145SAPE  H18X15949   0.861   0.842   4.163
  145SAPE  H18Y15950   0.844   0.975   4.051
  145SAPE  H18Z15951   0.814   0.999   4.231
  146SAPE     N15952   3.667   6.809   6.485
  146SAPE   HN115953   3.665   0.001   6.587
  146SAPE   HN215954   3.664   0.077   6.438
  146SAPE   HN315955   3.579   6.759   6.462
  146SAPE   C1215956   3.786   6.725   6.447
  146SAPE  H12A15957   3.764   6.624   6.486
  146SAPE  H12B15958   3.865   6.771   6.510
  146SAPE   C1115959   3.819   6.734   6.297
  146SAPE  H11A15960   3.826   0.018   6.277
  146SAPE  H11B15961   3.741   6.694   6.228
  146SAPE     P15962   4.084   6.720   6.301
  146SAPE   O1315963   4.072   0.019   6.372
  146SAPE   O1415964   4.174   6.621   6.366
  146SAPE   O1215965   3.933   6.658   6.279
  146SAPE   O1115966   4.144   6.759   6.161
  146SAPE    C115967   4.154   6.659   6.058
  146SAPE    HA15968   4.236   6.589   6.085
  146SAPE    HB15969   4.060   6.601   6.042
  146SAPE    C215970   4.200   6.730   5.932
  146SAPE    HS15971   4.296   6.783   5.953
  146SAPE   O2115972   4.099   6.823   5.898
  146SAPE   C2115973   4.135   0.108   5.842
  146SAPE   O2215974   4.247   0.151   5.838
  146SAPE   C2215975   4.014   0.184   5.786
  146SAPE   H2R15976   3.930   0.113   5.768
  146SAPE   H2S15977   3.986   0.250   5.870
  146SAPE    C315978   4.234   6.646   5.816
  146SAPE    HX15979   4.145   6.589   5.781
  146SAPE    HY15980   4.312   6.572   5.846
  146SAPE   O3115981   4.273   6.720   5.704
  146SAPE   C3115982   4.405   6.726   5.668
  146SAPE   O3215983   4.496   6.695   5.745
  146SAPE   C3215984   4.420   6.764   5.523
  146SAPE   H2X15985   4.433   6.676   5.455
  146SAPE   H2Y15986   4.515   6.822   5.521
  146SAPE   C2315987   4.055   0.264   5.659
  146SAPE   H3R15988   4.088   0.181   5.593
  146SAPE   H3S15989   4.148   0.323   5.672
  146SAPE   C2415990   3.953   0.341   5.581
  146SAPE   H4R15991   3.955   0.443   5.624
  146SAPE   H4S15992   3.850   0.305   5.601
  146SAPE   C2515993   3.987   0.343   5.438
  146SAPE   H5R15994   4.093   0.372   5.431
  146SAPE   C2615995   3.920   0.312   5.324
  146SAPE   H6R15996   3.977   0.316   5.230
  146SAPE   C2715997   3.779   0.278   5.321
  146SAPE   H7R15998   3.723   0.335   5.399
  146SAPE   H7S15999   3.761   0.173   5.351
  146SAPE   C2816000   3.701   0.299   5.198
  146SAPE   H8R16001   3.627   0.380   5.209
  146SAPE   C2916002   3.715   0.234   5.084
  146SAPE   H9R16003   3.647   0.255   4.999
  146SAPE  C21016004   3.820   0.129   5.054
  146SAPE  H10R16005   3.772   0.030   5.040
  146SAPE  H10S16006   3.885   0.113   5.143
  146SAPE  C21116007   3.902   0.180   4.937
  146SAPE  H11R16008   3.946   0.279   4.950
  146SAPE  C21216009   3.918   0.113   4.818
  146SAPE  H12R16010   3.967   0.171   4.738
  146SAPE  C21316011   3.863   6.801   4.779
  146SAPE  H13R16012   3.760   6.809   4.738
  146SAPE  H13S16013   3.856   6.731   4.865
  146SAPE  C21416014   3.937   6.730   4.673
  146SAPE  H14R16015   3.875   6.671   4.603
  146SAPE  C21516016   4.066   6.707   4.659
  146SAPE  H15R16017   4.102   6.639   4.580
  146SAPE  C21616018   4.176   6.752   4.748
  146SAPE  H16R16019   4.240   6.664   4.770
  146SAPE  H16S16020   4.136   6.784   4.847
  146SAPE  C21716021   4.263   0.038   4.692
  146SAPE  H17R16022   4.335   0.089   4.760
  146SAPE  H17S16023   4.196   0.121   4.660
  146SAPE  C21816024   4.348   6.807   4.575
  146SAPE  H18R16025   4.385   0.057   4.502
  146SAPE  H18S16026   4.286   6.741   4.509
  146SAPE  C21916027   4.464   6.715   4.609
  146SAPE  H19R16028   4.431   6.616   4.649
  146SAPE  H19S16029   4.525   6.772   4.682
  146SAPE  C22016030   4.557   6.688   4.494
  146SAPE  H20R16031   4.575   6.789   4.451
  146SAPE  H20S16032   4.519   6.615   4.420
  146SAPE  H20T16033   4.657   6.652   4.526
  146SAPE   C3316034   4.307   0.026   5.453
  146SAPE   H3X16035   4.264   0.110   5.512
  146SAPE   H3Y16036   4.223   6.779   5.438
  146SAPE   C3416037   4.358   0.074   5.325
  146SAPE   H4X16038   4.347   6.811   5.258
  146SAPE   H4Y16039   4.463   0.110   5.327
  146SAPE   C3516040   4.279   0.190   5.270
  146SAPE   H5X16041   4.318   0.285   5.313
  146SAPE   H5Y16042   4.173   0.181   5.301
  146SAPE   C3616043   4.291   0.211   5.122
  146SAPE   H6X16044   4.238   0.143   5.052
  146SAPE   H6Y16045   4.397   0.187   5.100
  146SAPE   C3716046   4.265   0.359   5.085
  146SAPE   H7X16047   4.341   0.419   5.140
  146SAPE   H7Y16048   4.168   0.398   5.123
  146SAPE   C3816049   4.280   0.396   4.939
  146SAPE   H8X16050   4.225   0.323   4.876
  146SAPE   H8Y16051   4.385   0.385   4.905
  146SAPE   C3916052   4.243   0.543   4.900
  146SAPE   H9X16053   4.270   0.617   4.979
  146SAPE   H9Y16054   4.133   0.557   4.905
  146SAPE  C31016055   4.284   0.581   4.756
  146SAPE  H10X16056   4.250   0.500   4.688
  146SAPE  H10Y16057   4.395   0.591   4.755
  146SAPE  C31116058   4.222   0.719   4.709
  146SAPE  H11X16059   4.268   0.807   4.759
  146SAPE  H11Y16060   4.114   0.718   4.734
  146SAPE  C31216061   4.224   0.727   4.554
  146SAPE  H12X16062   4.182   0.641   4.499
  146SAPE  H12Y16063   4.334   0.733   4.536
  146SAPE  C31316064   4.172   0.857   4.495
  146SAPE  H13X16065   4.193   0.864   4.386
  146SAPE  H13Y16066   4.222   0.940   4.549
  146SAPE  C31416067   4.015   0.852   4.506
  146SAPE  H14X16068   3.981   0.957   4.495
  146SAPE  H14Y16069   3.995   0.818   4.610
  146SAPE  C31516070   3.951   0.770   4.396
  146SAPE  H15X16071   3.972   0.661   4.394
  146SAPE  H15Y16072   3.992   0.815   4.303
  146SAPE  C31616073   3.802   0.789   4.395
  146SAPE  H16X16074   3.758   0.730   4.311
  146SAPE  H16Y16075   3.766   0.892   4.373
  146SAPE  C31716076   3.736   0.743   4.527
  146SAPE  H17X16077   3.763   0.811   4.611
  146SAPE  H17Y16078   3.779   0.642   4.545
  146SAPE  C31816079   3.587   0.714   4.526
  146SAPE  H18X16080   3.564   0.635   4.452
  146SAPE  H18Y16081   3.532   0.806   4.498
  146SAPE  H18Z16082   3.549   0.680   4.624
  147SAPE     N16083   4.848   5.008   6.954
  147SAPE   HN116084   4.752   5.036   6.925
  147SAPE   HN216085   4.862   4.910   6.986
  147SAPE   HN316086   4.868   5.064   7.039
  147SAPE   C1216087   4.941   5.028   6.839
  147SAPE  H12A16088   4.889   4.996   6.746
  147SAPE  H12B16089   5.034   4.967   6.853
  147SAPE   C1116090   4.978   5.174   6.819
  147SAPE  H11A16091   5.044   5.207   6.902
  147SAPE  H11B16092   4.896   5.249   6.817
  147SAPE     P16093   5.196   5.198   6.684
  147SAPE   O1316094   5.248   5.320   6.749
  147SAPE   O1416095   5.242   5.072   6.740
  147SAPE   O1216096   5.039   5.195   6.697
  147SAPE   O1116097   5.238   5.206   6.531
  147SAPE    C116098   5.217   5.099   6.444
  147SAPE    HA16099   5.311   5.076   6.390
  147SAPE    HB16100   5.183   5.005   6.493
  147SAPE    C216101   5.109   5.122   6.329
  147SAPE    HS16102   5.112   5.029   6.268
  147SAPE   O2116103   5.132   5.249   6.264
  147SAPE   C2116104   5.238   5.255   6.193
  147SAPE   O2216105   5.335   5.182   6.198
  147SAPE   C2216106   5.224   5.384   6.109
  147SAPE   H2R16107   5.216   5.469   6.181
  147SAPE   H2S16108   5.315   5.395   6.046
  147SAPE    C316109   4.970   5.131   6.392
  147SAPE    HX16110   4.963   5.216   6.463
  147SAPE    HY16111   4.951   5.038   6.448
  147SAPE   O3116112   4.870   5.124   6.295
  147SAPE   C3116113   4.819   5.235   6.256
  147SAPE   O3216114   4.851   5.347   6.299
  147SAPE   C3216115   4.713   5.214   6.142
  147SAPE   H2X16116   4.619   5.172   6.184
  147SAPE   H2Y16117   4.759   5.150   6.064
  147SAPE   C2316118   5.097   5.369   6.024
  147SAPE   H3R16119   5.074   5.463   5.969
  147SAPE   H3S16120   5.008   5.341   6.085
  147SAPE   C2416121   5.103   5.266   5.906
  147SAPE   H4R16122   5.110   5.164   5.950
  147SAPE   H4S16123   5.203   5.279   5.858
  147SAPE   C2516124   4.982   5.286   5.817
  147SAPE   H5R16125   4.887   5.247   5.855
  147SAPE   C2616126   4.976   5.334   5.693
  147SAPE   H6R16127   4.875   5.338   5.649
  147SAPE   C2716128   5.084   5.385   5.603
  147SAPE   H7R16129   5.182   5.405   5.651
  147SAPE   H7S16130   5.060   5.491   5.581
  147SAPE   C2816131   5.107   5.297   5.484
  147SAPE   H8R16132   5.080   5.190   5.493
  147SAPE   C2916133   5.152   5.334   5.366
  147SAPE   H9R16134   5.179   5.250   5.300
  147SAPE  C21016135   5.177   5.478   5.327
  147SAPE  H10R16136   5.256   5.479   5.249
  147SAPE  H10S16137   5.227   5.535   5.408
  147SAPE  C21116138   5.050   5.559   5.286
  147SAPE  H11R16139   4.953   5.516   5.315
  147SAPE  C21216140   5.049   5.672   5.215
  147SAPE  H12R16141   4.947   5.707   5.196
  147SAPE  C21316142   5.159   5.742   5.137
  147SAPE  H13R16143   5.152   5.694   5.037
  147SAPE  H13S16144   5.260   5.720   5.180
  147SAPE  C21416145   5.149   5.894   5.133
  147SAPE  H14R16146   5.140   5.946   5.229
  147SAPE  C21516147   5.153   5.972   5.020
  147SAPE  H15R16148   5.143   6.081   5.025
  147SAPE  C21616149   5.167   5.918   4.882
  147SAPE  H16R16150   5.070   5.897   4.832
  147SAPE  H16S16151   5.217   5.819   4.881
  147SAPE  C21716152   5.253   6.010   4.796
  147SAPE  H17R16153   5.354   6.031   4.836
  147SAPE  H17S16154   5.202   6.108   4.801
  147SAPE  C21816155   5.276   5.968   4.653
  147SAPE  H18R16156   5.193   6.015   4.595
  147SAPE  H18S16157   5.264   5.860   4.633
  147SAPE  C21916158   5.409   6.015   4.599
  147SAPE  H19R16159   5.490   5.949   4.635
  147SAPE  H19S16160   5.436   6.108   4.653
  147SAPE  C22016161   5.399   6.051   4.447
  147SAPE  H20R16162   5.305   6.105   4.423
  147SAPE  H20S16163   5.407   5.963   4.381
  147SAPE  H20T16164   5.477   6.122   4.410
  147SAPE   C3316165   4.666   5.347   6.084
  147SAPE   H3X16166   4.749   5.391   6.024
  147SAPE   H3Y16167   4.641   5.427   6.157
  147SAPE   C3416168   4.537   5.329   5.999
  147SAPE   H4X16169   4.477   5.421   5.987
  147SAPE   H4Y16170   4.468   5.258   6.050
  147SAPE   C3516171   4.552   5.265   5.859
  147SAPE   H5X16172   4.466   5.212   5.814
  147SAPE   H5Y16173   4.631   5.187   5.860
  147SAPE   C3616174   4.582   5.376   5.752
  147SAPE   H6X16175   4.689   5.406   5.759
  147SAPE   H6Y16176   4.527   5.470   5.772
  147SAPE   C3716177   4.572   5.333   5.607
  147SAPE   H7X16178   4.474   5.283   5.592
  147SAPE   H7Y16179   4.647   5.254   5.589
  147SAPE   C3816180   4.591   5.444   5.499
  147SAPE   H8X16181   4.695   5.482   5.508
  147SAPE   H8Y16182   4.521   5.529   5.514
  147SAPE   C3916183   4.582   5.383   5.358
  147SAPE   H9X16184   4.496   5.314   5.361
  147SAPE   H9Y16185   4.679   5.336   5.330
  147SAPE  C31016186   4.548   5.504   5.272
  147SAPE  H10X16187   4.609   5.588   5.312
  147SAPE  H10Y16188   4.442   5.539   5.277
  147SAPE  C31116189   4.568   5.483   5.117
  147SAPE  H11X16190   4.492   5.541   5.061
  147SAPE  H11Y16191   4.543   5.377   5.094
  147SAPE  C31216192   4.714   5.525   5.080
  147SAPE  H12X16193   4.786   5.473   5.148
  147SAPE  H12Y16194   4.732   5.633   5.101
  147SAPE  C31316195   4.743   5.502   4.937
  147SAPE  H13X16196   4.688   5.580   4.880
  147SAPE  H13Y16197   4.703   5.403   4.907
  147SAPE  C31416198   4.899   5.510   4.910
  147SAPE  H14X16199   4.962   5.436   4.965
  147SAPE  H14Y16200   4.927   5.612   4.945
  147SAPE  C31516201   4.930   5.512   4.765
  147SAPE  H15X16202   4.870   5.595   4.721
  147SAPE  H15Y16203   4.889   5.421   4.717
  147SAPE  C31616204   5.077   5.527   4.724
  147SAPE  H16X16205   5.145   5.511   4.811
  147SAPE  H16Y16206   5.108   5.630   4.698
  147SAPE  C31716207   5.116   5.419   4.622
  147SAPE  H17X16208   5.089   5.320   4.666
  147SAPE  H17Y16209   5.227   5.425   4.624
  147SAPE  C31816210   5.051   5.435   4.488
  147SAPE  H18X16211   5.096   5.522   4.436
  147SAPE  H18Y16212   4.942   5.443   4.506
  147SAPE  H18Z16213   5.083   5.344   4.434
  148SAPE     N16214   1.604   0.406   6.547
  148SAPE   HN116215   1.570   0.475   6.476
  148SAPE   HN216216   1.594   0.435   6.646
  148SAPE   HN316217   1.706   0.415   6.526
  148SAPE   C1216218   1.567   0.264   6.525
  148SAPE  H12A16219   1.461   0.259   6.491
  148SAPE  H12B16220   1.582   0.202   6.615
  148SAPE   C1116221   1.649   0.205   6.407
  148SAPE  H11A16222   1.627   0.246   6.306
  148SAPE  H11B16223   1.616   0.100   6.395
  148SAPE     P16224   1.868   0.081   6.459
  148SAPE   O1316225   2.009   0.104   6.482
  148SAPE   O1416226   1.809   0.018   6.576
  148SAPE   O1216227   1.788   0.222   6.430
  148SAPE   O1116228   1.841   6.815   6.333
  148SAPE    C116229   1.889   0.033   6.207
  148SAPE    HA16230   1.834   6.806   6.126
  148SAPE    HB16231   1.889   0.143   6.197
  148SAPE    C216232   2.041   6.810   6.184
  148SAPE    HS16233   2.097   0.004   6.278
  148SAPE   O2116234   2.094   0.061   6.072
  148SAPE   C2116235   2.221   0.041   6.036
  148SAPE   O2216236   2.305   6.802   6.094
  148SAPE   C2216237   2.229   0.093   5.888
  148SAPE   H2R16238   2.199   0.011   5.820
  148SAPE   H2S16239   2.150   0.171   5.876
  148SAPE    C316240   2.040   6.657   6.162
  148SAPE    HX16241   2.003   6.609   6.255
  148SAPE    HY16242   2.140   6.609   6.150
  148SAPE   O3116243   1.961   6.639   6.040
  148SAPE   C3116244   1.890   6.523   6.044
  148SAPE   O3216245   1.882   6.449   6.144
  148SAPE   C3216246   1.817   6.514   5.913
  148SAPE   H2X16247   1.757   6.607   5.904
  148SAPE   H2Y16248   1.753   6.424   5.918
  148SAPE   C2316249   2.372   0.145   5.845
  148SAPE   H3R16250   2.440   0.062   5.818
  148SAPE   H3S16251   2.418   0.197   5.931
  148SAPE   C2416252   2.364   0.238   5.721
  148SAPE   H4R16253   2.463   0.273   5.684
  148SAPE   H4S16254   2.297   0.323   5.746
  148SAPE   C2516255   2.302   0.145   5.616
  148SAPE   H5R16256   2.374   0.063   5.601
  148SAPE   C2616257   2.182   0.138   5.561
  148SAPE   H6R16258   2.168   0.050   5.496
  148SAPE   C2716259   2.064   0.232   5.597
  148SAPE   H7R16260   2.025   0.287   5.509
  148SAPE   H7S16261   2.098   0.318   5.660
  148SAPE   C2816262   1.953   0.160   5.670
  148SAPE   H8R16263   1.970   0.164   5.779
  148SAPE   C2916264   1.834   0.107   5.626
  148SAPE   H9R16265   1.758   0.078   5.701
  148SAPE  C21016266   1.782   0.111   5.479
  148SAPE  H10R16267   1.751   0.216   5.459
  148SAPE  H10S16268   1.694   0.045   5.469
  148SAPE  C21116269   1.879   0.067   5.370
  148SAPE  H11R16270   1.984   0.049   5.395
  148SAPE  C21216271   1.846   0.078   5.238
  148SAPE  H12R16272   1.924   0.057   5.163
  148SAPE  C21316273   1.715   0.133   5.183
  148SAPE  H13R16274   1.635   0.149   5.259
  148SAPE  H13S16275   1.677   0.062   5.106
  148SAPE  C21416276   1.721   0.269   5.125
  148SAPE  H14R16277   1.723   0.359   5.189
  148SAPE  C21516278   1.731   0.283   4.994
  148SAPE  H15R16279   1.718   0.380   4.945
  148SAPE  C21616280   1.740   0.169   4.895
  148SAPE  H16R16281   1.787   0.076   4.934
  148SAPE  H16S16282   1.812   0.193   4.814
  148SAPE  C21716283   1.603   0.123   4.844
  148SAPE  H17R16284   1.542   0.108   4.935
  148SAPE  H17S16285   1.611   0.024   4.795
  148SAPE  C21816286   1.531   0.227   4.754
  148SAPE  H18R16287   1.529   0.319   4.816
  148SAPE  H18S16288   1.424   0.204   4.732
  148SAPE  C21916289   1.615   0.272   4.634
  148SAPE  H19R16290   1.720   0.297   4.661
  148SAPE  H19S16291   1.561   0.366   4.613
  148SAPE  C22016292   1.619   0.178   4.514
  148SAPE  H20R16293   1.518   0.157   4.475
  148SAPE  H20S16294   1.659   0.079   4.544
  148SAPE  H20T16295   1.681   0.226   4.435
  148SAPE   C3316296   1.907   6.516   5.784
  148SAPE   H3X16297   1.961   6.421   5.764
  148SAPE   H3Y16298   1.979   6.599   5.798
  148SAPE   C3416299   1.832   6.540   5.650
  148SAPE   H4X16300   1.792   6.642   5.663
  148SAPE   H4Y16301   1.745   6.471   5.640
  148SAPE   C3516302   1.914   6.532   5.517
  148SAPE   H5X16303   1.970   6.436   5.523
  148SAPE   H5Y16304   1.993   6.609   5.502
  148SAPE   C3616305   1.816   6.541   5.405
  148SAPE   H6X16306   1.760   6.636   5.392
  148SAPE   H6Y16307   1.750   6.452   5.412
  148SAPE   C3716308   1.889   6.555   5.267
  148SAPE   H7X16309   1.949   6.463   5.252
  148SAPE   H7Y16310   1.960   6.640   5.276
  148SAPE   C3816311   1.797   6.571   5.141
  148SAPE   H8X16312   1.721   6.649   5.162
  148SAPE   H8Y16313   1.741   6.477   5.121
  148SAPE   C3916314   1.875   6.613   5.017
  148SAPE   H9X16315   1.957   6.540   5.000
  148SAPE   H9Y16316   1.924   6.712   5.027
  148SAPE  C31016317   1.781   6.605   4.893
  148SAPE  H10X16318   1.693   6.670   4.908
  148SAPE  H10Y16319   1.741   6.501   4.890
  148SAPE  C31116320   1.862   6.644   4.766
  148SAPE  H11X16321   1.929   6.730   4.784
  148SAPE  H11Y16322   1.791   6.662   4.683
  148SAPE  C31216323   1.969   6.546   4.709
  148SAPE  H12X16324   2.000   6.473   4.787
  148SAPE  H12Y16325   2.065   6.596   4.684
  148SAPE  C31316326   1.920   6.466   4.586
  148SAPE  H13X16327   1.912   6.534   4.498
  148SAPE  H13Y16328   1.821   6.424   4.613
  148SAPE  C31416329   2.024   6.359   4.547
  148SAPE  H14X16330   2.022   6.279   4.624
  148SAPE  H14Y16331   2.123   6.410   4.549
  148SAPE  C31516332   2.000   6.306   4.407
  148SAPE  H15X16333   2.087   6.244   4.378
  148SAPE  H15Y16334   1.991   6.391   4.335
  148SAPE  C31616335   1.879   6.212   4.399
  148SAPE  H16X16336   1.783   6.265   4.416
  148SAPE  H16Y16337   1.889   6.128   4.472
  148SAPE  C31716338   1.860   6.145   4.262
  148SAPE  H17X16339   1.947   6.078   4.248
  148SAPE  H17Y16340   1.868   6.229   4.190
  148SAPE  C31816341   1.720   6.088   4.248
  148SAPE  H18X16342   1.695   6.069   4.142
  148SAPE  H18Y16343   1.643   6.162   4.279
  148SAPE  H18Z16344   1.705   6.000   4.314
  149SAPE     N16345   2.096   2.029   7.105
  149SAPE   HN116346   2.081   2.025   7.207
  149SAPE   HN216347   2.073   1.936   7.063
  149SAPE   HN316348   2.195   2.056   7.090
  149SAPE   C1216349   2.004   2.139   7.057
  149SAPE  H12A16350   2.022   2.156   6.948
  149SAPE  H12B16351   2.034   2.228   7.117
  149SAPE   C1116352   1.852   2.113   7.077
  149SAPE  H11A16353   1.785   2.190   7.032
  149SAPE  H11B16354   1.823   2.117   7.184
  149SAPE     P16355   1.765   1.945   6.889
  149SAPE   O1316356   1.740   1.804   6.889
  149SAPE   O1416357   1.657   2.035   6.843
  149SAPE   O1216358   1.810   1.989   7.036
  149SAPE   O1116359   1.889   1.986   6.797
  149SAPE    C116360   1.964   1.892   6.724
  149SAPE    HA16361   2.057   1.943   6.691
  149SAPE    HB16362   2.002   1.808   6.786
  149SAPE    C216363   1.885   1.846   6.597
  149SAPE    HS16364   1.791   1.796   6.630
  149SAPE   O2116365   1.958   1.761   6.507
  149SAPE   C2116366   1.931   1.630   6.523
  149SAPE   O2216367   1.863   1.584   6.613
  149SAPE   C2216368   1.995   1.556   6.400
  149SAPE   H2R16369   1.932   1.586   6.313
  149SAPE   H2S16370   2.100   1.592   6.391
  149SAPE    C316371   1.826   1.972   6.515
  149SAPE    HX16372   1.917   2.026   6.480
  149SAPE    HY16373   1.777   2.037   6.591
  149SAPE   O3116374   1.743   1.938   6.402
  149SAPE   C3116375   1.614   1.918   6.427
  149SAPE   O3216376   1.568   1.913   6.543
  149SAPE   C3216377   1.551   1.879   6.293
  149SAPE   H2X16378   1.453   1.932   6.301
  149SAPE   H2Y16379   1.541   1.768   6.299
  149SAPE   C2316380   1.993   1.402   6.416
  149SAPE   H3R16381   1.892   1.371   6.449
  149SAPE   H3S16382   2.060   1.383   6.502
  149SAPE   C2416383   2.019   1.327   6.289
  149SAPE   H4R16384   2.007   1.217   6.304
  149SAPE   H4S16385   2.129   1.339   6.279
  149SAPE   C2516386   1.947   1.362   6.164
  149SAPE   H5R16387   1.845   1.398   6.184
  149SAPE   C2616388   1.978   1.345   6.033
  149SAPE   H6R16389   1.909   1.376   5.953
  149SAPE   C2716390   2.115   1.302   5.984
  149SAPE   H7R16391   2.104   1.241   5.892
  149SAPE   H7S16392   2.174   1.248   6.062
  149SAPE   C2816393   2.211   1.417   5.956
  149SAPE   H8R16394   2.241   1.485   6.038
  149SAPE   C2916395   2.243   1.460   5.834
  149SAPE   H9R16396   2.309   1.547   5.825
  149SAPE  C21016397   2.198   1.405   5.703
  149SAPE  H10R16398   2.230   1.299   5.692
  149SAPE  H10S16399   2.261   1.444   5.621
  149SAPE  C21116400   2.055   1.421   5.651
  149SAPE  H11R16401   1.989   1.473   5.722
  149SAPE  C21216402   2.010   1.404   5.528
  149SAPE  H12R16403   1.906   1.435   5.510
  149SAPE  C21316404   2.079   1.337   5.410
  149SAPE  H13R16405   2.023   1.249   5.370
  149SAPE  H13S16406   2.177   1.292   5.436
  149SAPE  C21416407   2.098   1.437   5.294
  149SAPE  H14R16408   2.094   1.543   5.321
  149SAPE  C21516409   2.129   1.392   5.170
  149SAPE  H15R16410   2.135   1.467   5.090
  149SAPE  C21616411   2.140   1.247   5.119
  149SAPE  H16R16412   2.058   1.215   5.050
  149SAPE  H16S16413   2.148   1.177   5.205
  149SAPE  C21716414   2.275   1.216   5.035
  149SAPE  H17R16415   2.266   1.121   4.978
  149SAPE  H17S16416   2.354   1.195   5.111
  149SAPE  C21816417   2.315   1.311   4.919
  149SAPE  H18R16418   2.420   1.281   4.898
  149SAPE  H18S16419   2.319   1.418   4.949
  149SAPE  C21916420   2.221   1.301   4.801
  149SAPE  H19R16421   2.120   1.341   4.824
  149SAPE  H19S16422   2.190   1.198   4.773
  149SAPE  C22016423   2.269   1.360   4.672
  149SAPE  H20R16424   2.355   1.303   4.631
  149SAPE  H20S16425   2.305   1.464   4.689
  149SAPE  H20T16426   2.184   1.359   4.600
  149SAPE   C3316427   1.634   1.925   6.172
  149SAPE   H3X16428   1.729   1.867   6.174
  149SAPE   H3Y16429   1.658   2.033   6.184
  149SAPE   C3416430   1.547   1.896   6.050
  149SAPE   H4X16431   1.448   1.944   6.060
  149SAPE   H4Y16432   1.538   1.786   6.034
  149SAPE   C3516433   1.604   1.962   5.931
  149SAPE   H5X16434   1.711   1.932   5.922
  149SAPE   H5Y16435   1.610   2.072   5.948
  149SAPE   C3616436   1.527   1.945   5.806
  149SAPE   H6X16437   1.432   2.002   5.811
  149SAPE   H6Y16438   1.514   1.835   5.798
  149SAPE   C3716439   1.602   1.988   5.681
  149SAPE   H7X16440   1.695   1.927   5.673
  149SAPE   H7Y16441   1.644   2.088   5.707
  149SAPE   C3816442   1.521   1.976   5.554
  149SAPE   H8X16443   1.449   2.061   5.555
  149SAPE   H8Y16444   1.461   1.883   5.560
  149SAPE   C3916445   1.604   1.973   5.421
  149SAPE   H9X16446   1.649   1.872   5.423
  149SAPE   H9Y16447   1.689   2.045   5.417
  149SAPE  C31016448   1.514   1.995   5.305
  149SAPE  H10X16449   1.481   2.101   5.314
  149SAPE  H10Y16450   1.421   1.935   5.314
  149SAPE  C31116451   1.585   1.971   5.169
  149SAPE  H11X16452   1.600   1.863   5.152
  149SAPE  H11Y16453   1.684   2.021   5.166
  149SAPE  C31216454   1.502   2.020   5.049
  149SAPE  H12X16455   1.509   2.131   5.048
  149SAPE  H12Y16456   1.401   1.976   5.062
  149SAPE  C31316457   1.551   1.971   4.903
  149SAPE  H13X16458   1.534   1.863   4.886
  149SAPE  H13Y16459   1.661   1.987   4.900
  149SAPE  C31416460   1.485   2.036   4.783
  149SAPE  H14X16461   1.484   2.146   4.796
  149SAPE  H14Y16462   1.378   2.008   4.770
  149SAPE  C31516463   1.560   2.000   4.652
  149SAPE  H15X16464   1.605   1.899   4.665
  149SAPE  H15Y16465   1.639   2.077   4.640
  149SAPE  C31616466   1.460   1.992   4.531
  149SAPE  H16X16467   1.385   2.074   4.526
  149SAPE  H16Y16468   1.387   1.910   4.544
  149SAPE  C31716469   1.520   1.987   4.387
  149SAPE  H17X16470   1.610   1.922   4.393
  149SAPE  H17Y16471   1.570   2.084   4.365
  149SAPE  C31816472   1.420   1.954   4.276
  149SAPE  H18X16473   1.407   1.844   4.274
  149SAPE  H18Y16474   1.460   1.988   4.178
  149SAPE  H18Z16475   1.314   1.984   4.291
  150SAPE     N16476   4.687   2.557   6.893
  150SAPE   HN116477   4.592   2.517   6.906
  150SAPE   HN216478   4.753   2.485   6.930
  150SAPE   HN316479   4.707   2.651   6.932
  150SAPE   C1216480   4.709   2.568   6.745
  150SAPE  H12A16481   4.812   2.607   6.729
  150SAPE  H12B16482   4.641   2.648   6.708
  150SAPE   C1116483   4.696   2.436   6.677
  150SAPE  H11A16484   4.708   2.472   6.573
  150SAPE  H11B16485   4.596   2.396   6.703
  150SAPE     P16486   4.941   2.317   6.657
  150SAPE   O1316487   5.003   2.449   6.655
  150SAPE   O1416488   5.010   2.207   6.731
  150SAPE   O1216489   4.795   2.337   6.717
  150SAPE   O1116490   4.909   2.269   6.516
  150SAPE    C116491   4.960   2.153   6.459
  150SAPE    HA16492   4.928   2.065   6.518
  150SAPE    HB16493   4.914   2.144   6.358
  150SAPE    C216494   5.112   2.160   6.443
  150SAPE    HS16495   5.153   2.163   6.546
  150SAPE   O2116496   5.155   2.269   6.363
  150SAPE   C2116497   5.283   2.318   6.387
  150SAPE   O2216498   5.356   2.280   6.477
  150SAPE   C2216499   5.334   2.414   6.284
  150SAPE   H2R16500   5.424   2.367   6.240
  150SAPE   H2S16501   5.276   2.422   6.190
  150SAPE    C316502   5.164   2.027   6.374
  150SAPE    HX16503   5.141   1.933   6.428
  150SAPE    HY16504   5.275   2.032   6.372
  150SAPE   O3116505   5.112   2.009   6.241
  150SAPE   C3116506   5.176   2.057   6.137
  150SAPE   O3216507   5.285   2.110   6.139
  150SAPE   C3216508   5.096   2.027   6.009
  150SAPE   H2X16509   5.018   2.106   6.010
  150SAPE   H2Y16510   5.040   1.931   6.018
  150SAPE   C2316511   5.377   2.551   6.343
  150SAPE   H3R16512   5.426   2.536   6.441
  150SAPE   H3S16513   5.297   2.622   6.373
  150SAPE   C2416514   5.480   2.627   6.254
  150SAPE   H4R16515   5.557   2.551   6.229
  150SAPE   H4S16516   5.536   2.703   6.312
  150SAPE   C2516517   5.408   2.690   6.134
  150SAPE   H5R16518   5.339   2.771   6.161
  150SAPE   C2616519   5.408   2.648   6.005
  150SAPE   H6R16520   5.360   2.701   5.921
  150SAPE   C2716521   5.477   2.530   5.948
  150SAPE   H7R16522   5.555   2.498   6.021
  150SAPE   H7S16523   5.539   2.569   5.864
  150SAPE   C2816524   5.386   2.406   5.904
  150SAPE   H8R16525   5.332   2.355   5.985
  150SAPE   C2916526   5.383   2.346   5.781
  150SAPE   H9R16527   5.317   2.260   5.762
  150SAPE  C21016528   5.451   2.386   5.652
  150SAPE  H10R16529   5.463   2.298   5.584
  150SAPE  H10S16530   5.552   2.426   5.673
  150SAPE  C21116531   5.384   2.496   5.587
  150SAPE  H11R16532   5.395   2.595   5.635
  150SAPE  C21216533   5.341   2.496   5.458
  150SAPE  H12R16534   5.275   2.577   5.422
  150SAPE  C21316535   5.326   2.376   5.368
  150SAPE  H13R16536   5.257   2.303   5.416
  150SAPE  H13S16537   5.423   2.329   5.342
  150SAPE  C21416538   5.256   2.406   5.234
  150SAPE  H14R16539   5.222   2.508   5.209
  150SAPE  C21516540   5.232   2.312   5.138
  150SAPE  H15R16541   5.171   2.348   5.054
  150SAPE  C21616542   5.281   2.166   5.153
  150SAPE  H16R16543   5.200   2.102   5.112
  150SAPE  H16S16544   5.285   2.140   5.261
  150SAPE  C21716545   5.408   2.125   5.080
  150SAPE  H17R16546   5.442   2.022   5.100
  150SAPE  H17S16547   5.494   2.191   5.105
  150SAPE  C21816548   5.396   2.130   4.923
  150SAPE  H18R16549   5.370   2.235   4.897
  150SAPE  H18S16550   5.311   2.063   4.897
  150SAPE  C21916551   5.535   2.101   4.850
  150SAPE  H19R16552   5.517   2.039   4.760
  150SAPE  H19S16553   5.588   2.033   4.920
  150SAPE  C22016554   5.631   2.223   4.821
  150SAPE  H20R16555   5.641   2.300   4.900
  150SAPE  H20S16556   5.599   2.284   4.733
  150SAPE  H20T16557   5.739   2.201   4.810
  150SAPE   C3316558   5.173   2.041   5.872
  150SAPE   H3X16559   5.223   1.944   5.851
  150SAPE   H3Y16560   5.252   2.120   5.876
  150SAPE   C3416561   5.064   2.080   5.768
  150SAPE   H4X16562   5.017   2.173   5.807
  150SAPE   H4Y16563   4.983   2.004   5.769
  150SAPE   C3516564   5.114   2.092   5.626
  150SAPE   H5X16565   5.161   1.993   5.608
  150SAPE   H5Y16566   5.191   2.172   5.614
  150SAPE   C3616567   4.997   2.103   5.529
  150SAPE   H6X16568   4.922   2.028   5.564
  150SAPE   H6Y16569   5.036   2.069   5.431
  150SAPE   C3716570   4.950   2.246   5.509
  150SAPE   H7X16571   5.022   2.322   5.472
  150SAPE   H7Y16572   4.924   2.280   5.611
  150SAPE   C3816573   4.828   2.243   5.412
  150SAPE   H8X16574   4.789   2.347   5.407
  150SAPE   H8Y16575   4.744   2.182   5.452
  150SAPE   C3916576   4.867   2.199   5.262
  150SAPE   H9X16577   4.852   2.090   5.248
  150SAPE   H9Y16578   4.971   2.231   5.238
  150SAPE  C31016579   4.774   2.270   5.155
  150SAPE  H10X16580   4.765   2.375   5.188
  150SAPE  H10Y16581   4.673   2.225   5.147
  150SAPE  C31116582   4.838   2.277   5.014
  150SAPE  H11X16583   4.839   2.174   4.973
  150SAPE  H11Y16584   4.943   2.312   5.010
  150SAPE  C31216585   4.755   2.359   4.914
  150SAPE  H12X16586   4.762   2.469   4.925
  150SAPE  H12Y16587   4.648   2.343   4.937
  150SAPE  C31316588   4.781   2.317   4.772
  150SAPE  H13X16589   4.763   2.208   4.761
  150SAPE  H13Y16590   4.891   2.329   4.768
  150SAPE  C31416591   4.709   2.388   4.658
  150SAPE  H14X16592   4.761   2.351   4.568
  150SAPE  H14Y16593   4.711   2.498   4.668
  150SAPE  C31516594   4.565   2.342   4.652
  150SAPE  H15X16595   4.507   2.431   4.686
  150SAPE  H15Y16596   4.538   2.259   4.720
  150SAPE  C31616597   4.516   2.310   4.506
  150SAPE  H16X16598   4.418   2.258   4.515
  150SAPE  H16Y16599   4.584   2.243   4.450
  150SAPE  C31716600   4.531   2.435   4.413
  150SAPE  H17X16601   4.641   2.453   4.409
  150SAPE  H17Y16602   4.483   2.531   4.442
  150SAPE  C31816603   4.473   2.400   4.275
  150SAPE  H18X16604   4.491   2.491   4.213
  150SAPE  H18Y16605   4.363   2.382   4.278
  150SAPE  H18Z16606   4.531   2.314   4.236
  151SAPE     N16607   4.268   6.369   6.412
  151SAPE   HN116608   4.233   6.465   6.393
  151SAPE   HN216609   4.204   6.327   6.481
  151SAPE   HN316610   4.368   6.365   6.441
  151SAPE   C1216611   4.261   6.286   6.291
  151SAPE  H12A16612   4.157   6.291   6.253
  151SAPE  H12B16613   4.283   6.180   6.317
  151SAPE   C1116614   4.370   6.331   6.197
  151SAPE  H11A16615   4.345   6.435   6.169
  151SAPE  H11B16616   4.379   6.271   6.104
  151SAPE     P16617   4.617   6.419   6.230
  151SAPE   O1316618   4.581   6.557   6.260
  151SAPE   O1416619   4.749   6.361   6.268
  151SAPE   O1216620   4.494   6.313   6.265
  151SAPE   O1116621   4.611   6.413   6.070
  151SAPE    C116622   4.654   6.279   6.023
  151SAPE    HA16623   4.754   6.249   6.063
  151SAPE    HB16624   4.577   6.202   6.047
  151SAPE    C216625   4.663   6.270   5.868
  151SAPE    HS16626   4.691   6.166   5.842
  151SAPE   O2116627   4.762   6.365   5.819
  151SAPE   C2116628   4.888   6.331   5.825
  151SAPE   O2216629   4.936   6.225   5.862
  151SAPE   C2216630   4.976   6.450   5.779
  151SAPE   H2R16631   4.954   6.476   5.673
  151SAPE   H2S16632   4.951   6.537   5.843
  151SAPE    C316633   4.518   6.308   5.810
  151SAPE    HX16634   4.497   6.414   5.836
  151SAPE    HY16635   4.434   6.251   5.854
  151SAPE   O3116636   4.518   6.301   5.671
  151SAPE   C3116637   4.404   6.347   5.615
  151SAPE   O3216638   4.305   6.374   5.679
  151SAPE   C3216639   4.426   6.365   5.467
  151SAPE   H2X16640   4.481   6.280   5.422
  151SAPE   H2Y16641   4.498   6.449   5.455
  151SAPE   C2316642   5.121   6.408   5.777
  151SAPE   H3R16643   5.131   6.313   5.721
  151SAPE   H3S16644   5.147   6.391   5.883
  151SAPE   C2416645   5.210   6.513   5.714
  151SAPE   H4R16646   5.178   6.524   5.608
  151SAPE   H4S16647   5.310   6.464   5.706
  151SAPE   C2516648   5.227   6.638   5.790
  151SAPE   H5R16649   5.245   6.631   5.898
  151SAPE   C2616650   5.210   6.767   5.739
  151SAPE   H6R16651   5.222   0.027   5.807
  151SAPE   C2716652   5.171   6.810   5.597
  151SAPE   H7R16653   5.173   6.728   5.523
  151SAPE   H7S16654   5.261   0.033   5.555
  151SAPE   C2816655   5.049   0.067   5.576
  151SAPE   H8R16656   4.954   0.030   5.618
  151SAPE   C2916657   5.036   0.178   5.504
  151SAPE   H9R16658   4.949   0.245   5.499
  151SAPE  C21016659   5.148   0.252   5.432
  151SAPE  H10R16660   5.246   0.202   5.438
  151SAPE  H10S16661   5.160   0.355   5.472
  151SAPE  C21116662   5.114   0.271   5.288
  151SAPE  H11R16663   5.041   0.198   5.248
  151SAPE  C21216664   5.146   0.373   5.211
  151SAPE  H12R16665   5.118   0.371   5.104
  151SAPE  C21316666   5.222   0.492   5.251
  151SAPE  H13R16667   5.286   0.488   5.341
  151SAPE  H13S16668   5.154   0.580   5.261
  151SAPE  C21416669   5.306   0.529   5.140
  151SAPE  H14R16670   5.401   0.473   5.133
  151SAPE  C21516671   5.269   0.608   5.038
  151SAPE  H15R16672   5.353   0.622   4.968
  151SAPE  C21616673   5.144   0.691   5.030
  151SAPE  H16R16674   5.136   0.740   5.130
  151SAPE  H16S16675   5.054   0.628   5.014
  151SAPE  C21716676   5.162   0.798   4.914
  151SAPE  H17R16677   5.245   0.867   4.941
  151SAPE  H17S16678   5.076   0.868   4.904
  151SAPE  C21816679   5.181   0.751   4.768
  151SAPE  H18R16680   5.104   0.675   4.744
  151SAPE  H18S16681   5.282   0.705   4.760
  151SAPE  C21916682   5.174   0.856   4.658
  151SAPE  H19R16683   5.261   0.924   4.671
  151SAPE  H19S16684   5.088   0.926   4.666
  151SAPE  C22016685   5.189   0.807   4.511
  151SAPE  H20R16686   5.094   0.756   4.488
  151SAPE  H20S16687   5.281   0.745   4.501
  151SAPE  H20T16688   5.212   0.886   4.437
  151SAPE   C3316689   4.300   6.389   5.380
  151SAPE   H3X16690   4.257   6.491   5.388
  151SAPE   H3Y16691   4.223   6.316   5.412
  151SAPE   C3416692   4.328   6.359   5.234
  151SAPE   H4X16693   4.233   6.373   5.178
  151SAPE   H4Y16694   4.352   6.254   5.209
  151SAPE   C3516695   4.437   6.450   5.168
  151SAPE   H5X16696   4.535   6.456   5.219
  151SAPE   H5Y16697   4.396   6.553   5.172
  151SAPE   C3616698   4.458   6.424   5.019
  151SAPE   H6X16699   4.375   6.447   4.948
  151SAPE   H6Y16700   4.485   6.316   5.027
  151SAPE   C3716701   4.583   6.504   4.962
  151SAPE   H7X16702   4.592   6.461   4.860
  151SAPE   H7Y16703   4.672   6.465   5.016
  151SAPE   C3816704   4.568   6.655   4.971
  151SAPE   H8X16705   4.559   6.690   5.075
  151SAPE   H8Y16706   4.474   6.678   4.917
  151SAPE   C3916707   4.694   6.718   4.900
  151SAPE   H9X16708   4.702   6.672   4.799
  151SAPE   H9Y16709   4.788   6.700   4.957
  151SAPE  C31016710   4.678   0.046   4.876
  151SAPE  H10X16711   4.578   0.064   4.832
  151SAPE  H10Y16712   4.752   0.080   4.801
  151SAPE  C31116713   4.690   0.141   4.998
  151SAPE  H11X16714   4.789   0.115   5.042
  151SAPE  H11Y16715   4.615   0.130   5.080
  151SAPE  C31216716   4.711   0.295   4.970
  151SAPE  H12X16717   4.621   0.334   4.918
  151SAPE  H12Y16718   4.799   0.312   4.904
  151SAPE  C31316719   4.732   0.372   5.098
  151SAPE  H13X16720   4.835   0.353   5.134
  151SAPE  H13Y16721   4.661   0.341   5.177
  151SAPE  C31416722   4.725   0.527   5.075
  151SAPE  H14X16723   4.634   0.542   5.014
  151SAPE  H14Y16724   4.812   0.556   5.013
  151SAPE  C31516725   4.704   0.605   5.213
  151SAPE  H15X16726   4.636   0.556   5.285
  151SAPE  H15Y16727   4.662   0.707   5.197
  151SAPE  C31616728   4.844   0.626   5.276
  151SAPE  H16X16729   4.902   0.702   5.218
  151SAPE  H16Y16730   4.903   0.532   5.272
  151SAPE  C31716731   4.832   0.671   5.423
  151SAPE  H17X16732   4.747   0.621   5.474
  151SAPE  H17Y16733   4.798   0.777   5.434
  151SAPE  C31816734   4.966   0.656   5.495
  151SAPE  H18X16735   5.004   0.553   5.474
  151SAPE  H18Y16736   4.951   0.676   5.603
  151SAPE  H18Z16737   5.030   0.737   5.453
  152SAPE     N16738   0.380   1.214   6.763
  152SAPE   HN116739   0.364   1.297   6.824
  152SAPE   HN216740   0.292   1.160   6.774
  152SAPE   HN316741   0.450   1.157   6.814
  152SAPE   C1216742   0.416   1.253   6.622
  152SAPE  H12A16743   0.339   1.211   6.553
  152SAPE  H12B16744   0.517   1.215   6.599
  152SAPE   C1116745   0.410   1.403   6.598
  152SAPE  H11A16746   0.308   1.435   6.630
  152SAPE  H11B16747   0.415   1.417   6.488
  152SAPE     P16748   0.466   1.640   6.689
  152SAPE   O1316749   0.337   1.659   6.755
  152SAPE   O1416750   0.587   1.705   6.748
  152SAPE   O1216751   0.497   1.481   6.672
  152SAPE   O1116752   0.446   1.679   6.532
  152SAPE    C116753   0.334   1.761   6.496
  152SAPE    HA16754   0.298   1.827   6.578
  152SAPE    HB16755   0.368   1.811   6.403
  152SAPE    C216756   0.214   1.677   6.456
  152SAPE    HS16757   0.188   1.633   6.554
  152SAPE   O2116758   0.260   1.579   6.365
  152SAPE   C2116759   0.173   1.483   6.344
  152SAPE   O2216760   0.068   1.474   6.399
  152SAPE   C2216761   0.243   1.372   6.256
  152SAPE   H2R16762   0.331   1.420   6.209
  152SAPE   H2S16763   0.263   1.289   6.327
  152SAPE    C316764   0.096   1.768   6.404
  152SAPE    HX16765   0.074   1.836   6.489
  152SAPE    HY16766   0.004   1.708   6.388
  152SAPE   O3116767   0.149   1.837   6.288
  152SAPE   C3116768   0.085   1.955   6.257
  152SAPE   O3216769   6.801   1.989   6.296
  152SAPE   C3216770   0.179   2.031   6.158
  152SAPE   H2X16771   0.277   1.978   6.150
  152SAPE   H2Y16772   0.197   2.131   6.205
  152SAPE   C2316773   0.144   1.302   6.148
  152SAPE   H3R16774   0.120   1.391   6.087
  152SAPE   H3S16775   0.045   1.271   6.189
  152SAPE   C2416776   0.204   1.188   6.066
  152SAPE   H4R16777   0.123   1.134   6.011
  152SAPE   H4S16778   0.258   1.113   6.127
  152SAPE   C2516779   0.303   1.258   5.975
  152SAPE   H5R16780   0.375   1.324   6.027
  152SAPE   C2616781   0.321   1.244   5.842
  152SAPE   H6R16782   0.397   1.298   5.784
  152SAPE   C2716783   0.234   1.146   5.758
  152SAPE   H7R16784   0.182   1.068   5.818
  152SAPE   H7S16785   0.307   1.088   5.697
  152SAPE   C2816786   0.143   1.221   5.667
  152SAPE   H8R16787   0.047   1.241   5.715
  152SAPE   C2916788   0.149   1.241   5.532
  152SAPE   H9R16789   0.068   1.303   5.490
  152SAPE  C21016790   0.261   1.196   5.442
  152SAPE  H10R16791   0.341   1.141   5.497
  152SAPE  H10S16792   0.305   1.281   5.387
  152SAPE  C21116793   0.208   1.087   5.349
  152SAPE  H11R16794   0.153   1.003   5.394
  152SAPE  C21216795   0.230   1.080   5.216
  152SAPE  H12R16796   0.185   0.992   5.169
  152SAPE  C21316797   0.313   1.173   5.133
  152SAPE  H13R16798   0.420   1.145   5.125
  152SAPE  H13S16799   0.321   1.271   5.183
  152SAPE  C21416800   0.251   1.179   4.993
  152SAPE  H14R16801   0.141   1.187   4.994
  152SAPE  C21516802   0.314   1.168   4.870
  152SAPE  H15R16803   0.252   1.171   4.779
  152SAPE  C21616804   0.463   1.143   4.848
  152SAPE  H16R16805   0.501   1.096   4.941
  152SAPE  H16S16806   0.511   1.243   4.851
  152SAPE  C21716807   0.517   1.059   4.723
  152SAPE  H17R16808   0.510   0.951   4.746
  152SAPE  H17S16809   0.625   1.086   4.717
  152SAPE  C21816810   0.453   1.106   4.592
  152SAPE  H18R16811   0.470   1.215   4.574
  152SAPE  H18S16812   0.344   1.083   4.592
  152SAPE  C21916813   0.526   1.029   4.478
  152SAPE  H19R16814   0.525   0.923   4.512
  152SAPE  H19S16815   0.632   1.060   4.471
  152SAPE  C22016816   0.475   1.061   4.341
  152SAPE  H20R16817   0.475   1.172   4.335
  152SAPE  H20S16818   0.366   1.038   4.337
  152SAPE  H20T16819   0.531   1.015   4.257
  152SAPE   C3316820   0.134   2.037   6.014
  152SAPE   H3X16821   0.025   2.018   6.000
  152SAPE   H3Y16822   0.189   1.966   5.949
  152SAPE   C3416823   0.141   2.184   5.979
  152SAPE   H4X16824   0.250   2.207   5.986
  152SAPE   H4Y16825   0.096   2.251   6.055
  152SAPE   C3516826   0.086   2.209   5.836
  152SAPE   H5X16827   0.080   2.318   5.814
  152SAPE   H5Y16828   6.811   2.163   5.824
  152SAPE   C3616829   0.179   2.150   5.719
  152SAPE   H6X16830   0.170   2.040   5.730
  152SAPE   H6Y16831   0.283   2.179   5.742
  152SAPE   C3716832   0.153   2.198   5.579
  152SAPE   H7X16833   0.166   2.309   5.574
  152SAPE   H7Y16834   0.047   2.175   5.553
  152SAPE   C3816835   0.253   2.147   5.481
  152SAPE   H8X16836   0.264   2.039   5.505
  152SAPE   H8Y16837   0.356   2.188   5.480
  152SAPE   C3916838   0.198   2.161   5.338
  152SAPE   H9X16839   0.096   2.117   5.339
  152SAPE   H9Y16840   0.249   2.088   5.272
  152SAPE  C31016841   0.210   2.297   5.274
  152SAPE  H10X16842   0.305   2.350   5.296
  152SAPE  H10Y16843   0.137   2.350   5.339
  152SAPE  C31116844   0.172   2.311   5.130
  152SAPE  H11X16845   0.149   2.416   5.103
  152SAPE  H11Y16846   0.071   2.269   5.108
  152SAPE  C31216847   0.269   2.243   5.026
  152SAPE  H12X16848   0.272   2.132   5.026
  152SAPE  H12Y16849   0.371   2.275   5.059
  152SAPE  C31316850   0.247   2.273   4.877
  152SAPE  H13X16851   0.229   2.381   4.855
  152SAPE  H13Y16852   0.159   2.214   4.845
  152SAPE  C31416853   0.369   2.237   4.796
  152SAPE  H14X16854   0.393   2.131   4.820
  152SAPE  H14Y16855   0.456   2.293   4.836
  152SAPE  C31516856   0.349   2.264   4.647
  152SAPE  H15X16857   0.342   2.374   4.636
  152SAPE  H15Y16858   0.259   2.225   4.595
  152SAPE  C31616859   0.463   2.213   4.561
  152SAPE  H16X16860   0.481   2.109   4.597
  152SAPE  H16Y16861   0.551   2.274   4.592
  152SAPE  C31716862   0.424   2.210   4.412
  152SAPE  H17X16863   0.381   2.309   4.383
  152SAPE  H17Y16864   0.329   2.153   4.403
  152SAPE  C31816865   0.537   2.169   4.315
  152SAPE  H18X16866   0.591   2.087   4.367
  152SAPE  H18Y16867   0.608   2.254   4.311
  152SAPE  H18Z16868   0.504   2.147   4.211
  153SAPE     N16869   6.404   1.761   6.788
  153SAPE   HN116870   6.497   1.735   6.826
  153SAPE   HN216871   6.407   1.859   6.753
  153SAPE   HN316872   6.339   1.761   6.869
  153SAPE   C1216873   6.383   1.648   6.691
  153SAPE  H12A16874   6.480   1.625   6.642
  153SAPE  H12B16875   6.322   1.688   6.608
  153SAPE   C1116876   6.332   1.523   6.761
  153SAPE  H11A16877   6.313   1.454   6.676
  153SAPE  H11B16878   6.239   1.539   6.821
  153SAPE     P16879   6.525   1.348   6.816
  153SAPE   O1316880   6.655   1.396   6.761
  153SAPE   O1416881   6.527   1.261   6.935
  153SAPE   O1216882   6.427   1.464   6.848
  153SAPE   O1116883   6.444   1.283   6.700
  153SAPE    C116884   6.339   1.179   6.719
  153SAPE    HA16885   6.370   1.108   6.798
  153SAPE    HB16886   6.255   1.236   6.763
  153SAPE    C216887   6.316   1.106   6.594
  153SAPE    HS16888   6.413   1.075   6.550
  153SAPE   O2116889   6.230   1.194   6.510
  153SAPE   C2116890   6.272   1.201   6.381
  153SAPE   O2216891   6.366   1.137   6.345
  153SAPE   C2216892   6.166   1.283   6.306
  153SAPE   H2R16893   6.069   1.243   6.343
  153SAPE   H2S16894   6.183   1.392   6.321
  153SAPE    C316895   6.235   0.973   6.623
  153SAPE    HX16896   6.149   0.991   6.691
  153SAPE    HY16897   6.291   0.895   6.679
  153SAPE   O3116898   6.184   0.920   6.498
  153SAPE   C3116899   6.259   0.827   6.443
  153SAPE   O3216900   6.351   0.773   6.500
  153SAPE   C3216901   6.212   0.803   6.305
  153SAPE   H2X16902   6.183   0.899   6.256
  153SAPE   H2Y16903   6.114   0.752   6.318
  153SAPE   C2316904   6.161   1.260   6.152
  153SAPE   H3R16905   6.186   1.155   6.125
  153SAPE   H3S16906   6.228   1.327   6.094
  153SAPE   C2416907   6.015   1.285   6.099
  153SAPE   H4R16908   5.958   1.211   6.159
  153SAPE   H4S16909   6.014   1.255   5.992
  153SAPE   C2516910   5.966   1.424   6.106
  153SAPE   H5R16911   5.923   1.448   6.205
  153SAPE   C2616912   5.972   1.516   6.011
  153SAPE   H6R16913   5.935   1.619   6.023
  153SAPE   C2716914   6.036   1.500   5.875
  153SAPE   H7R16915   6.145   1.484   5.890
  153SAPE   H7S16916   6.041   1.597   5.822
  153SAPE   C2816917   5.968   1.406   5.776
  153SAPE   H8R16918   5.872   1.359   5.803
  153SAPE   C2916919   6.027   1.385   5.657
  153SAPE   H9R16920   5.979   1.321   5.582
  153SAPE  C21016921   6.158   1.443   5.600
  153SAPE  H10R16922   6.221   1.495   5.675
  153SAPE  H10S16923   6.125   1.525   5.533
  153SAPE  C21116924   6.224   1.332   5.522
  153SAPE  H11R16925   6.232   1.231   5.565
  153SAPE  C21216926   6.277   1.344   5.396
  153SAPE  H12R16927   6.320   1.258   5.343
  153SAPE  C21316928   6.275   1.467   5.318
  153SAPE  H13R16929   6.320   1.558   5.362
  153SAPE  H13S16930   6.182   1.520   5.287
  153SAPE  C21416931   6.352   1.439   5.186
  153SAPE  H14R16932   6.451   1.395   5.207
  153SAPE  C21516933   6.330   1.470   5.057
  153SAPE  H15R16934   6.394   1.429   4.977
  153SAPE  C21616935   6.210   1.557   5.008
  153SAPE  H16R16936   6.149   1.586   5.096
  153SAPE  H16S16937   6.145   1.495   4.943
  153SAPE  C21716938   6.247   1.687   4.948
  153SAPE  H17R16939   6.315   1.745   5.014
  153SAPE  H17S16940   6.155   1.748   4.934
  153SAPE  C21816941   6.301   1.658   4.804
  153SAPE  H18R16942   6.219   1.602   4.755
  153SAPE  H18S16943   6.389   1.591   4.813
  153SAPE  C21916944   6.353   1.778   4.717
  153SAPE  H19R16945   6.405   1.731   4.631
  153SAPE  H19S16946   6.439   1.829   4.764
  153SAPE  C22016947   6.245   1.876   4.674
  153SAPE  H20R16948   6.204   1.945   4.750
  153SAPE  H20S16949   6.165   1.816   4.626
  153SAPE  H20T16950   6.293   1.930   4.589
  153SAPE   C3316951   6.301   0.714   6.214
  153SAPE   H3X16952   6.334   0.624   6.270
  153SAPE   H3Y16953   6.393   0.774   6.196
  153SAPE   C3416954   6.242   0.698   6.080
  153SAPE   H4X16955   6.326   0.688   6.008
  153SAPE   H4Y16956   6.192   0.797   6.065
  153SAPE   C3516957   6.151   0.580   6.059
  153SAPE   H5X16958   6.134   0.564   5.951
  153SAPE   H5Y16959   6.055   0.605   6.109
  153SAPE   C3616960   6.189   0.449   6.135
  153SAPE   H6X16961   6.170   0.466   6.243
  153SAPE   H6Y16962   6.296   0.430   6.112
  153SAPE   C3716963   6.111   0.319   6.086
  153SAPE   H7X16964   6.001   0.332   6.090
  153SAPE   H7Y16965   6.151   0.229   6.137
  153SAPE   C3816966   6.133   0.290   5.941
  153SAPE   H8X16967   6.240   0.267   5.926
  153SAPE   H8Y16968   6.099   0.381   5.887
  153SAPE   C3916969   6.043   0.173   5.900
  153SAPE   H9X16970   5.937   0.205   5.900
  153SAPE   H9Y16971   6.050   0.091   5.974
  153SAPE  C31016972   6.078   0.120   5.760
  153SAPE  H10X16973   5.995   0.056   5.724
  153SAPE  H10Y16974   6.170   0.058   5.749
  153SAPE  C31116975   6.099   0.237   5.655
  153SAPE  H11X16976   6.181   0.300   5.695
  153SAPE  H11Y16977   6.004   0.295   5.659
  153SAPE  C31216978   6.148   0.187   5.516
  153SAPE  H12X16979   6.065   0.127   5.472
  153SAPE  H12Y16980   6.235   0.119   5.530
  153SAPE  C31316981   6.185   0.305   5.420
  153SAPE  H13X16982   6.283   0.348   5.449
  153SAPE  H13Y16983   6.109   0.384   5.408
  153SAPE  C31416984   6.203   0.248   5.274
  153SAPE  H14X16985   6.103   0.208   5.249
  153SAPE  H14Y16986   6.283   0.172   5.288
  153SAPE  C31516987   6.238   0.349   5.166
  153SAPE  H15X16988   6.159   0.425   5.148
  153SAPE  H15Y16989   6.240   0.294   5.070
  153SAPE  C31616990   6.376   0.421   5.181
  153SAPE  H16X16991   6.434   0.426   5.086
  153SAPE  H16Y16992   6.442   0.360   5.246
  153SAPE  C31716993   6.347   0.552   5.251
  153SAPE  H17X16994   6.310   0.536   5.354
  153SAPE  H17Y16995   6.271   0.610   5.193
  153SAPE  C31816996   6.468   0.644   5.266
  153SAPE  H18X16997   6.444   0.744   5.308
  153SAPE  H18Y16998   6.525   0.656   5.171
  153SAPE  H18Z16999   6.541   0.610   5.343
  154SAPE     N17000   4.145   0.271   6.324
  154SAPE   HN117001   4.114   0.174   6.305
  154SAPE   HN217002   4.243   0.259   6.294
  154SAPE   HN317003   4.129   0.295   6.424
  154SAPE   C1217004   4.087   0.370   6.229
  154SAPE  H12A17005   4.074   0.307   6.139
  154SAPE  H12B17006   4.165   0.447   6.208
  154SAPE   C1117007   3.965   0.426   6.295
  154SAPE  H11A17008   3.903   0.481   6.221
  154SAPE  H11B17009   3.995   0.498   6.374
  154SAPE     P17010   3.747   0.363   6.419
  154SAPE   O1317011   3.659   0.246   6.402
  154SAPE   O1417012   3.764   0.403   6.562
  154SAPE   O1217013   3.883   0.328   6.349
  154SAPE   O1117014   3.689   0.486   6.342
  154SAPE    C117015   3.547   0.491   6.305
  154SAPE    HA17016   3.537   0.570   6.228
  154SAPE    HB17017   3.515   0.398   6.253
  154SAPE    C217018   3.445   0.526   6.418
  154SAPE    HS17019   3.438   0.438   6.486
  154SAPE   O2117020   3.319   0.554   6.360
  154SAPE   C2117021   3.234   0.455   6.365
  154SAPE   O2217022   3.249   0.351   6.424
  154SAPE   C2217023   3.106   0.498   6.290
  154SAPE   H2R17024   3.068   0.579   6.355
  154SAPE   H2S17025   3.133   0.531   6.187
  154SAPE    C317026   3.493   0.643   6.514
  154SAPE    HX17027   3.596   0.620   6.548
  154SAPE    HY17028   3.424   0.657   6.599
  154SAPE   O3117029   3.505   0.765   6.443
  154SAPE   C3117030   3.389   0.832   6.432
  154SAPE   O3217031   3.287   0.806   6.488
  154SAPE   C3217032   3.404   0.960   6.350
  154SAPE   H2X17033   3.476   1.024   6.405
  154SAPE   H2Y17034   3.303   1.007   6.349
  154SAPE   C2317035   2.999   0.387   6.274
  154SAPE   H3R17036   2.907   0.430   6.229
  154SAPE   H3S17037   2.980   0.342   6.374
  154SAPE   C2417038   3.045   0.279   6.168
  154SAPE   H4R17039   3.062   0.323   6.067
  154SAPE   H4S17040   2.959   0.209   6.159
  154SAPE   C2517041   3.173   0.199   6.194
  154SAPE   H5R17042   3.165   0.149   6.292
  154SAPE   C2617043   3.285   0.188   6.115
  154SAPE   H6R17044   3.368   0.130   6.158
  154SAPE   C2717045   3.308   0.261   5.990
  154SAPE   H7R17046   3.218   0.310   5.946
  154SAPE   H7S17047   3.324   0.185   5.910
  154SAPE   C2817048   3.425   0.358   5.983
  154SAPE   H8R17049   3.420   0.466   6.000
  154SAPE   C2917050   3.548   0.320   5.942
  154SAPE   H9R17051   3.630   0.393   5.930
  154SAPE  C21017052   3.585   0.180   5.906
  154SAPE  H10R17053   3.622   0.177   5.801
  154SAPE  H10S17054   3.503   0.105   5.909
  154SAPE  C21117055   3.701   0.130   5.986
  154SAPE  H11R17056   3.736   0.190   6.071
  154SAPE  C21217057   3.743   0.012   5.964
  154SAPE  H12R17058   3.836   6.806   6.013
  154SAPE  C21317059   3.704   6.730   5.863
  154SAPE  H13R17060   3.635   6.779   5.791
  154SAPE  H13S17061   3.654   6.650   5.923
  154SAPE  C21417062   3.819   6.660   5.801
  154SAPE  H14R17063   3.896   6.627   5.872
  154SAPE  C21517064   3.839   6.640   5.663
  154SAPE  H15R17065   3.917   6.567   5.635
  154SAPE  C21617066   3.758   6.678   5.543
  154SAPE  H16R17067   3.671   6.736   5.581
  154SAPE  H16S17068   3.720   6.594   5.481
  154SAPE  C21717069   3.834   6.773   5.444
  154SAPE  H17R17070   3.878   0.035   5.496
  154SAPE  H17S17071   3.748   6.808   5.384
  154SAPE  C21817072   3.945   6.709   5.357
  154SAPE  H18R17073   4.008   6.647   5.423
  154SAPE  H18S17074   4.004   6.798   5.326
  154SAPE  C21917075   3.887   6.638   5.231
  154SAPE  H19R17076   3.813   6.702   5.176
  154SAPE  H19S17077   3.829   6.550   5.266
  154SAPE  C22017078   3.994   6.605   5.132
  154SAPE  H20R17079   3.960   6.577   5.031
  154SAPE  H20S17080   4.061   6.527   5.175
  154SAPE  H20T17081   4.063   6.693   5.127
  154SAPE   C3317082   3.448   0.924   6.204
  154SAPE   H3X17083   3.537   0.857   6.213
  154SAPE   H3Y17084   3.478   1.016   6.150
  154SAPE   C3417085   3.348   0.831   6.128
  154SAPE   H4X17086   3.255   0.889   6.109
  154SAPE   H4Y17087   3.323   0.746   6.195
  154SAPE   C3517088   3.408   0.779   5.993
  154SAPE   H5X17089   3.330   0.712   5.951
  154SAPE   H5Y17090   3.500   0.718   6.008
  154SAPE   C3617091   3.445   0.897   5.894
  154SAPE   H6X17092   3.486   0.851   5.801
  154SAPE   H6Y17093   3.524   0.961   5.938
  154SAPE   C3717094   3.325   0.982   5.859
  154SAPE   H7X17095   3.280   1.033   5.947
  154SAPE   H7Y17096   3.243   0.911   5.838
  154SAPE   C3817097   3.346   1.090   5.747
  154SAPE   H8X17098   3.421   1.162   5.786
  154SAPE   H8Y17099   3.248   1.141   5.736
  154SAPE   C3917100   3.374   1.023   5.608
  154SAPE   H9X17101   3.289   0.957   5.582
  154SAPE   H9Y17102   3.468   0.964   5.621
  154SAPE  C31017103   3.385   1.137   5.501
  154SAPE  H10X17104   3.470   1.201   5.532
  154SAPE  H10Y17105   3.300   1.208   5.497
  154SAPE  C31117106   3.426   1.078   5.363
  154SAPE  H11X17107   3.328   1.039   5.328
  154SAPE  H11Y17108   3.497   0.998   5.392
  154SAPE  C31217109   3.479   1.184   5.273
  154SAPE  H12X17110   3.562   1.241   5.318
  154SAPE  H12Y17111   3.403   1.265   5.265
  154SAPE  C31317112   3.505   1.135   5.134
  154SAPE  H13X17113   3.414   1.087   5.094
  154SAPE  H13Y17114   3.580   1.055   5.156
  154SAPE  C31417115   3.576   1.225   5.039
  154SAPE  H14X17116   3.650   1.289   5.093
  154SAPE  H14Y17117   3.499   1.294   5.001
  154SAPE  C31517118   3.635   1.156   4.914
  154SAPE  H15X17119   3.561   1.084   4.874
  154SAPE  H15Y17120   3.724   1.095   4.943
  154SAPE  C31617121   3.669   1.257   4.796
  154SAPE  H16X17122   3.728   1.337   4.846
  154SAPE  H16Y17123   3.589   1.296   4.730
  154SAPE  C31717124   3.775   1.189   4.712
  154SAPE  H17X17125   3.729   1.095   4.674
  154SAPE  H17Y17126   3.867   1.165   4.770
  154SAPE  C31817127   3.804   1.260   4.580
  154SAPE  H18X17128   3.838   1.362   4.608
  154SAPE  H18Y17129   3.718   1.282   4.514
  154SAPE  H18Z17130   3.874   1.195   4.523
  155SAPE     N17131   6.257   5.415   6.327
  155SAPE   HN117132   6.256   5.511   6.287
  155SAPE   HN217133   6.333   5.411   6.398
  155SAPE   HN317134   6.278   5.346   6.252
  155SAPE   C1217135   6.122   5.403   6.399
  155SAPE  H12A17136   6.112   5.320   6.472
  155SAPE  H12B17137   6.038   5.397   6.325
  155SAPE   C1117138   6.085   5.517   6.498
  155SAPE  H11A17139   6.159   5.511   6.581
  155SAPE  H11B17140   5.985   5.503   6.544
  155SAPE     P17141   6.056   5.776   6.505
  155SAPE   O1317142   6.026   5.738   6.640
  155SAPE   O1417143   6.165   5.867   6.481
  155SAPE   O1217144   6.094   5.640   6.431
  155SAPE   O1117145   5.923   5.820   6.434
  155SAPE    C117146   5.821   5.718   6.416
  155SAPE    HA17147   5.832   5.637   6.492
  155SAPE    HB17148   5.723   5.768   6.431
  155SAPE    C217149   5.803   5.654   6.272
  155SAPE    HS17150   5.900   5.601   6.263
  155SAPE   O2117151   5.778   5.761   6.183
  155SAPE   C2117152   5.877   5.809   6.108
  155SAPE   O2217153   5.987   5.752   6.094
  155SAPE   C2217154   5.834   5.941   6.042
  155SAPE   H2R17155   5.724   5.933   6.034
  155SAPE   H2S17156   5.850   6.022   6.116
  155SAPE    C317157   5.681   5.553   6.268
  155SAPE    HX17158   5.592   5.611   6.300
  155SAPE    HY17159   5.695   5.477   6.347
  155SAPE   O3117160   5.652   5.488   6.136
  155SAPE   C3117161   5.742   5.399   6.092
  155SAPE   O3217162   5.846   5.373   6.151
  155SAPE   C3217163   5.688   5.328   5.970
  155SAPE   H2X17164   5.587   5.291   5.999
  155SAPE   H2Y17165   5.745   5.234   5.964
  155SAPE   C2317166   5.916   5.976   5.921
  155SAPE   H3R17167   6.027   5.982   5.934
  155SAPE   H3S17168   5.906   6.074   5.870
  155SAPE   C2417169   5.887   5.885   5.803
  155SAPE   H4R17170   5.911   5.782   5.840
  155SAPE   H4S17171   5.961   5.896   5.721
  155SAPE   C2517172   5.739   5.898   5.752
  155SAPE   H5R17173   5.667   5.896   5.835
  155SAPE   C2617174   5.703   5.913   5.625
  155SAPE   H6R17175   5.595   5.930   5.610
  155SAPE   C2717176   5.793   5.928   5.510
  155SAPE   H7R17177   5.739   5.955   5.417
  155SAPE   H7S17178   5.850   5.836   5.486
  155SAPE   C2817179   5.884   6.045   5.505
  155SAPE   H8R17180   5.891   6.117   5.588
  155SAPE   C2917181   5.959   6.069   5.394
  155SAPE   H9R17182   6.016   6.163   5.386
  155SAPE  C21017183   5.958   6.013   5.256
  155SAPE  H10R17184   5.926   6.090   5.182
  155SAPE  H10S17185   5.883   5.932   5.246
  155SAPE  C21117186   6.082   5.947   5.208
  155SAPE  H11R17187   6.119   5.872   5.279
  155SAPE  C21217188   6.142   5.960   5.083
  155SAPE  H12R17189   6.229   5.902   5.050
  155SAPE  C21317190   6.092   6.051   4.977
  155SAPE  H13R17191   5.984   6.043   4.949
  155SAPE  H13S17192   6.142   6.022   4.882
  155SAPE  C21417193   6.138   6.189   5.009
  155SAPE  H14R17194   6.201   6.202   5.098
  155SAPE  C21517195   6.116   6.302   4.933
  155SAPE  H15R17196   6.153   6.398   4.973
  155SAPE  C21617197   6.046   6.313   4.796
  155SAPE  H16R17198   5.942   6.273   4.794
  155SAPE  H16S17199   6.101   6.239   4.734
  155SAPE  C21717200   6.050   6.448   4.726
  155SAPE  H17R17201   6.148   6.499   4.739
  155SAPE  H17S17202   5.983   6.528   4.765
  155SAPE  C21817203   6.013   6.427   4.578
  155SAPE  H18R17204   5.931   6.352   4.573
  155SAPE  H18S17205   6.102   6.387   4.525
  155SAPE  C21917206   5.970   6.565   4.526
  155SAPE  H19R17207   6.040   6.644   4.561
  155SAPE  H19S17208   5.878   6.590   4.583
  155SAPE  C22017209   5.962   6.575   4.378
  155SAPE  H20R17210   5.925   6.477   4.341
  155SAPE  H20S17211   6.060   6.593   4.329
  155SAPE  H20T17212   5.884   6.652   4.358
  155SAPE   C3317213   5.697   5.422   5.850
  155SAPE   H3X17214   5.798   5.428   5.806
  155SAPE   H3Y17215   5.676   5.530   5.867
  155SAPE   C3417216   5.595   5.392   5.741
  155SAPE   H4X17217   5.498   5.417   5.790
  155SAPE   H4Y17218   5.607   5.285   5.717
  155SAPE   C3517219   5.605   5.490   5.618
  155SAPE   H5X17220   5.713   5.502   5.591
  155SAPE   H5Y17221   5.566   5.590   5.646
  155SAPE   C3617222   5.540   5.445   5.487
  155SAPE   H6X17223   5.430   5.443   5.495
  155SAPE   H6Y17224   5.581   5.347   5.454
  155SAPE   C3717225   5.561   5.549   5.374
  155SAPE   H7X17226   5.509   5.495   5.293
  155SAPE   H7Y17227   5.670   5.554   5.350
  155SAPE   C3817228   5.507   5.692   5.389
  155SAPE   H8X17229   5.569   5.740   5.468
  155SAPE   H8Y17230   5.397   5.698   5.406
  155SAPE   C3917231   5.543   5.785   5.273
  155SAPE   H9X17232   5.506   5.739   5.178
  155SAPE   H9Y17233   5.653   5.783   5.263
  155SAPE  C31017234   5.488   5.930   5.282
  155SAPE  H10X17235   5.528   5.979   5.373
  155SAPE  H10Y17236   5.379   5.931   5.306
  155SAPE  C31117237   5.505   6.008   5.155
  155SAPE  H11X17238   5.440   5.977   5.070
  155SAPE  H11Y17239   5.607   5.993   5.115
  155SAPE  C31217240   5.487   6.161   5.172
  155SAPE  H12X17241   5.562   6.195   5.247
  155SAPE  H12Y17242   5.385   6.171   5.214
  155SAPE  C31317243   5.495   6.244   5.042
  155SAPE  H13X17244   5.438   6.337   5.058
  155SAPE  H13Y17245   5.437   6.193   4.961
  155SAPE  C31417246   5.639   6.268   4.998
  155SAPE  H14X17247   5.675   6.182   4.938
  155SAPE  H14Y17248   5.713   6.286   5.079
  155SAPE  C31517249   5.651   6.391   4.914
  155SAPE  H15X17250   5.760   6.404   4.898
  155SAPE  H15Y17251   5.609   6.476   4.970
  155SAPE  C31617252   5.578   6.381   4.773
  155SAPE  H16X17253   5.474   6.350   4.798
  155SAPE  H16Y17254   5.624   6.305   4.708
  155SAPE  C31717255   5.574   6.513   4.696
  155SAPE  H17X17256   5.676   6.554   4.704
  155SAPE  H17Y17257   5.513   6.584   4.756
  155SAPE  C31817258   5.526   6.501   4.550
  155SAPE  H18X17259   5.506   6.599   4.502
  155SAPE  H18Y17260   5.440   6.433   4.537
  155SAPE  H18Z17261   5.608   6.458   4.489
  156SAPE     N17262   0.080   0.015   6.944
  156SAPE   HN117263   0.181   0.010   6.923
  156SAPE   HN217264   0.059   0.056   7.037
  156SAPE   HN317265   0.018   6.762   6.912
  156SAPE   C1217266   0.050   0.128   6.844
  156SAPE  H12A17267   0.069   0.220   6.904
  156SAPE  H12B17268   6.768   0.126   6.813
  156SAPE   C1117269   0.147   0.133   6.725
  156SAPE  H11A17270   0.165   0.235   6.686
  156SAPE  H11B17271   0.098   0.073   6.645
  156SAPE     P17272   0.383   0.071   6.641
  156SAPE   O1317273   0.512   0.102   6.701
  156SAPE   O1417274   0.379   6.772   6.566
  156SAPE   O1217275   0.275   0.076   6.759
  156SAPE   O1117276   0.346   0.196   6.547
  156SAPE    C117277   0.287   0.191   6.418
  156SAPE    HA17278   0.201   0.122   6.412
  156SAPE    HB17279   0.252   0.290   6.382
  156SAPE    C217280   0.396   0.142   6.314
  156SAPE    HS17281   0.447   0.055   6.361
  156SAPE   O2117282   0.471   0.257   6.276
  156SAPE   C2117283   0.605   0.225   6.287
  156SAPE   O2217284   0.653   0.116   6.320
  156SAPE   C2217285   0.689   0.343   6.261
  156SAPE   H2R17286   0.633   0.438   6.275
  156SAPE   H2S17287   0.775   0.344   6.332
  156SAPE    C317288   0.320   0.085   6.189
  156SAPE    HX17289   0.287   0.177   6.137
  156SAPE    HY17290   0.242   0.014   6.224
  156SAPE   O3117291   0.412   0.012   6.106
  156SAPE   C3117292   0.341   6.760   6.021
  156SAPE   O3217293   0.227   6.783   5.993
  156SAPE   C3217294   0.436   6.649   5.968
  156SAPE   H2X17295   0.369   6.565   5.940
  156SAPE   H2Y17296   0.497   6.614   6.055
  156SAPE   C2317297   0.742   0.331   6.114
  156SAPE   H3R17298   0.753   0.226   6.081
  156SAPE   H3S17299   0.836   0.390   6.124
  156SAPE   C2417300   0.649   0.390   6.006
  156SAPE   H4R17301   0.603   0.480   6.053
  156SAPE   H4S17302   0.561   0.326   5.985
  156SAPE   C2517303   0.723   0.413   5.877
  156SAPE   H5R17304   0.821   0.463   5.893
  156SAPE   C2617305   0.684   0.395   5.754
  156SAPE   H6R17306   0.750   0.419   5.669
  156SAPE   C2717307   0.552   0.338   5.707
  156SAPE   H7R17308   0.491   0.427   5.683
  156SAPE   H7S17309   0.489   0.298   5.789
  156SAPE   C2817310   0.553   0.236   5.596
  156SAPE   H8R17311   0.612   0.145   5.613
  156SAPE   C2917312   0.474   0.239   5.487
  156SAPE   H9R17313   0.474   0.159   5.412
  156SAPE  C21017314   0.377   0.347   5.452
  156SAPE  H10R17315   0.394   0.401   5.356
  156SAPE  H10S17316   0.379   0.433   5.523
  156SAPE  C21117317   0.237   0.296   5.450
  156SAPE  H11R17318   0.203   0.279   5.553
  156SAPE  C21217319   0.148   0.272   5.349
  156SAPE  H12R17320   0.051   0.231   5.379
  156SAPE  C21317321   0.179   0.277   5.200
  156SAPE  H13R17322   0.180   0.179   5.148
  156SAPE  H13S17323   0.278   0.324   5.181
  156SAPE  C21417324   0.075   0.361   5.128
  156SAPE  H14R17325   0.053   0.462   5.166
  156SAPE  C21517326   0.031   0.337   5.004
  156SAPE  H15R17327   6.779   0.401   4.957
  156SAPE  C21617328   0.066   0.228   4.911
  156SAPE  H16R17329   0.003   0.141   4.938
  156SAPE  H16S17330   0.166   0.182   4.927
  156SAPE  C21717331   0.076   0.248   4.756
  156SAPE  H17R17332   0.136   0.340   4.738
  156SAPE  H17S17333   6.800   0.275   4.717
  156SAPE  C21817334   0.130   0.136   4.669
  156SAPE  H18R17335   0.227   0.103   4.712
  156SAPE  H18S17336   0.142   0.179   4.567
  156SAPE  C21917337   0.041   0.015   4.671
  156SAPE  H19R17338   0.030   6.816   4.779
  156SAPE  H19S17339   0.097   6.754   4.630
  156SAPE  C22017340   6.729   0.041   4.611
  156SAPE  H20R17341   6.663   0.116   4.660
  156SAPE  H20S17342   6.676   6.768   4.603
  156SAPE  H20T17343   6.746   0.068   4.504
  156SAPE   C3317344   0.534   6.688   5.854
  156SAPE   H3X17345   0.607   6.613   5.816
  156SAPE   H3Y17346   0.596   6.774   5.887
  156SAPE   C3417347   0.475   6.735   5.715
  156SAPE   H4X17348   0.556   6.772   5.648
  156SAPE   H4Y17349   0.403   6.819   5.723
  156SAPE   C3517350   0.415   6.614   5.640
  156SAPE   H5X17351   0.304   6.604   5.647
  156SAPE   H5Y17352   0.473   6.525   5.672
  156SAPE   C3617353   0.422   6.627   5.484
  156SAPE   H6X17354   0.411   6.524   5.444
  156SAPE   H6Y17355   0.523   6.660   5.453
  156SAPE   C3717356   0.314   6.725   5.434
  156SAPE   H7X17357   0.344   6.824   5.475
  156SAPE   H7Y17358   0.209   6.717   5.469
  156SAPE   C3817359   0.311   6.739   5.279
  156SAPE   H8X17360   0.406   6.786   5.243
  156SAPE   H8Y17361   0.236   6.818   5.256
  156SAPE   C3917362   0.276   6.611   5.201
  156SAPE   H9X17363   0.313   6.519   5.251
  156SAPE   H9Y17364   0.339   6.607   5.109
  156SAPE  C31017365   0.124   6.611   5.163
  156SAPE  H10X17366   0.072   6.620   5.261
  156SAPE  H10Y17367   0.101   6.515   5.112
  156SAPE  C31117368   0.089   6.707   5.053
  156SAPE  H11X17369   0.141   6.686   4.957
  156SAPE  H11Y17370   0.115   6.808   5.092
  156SAPE  C31217371   6.755   6.710   5.040
  156SAPE  H12X17372   6.724   6.606   5.062
  156SAPE  H12Y17373   6.734   6.742   4.935
  156SAPE  C31317374   6.687   6.794   5.140
  156SAPE  H13X17375   6.720   0.074   5.127
  156SAPE  H13Y17376   6.724   6.762   5.240
  156SAPE  C31417377   6.531   6.781   5.152
  156SAPE  H14X17378   6.492   0.026   5.229
  156SAPE  H14Y17379   6.524   6.677   5.189
  156SAPE  C31517380   6.455   6.791   5.014
  156SAPE  H15X17381   6.346   6.774   5.030
  156SAPE  H15Y17382   6.490   6.713   4.943
  156SAPE  C31617383   6.474   0.103   4.934
  156SAPE  H16X17384   6.575   0.109   4.888
  156SAPE  H16Y17385   6.478   0.189   5.005
  156SAPE  C31717386   6.361   0.123   4.828
  156SAPE  H17X17387   6.268   0.118   4.888
  156SAPE  H17Y17388   6.374   0.037   4.759
  156SAPE  C31817389   6.363   0.266   4.770
  156SAPE  H18X17390   6.351   0.339   4.853
  156SAPE  H18Y17391   6.296   0.290   4.685
  156SAPE  H18Z17392   6.466   0.278   4.730
  157SAPE     N17393   0.631   5.510   6.816
  157SAPE   HN117394   0.718   5.453   6.812
  157SAPE   HN217395   0.667   5.595   6.864
  157SAPE   HN317396   0.558   5.467   6.876
  157SAPE   C1217397   0.546   5.542   6.692
  157SAPE  H12A17398   0.501   5.448   6.653
  157SAPE  H12B17399   0.619   5.585   6.620
  157SAPE   C1117400   0.432   5.630   6.725
  157SAPE  H11A17401   0.372   5.590   6.810
  157SAPE  H11B17402   0.368   5.640   6.635
  157SAPE     P17403   0.495   5.881   6.669
  157SAPE   O1317404   0.364   5.947   6.649
  157SAPE   O1417405   0.601   5.964   6.734
  157SAPE   O1217406   0.472   5.759   6.765
  157SAPE   O1117407   0.551   5.827   6.533
  157SAPE    C117408   0.499   5.888   6.411
  157SAPE    HA17409   0.480   5.998   6.407
  157SAPE    HB17410   0.584   5.884   6.341
  157SAPE    C217411   0.370   5.816   6.340
  157SAPE    HS17412   0.279   5.858   6.388
  157SAPE   O2117413   0.373   5.673   6.358
  157SAPE   C2117414   0.260   5.608   6.341
  157SAPE   O2217415   0.154   5.663   6.310
  157SAPE   C2217416   0.275   5.457   6.352
  157SAPE   H2R17417   0.316   5.424   6.450
  157SAPE   H2S17418   0.177   5.405   6.360
  157SAPE    C317419   0.369   5.853   6.195
  157SAPE    HX17420   0.271   5.814   6.161
  157SAPE    HY17421   0.457   5.805   6.147
  157SAPE   O3117422   0.372   5.999   6.182
  157SAPE   C3117423   0.375   6.031   6.050
  157SAPE   O3217424   0.347   5.963   5.957
  157SAPE   C3217425   0.408   6.177   6.024
  157SAPE   H2X17426   0.369   6.241   6.106
  157SAPE   H2Y17427   0.347   6.196   5.934
  157SAPE   C2317428   0.357   5.395   6.236
  157SAPE   H3R17429   0.383   5.290   6.258
  157SAPE   H3S17430   0.455   5.447   6.224
  157SAPE   C2417431   0.287   5.394   6.101
  157SAPE   H4R17432   0.186   5.350   6.109
  157SAPE   H4S17433   0.335   5.317   6.037
  157SAPE   C2517434   0.283   5.532   6.039
  157SAPE   H5R17435   0.187   5.587   6.047
  157SAPE   C2617436   0.380   5.589   5.974
  157SAPE   H6R17437   0.356   5.678   5.915
  157SAPE   C2717438   0.524   5.542   5.957
  157SAPE   H7R17439   0.549   5.585   5.857
  157SAPE   H7S17440   0.524   5.431   5.953
  157SAPE   C2817441   0.621   5.595   6.061
  157SAPE   H8R17442   0.593   5.574   6.165
  157SAPE   C2917443   0.731   5.669   6.046
  157SAPE   H9R17444   0.777   5.707   6.139
  157SAPE  C21017445   0.799   5.690   5.916
  157SAPE  H10R17446   0.775   5.608   5.845
  157SAPE  H10S17447   0.909   5.676   5.924
  157SAPE  C21117448   0.757   5.827   5.868
  157SAPE  H11R17449   0.726   5.903   5.942
  157SAPE  C21217450   0.750   5.858   5.740
  157SAPE  H12R17451   0.709   5.959   5.723
  157SAPE  C21317452   0.787   5.779   5.618
  157SAPE  H13R17453   0.860   5.699   5.643
  157SAPE  H13S17454   0.832   5.853   5.549
  157SAPE  C21417455   0.670   5.700   5.563
  157SAPE  H14R17456   0.587   5.676   5.630
  157SAPE  C21517457   0.675   5.648   5.443
  157SAPE  H15R17458   0.589   5.581   5.429
  157SAPE  C21617459   0.787   5.648   5.341
  157SAPE  H16R17460   0.799   5.545   5.301
  157SAPE  H16S17461   0.882   5.681   5.387
  157SAPE  C21717462   0.744   5.732   5.219
  157SAPE  H17R17463   0.727   5.837   5.251
  157SAPE  H17S17464   0.651   5.692   5.173
  157SAPE  C21817465   0.864   5.740   5.119
  157SAPE  H18R17466   0.899   5.637   5.099
  157SAPE  H18S17467   0.951   5.790   5.167
  157SAPE  C21917468   0.832   5.814   4.984
  157SAPE  H19R17469   0.823   5.924   4.998
  157SAPE  H19S17470   0.744   5.771   4.932
  157SAPE  C22017471   0.941   5.801   4.884
  157SAPE  H20R17472   0.974   5.700   4.851
  157SAPE  H20S17473   1.024   5.872   4.902
  157SAPE  H20T17474   0.899   5.836   4.788
  157SAPE   C3317475   0.554   6.200   6.026
  157SAPE   H3X17476   0.597   6.121   5.960
  157SAPE   H3Y17477   0.601   6.178   6.125
  157SAPE   C3417478   0.609   6.325   5.966
  157SAPE   H4X17479   0.574   6.406   6.034
  157SAPE   H4Y17480   0.569   6.333   5.862
  157SAPE   C3517481   0.758   6.329   5.967
  157SAPE   H5X17482   0.788   6.246   5.899
  157SAPE   H5Y17483   0.806   6.302   6.064
  157SAPE   C3617484   0.834   6.447   5.908
  157SAPE   H6X17485   0.936   6.435   5.951
  157SAPE   H6Y17486   0.794   6.544   5.944
  157SAPE   C3717487   0.827   6.455   5.752
  157SAPE   H7X17488   0.725   6.464   5.710
  157SAPE   H7Y17489   0.863   6.357   5.715
  157SAPE   C3817490   0.912   6.569   5.680
  157SAPE   H8X17491   1.017   6.561   5.716
  157SAPE   H8Y17492   0.855   6.662   5.699
  157SAPE   C3917493   0.924   6.551   5.526
  157SAPE   H9X17494   0.818   6.526   5.505
  157SAPE   H9Y17495   0.994   6.470   5.497
  157SAPE  C31017496   0.956   6.678   5.453
  157SAPE  H10X17497   1.062   6.708   5.468
  157SAPE  H10Y17498   0.879   6.754   5.478
  157SAPE  C31117499   0.941   6.655   5.301
  157SAPE  H11X17500   0.837   6.624   5.277
  157SAPE  H11Y17501   0.995   6.563   5.272
  157SAPE  C31217502   0.982   6.772   5.221
  157SAPE  H12X17503   1.087   6.795   5.250
  157SAPE  H12Y17504   0.925   0.037   5.254
  157SAPE  C31317505   0.980   6.742   5.065
  157SAPE  H13X17506   1.034   6.649   5.037
  157SAPE  H13Y17507   1.029   0.000   5.009
  157SAPE  C31417508   0.835   6.738   5.011
  157SAPE  H14X17509   0.778   6.645   5.028
  157SAPE  H14Y17510   0.853   6.749   4.901
  157SAPE  C31517511   0.738   0.025   5.057
  157SAPE  H15X17512   0.777   0.113   5.000
  157SAPE  H15Y17513   0.732   0.054   5.164
  157SAPE  C31617514   0.601   6.816   5.004
  157SAPE  H16X17515   0.554   6.740   5.071
  157SAPE  H16Y17516   0.608   6.771   4.903
  157SAPE  C31717517   0.500   0.104   5.004
  157SAPE  H17X17518   0.490   0.156   5.102
  157SAPE  H17Y17519   0.403   0.062   4.971
  157SAPE  C31817520   0.546   0.220   4.915
  157SAPE  H18X17521   0.462   0.291   4.907
  157SAPE  H18Y17522   0.559   0.194   4.807
  157SAPE  H18Z17523   0.629   0.275   4.963
  158SAPE     N17524   2.940   4.998   6.857
  158SAPE   HN117525   2.841   5.027   6.843
  158SAPE   HN217526   2.935   4.895   6.865
  158SAPE   HN317527   2.975   5.036   6.947
  158SAPE   C1217528   3.017   5.046   6.737
  158SAPE  H12A17529   2.954   5.011   6.653
  158SAPE  H12B17530   3.113   4.992   6.730
  158SAPE   C1117531   3.037   5.194   6.736
  158SAPE  H11A17532   3.092   5.232   6.648
  158SAPE  H11B17533   3.100   5.210   6.825
  158SAPE     P17534   2.890   5.410   6.757
  158SAPE   O1317535   2.836   5.440   6.892
  158SAPE   O1417536   3.007   5.487   6.716
  158SAPE   O1217537   2.906   5.255   6.745
  158SAPE   O1117538   2.776   5.443   6.651
  158SAPE    C117539   2.708   5.338   6.573
  158SAPE    HA17540   2.701   5.246   6.635
  158SAPE    HB17541   2.600   5.358   6.561
  158SAPE    C217542   2.765   5.312   6.430
  158SAPE    HS17543   2.875   5.307   6.443
  158SAPE   O2117544   2.728   5.413   6.334
  158SAPE   C2117545   2.822   5.441   6.244
  158SAPE   O2217546   2.928   5.383   6.234
  158SAPE   C2217547   2.783   5.566   6.170
  158SAPE   H2R17548   2.731   5.534   6.077
  158SAPE   H2S17549   2.710   5.626   6.229
  158SAPE    C317550   2.728   5.172   6.379
  158SAPE    HX17551   2.618   5.157   6.367
  158SAPE    HY17552   2.748   5.102   6.463
  158SAPE   O3117553   2.789   5.133   6.252
  158SAPE   C3117554   2.897   5.060   6.266
  158SAPE   O3217555   2.943   5.003   6.361
  158SAPE   C3217556   2.958   5.055   6.120
  158SAPE   H2X17557   2.960   5.160   6.083
  158SAPE   H2Y17558   2.894   4.981   6.068
  158SAPE   C2317559   2.902   5.648   6.128
  158SAPE   H3R17560   2.960   5.602   6.045
  158SAPE   H3S17561   2.967   5.646   6.219
  158SAPE   C2417562   2.877   5.790   6.094
  158SAPE   H4R17563   2.974   5.821   6.050
  158SAPE   H4S17564   2.850   5.844   6.187
  158SAPE   C2517565   2.768   5.816   6.005
  158SAPE   H5R17566   2.679   5.842   6.064
  158SAPE   C2617567   2.757   5.830   5.874
  158SAPE   H6R17568   2.655   5.858   5.843
  158SAPE   C2717569   2.859   5.808   5.769
  158SAPE   H7R17570   2.815   5.731   5.702
  158SAPE   H7S17571   2.957   5.767   5.803
  158SAPE   C2817572   2.893   5.934   5.691
  158SAPE   H8R17573   2.934   6.011   5.758
  158SAPE   C2917574   2.877   5.960   5.566
  158SAPE   H9R17575   2.902   6.063   5.535
  158SAPE  C21017576   2.837   5.871   5.450
  158SAPE  H10R17577   2.741   5.915   5.415
  158SAPE  H10S17578   2.825   5.768   5.490
  158SAPE  C21117579   2.942   5.871   5.338
  158SAPE  H11R17580   3.023   5.946   5.344
  158SAPE  C21217581   2.955   5.775   5.239
  158SAPE  H12R17582   3.019   5.808   5.156
  158SAPE  C21317583   2.865   5.662   5.222
  158SAPE  H13R17584   2.767   5.697   5.182
  158SAPE  H13S17585   2.838   5.623   5.322
  158SAPE  C21417586   2.912   5.547   5.141
  158SAPE  H14R17587   2.966   5.470   5.198
  158SAPE  C21517588   2.886   5.538   5.008
  158SAPE  H15R17589   2.914   5.447   4.952
  158SAPE  C21617590   2.824   5.631   4.906
  158SAPE  H16R17591   2.793   5.730   4.947
  158SAPE  H16S17592   2.733   5.589   4.857
  158SAPE  C21717593   2.932   5.666   4.805
  158SAPE  H17R17594   3.025   5.701   4.855
  158SAPE  H17S17595   2.903   5.763   4.758
  158SAPE  C21817596   2.962   5.551   4.702
  158SAPE  H18R17597   2.868   5.495   4.683
  158SAPE  H18S17598   3.027   5.485   4.762
  158SAPE  C21917599   3.021   5.609   4.568
  158SAPE  H19R17600   2.944   5.677   4.525
  158SAPE  H19S17601   3.032   5.528   4.494
  158SAPE  C22017602   3.152   5.685   4.590
  158SAPE  H20R17603   3.224   5.611   4.630
  158SAPE  H20S17604   3.149   5.766   4.666
  158SAPE  H20T17605   3.196   5.717   4.493
  158SAPE   C3317606   3.105   4.995   6.120
  158SAPE   H3X17607   3.101   4.891   6.157
  158SAPE   H3Y17608   3.169   5.054   6.189
  158SAPE   C3417609   3.164   5.009   5.983
  158SAPE   H4X17610   3.093   4.981   5.902
  158SAPE   H4Y17611   3.243   4.932   5.968
  158SAPE   C3517612   3.231   5.152   5.957
  158SAPE   H5X17613   3.303   5.174   6.038
  158SAPE   H5Y17614   3.155   5.233   5.949
  158SAPE   C3617615   3.314   5.167   5.822
  158SAPE   H6X17616   3.384   5.081   5.819
  158SAPE   H6Y17617   3.384   5.253   5.819
  158SAPE   C3717618   3.223   5.168   5.697
  158SAPE   H7X17619   3.156   5.256   5.686
  158SAPE   H7Y17620   3.156   5.080   5.695
  158SAPE   C3817621   3.303   5.148   5.559
  158SAPE   H8X17622   3.347   5.047   5.546
  158SAPE   H8Y17623   3.390   5.216   5.549
  158SAPE   C3917624   3.211   5.164   5.438
  158SAPE   H9X17625   3.179   5.270   5.429
  158SAPE   H9Y17626   3.118   5.107   5.458
  158SAPE  C31017627   3.263   5.110   5.301
  158SAPE  H10X17628   3.274   4.999   5.304
  158SAPE  H10Y17629   3.362   5.155   5.282
  158SAPE  C31117630   3.171   5.142   5.186
  158SAPE  H11X17631   3.166   5.252   5.172
  158SAPE  H11Y17632   3.070   5.103   5.211
  158SAPE  C31217633   3.211   5.075   5.058
  158SAPE  H12X17634   3.181   4.968   5.062
  158SAPE  H12Y17635   3.322   5.079   5.051
  158SAPE  C31317636   3.147   5.139   4.935
  158SAPE  H13X17637   3.204   5.093   4.851
  158SAPE  H13Y17638   3.180   5.245   4.935
  158SAPE  C31417639   2.994   5.131   4.919
  158SAPE  H14X17640   2.946   5.218   4.968
  158SAPE  H14Y17641   2.958   5.050   4.987
  158SAPE  C31517642   2.945   5.126   4.769
  158SAPE  H15X17643   2.994   5.038   4.722
  158SAPE  H15Y17644   2.981   5.210   4.706
  158SAPE  C31617645   2.790   5.130   4.768
  158SAPE  H16X17646   2.771   5.139   4.659
  158SAPE  H16Y17647   2.746   5.224   4.808
  158SAPE  C31717648   2.711   5.010   4.832
  158SAPE  H17X17649   2.722   5.016   4.943
  158SAPE  H17Y17650   2.755   4.915   4.793
  158SAPE  C31817651   2.563   5.007   4.790
  158SAPE  H18X17652   2.552   4.998   4.680
  158SAPE  H18Y17653   2.525   5.107   4.818
  158SAPE  H18Z17654   2.506   4.930   4.846
  159SAPE     N17655   5.887   2.213   2.282
  159SAPE   HN117656   5.978   2.164   2.278
  159SAPE   HN217657   5.832   2.193   2.196
  159SAPE   HN317658   5.907   2.314   2.270
  159SAPE   C1217659   5.798   2.172   2.398
  159SAPE  H12A17660   5.859   2.168   2.490
  159SAPE  H12B17661   5.751   2.073   2.380
  159SAPE   C1117662   5.679   2.269   2.408
  159SAPE  H11A17663   5.724   2.369   2.428
  159SAPE  H11B17664   5.623   2.241   2.499
  159SAPE     P17665   5.600   2.378   2.168
  159SAPE   O1317666   5.720   2.357   2.085
  159SAPE   O1417667   5.470   2.390   2.103
  159SAPE   O1217668   5.599   2.272   2.289
  159SAPE   O1117669   5.636   2.515   2.246
  159SAPE    C117670   5.552   2.576   2.341
  159SAPE    HA17671   5.500   2.660   2.290
  159SAPE    HB17672   5.478   2.501   2.378
  159SAPE    C217673   5.646   2.635   2.446
  159SAPE    HS17674   5.709   2.554   2.488
  159SAPE   O2117675   5.554   2.683   2.552
  159SAPE   C2117676   5.514   2.595   2.642
  159SAPE   O2217677   5.556   2.484   2.662
  159SAPE   C2217678   5.403   2.665   2.732
  159SAPE   H2R17679   5.413   2.775   2.741
  159SAPE   H2S17680   5.304   2.641   2.687
  159SAPE    C317681   5.738   2.745   2.401
  159SAPE    HX17682   5.669   2.812   2.345
  159SAPE    HY17683   5.816   2.708   2.331
  159SAPE   O3117684   5.798   2.808   2.515
  159SAPE   C3117685   5.929   2.779   2.531
  159SAPE   O3217686   5.988   2.694   2.471
  159SAPE   C3217687   5.982   2.860   2.651
  159SAPE   H2X17688   6.024   2.959   2.622
  159SAPE   H2Y17689   6.068   2.797   2.683
  159SAPE   C2317690   5.417   2.605   2.877
  159SAPE   H3R17691   5.389   2.499   2.862
  159SAPE   H3S17692   5.344   2.649   2.948
  159SAPE   C2417693   5.552   2.625   2.956
  159SAPE   H4R17694   5.643   2.574   2.918
  159SAPE   H4S17695   5.551   2.586   3.060
  159SAPE   C2517696   5.583   2.770   2.954
  159SAPE   H5R17697   5.644   2.806   2.870
  159SAPE   C2617698   5.543   2.859   3.044
  159SAPE   H6R17699   5.585   2.960   3.033
  159SAPE   C2717700   5.452   2.846   3.163
  159SAPE   H7R17701   5.510   2.789   3.239
  159SAPE   H7S17702   5.362   2.785   3.141
  159SAPE   C2817703   5.415   2.982   3.220
  159SAPE   H8R17704   5.374   3.056   3.150
  159SAPE   C2917705   5.427   3.018   3.347
  159SAPE   H9R17706   5.405   3.123   3.370
  159SAPE  C21017707   5.491   2.945   3.464
  159SAPE  H10R17708   5.569   2.878   3.421
  159SAPE  H10S17709   5.410   2.878   3.498
  159SAPE  C21117710   5.564   3.033   3.568
  159SAPE  H11R17711   5.624   3.112   3.520
  159SAPE  C21217712   5.576   3.013   3.703
  159SAPE  H12R17713   5.630   3.083   3.769
  159SAPE  C21317714   5.480   2.910   3.773
  159SAPE  H13R17715   5.459   2.825   3.703
  159SAPE  H13S17716   5.386   2.969   3.780
  159SAPE  C21417717   5.507   2.847   3.911
  159SAPE  H14R17718   5.548   2.745   3.902
  159SAPE  C21517719   5.487   2.895   4.037
  159SAPE  H15R17720   5.515   2.827   4.120
  159SAPE  C21617721   5.434   3.035   4.060
  159SAPE  H16R17722   5.329   3.029   4.096
  159SAPE  H16S17723   5.426   3.092   3.965
  159SAPE  C21717724   5.508   3.123   4.160
  159SAPE  H17R17725   5.520   3.075   4.259
  159SAPE  H17S17726   5.442   3.209   4.184
  159SAPE  C21817727   5.637   3.186   4.110
  159SAPE  H18R17728   5.605   3.263   4.036
  159SAPE  H18S17729   5.699   3.117   4.049
  159SAPE  C21917730   5.725   3.257   4.214
  159SAPE  H19R17731   5.809   3.309   4.164
  159SAPE  H19S17732   5.773   3.176   4.274
  159SAPE  C22017733   5.640   3.353   4.303
  159SAPE  H20R17734   5.594   3.434   4.243
  159SAPE  H20S17735   5.698   3.395   4.387
  159SAPE  H20T17736   5.561   3.290   4.349
  159SAPE   C3317737   5.884   2.872   2.766
  159SAPE   H3X17738   5.824   2.780   2.782
  159SAPE   H3Y17739   5.811   2.954   2.748
  159SAPE   C3417740   5.956   2.917   2.895
  159SAPE   H4X17741   5.997   3.020   2.885
  159SAPE   H4Y17742   6.049   2.857   2.898
  159SAPE   C3517743   5.878   2.915   3.025
  159SAPE   H5X17744   5.825   2.819   3.041
  159SAPE   H5Y17745   5.804   2.997   3.010
  159SAPE   C3617746   5.961   2.968   3.139
  159SAPE   H6X17747   5.999   3.065   3.101
  159SAPE   H6Y17748   6.045   2.899   3.165
  159SAPE   C3717749   5.892   3.000   3.268
  159SAPE   H7X17750   5.852   2.906   3.311
  159SAPE   H7Y17751   5.803   3.063   3.242
  159SAPE   C3817752   5.985   3.072   3.360
  159SAPE   H8X17753   6.006   3.165   3.303
  159SAPE   H8Y17754   6.076   3.007   3.357
  159SAPE   C3917755   5.936   3.087   3.502
  159SAPE   H9X17756   6.009   3.051   3.577
  159SAPE   H9Y17757   5.848   3.022   3.518
  159SAPE  C31017758   5.914   3.236   3.518
  159SAPE  H10X17759   5.825   3.262   3.457
  159SAPE  H10Y17760   5.996   3.300   3.479
  159SAPE  C31117761   5.872   3.264   3.666
  159SAPE  H11X17762   5.956   3.253   3.737
  159SAPE  H11Y17763   5.785   3.198   3.689
  159SAPE  C31217764   5.811   3.406   3.676
  159SAPE  H12X17765   5.744   3.410   3.587
  159SAPE  H12Y17766   5.887   3.480   3.642
  159SAPE  C31317767   5.745   3.453   3.806
  159SAPE  H13X17768   5.784   3.398   3.894
  159SAPE  H13Y17769   5.635   3.438   3.802
  159SAPE  C31417770   5.782   3.592   3.854
  159SAPE  H14X17771   5.715   3.609   3.942
  159SAPE  H14Y17772   5.762   3.670   3.777
  159SAPE  C31517773   5.929   3.622   3.898
  159SAPE  H15X17774   5.992   3.628   3.807
  159SAPE  H15Y17775   5.953   3.534   3.962
  159SAPE  C31617776   5.954   3.748   3.975
  159SAPE  H16X17777   5.940   3.723   4.082
  159SAPE  H16Y17778   5.877   3.822   3.944
  159SAPE  C31717779   6.093   3.808   3.954
  159SAPE  H17X17780   6.106   3.900   4.015
  159SAPE  H17Y17781   6.096   3.836   3.847
  159SAPE  C31817782   6.201   3.709   3.968
  159SAPE  H18X17783   6.188   3.620   3.903
  159SAPE  H18Y17784   6.205   3.680   4.075
  159SAPE  H18Z17785   6.299   3.758   3.947
  160SAPE     N17786   5.357   2.160   2.391
  160SAPE   HN117787   5.455   2.192   2.391
  160SAPE   HN217788   5.299   2.239   2.426
  160SAPE   HN317789   5.369   2.084   2.461
  160SAPE   C1217790   5.301   2.117   2.258
  160SAPE  H12A17791   5.323   2.009   2.244
  160SAPE  H12B17792   5.354   2.167   2.174
  160SAPE   C1117793   5.151   2.143   2.258
  160SAPE  H11A17794   5.096   2.091   2.176
  160SAPE  H11B17795   5.129   2.249   2.233
  160SAPE     P17796   5.070   1.952   2.417
  160SAPE   O1317797   4.964   1.908   2.319
  160SAPE   O1417798   5.198   1.878   2.421
  160SAPE   O1217799   5.094   2.106   2.392
  160SAPE   O1117800   5.004   1.941   2.561
  160SAPE    C117801   5.035   2.032   2.662
  160SAPE    HA17802   5.145   2.047   2.665
  160SAPE    HB17803   4.991   2.132   2.643
  160SAPE    C217804   4.984   1.990   2.796
  160SAPE    HS17805   5.024   2.061   2.872
  160SAPE   O2117806   5.011   1.848   2.827
  160SAPE   C2117807   5.146   1.822   2.827
  160SAPE   O2217808   5.238   1.905   2.833
  160SAPE   C2217809   5.154   1.677   2.802
  160SAPE   H2R17810   5.069   1.626   2.852
  160SAPE   H2S17811   5.147   1.671   2.691
  160SAPE    C317812   4.828   2.016   2.811
  160SAPE    HX17813   4.770   2.012   2.717
  160SAPE    HY17814   4.815   2.123   2.837
  160SAPE   O3117815   4.767   1.929   2.908
  160SAPE   C3117816   4.709   1.818   2.873
  160SAPE   O3217817   4.713   1.762   2.765
  160SAPE   C3217818   4.612   1.751   2.980
  160SAPE   H2X17819   4.612   1.641   2.960
  160SAPE   H2Y17820   4.509   1.791   2.968
  160SAPE   C2317821   5.289   1.615   2.850
  160SAPE   H3R17822   5.379   1.679   2.832
  160SAPE   H3S17823   5.317   1.524   2.793
  160SAPE   C2417824   5.274   1.571   2.991
  160SAPE   H4R17825   5.182   1.511   3.005
  160SAPE   H4S17826   5.270   1.661   3.056
  160SAPE   C2517827   5.391   1.489   3.037
  160SAPE   H5R17828   5.455   1.453   2.955
  160SAPE   C2617829   5.426   1.455   3.165
  160SAPE   H6R17830   5.510   1.385   3.178
  160SAPE   C2717831   5.362   1.501   3.293
  160SAPE   H7R17832   5.347   1.610   3.281
  160SAPE   H7S17833   5.428   1.473   3.378
  160SAPE   C2817834   5.218   1.464   3.322
  160SAPE   H8R17835   5.155   1.452   3.232
  160SAPE   C2917836   5.162   1.451   3.446
  160SAPE   H9R17837   5.058   1.417   3.454
  160SAPE  C21017838   5.236   1.480   3.577
  160SAPE  H10R17839   5.343   1.450   3.563
  160SAPE  H10S17840   5.218   1.402   3.654
  160SAPE  C21117841   5.213   1.618   3.636
  160SAPE  H11R17842   5.185   1.693   3.561
  160SAPE  C21217843   5.206   1.644   3.767
  160SAPE  H12R17844   5.173   1.747   3.785
  160SAPE  C21317845   5.245   1.548   3.877
  160SAPE  H13R17846   5.355   1.535   3.864
  160SAPE  H13S17847   5.204   1.446   3.865
  160SAPE  C21417848   5.215   1.608   4.010
  160SAPE  H14R17849   5.214   1.717   4.017
  160SAPE  C21517850   5.202   1.544   4.128
  160SAPE  H15R17851   5.165   1.596   4.217
  160SAPE  C21617852   5.228   1.398   4.162
  160SAPE  H16R17853   5.130   1.347   4.167
  160SAPE  H16S17854   5.267   1.390   4.265
  160SAPE  C21717855   5.305   1.299   4.068
  160SAPE  H17R17856   5.399   1.336   4.021
  160SAPE  H17S17857   5.240   1.278   3.981
  160SAPE  C21817858   5.335   1.161   4.131
  160SAPE  H18R17859   5.238   1.111   4.150
  160SAPE  H18S17860   5.382   1.179   4.230
  160SAPE  C21917861   5.421   1.073   4.039
  160SAPE  H19R17862   5.396   1.108   3.936
  160SAPE  H19S17863   5.389   0.969   4.058
  160SAPE  C22017864   5.569   1.079   4.071
  160SAPE  H20R17865   5.633   1.028   3.997
  160SAPE  H20S17866   5.574   1.026   4.168
  160SAPE  H20T17867   5.604   1.184   4.076
  160SAPE   C3317868   4.660   1.785   3.124
  160SAPE   H3X17869   4.601   1.731   3.201
  160SAPE   H3Y17870   4.644   1.894   3.137
  160SAPE   C3417871   4.798   1.733   3.151
  160SAPE   H4X17872   4.875   1.757   3.074
  160SAPE   H4Y17873   4.791   1.622   3.157
  160SAPE   C3517874   4.854   1.779   3.277
  160SAPE   H5X17875   4.842   1.890   3.278
  160SAPE   H5Y17876   4.961   1.755   3.290
  160SAPE   C3617877   4.790   1.709   3.401
  160SAPE   H6X17878   4.812   1.603   3.374
  160SAPE   H6Y17879   4.680   1.727   3.405
  160SAPE   C3717880   4.858   1.743   3.529
  160SAPE   H7X17881   4.831   1.849   3.551
  160SAPE   H7Y17882   4.968   1.730   3.528
  160SAPE   C3817883   4.803   1.650   3.640
  160SAPE   H8X17884   4.837   1.545   3.625
  160SAPE   H8Y17885   4.695   1.659   3.619
  160SAPE   C3917886   4.846   1.693   3.779
  160SAPE   H9X17887   4.804   1.790   3.813
  160SAPE   H9Y17888   4.957   1.704   3.777
  160SAPE  C31017889   4.824   1.583   3.891
  160SAPE  H10X17890   4.916   1.520   3.893
  160SAPE  H10Y17891   4.735   1.526   3.857
  160SAPE  C31117892   4.804   1.655   4.023
  160SAPE  H11X17893   4.713   1.717   4.016
  160SAPE  H11Y17894   4.885   1.728   4.043
  160SAPE  C31217895   4.780   1.567   4.145
  160SAPE  H12X17896   4.872   1.506   4.156
  160SAPE  H12Y17897   4.703   1.491   4.118
  160SAPE  C31317898   4.747   1.660   4.268
  160SAPE  H13X17899   4.665   1.727   4.232
  160SAPE  H13Y17900   4.827   1.734   4.289
  160SAPE  C31417901   4.706   1.588   4.395
  160SAPE  H14X17902   4.612   1.532   4.377
  160SAPE  H14Y17903   4.690   1.663   4.476
  160SAPE  C31517904   4.808   1.486   4.440
  160SAPE  H15X17905   4.906   1.536   4.457
  160SAPE  H15Y17906   4.825   1.408   4.362
  160SAPE  C31617907   4.764   1.419   4.573
  160SAPE  H16X17908   4.653   1.418   4.574
  160SAPE  H16Y17909   4.793   1.500   4.644
  160SAPE  C31717910   4.837   1.296   4.612
  160SAPE  H17X17911   4.944   1.326   4.608
  160SAPE  H17Y17912   4.818   1.222   4.531
  160SAPE  C31817913   4.794   1.241   4.746
  160SAPE  H18X17914   4.820   1.134   4.755
  160SAPE  H18Y17915   4.684   1.253   4.751
  160SAPE  H18Z17916   4.840   1.295   4.831
  161SAPE     N17917   2.022   4.324   2.159
  161SAPE   HN117918   1.937   4.383   2.170
  161SAPE   HN217919   2.055   4.334   2.257
  161SAPE   HN317920   2.085   4.380   2.097
  161SAPE   C1217921   2.010   4.183   2.114
  161SAPE  H12A17922   1.954   4.177   2.018
  161SAPE  H12B17923   1.971   4.118   2.195
  161SAPE   C1117924   2.149   4.125   2.095
  161SAPE  H11A17925   2.143   4.015   2.083
  161SAPE  H11B17926   2.213   4.138   2.184
  161SAPE     P17927   2.356   4.144   1.939
  161SAPE   O1317928   2.382   3.998   1.953
  161SAPE   O1417929   2.382   4.210   1.812
  161SAPE   O1217930   2.207   4.186   1.979
  161SAPE   O1117931   2.444   4.222   2.048
  161SAPE    C117932   2.582   4.206   2.074
  161SAPE    HA17933   2.611   4.111   2.025
  161SAPE    HB17934   2.645   4.288   2.032
  161SAPE    C217935   2.613   4.192   2.223
  161SAPE    HS17936   2.717   4.157   2.239
  161SAPE   O2117937   2.513   4.111   2.296
  161SAPE   C2117938   2.509   3.989   2.264
  161SAPE   O2217939   2.585   3.927   2.198
  161SAPE   C2217940   2.383   3.930   2.339
  161SAPE   H2R17941   2.327   4.013   2.385
  161SAPE   H2S17942   2.331   3.892   2.248
  161SAPE    C317943   2.617   4.333   2.297
  161SAPE    HX17944   2.534   4.403   2.272
  161SAPE    HY17945   2.703   4.376   2.241
  161SAPE   O3117946   2.644   4.321   2.441
  161SAPE   C3117947   2.543   4.305   2.519
  161SAPE   O3217948   2.425   4.331   2.497
  161SAPE   C3217949   2.598   4.240   2.647
  161SAPE   H2X17950   2.672   4.311   2.692
  161SAPE   H2Y17951   2.641   4.146   2.607
  161SAPE   C2317952   2.424   3.822   2.440
  161SAPE   H3R17953   2.462   3.730   2.391
  161SAPE   H3S17954   2.332   3.793   2.495
  161SAPE   C2417955   2.525   3.867   2.549
  161SAPE   H4R17956   2.464   3.920   2.625
  161SAPE   H4S17957   2.596   3.944   2.513
  161SAPE   C2517958   2.585   3.735   2.603
  161SAPE   H5R17959   2.658   3.685   2.538
  161SAPE   C2617960   2.559   3.683   2.720
  161SAPE   H6R17961   2.618   3.595   2.751
  161SAPE   C2717962   2.452   3.719   2.824
  161SAPE   H7R17963   2.385   3.632   2.841
  161SAPE   H7S17964   2.394   3.807   2.789
  161SAPE   C2817965   2.523   3.762   2.949
  161SAPE   H8R17966   2.565   3.864   2.946
  161SAPE   C2917967   2.545   3.693   3.061
  161SAPE   H9R17968   2.585   3.746   3.149
  161SAPE  C21017969   2.482   3.564   3.098
  161SAPE  H10R17970   2.445   3.507   3.010
  161SAPE  H10S17971   2.394   3.584   3.162
  161SAPE  C21117972   2.589   3.480   3.163
  161SAPE  H11R17973   2.661   3.436   3.093
  161SAPE  C21217974   2.606   3.450   3.292
  161SAPE  H12R17975   2.678   3.375   3.328
  161SAPE  C21317976   2.535   3.513   3.409
  161SAPE  H13R17977   2.455   3.581   3.374
  161SAPE  H13S17978   2.612   3.562   3.472
  161SAPE  C21417979   2.460   3.419   3.495
  161SAPE  H14R17980   2.467   3.314   3.463
  161SAPE  C21517981   2.400   3.446   3.615
  161SAPE  H15R17982   2.340   3.370   3.667
  161SAPE  C21617983   2.404   3.583   3.679
  161SAPE  H16R17984   2.297   3.610   3.689
  161SAPE  H16S17985   2.449   3.665   3.619
  161SAPE  C21717986   2.448   3.598   3.826
  161SAPE  H17R17987   2.551   3.559   3.820
  161SAPE  H17S17988   2.393   3.529   3.894
  161SAPE  C21817989   2.441   3.748   3.878
  161SAPE  H18R17990   2.332   3.772   3.883
  161SAPE  H18S17991   2.485   3.804   3.793
  161SAPE  C21917992   2.511   3.756   4.012
  161SAPE  H19R17993   2.541   3.861   4.037
  161SAPE  H19S17994   2.599   3.689   4.012
  161SAPE  C22017995   2.423   3.710   4.125
  161SAPE  H20R17996   2.372   3.613   4.108
  161SAPE  H20S17997   2.343   3.783   4.149
  161SAPE  H20T17998   2.485   3.693   4.216
  161SAPE   C3317999   2.500   4.195   2.754
  161SAPE   H3X18000   2.419   4.130   2.715
  161SAPE   H3Y18001   2.436   4.284   2.775
  161SAPE   C3418002   2.568   4.151   2.890
  161SAPE   H4X18003   2.647   4.223   2.917
  161SAPE   H4Y18004   2.609   4.048   2.883
  161SAPE   C3518005   2.467   4.157   3.010
  161SAPE   H5X18006   2.369   4.107   2.992
  161SAPE   H5Y18007   2.438   4.263   3.021
  161SAPE   C3618008   2.523   4.110   3.148
  161SAPE   H6X18009   2.614   4.170   3.167
  161SAPE   H6Y18010   2.554   4.004   3.134
  161SAPE   C3718011   2.431   4.116   3.269
  161SAPE   H7X18012   2.333   4.074   3.238
  161SAPE   H7Y18013   2.405   4.221   3.294
  161SAPE   C3818014   2.465   4.037   3.393
  161SAPE   H8X18015   2.556   4.082   3.438
  161SAPE   H8Y18016   2.493   3.939   3.348
  161SAPE   C3918017   2.355   4.025   3.500
  161SAPE   H9X18018   2.397   3.967   3.585
  161SAPE   H9Y18019   2.281   3.956   3.453
  161SAPE  C31018020   2.289   4.151   3.551
  161SAPE  H10X18021   2.242   4.190   3.458
  161SAPE  H10Y18022   2.355   4.231   3.590
  161SAPE  C31118023   2.183   4.117   3.655
  161SAPE  H11X18024   2.131   4.026   3.618
  161SAPE  H11Y18025   2.111   4.201   3.656
  161SAPE  C31218026   2.239   4.102   3.798
  161SAPE  H12X18027   2.338   4.147   3.820
  161SAPE  H12Y18028   2.245   3.993   3.818
  161SAPE  C31318029   2.160   4.171   3.914
  161SAPE  H13X18030   2.068   4.115   3.939
  161SAPE  H13Y18031   2.127   4.269   3.875
  161SAPE  C31418032   2.231   4.158   4.047
  161SAPE  H14X18033   2.307   4.237   4.071
  161SAPE  H14Y18034   2.282   4.059   4.043
  161SAPE  C31518035   2.129   4.163   4.157
  161SAPE  H15X18036   2.173   4.148   4.258
  161SAPE  H15Y18037   2.050   4.087   4.140
  161SAPE  C31618038   2.048   4.296   4.165
  161SAPE  H16X18039   1.971   4.282   4.244
  161SAPE  H16Y18040   1.990   4.316   4.073
  161SAPE  C31718041   2.135   4.419   4.205
  161SAPE  H17X18042   2.194   4.450   4.116
  161SAPE  H17Y18043   2.207   4.391   4.285
  161SAPE  C31818044   2.041   4.537   4.244
  161SAPE  H18X18045   1.958   4.494   4.304
  161SAPE  H18Y18046   2.006   4.588   4.153
  161SAPE  H18Z18047   2.079   4.613   4.316
  162SAPE     N18048   2.789   0.322   2.372
  162SAPE   HN118049   2.735   0.239   2.341
  162SAPE   HN218050   2.804   0.375   2.284
  162SAPE   HN318051   2.877   0.270   2.391
  162SAPE   C1218052   2.741   0.386   2.498
  162SAPE  H12A18053   2.648   0.436   2.465
  162SAPE  H12B18054   2.807   0.468   2.534
  162SAPE   C1118055   2.723   0.278   2.613
  162SAPE  H11A18056   2.648   0.304   2.691
  162SAPE  H11B18057   2.820   0.264   2.666
  162SAPE     P18058   2.588   0.047   2.626
  162SAPE   O1318059   2.451   0.103   2.626
  162SAPE   O1418060   2.614   6.740   2.555
  162SAPE   O1218061   2.685   0.157   2.558
  162SAPE   O1118062   2.646   0.047   2.778
  162SAPE    C118063   2.785   0.019   2.791
  162SAPE    HA18064   2.854   0.041   2.706
  162SAPE    HB18065   2.817   0.092   2.868
  162SAPE    C218066   2.812   6.702   2.851
  162SAPE    HS18067   2.799   6.638   2.762
  162SAPE   O2118068   2.726   6.665   2.963
  162SAPE   C2118069   2.624   6.583   2.936
  162SAPE   O2218070   2.601   6.535   2.830
  162SAPE   C2218071   2.541   6.574   3.065
  162SAPE   H2R18072   2.587   6.487   3.115
  162SAPE   H2S18073   2.551   6.670   3.120
  162SAPE    C318074   2.962   6.687   2.898
  162SAPE    HX18075   2.963   6.727   3.001
  162SAPE    HY18076   3.023   6.753   2.832
  162SAPE   O3118077   3.002   6.553   2.901
  162SAPE   C3118078   3.130   6.542   2.922
  162SAPE   O3218079   3.207   6.637   2.947
  162SAPE   C3218080   3.166   6.397   2.935
  162SAPE   H2X18081   3.223   6.371   2.843
  162SAPE   H2Y18082   3.076   6.332   2.936
  162SAPE   C2318083   2.390   6.556   3.047
  162SAPE   H3R18084   2.366   6.642   2.980
  162SAPE   H3S18085   2.337   6.572   3.144
  162SAPE   C2418086   2.348   6.422   2.979
  162SAPE   H4R18087   2.390   6.346   3.049
  162SAPE   H4S18088   2.393   6.410   2.879
  162SAPE   C2518089   2.201   6.405   2.976
  162SAPE   H5R18090   2.144   6.448   2.892
  162SAPE   C2618091   2.133   6.358   3.084
  162SAPE   H6R18092   2.023   6.347   3.085
  162SAPE   C2718093   2.194   6.309   3.211
  162SAPE   H7R18094   2.155   6.369   3.295
  162SAPE   H7S18095   2.305   6.298   3.208
  162SAPE   C2818096   2.145   6.171   3.238
  162SAPE   H8R18097   2.109   6.112   3.152
  162SAPE   C2918098   2.160   6.096   3.349
  162SAPE   H9R18099   2.136   5.989   3.349
  162SAPE  C21018100   2.201   6.147   3.482
  162SAPE  H10R18101   2.121   6.112   3.550
  162SAPE  H10S18102   2.198   6.258   3.487
  162SAPE  C21118103   2.341   6.112   3.518
  162SAPE  H11R18104   2.410   6.147   3.440
  162SAPE  C21218105   2.385   6.067   3.630
  162SAPE  H12R18106   2.489   6.041   3.652
  162SAPE  C21318107   2.293   6.031   3.746
  162SAPE  H13R18108   2.338   5.942   3.795
  162SAPE  H13S18109   2.202   5.979   3.709
  162SAPE  C21418110   2.250   6.151   3.836
  162SAPE  H14R18111   2.175   6.218   3.791
  162SAPE  C21518112   2.297   6.179   3.953
  162SAPE  H15R18113   2.255   6.271   3.997
  162SAPE  C21618114   2.406   6.113   4.034
  162SAPE  H16R18115   2.422   6.014   3.987
  162SAPE  H16S18116   2.375   6.102   4.140
  162SAPE  C21718117   2.548   6.178   4.053
  162SAPE  H17R18118   2.598   6.130   4.140
  162SAPE  H17S18119   2.538   6.288   4.066
  162SAPE  C21818120   2.640   6.149   3.930
  162SAPE  H18R18121   2.609   6.209   3.842
  162SAPE  H18S18122   2.640   6.039   3.912
  162SAPE  C21918123   2.782   6.181   3.969
  162SAPE  H19R18124   2.814   6.143   4.068
  162SAPE  H19S18125   2.784   6.292   3.975
  162SAPE  C22018126   2.887   6.155   3.854
  162SAPE  H20R18127   2.854   6.190   3.753
  162SAPE  H20S18128   2.902   6.046   3.837
  162SAPE  H20T18129   2.985   6.204   3.870
  162SAPE   C3318130   3.262   6.375   3.059
  162SAPE   H3X18131   3.335   6.458   3.071
  162SAPE   H3Y18132   3.315   6.277   3.059
  162SAPE   C3418133   3.181   6.374   3.188
  162SAPE   H4X18134   3.100   6.299   3.190
  162SAPE   H4Y18135   3.119   6.467   3.193
  162SAPE   C3518136   3.264   6.352   3.321
  162SAPE   H5X18137   3.347   6.425   3.325
  162SAPE   H5Y18138   3.303   6.248   3.324
  162SAPE   C3618139   3.180   6.379   3.446
  162SAPE   H6X18140   3.096   6.307   3.431
  162SAPE   H6Y18141   3.153   6.486   3.435
  162SAPE   C3718142   3.257   6.339   3.569
  162SAPE   H7X18143   3.351   6.399   3.570
  162SAPE   H7Y18144   3.285   6.235   3.596
  162SAPE   C3818145   3.173   6.393   3.694
  162SAPE   H8X18146   3.079   6.335   3.695
  162SAPE   H8Y18147   3.145   6.499   3.672
  162SAPE   C3918148   3.257   6.371   3.821
  162SAPE   H9X18149   3.357   6.418   3.815
  162SAPE   H9Y18150   3.265   6.261   3.832
  162SAPE  C31018151   3.194   6.426   3.947
  162SAPE  H10X18152   3.092   6.387   3.967
  162SAPE  H10Y18153   3.171   6.535   3.941
  162SAPE  C31118154   3.293   6.404   4.064
  162SAPE  H11X18155   3.254   6.451   4.157
  162SAPE  H11Y18156   3.385   6.458   4.031
  162SAPE  C31218157   3.331   6.260   4.095
  162SAPE  H12X18158   3.410   6.256   4.173
  162SAPE  H12Y18159   3.371   6.201   4.010
  162SAPE  C31318160   3.210   6.170   4.154
  162SAPE  H13X18161   3.256   6.082   4.204
  162SAPE  H13Y18162   3.145   6.147   4.067
  162SAPE  C31418163   3.123   6.233   4.265
  162SAPE  H14X18164   3.075   6.329   4.235
  162SAPE  H14Y18165   3.187   6.262   4.351
  162SAPE  C31518166   3.005   6.138   4.316
  162SAPE  H15X18167   3.052   6.050   4.364
  162SAPE  H15Y18168   2.955   6.096   4.227
  162SAPE  C31618169   2.901   6.207   4.400
  162SAPE  H16X18170   2.955   6.252   4.487
  162SAPE  H16Y18171   2.836   6.131   4.447
  162SAPE  C31718172   2.815   6.310   4.326
  162SAPE  H17X18173   2.730   6.266   4.269
  162SAPE  H17Y18174   2.886   6.354   4.253
  162SAPE  C31818175   2.772   6.430   4.412
  162SAPE  H18X18176   2.861   6.457   4.473
  162SAPE  H18Y18177   2.678   6.416   4.470
  162SAPE  H18Z18178   2.755   6.522   4.352
  163SAPE     N18179   2.309   3.164   2.071
  163SAPE   HN118180   2.405   3.203   2.071
  163SAPE   HN218181   2.299   3.108   1.983
  163SAPE   HN318182   2.239   3.241   2.079
  163SAPE   C1218183   2.289   3.059   2.175
  163SAPE  H12A18184   2.385   3.062   2.231
  163SAPE  H12B18185   2.272   2.961   2.127
  163SAPE   C1118186   2.164   3.101   2.257
  163SAPE  H11A18187   2.187   3.196   2.311
  163SAPE  H11B18188   2.139   3.030   2.339
  163SAPE     P18189   1.982   3.245   2.121
  163SAPE   O1318190   2.072   3.334   2.050
  163SAPE   O1418191   1.865   3.205   2.042
  163SAPE   O1218192   2.055   3.106   2.166
  163SAPE   O1118193   1.940   3.304   2.261
  163SAPE    C118194   1.859   3.220   2.346
  163SAPE    HA18195   1.772   3.178   2.292
  163SAPE    HB18196   1.920   3.139   2.391
  163SAPE    C218197   1.795   3.302   2.463
  163SAPE    HS18198   1.731   3.223   2.507
  163SAPE   O2118199   1.727   3.409   2.404
  163SAPE   C2118200   1.603   3.386   2.376
  163SAPE   O2218201   1.533   3.296   2.417
  163SAPE   C2218202   1.557   3.503   2.290
  163SAPE   H2R18203   1.592   3.600   2.331
  163SAPE   H2S18204   1.608   3.489   2.192
  163SAPE    C318205   1.892   3.342   2.579
  163SAPE    HX18206   1.959   3.427   2.556
  163SAPE    HY18207   1.960   3.257   2.604
  163SAPE   O3118208   1.831   3.380   2.706
  163SAPE   C3118209   1.790   3.276   2.781
  163SAPE   O3218210   1.780   3.164   2.738
  163SAPE   C3218211   1.778   3.316   2.927
  163SAPE   H2X18212   1.705   3.400   2.925
  163SAPE   H2Y18213   1.877   3.345   2.968
  163SAPE   C2318214   1.399   3.501   2.275
  163SAPE   H3R18215   1.372   3.399   2.239
  163SAPE   H3S18216   1.376   3.581   2.201
  163SAPE   C2418217   1.330   3.538   2.412
  163SAPE   H4R18218   1.353   3.461   2.489
  163SAPE   H4S18219   1.222   3.530   2.389
  163SAPE   C2518220   1.354   3.682   2.458
  163SAPE   H5R18221   1.329   3.760   2.384
  163SAPE   C2618222   1.394   3.723   2.576
  163SAPE   H6R18223   1.422   3.829   2.583
  163SAPE   C2718224   1.426   3.637   2.692
  163SAPE   H7R18225   1.375   3.539   2.679
  163SAPE   H7S18226   1.375   3.674   2.784
  163SAPE   C2818227   1.569   3.613   2.708
  163SAPE   H8R18228   1.617   3.570   2.619
  163SAPE   C2918229   1.637   3.658   2.811
  163SAPE   H9R18230   1.746   3.645   2.819
  163SAPE  C21018231   1.590   3.722   2.936
  163SAPE  H10R18232   1.626   3.658   3.019
  163SAPE  H10S18233   1.479   3.723   2.942
  163SAPE  C21118234   1.631   3.870   2.952
  163SAPE  H11R18235   1.658   3.928   2.863
  163SAPE  C21218236   1.622   3.933   3.071
  163SAPE  H12R18237   1.654   4.037   3.084
  163SAPE  C21318238   1.593   3.879   3.206
  163SAPE  H13R18239   1.661   3.927   3.279
  163SAPE  H13S18240   1.630   3.775   3.215
  163SAPE  C21418241   1.452   3.902   3.242
  163SAPE  H14R18242   1.389   3.971   3.183
  163SAPE  C21518243   1.387   3.854   3.352
  163SAPE  H15R18244   1.278   3.869   3.364
  163SAPE  C21618245   1.446   3.761   3.451
  163SAPE  H16R18246   1.549   3.794   3.472
  163SAPE  H16S18247   1.439   3.656   3.414
  163SAPE  C21718248   1.377   3.756   3.590
  163SAPE  H17R18249   1.356   3.855   3.635
  163SAPE  H17S18250   1.448   3.698   3.653
  163SAPE  C21818251   1.255   3.675   3.594
  163SAPE  H18R18252   1.272   3.570   3.563
  163SAPE  H18S18253   1.185   3.719   3.521
  163SAPE  C21918254   1.195   3.672   3.738
  163SAPE  H19R18255   1.088   3.644   3.732
  163SAPE  H19S18256   1.206   3.767   3.795
  163SAPE  C22018257   1.252   3.555   3.821
  163SAPE  H20R18258   1.362   3.567   3.815
  163SAPE  H20S18259   1.243   3.458   3.767
  163SAPE  H20T18260   1.207   3.555   3.923
  163SAPE   C3318261   1.710   3.205   3.014
  163SAPE   H3X18262   1.772   3.113   3.007
  163SAPE   H3Y18263   1.612   3.183   2.967
  163SAPE   C3418264   1.700   3.244   3.158
  163SAPE   H4X18265   1.803   3.260   3.196
  163SAPE   H4Y18266   1.660   3.154   3.211
  163SAPE   C3518267   1.606   3.364   3.187
  163SAPE   H5X18268   1.517   3.347   3.123
  163SAPE   H5Y18269   1.652   3.458   3.150
  163SAPE   C3618270   1.560   3.364   3.333
  163SAPE   H6X18271   1.558   3.257   3.364
  163SAPE   H6Y18272   1.456   3.404   3.332
  163SAPE   C3718273   1.651   3.439   3.435
  163SAPE   H7X18274   1.642   3.544   3.401
  163SAPE   H7Y18275   1.758   3.409   3.428
  163SAPE   C3818276   1.601   3.431   3.579
  163SAPE   H8X18277   1.512   3.497   3.588
  163SAPE   H8Y18278   1.682   3.477   3.640
  163SAPE   C3918279   1.580   3.290   3.631
  163SAPE   H9X18280   1.676   3.239   3.609
  163SAPE   H9Y18281   1.506   3.234   3.570
  163SAPE  C31018282   1.540   3.282   3.780
  163SAPE  H10X18283   1.511   3.176   3.798
  163SAPE  H10Y18284   1.460   3.359   3.788
  163SAPE  C31118285   1.665   3.307   3.869
  163SAPE  H11X18286   1.696   3.413   3.862
  163SAPE  H11Y18287   1.751   3.238   3.852
  163SAPE  C31218288   1.629   3.266   4.016
  163SAPE  H12X18289   1.586   3.164   4.013
  163SAPE  H12Y18290   1.551   3.332   4.060
  163SAPE  C31318291   1.747   3.265   4.119
  163SAPE  H13X18292   1.812   3.176   4.104
  163SAPE  H13Y18293   1.694   3.258   4.217
  163SAPE  C31418294   1.823   3.396   4.111
  163SAPE  H14X18295   1.746   3.475   4.104
  163SAPE  H14Y18296   1.870   3.390   4.011
  163SAPE  C31518297   1.923   3.424   4.225
  163SAPE  H15X18298   1.977   3.515   4.193
  163SAPE  H15Y18299   1.996   3.341   4.235
  163SAPE  C31618300   1.861   3.441   4.363
  163SAPE  H16X18301   1.946   3.440   4.434
  163SAPE  H16Y18302   1.787   3.364   4.393
  163SAPE  C31718303   1.808   3.582   4.379
  163SAPE  H17X18304   1.744   3.613   4.293
  163SAPE  H17Y18305   1.889   3.658   4.382
  163SAPE  C31818306   1.721   3.584   4.509
  163SAPE  H18X18307   1.774   3.534   4.593
  163SAPE  H18Y18308   1.626   3.527   4.495
  163SAPE  H18Z18309   1.690   3.683   4.548
  164SAPE     N18310   6.412   3.619   2.224
  164SAPE   HN118311   6.477   3.539   2.211
  164SAPE   HN218312   6.320   3.571   2.228
  164SAPE   HN318313   6.411   3.689   2.148
  164SAPE   C1218314   6.439   3.687   2.362
  164SAPE  H12A18315   6.548   3.706   2.358
  164SAPE  H12B18316   6.417   3.615   2.444
  164SAPE   C1118317   6.360   3.821   2.375
  164SAPE  H11A18318   6.395   3.884   2.460
  164SAPE  H11B18319   6.253   3.791   2.387
  164SAPE     P18320   6.309   4.020   2.212
  164SAPE   O1318321   6.397   4.093   2.117
  164SAPE   O1418322   6.174   3.993   2.166
  164SAPE   O1218323   6.385   3.892   2.255
  164SAPE   O1118324   6.295   4.106   2.347
  164SAPE    C118325   6.414   4.155   2.413
  164SAPE    HA18326   6.495   4.079   2.403
  164SAPE    HB18327   6.444   4.253   2.371
  164SAPE    C218328   6.396   4.183   2.569
  164SAPE    HS18329   6.486   4.240   2.602
  164SAPE   O2118330   6.386   4.058   2.634
  164SAPE   C2118331   6.502   4.012   2.683
  164SAPE   O2218332   6.611   4.064   2.662
  164SAPE   C2218333   6.487   3.879   2.753
  164SAPE   H2R18334   6.406   3.824   2.700
  164SAPE   H2S18335   6.579   3.816   2.745
  164SAPE    C318336   6.265   4.270   2.598
  164SAPE    HX18337   6.173   4.213   2.620
  164SAPE    HY18338   6.250   4.328   2.504
  164SAPE   O3118339   6.299   4.353   2.717
  164SAPE   C3118340   6.187   4.390   2.783
  164SAPE   O3218341   6.076   4.388   2.751
  164SAPE   C3218342   6.237   4.453   2.911
  164SAPE   H2X18343   6.182   4.547   2.935
  164SAPE   H2Y18344   6.341   4.487   2.893
  164SAPE   C2318345   6.438   3.898   2.899
  164SAPE   H3R18346   6.400   3.797   2.924
  164SAPE   H3S18347   6.352   3.967   2.905
  164SAPE   C2418348   6.552   3.950   3.004
  164SAPE   H4R18349   6.650   3.916   2.963
  164SAPE   H4S18350   6.539   3.896   3.100
  164SAPE   C2518351   6.549   4.097   3.021
  164SAPE   H5R18352   6.598   4.154   2.941
  164SAPE   C2618353   6.512   4.168   3.131
  164SAPE   H6R18354   6.526   4.277   3.139
  164SAPE   C2718355   6.447   4.100   3.249
  164SAPE   H7R18356   6.383   4.014   3.221
  164SAPE   H7S18357   6.374   4.177   3.284
  164SAPE   C2818358   6.541   4.058   3.361
  164SAPE   H8R18359   6.591   3.961   3.343
  164SAPE   C2918360   6.557   4.118   3.477
  164SAPE   H9R18361   6.613   4.077   3.562
  164SAPE  C21018362   6.484   4.237   3.518
  164SAPE  H10R18363   6.457   4.303   3.433
  164SAPE  H10S18364   6.552   4.294   3.585
  164SAPE  C21118365   6.355   4.216   3.594
  164SAPE  H11R18366   6.273   4.163   3.541
  164SAPE  C21218367   6.318   4.269   3.714
  164SAPE  H12R18368   6.212   4.252   3.738
  164SAPE  C21318369   6.411   4.336   3.814
  164SAPE  H13R18370   6.391   4.445   3.815
  164SAPE  H13S18371   6.520   4.324   3.795
  164SAPE  C21418372   6.370   4.262   3.941
  164SAPE  H14R18373   6.385   4.154   3.958
  164SAPE  C21518374   6.318   4.329   4.043
  164SAPE  H15R18375   6.284   4.277   4.134
  164SAPE  C21618376   6.295   4.481   4.054
  164SAPE  H16R18377   6.228   4.511   3.971
  164SAPE  H16S18378   6.394   4.526   4.032
  164SAPE  C21718379   6.250   4.518   4.190
  164SAPE  H17R18380   6.159   4.460   4.215
  164SAPE  H17S18381   6.230   4.628   4.191
  164SAPE  C21818382   6.345   4.513   4.311
  164SAPE  H18R18383   6.437   4.573   4.294
  164SAPE  H18S18384   6.372   4.410   4.343
  164SAPE  C21918385   6.276   4.562   4.436
  164SAPE  H19R18386   6.173   4.523   4.451
  164SAPE  H19S18387   6.278   4.671   4.417
  164SAPE  C22018388   6.352   4.546   4.564
  164SAPE  H20R18389   6.450   4.598   4.564
  164SAPE  H20S18390   6.358   4.437   4.586
  164SAPE  H20T18391   6.290   4.600   4.639
  164SAPE   C3318392   6.230   4.365   3.041
  164SAPE   H3X18393   6.321   4.400   3.095
  164SAPE   H3Y18394   6.257   4.260   3.015
  164SAPE   C3418395   6.108   4.391   3.124
  164SAPE   H4X18396   6.023   4.406   3.053
  164SAPE   H4Y18397   6.113   4.481   3.187
  164SAPE   C3518398   6.075   4.269   3.210
  164SAPE   H5X18399   6.146   4.242   3.291
  164SAPE   H5Y18400   6.080   4.180   3.144
  164SAPE   C3618401   5.932   4.278   3.272
  164SAPE   H6X18402   5.896   4.180   3.312
  164SAPE   H6Y18403   5.858   4.312   3.196
  164SAPE   C3718404   5.918   4.378   3.392
  164SAPE   H7X18405   5.821   4.365   3.445
  164SAPE   H7Y18406   5.915   4.481   3.352
  164SAPE   C3818407   6.016   4.356   3.517
  164SAPE   H8X18408   6.118   4.393   3.493
  164SAPE   H8Y18409   6.016   4.245   3.525
  164SAPE   C3918410   5.964   4.418   3.643
  164SAPE   H9X18411   5.914   4.513   3.616
  164SAPE   H9Y18412   6.049   4.436   3.713
  164SAPE  C31018413   5.855   4.330   3.716
  164SAPE  H10X18414   5.770   4.318   3.646
  164SAPE  H10Y18415   5.811   4.393   3.796
  164SAPE  C31118416   5.908   4.191   3.752
  164SAPE  H11X18417   5.978   4.139   3.683
  164SAPE  H11Y18418   5.824   4.119   3.751
  164SAPE  C31218419   5.962   4.199   3.903
  164SAPE  H12X18420   6.031   4.285   3.914
  164SAPE  H12Y18421   6.016   4.102   3.905
  164SAPE  C31318422   5.854   4.194   4.012
  164SAPE  H13X18423   5.768   4.127   3.993
  164SAPE  H13Y18424   5.798   4.288   4.029
  164SAPE  C31418425   5.904   4.147   4.148
  164SAPE  H14X18426   5.981   4.223   4.173
  164SAPE  H14Y18427   5.961   4.051   4.148
  164SAPE  C31518428   5.792   4.146   4.254
  164SAPE  H15X18429   5.742   4.241   4.283
  164SAPE  H15Y18430   5.842   4.125   4.351
  164SAPE  C31618431   5.663   4.054   4.239
  164SAPE  H16X18432   5.582   4.085   4.169
  164SAPE  H16Y18433   5.619   4.046   4.341
  164SAPE  C31718434   5.693   3.916   4.189
  164SAPE  H17X18435   5.747   3.912   4.092
  164SAPE  H17Y18436   5.598   3.862   4.173
  164SAPE  C31818437   5.768   3.832   4.292
  164SAPE  H18X18438   5.701   3.829   4.381
  164SAPE  H18Y18439   5.866   3.879   4.317
  164SAPE  H18Z18440   5.789   3.728   4.257
  165SAPE     N18441   5.991   0.663   2.313
  165SAPE   HN118442   6.044   0.732   2.256
  165SAPE   HN218443   5.943   0.726   2.381
  165SAPE   HN318444   6.055   0.598   2.362
  165SAPE   C1218445   5.893   0.569   2.241
  165SAPE  H12A18446   5.944   0.524   2.153
  165SAPE  H12B18447   5.803   0.625   2.209
  165SAPE   C1118448   5.836   0.466   2.336
  165SAPE  H11A18449   5.767   0.404   2.276
  165SAPE  H11B18450   5.771   0.517   2.410
  165SAPE     P18451   6.011   0.269   2.330
  165SAPE   O1318452   5.934   0.234   2.210
  165SAPE   O1418453   6.154   0.296   2.323
  165SAPE   O1218454   5.945   0.393   2.396
  165SAPE   O1118455   5.986   0.159   2.439
  165SAPE    C118456   5.863   0.153   2.515
  165SAPE    HA18457   5.786   0.196   2.448
  165SAPE    HB18458   5.836   0.048   2.539
  165SAPE    C218459   5.873   0.228   2.650
  165SAPE    HS18460   5.892   0.335   2.625
  165SAPE   O2118461   5.971   0.166   2.731
  165SAPE   C2118462   6.081   0.238   2.764
  165SAPE   O2218463   6.118   0.345   2.713
  165SAPE   C2218464   6.161   0.154   2.868
  165SAPE   H2R18465   6.098   0.132   2.956
  165SAPE   H2S18466   6.203   0.066   2.816
  165SAPE    C318467   5.731   0.227   2.719
  165SAPE    HX18468   5.681   0.140   2.672
  165SAPE    HY18469   5.682   0.317   2.677
  165SAPE   O3118470   5.732   0.227   2.868
  165SAPE   C3118471   5.756   0.112   2.920
  165SAPE   O3218472   5.775   0.008   2.857
  165SAPE   C3218473   5.756   0.119   3.074
  165SAPE   H2X18474   5.728   0.023   3.122
  165SAPE   H2Y18475   5.681   0.198   3.094
  165SAPE   C2318476   6.285   0.236   2.917
  165SAPE   H3R18477   6.269   0.346   2.918
  165SAPE   H3S18478   6.360   0.207   2.840
  165SAPE   C2418479   6.339   0.184   3.052
  165SAPE   H4R18480   6.449   0.201   3.055
  165SAPE   H4S18481   6.316   0.075   3.049
  165SAPE   C2518482   6.274   0.252   3.171
  165SAPE   H5R18483   6.238   0.354   3.153
  165SAPE   C2618484   6.272   0.201   3.291
  165SAPE   H6R18485   6.214   0.260   3.363
  165SAPE   C2718486   6.325   0.067   3.343
  165SAPE   H7R18487   6.407   0.090   3.414
  165SAPE   H7S18488   6.363   0.010   3.256
  165SAPE   C2818489   6.225   6.810   3.421
  165SAPE   H8R18490   6.172   6.739   3.356
  165SAPE   C2918491   6.188   6.814   3.550
  165SAPE   H9R18492   6.100   6.757   3.581
  165SAPE  C21018493   6.241   0.077   3.652
  165SAPE  H10R18494   6.164   0.126   3.715
  165SAPE  H10S18495   6.292   0.164   3.604
  165SAPE  C21118496   6.332   0.013   3.749
  165SAPE  H11R18497   6.376   6.749   3.704
  165SAPE  C21218498   6.338   0.043   3.883
  165SAPE  H12R18499   6.413   6.819   3.947
  165SAPE  C21318500   6.273   0.162   3.948
  165SAPE  H13R18501   6.179   0.188   3.895
  165SAPE  H13S18502   6.348   0.243   3.936
  165SAPE  C21418503   6.248   0.141   4.095
  165SAPE  H14R18504   6.159   0.079   4.113
  165SAPE  C21518505   6.301   0.206   4.199
  165SAPE  H15R18506   6.272   0.170   4.298
  165SAPE  C21618507   6.404   0.318   4.199
  165SAPE  H16R18508   6.371   0.423   4.188
  165SAPE  H16S18509   6.460   0.301   4.105
  165SAPE  C21718510   6.493   0.310   4.315
  165SAPE  H17R18511   6.522   0.203   4.330
  165SAPE  H17S18512   6.442   0.362   4.399
  165SAPE  C21818513   6.624   0.382   4.301
  165SAPE  H18R18514   6.600   0.487   4.277
  165SAPE  H18S18515   6.684   0.331   4.223
  165SAPE  C21918516   6.700   0.388   4.434
  165SAPE  H19R18517   6.705   0.282   4.467
  165SAPE  H19S18518   6.642   0.445   4.510
  165SAPE  C22018519   0.007   0.473   4.438
  165SAPE  H20R18520   0.064   0.452   4.531
  165SAPE  H20S18521   6.809   0.581   4.424
  165SAPE  H20T18522   0.074   0.456   4.351
  165SAPE   C3318523   5.888   0.174   3.123
  165SAPE   H3X18524   5.910   0.266   3.065
  165SAPE   H3Y18525   5.974   0.106   3.102
  165SAPE   C3418526   5.878   0.223   3.268
  165SAPE   H4X18527   5.804   0.306   3.277
  165SAPE   H4Y18528   5.974   0.273   3.293
  165SAPE   C3518529   5.862   0.107   3.371
  165SAPE   H5X18530   5.943   0.038   3.342
  165SAPE   H5Y18531   5.772   0.044   3.355
  165SAPE   C3618532   5.878   0.151   3.517
  165SAPE   H6X18533   5.974   0.206   3.531
  165SAPE   H6Y18534   5.869   0.055   3.573
  165SAPE   C3718535   5.756   0.229   3.568
  165SAPE   H7X18536   5.659   0.179   3.547
  165SAPE   H7Y18537   5.759   0.323   3.508
  165SAPE   C3818538   5.758   0.267   3.717
  165SAPE   H8X18539   5.780   0.171   3.769
  165SAPE   H8Y18540   5.651   0.295   3.727
  165SAPE   C3918541   5.863   0.365   3.764
  165SAPE   H9X18542   5.848   0.467   3.725
  165SAPE   H9Y18543   5.960   0.323   3.731
  165SAPE  C31018544   5.877   0.374   3.922
  165SAPE  H10X18545   5.944   0.290   3.951
  165SAPE  H10Y18546   5.777   0.355   3.968
  165SAPE  C31118547   5.961   0.493   3.973
  165SAPE  H11X18548   5.904   0.585   3.952
  165SAPE  H11Y18549   6.059   0.515   3.926
  165SAPE  C31218550   5.955   0.489   4.124
  165SAPE  H12X18551   6.012   0.408   4.175
  165SAPE  H12Y18552   5.848   0.473   4.150
  165SAPE  C31318553   6.002   0.626   4.173
  165SAPE  H13X18554   5.945   0.702   4.117
  165SAPE  H13Y18555   6.113   0.634   4.162
  165SAPE  C31418556   5.968   0.648   4.327
  165SAPE  H14X18557   5.863   0.612   4.329
  165SAPE  H14Y18558   5.977   0.755   4.354
  165SAPE  C31518559   6.056   0.583   4.433
  165SAPE  H15X18560   6.063   0.475   4.410
  165SAPE  H15Y18561   6.010   0.595   4.533
  165SAPE  C31618562   6.198   0.635   4.430
  165SAPE  H16X18563   6.185   0.745   4.438
  165SAPE  H16Y18564   6.252   0.603   4.339
  165SAPE  C31718565   6.286   0.581   4.546
  165SAPE  H17X18566   6.301   0.471   4.548
  165SAPE  H17Y18567   6.222   0.595   4.636
  165SAPE  C31818568   6.418   0.647   4.552
  165SAPE  H18X18569   6.483   0.598   4.627
  165SAPE  H18Y18570   6.410   0.753   4.582
  165SAPE  H18Z18571   6.462   0.640   4.450
  166SAPE     N18572   0.173   5.749   2.658
  166SAPE   HN118573   0.241   5.750   2.737
  166SAPE   HN218574   0.161   5.650   2.628
  166SAPE   HN318575   0.213   5.818   2.591
  166SAPE   C1218576   0.039   5.792   2.699
  166SAPE  H12A18577   0.039   5.901   2.720
  166SAPE  H12B18578   6.820   5.739   2.786
  166SAPE   C1118579   6.783   5.778   2.568
  166SAPE  H11A18580   6.814   5.850   2.489
  166SAPE  H11B18581   6.679   5.807   2.594
  166SAPE     P18582   6.701   5.529   2.562
  166SAPE   O1318583   6.565   5.556   2.517
  166SAPE   O1418584   6.759   5.401   2.525
  166SAPE   O1218585   6.794   5.647   2.507
  166SAPE   O1118586   6.709   5.546   2.720
  166SAPE    C118587   6.752   5.453   2.810
  166SAPE    HA18588   6.729   5.350   2.775
  166SAPE    HB18589   0.038   5.459   2.804
  166SAPE    C218590   6.683   5.468   2.949
  166SAPE    HS18591   6.639   5.570   2.958
  166SAPE   O2118592   6.777   5.444   3.048
  166SAPE   C2118593   0.041   5.544   3.067
  166SAPE   O2218594   0.035   5.652   3.003
  166SAPE   C2218595   0.153   5.501   3.161
  166SAPE   H2R18596   0.152   5.575   3.243
  166SAPE   H2S18597   0.134   5.398   3.198
  166SAPE    C318598   6.549   5.394   2.967
  166SAPE    HX18599   6.563   5.283   2.968
  166SAPE    HY18600   6.489   5.421   2.878
  166SAPE   O3118601   6.493   5.453   3.085
  166SAPE   C3118602   6.368   5.456   3.088
  166SAPE   O3218603   6.286   5.431   3.001
  166SAPE   C3218604   6.327   5.484   3.230
  166SAPE   H2X18605   6.338   5.593   3.246
  166SAPE   H2Y18606   6.393   5.424   3.296
  166SAPE   C2318607   0.279   5.505   3.073
  166SAPE   H3R18608   0.281   5.597   3.010
  166SAPE   H3S18609   0.272   5.423   2.998
  166SAPE   C2418610   0.414   5.489   3.152
  166SAPE   H4R18611   0.402   5.561   3.237
  166SAPE   H4S18612   0.507   5.517   3.099
  166SAPE   C2518613   0.414   5.345   3.200
  166SAPE   H5R18614   0.426   5.271   3.120
  166SAPE   C2618615   0.407   5.300   3.332
  166SAPE   H6R18616   0.421   5.192   3.349
  166SAPE   C2718617   0.398   5.390   3.457
  166SAPE   H7R18618   0.290   5.409   3.473
  166SAPE   H7S18619   0.446   5.489   3.445
  166SAPE   C2818620   0.469   5.328   3.572
  166SAPE   H8R18621   0.571   5.367   3.585
  166SAPE   C2918622   0.420   5.240   3.667
  166SAPE   H9R18623   0.482   5.210   3.753
  166SAPE  C21018624   0.277   5.193   3.654
  166SAPE  H10R18625   0.258   5.149   3.554
  166SAPE  H10S18626   0.208   5.280   3.658
  166SAPE  C21118627   0.256   5.088   3.763
  166SAPE  H11R18628   0.321   5.001   3.747
  166SAPE  C21218629   0.168   5.088   3.868
  166SAPE  H12R18630   0.166   5.001   3.935
  166SAPE  C21318631   0.059   5.186   3.892
  166SAPE  H13R18632   0.059   5.269   3.819
  166SAPE  H13S18633   0.067   5.251   3.982
  166SAPE  C21418634   6.753   5.117   3.900
  166SAPE  H14R18635   6.747   5.035   3.972
  166SAPE  C21518636   6.643   5.136   3.823
  166SAPE  H15R18637   6.559   5.066   3.826
  166SAPE  C21618638   6.623   5.245   3.719
  166SAPE  H16R18639   6.717   5.305   3.716
  166SAPE  H16S18640   6.542   5.316   3.745
  166SAPE  C21718641   6.590   5.172   3.581
  166SAPE  H17R18642   6.488   5.129   3.592
  166SAPE  H17S18643   6.661   5.091   3.554
  166SAPE  C21818644   6.581   5.274   3.457
  166SAPE  H18R18645   6.525   5.357   3.506
  166SAPE  H18S18646   6.511   5.219   3.390
  166SAPE  C21918647   6.718   5.318   3.397
  166SAPE  H19R18648   6.705   5.338   3.289
  166SAPE  H19S18649   6.786   5.231   3.388
  166SAPE  C22018650   6.784   5.438   3.473
  166SAPE  H20R18651   6.731   5.534   3.458
  166SAPE  H20S18652   0.063   5.453   3.437
  166SAPE  H20T18653   6.791   5.412   3.580
  166SAPE   C3318654   6.180   5.454   3.262
  166SAPE   H3X18655   6.167   5.345   3.251
  166SAPE   H3Y18656   6.122   5.503   3.180
  166SAPE   C3418657   6.119   5.491   3.395
  166SAPE   H4X18658   6.008   5.488   3.393
  166SAPE   H4Y18659   6.157   5.592   3.422
  166SAPE   C3518660   6.167   5.402   3.514
  166SAPE   H5X18661   6.277   5.419   3.522
  166SAPE   H5Y18662   6.150   5.294   3.491
  166SAPE   C3618663   6.089   5.433   3.646
  166SAPE   H6X18664   6.117   5.357   3.722
  166SAPE   H6Y18665   5.980   5.422   3.629
  166SAPE   C3718666   6.112   5.570   3.701
  166SAPE   H7X18667   6.092   5.650   3.627
  166SAPE   H7Y18668   6.222   5.573   3.719
  166SAPE   C3818669   6.054   5.588   3.843
  166SAPE   H8X18670   6.041   5.489   3.892
  166SAPE   H8Y18671   5.958   5.644   3.844
  166SAPE   C3918672   6.151   5.668   3.931
  166SAPE   H9X18673   6.184   5.759   3.877
  166SAPE   H9Y18674   6.244   5.608   3.915
  166SAPE  C31018675   6.108   5.692   4.079
  166SAPE  H10X18676   6.182   5.722   4.156
  166SAPE  H10Y18677   6.078   5.594   4.122
  166SAPE  C31118678   5.998   5.796   4.092
  166SAPE  H11X18679   5.899   5.746   4.094
  166SAPE  H11Y18680   5.999   5.868   4.007
  166SAPE  C31218681   5.991   5.862   4.230
  166SAPE  H12X18682   6.029   5.787   4.302
  166SAPE  H12Y18683   5.883   5.876   4.251
  166SAPE  C31318684   6.062   5.995   4.234
  166SAPE  H13X18685   6.041   6.057   4.145
  166SAPE  H13Y18686   6.171   5.972   4.224
  166SAPE  C31418687   6.045   6.080   4.364
  166SAPE  H14X18688   5.939   6.104   4.387
  166SAPE  H14Y18689   6.097   6.177   4.348
  166SAPE  C31518690   6.113   6.020   4.492
  166SAPE  H15X18691   6.072   5.917   4.504
  166SAPE  H15Y18692   6.086   6.084   4.578
  166SAPE  C31618693   6.259   6.022   4.491
  166SAPE  H16X18694   6.309   6.102   4.431
  166SAPE  H16Y18695   6.303   5.927   4.451
  166SAPE  C31718696   6.317   6.045   4.634
  166SAPE  H17X18697   6.260   6.116   4.698
  166SAPE  H17Y18698   6.422   6.081   4.625
  166SAPE  C31818699   6.331   5.907   4.700
  166SAPE  H18X18700   6.404   5.837   4.654
  166SAPE  H18Y18701   6.236   5.850   4.688
  166SAPE  H18Z18702   6.357   5.913   4.808
  167SAPE     N18703   6.366   2.959   2.105
  167SAPE   HN118704   6.415   2.969   2.196
  167SAPE   HN218705   6.281   2.900   2.115
  167SAPE   HN318706   6.430   2.912   2.038
  167SAPE   C1218707   6.332   3.096   2.050
  167SAPE  H12A18708   6.240   3.137   2.095
  167SAPE  H12B18709   6.312   3.078   1.942
  167SAPE   C1118710   6.445   3.202   2.056
  167SAPE  H11A18711   6.412   3.307   2.040
  167SAPE  H11B18712   6.505   3.178   1.965
  167SAPE     P18713   6.638   3.282   2.197
  167SAPE   O1318714   6.738   3.255   2.092
  167SAPE   O1418715   6.590   3.426   2.209
  167SAPE   O1218716   6.520   3.182   2.177
  167SAPE   O1118717   6.701   3.236   2.334
  167SAPE    C118718   6.626   3.230   2.451
  167SAPE    HA18719   6.534   3.173   2.424
  167SAPE    HB18720   6.692   3.167   2.514
  167SAPE    C218721   6.602   3.365   2.521
  167SAPE    HS18722   6.545   3.437   2.458
  167SAPE   O2118723   6.732   3.415   2.546
  167SAPE   C2118724   6.727   3.545   2.582
  167SAPE   O2218725   6.634   3.622   2.568
  167SAPE   C2218726   0.048   3.586   2.620
  167SAPE   H2R18727   0.093   3.494   2.663
  167SAPE   H2S18728   0.122   3.619   2.544
  167SAPE    C318729   6.520   3.339   2.650
  167SAPE    HX18730   6.428   3.282   2.626
  167SAPE    HY18731   6.485   3.429   2.704
  167SAPE   O3118732   6.592   3.253   2.735
  167SAPE   C3118733   6.691   3.308   2.817
  167SAPE   O3218734   6.717   3.425   2.834
  167SAPE   C3218735   6.755   3.193   2.903
  167SAPE   H2X18736   6.818   3.129   2.837
  167SAPE   H2Y18737   6.669   3.130   2.935
  167SAPE   C2318738   0.048   3.695   2.734
  167SAPE   H3R18739   6.807   3.651   2.812
  167SAPE   H3S18740   0.007   3.793   2.702
  167SAPE   C2418741   0.187   3.709   2.795
  167SAPE   H4R18742   0.261   3.739   2.718
  167SAPE   H4S18743   0.222   3.612   2.835
  167SAPE   C2518744   0.184   3.816   2.898
  167SAPE   H5R18745   0.169   3.914   2.851
  167SAPE   C2618746   0.200   3.796   3.028
  167SAPE   H6R18747   0.200   3.875   3.104
  167SAPE   C2718748   0.207   3.652   3.084
  167SAPE   H7R18749   0.302   3.603   3.056
  167SAPE   H7S18750   0.124   3.601   3.030
  167SAPE   C2818751   0.182   3.642   3.232
  167SAPE   H8R18752   0.260   3.586   3.286
  167SAPE   C2918753   0.072   3.669   3.304
  167SAPE   H9R18754   0.081   3.659   3.413
  167SAPE  C21018755   6.770   3.734   3.247
  167SAPE  H10R18756   6.763   3.708   3.139
  167SAPE  H10S18757   6.769   3.843   3.268
  167SAPE  C21118758   6.649   3.667   3.311
  167SAPE  H11R18759   6.584   3.610   3.242
  167SAPE  C21218760   6.613   3.655   3.439
  167SAPE  H12R18761   6.515   3.611   3.465
  167SAPE  C21318762   6.681   3.711   3.556
  167SAPE  H13R18763   6.757   3.781   3.516
  167SAPE  H13S18764   6.738   3.632   3.608
  167SAPE  C21418765   6.585   3.772   3.657
  167SAPE  H14R18766   6.524   3.850   3.609
  167SAPE  C21518767   6.553   3.726   3.777
  167SAPE  H15R18768   6.478   3.782   3.835
  167SAPE  C21618769   6.601   3.592   3.824
  167SAPE  H16R18770   6.710   3.576   3.809
  167SAPE  H16S18771   6.555   3.514   3.760
  167SAPE  C21718772   6.576   3.587   3.980
  167SAPE  H17R18773   6.465   3.582   3.983
  167SAPE  H17S18774   6.619   3.677   4.028
  167SAPE  C21818775   6.641   3.449   4.043
  167SAPE  H18R18776   6.740   3.445   3.992
  167SAPE  H18S18777   6.582   3.366   3.998
  167SAPE  C21918778   6.652   3.443   4.197
  167SAPE  H19R18779   6.715   3.357   4.230
  167SAPE  H19S18780   6.553   3.427   4.245
  167SAPE  C22018781   6.716   3.574   4.266
  167SAPE  H20R18782   6.695   3.568   4.375
  167SAPE  H20S18783   6.676   3.670   4.227
  167SAPE  H20T18784   0.001   3.572   4.252
  167SAPE   C3318785   0.022   3.247   3.011
  167SAPE   H3X18786   0.108   3.303   2.969
  167SAPE   H3Y18787   0.066   3.163   3.068
  167SAPE   C3418788   6.772   3.318   3.121
  167SAPE   H4X18789   6.687   3.382   3.087
  167SAPE   H4Y18790   0.023   3.387   3.163
  167SAPE   C3518791   6.715   3.221   3.227
  167SAPE   H5X18792   6.794   3.149   3.257
  167SAPE   H5Y18793   6.635   3.163   3.177
  167SAPE   C3618794   6.645   3.287   3.346
  167SAPE   H6X18795   6.565   3.350   3.303
  167SAPE   H6Y18796   6.707   3.351   3.413
  167SAPE   C3718797   6.597   3.186   3.453
  167SAPE   H7X18798   6.679   3.128   3.499
  167SAPE   H7Y18799   6.523   3.119   3.405
  167SAPE   C3818800   6.510   3.258   3.561
  167SAPE   H8X18801   6.420   3.304   3.513
  167SAPE   H8Y18802   6.560   3.337   3.621
  167SAPE   C3918803   6.450   3.161   3.666
  167SAPE   H9X18804   6.532   3.097   3.704
  167SAPE   H9Y18805   6.373   3.101   3.614
  167SAPE  C31018806   6.383   3.236   3.790
  167SAPE  H10X18807   6.305   3.298   3.742
  167SAPE  H10Y18808   6.451   3.307   3.842
  167SAPE  C31118809   6.322   3.145   3.899
  167SAPE  H11X18810   6.389   3.089   3.968
  167SAPE  H11Y18811   6.275   3.061   3.844
  167SAPE  C31218812   6.210   3.217   3.978
  167SAPE  H12X18813   6.148   3.149   4.040
  167SAPE  H12Y18814   6.142   3.262   3.903
  167SAPE  C31318815   6.257   3.331   4.072
  167SAPE  H13X18816   6.319   3.416   4.033
  167SAPE  H13Y18817   6.325   3.271   4.135
  167SAPE  C31418818   6.146   3.386   4.161
  167SAPE  H14X18819   6.057   3.324   4.139
  167SAPE  H14Y18820   6.124   3.494   4.144
  167SAPE  C31518821   6.173   3.359   4.308
  167SAPE  H15X18822   6.247   3.427   4.355
  167SAPE  H15Y18823   6.218   3.258   4.307
  167SAPE  C31618824   6.047   3.343   4.400
  167SAPE  H16X18825   5.968   3.266   4.380
  167SAPE  H16Y18826   5.987   3.435   4.385
  167SAPE  C31718827   6.092   3.330   4.543
  167SAPE  H17X18828   6.178   3.398   4.562
  167SAPE  H17Y18829   6.121   3.225   4.563
  167SAPE  C31818830   5.979   3.360   4.640
  167SAPE  H18X18831   5.996   3.332   4.746
  167SAPE  H18Y18832   5.896   3.299   4.599
  167SAPE  H18Z18833   5.948   3.467   4.638
  168SAPE     N18834   2.679   5.549   1.784
  168SAPE   HN118835   2.689   5.521   1.685
  168SAPE   HN218836   2.577   5.548   1.808
  168SAPE   HN318837   2.713   5.646   1.793
  168SAPE   C1218838   2.769   5.470   1.877
  168SAPE  H12A18839   2.874   5.472   1.840
  168SAPE  H12B18840   2.730   5.366   1.871
  168SAPE   C1118841   2.773   5.526   2.021
  168SAPE  H11A18842   2.859   5.469   2.062
  168SAPE  H11B18843   2.681   5.509   2.081
  168SAPE     P18844   2.872   5.751   2.116
  168SAPE   O1318845   2.947   5.860   2.042
  168SAPE   O1418846   2.768   5.788   2.216
  168SAPE   O1218847   2.799   5.666   2.010
  168SAPE   O1118848   2.973   5.649   2.184
  168SAPE    C118849   3.043   5.663   2.310
  168SAPE    HA18850   3.151   5.657   2.284
  168SAPE    HB18851   3.021   5.766   2.348
  168SAPE    C218852   2.992   5.562   2.417
  168SAPE    HS18853   2.883   5.580   2.429
  168SAPE   O2118854   3.069   5.574   2.541
  168SAPE   C2118855   3.023   5.672   2.619
  168SAPE   O2218856   2.921   5.734   2.612
  168SAPE   C2218857   3.147   5.713   2.697
  168SAPE   H2R18858   3.183   5.629   2.759
  168SAPE   H2S18859   3.221   5.750   2.623
  168SAPE    C318860   2.998   5.412   2.373
  168SAPE    HX18861   3.102   5.379   2.357
  168SAPE    HY18862   2.950   5.408   2.272
  168SAPE   O3118863   2.941   5.326   2.464
  168SAPE   C3118864   2.917   5.202   2.415
  168SAPE   O3218865   2.949   5.164   2.304
  168SAPE   C3218866   2.845   5.114   2.515
  168SAPE   H2X18867   2.900   5.018   2.507
  168SAPE   H2Y18868   2.739   5.092   2.490
  168SAPE   C2318869   3.123   5.828   2.788
  168SAPE   H3R18870   3.049   5.793   2.863
  168SAPE   H3S18871   3.079   5.913   2.733
  168SAPE   C2418872   3.258   5.876   2.848
  168SAPE   H4R18873   3.330   5.907   2.769
  168SAPE   H4S18874   3.301   5.786   2.896
  168SAPE   C2518875   3.237   5.996   2.937
  168SAPE   H5R18876   3.245   6.095   2.889
  168SAPE   C2618877   3.228   5.999   3.072
  168SAPE   H6R18878   3.214   6.095   3.124
  168SAPE   C2718879   3.240   5.875   3.164
  168SAPE   H7R18880   3.340   5.889   3.209
  168SAPE   H7S18881   3.256   5.777   3.114
  168SAPE   C2818882   3.124   5.865   3.255
  168SAPE   H8R18883   3.025   5.866   3.207
  168SAPE   C2918884   3.119   5.842   3.382
  168SAPE   H9R18885   3.018   5.837   3.425
  168SAPE  C21018886   3.228   5.835   3.481
  168SAPE  H10R18887   3.325   5.825   3.429
  168SAPE  H10S18888   3.215   5.739   3.534
  168SAPE  C21118889   3.227   5.953   3.576
  168SAPE  H11R18890   3.281   6.037   3.530
  168SAPE  C21218891   3.173   5.971   3.700
  168SAPE  H12R18892   3.185   6.060   3.762
  168SAPE  C21318893   3.099   5.869   3.782
  168SAPE  H13R18894   3.127   5.764   3.760
  168SAPE  H13S18895   2.994   5.869   3.745
  168SAPE  C21418896   3.109   5.898   3.928
  168SAPE  H14R18897   3.177   5.983   3.945
  168SAPE  C21518898   3.055   5.833   4.033
  168SAPE  H15R18899   3.077   5.869   4.135
  168SAPE  C21618900   2.971   5.713   4.020
  168SAPE  H16R18901   3.022   5.644   4.090
  168SAPE  H16S18902   2.984   5.671   3.918
  168SAPE  C21718903   2.827   5.739   4.053
  168SAPE  H17R18904   2.763   5.656   4.015
  168SAPE  H17S18905   2.786   5.829   4.002
  168SAPE  C21818906   2.796   5.748   4.206
  168SAPE  H18R18907   2.829   5.843   4.253
  168SAPE  H18S18908   2.854   5.659   4.241
  168SAPE  C21918909   2.649   5.737   4.229
  168SAPE  H19R18910   2.604   5.661   4.162
  168SAPE  H19S18911   2.609   5.834   4.193
  168SAPE  C22018912   2.606   5.719   4.373
  168SAPE  H20R18913   2.512   5.775   4.389
  168SAPE  H20S18914   2.676   5.772   4.441
  168SAPE  H20T18915   2.584   5.615   4.407
  168SAPE   C3318916   2.844   5.165   2.659
  168SAPE   H3X18917   2.782   5.257   2.658
  168SAPE   H3Y18918   2.948   5.188   2.688
  168SAPE   C3418919   2.781   5.072   2.766
  168SAPE   H4X18920   2.849   4.985   2.776
  168SAPE   H4Y18921   2.686   5.034   2.723
  168SAPE   C3518922   2.765   5.146   2.900
  168SAPE   H5X18923   2.716   5.243   2.882
  168SAPE   H5Y18924   2.865   5.156   2.948
  168SAPE   C3618925   2.666   5.085   2.998
  168SAPE   H6X18926   2.571   5.075   2.941
  168SAPE   H6Y18927   2.653   5.148   3.089
  168SAPE   C3718928   2.705   4.947   3.050
  168SAPE   H7X18929   2.725   4.868   2.974
  168SAPE   H7Y18930   2.615   4.915   3.106
  168SAPE   C3818931   2.822   4.945   3.154
  168SAPE   H8X18932   2.925   4.946   3.111
  168SAPE   H8Y18933   2.811   4.843   3.196
  168SAPE   C3918934   2.817   5.052   3.267
  168SAPE   H9X18935   2.837   5.147   3.213
  168SAPE   H9Y18936   2.903   5.024   3.331
  168SAPE  C31018937   2.683   5.048   3.349
  168SAPE  H10X18938   2.595   5.043   3.282
  168SAPE  H10Y18939   2.671   5.138   3.413
  168SAPE  C31118940   2.677   4.929   3.440
  168SAPE  H11X18941   2.712   4.947   3.544
  168SAPE  H11Y18942   2.750   4.856   3.399
  168SAPE  C31218943   2.536   4.870   3.454
  168SAPE  H12X18944   2.541   4.776   3.513
  168SAPE  H12Y18945   2.505   4.834   3.354
  168SAPE  C31318946   2.432   4.965   3.508
  168SAPE  H13X18947   2.333   4.917   3.496
  168SAPE  H13Y18948   2.445   5.053   3.442
  168SAPE  C31418949   2.447   5.003   3.659
  168SAPE  H14X18950   2.374   5.085   3.674
  168SAPE  H14Y18951   2.550   5.045   3.672
  168SAPE  C31518952   2.427   4.889   3.759
  168SAPE  H15X18953   2.512   4.817   3.758
  168SAPE  H15Y18954   2.335   4.836   3.728
  168SAPE  C31618955   2.390   4.935   3.893
  168SAPE  H16X18956   2.320   4.865   3.944
  168SAPE  H16Y18957   2.337   5.032   3.885
  168SAPE  C31718958   2.521   4.948   3.981
  168SAPE  H17X18959   2.572   5.043   3.956
  168SAPE  H17Y18960   2.593   4.865   3.968
  168SAPE  C31818961   2.494   4.952   4.130
  168SAPE  H18X18962   2.421   5.034   4.149
  168SAPE  H18Y18963   2.585   4.965   4.192
  168SAPE  H18Z18964   2.445   4.859   4.166
  169SAPE     N18965   0.113   3.108   2.055
  169SAPE   HN118966   0.184   3.170   2.100
  169SAPE   HN218967   0.015   3.135   2.079
  169SAPE   HN318968   0.134   3.010   2.080
  169SAPE   C1218969   0.119   3.122   1.905
  169SAPE  H12A18970   0.223   3.152   1.878
  169SAPE  H12B18971   0.053   3.203   1.869
  169SAPE   C1118972   0.080   2.996   1.825
  169SAPE  H11A18973   0.153   2.920   1.861
  169SAPE  H11B18974   0.103   3.028   1.721
  169SAPE     P18975   6.726   2.833   1.932
  169SAPE   O1318976   6.582   2.847   1.958
  169SAPE   O1418977   6.768   2.708   1.867
  169SAPE   O1218978   6.764   2.968   1.853
  169SAPE   O1118979   6.800   2.840   2.072
  169SAPE    C118980   6.745   2.878   2.199
  169SAPE    HA18981   0.004   2.909   2.265
  169SAPE    HB18982   6.669   2.959   2.198
  169SAPE    C218983   6.685   2.745   2.270
  169SAPE    HS18984   6.602   2.705   2.208
  169SAPE   O2118985   6.656   2.769   2.412
  169SAPE   C2118986   6.550   2.850   2.437
  169SAPE   O2218987   6.479   2.892   2.345
  169SAPE   C2218988   6.513   2.855   2.584
  169SAPE   H2R18989   6.510   2.748   2.613
  169SAPE   H2S18990   6.604   2.893   2.634
  169SAPE    C318991   6.790   2.632   2.268
  169SAPE    HX18992   0.055   2.686   2.305
  169SAPE    HY18993   6.803   2.592   2.165
  169SAPE   O3118994   6.742   2.536   2.359
  169SAPE   C3118995   6.824   2.463   2.411
  169SAPE   O3218996   0.123   2.470   2.402
  169SAPE   C3218997   6.755   2.351   2.484
  169SAPE   H2X18998   6.811   2.260   2.453
  169SAPE   H2Y18999   6.651   2.339   2.449
  169SAPE   C2319000   6.376   2.931   2.621
  169SAPE   H3R19001   6.299   2.877   2.561
  169SAPE   H3S19002   6.378   3.035   2.584
  169SAPE   C2419003   6.342   2.911   2.771
  169SAPE   H4R19004   6.309   2.806   2.787
  169SAPE   H4S19005   6.257   2.979   2.794
  169SAPE   C2519006   6.456   2.941   2.861
  169SAPE   H5R19007   6.553   2.973   2.820
  169SAPE   C2619008   6.441   2.943   2.992
  169SAPE   H6R19009   6.528   2.977   3.051
  169SAPE   C2719010   6.318   2.913   3.083
  169SAPE   H7R19011   6.328   2.804   3.102
  169SAPE   H7S19012   6.222   2.924   3.029
  169SAPE   C2819013   6.306   2.964   3.222
  169SAPE   H8R19014   6.261   3.064   3.228
  169SAPE   C2919015   6.369   2.925   3.332
  169SAPE   H9R19016   6.342   2.983   3.422
  169SAPE  C21019017   6.455   2.809   3.352
  169SAPE  H10R19018   6.552   2.842   3.396
  169SAPE  H10S19019   6.484   2.771   3.251
  169SAPE  C21119020   6.378   2.707   3.430
  169SAPE  H11R19021   6.285   2.680   3.378
  169SAPE  C21219022   6.415   2.657   3.551
  169SAPE  H12R19023   6.357   2.576   3.596
  169SAPE  C21319024   6.544   2.687   3.628
  169SAPE  H13R19025   6.569   2.792   3.605
  169SAPE  H13S19026   6.625   2.622   3.589
  169SAPE  C21419027   6.517   2.662   3.775
  169SAPE  H14R19028   6.430   2.715   3.816
  169SAPE  C21519029   6.584   2.574   3.846
  169SAPE  H15R19030   6.548   2.539   3.944
  169SAPE  C21619031   6.711   2.503   3.799
  169SAPE  H16R19032   6.778   2.572   3.743
  169SAPE  H16S19033   6.682   2.426   3.725
  169SAPE  C21719034   6.792   2.429   3.903
  169SAPE  H17R19035   0.043   2.366   3.853
  169SAPE  H17S19036   6.717   2.366   3.956
  169SAPE  C21819037   0.039   2.523   3.999
  169SAPE  H18R19038   6.792   2.595   4.040
  169SAPE  H18S19039   0.111   2.579   3.935
  169SAPE  C21919040   0.111   2.470   4.119
  169SAPE  H19R19041   0.036   2.450   4.199
  169SAPE  H19S19042   0.178   2.551   4.154
  169SAPE  C22019043   0.208   2.354   4.095
  169SAPE  H20R19044   0.295   2.390   4.036
  169SAPE  H20S19045   0.152   2.273   4.043
  169SAPE  H20T19046   0.242   2.309   4.190
  169SAPE   C3319047   6.759   2.374   2.637
  169SAPE   H3X19048   0.021   2.432   2.673
  169SAPE   H3Y19049   6.777   2.277   2.686
  169SAPE   C3419050   6.624   2.434   2.692
  169SAPE   H4X19051   6.539   2.375   2.653
  169SAPE   H4Y19052   6.621   2.544   2.674
  169SAPE   C3519053   6.604   2.407   2.847
  169SAPE   H5X19054   6.509   2.458   2.875
  169SAPE   H5Y19055   6.684   2.454   2.909
  169SAPE   C3619056   6.564   2.268   2.897
  169SAPE   H6X19057   6.611   2.189   2.835
  169SAPE   H6Y19058   6.456   2.258   2.873
  169SAPE   C3719059   6.589   2.250   3.054
  169SAPE   H7X19060   6.682   2.306   3.078
  169SAPE   H7Y19061   6.600   2.142   3.077
  169SAPE   C3819062   6.469   2.310   3.129
  169SAPE   H8X19063   6.370   2.273   3.097
  169SAPE   H8Y19064   6.470   2.421   3.123
  169SAPE   C3919065   6.497   2.298   3.282
  169SAPE   H9X19066   6.430   2.365   3.340
  169SAPE   H9Y19067   6.597   2.339   3.305
  169SAPE  C31019068   6.469   2.152   3.332
  169SAPE  H10X19069   6.547   2.079   3.303
  169SAPE  H10Y19070   6.379   2.114   3.278
  169SAPE  C31119071   6.448   2.154   3.483
  169SAPE  H11X19072   6.377   2.073   3.510
  169SAPE  H11Y19073   6.394   2.244   3.521
  169SAPE  C31219074   6.575   2.119   3.571
  169SAPE  H12X19075   6.648   2.196   3.537
  169SAPE  H12Y19076   6.631   2.027   3.542
  169SAPE  C31319077   6.528   2.118   3.718
  169SAPE  H13X19078   6.449   2.042   3.732
  169SAPE  H13Y19079   6.480   2.216   3.741
  169SAPE  C31419080   6.639   2.090   3.816
  169SAPE  H14X19081   6.707   2.177   3.807
  169SAPE  H14Y19082   6.690   1.996   3.788
  169SAPE  C31519083   6.580   2.082   3.957
  169SAPE  H15X19084   6.523   1.987   3.958
  169SAPE  H15Y19085   6.517   2.169   3.984
  169SAPE  C31619086   6.694   2.072   4.057
  169SAPE  H16X19087   6.761   2.160   4.049
  169SAPE  H16Y19088   6.758   1.982   4.041
  169SAPE  C31719089   6.649   2.060   4.200
  169SAPE  H17X19090   6.622   1.954   4.217
  169SAPE  H17Y19091   6.562   2.127   4.214
  169SAPE  C31819092   6.752   2.113   4.303
  169SAPE  H18X19093   6.786   2.218   4.290
  169SAPE  H18Y19094   0.011   2.040   4.311
  169SAPE  H18Z19095   6.703   2.117   4.402
  170SAPE     N19096   0.473   3.597   1.921
  170SAPE   HN119097   0.474   3.592   1.817
  170SAPE   HN219098   0.392   3.551   1.967
  170SAPE   HN319099   0.472   3.696   1.953
  170SAPE   C1219100   0.593   3.526   1.976
  170SAPE  H12A19101   0.599   3.550   2.085
  170SAPE  H12B19102   0.684   3.572   1.932
  170SAPE   C1119103   0.587   3.372   1.968
  170SAPE  H11A19104   0.678   3.343   2.025
  170SAPE  H11B19105   0.598   3.343   1.862
  170SAPE     P19106   0.445   3.249   2.149
  170SAPE   O1319107   0.301   3.256   2.184
  170SAPE   O1419108   0.497   3.111   2.153
  170SAPE   O1219109   0.458   3.326   2.007
  170SAPE   O1119110   0.537   3.332   2.243
  170SAPE    C119111   0.490   3.443   2.317
  170SAPE    HA19112   0.566   3.523   2.307
  170SAPE    HB19113   0.389   3.476   2.284
  170SAPE    C219114   0.477   3.409   2.464
  170SAPE    HS19115   0.576   3.388   2.509
  170SAPE   O2119116   0.383   3.296   2.475
  170SAPE   C2119117   0.432   3.186   2.517
  170SAPE   O2219118   0.542   3.161   2.556
  170SAPE   C2219119   0.327   3.080   2.501
  170SAPE   H2R19120   0.269   3.096   2.408
  170SAPE   H2S19121   0.373   2.980   2.490
  170SAPE    C319122   0.416   3.532   2.544
  170SAPE    HX19123   0.308   3.538   2.519
  170SAPE    HY19124   0.460   3.633   2.524
  170SAPE   O3119125   0.413   3.490   2.684
  170SAPE   C3119126   0.528   3.526   2.749
  170SAPE   O3219127   0.616   3.594   2.699
  170SAPE   C3219128   0.538   3.473   2.894
  170SAPE   H2X19129   0.513   3.365   2.888
  170SAPE   H2Y19130   0.463   3.518   2.962
  170SAPE   C2319131   0.237   3.088   2.626
  170SAPE   H3R19132   0.192   3.190   2.630
  170SAPE   H3S19133   0.290   3.077   2.723
  170SAPE   C2419134   0.113   2.989   2.605
  170SAPE   H4R19135   0.073   3.025   2.508
  170SAPE   H4S19136   0.038   3.005   2.686
  170SAPE   C2519137   0.145   2.843   2.608
  170SAPE   H5R19138   0.222   2.802   2.541
  170SAPE   C2619139   0.107   2.752   2.701
  170SAPE   H6R19140   0.145   2.650   2.690
  170SAPE   C2719141   0.018   2.766   2.819
  170SAPE   H7R19142   6.799   2.668   2.847
  170SAPE   H7S19143   6.751   2.823   2.792
  170SAPE   C2819144   0.076   2.832   2.939
  170SAPE   H8R19145   0.158   2.903   2.919
  170SAPE   C2919146   0.038   2.822   3.070
  170SAPE   H9R19147   0.096   2.881   3.143
  170SAPE  C21019148   6.748   2.745   3.119
  170SAPE  H10R19149   6.673   2.727   3.039
  170SAPE  H10S19150   6.688   2.814   3.182
  170SAPE  C21119151   6.775   2.621   3.198
  170SAPE  H11R19152   6.776   2.532   3.133
  170SAPE  C21219153   6.819   2.610   3.323
  170SAPE  H12R19154   0.025   2.511   3.358
  170SAPE  C21319155   0.009   2.721   3.419
  170SAPE  H13R19156   6.729   2.735   3.453
  170SAPE  H13S19157   0.052   2.810   3.368
  170SAPE  C21419158   0.092   2.697   3.538
  170SAPE  H14R19159   0.133   2.598   3.563
  170SAPE  C21519160   0.127   2.797   3.628
  170SAPE  H15R19161   0.198   2.773   3.709
  170SAPE  C21619162   0.088   2.941   3.625
  170SAPE  H16R19163   0.040   2.963   3.528
  170SAPE  H16S19164   0.181   3.002   3.628
  170SAPE  C21719165   6.818   2.984   3.739
  170SAPE  H17R19166   6.720   2.931   3.732
  170SAPE  H17S19167   6.807   3.094   3.727
  170SAPE  C21819168   0.061   2.966   3.871
  170SAPE  H18R19169   0.157   3.019   3.854
  170SAPE  H18S19170   0.084   2.862   3.902
  170SAPE  C21919171   6.799   3.042   3.976
  170SAPE  H19R19172   6.698   2.996   3.979
  170SAPE  H19S19173   6.776   3.142   3.933
  170SAPE  C22019174   0.029   3.047   4.119
  170SAPE  H20R19175   6.779   3.104   4.176
  170SAPE  H20S19176   0.117   3.115   4.120
  170SAPE  H20T19177   0.052   2.950   4.168
  170SAPE   C3319178   0.676   3.486   2.958
  170SAPE   H3X19179   0.713   3.588   2.936
  170SAPE   H3Y19180   0.745   3.426   2.895
  170SAPE   C3419181   0.698   3.457   3.104
  170SAPE   H4X19182   0.808   3.457   3.123
  170SAPE   H4Y19183   0.666   3.354   3.130
  170SAPE   C3519184   0.640   3.564   3.202
  170SAPE   H5X19185   0.533   3.590   3.187
  170SAPE   H5Y19186   0.702   3.652   3.179
  170SAPE   C3619187   0.652   3.518   3.347
  170SAPE   H6X19188   0.571   3.443   3.358
  170SAPE   H6Y19189   0.624   3.607   3.407
  170SAPE   C3719190   0.789   3.465   3.384
  170SAPE   H7X19191   0.872   3.509   3.325
  170SAPE   H7Y19192   0.789   3.354   3.375
  170SAPE   C3819193   0.818   3.497   3.527
  170SAPE   H8X19194   0.789   3.602   3.548
  170SAPE   H8Y19195   0.925   3.487   3.556
  170SAPE   C3919196   0.740   3.400   3.626
  170SAPE   H9X19197   0.753   3.291   3.609
  170SAPE   H9Y19198   0.631   3.417   3.610
  170SAPE  C31019199   0.781   3.424   3.772
  170SAPE  H10X19200   0.732   3.519   3.802
  170SAPE  H10Y19201   0.889   3.443   3.790
  170SAPE  C31119202   0.732   3.308   3.860
  170SAPE  H11X19203   0.788   3.215   3.836
  170SAPE  H11Y19204   0.628   3.286   3.829
  170SAPE  C31219205   0.747   3.343   4.014
  170SAPE  H12X19206   0.665   3.414   4.035
  170SAPE  H12Y19207   0.841   3.400   4.027
  170SAPE  C31319208   0.745   3.222   4.118
  170SAPE  H13X19209   0.830   3.153   4.098
  170SAPE  H13Y19210   0.648   3.168   4.116
  170SAPE  C31419211   0.760   3.273   4.262
  170SAPE  H14X19212   0.683   3.351   4.281
  170SAPE  H14Y19213   0.857   3.323   4.280
  170SAPE  C31519214   0.744   3.158   4.370
  170SAPE  H15X19215   0.829   3.086   4.376
  170SAPE  H15Y19216   0.655   3.099   4.341
  170SAPE  C31619217   0.721   3.215   4.511
  170SAPE  H16X19218   0.658   3.306   4.506
  170SAPE  H16Y19219   0.816   3.251   4.556
  170SAPE  C31719220   0.652   3.124   4.613
  170SAPE  H17X19221   0.718   3.040   4.645
  170SAPE  H17Y19222   0.562   3.087   4.560
  170SAPE  C31819223   0.609   3.189   4.743
  170SAPE  H18X19224   0.586   3.107   4.814
  170SAPE  H18Y19225   0.539   3.275   4.734
  170SAPE  H18Z19226   0.709   3.225   4.776
  171SAPE     N19227   0.755   2.414   1.760
  171SAPE   HN119228   0.793   2.317   1.765
  171SAPE   HN219229   0.662   2.401   1.805
  171SAPE   HN319230   0.720   2.433   1.664
  171SAPE   C1219231   0.844   2.518   1.810
  171SAPE  H12A19232   0.846   2.610   1.748
  171SAPE  H12B19233   0.946   2.477   1.822
  171SAPE   C1119234   0.792   2.550   1.954
  171SAPE  H11A19235   0.868   2.620   1.995
  171SAPE  H11B19236   0.793   2.463   2.024
  171SAPE     P19237   0.625   2.713   2.082
  171SAPE   O1319238   0.727   2.816   2.109
  171SAPE   O1419239   0.488   2.768   2.058
  171SAPE   O1219240   0.668   2.619   1.952
  171SAPE   O1119241   0.612   2.614   2.207
  171SAPE    C119242   0.719   2.612   2.307
  171SAPE    HA19243   0.771   2.514   2.299
  171SAPE    HB19244   0.793   2.694   2.297
  171SAPE    C219245   0.657   2.634   2.448
  171SAPE    HS19246   0.741   2.614   2.517
  171SAPE   O2119247   0.546   2.544   2.470
  171SAPE   C2119248   0.578   2.426   2.521
  171SAPE   O2219249   0.690   2.393   2.560
  171SAPE   C2219250   0.451   2.340   2.552
  171SAPE   H2R19251   0.398   2.330   2.454
  171SAPE   H2S19252   0.486   2.239   2.582
  171SAPE    C319253   0.619   2.789   2.468
  171SAPE    HX19254   0.552   2.812   2.381
  171SAPE    HY19255   0.709   2.855   2.469
  171SAPE   O3119256   0.539   2.790   2.588
  171SAPE   C3119257   0.601   2.837   2.697
  171SAPE   O3219258   0.720   2.869   2.699
  171SAPE   C3219259   0.501   2.838   2.819
  171SAPE   H2X19260   0.480   2.735   2.853
  171SAPE   H2Y19261   0.410   2.880   2.770
  171SAPE   C2319262   0.352   2.405   2.652
  171SAPE   H3R19263   0.249   2.374   2.622
  171SAPE   H3S19264   0.362   2.515   2.652
  171SAPE   C2419265   0.372   2.346   2.795
  171SAPE   H4R19266   0.354   2.236   2.793
  171SAPE   H4S19267   0.297   2.388   2.865
  171SAPE   C2519268   0.521   2.375   2.840
  171SAPE   H5R19269   0.595   2.318   2.782
  171SAPE   C2619270   0.560   2.465   2.938
  171SAPE   H6R19271   0.668   2.477   2.957
  171SAPE   C2719272   0.459   2.529   3.029
  171SAPE   H7R19273   0.376   2.562   2.963
  171SAPE   H7S19274   0.494   2.632   3.056
  171SAPE   C2819275   0.414   2.454   3.154
  171SAPE   H8R19276   0.421   2.345   3.145
  171SAPE   C2919277   0.382   2.512   3.276
  171SAPE   H9R19278   0.325   2.453   3.350
  171SAPE  C21019279   0.403   2.664   3.319
  171SAPE  H10R19280   0.344   2.675   3.413
  171SAPE  H10S19281   0.346   2.724   3.244
  171SAPE  C21119282   0.546   2.696   3.319
  171SAPE  H11R19283   0.609   2.666   3.233
  171SAPE  C21219284   0.597   2.761   3.425
  171SAPE  H12R19285   0.706   2.773   3.433
  171SAPE  C21319286   0.534   2.828   3.547
  171SAPE  H13R19287   0.551   2.759   3.632
  171SAPE  H13S19288   0.426   2.848   3.531
  171SAPE  C21419289   0.602   2.961   3.576
  171SAPE  H14R19290   0.638   3.016   3.488
  171SAPE  C21519291   0.628   3.016   3.697
  171SAPE  H15R19292   0.669   3.117   3.685
  171SAPE  C21619293   0.597   2.963   3.839
  171SAPE  H16R19294   0.668   3.012   3.908
  171SAPE  H16S19295   0.619   2.854   3.847
  171SAPE  C21719296   0.446   2.978   3.879
  171SAPE  H17R19297   0.382   2.931   3.801
  171SAPE  H17S19298   0.425   3.087   3.864
  171SAPE  C21819299   0.412   2.946   4.025
  171SAPE  H18R19300   0.313   2.985   4.055
  171SAPE  H18S19301   0.490   2.992   4.090
  171SAPE  C21919302   0.420   2.793   4.060
  171SAPE  H19R19303   0.524   2.765   4.032
  171SAPE  H19S19304   0.359   2.743   3.982
  171SAPE  C22019305   0.376   2.758   4.202
  171SAPE  H20R19306   0.390   2.648   4.208
  171SAPE  H20S19307   0.266   2.771   4.209
  171SAPE  H20T19308   0.433   2.808   4.283
  171SAPE   C3319309   0.559   2.932   2.929
  171SAPE   H3X19310   0.580   3.029   2.880
  171SAPE   H3Y19311   0.653   2.887   2.969
  171SAPE   C3419312   0.458   2.968   3.028
  171SAPE   H4X19313   0.455   2.879   3.094
  171SAPE   H4Y19314   0.362   2.983   2.974
  171SAPE   C3519315   0.492   3.091   3.111
  171SAPE   H5X19316   0.482   3.188   3.057
  171SAPE   H5Y19317   0.598   3.079   3.144
  171SAPE   C3619318   0.393   3.084   3.237
  171SAPE   H6X19319   0.428   2.996   3.296
  171SAPE   H6Y19320   0.293   3.069   3.191
  171SAPE   C3719321   0.401   3.213   3.322
  171SAPE   H7X19322   0.398   3.304   3.258
  171SAPE   H7Y19323   0.505   3.217   3.359
  171SAPE   C3819324   0.303   3.212   3.441
  171SAPE   H8X19325   0.362   3.161   3.521
  171SAPE   H8Y19326   0.215   3.159   3.400
  171SAPE   C3919327   0.264   3.355   3.488
  171SAPE   H9X19328   0.192   3.390   3.411
  171SAPE   H9Y19329   0.350   3.425   3.490
  171SAPE  C31019330   0.187   3.364   3.621
  171SAPE  H10X19331   0.091   3.308   3.614
  171SAPE  H10Y19332   0.155   3.470   3.633
  171SAPE  C31119333   0.270   3.326   3.741
  171SAPE  H11X19334   0.375   3.356   3.722
  171SAPE  H11Y19335   0.251   3.217   3.749
  171SAPE  C31219336   0.236   3.396   3.872
  171SAPE  H12X19337   0.132   3.368   3.900
  171SAPE  H12Y19338   0.221   3.506   3.857
  171SAPE  C31319339   0.327   3.368   3.985
  171SAPE  H13X19340   0.429   3.411   3.976
  171SAPE  H13Y19341   0.315   3.259   3.999
  171SAPE  C31419342   0.272   3.440   4.117
  171SAPE  H14X19343   0.181   3.384   4.148
  171SAPE  H14Y19344   0.246   3.544   4.087
  171SAPE  C31519345   0.360   3.423   4.243
  171SAPE  H15X19346   0.451   3.484   4.222
  171SAPE  H15Y19347   0.394   3.317   4.245
  171SAPE  C31619348   0.291   3.461   4.378
  171SAPE  H16X19349   0.195   3.405   4.382
  171SAPE  H16Y19350   0.285   3.571   4.392
  171SAPE  C31719351   0.378   3.415   4.497
  171SAPE  H17X19352   0.481   3.458   4.493
  171SAPE  H17Y19353   0.386   3.304   4.500
  171SAPE  C31819354   0.325   3.459   4.640
  171SAPE  H18X19355   0.217   3.440   4.660
  171SAPE  H18Y19356   0.340   3.569   4.635
  171SAPE  H18Z19357   0.384   3.413   4.721
  172SAPE     N19358   0.541   4.747   2.251
  172SAPE   HN119359   0.592   4.828   2.294
  172SAPE   HN219360   0.492   4.697   2.328
  172SAPE   HN319361   0.605   4.682   2.201
  172SAPE   C1219362   0.426   4.785   2.160
  172SAPE  H12A19363   0.352   4.703   2.170
  172SAPE  H12B19364   0.472   4.789   2.059
  172SAPE   C1119365   0.365   4.920   2.197
  172SAPE  H11A19366   0.282   4.951   2.130
  172SAPE  H11B19367   0.431   5.008   2.187
  172SAPE     P19368   0.178   4.937   2.384
  172SAPE   O1319369   0.078   4.938   2.271
  172SAPE   O1419370   0.148   4.840   2.490
  172SAPE   O1219371   0.322   4.911   2.330
  172SAPE   O1119372   0.185   5.083   2.452
  172SAPE    C119373   0.308   5.146   2.469
  172SAPE    HA19374   0.385   5.137   2.389
  172SAPE    HB19375   0.295   5.255   2.488
  172SAPE    C219376   0.389   5.091   2.596
  172SAPE    HS19377   0.451   5.008   2.557
  172SAPE   O2119378   0.299   5.032   2.693
  172SAPE   C2119379   0.224   5.117   2.757
  172SAPE   O2219380   0.212   5.238   2.731
  172SAPE   C2219381   0.170   5.052   2.881
  172SAPE   H2R19382   0.130   4.950   2.859
  172SAPE   H2S19383   0.252   5.027   2.951
  172SAPE    C319384   0.487   5.192   2.666
  172SAPE    HX19385   0.431   5.284   2.696
  172SAPE    HY19386   0.561   5.226   2.591
  172SAPE   O3119387   0.549   5.139   2.788
  172SAPE   C3119388   0.632   5.041   2.758
  172SAPE   O3219389   0.660   5.008   2.644
  172SAPE   C3219390   0.681   4.990   2.893
  172SAPE   H2X19391   0.746   5.062   2.948
  172SAPE   H2Y19392   0.755   4.910   2.872
  172SAPE   C2319393   0.050   5.128   2.961
  172SAPE   H3R19394   6.791   5.137   2.889
  172SAPE   H3S19395   0.093   5.228   2.980
  172SAPE   C2419396   0.008   5.064   3.090
  172SAPE   H4R19397   6.799   4.959   3.080
  172SAPE   H4S19398   6.745   5.122   3.125
  172SAPE   C2519399   0.110   5.081   3.193
  172SAPE   H5R19400   0.168   5.175   3.194
  172SAPE   C2619401   0.147   4.985   3.283
  172SAPE   H6R19402   0.215   5.018   3.363
  172SAPE   C2719403   0.081   4.849   3.311
  172SAPE   H7R19404   0.154   4.787   3.367
  172SAPE   H7S19405   0.087   4.789   3.218
  172SAPE   C2819406   6.773   4.859   3.378
  172SAPE   H8R19407   6.704   4.934   3.336
  172SAPE   C2919408   6.746   4.815   3.502
  172SAPE   H9R19409   6.643   4.845   3.528
  172SAPE  C21019410   6.823   4.709   3.572
  172SAPE  H10R19411   0.058   4.764   3.648
  172SAPE  H10S19412   0.073   4.657   3.508
  172SAPE  C21119413   6.737   4.612   3.645
  172SAPE  H11R19414   6.721   4.514   3.596
  172SAPE  C21219415   6.661   4.631   3.755
  172SAPE  H12R19416   6.604   4.548   3.798
  172SAPE  C21319417   6.665   4.754   3.846
  172SAPE  H13R19418   6.603   4.834   3.801
  172SAPE  H13S19419   6.769   4.793   3.846
  172SAPE  C21419420   6.646   4.728   3.991
  172SAPE  H14R19421   6.717   4.657   4.037
  172SAPE  C21519422   6.554   4.788   4.072
  172SAPE  H15R19423   6.550   4.755   4.177
  172SAPE  C21619424   6.438   4.875   4.029
  172SAPE  H16R19425   6.343   4.822   4.048
  172SAPE  H16S19426   6.442   4.893   3.919
  172SAPE  C21719427   6.430   5.008   4.102
  172SAPE  H17R19428   6.527   5.058   4.084
  172SAPE  H17S19429   6.422   4.999   4.213
  172SAPE  C21819430   6.327   5.114   4.056
  172SAPE  H18R19431   6.226   5.072   4.077
  172SAPE  H18S19432   6.352   5.126   3.948
  172SAPE  C21919433   6.337   5.232   4.144
  172SAPE  H19R19434   6.440   5.273   4.144
  172SAPE  H19S19435   6.313   5.218   4.251
  172SAPE  C22019436   6.245   5.347   4.090
  172SAPE  H20R19437   6.260   5.360   3.981
  172SAPE  H20S19438   6.267   5.446   4.136
  172SAPE  H20T19439   6.139   5.320   4.110
  172SAPE   C3319440   0.567   4.940   2.989
  172SAPE   H3X19441   0.506   4.862   2.938
  172SAPE   H3Y19442   0.506   5.027   3.021
  172SAPE   C3419443   0.617   4.899   3.130
  172SAPE   H4X19444   0.671   4.988   3.169
  172SAPE   H4Y19445   0.693   4.819   3.119
  172SAPE   C3519446   0.510   4.866   3.225
  172SAPE   H5X19447   0.437   4.791   3.187
  172SAPE   H5Y19448   0.447   4.958   3.233
  172SAPE   C3619449   0.552   4.835   3.369
  172SAPE   H6X19450   0.590   4.918   3.432
  172SAPE   H6Y19451   0.643   4.771   3.364
  172SAPE   C3719452   0.450   4.761   3.461
  172SAPE   H7X19453   0.422   4.670   3.405
  172SAPE   H7Y19454   0.356   4.821   3.457
  172SAPE   C3819455   0.502   4.731   3.603
  172SAPE   H8X19456   0.548   4.821   3.650
  172SAPE   H8Y19457   0.581   4.653   3.596
  172SAPE   C3919458   0.396   4.689   3.700
  172SAPE   H9X19459   0.331   4.607   3.662
  172SAPE   H9Y19460   0.322   4.768   3.725
  172SAPE  C31019461   0.471   4.655   3.833
  172SAPE  H10X19462   0.547   4.731   3.858
  172SAPE  H10Y19463   0.525   4.558   3.826
  172SAPE  C31119464   0.368   4.635   3.943
  172SAPE  H11X19465   0.314   4.728   3.972
  172SAPE  H11Y19466   0.427   4.594   4.028
  172SAPE  C31219467   0.261   4.527   3.911
  172SAPE  H12X19468   0.307   4.428   3.890
  172SAPE  H12Y19469   0.204   4.553   3.820
  172SAPE  C31319470   0.180   4.508   4.040
  172SAPE  H13X19471   0.131   4.606   4.060
  172SAPE  H13Y19472   0.255   4.488   4.119
  172SAPE  C31419473   0.081   4.391   4.023
  172SAPE  H14X19474   0.134   4.304   3.979
  172SAPE  H14Y19475   6.823   4.429   3.961
  172SAPE  C31519476   0.031   4.345   4.164
  172SAPE  H15X19477   0.109   4.306   4.233
  172SAPE  H15Y19478   6.793   4.255   4.146
  172SAPE  C31619479   6.793   4.462   4.247
  172SAPE  H16X19480   6.706   4.505   4.193
  172SAPE  H16Y19481   0.044   4.543   4.257
  172SAPE  C31719482   6.756   4.427   4.390
  172SAPE  H17X19483   6.723   4.516   4.447
  172SAPE  H17Y19484   0.017   4.390   4.450
  172SAPE  C31819485   6.648   4.310   4.392
  172SAPE  H18X19486   6.693   4.209   4.380
  172SAPE  H18Y19487   6.564   4.324   4.321
  172SAPE  H18Z19488   6.604   4.315   4.493
  173SLPC     N19489   6.042   0.111   7.041
  173SLPC   C1319490   6.038   0.230   7.128
  173SLPC  H13A19491   6.115   0.299   7.097
  173SLPC  H13B19492   5.939   0.273   7.118
  173SLPC  H13C19493   6.055   0.224   7.235
  173SLPC   C1419494   5.935   0.019   7.100
  173SLPC  H14A19495   5.936   6.749   7.049
  173SLPC  H14B19496   5.966   6.818   7.200
  173SLPC  H14C19497   5.834   0.058   7.108
  173SLPC   C1519498   6.176   0.052   7.057
  173SLPC  H15A19499   6.252   0.121   7.022
  173SLPC  H15B19500   6.196   0.028   7.160
  173SLPC  H15C19501   6.179   6.782   7.006
  173SLPC   C1219502   6.018   0.157   6.899
  173SLPC  H12A19503   6.081   0.244   6.887
  173SLPC  H12B19504   5.914   0.185   6.889
  173SLPC   C1119505   6.051   0.064   6.783
  173SLPC  H11A19506   6.155   0.025   6.787
  173SLPC  H11B19507   6.063   0.123   6.689
  173SLPC     P19508   5.999   6.635   6.744
  173SLPC   O1319509   6.088   6.577   6.847
  173SLPC   O1419510   5.882   6.555   6.711
  173SLPC   O1219511   5.958   6.781   6.775
  173SLPC   O1119512   6.094   6.661   6.615
  173SLPC    C119513   6.034   6.722   6.499
  173SLPC    HA19514   5.923   6.720   6.492
  173SLPC    HB19515   6.071   6.824   6.475
  173SLPC    C219516   6.070   6.634   6.373
  173SLPC    HS19517   6.001   6.547   6.359
  173SLPC   O2119518   6.208   6.594   6.377
  173SLPC   C2119519   6.232   6.477   6.413
  173SLPC   O2219520   6.146   6.389   6.443
  173SLPC   C2219521   6.377   6.453   6.417
  173SLPC   H2R19522   6.424   6.541   6.467
  173SLPC   H2S19523   6.396   6.378   6.496
  173SLPC    C319524   6.050   6.725   6.246
  173SLPC    HX19525   6.126   6.806   6.253
  173SLPC    HY19526   5.947   6.766   6.238
  173SLPC   O3119527   6.085   6.657   6.130
  173SLPC   C3119528   5.994   6.596   6.056
  173SLPC   O3219529   5.877   6.593   6.074
  173SLPC   C3219530   6.064   6.530   5.937
  173SLPC   H2X19531   6.099   6.427   5.958
  173SLPC   H2Y19532   6.154   6.592   5.920
  173SLPC   C2319533   6.434   6.428   6.272
  173SLPC   H3R19534   6.544   6.436   6.289
  173SLPC   H3S19535   6.414   6.516   6.207
  173SLPC   C2419536   6.396   6.293   6.214
  173SLPC   H4R19537   6.286   6.277   6.219
  173SLPC   H4S19538   6.449   6.218   6.276
  173SLPC   C2519539   6.441   6.270   6.066
  173SLPC   H5R19540   6.536   6.214   6.074
  173SLPC   H5S19541   6.468   6.366   6.018
  173SLPC   C2619542   6.338   6.192   5.988
  173SLPC   H6R19543   6.234   6.220   6.015
  173SLPC   H6S19544   6.348   6.083   6.004
  173SLPC   C2719545   6.350   6.236   5.837
  173SLPC   H7R19546   6.452   6.217   5.796
  173SLPC   H7S19547   6.323   6.341   5.816
  173SLPC   C2819548   6.234   6.170   5.752
  173SLPC   H8R19549   6.228   6.232   5.660
  173SLPC   H8S19550   6.139   6.180   5.807
  173SLPC   C2919551   6.255   6.024   5.725
  173SLPC   H9R19552   6.228   5.954   5.805
  173SLPC  C21019553   6.281   5.966   5.607
  173SLPC  H10R19554   6.285   5.857   5.589
  173SLPC  C21119555   6.332   6.031   5.485
  173SLPC  H11R19556   6.314   6.141   5.482
  173SLPC  H11S19557   6.271   5.994   5.401
  173SLPC  C21219558   6.478   5.987   5.461
  173SLPC  H12R19559   6.547   6.030   5.535
  173SLPC  C21319560   6.525   5.891   5.381
  173SLPC  H13R19561   6.634   5.875   5.379
  173SLPC  C21419562   6.453   5.797   5.285
  173SLPC  H14R19563   6.345   5.792   5.309
  173SLPC  H14S19564   6.489   5.695   5.309
  173SLPC  C21519565   6.470   5.838   5.138
  173SLPC  H15R19566   6.440   5.945   5.131
  173SLPC  H15S19567   6.400   5.781   5.072
  173SLPC  C21619568   6.615   5.825   5.090
  173SLPC  H16R19569   6.652   5.724   5.119
  173SLPC  H16S19570   6.674   5.898   5.148
  173SLPC  C21719571   6.630   5.845   4.936
  173SLPC  H17R19572   6.599   5.951   4.919
  173SLPC  H17S19573   6.558   5.783   4.877
  173SLPC  C21819574   6.769   5.829   4.883
  173SLPC  H18R19575   0.002   5.891   4.954
  173SLPC  H18S19576   6.781   5.865   4.778
  173SLPC  H18T19577   6.808   5.725   4.885
  173SLPC   C3319578   5.985   6.544   5.806
  173SLPC   H3X19579   5.940   6.645   5.794
  173SLPC   H3Y19580   5.906   6.466   5.807
  173SLPC   C3419581   6.069   6.521   5.682
  173SLPC   H4X19582   6.131   6.429   5.689
  173SLPC   H4Y19583   6.143   6.604   5.675
  173SLPC   C3519584   5.986   6.536   5.560
  173SLPC   H5X19585   5.946   6.639   5.568
  173SLPC   H5Y19586   5.901   6.467   5.580
  173SLPC   C3619587   6.048   6.487   5.431
  173SLPC   H6X19588   6.063   6.379   5.453
  173SLPC   H6Y19589   6.137   6.552   5.415
  173SLPC   C3719590   5.941   6.505   5.318
  173SLPC   H7X19591   5.846   6.465   5.359
  173SLPC   H7Y19592   5.964   6.444   5.229
  173SLPC   C3819593   5.921   6.648   5.264
  173SLPC   H8X19594   6.012   6.687   5.213
  173SLPC   H8Y19595   5.900   6.719   5.347
  173SLPC   C3919596   5.814   6.646   5.148
  173SLPC   H9X19597   5.716   6.647   5.201
  173SLPC   H9Y19598   5.826   6.557   5.082
  173SLPC  C31019599   5.817   6.774   5.056
  173SLPC  H10X19600   5.910   6.789   4.996
  173SLPC  H10Y19601   5.809   0.043   5.115
  173SLPC  C31119602   5.695   6.779   4.958
  173SLPC  H11X19603   5.600   6.794   5.014
  173SLPC  H11Y19604   5.686   6.683   4.903
  173SLPC  C31219605   5.709   0.056   4.842
  173SLPC  H12X19606   5.802   0.030   4.788
  173SLPC  H12Y19607   5.716   0.157   4.887
  173SLPC  C31319608   5.587   0.053   4.746
  173SLPC  H13X19609   5.581   6.782   4.689
  173SLPC  H13Y19610   5.613   0.137   4.678
  173SLPC  C31419611   5.452   0.083   4.812
  173SLPC  H14X19612   5.472   0.174   4.872
  173SLPC  H14Y19613   5.418   6.824   4.875
  173SLPC  C31519614   5.333   0.120   4.723
  173SLPC  H15X19615   5.293   0.037   4.659
  173SLPC  H15Y19616   5.378   0.184   4.644
  173SLPC  C31619617   5.217   0.173   4.810
  173SLPC  H16X19618   5.257   0.226   4.899
  173SLPC  H16Y19619   5.166   0.085   4.854
  173SLPC  C31719620   5.119   0.261   4.733
  173SLPC  H17X19621   5.019   0.259   4.783
  173SLPC  H17Y19622   5.110   0.230   4.627
  173SLPC  C31819623   5.164   0.408   4.723
  173SLPC  H18X19624   5.179   0.454   4.823
  173SLPC  H18Y19625   5.081   0.466   4.678
  173SLPC  H18Z19626   5.264   0.420   4.678
  174SLPC     N19627   3.700   1.816   7.027
  174SLPC   C1319628   3.737   1.892   7.148
  174SLPC  H13A19629   3.748   1.843   7.244
  174SLPC  H13B19630   3.834   1.938   7.150
  174SLPC  H13C19631   3.671   1.977   7.163
  174SLPC   C1419632   3.798   1.704   7.014
  174SLPC  H14A19633   3.800   1.659   6.915
  174SLPC  H14B19634   3.899   1.742   7.022
  174SLPC  H14C19635   3.783   1.634   7.095
  174SLPC   C1519636   3.709   1.912   6.909
  174SLPC  H15A19637   3.632   1.987   6.918
  174SLPC  H15B19638   3.797   1.974   6.915
  174SLPC  H15C19639   3.688   1.859   6.817
  174SLPC   C1219640   3.552   1.763   7.042
  174SLPC  H12A19641   3.511   1.705   6.960
  174SLPC  H12B19642   3.489   1.849   7.058
  174SLPC   C1119643   3.523   1.673   7.168
  174SLPC  H11A19644   3.414   1.656   7.162
  174SLPC  H11B19645   3.542   1.724   7.265
  174SLPC     P19646   3.544   1.443   7.064
  174SLPC   O1319647   3.660   1.373   7.001
  174SLPC   O1419648   3.439   1.365   7.131
  174SLPC   O1219649   3.596   1.550   7.164
  174SLPC   O1119650   3.473   1.514   6.942
  174SLPC    C119651   3.542   1.531   6.819
  174SLPC    HA19652   3.627   1.603   6.826
  174SLPC    HB19653   3.583   1.440   6.770
  174SLPC    C219654   3.443   1.602   6.712
  174SLPC    HS19655   3.339   1.573   6.739
  174SLPC   O2119656   3.469   1.547   6.582
  174SLPC   C2119657   3.364   1.510   6.496
  174SLPC   O2219658   3.248   1.518   6.531
  174SLPC   C2219659   3.414   1.439   6.368
  174SLPC   H2R19660   3.491   1.364   6.397
  174SLPC   H2S19661   3.322   1.384   6.339
  174SLPC    C319662   3.444   1.754   6.699
  174SLPC    HX19663   3.424   1.805   6.796
  174SLPC    HY19664   3.363   1.781   6.628
  174SLPC   O3119665   3.572   1.789   6.646
  174SLPC   C3119666   3.578   1.831   6.521
  174SLPC   O3219667   3.477   1.836   6.447
  174SLPC   C3219668   3.730   1.847   6.488
  174SLPC   H2X19669   3.775   1.750   6.460
  174SLPC   H2Y19670   3.772   1.884   6.585
  174SLPC   C2319671   3.453   1.551   6.266
  174SLPC   H3R19672   3.563   1.561   6.278
  174SLPC   H3S19673   3.403   1.647   6.288
  174SLPC   C2419674   3.413   1.503   6.125
  174SLPC   H4R19675   3.303   1.488   6.120
  174SLPC   H4S19676   3.464   1.406   6.106
  174SLPC   C2519677   3.466   1.600   6.022
  174SLPC   H5R19678   3.568   1.626   6.057
  174SLPC   H5S19679   3.414   1.697   6.036
  174SLPC   C2619680   3.457   1.539   5.884
  174SLPC   H6R19681   3.349   1.517   5.874
  174SLPC   H6S19682   3.510   1.442   5.877
  174SLPC   C2719683   3.520   1.636   5.785
  174SLPC   H7R19684   3.626   1.649   5.818
  174SLPC   H7S19685   3.465   1.733   5.784
  174SLPC   C2819686   3.532   1.587   5.639
  174SLPC   H8R19687   3.436   1.538   5.612
  174SLPC   H8S19688   3.608   1.506   5.647
  174SLPC   C2919689   3.569   1.692   5.536
  174SLPC   H9R19690   3.642   1.768   5.566
  174SLPC  C21019691   3.513   1.707   5.416
  174SLPC  H10R19692   3.544   1.793   5.355
  174SLPC  C21119693   3.404   1.623   5.350
  174SLPC  H11R19694   3.324   1.682   5.303
  174SLPC  H11S19695   3.354   1.560   5.427
  174SLPC  C21219696   3.475   1.535   5.250
  174SLPC  H12R19697   3.527   1.445   5.285
  174SLPC  C21319698   3.493   1.567   5.119
  174SLPC  H13R19699   3.549   1.500   5.052
  174SLPC  C21419700   3.451   1.696   5.044
  174SLPC  H14R19701   3.487   1.774   5.114
  174SLPC  H14S19702   3.340   1.709   5.043
  174SLPC  C21519703   3.514   1.713   4.903
  174SLPC  H15R19704   3.623   1.699   4.918
  174SLPC  H15S19705   3.499   1.814   4.859
  174SLPC  C21619706   3.456   1.623   4.801
  174SLPC  H16R19707   3.348   1.647   4.804
  174SLPC  H16S19708   3.459   1.516   4.830
  174SLPC  C21719709   3.513   1.638   4.656
  174SLPC  H17R19710   3.495   1.744   4.628
  174SLPC  H17S19711   3.451   1.581   4.585
  174SLPC  C21819712   3.664   1.603   4.641
  174SLPC  H18R19713   3.678   1.504   4.691
  174SLPC  H18S19714   3.723   1.687   4.682
  174SLPC  H18T19715   3.694   1.594   4.535
  174SLPC   C3319716   3.756   1.946   6.373
  174SLPC   H3X19717   3.867   1.954   6.376
  174SLPC   H3Y19718   3.705   2.044   6.386
  174SLPC   C3419719   3.740   1.882   6.232
  174SLPC   H4X19720   3.632   1.865   6.215
  174SLPC   H4Y19721   3.793   1.785   6.236
  174SLPC   C3519722   3.803   1.965   6.116
  174SLPC   H5X19723   3.907   2.004   6.124
  174SLPC   H5Y19724   3.729   2.043   6.089
  174SLPC   C3619725   3.804   1.881   5.987
  174SLPC   H6X19726   3.705   1.830   5.983
  174SLPC   H6Y19727   3.882   1.803   5.996
  174SLPC   C3719728   3.840   1.962   5.874
  174SLPC   H7X19729   3.926   2.027   5.904
  174SLPC   H7Y19730   3.757   2.034   5.858
  174SLPC   C3819731   3.859   1.872   5.750
  174SLPC   H8X19732   3.776   1.799   5.741
  174SLPC   H8Y19733   3.954   1.816   5.761
  174SLPC   C3919734   3.883   1.951   5.619
  174SLPC   H9X19735   3.915   1.886   5.534
  174SLPC   H9Y19736   3.967   2.023   5.631
  174SLPC  C31019737   3.760   2.031   5.568
  174SLPC  H10X19738   3.746   2.117   5.637
  174SLPC  H10Y19739   3.671   1.964   5.574
  174SLPC  C31119740   3.770   2.092   5.430
  174SLPC  H11X19741   3.844   2.175   5.430
  174SLPC  H11Y19742   3.676   2.150   5.416
  174SLPC  C31219743   3.780   2.006   5.302
  174SLPC  H12X19744   3.684   1.951   5.288
  174SLPC  H12Y19745   3.866   1.940   5.324
  174SLPC  C31319746   3.827   2.076   5.171
  174SLPC  H13X19747   3.933   2.106   5.185
  174SLPC  H13Y19748   3.763   2.163   5.145
  174SLPC  C31419749   3.826   1.983   5.052
  174SLPC  H14X19750   3.748   1.904   5.057
  174SLPC  H14Y19751   3.924   1.929   5.049
  174SLPC  C31519752   3.813   2.053   4.909
  174SLPC  H15X19753   3.918   2.085   4.887
  174SLPC  H15Y19754   3.755   2.147   4.920
  174SLPC  C31619755   3.777   1.969   4.791
  174SLPC  H16X19756   3.678   1.919   4.785
  174SLPC  H16Y19757   3.840   1.878   4.784
  174SLPC  C31719758   3.785   2.044   4.660
  174SLPC  H17X19759   3.891   2.077   4.655
  174SLPC  H17Y19760   3.715   2.130   4.672
  174SLPC  C31819761   3.767   1.973   4.531
  174SLPC  H18X19762   3.863   1.919   4.524
  174SLPC  H18Y19763   3.763   2.047   4.448
  174SLPC  H18Z19764   3.682   1.901   4.527
  175SLPC     N19765   6.515   2.276   6.999
  175SLPC   C1319766   6.390   2.306   7.078
  175SLPC  H13A19767   6.311   2.351   7.019
  175SLPC  H13B19768   6.355   2.230   7.146
  175SLPC  H13C19769   6.407   2.399   7.130
  175SLPC   C1419770   6.510   2.132   6.951
  175SLPC  H14A19771   6.417   2.118   6.897
  175SLPC  H14B19772   6.584   2.119   6.874
  175SLPC  H14C19773   6.519   2.062   7.032
  175SLPC   C1519774   6.625   2.286   7.093
  175SLPC  H15A19775   6.625   2.376   7.152
  175SLPC  H15B19776   6.620   2.204   7.164
  175SLPC  H15C19777   6.719   2.279   7.042
  175SLPC   C1219778   6.520   2.370   6.876
  175SLPC  H12A19779   6.427   2.360   6.821
  175SLPC  H12B19780   6.597   2.320   6.819
  175SLPC   C1119781   6.560   2.517   6.907
  175SLPC  H11A19782   6.601   2.566   6.816
  175SLPC  H11B19783   6.648   2.526   6.975
  175SLPC     P19784   6.393   2.716   6.906
  175SLPC   O1319785   6.259   2.751   6.963
  175SLPC   O1419786   6.505   2.807   6.915
  175SLPC   O1219787   6.443   2.582   6.964
  175SLPC   O1119788   6.369   2.679   6.758
  175SLPC    C119789   6.297   2.570   6.716
  175SLPC    HA19790   6.367   2.507   6.658
  175SLPC    HB19791   6.256   2.511   6.801
  175SLPC    C219792   6.177   2.618   6.631
  175SLPC    HS19793   6.131   2.530   6.582
  175SLPC   O2119794   6.223   2.696   6.518
  175SLPC   C2119795   6.270   2.624   6.415
  175SLPC   O2219796   6.272   2.503   6.404
  175SLPC   C2219797   6.339   2.718   6.315
  175SLPC   H2R19798   6.318   2.825   6.338
  175SLPC   H2S19799   6.447   2.695   6.308
  175SLPC    C319800   6.070   2.703   6.709
  175SLPC    HX19801   6.117   2.783   6.771
  175SLPC    HY19802   6.021   2.643   6.788
  175SLPC   O3119803   5.969   2.748   6.618
  175SLPC   C3119804   5.975   2.872   6.575
  175SLPC   O3219805   6.039   2.963   6.621
  175SLPC   C3219806   5.874   2.887   6.460
  175SLPC   H2X19807   5.840   2.993   6.463
  175SLPC   H2Y19808   5.802   2.804   6.474
  175SLPC   C2319809   6.270   2.701   6.175
  175SLPC   H3R19810   6.159   2.702   6.174
  175SLPC   H3S19811   6.304   2.601   6.140
  175SLPC   C2419812   6.319   2.804   6.079
  175SLPC   H4R19813   6.429   2.817   6.079
  175SLPC   H4S19814   6.262   2.897   6.099
  175SLPC   C2519815   6.284   2.754   5.933
  175SLPC   H5R19816   6.184   2.704   5.932
  175SLPC   H5S19817   6.355   2.672   5.913
  175SLPC   C2619818   6.304   2.862   5.828
  175SLPC   H6R19819   6.400   2.911   5.854
  175SLPC   H6S19820   6.235   2.948   5.841
  175SLPC   C2719821   6.284   2.803   5.688
  175SLPC   H7R19822   6.203   2.727   5.680
  175SLPC   H7S19823   6.374   2.742   5.664
  175SLPC   C2819824   6.276   2.911   5.579
  175SLPC   H8R19825   6.303   2.858   5.485
  175SLPC   H8S19826   6.346   2.996   5.596
  175SLPC   C2919827   6.143   2.970   5.569
  175SLPC   H9R19828   6.110   3.007   5.667
  175SLPC  C21019829   6.066   2.981   5.463
  175SLPC  H10R19830   5.970   3.032   5.475
  175SLPC  C21119831   6.099   2.941   5.319
  175SLPC  H11R19832   6.095   2.832   5.298
  175SLPC  H11S19833   6.197   2.980   5.283
  175SLPC  C21219834   6.006   3.012   5.221
  175SLPC  H12R19835   5.960   3.106   5.254
  175SLPC  C21319836   5.972   2.957   5.103
  175SLPC  H13R19837   5.912   3.012   5.028
  175SLPC  C21419838   6.009   2.824   5.043
  175SLPC  H14R19839   5.930   2.785   4.976
  175SLPC  H14S19840   6.021   2.755   5.130
  175SLPC  C21519841   6.140   2.826   4.958
  175SLPC  H15R19842   6.157   2.717   4.943
  175SLPC  H15S19843   6.218   2.861   5.028
  175SLPC  C21619844   6.139   2.909   4.829
  175SLPC  H16R19845   6.245   2.921   4.796
  175SLPC  H16S19846   6.104   3.014   4.840
  175SLPC  C21719847   6.058   2.853   4.717
  175SLPC  H17R19848   5.971   2.805   4.765
  175SLPC  H17S19849   6.118   2.777   4.661
  175SLPC  C21819850   6.011   2.968   4.618
  175SLPC  H18R19851   6.097   3.005   4.558
  175SLPC  H18S19852   5.957   3.046   4.676
  175SLPC  H18T19853   5.933   2.938   4.544
  175SLPC   C3319854   5.935   2.861   6.326
  175SLPC   H3X19855   5.977   2.758   6.329
  175SLPC   H3Y19856   6.018   2.929   6.300
  175SLPC   C3419857   5.841   2.895   6.210
  175SLPC   H4X19858   5.834   3.006   6.208
  175SLPC   H4Y19859   5.741   2.859   6.240
  175SLPC   C3519860   5.886   2.837   6.076
  175SLPC   H5X19861   5.887   2.726   6.080
  175SLPC   H5Y19862   5.982   2.881   6.040
  175SLPC   C3619863   5.775   2.859   5.975
  175SLPC   H6X19864   5.745   2.966   5.974
  175SLPC   H6Y19865   5.686   2.801   6.009
  175SLPC   C3719866   5.812   2.813   5.835
  175SLPC   H7X19867   5.849   2.708   5.831
  175SLPC   H7Y19868   5.900   2.873   5.803
  175SLPC   C3819869   5.703   2.845   5.738
  175SLPC   H8X19870   5.680   2.954   5.732
  175SLPC   H8Y19871   5.620   2.792   5.789
  175SLPC   C3919872   5.723   2.794   5.597
  175SLPC   H9X19873   5.705   2.685   5.585
  175SLPC   H9Y19874   5.830   2.817   5.578
  175SLPC  C31019875   5.634   2.874   5.504
  175SLPC  H10X19876   5.672   2.978   5.513
  175SLPC  H10Y19877   5.532   2.878   5.548
  175SLPC  C31119878   5.661   2.828   5.360
  175SLPC  H11X19879   5.642   2.718   5.358
  175SLPC  H11Y19880   5.770   2.841   5.342
  175SLPC  C31219881   5.561   2.894   5.269
  175SLPC  H12X19882   5.569   3.005   5.265
  175SLPC  H12Y19883   5.457   2.866   5.298
  175SLPC  C31319884   5.578   2.841   5.125
  175SLPC  H13X19885   5.682   2.862   5.092
  175SLPC  H13Y19886   5.512   2.918   5.078
  175SLPC  C31419887   5.520   2.701   5.099
  175SLPC  H14X19888   5.430   2.692   5.163
  175SLPC  H14Y19889   5.585   2.626   5.150
  175SLPC  C31519890   5.495   2.665   4.952
  175SLPC  H15X19891   5.431   2.736   4.895
  175SLPC  H15Y19892   5.429   2.576   4.967
  175SLPC  C31619893   5.620   2.625   4.872
  175SLPC  H16X19894   5.685   2.553   4.925
  175SLPC  H16Y19895   5.685   2.715   4.865
  175SLPC  C31719896   5.587   2.571   4.734
  175SLPC  H17X19897   5.535   2.660   4.691
  175SLPC  H17Y19898   5.519   2.484   4.741
  175SLPC  C31819899   5.715   2.542   4.661
  175SLPC  H18X19900   5.723   2.594   4.563
  175SLPC  H18Y19901   5.711   2.433   4.640
  175SLPC  H18Z19902   5.805   2.558   4.724
  176SLPC     N19903   5.537   6.744   6.669
  176SLPC   C1319904   5.446   6.719   6.791
  176SLPC  H13A19905   5.352   6.674   6.763
  176SLPC  H13B19906   5.495   6.672   6.875
  176SLPC  H13C19907   5.423   6.821   6.818
  176SLPC   C1419908   5.470   0.013   6.574
  176SLPC  H14A19909   5.381   6.804   6.523
  176SLPC  H14B19910   5.455   0.109   6.621
  176SLPC  H14C19911   5.536   0.047   6.496
  176SLPC   C1519912   5.568   6.609   6.609
  176SLPC  H15A19913   5.473   6.560   6.592
  176SLPC  H15B19914   5.619   6.616   6.514
  176SLPC  H15C19915   5.636   6.552   6.671
  176SLPC   C1219916   5.671   6.803   6.721
  176SLPC  H12A19917   5.733   0.015   6.641
  176SLPC  H12B19918   5.719   6.716   6.763
  176SLPC   C1119919   5.658   0.091   6.826
  176SLPC  H11A19920   5.743   0.118   6.893
  176SLPC  H11B19921   5.599   0.046   6.909
  176SLPC     P19922   5.672   0.315   6.710
  176SLPC   O1319923   5.581   0.423   6.666
  176SLPC   O1419924   5.785   0.364   6.792
  176SLPC   O1219925   5.583   0.207   6.784
  176SLPC   O1119926   5.734   0.246   6.582
  176SLPC    C119927   5.866   0.285   6.542
  176SLPC    HA19928   5.922   0.351   6.612
  176SLPC    HB19929   5.924   0.192   6.524
  176SLPC    C219930   5.839   0.365   6.414
  176SLPC    HS19931   5.937   0.389   6.368
  176SLPC   O2119932   5.780   0.492   6.464
  176SLPC   C2119933   5.867   0.578   6.516
  176SLPC   O2219934   5.987   0.568   6.526
  176SLPC   C2219935   5.793   0.705   6.560
  176SLPC   H2R19936   5.684   0.689   6.550
  176SLPC   H2S19937   5.813   0.723   6.668
  176SLPC    C319938   5.743   0.291   6.327
  176SLPC    HX19939   5.642   0.277   6.371
  176SLPC    HY19940   5.781   0.187   6.324
  176SLPC   O3119941   5.734   0.343   6.193
  176SLPC   C3119942   5.640   0.436   6.164
  176SLPC   O3219943   5.570   0.484   6.246
  176SLPC   C3219944   5.639   0.469   6.009
  176SLPC   H2X19945   5.571   0.556   6.003
  176SLPC   H2Y19946   5.581   0.388   5.961
  176SLPC   C2319947   5.844   0.829   6.491
  176SLPC   H3R19948   5.955   0.833   6.495
  176SLPC   H3S19949   5.797   0.922   6.531
  176SLPC   C2419950   5.819   0.822   6.339
  176SLPC   H4R19951   5.709   0.819   6.322
  176SLPC   H4S19952   5.845   0.724   6.294
  176SLPC   C2519953   5.889   0.940   6.268
  176SLPC   H5R19954   5.984   0.959   6.322
  176SLPC   H5S19955   5.824   1.029   6.283
  176SLPC   C2619956   5.926   0.920   6.119
  176SLPC   H6R19957   5.962   0.816   6.106
  176SLPC   H6S19958   6.014   0.977   6.082
  176SLPC   C2719959   5.797   0.950   6.027
  176SLPC   H7R19960   5.769   1.057   6.030
  176SLPC   H7S19961   5.713   0.892   6.071
  176SLPC   C2819962   5.818   0.913   5.875
  176SLPC   H8R19963   5.720   0.899   5.824
  176SLPC   H8S19964   5.875   0.817   5.880
  176SLPC   C2919965   5.899   1.015   5.797
  176SLPC   H9R19966   5.850   1.113   5.784
  176SLPC  C21019967   6.029   1.002   5.756
  176SLPC  H10R19968   6.073   1.078   5.690
  176SLPC  C21119969   6.125   0.883   5.772
  176SLPC  H11R19970   6.118   0.845   5.875
  176SLPC  H11S19971   6.229   0.922   5.766
  176SLPC  C21219972   6.107   0.782   5.669
  176SLPC  H12R19973   6.001   0.764   5.648
  176SLPC  C21319974   6.198   0.706   5.622
  176SLPC  H13R19975   6.173   0.630   5.546
  176SLPC  C21419976   6.345   0.686   5.665
  176SLPC  H14R19977   6.363   0.743   5.758
  176SLPC  H14S19978   6.414   0.725   5.587
  176SLPC  C21519979   6.357   0.541   5.708
  176SLPC  H15R19980   6.310   0.478   5.630
  176SLPC  H15S19981   6.292   0.526   5.797
  176SLPC  C21619982   6.502   0.505   5.748
  176SLPC  H16R19983   6.528   0.577   5.828
  176SLPC  H16S19984   6.569   0.529   5.663
  176SLPC  C21719985   6.506   0.355   5.783
  176SLPC  H17R19986   6.435   0.327   5.863
  176SLPC  H17S19987   6.603   0.330   5.832
  176SLPC  C21819988   6.491   0.278   5.651
  176SLPC  H18R19989   6.525   0.173   5.667
  176SLPC  H18S19990   6.558   0.331   5.579
  176SLPC  H18T19991   6.385   0.279   5.621
  176SLPC   C3319992   5.781   0.496   5.949
  176SLPC   H3X19993   5.846   0.407   5.964
  176SLPC   H3Y19994   5.830   0.571   6.015
  176SLPC   C3419995   5.794   0.553   5.808
  176SLPC   H4X19996   5.900   0.547   5.776
  176SLPC   H4Y19997   5.747   0.653   5.807
  176SLPC   C3519998   5.719   0.467   5.709
  176SLPC   H5X19999   5.610   0.464   5.730
  176SLPC   H5Y20000   5.764   0.366   5.718
  176SLPC   C3620001   5.745   0.515   5.560
  176SLPC   H6X20002   5.701   0.438   5.494
  176SLPC   H6Y20003   5.851   0.506   5.529
  176SLPC   C3720004   5.681   0.650   5.521
  176SLPC   H7X20005   5.736   0.678   5.429
  176SLPC   H7Y20006   5.694   0.723   5.604
  176SLPC   C3820007   5.533   0.628   5.496
  176SLPC   H8X20008   5.491   0.580   5.587
  176SLPC   H8Y20009   5.526   0.559   5.409
  176SLPC   C3920010   5.448   0.754   5.466
  176SLPC   H9X20011   5.440   0.811   5.561
  176SLPC   H9Y20012   5.348   0.724   5.429
  176SLPC  C31020013   5.514   0.837   5.360
  176SLPC  H10X20014   5.538   0.758   5.286
  176SLPC  H10Y20015   5.608   0.879   5.401
  176SLPC  C31120016   5.433   0.949   5.294
  176SLPC  H11X20017   5.395   1.019   5.372
  176SLPC  H11Y20018   5.339   0.906   5.253
  176SLPC  C31220019   5.508   1.028   5.198
  176SLPC  H12X20020   5.607   1.048   5.244
  176SLPC  H12Y20021   5.463   1.127   5.176
  176SLPC  C31320022   5.529   0.948   5.067
  176SLPC  H13X20023   5.436   0.901   5.029
  176SLPC  H13Y20024   5.600   0.866   5.092
  176SLPC  C31420025   5.596   1.037   4.959
  176SLPC  H14X20026   5.690   1.074   5.005
  176SLPC  H14Y20027   5.526   1.122   4.941
  176SLPC  C31520028   5.628   0.966   4.827
  176SLPC  H15X20029   5.546   0.895   4.804
  176SLPC  H15Y20030   5.720   0.906   4.844
  176SLPC  C31620031   5.641   1.080   4.725
  176SLPC  H16X20032   5.702   1.048   4.638
  176SLPC  H16Y20033   5.684   1.172   4.771
  176SLPC  C31720034   5.492   1.110   4.679
  176SLPC  H17X20035   5.420   1.106   4.763
  176SLPC  H17Y20036   5.464   1.030   4.607
  176SLPC  C31820037   5.474   1.241   4.602
  176SLPC  H18X20038   5.501   1.240   4.494
  176SLPC  H18Y20039   5.534   1.326   4.642
  176SLPC  H18Z20040   5.369   1.277   4.603
  177SLPC     N20041   6.259   1.416   7.153
  177SLPC   C1320042   6.149   1.429   7.263
  177SLPC  H13A20043   6.096   1.335   7.268
  177SLPC  H13B20044   6.186   1.463   7.358
  177SLPC  H13C20045   6.081   1.508   7.232
  177SLPC   C1420046   6.363   1.325   7.208
  177SLPC  H14A20047   6.442   1.300   7.138
  177SLPC  H14B20048   6.416   1.378   7.286
  177SLPC  H14C20049   6.316   1.243   7.259
  177SLPC   C1520050   6.327   1.553   7.139
  177SLPC  H15A20051   6.248   1.621   7.109
  177SLPC  H15B20052   6.355   1.589   7.237
  177SLPC  H15C20053   6.409   1.552   7.069
  177SLPC   C1220054   6.199   1.355   7.024
  177SLPC  H12A20055   6.275   1.372   6.949
  177SLPC  H12B20056   6.109   1.410   7.003
  177SLPC   C1120057   6.157   1.203   7.022
  177SLPC  H11A20058   6.245   1.139   7.044
  177SLPC  H11B20059   6.133   1.179   6.917
  177SLPC     P20060   5.899   1.196   7.053
  177SLPC   O1320061   5.839   1.065   7.013
  177SLPC   O1420062   5.833   1.280   7.158
  177SLPC   O1220063   6.048   1.172   7.112
  177SLPC   O1120064   5.902   1.289   6.927
  177SLPC    C120065   5.836   1.244   6.808
  177SLPC    HA20066   5.882   1.152   6.767
  177SLPC    HB20067   5.734   1.213   6.839
  177SLPC    C220068   5.829   1.358   6.691
  177SLPC    HS20069   5.783   1.450   6.731
  177SLPC   O2120070   5.749   1.307   6.584
  177SLPC   C2120071   5.712   1.385   6.491
  177SLPC   O2220072   5.728   1.509   6.490
  177SLPC   C2220073   5.656   1.300   6.378
  177SLPC   H2R20074   5.727   1.214   6.376
  177SLPC   H2S20075   5.567   1.264   6.434
  177SLPC    C320076   5.980   1.384   6.649
  177SLPC    HX20077   6.025   1.288   6.616
  177SLPC    HY20078   6.037   1.405   6.742
  177SLPC   O3120079   5.999   1.468   6.535
  177SLPC   C3120080   6.027   1.593   6.565
  177SLPC   O3220081   6.036   1.640   6.670
  177SLPC   C3220082   6.072   1.660   6.429
  177SLPC   H2X20083   6.007   1.611   6.353
  177SLPC   H2Y20084   6.175   1.627   6.401
  177SLPC   C2320085   5.636   1.369   6.251
  177SLPC   H3R20086   5.738   1.400   6.220
  177SLPC   H3S20087   5.588   1.466   6.277
  177SLPC   C2420088   5.560   1.290   6.144
  177SLPC   H4R20089   5.455   1.276   6.179
  177SLPC   H4S20090   5.609   1.193   6.123
  177SLPC   C2520091   5.567   1.365   6.009
  177SLPC   H5R20092   5.673   1.381   5.979
  177SLPC   H5S20093   5.526   1.469   6.008
  177SLPC   C2620094   5.484   1.289   5.892
  177SLPC   H6R20095   5.376   1.297   5.918
  177SLPC   H6S20096   5.516   1.183   5.884
  177SLPC   C2720097   5.509   1.354   5.761
  177SLPC   H7R20098   5.620   1.363   5.761
  177SLPC   H7S20099   5.472   1.459   5.765
  177SLPC   C2820100   5.447   1.290   5.636
  177SLPC   H8R20101   5.445   1.372   5.561
  177SLPC   H8S20102   5.344   1.251   5.647
  177SLPC   C2920103   5.543   1.178   5.593
  177SLPC   H9R20104   5.515   1.078   5.630
  177SLPC  C21020105   5.653   1.179   5.514
  177SLPC  H10R20106   5.696   1.080   5.493
  177SLPC  C21120107   5.717   1.297   5.452
  177SLPC  H11R20108   5.821   1.261   5.437
  177SLPC  H11S20109   5.726   1.383   5.521
  177SLPC  C21220110   5.650   1.334   5.320
  177SLPC  H12R20111   5.548   1.373   5.334
  177SLPC  C21320112   5.706   1.340   5.193
  177SLPC  H13R20113   5.645   1.367   5.106
  177SLPC  C21420114   5.850   1.306   5.169
  177SLPC  H14R20115   5.857   1.198   5.193
  177SLPC  H14S20116   5.927   1.358   5.230
  177SLPC  C21520117   5.893   1.312   5.024
  177SLPC  H15R20118   5.931   1.412   4.993
  177SLPC  H15S20119   5.802   1.309   4.959
  177SLPC  C21620120   6.001   1.207   4.986
  177SLPC  H16R20121   5.977   1.111   5.035
  177SLPC  H16S20122   6.095   1.242   5.033
  177SLPC  C21720123   6.003   1.173   4.840
  177SLPC  H17R20124   5.898   1.146   4.817
  177SLPC  H17S20125   6.067   1.085   4.818
  177SLPC  C21820126   6.032   1.287   4.742
  177SLPC  H18R20127   5.986   1.257   4.645
  177SLPC  H18S20128   6.138   1.321   4.736
  177SLPC  H18T20129   5.972   1.371   4.780
  177SLPC   C3320130   6.063   1.815   6.422
  177SLPC   H3X20131   6.096   1.856   6.520
  177SLPC   H3Y20132   5.959   1.855   6.416
  177SLPC   C3420133   6.153   1.875   6.311
  177SLPC   H4X20134   6.259   1.849   6.334
  177SLPC   H4Y20135   6.151   1.986   6.316
  177SLPC   C3520136   6.115   1.836   6.170
  177SLPC   H5X20137   6.004   1.828   6.161
  177SLPC   H5Y20138   6.144   1.731   6.149
  177SLPC   C3620139   6.169   1.928   6.058
  177SLPC   H6X20140   6.280   1.926   6.069
  177SLPC   H6Y20141   6.121   2.028   6.065
  177SLPC   C3720142   6.163   1.869   5.913
  177SLPC   H7X20143   6.060   1.831   5.898
  177SLPC   H7Y20144   6.245   1.794   5.912
  177SLPC   C3820145   6.188   1.968   5.800
  177SLPC   H8X20146   6.283   2.021   5.821
  177SLPC   H8Y20147   6.101   2.036   5.816
  177SLPC   C3920148   6.187   1.906   5.666
  177SLPC   H9X20149   6.112   1.829   5.639
  177SLPC   H9Y20150   6.289   1.863   5.662
  177SLPC  C31020151   6.178   2.012   5.553
  177SLPC  H10X20152   6.226   2.106   5.588
  177SLPC  H10Y20153   6.070   2.031   5.532
  177SLPC  C31120154   6.253   1.973   5.421
  177SLPC  H11X20155   6.225   1.870   5.388
  177SLPC  H11Y20156   6.363   1.975   5.438
  177SLPC  C31220157   6.201   2.052   5.302
  177SLPC  H12X20158   6.223   2.160   5.316
  177SLPC  H12Y20159   6.091   2.049   5.293
  177SLPC  C31320160   6.266   2.007   5.169
  177SLPC  H13X20161   6.279   1.897   5.176
  177SLPC  H13Y20162   6.359   2.068   5.162
  177SLPC  C31420163   6.182   2.032   5.046
  177SLPC  H14X20164   6.096   1.964   5.064
  177SLPC  H14Y20165   6.240   1.995   4.959
  177SLPC  C31520166   6.149   2.178   5.027
  177SLPC  H15X20167   6.239   2.242   5.016
  177SLPC  H15Y20168   6.099   2.226   5.114
  177SLPC  C31620169   6.051   2.218   4.910
  177SLPC  H16X20170   5.977   2.290   4.948
  177SLPC  H16Y20171   5.994   2.126   4.884
  177SLPC  C31720172   6.113   2.282   4.794
  177SLPC  H17X20173   6.188   2.211   4.751
  177SLPC  H17Y20174   6.178   2.369   4.821
  177SLPC  C31820175   6.013   2.338   4.697
  177SLPC  H18X20176   5.961   2.422   4.747
  177SLPC  H18Y20177   5.943   2.258   4.665
  177SLPC  H18Z20178   6.070   2.383   4.613
  178SLPC     N20179   2.776   6.508   6.896
  178SLPC   C1320180   2.878   6.403   6.869
  178SLPC  H13A20181   2.877   6.338   6.955
  178SLPC  H13B20182   2.872   6.340   6.781
  178SLPC  H13C20183   2.978   6.443   6.856
  178SLPC   C1420184   2.767   6.592   6.769
  178SLPC  H14A20185   2.701   6.676   6.779
  178SLPC  H14B20186   2.856   6.648   6.742
  178SLPC  H14C20187   2.749   6.531   6.682
  178SLPC   C1520188   2.813   6.584   7.021
  178SLPC  H15A20189   2.905   6.638   7.001
  178SLPC  H15B20190   2.738   6.654   7.055
  178SLPC  H15C20191   2.828   6.513   7.101
  178SLPC   C1220192   2.636   6.454   6.911
  178SLPC  H12A20193   2.571   6.530   6.951
  178SLPC  H12B20194   2.657   6.384   6.990
  178SLPC   C1120195   2.562   6.382   6.788
  178SLPC  H11A20196   2.519   6.462   6.724
  178SLPC  H11B20197   2.466   6.339   6.823
  178SLPC     P20198   2.653   6.147   6.764
  178SLPC   O1320199   2.784   6.097   6.719
  178SLPC   O1420200   2.619   6.146   6.906
  178SLPC   O1220201   2.645   6.290   6.717
  178SLPC   O1120202   2.540   6.067   6.682
  178SLPC    C120203   2.584   5.996   6.560
  178SLPC    HA20204   2.677   5.935   6.565
  178SLPC    HB20205   2.508   5.920   6.533
  178SLPC    C220206   2.599   6.099   6.444
  178SLPC    HS20207   2.691   6.157   6.467
  178SLPC   O2120208   2.481   6.182   6.433
  178SLPC   C2120209   2.500   6.308   6.391
  178SLPC   O2220210   2.608   6.357   6.364
  178SLPC   C2220211   2.369   6.384   6.397
  178SLPC   H2R20212   2.306   6.353   6.483
  178SLPC   H2S20213   2.400   6.489   6.412
  178SLPC    C320214   2.621   6.026   6.310
  178SLPC    HX20215   2.523   5.974   6.304
  178SLPC    HY20216   2.701   5.948   6.304
  178SLPC   O3120217   2.627   6.122   6.197
  178SLPC   C3120218   2.735   6.175   6.172
  178SLPC   O3220219   2.839   6.173   6.242
  178SLPC   C3220220   2.701   6.259   6.049
  178SLPC   H2X20221   2.662   6.355   6.091
  178SLPC   H2Y20222   2.612   6.228   5.990
  178SLPC   C2320223   2.308   6.370   6.258
  178SLPC   H3R20224   2.199   6.391   6.258
  178SLPC   H3S20225   2.310   6.265   6.222
  178SLPC   C2420226   2.372   6.462   6.145
  178SLPC   H4R20227   2.481   6.448   6.161
  178SLPC   H4S20228   2.349   6.565   6.178
  178SLPC   C2520229   2.334   6.418   6.004
  178SLPC   H5R20230   2.225   6.421   5.986
  178SLPC   H5S20231   2.374   6.314   5.995
  178SLPC   C2620232   2.412   6.497   5.902
  178SLPC   H6R20233   2.519   6.466   5.911
  178SLPC   H6S20234   2.394   6.604   5.928
  178SLPC   C2720235   2.365   6.473   5.756
  178SLPC   H7R20236   2.254   6.475   5.765
  178SLPC   H7S20237   2.395   6.374   5.716
  178SLPC   C2820238   2.409   6.590   5.664
  178SLPC   H8R20239   2.402   6.688   5.715
  178SLPC   H8S20240   2.328   6.604   5.589
  178SLPC   C2920241   2.547   6.570   5.603
  178SLPC   H9R20242   2.635   6.588   5.667
  178SLPC  C21020243   2.572   6.534   5.480
  178SLPC  H10R20244   2.674   6.533   5.439
  178SLPC  C21120245   2.467   6.505   5.376
  178SLPC  H11R20246   2.420   6.598   5.337
  178SLPC  H11S20247   2.382   6.451   5.424
  178SLPC  C21220248   2.512   6.406   5.273
  178SLPC  H12R20249   2.600   6.347   5.303
  178SLPC  C21320250   2.463   6.390   5.153
  178SLPC  H13R20251   2.489   6.306   5.087
  178SLPC  C21420252   2.335   6.454   5.104
  178SLPC  H14R20253   2.287   6.504   5.191
  178SLPC  H14S20254   2.264   6.374   5.074
  178SLPC  C21520255   2.360   6.547   4.988
  178SLPC  H15R20256   2.440   6.620   5.014
  178SLPC  H15S20257   2.275   6.615   4.967
  178SLPC  C21620258   2.394   6.473   4.857
  178SLPC  H16R20259   2.312   6.401   4.839
  178SLPC  H16S20260   2.486   6.412   4.875
  178SLPC  C21720261   2.396   6.576   4.748
  178SLPC  H17R20262   2.485   6.637   4.773
  178SLPC  H17S20263   2.302   6.635   4.752
  178SLPC  C21820264   2.435   6.515   4.614
  178SLPC  H18R20265   2.519   6.445   4.629
  178SLPC  H18S20266   2.457   6.589   4.534
  178SLPC  H18T20267   2.348   6.454   4.584
  178SLPC   C3320268   2.830   6.273   5.962
  178SLPC   H3X20269   2.861   6.168   5.945
  178SLPC   H3Y20270   2.907   6.322   6.026
  178SLPC   C3420271   2.804   6.349   5.834
  178SLPC   H4X20272   2.782   6.456   5.851
  178SLPC   H4Y20273   2.715   6.302   5.787
  178SLPC   C3520274   2.919   6.338   5.724
  178SLPC   H5X20275   2.927   6.228   5.712
  178SLPC   H5Y20276   3.012   6.372   5.774
  178SLPC   C3620277   2.896   6.388   5.588
  178SLPC   H6X20278   2.890   6.499   5.583
  178SLPC   H6Y20279   2.800   6.339   5.562
  178SLPC   C3720280   3.011   6.341   5.489
  178SLPC   H7X20281   3.022   6.231   5.502
  178SLPC   H7Y20282   3.111   6.384   5.509
  178SLPC   C3820283   2.977   6.370   5.341
  178SLPC   H8X20284   2.883   6.322   5.307
  178SLPC   H8Y20285   3.060   6.328   5.280
  178SLPC   C3920286   2.960   6.518   5.314
  178SLPC   H9X20287   3.046   6.580   5.346
  178SLPC   H9Y20288   2.872   6.563   5.364
  178SLPC  C31020289   2.930   6.542   5.168
  178SLPC  H10X20290   2.908   6.650   5.162
  178SLPC  H10Y20291   2.840   6.481   5.144
  178SLPC  C31120292   3.055   6.513   5.086
  178SLPC  H11X20293   3.057   6.402   5.074
  178SLPC  H11Y20294   3.147   6.542   5.141
  178SLPC  C31220295   3.054   6.577   4.944
  178SLPC  H12X20296   3.151   6.540   4.904
  178SLPC  H12Y20297   3.066   6.687   4.955
  178SLPC  C31320298   2.954   6.521   4.841
  178SLPC  H13X20299   2.982   6.564   4.742
  178SLPC  H13Y20300   2.859   6.570   4.872
  178SLPC  C31420301   2.941   6.373   4.831
  178SLPC  H14X20302   2.936   6.334   4.935
  178SLPC  H14Y20303   3.027   6.338   4.771
  178SLPC  C31520304   2.803   6.338   4.766
  178SLPC  H15X20305   2.791   6.397   4.673
  178SLPC  H15Y20306   2.704   6.360   4.812
  178SLPC  C31620307   2.801   6.184   4.732
  178SLPC  H16X20308   2.887   6.154   4.668
  178SLPC  H16Y20309   2.712   6.162   4.670
  178SLPC  C31720310   2.786   6.099   4.857
  178SLPC  H17X20311   2.886   6.081   4.903
  178SLPC  H17Y20312   2.757   5.996   4.827
  178SLPC  C31820313   2.689   6.153   4.970
  178SLPC  H18X20314   2.596   6.197   4.929
  178SLPC  H18Y20315   2.744   6.228   5.030
  178SLPC  H18Z20316   2.670   6.071   5.042
  179SLPC     N20317   3.717   0.566   2.201
  179SLPC   C1320318   3.662   0.463   2.109
  179SLPC  H13A20319   3.716   0.455   2.016
  179SLPC  H13B20320   3.662   0.365   2.155
  179SLPC  H13C20321   3.565   0.489   2.069
  179SLPC   C1420322   3.695   0.704   2.133
  179SLPC  H14A20323   3.723   0.785   2.198
  179SLPC  H14B20324   3.752   0.716   2.042
  179SLPC  H14C20325   3.592   0.720   2.102
  179SLPC   C1520326   3.865   0.540   2.212
  179SLPC  H15A20327   3.919   0.568   2.122
  179SLPC  H15B20328   3.910   0.601   2.289
  179SLPC  H15C20329   3.888   0.438   2.238
  179SLPC   C1220330   3.644   0.562   2.333
  179SLPC  H12A20331   3.643   0.461   2.371
  179SLPC  H12B20332   3.539   0.580   2.313
  179SLPC   C1120333   3.691   0.661   2.441
  179SLPC  H11A20334   3.799   0.655   2.466
  179SLPC  H11B20335   3.626   0.635   2.527
  179SLPC     P20336   3.531   0.863   2.446
  179SLPC   O1320337   3.532   1.002   2.410
  179SLPC   O1420338   3.414   0.782   2.401
  179SLPC   O1220339   3.668   0.794   2.398
  179SLPC   O1120340   3.541   0.848   2.606
  179SLPC    C120341   3.648   0.904   2.674
  179SLPC    HA20342   3.745   0.894   2.621
  179SLPC    HB20343   3.624   1.012   2.685
  179SLPC    C220344   3.680   0.840   2.814
  179SLPC    HS20345   3.694   0.730   2.802
  179SLPC   O2120346   3.577   0.878   2.910
  179SLPC   C2120347   3.531   0.787   2.987
  179SLPC   O2220348   3.567   0.669   2.997
  179SLPC   C2220349   3.418   0.844   3.077
  179SLPC   H2R20350   3.352   0.901   3.007
  179SLPC   H2S20351   3.359   0.757   3.115
  179SLPC    C320352   3.815   0.905   2.860
  179SLPC    HX20353   3.813   1.015   2.845
  179SLPC    HY20354   3.895   0.865   2.794
  179SLPC   O3120355   3.857   0.870   2.994
  179SLPC   C3120356   3.966   0.933   3.038
  179SLPC   O3220357   4.013   1.035   2.986
  179SLPC   C3220358   4.021   0.847   3.150
  179SLPC   H2X20359   4.118   0.802   3.119
  179SLPC   H2Y20360   3.959   0.757   3.170
  179SLPC   C2320361   3.475   0.930   3.194
  179SLPC   H3R20362   3.380   0.973   3.234
  179SLPC   H3S20363   3.535   1.016   3.156
  179SLPC   C2420364   3.548   0.842   3.292
  179SLPC   H4R20365   3.622   0.771   3.249
  179SLPC   H4S20366   3.473   0.771   3.331
  179SLPC   C2520367   3.593   0.916   3.417
  179SLPC   H5R20368   3.512   0.983   3.453
  179SLPC   H5S20369   3.687   0.966   3.388
  179SLPC   C2620370   3.632   0.820   3.525
  179SLPC   H6R20371   3.715   0.749   3.505
  179SLPC   H6S20372   3.545   0.758   3.558
  179SLPC   C2720373   3.676   0.895   3.650
  179SLPC   H7R20374   3.612   0.986   3.653
  179SLPC   H7S20375   3.780   0.935   3.652
  179SLPC   C2820376   3.657   0.824   3.784
  179SLPC   H8R20377   3.700   0.895   3.858
  179SLPC   H8S20378   3.705   0.725   3.797
  179SLPC   C2920379   3.502   0.814   3.812
  179SLPC   H9R20380   3.439   0.776   3.730
  179SLPC  C21020381   3.448   0.837   3.933
  179SLPC  H10R20382   3.339   0.834   3.945
  179SLPC  C21120383   3.525   0.887   4.054
  179SLPC  H11R20384   3.541   0.997   4.050
  179SLPC  H11S20385   3.633   0.860   4.056
  179SLPC  C21220386   3.460   0.839   4.181
  179SLPC  H12R20387   3.498   0.744   4.223
  179SLPC  C21320388   3.361   0.908   4.246
  179SLPC  H13R20389   3.325   0.866   4.341
  179SLPC  C21420390   3.302   1.042   4.197
  179SLPC  H14R20391   3.197   1.013   4.172
  179SLPC  H14S20392   3.353   1.090   4.111
  179SLPC  C21520393   3.294   1.147   4.320
  179SLPC  H15R20394   3.239   1.104   4.406
  179SLPC  H15S20395   3.223   1.222   4.277
  179SLPC  C21620396   3.424   1.219   4.361
  179SLPC  H16R20397   3.476   1.257   4.270
  179SLPC  H16S20398   3.487   1.148   4.417
  179SLPC  C21720399   3.381   1.330   4.456
  179SLPC  H17R20400   3.311   1.402   4.409
  179SLPC  H17S20401   3.474   1.387   4.474
  179SLPC  C21820402   3.333   1.287   4.591
  179SLPC  H18R20403   3.317   1.378   4.653
  179SLPC  H18S20404   3.410   1.222   4.637
  179SLPC  H18T20405   3.239   1.228   4.588
  179SLPC   C3320406   4.059   0.925   3.277
  179SLPC   H3X20407   3.977   0.991   3.311
  179SLPC   H3Y20408   4.140   0.987   3.234
  179SLPC   C3420409   4.097   0.842   3.398
  179SLPC   H4X20410   4.153   0.758   3.352
  179SLPC   H4Y20411   4.008   0.808   3.455
  179SLPC   C3520412   4.193   0.919   3.492
  179SLPC   H5X20413   4.294   0.941   3.450
  179SLPC   H5Y20414   4.150   1.021   3.506
  179SLPC   C3620415   4.215   0.853   3.628
  179SLPC   H6X20416   4.258   0.751   3.614
  179SLPC   H6Y20417   4.118   0.841   3.680
  179SLPC   C3720418   4.299   0.947   3.718
  179SLPC   H7X20419   4.240   1.041   3.717
  179SLPC   H7Y20420   4.392   0.969   3.661
  179SLPC   C3820421   4.332   0.898   3.859
  179SLPC   H8X20422   4.369   0.794   3.850
  179SLPC   H8Y20423   4.242   0.883   3.922
  179SLPC   C3920424   4.432   0.981   3.933
  179SLPC   H9X20425   4.448   0.957   4.040
  179SLPC   H9Y20426   4.402   1.086   3.953
  179SLPC  C31020427   4.583   0.979   3.869
  179SLPC  H10X20428   4.580   1.019   3.765
  179SLPC  H10Y20429   4.606   0.870   3.861
  179SLPC  C31120430   4.671   1.054   3.956
  179SLPC  H11X20431   4.626   1.152   3.983
  179SLPC  H11Y20432   4.761   1.075   3.894
  179SLPC  C31220433   4.720   0.979   4.081
  179SLPC  H12X20434   4.780   0.892   4.047
  179SLPC  H12Y20435   4.631   0.938   4.133
  179SLPC  C31320436   4.807   1.048   4.187
  179SLPC  H13X20437   4.743   1.126   4.232
  179SLPC  H13Y20438   4.893   1.089   4.130
  179SLPC  C31420439   4.854   0.953   4.295
  179SLPC  H14X20440   4.923   1.013   4.359
  179SLPC  H14Y20441   4.918   0.875   4.248
  179SLPC  C31520442   4.739   0.899   4.381
  179SLPC  H15X20443   4.679   0.838   4.309
  179SLPC  H15Y20444   4.678   0.983   4.422
  179SLPC  C31620445   4.776   0.810   4.502
  179SLPC  H16X20446   4.851   0.862   4.565
  179SLPC  H16Y20447   4.830   0.719   4.466
  179SLPC  C31720448   4.655   0.787   4.589
  179SLPC  H17X20449   4.576   0.727   4.539
  179SLPC  H17Y20450   4.613   0.890   4.595
  179SLPC  C31820451   4.694   0.724   4.729
  179SLPC  H18X20452   4.766   0.642   4.711
  179SLPC  H18Y20453   4.606   0.672   4.772
  179SLPC  H18Z20454   4.748   0.795   4.796
  180SLPC     N20455   2.350   1.792   2.003
  180SLPC   C1320456   2.319   1.844   1.868
  180SLPC  H13A20457   2.325   1.769   1.791
  180SLPC  H13B20458   2.220   1.887   1.868
  180SLPC  H13C20459   2.386   1.925   1.841
  180SLPC   C1420460   2.368   1.908   2.091
  180SLPC  H14A20461   2.434   1.983   2.049
  180SLPC  H14B20462   2.279   1.963   2.120
  180SLPC  H14C20463   2.414   1.873   2.182
  180SLPC   C1520464   2.472   1.715   1.990
  180SLPC  H15A20465   2.507   1.675   2.083
  180SLPC  H15B20466   2.468   1.632   1.921
  180SLPC  H15C20467   2.550   1.779   1.951
  180SLPC   C1220468   2.235   1.711   2.054
  180SLPC  H12A20469   2.219   1.625   1.991
  180SLPC  H12B20470   2.150   1.774   2.030
  180SLPC   C1120471   2.231   1.665   2.198
  180SLPC  H11A20472   2.128   1.626   2.212
  180SLPC  H11B20473   2.236   1.754   2.264
  180SLPC     P20474   2.292   1.421   2.158
  180SLPC   O1320475   2.198   1.432   2.043
  180SLPC   O1420476   2.411   1.332   2.133
  180SLPC   O1220477   2.330   1.565   2.209
  180SLPC   O1120478   2.207   1.350   2.277
  180SLPC    C120479   2.235   1.413   2.404
  180SLPC    HA20480   2.335   1.460   2.417
  180SLPC    HB20481   2.147   1.479   2.420
  180SLPC    C220482   2.242   1.306   2.520
  180SLPC    HS20483   2.322   1.234   2.490
  180SLPC   O2120484   2.113   1.237   2.515
  180SLPC   C2120485   2.116   1.114   2.568
  180SLPC   O2220486   2.217   1.052   2.600
  180SLPC   C2220487   1.976   1.059   2.581
  180SLPC   H2R20488   1.909   1.140   2.616
  180SLPC   H2S20489   1.948   1.035   2.476
  180SLPC    C320490   2.272   1.373   2.658
  180SLPC    HX20491   2.199   1.454   2.680
  180SLPC    HY20492   2.375   1.415   2.656
  180SLPC   O3120493   2.269   1.284   2.765
  180SLPC   C3120494   2.385   1.221   2.805
  180SLPC   O3220495   2.488   1.228   2.734
  180SLPC   C3220496   2.362   1.141   2.929
  180SLPC   H2X20497   2.315   1.044   2.901
  180SLPC   H2Y20498   2.306   1.190   3.011
  180SLPC   C2320499   1.969   0.930   2.668
  180SLPC   H3R20500   2.059   0.876   2.632
  180SLPC   H3S20501   1.872   0.878   2.650
  180SLPC   C2420502   1.983   0.959   2.812
  180SLPC   H4R20503   1.890   1.010   2.845
  180SLPC   H4S20504   2.066   1.025   2.844
  180SLPC   C2520505   1.999   0.822   2.898
  180SLPC   H5R20506   2.096   0.772   2.880
  180SLPC   H5S20507   1.921   0.757   2.851
  180SLPC   C2620508   1.980   0.832   3.048
  180SLPC   H6R20509   1.870   0.841   3.064
  180SLPC   H6S20510   2.034   0.927   3.070
  180SLPC   C2720511   2.045   0.718   3.125
  180SLPC   H7R20512   2.155   0.705   3.109
  180SLPC   H7S20513   1.998   0.624   3.090
  180SLPC   C2820514   2.028   0.749   3.274
  180SLPC   H8R20515   1.919   0.746   3.294
  180SLPC   H8S20516   2.070   0.851   3.292
  180SLPC   C2920517   2.088   0.655   3.371
  180SLPC   H9R20518   2.164   0.588   3.327
  180SLPC  C21020519   2.074   0.648   3.500
  180SLPC  H10R20520   2.135   0.568   3.545
  180SLPC  C21120521   1.971   0.727   3.579
  180SLPC  H11R20522   1.902   0.649   3.618
  180SLPC  H11S20523   1.908   0.796   3.519
  180SLPC  C21220524   2.036   0.814   3.684
  180SLPC  H12R20525   2.102   0.888   3.636
  180SLPC  C21320526   2.015   0.817   3.814
  180SLPC  H13R20527   2.063   0.895   3.875
  180SLPC  C21420528   1.918   0.732   3.901
  180SLPC  H14R20529   1.972   0.672   3.978
  180SLPC  H14S20530   1.865   0.659   3.836
  180SLPC  C21520531   1.806   0.822   3.948
  180SLPC  H15R20532   1.723   0.756   3.981
  180SLPC  H15S20533   1.748   0.882   3.874
  180SLPC  C21620534   1.843   0.917   4.066
  180SLPC  H16R20535   1.928   0.985   4.043
  180SLPC  H16S20536   1.874   0.857   4.153
  180SLPC  C21720537   1.733   1.011   4.113
  180SLPC  H17R20538   1.649   0.947   4.149
  180SLPC  H17S20539   1.699   1.057   4.018
  180SLPC  C21820540   1.776   1.113   4.220
  180SLPC  H18R20541   1.879   1.149   4.198
  180SLPC  H18S20542   1.776   1.064   4.320
  180SLPC  H18T20543   1.700   1.193   4.226
  180SLPC   C3320544   2.505   1.112   2.985
  180SLPC   H3X20545   2.551   1.206   3.023
  180SLPC   H3Y20546   2.575   1.078   2.906
  180SLPC   C3420547   2.504   1.012   3.100
  180SLPC   H4X20548   2.604   0.986   3.142
  180SLPC   H4Y20549   2.460   0.919   3.058
  180SLPC   C3520550   2.414   1.064   3.215
  180SLPC   H5X20551   2.311   1.045   3.178
  180SLPC   H5Y20552   2.430   1.170   3.244
  180SLPC   C3620553   2.425   0.990   3.350
  180SLPC   H6X20554   2.529   0.962   3.377
  180SLPC   H6Y20555   2.379   0.889   3.343
  180SLPC   C3720556   2.351   1.064   3.456
  180SLPC   H7X20557   2.242   1.070   3.432
  180SLPC   H7Y20558   2.382   1.170   3.459
  180SLPC   C3820559   2.373   0.997   3.587
  180SLPC   H8X20560   2.481   0.981   3.607
  180SLPC   H8Y20561   2.330   0.895   3.593
  180SLPC   C3920562   2.313   1.058   3.715
  180SLPC   H9X20563   2.212   1.093   3.688
  180SLPC   H9Y20564   2.369   1.150   3.740
  180SLPC  C31020565   2.332   0.968   3.839
  180SLPC  H10X20566   2.440   0.939   3.844
  180SLPC  H10Y20567   2.271   0.875   3.828
  180SLPC  C31120568   2.298   1.039   3.966
  180SLPC  H11X20569   2.201   1.092   3.954
  180SLPC  H11Y20570   2.373   1.120   3.971
  180SLPC  C31220571   2.297   0.947   4.086
  180SLPC  H12X20572   2.399   0.903   4.091
  180SLPC  H12Y20573   2.221   0.868   4.070
  180SLPC  C31320574   2.281   1.018   4.219
  180SLPC  H13X20575   2.177   1.049   4.241
  180SLPC  H13Y20576   2.342   1.109   4.240
  180SLPC  C31420577   2.326   0.918   4.327
  180SLPC  H14X20578   2.433   0.891   4.311
  180SLPC  H14Y20579   2.273   0.822   4.309
  180SLPC  C31520580   2.305   0.970   4.475
  180SLPC  H15X20581   2.195   0.978   4.488
  180SLPC  H15Y20582   2.358   1.067   4.485
  180SLPC  C31620583   2.346   0.873   4.587
  180SLPC  H16X20584   2.455   0.855   4.575
  180SLPC  H16Y20585   2.305   0.770   4.585
  180SLPC  C31720586   2.303   0.929   4.728
  180SLPC  H17X20587   2.192   0.928   4.737
  180SLPC  H17Y20588   2.342   1.033   4.732
  180SLPC  C31820589   2.352   0.844   4.848
  180SLPC  H18X20590   2.323   0.736   4.840
  180SLPC  H18Y20591   2.315   0.881   4.946
  180SLPC  H18Z20592   2.462   0.839   4.864
  181SLPC     N20593   1.277   0.030   1.923
  181SLPC   C1320594   1.309   0.174   1.895
  181SLPC  H13A20595   1.328   0.193   1.790
  181SLPC  H13B20596   1.226   0.238   1.923
  181SLPC  H13C20597   1.391   0.210   1.955
  181SLPC   C1420598   1.387   6.760   1.881
  181SLPC  H14A20599   1.479   6.775   1.935
  181SLPC  H14B20600   1.352   6.658   1.882
  181SLPC  H14C20601   1.418   6.788   1.781
  181SLPC   C1520602   1.156   0.007   1.837
  181SLPC  H15A20603   1.135   6.726   1.837
  181SLPC  H15B20604   1.075   0.063   1.883
  181SLPC  H15C20605   1.183   0.038   1.737
  181SLPC   C1220606   1.242   0.014   2.069
  181SLPC  H12A20607   1.172   0.095   2.082
  181SLPC  H12B20608   1.328   0.044   2.127
  181SLPC   C1120609   1.193   6.703   2.131
  181SLPC  H11A20610   1.099   6.671   2.082
  181SLPC  H11B20611   1.164   6.727   2.235
  181SLPC     P20612   1.409   6.598   2.226
  181SLPC   O1320613   1.470   6.464   2.231
  181SLPC   O1420614   1.512   6.706   2.204
  181SLPC   O1220615   1.297   6.606   2.115
  181SLPC   O1120616   1.330   6.617   2.359
  181SLPC    C120617   1.341   6.725   2.454
  181SLPC    HA20618   1.399   6.811   2.412
  181SLPC    HB20619   1.239   6.761   2.477
  181SLPC    C220620   1.418   6.675   2.582
  181SLPC    HS20621   1.505   6.621   2.538
  181SLPC   O2120622   1.319   6.601   2.665
  181SLPC   C2120623   1.363   6.478   2.708
  181SLPC   O2220624   1.459   6.421   2.663
  181SLPC   C2220625   1.263   6.420   2.808
  181SLPC   H2R20626   1.185   6.494   2.833
  181SLPC   H2S20627   1.213   6.330   2.768
  181SLPC    C320628   1.480   6.789   2.677
  181SLPC    HX20629   1.402   0.041   2.695
  181SLPC    HY20630   1.558   0.018   2.618
  181SLPC   O3120631   1.538   6.733   2.799
  181SLPC   C3120632   1.663   6.687   2.799
  181SLPC   O3220633   1.741   6.681   2.712
  181SLPC   C3220634   1.693   6.642   2.946
  181SLPC   H2X20635   1.793   6.679   2.976
  181SLPC   H2Y20636   1.711   6.532   2.939
  181SLPC   C2320637   1.338   6.386   2.936
  181SLPC   H3R20638   1.403   6.474   2.954
  181SLPC   H3S20639   1.397   6.293   2.921
  181SLPC   C2420640   1.243   6.371   3.053
  181SLPC   H4R20641   1.141   6.342   3.020
  181SLPC   H4S20642   1.238   6.465   3.112
  181SLPC   C2520643   1.299   6.275   3.163
  181SLPC   H5R20644   1.392   6.321   3.201
  181SLPC   H5S20645   1.311   6.172   3.122
  181SLPC   C2620646   1.197   6.254   3.283
  181SLPC   H6R20647   1.095   6.256   3.238
  181SLPC   H6S20648   1.201   6.342   3.350
  181SLPC   C2720649   1.235   6.124   3.362
  181SLPC   H7R20650   1.204   6.032   3.307
  181SLPC   H7S20651   1.181   6.117   3.458
  181SLPC   C2820652   1.385   6.108   3.402
  181SLPC   H8R20653   1.430   6.051   3.318
  181SLPC   H8S20654   1.378   6.029   3.480
  181SLPC   C2920655   1.468   6.225   3.449
  181SLPC   H9R20656   1.493   6.300   3.372
  181SLPC  C21020657   1.492   6.249   3.581
  181SLPC  H10R20658   1.548   6.342   3.600
  181SLPC  C21120659   1.459   6.176   3.701
  181SLPC  H11R20660   1.559   6.138   3.732
  181SLPC  H11S20661   1.409   6.079   3.679
  181SLPC  C21220662   1.400   6.259   3.814
  181SLPC  H12R20663   1.470   6.281   3.896
  181SLPC  C21320664   1.277   6.315   3.806
  181SLPC  H13R20665   1.249   6.375   3.894
  181SLPC  C21420666   1.163   6.288   3.706
  181SLPC  H14R20667   1.206   6.305   3.605
  181SLPC  H14S20668   1.074   6.354   3.720
  181SLPC  C21520669   1.118   6.145   3.733
  181SLPC  H15R20670   1.206   6.078   3.720
  181SLPC  H15S20671   1.052   6.112   3.650
  181SLPC  C21620672   1.040   6.127   3.869
  181SLPC  H16R20673   0.942   6.179   3.864
  181SLPC  H16S20674   1.085   6.180   3.956
  181SLPC  C21720675   1.007   5.978   3.904
  181SLPC  H17R20676   0.984   5.933   3.805
  181SLPC  H17S20677   0.911   5.987   3.958
  181SLPC  C21820678   1.115   5.906   4.000
  181SLPC  H18R20679   1.214   5.911   3.950
  181SLPC  H18S20680   1.096   5.798   4.017
  181SLPC  H18T20681   1.114   5.965   4.094
  181SLPC   C3320682   1.592   6.676   3.055
  181SLPC   H3X20683   1.494   6.623   3.053
  181SLPC   H3Y20684   1.550   6.779   3.046
  181SLPC   C3420685   1.653   6.659   3.199
  181SLPC   H4X20686   1.571   6.691   3.267
  181SLPC   H4Y20687   1.732   6.737   3.199
  181SLPC   C3520688   1.706   6.522   3.239
  181SLPC   H5X20689   1.780   6.487   3.164
  181SLPC   H5Y20690   1.618   6.455   3.248
  181SLPC   C3620691   1.782   6.532   3.370
  181SLPC   H6X20692   1.712   6.570   3.448
  181SLPC   H6Y20693   1.879   6.585   3.359
  181SLPC   C3720694   1.831   6.389   3.416
  181SLPC   H7X20695   1.899   6.372   3.330
  181SLPC   H7Y20696   1.752   6.311   3.425
  181SLPC   C3820697   1.921   6.393   3.547
  181SLPC   H8X20698   2.004   6.466   3.530
  181SLPC   H8Y20699   1.970   6.296   3.570
  181SLPC   C3920700   1.855   6.444   3.677
  181SLPC   H9X20701   1.764   6.384   3.698
  181SLPC   H9Y20702   1.833   6.552   3.659
  181SLPC  C31020703   1.945   6.434   3.798
  181SLPC  H10X20704   2.020   6.516   3.790
  181SLPC  H10Y20705   1.995   6.335   3.789
  181SLPC  C31120706   1.870   6.435   3.933
  181SLPC  H11X20707   1.817   6.337   3.937
  181SLPC  H11Y20708   1.795   6.517   3.930
  181SLPC  C31220709   1.962   6.457   4.057
  181SLPC  H12X20710   2.029   6.369   4.070
  181SLPC  H12Y20711   1.899   6.472   4.147
  181SLPC  C31320712   2.039   6.590   4.035
  181SLPC  H13X20713   1.977   6.672   3.993
  181SLPC  H13Y20714   2.116   6.569   3.958
  181SLPC  C31420715   2.115   6.626   4.164
  181SLPC  H14X20716   2.040   6.658   4.239
  181SLPC  H14Y20717   2.173   6.720   4.148
  181SLPC  C31520718   2.213   6.527   4.220
  181SLPC  H15X20719   2.178   6.422   4.232
  181SLPC  H15Y20720   2.244   6.558   4.322
  181SLPC  C31620721   2.341   6.524   4.136
  181SLPC  H16X20722   2.320   6.522   4.027
  181SLPC  H16Y20723   2.379   6.422   4.159
  181SLPC  C31720724   2.451   6.620   4.181
  181SLPC  H17X20725   2.463   6.609   4.291
  181SLPC  H17Y20726   2.431   6.727   4.159
  181SLPC  C31820727   2.588   6.581   4.122
  181SLPC  H18X20728   2.602   6.592   4.012
  181SLPC  H18Y20729   2.618   6.478   4.153
  181SLPC  H18Z20730   2.656   6.660   4.160
  182SLPC     N20731   1.994   6.166   1.959
  182SLPC   C1320732   2.141   6.176   1.955
  182SLPC  H13A20733   2.172   6.150   1.854
  182SLPC  H13B20734   2.193   6.265   1.986
  182SLPC  H13C20735   2.185   6.093   2.009
  182SLPC   C1420736   1.948   6.028   1.939
  182SLPC  H14A20737   2.000   5.964   2.009
  182SLPC  H14B20738   1.842   6.011   1.944
  182SLPC  H14C20739   1.985   5.991   1.845
  182SLPC   C1520740   1.934   6.253   1.855
  182SLPC  H15A20741   1.970   6.217   1.760
  182SLPC  H15B20742   1.827   6.253   1.849
  182SLPC  H15C20743   1.968   6.355   1.870
  182SLPC   C1220744   1.952   6.217   2.091
  182SLPC  H12A20745   1.845   6.205   2.092
  182SLPC  H12B20746   1.978   6.320   2.110
  182SLPC   C1120747   1.996   6.139   2.219
  182SLPC  H11A20748   1.980   6.031   2.200
  182SLPC  H11B20749   1.929   6.160   2.305
  182SLPC     P20750   2.189   6.286   2.343
  182SLPC   O1320751   2.335   6.271   2.349
  182SLPC   O1420752   2.139   6.414   2.289
  182SLPC   O1220753   2.133   6.162   2.257
  182SLPC   O1120754   2.136   6.256   2.486
  182SLPC    C120755   2.130   6.122   2.532
  182SLPC    HA20756   2.041   6.083   2.479
  182SLPC    HB20757   2.223   6.065   2.512
  182SLPC    C220758   2.099   6.096   2.688
  182SLPC    HS20759   2.061   5.992   2.688
  182SLPC   O2120760   2.002   6.185   2.748
  182SLPC   C2120761   1.881   6.189   2.685
  182SLPC   O2220762   1.841   6.113   2.596
  182SLPC   C2220763   1.799   6.302   2.752
  182SLPC   H2R20764   1.860   6.373   2.812
  182SLPC   H2S20765   1.745   6.350   2.668
  182SLPC    C320766   2.219   6.101   2.774
  182SLPC    HX20767   2.185   6.076   2.877
  182SLPC    HY20768   2.256   6.205   2.787
  182SLPC   O3120769   2.324   6.016   2.725
  182SLPC   C3120770   2.388   5.936   2.816
  182SLPC   O3220771   2.369   5.947   2.935
  182SLPC   C3220772   2.494   5.849   2.748
  182SLPC   H2X20773   2.585   5.909   2.728
  182SLPC   H2Y20774   2.457   5.820   2.647
  182SLPC   C2320775   1.702   6.232   2.854
  182SLPC   H3R20776   1.627   6.174   2.797
  182SLPC   H3S20777   1.630   6.304   2.899
  182SLPC   C2420778   1.760   6.149   2.971
  182SLPC   H4R20779   1.862   6.183   2.994
  182SLPC   H4S20780   1.773   6.044   2.936
  182SLPC   C2520781   1.673   6.154   3.096
  182SLPC   H5R20782   1.576   6.107   3.070
  182SLPC   H5S20783   1.649   6.258   3.128
  182SLPC   C2620784   1.734   6.079   3.216
  182SLPC   H6R20785   1.678   6.106   3.308
  182SLPC   H6S20786   1.843   6.096   3.229
  182SLPC   C2720787   1.728   5.928   3.201
  182SLPC   H7R20788   1.784   5.898   3.110
  182SLPC   H7S20789   1.625   5.887   3.199
  182SLPC   C2820790   1.806   5.854   3.315
  182SLPC   H8R20791   1.908   5.898   3.322
  182SLPC   H8S20792   1.830   5.750   3.281
  182SLPC   C2920793   1.722   5.843   3.437
  182SLPC   H9R20794   1.617   5.810   3.431
  182SLPC  C21020795   1.752   5.890   3.563
  182SLPC  H10R20796   1.676   5.874   3.640
  182SLPC  C21120797   1.877   5.965   3.610
  182SLPC  H11R20798   1.907   6.047   3.542
  182SLPC  H11S20799   1.953   5.884   3.599
  182SLPC  C21220800   1.880   6.021   3.749
  182SLPC  H12R20801   1.845   6.125   3.760
  182SLPC  C21320802   1.925   5.963   3.865
  182SLPC  H13R20803   1.934   6.003   3.967
  182SLPC  C21420804   1.983   5.827   3.878
  182SLPC  H14R20805   2.026   5.793   3.781
  182SLPC  H14S20806   1.908   5.750   3.905
  182SLPC  C21520807   2.106   5.802   3.968
  182SLPC  H15R20808   2.190   5.863   3.929
  182SLPC  H15S20809   2.119   5.691   3.964
  182SLPC  C21620810   2.080   5.824   4.119
  182SLPC  H16R20811   1.994   5.756   4.138
  182SLPC  H16S20812   2.050   5.929   4.140
  182SLPC  C21720813   2.199   5.785   4.213
  182SLPC  H17R20814   2.293   5.837   4.185
  182SLPC  H17S20815   2.217   5.676   4.197
  182SLPC  C21820816   2.171   5.802   4.365
  182SLPC  H18R20817   2.083   5.737   4.385
  182SLPC  H18S20818   2.154   5.909   4.391
  182SLPC  H18T20819   2.263   5.759   4.408
  182SLPC   C3320820   2.525   5.723   2.831
  182SLPC   H3X20821   2.426   5.681   2.859
  182SLPC   H3Y20822   2.572   5.759   2.926
  182SLPC   C3420823   2.634   5.633   2.765
  182SLPC   H4X20824   2.712   5.701   2.725
  182SLPC   H4Y20825   2.577   5.584   2.682
  182SLPC   C3520826   2.705   5.531   2.854
  182SLPC   H5X20827   2.763   5.466   2.785
  182SLPC   H5Y20828   2.621   5.468   2.891
  182SLPC   C3620829   2.784   5.595   2.973
  182SLPC   H6X20830   2.747   5.698   2.992
  182SLPC   H6Y20831   2.887   5.610   2.935
  182SLPC   C3720832   2.816   5.506   3.095
  182SLPC   H7X20833   2.818   5.400   3.062
  182SLPC   H7Y20834   2.736   5.519   3.172
  182SLPC   C3820835   2.949   5.547   3.161
  182SLPC   H8X20836   2.929   5.647   3.206
  182SLPC   H8Y20837   3.023   5.562   3.079
  182SLPC   C3920838   2.985   5.444   3.270
  182SLPC   H9X20839   3.092   5.456   3.300
  182SLPC   H9Y20840   2.987   5.342   3.226
  182SLPC  C31020841   2.895   5.452   3.396
  182SLPC  H10X20842   2.790   5.433   3.367
  182SLPC  H10Y20843   2.899   5.557   3.431
  182SLPC  C31120844   2.942   5.354   3.502
  182SLPC  H11X20845   3.030   5.394   3.556
  182SLPC  H11Y20846   2.972   5.261   3.450
  182SLPC  C31220847   2.838   5.333   3.607
  182SLPC  H12X20848   2.742   5.309   3.556
  182SLPC  H12Y20849   2.817   5.428   3.660
  182SLPC  C31320850   2.866   5.218   3.707
  182SLPC  H13X20851   2.940   5.155   3.652
  182SLPC  H13Y20852   2.767   5.170   3.720
  182SLPC  C31420853   2.936   5.255   3.836
  182SLPC  H14X20854   2.891   5.343   3.887
  182SLPC  H14Y20855   3.040   5.278   3.803
  182SLPC  C31520856   2.935   5.141   3.940
  182SLPC  H15X20857   3.033   5.149   3.991
  182SLPC  H15Y20858   2.940   5.045   3.884
  182SLPC  C31620859   2.822   5.168   4.044
  182SLPC  H16X20860   2.829   5.081   4.113
  182SLPC  H16Y20861   2.728   5.155   3.986
  182SLPC  C31720862   2.813   5.298   4.117
  182SLPC  H17X20863   2.767   5.379   4.057
  182SLPC  H17Y20864   2.913   5.341   4.143
  182SLPC  C31820865   2.737   5.293   4.254
  182SLPC  H18X20866   2.804   5.250   4.330
  182SLPC  H18Y20867   2.648   5.228   4.240
  182SLPC  H18Z20868   2.703   5.393   4.287
  183SLPC     N20869   6.479   2.460   1.738
  183SLPC   C1320870   6.495   2.574   1.647
  183SLPC  H13A20871   6.450   2.663   1.689
  183SLPC  H13B20872   6.598   2.603   1.633
  183SLPC  H13C20873   6.448   2.549   1.553
  183SLPC   C1420874   6.553   2.340   1.679
  183SLPC  H14A20875   6.501   2.322   1.586
  183SLPC  H14B20876   6.652   2.363   1.643
  183SLPC  H14C20877   6.544   2.251   1.739
  183SLPC   C1520878   6.335   2.419   1.751
  183SLPC  H15A20879   6.333   2.348   1.832
  183SLPC  H15B20880   6.276   2.502   1.787
  183SLPC  H15C20881   6.288   2.388   1.659
  183SLPC   C1220882   6.544   2.501   1.874
  183SLPC  H12A20883   6.518   2.600   1.908
  183SLPC  H12B20884   6.651   2.498   1.862
  183SLPC   C1120885   6.516   2.428   2.009
  183SLPC  H11A20886   6.569   2.488   2.085
  183SLPC  H11B20887   6.555   2.325   2.000
  183SLPC     P20888   6.293   2.532   2.100
  183SLPC   O1320889   6.337   2.655   2.032
  183SLPC   O1420890   6.149   2.499   2.100
  183SLPC   O1220891   6.377   2.408   2.036
  183SLPC   O1120892   6.327   2.541   2.249
  183SLPC    C120893   6.386   2.437   2.326
  183SLPC    HA20894   6.449   2.362   2.274
  183SLPC    HB20895   6.463   2.484   2.391
  183SLPC    C220896   6.289   2.359   2.419
  183SLPC    HS20897   6.192   2.351   2.366
  183SLPC   O2120898   6.289   2.426   2.546
  183SLPC   C2120899   6.164   2.427   2.605
  183SLPC   O2220900   6.061   2.393   2.552
  183SLPC   C2220901   6.173   2.508   2.734
  183SLPC   H2R20902   6.249   2.466   2.804
  183SLPC   H2S20903   6.211   2.611   2.716
  183SLPC    C320904   6.352   2.213   2.447
  183SLPC    HX20905   6.456   2.232   2.479
  183SLPC    HY20906   6.364   2.156   2.352
  183SLPC   O3120907   6.273   2.138   2.543
  183SLPC   C3120908   6.152   2.094   2.500
  183SLPC   O3220909   6.102   2.097   2.390
  183SLPC   C3220910   6.091   2.028   2.625
  183SLPC   H2X20911   6.142   1.930   2.638
  183SLPC   H2Y20912   5.983   2.005   2.614
  183SLPC   C2320913   6.041   2.516   2.811
  183SLPC   H3R20914   5.997   2.414   2.810
  183SLPC   H3S20915   5.974   2.592   2.764
  183SLPC   C2420916   6.056   2.556   2.961
  183SLPC   H4R20917   6.097   2.659   2.968
  183SLPC   H4S20918   6.138   2.500   3.010
  183SLPC   C2520919   5.932   2.539   3.049
  183SLPC   H5R20920   5.902   2.432   3.043
  183SLPC   H5S20921   5.856   2.607   3.006
  183SLPC   C2620922   5.943   2.565   3.203
  183SLPC   H6R20923   5.999   2.659   3.217
  183SLPC   H6S20924   6.010   2.488   3.248
  183SLPC   C2720925   5.807   2.567   3.280
  183SLPC   H7R20926   5.768   2.463   3.271
  183SLPC   H7S20927   5.728   2.635   3.241
  183SLPC   C2820928   5.828   2.591   3.432
  183SLPC   H8R20929   5.868   2.695   3.432
  183SLPC   H8S20930   5.906   2.522   3.469
  183SLPC   C2920931   5.708   2.582   3.527
  183SLPC   H9R20932   5.607   2.566   3.485
  183SLPC  C21020933   5.718   2.615   3.655
  183SLPC  H10R20934   5.620   2.615   3.706
  183SLPC  C21120935   5.844   2.648   3.746
  183SLPC  H11R20936   5.939   2.641   3.687
  183SLPC  H11S20937   5.838   2.583   3.835
  183SLPC  C21220938   5.850   2.791   3.785
  183SLPC  H12R20939   5.793   2.865   3.728
  183SLPC  C21320940   5.919   2.840   3.893
  183SLPC  H13R20941   5.915   2.949   3.910
  183SLPC  C21420942   6.009   2.770   3.990
  183SLPC  H14R20943   6.003   2.663   3.961
  183SLPC  H14S20944   5.959   2.783   4.088
  183SLPC  C21520945   6.154   2.829   3.989
  183SLPC  H15R20946   6.143   2.931   4.033
  183SLPC  H15S20947   6.197   2.825   3.887
  183SLPC  C21620948   6.242   2.755   4.086
  183SLPC  H16R20949   6.264   2.652   4.053
  183SLPC  H16S20950   6.183   2.752   4.180
  183SLPC  C21720951   6.378   2.814   4.118
  183SLPC  H17R20952   6.371   2.913   4.168
  183SLPC  H17S20953   6.429   2.831   4.021
  183SLPC  C21820954   6.470   2.721   4.194
  183SLPC  H18R20955   6.421   2.678   4.283
  183SLPC  H18S20956   6.559   2.781   4.221
  183SLPC  H18T20957   6.495   2.636   4.127
  183SLPC   C3320958   6.111   2.110   2.750
  183SLPC   H3X20959   6.050   2.202   2.744
  183SLPC   H3Y20960   6.218   2.138   2.761
  183SLPC   C3420961   6.081   2.042   2.889
  183SLPC   H4X20962   6.151   1.961   2.917
  183SLPC   H4Y20963   5.980   1.997   2.880
  183SLPC   C3520964   6.095   2.149   2.988
  183SLPC   H5X20965   6.009   2.215   2.968
  183SLPC   H5Y20966   6.185   2.213   2.975
  183SLPC   C3620967   6.095   2.084   3.131
  183SLPC   H6X20968   6.177   2.011   3.144
  183SLPC   H6Y20969   6.001   2.026   3.142
  183SLPC   C3720970   6.098   2.192   3.244
  183SLPC   H7X20971   6.016   2.261   3.218
  183SLPC   H7Y20972   6.191   2.252   3.238
  183SLPC   C3820973   6.077   2.136   3.383
  183SLPC   H8X20974   6.144   2.051   3.408
  183SLPC   H8Y20975   5.972   2.099   3.392
  183SLPC   C3920976   6.102   2.238   3.496
  183SLPC   H9X20977   6.033   2.324   3.495
  183SLPC   H9Y20978   6.202   2.285   3.490
  183SLPC  C31020979   6.095   2.175   3.633
  183SLPC  H10X20980   6.177   2.101   3.634
  183SLPC  H10Y20981   5.997   2.125   3.644
  183SLPC  C31120982   6.128   2.269   3.754
  183SLPC  H11X20983   6.053   2.350   3.764
  183SLPC  H11Y20984   6.227   2.319   3.745
  183SLPC  C31220985   6.117   2.207   3.898
  183SLPC  H12X20986   6.194   2.128   3.909
  183SLPC  H12Y20987   6.015   2.165   3.910
  183SLPC  C31320988   6.144   2.324   3.996
  183SLPC  H13X20989   6.076   2.406   3.963
  183SLPC  H13Y20990   6.246   2.363   3.978
  183SLPC  C31420991   6.123   2.292   4.141
  183SLPC  H14X20992   6.188   2.212   4.183
  183SLPC  H14Y20993   6.027   2.238   4.151
  183SLPC  C31520994   6.126   2.419   4.232
  183SLPC  H15X20995   6.021   2.437   4.267
  183SLPC  H15Y20996   6.151   2.498   4.158
  183SLPC  C31620997   6.223   2.405   4.343
  183SLPC  H16X20998   6.186   2.320   4.405
  183SLPC  H16Y20999   6.226   2.494   4.408
  183SLPC  C31721000   6.365   2.381   4.293
  183SLPC  H17X21001   6.390   2.463   4.222
  183SLPC  H17Y21002   6.369   2.284   4.238
  183SLPC  C31821003   6.472   2.377   4.407
  183SLPC  H18X21004   6.465   2.284   4.468
  183SLPC  H18Y21005   6.469   2.465   4.474
  183SLPC  H18Z21006   6.575   2.375   4.365
  184SLPC     N21007   6.128   1.732   2.104
  184SLPC   C1321008   6.107   1.588   2.134
  184SLPC  H13A21009   6.004   1.558   2.120
  184SLPC  H13B21010   6.168   1.533   2.065
  184SLPC  H13C21011   6.145   1.559   2.231
  184SLPC   C1421012   6.041   1.813   2.192
  184SLPC  H14A21013   6.079   1.809   2.293
  184SLPC  H14B21014   6.045   1.916   2.161
  184SLPC  H14C21015   5.939   1.783   2.210
  184SLPC   C1521016   6.084   1.763   1.962
  184SLPC  H15A21017   6.142   1.707   1.890
  184SLPC  H15B21018   5.980   1.754   1.932
  184SLPC  H15C21019   6.105   1.865   1.935
  184SLPC   C1221020   6.274   1.779   2.126
  184SLPC  H12A21021   6.284   1.874   2.075
  184SLPC  H12B21022   6.336   1.712   2.068
  184SLPC   C1121023   6.339   1.788   2.268
  184SLPC  H11A21024   6.271   1.848   2.332
  184SLPC  H11B21025   6.435   1.841   2.251
  184SLPC     P21026   6.336   1.629   2.480
  184SLPC   O1321027   6.194   1.603   2.492
  184SLPC   O1421028   6.421   1.515   2.526
  184SLPC   O1221029   6.365   1.658   2.326
  184SLPC   O1121030   6.375   1.767   2.542
  184SLPC    C121031   6.511   1.806   2.544
  184SLPC    HA21032   6.577   1.717   2.535
  184SLPC    HB21033   6.541   1.871   2.460
  184SLPC    C221034   6.538   1.883   2.674
  184SLPC    HS21035   6.494   1.982   2.651
  184SLPC   O2121036   6.675   1.863   2.717
  184SLPC   C2121037   6.765   1.940   2.663
  184SLPC   O2221038   6.742   2.031   2.584
  184SLPC   C2221039   0.075   1.922   2.726
  184SLPC   H2R21040   0.117   1.820   2.710
  184SLPC   H2S21041   0.149   1.993   2.683
  184SLPC    C321042   6.443   1.828   2.782
  184SLPC    HX21043   6.417   1.721   2.765
  184SLPC    HY21044   6.349   1.877   2.747
  184SLPC   O3121045   6.467   1.872   2.916
  184SLPC   C3121046   6.538   1.786   2.984
  184SLPC   O3221047   6.591   1.681   2.950
  184SLPC   C3221048   6.538   1.845   3.131
  184SLPC   H2X21049   6.436   1.872   3.166
  184SLPC   H2Y21050   6.596   1.940   3.127
  184SLPC   C2321051   0.063   1.971   2.867
  184SLPC   H3R21052   6.824   1.905   2.928
  184SLPC   H3S21053   0.001   2.063   2.874
  184SLPC   C2421054   0.191   2.004   2.935
  184SLPC   H4R21055   0.262   2.048   2.861
  184SLPC   H4S21056   0.246   1.926   2.991
  184SLPC   C2521057   0.187   2.121   3.034
  184SLPC   H5R21058   0.124   2.196   2.980
  184SLPC   H5S21059   0.283   2.170   3.060
  184SLPC   C2621060   0.116   2.078   3.151
  184SLPC   H6R21061   0.161   1.991   3.203
  184SLPC   H6S21062   0.009   2.050   3.139
  184SLPC   C2721063   0.114   2.196   3.253
  184SLPC   H7R21064   0.031   2.261   3.218
  184SLPC   H7S21065   0.214   2.243   3.239
  184SLPC   C2821066   0.087   2.156   3.404
  184SLPC   H8R21067   0.155   2.071   3.426
  184SLPC   H8S21068   6.812   2.109   3.404
  184SLPC   C2921069   0.098   2.276   3.497
  184SLPC   H9R21070   0.011   2.344   3.487
  184SLPC  C21021071   0.198   2.316   3.580
  184SLPC  H10R21072   0.179   2.401   3.646
  184SLPC  C21121073   0.324   2.238   3.606
  184SLPC  H11R21074   0.320   2.141   3.552
  184SLPC  H11S21075   0.331   2.216   3.714
  184SLPC  C21221076   0.446   2.323   3.562
  184SLPC  H12R21077   0.491   2.284   3.470
  184SLPC  C21321078   0.488   2.441   3.625
  184SLPC  H13R21079   0.572   2.490   3.574
  184SLPC  C21421080   0.434   2.500   3.746
  184SLPC  H14R21081   0.384   2.417   3.801
  184SLPC  H14S21082   0.348   2.568   3.729
  184SLPC  C21521083   0.534   2.554   3.849
  184SLPC  H15R21084   0.494   2.540   3.951
  184SLPC  H15S21085   0.531   2.663   3.826
  184SLPC  C21621086   0.682   2.508   3.842
  184SLPC  H16R21087   0.720   2.542   3.743
  184SLPC  H16S21088   0.694   2.397   3.840
  184SLPC  C21721089   0.775   2.573   3.950
  184SLPC  H17R21090   0.782   2.680   3.922
  184SLPC  H17S21091   0.875   2.526   3.936
  184SLPC  C21821092   0.727   2.553   4.101
  184SLPC  H18R21093   0.626   2.595   4.118
  184SLPC  H18S21094   0.806   2.595   4.167
  184SLPC  H18T21095   0.720   2.445   4.124
  184SLPC   C3321096   6.618   1.748   3.226
  184SLPC   H3X21097   6.723   1.730   3.195
  184SLPC   H3Y21098   6.578   1.645   3.223
  184SLPC   C3421099   6.618   1.801   3.371
  184SLPC   H4X21100   6.514   1.838   3.385
  184SLPC   H4Y21101   6.687   1.888   3.373
  184SLPC   C3521102   6.619   1.689   3.472
  184SLPC   H5X21103   6.698   1.614   3.452
  184SLPC   H5Y21104   6.515   1.651   3.467
  184SLPC   C3621105   6.630   1.751   3.613
  184SLPC   H6X21106   6.551   1.828   3.626
  184SLPC   H6Y21107   6.729   1.801   3.610
  184SLPC   C3721108   6.620   1.651   3.727
  184SLPC   H7X21109   6.705   1.582   3.708
  184SLPC   H7Y21110   6.523   1.599   3.728
  184SLPC   C3821111   6.640   1.728   3.861
  184SLPC   H8X21112   6.566   1.810   3.866
  184SLPC   H8Y21113   6.737   1.782   3.868
  184SLPC   C3921114   6.636   1.637   3.979
  184SLPC   H9X21115   6.716   1.560   3.967
  184SLPC   H9Y21116   6.542   1.578   3.984
  184SLPC  C31021117   6.651   1.707   4.118
  184SLPC  H10X21118   6.569   1.782   4.125
  184SLPC  H10Y21119   6.751   1.756   4.122
  184SLPC  C31121120   6.641   1.621   4.240
  184SLPC  H11X21121   6.712   1.536   4.232
  184SLPC  H11Y21122   6.539   1.582   4.265
  184SLPC  C31221123   6.684   1.696   4.364
  184SLPC  H12X21124   6.629   1.793   4.372
  184SLPC  H12Y21125   6.790   1.714   4.339
  184SLPC  C31321126   6.663   1.600   4.487
  184SLPC  H13X21127   6.636   1.495   4.464
  184SLPC  H13Y21128   6.582   1.650   4.545
  184SLPC  C31421129   6.792   1.591   4.572
  184SLPC  H14X21130   6.815   1.694   4.605
  184SLPC  H14Y21131   0.059   1.550   4.524
  184SLPC  C31521132   6.776   1.497   4.690
  184SLPC  H15X21133   6.784   1.391   4.657
  184SLPC  H15Y21134   6.676   1.513   4.736
  184SLPC  C31621135   0.058   1.537   4.798
  184SLPC  H16X21136   0.054   1.643   4.833
  184SLPC  H16Y21137   0.160   1.521   4.757
  184SLPC  C31721138   0.065   1.462   4.938
  184SLPC  H17X21139   0.171   1.464   4.971
  184SLPC  H17Y21140   0.044   1.354   4.924
  184SLPC  C31821141   6.796   1.510   5.052
  184SLPC  H18X21142   6.800   1.618   5.077
  184SLPC  H18Y21143   6.824   1.457   5.146
  184SLPC  H18Z21144   6.691   1.477   5.037
  185POPC     N21145   1.400   5.111   6.754
  185POPC   C1221146   1.487   5.121   6.879
  185POPC  H12A21147   1.465   5.044   6.952
  185POPC  H12B21148   1.449   5.212   6.923
  185POPC   C1321149   1.441   5.225   6.661
  185POPC  H13A21150   1.548   5.234   6.671
  185POPC  H13B21151   1.391   5.209   6.567
  185POPC  H13C21152   1.400   5.320   6.694
  185POPC   C1421153   1.432   4.985   6.675
  185POPC  H14A21154   1.527   5.008   6.628
  185POPC  H14B21155   1.436   4.899   6.740
  185POPC  H14C21156   1.357   4.960   6.601
  185POPC   C1521157   1.258   5.117   6.782
  185POPC  H15A21158   1.212   5.030   6.826
  185POPC  H15B21159   1.209   5.134   6.687
  185POPC  H15C21160   1.233   5.197   6.850
  185POPC   C1121161   1.645   5.136   6.862
  185POPC  H11A21162   1.681   5.058   6.792
  185POPC  H11B21163   1.693   5.116   6.960
  185POPC     P21164   1.845   5.286   6.784
  185POPC   O1321165   1.939   5.193   6.851
  185POPC   O1421166   1.883   5.425   6.796
  185POPC   O1221167   1.697   5.269   6.830
  185POPC   O1121168   1.837   5.255   6.627
  185POPC    C121169   1.753   5.330   6.537
  185POPC    HA21170   1.746   5.436   6.569
  185POPC    HB21171   1.654   5.281   6.527
  185POPC    C221172   1.815   5.345   6.396
  185POPC    HS21173   1.737   5.391   6.332
  185POPC   O2121174   1.862   5.223   6.338
  185POPC   C2121175   1.769   5.136   6.314
  185POPC   O2221176   1.647   5.152   6.330
  185POPC   C2221177   1.834   5.019   6.241
  185POPC   H2R21178   1.767   4.931   6.248
  185POPC   H2S21179   1.907   4.985   6.318
  185POPC    C321180   1.944   5.442   6.402
  185POPC    HX21181   2.016   5.385   6.465
  185POPC    HY21182   1.920   5.533   6.460
  185POPC   O3121183   1.985   5.462   6.269
  185POPC   C3121184   1.929   5.571   6.207
  185POPC   O3221185   1.843   5.639   6.256
  185POPC   C3221186   1.973   5.580   6.057
  185POPC   H2X21187   2.037   5.492   6.038
  185POPC   H2Y21188   2.025   5.678   6.048
  185POPC   C2321189   1.897   5.051   6.105
  185POPC   H3R21190   1.974   4.975   6.077
  185POPC   H3S21191   1.940   5.153   6.102
  185POPC   C2421192   1.794   5.047   5.991
  185POPC   H4R21193   1.702   5.097   6.027
  185POPC   H4S21194   1.778   4.937   5.980
  185POPC   C2521195   1.843   5.115   5.864
  185POPC   H5R21196   1.953   5.102   5.867
  185POPC   H5S21197   1.818   5.223   5.870
  185POPC   C2621198   1.786   5.044   5.737
  185POPC   H6R21199   1.676   5.034   5.744
  185POPC   H6S21200   1.834   4.944   5.734
  185POPC   C2721201   1.832   5.129   5.611
  185POPC   H7R21202   1.939   5.154   5.630
  185POPC   H7S21203   1.777   5.225   5.602
  185POPC   C2821204   1.832   5.066   5.468
  185POPC   H8R21205   1.883   4.970   5.494
  185POPC   H8S21206   1.901   5.116   5.397
  185POPC   C2921207   1.688   5.061   5.408
  185POPC   H9121208   1.609   5.019   5.471
  185POPC  C21021209   1.651   5.124   5.292
  185POPC  H10121210   1.546   5.108   5.262
  185POPC  C21121211   1.734   5.206   5.197
  185POPC  H11R21212   1.834   5.242   5.228
  185POPC  H11S21213   1.676   5.301   5.195
  185POPC  C21221214   1.749   5.149   5.049
  185POPC  H12R21215   1.645   5.144   5.010
  185POPC  H12S21216   1.796   5.049   5.043
  185POPC  C21321217   1.813   5.260   4.964
  185POPC  H13R21218   1.918   5.285   4.991
  185POPC  H13S21219   1.750   5.351   4.972
  185POPC  C21421220   1.813   5.241   4.809
  185POPC  H14R21221   1.844   5.137   4.784
  185POPC  H14S21222   1.886   5.314   4.769
  185POPC  C21521223   1.676   5.270   4.739
  185POPC  H15R21224   1.654   5.375   4.767
  185POPC  H15S21225   1.587   5.212   4.771
  185POPC  C21621226   1.686   5.267   4.592
  185POPC  H16R21227   1.769   5.330   4.554
  185POPC  H16S21228   1.596   5.307   4.540
  185POPC  C21721229   1.708   5.125   4.538
  185POPC  H17R21230   1.620   5.060   4.555
  185POPC  H17S21231   1.800   5.085   4.586
  185POPC  C21821232   1.730   5.114   4.383
  185POPC  H18R21233   1.820   5.173   4.357
  185POPC  H18S21234   1.644   5.166   4.335
  185POPC  H18T21235   1.750   5.008   4.356
  185POPC   C3321236   1.871   5.595   5.946
  185POPC   H3X21237   1.804   5.680   5.971
  185POPC   H3Y21238   1.801   5.509   5.942
  185POPC   C3421239   1.933   5.624   5.808
  185POPC   H4X21240   2.033   5.673   5.814
  185POPC   H4Y21241   1.886   5.714   5.763
  185POPC   C3521242   1.936   5.504   5.705
  185POPC   H5X21243   1.847   5.439   5.700
  185POPC   H5Y21244   2.007   5.427   5.742
  185POPC   C3621245   1.958   5.554   5.567
  185POPC   H6X21246   1.992   5.474   5.498
  185POPC   H6Y21247   2.034   5.635   5.571
  185POPC   C3721248   1.833   5.609   5.501
  185POPC   H7X21249   1.774   5.671   5.571
  185POPC   H7Y21250   1.764   5.523   5.486
  185POPC   C3821251   1.866   5.682   5.375
  185POPC   H8X21252   1.928   5.627   5.300
  185POPC   H8Y21253   1.922   5.775   5.399
  185POPC   C3921254   1.746   5.735   5.287
  185POPC   H9X21255   1.710   5.821   5.348
  185POPC   H9Y21256   1.666   5.658   5.282
  185POPC  C31021257   1.787   5.791   5.153
  185POPC  H10X21258   1.862   5.869   5.179
  185POPC  H10Y21259   1.700   5.848   5.114
  185POPC  C31121260   1.836   5.690   5.053
  185POPC  H11X21261   1.767   5.603   5.049
  185POPC  H11Y21262   1.932   5.656   5.099
  185POPC  C31221263   1.854   5.731   4.902
  185POPC  H12X21264   1.933   5.809   4.898
  185POPC  H12Y21265   1.769   5.796   4.871
  185POPC  C31321266   1.880   5.617   4.805
  185POPC  H13X21267   1.780   5.568   4.804
  185POPC  H13Y21268   1.962   5.565   4.859
  185POPC  C31421269   1.927   5.661   4.663
  185POPC  H14X21270   1.941   5.558   4.623
  185POPC  H14Y21271   2.025   5.714   4.659
  185POPC  C31521272   1.827   5.731   4.574
  185POPC  H15X21273   1.875   5.741   4.474
  185POPC  H15Y21274   1.821   5.837   4.608
  185POPC  C31621275   1.696   5.658   4.554
  185POPC  H16X21276   1.646   5.643   4.652
  185POPC  H16Y21277   1.714   5.557   4.511
  185POPC  H16Z21278   1.622   5.712   4.492
  186POPC     N21279   4.180   5.085   6.904
  186POPC   C1221280   4.061   5.041   6.815
  186POPC  H12A21281   3.968   5.061   6.865
  186POPC  H12B21282   4.068   4.936   6.790
  186POPC   C1321283   4.175   5.237   6.915
  186POPC  H13A21284   4.086   5.255   6.974
  186POPC  H13B21285   4.257   5.287   6.965
  186POPC  H13C21286   4.156   5.288   6.822
  186POPC   C1421287   4.173   5.020   7.035
  186POPC  H14A21288   4.239   5.072   7.102
  186POPC  H14B21289   4.073   5.035   7.073
  186POPC  H14C21290   4.190   4.913   7.038
  186POPC   C1521291   4.304   5.058   6.842
  186POPC  H15A21292   4.318   4.951   6.844
  186POPC  H15B21293   4.388   5.111   6.884
  186POPC  H15C21294   4.299   5.080   6.736
  186POPC   C1121295   4.052   5.092   6.663
  186POPC  H11A21296   4.072   5.200   6.648
  186POPC  H11B21297   3.945   5.075   6.640
  186POPC     P21298   4.233   5.085   6.469
  186POPC   O1321299   4.315   4.982   6.401
  186POPC   O1421300   4.306   5.189   6.551
  186POPC   O1221301   4.131   5.018   6.570
  186POPC   O1121302   4.132   5.154   6.366
  186POPC    C121303   4.041   5.073   6.292
  186POPC    HA21304   3.939   5.077   6.336
  186POPC    HB21305   4.072   4.966   6.290
  186POPC    C221306   4.034   5.124   6.150
  186POPC    HS21307   3.999   5.230   6.155
  186POPC   O2121308   3.949   5.040   6.071
  186POPC   C2121309   3.815   5.082   6.084
  186POPC   O2221310   3.779   5.177   6.153
  186POPC   C2221311   3.729   5.021   5.979
  186POPC   H2R21312   3.630   4.994   6.022
  186POPC   H2S21313   3.781   4.930   5.945
  186POPC    C321314   4.175   5.121   6.085
  186POPC    HX21315   4.216   5.020   6.106
  186POPC    HY21316   4.240   5.194   6.139
  186POPC   O3121317   4.167   5.145   5.943
  186POPC   C3121318   4.180   5.274   5.909
  186POPC   O3221319   4.174   5.368   5.991
  186POPC   C3221320   4.184   5.297   5.757
  186POPC   H2X21321   4.118   5.230   5.699
  186POPC   H2Y21322   4.282   5.263   5.717
  186POPC   C2321323   3.715   5.119   5.857
  186POPC   H3R21324   3.668   5.216   5.886
  186POPC   H3S21325   3.645   5.079   5.781
  186POPC   C2421326   3.846   5.152   5.794
  186POPC   H4R21327   3.899   5.056   5.775
  186POPC   H4S21328   3.894   5.206   5.878
  186POPC   C2521329   3.821   5.245   5.674
  186POPC   H5R21330   3.910   5.307   5.648
  186POPC   H5S21331   3.733   5.309   5.696
  186POPC   C2621332   3.782   5.163   5.549
  186POPC   H6R21333   3.713   5.081   5.576
  186POPC   H6S21334   3.877   5.112   5.521
  186POPC   C2721335   3.738   5.245   5.430
  186POPC   H7R21336   3.819   5.321   5.419
  186POPC   H7S21337   3.650   5.305   5.460
  186POPC   C2821338   3.719   5.150   5.315
  186POPC   H8R21339   3.618   5.104   5.329
  186POPC   H8S21340   3.794   5.068   5.319
  186POPC   C2921341   3.711   5.230   5.182
  186POPC   H9121342   3.639   5.313   5.190
  186POPC  C21021343   3.770   5.207   5.067
  186POPC  H10121344   3.763   5.276   4.982
  186POPC  C21121345   3.857   5.082   5.041
  186POPC  H11R21346   3.858   5.013   5.128
  186POPC  H11S21347   3.962   5.117   5.035
  186POPC  C21221348   3.818   4.999   4.916
  186POPC  H12R21349   3.709   4.975   4.921
  186POPC  H12S21350   3.880   4.907   4.928
  186POPC  C21321351   3.850   5.072   4.787
  186POPC  H13R21352   3.952   5.114   4.783
  186POPC  H13S21353   3.790   5.164   4.773
  186POPC  C21421354   3.831   4.969   4.669
  186POPC  H14R21355   3.871   4.868   4.694
  186POPC  H14S21356   3.894   5.005   4.584
  186POPC  C21521357   3.685   4.971   4.627
  186POPC  H15R21358   3.657   5.078   4.617
  186POPC  H15S21359   3.618   4.938   4.710
  186POPC  C21621360   3.655   4.894   4.501
  186POPC  H16R21361   3.545   4.897   4.491
  186POPC  H16S21362   3.673   4.787   4.523
  186POPC  C21721363   3.726   4.939   4.369
  186POPC  H17R21364   3.685   4.865   4.296
  186POPC  H17S21365   3.834   4.918   4.379
  186POPC  C21821366   3.715   5.079   4.320
  186POPC  H18R21367   3.763   5.095   4.221
  186POPC  H18S21368   3.755   5.154   4.391
  186POPC  H18T21369   3.607   5.099   4.306
  186POPC   C3321370   4.169   5.441   5.716
  186POPC   H3X21371   4.244   5.495   5.777
  186POPC   H3Y21372   4.071   5.491   5.733
  186POPC   C3421373   4.202   5.466   5.568
  186POPC   H4X21374   4.306   5.429   5.555
  186POPC   H4Y21375   4.213   5.574   5.546
  186POPC   C3521376   4.093   5.425   5.467
  186POPC   H5X21377   4.007   5.492   5.488
  186POPC   H5Y21378   4.059   5.319   5.472
  186POPC   C3621379   4.143   5.444   5.322
  186POPC   H6X21380   4.230   5.376   5.331
  186POPC   H6Y21381   4.189   5.545   5.324
  186POPC   C3721382   4.061   5.401   5.201
  186POPC   H7X21383   3.975   5.468   5.182
  186POPC   H7Y21384   4.021   5.298   5.213
  186POPC   C3821385   4.143   5.393   5.073
  186POPC   H8X21386   4.081   5.355   4.989
  186POPC   H8Y21387   4.218   5.315   5.098
  186POPC   C3921388   4.204   5.532   5.023
  186POPC   H9X21389   4.268   5.566   5.108
  186POPC   H9Y21390   4.128   5.609   4.998
  186POPC  C31021391   4.283   5.514   4.889
  186POPC  H10X21392   4.218   5.457   4.820
  186POPC  H10Y21393   4.367   5.444   4.910
  186POPC  C31121394   4.321   5.649   4.839
  186POPC  H11X21395   4.408   5.624   4.775
  186POPC  H11Y21396   4.353   5.716   4.922
  186POPC  C31221397   4.217   5.715   4.757
  186POPC  H12X21398   4.131   5.763   4.810
  186POPC  H12Y21399   4.177   5.638   4.688
  186POPC  C31321400   4.286   5.830   4.684
  186POPC  H13X21401   4.376   5.805   4.624
  186POPC  H13Y21402   4.324   5.893   4.767
  186POPC  C31421403   4.197   5.929   4.598
  186POPC  H14X21404   4.265   6.002   4.550
  186POPC  H14Y21405   4.140   5.989   4.672
  186POPC  C31521406   4.101   5.856   4.504
  186POPC  H15X21407   4.016   5.819   4.566
  186POPC  H15Y21408   4.145   5.770   4.450
  186POPC  C31621409   4.044   5.947   4.395
  186POPC  H16X21410   3.993   6.039   4.432
  186POPC  H16Y21411   3.979   5.893   4.324
  186POPC  H16Z21412   4.125   5.992   4.334
  187POPC     N21413   6.447   4.722   2.290
  187POPC   C1221414   6.381   4.739   2.426
  187POPC  H12A21415   6.325   4.832   2.425
  187POPC  H12B21416   6.451   4.732   2.508
  187POPC   C1321417   6.358   4.736   2.173
  187POPC  H13A21418   6.417   4.748   2.083
  187POPC  H13B21419   6.276   4.667   2.160
  187POPC  H13C21420   6.308   4.832   2.165
  187POPC   C1421421   6.549   4.837   2.278
  187POPC  H14A21422   6.496   4.930   2.291
  187POPC  H14B21423   6.624   4.835   2.355
  187POPC  H14C21424   6.599   4.842   2.183
  187POPC   C1521425   6.518   4.600   2.273
  187POPC  H15A21426   6.449   4.521   2.247
  187POPC  H15B21427   6.556   4.573   2.371
  187POPC  H15C21428   6.588   4.615   2.193
  187POPC   C1121429   6.264   4.638   2.457
  187POPC  H11A21430   6.216   4.660   2.555
  187POPC  H11B21431   6.316   4.541   2.477
  187POPC     P21432   6.038   4.710   2.347
  187POPC   O1321433   5.923   4.631   2.289
  187POPC   O1421434   6.080   4.832   2.274
  187POPC   O1221435   6.162   4.619   2.355
  187POPC   O1121436   6.008   4.735   2.500
  187POPC    C121437   5.922   4.843   2.528
  187POPC    HA21438   5.823   4.815   2.486
  187POPC    HB21439   5.947   4.942   2.485
  187POPC    C221440   5.901   4.873   2.680
  187POPC    HS21441   6.003   4.894   2.717
  187POPC   O2121442   5.838   4.755   2.739
  187POPC   C2121443   5.857   4.731   2.867
  187POPC   O2221444   5.936   4.781   2.943
  187POPC   C2221445   5.755   4.623   2.912
  187POPC   H2R21446   5.811   4.560   2.984
  187POPC   H2S21447   5.720   4.568   2.822
  187POPC    C321448   5.812   4.996   2.709
  187POPC    HX21449   5.710   4.969   2.674
  187POPC    HY21450   5.849   5.082   2.649
  187POPC   O3121451   5.796   5.023   2.847
  187POPC   C3121452   5.891   5.077   2.920
  187POPC   O3221453   5.991   5.131   2.875
  187POPC   C3221454   5.851   5.082   3.077
  187POPC   H2X21455   5.940   5.039   3.127
  187POPC   H2Y21456   5.762   5.018   3.096
  187POPC   C2321457   5.643   4.682   2.995
  187POPC   H3R21458   5.556   4.615   2.982
  187POPC   H3S21459   5.611   4.781   2.955
  187POPC   C2421460   5.685   4.689   3.139
  187POPC   H4R21461   5.775   4.751   3.160
  187POPC   H4S21462   5.720   4.588   3.169
  187POPC   C2521463   5.568   4.749   3.227
  187POPC   H5R21464   5.477   4.686   3.215
  187POPC   H5S21465   5.554   4.852   3.189
  187POPC   C2621466   5.615   4.758   3.377
  187POPC   H6R21467   5.684   4.845   3.389
  187POPC   H6S21468   5.666   4.662   3.396
  187POPC   C2721469   5.498   4.780   3.474
  187POPC   H7R21470   5.422   4.699   3.471
  187POPC   H7S21471   5.433   4.864   3.440
  187POPC   C2821472   5.543   4.800   3.623
  187POPC   H8R21473   5.462   4.812   3.698
  187POPC   H8S21474   5.607   4.891   3.630
  187POPC   C2921475   5.618   4.676   3.674
  187POPC   H9121476   5.725   4.668   3.650
  187POPC  C21021477   5.558   4.561   3.719
  187POPC  H10121478   5.622   4.476   3.751
  187POPC  C21121479   5.409   4.533   3.753
  187POPC  H11R21480   5.372   4.446   3.693
  187POPC  H11S21481   5.335   4.606   3.715
  187POPC  C21221482   5.384   4.504   3.901
  187POPC  H12R21483   5.278   4.504   3.935
  187POPC  H12S21484   5.429   4.593   3.950
  187POPC  C21321485   5.453   4.380   3.962
  187POPC  H13R21486   5.563   4.384   3.947
  187POPC  H13S21487   5.411   4.294   3.905
  187POPC  C21421488   5.430   4.360   4.110
  187POPC  H14R21489   5.451   4.255   4.139
  187POPC  H14S21490   5.330   4.386   4.148
  187POPC  C21521491   5.533   4.433   4.199
  187POPC  H15R21492   5.527   4.536   4.160
  187POPC  H15S21493   5.639   4.404   4.183
  187POPC  C21621494   5.493   4.419   4.349
  187POPC  H16R21495   5.479   4.310   4.364
  187POPC  H16S21496   5.391   4.460   4.363
  187POPC  C21721497   5.598   4.475   4.453
  187POPC  H17R21498   5.612   4.581   4.424
  187POPC  H17S21499   5.697   4.425   4.447
  187POPC  C21821500   5.549   4.469   4.600
  187POPC  H18R21501   5.463   4.538   4.617
  187POPC  H18S21502   5.638   4.505   4.657
  187POPC  H18T21503   5.526   4.363   4.623
  187POPC   C3321504   5.799   5.221   3.124
  187POPC   H3X21505   5.719   5.261   3.057
  187POPC   H3Y21506   5.880   5.298   3.127
  187POPC   C3421507   5.749   5.204   3.269
  187POPC   H4X21508   5.669   5.126   3.271
  187POPC   H4Y21509   5.707   5.300   3.303
  187POPC   C3521510   5.844   5.162   3.378
  187POPC   H5X21511   5.932   5.230   3.382
  187POPC   H5Y21512   5.881   5.063   3.344
  187POPC   C3621513   5.774   5.121   3.509
  187POPC   H6X21514   5.852   5.084   3.579
  187POPC   H6Y21515   5.705   5.035   3.492
  187POPC   C3721516   5.701   5.238   3.590
  187POPC   H7X21517   5.609   5.259   3.531
  187POPC   H7Y21518   5.755   5.335   3.596
  187POPC   C3821519   5.679   5.192   3.735
  187POPC   H8X21520   5.663   5.082   3.739
  187POPC   H8Y21521   5.584   5.235   3.776
  187POPC   C3921522   5.790   5.229   3.826
  187POPC   H9X21523   5.811   5.337   3.810
  187POPC   H9Y21524   5.881   5.170   3.801
  187POPC  C31021525   5.758   5.210   3.981
  187POPC  H10X21526   5.752   5.099   3.990
  187POPC  H10Y21527   5.655   5.250   3.992
  187POPC  C31121528   5.857   5.279   4.069
  187POPC  H11X21529   5.847   5.387   4.043
  187POPC  H11Y21530   5.958   5.241   4.045
  187POPC  C31221531   5.832   5.256   4.217
  187POPC  H12X21532   5.848   5.148   4.237
  187POPC  H12Y21533   5.722   5.259   4.232
  187POPC  C31321534   5.923   5.344   4.311
  187POPC  H13X21535   5.934   5.442   4.259
  187POPC  H13Y21536   6.030   5.316   4.319
  187POPC  C31421537   5.861   5.358   4.451
  187POPC  H14X21538   5.759   5.397   4.431
  187POPC  H14Y21539   5.923   5.425   4.515
  187POPC  C31521540   5.822   5.225   4.526
  187POPC  H15X21541   5.910   5.164   4.557
  187POPC  H15Y21542   5.750   5.169   4.462
  187POPC  C31621543   5.738   5.244   4.657
  187POPC  H16X21544   5.649   5.306   4.634
  187POPC  H16Y21545   5.795   5.304   4.732
  187POPC  H16Z21546   5.712   5.145   4.700
  188POPC     N21547   5.214   4.624   1.637
  188POPC   C1221548   5.309   4.661   1.751
  188POPC  H12A21549   5.395   4.720   1.722
  188POPC  H12B21550   5.352   4.565   1.778
  188POPC   C1321551   5.294   4.555   1.535
  188POPC  H13A21552   5.223   4.520   1.462
  188POPC  H13B21553   5.362   4.629   1.494
  188POPC  H13C21554   5.350   4.467   1.563
  188POPC   C1421555   5.103   4.534   1.679
  188POPC  H14A21556   5.053   4.576   1.765
  188POPC  H14B21557   5.039   4.514   1.595
  188POPC  H14C21558   5.134   4.435   1.710
  188POPC   C1521559   5.160   4.755   1.593
  188POPC  H15A21560   5.092   4.739   1.510
  188POPC  H15B21561   5.228   4.831   1.558
  188POPC  H15C21562   5.112   4.798   1.679
  188POPC   C1121563   5.262   4.718   1.884
  188POPC  H11A21564   5.343   4.687   1.954
  188POPC  H11B21565   5.161   4.680   1.909
  188POPC     P21566   5.388   4.947   1.895
  188POPC   O1321567   5.339   5.086   1.889
  188POPC   O1421568   5.492   4.911   1.802
  188POPC   O1221569   5.258   4.857   1.871
  188POPC   O1121570   5.444   4.911   2.038
  188POPC    C121571   5.463   5.006   2.142
  188POPC    HA21572   5.459   5.114   2.117
  188POPC    HB21573   5.566   4.992   2.180
  188POPC    C221574   5.384   4.987   2.270
  188POPC    HS21575   5.403   5.070   2.341
  188POPC   O2121576   5.417   4.854   2.334
  188POPC   C2121577   5.490   4.859   2.445
  188POPC   O2221578   5.539   4.960   2.492
  188POPC   C2221579   5.508   4.719   2.510
  188POPC   H2R21580   5.615   4.702   2.536
  188POPC   H2S21581   5.469   4.640   2.441
  188POPC    C321582   5.230   4.980   2.246
  188POPC    HX21583   5.199   4.910   2.165
  188POPC    HY21584   5.196   5.076   2.202
  188POPC   O3121585   5.161   4.948   2.371
  188POPC   C3121586   5.097   5.047   2.431
  188POPC   O3221587   5.066   5.157   2.386
  188POPC   C3221588   5.070   4.995   2.574
  188POPC   H2X21589   5.156   4.944   2.623
  188POPC   H2Y21590   4.976   4.935   2.578
  188POPC   C2321591   5.417   4.695   2.638
  188POPC   H3R21592   5.419   4.789   2.697
  188POPC   H3S21593   5.467   4.614   2.695
  188POPC   C2421594   5.276   4.657   2.607
  188POPC   H4R21595   5.269   4.579   2.528
  188POPC   H4S21596   5.214   4.741   2.569
  188POPC   C2521597   5.216   4.595   2.732
  188POPC   H5R21598   5.193   4.672   2.808
  188POPC   H5S21599   5.294   4.526   2.769
  188POPC   C2621600   5.092   4.511   2.712
  188POPC   H6R21601   5.064   4.461   2.807
  188POPC   H6S21602   5.111   4.431   2.638
  188POPC   C2721603   4.971   4.604   2.670
  188POPC   H7R21604   5.003   4.679   2.594
  188POPC   H7S21605   4.939   4.666   2.756
  188POPC   C2821606   4.850   4.544   2.604
  188POPC   H8R21607   4.869   4.498   2.505
  188POPC   H8S21608   4.779   4.629   2.588
  188POPC   C2921609   4.790   4.446   2.705
  188POPC   H9121610   4.836   4.347   2.695
  188POPC  C21021611   4.693   4.466   2.793
  188POPC  H10121612   4.673   4.386   2.865
  188POPC  C21121613   4.612   4.590   2.817
  188POPC  H11R21614   4.533   4.595   2.740
  188POPC  H11S21615   4.670   4.685   2.810
  188POPC  C21221616   4.541   4.588   2.960
  188POPC  H12R21617   4.453   4.523   2.946
  188POPC  H12S21618   4.500   4.690   2.976
  188POPC  C21321619   4.622   4.563   3.083
  188POPC  H13R21620   4.709   4.632   3.081
  188POPC  H13S21621   4.660   4.459   3.086
  188POPC  C21421622   4.533   4.595   3.205
  188POPC  H14R21623   4.433   4.548   3.198
  188POPC  H14S21624   4.520   4.705   3.210
  188POPC  C21521625   4.594   4.558   3.337
  188POPC  H15R21626   4.688   4.616   3.350
  188POPC  H15S21627   4.621   4.454   3.365
  188POPC  C21621628   4.493   4.596   3.447
  188POPC  H16R21629   4.412   4.521   3.455
  188POPC  H16S21630   4.442   4.694   3.438
  188POPC  C21721631   4.551   4.604   3.589
  188POPC  H17R21632   4.639   4.537   3.592
  188POPC  H17S21633   4.482   4.544   3.652
  188POPC  C21821634   4.586   4.737   3.653
  188POPC  H18R21635   4.611   4.729   3.761
  188POPC  H18S21636   4.508   4.815   3.638
  188POPC  H18T21637   4.680   4.766   3.602
  188POPC   C3321638   5.021   5.104   2.669
  188POPC   H3X21639   4.922   5.145   2.640
  188POPC   H3Y21640   5.096   5.185   2.671
  188POPC   C3421641   4.984   5.065   2.818
  188POPC   H4X21642   5.069   5.009   2.865
  188POPC   H4Y21643   4.902   4.991   2.819
  188POPC   C3521644   4.950   5.198   2.894
  188POPC   H5X21645   4.854   5.227   2.847
  188POPC   H5Y21646   5.026   5.277   2.876
  188POPC   C3621647   4.916   5.177   3.046
  188POPC   H6X21648   5.008   5.194   3.106
  188POPC   H6Y21649   4.882   5.073   3.062
  188POPC   C3721650   4.814   5.286   3.096
  188POPC   H7X21651   4.714   5.256   3.059
  188POPC   H7Y21652   4.849   5.372   3.034
  188POPC   C3821653   4.840   5.327   3.243
  188POPC   H8X21654   4.940   5.366   3.270
  188POPC   H8Y21655   4.832   5.235   3.305
  188POPC   C3921656   4.739   5.428   3.288
  188POPC   H9X21657   4.640   5.383   3.310
  188POPC   H9Y21658   4.745   5.514   3.219
  188POPC  C31021659   4.778   5.480   3.429
  188POPC  H10X21660   4.724   5.577   3.436
  188POPC  H10Y21661   4.888   5.491   3.438
  188POPC  C31121662   4.733   5.393   3.547
  188POPC  H11X21663   4.785   5.295   3.544
  188POPC  H11Y21664   4.628   5.362   3.529
  188POPC  C31221665   4.760   5.451   3.684
  188POPC  H12X21666   4.705   5.547   3.688
  188POPC  H12Y21667   4.867   5.480   3.686
  188POPC  C31321668   4.725   5.377   3.812
  188POPC  H13X21669   4.774   5.277   3.804
  188POPC  H13Y21670   4.616   5.355   3.818
  188POPC  C31421671   4.789   5.442   3.926
  188POPC  H14X21672   4.762   5.391   4.020
  188POPC  H14Y21673   4.741   5.540   3.945
  188POPC  C31521674   4.936   5.470   3.933
  188POPC  H15X21675   4.967   5.553   3.866
  188POPC  H15Y21676   4.988   5.385   3.884
  188POPC  C31621677   4.995   5.475   4.079
  188POPC  H16X21678   5.015   5.583   4.096
  188POPC  H16Y21679   5.086   5.413   4.089
  188POPC  H16Z21680   4.924   5.436   4.155
  189SAPI   C1221681   2.263   4.769   6.785
  189SAPI    H221682   2.221   4.854   6.727
  189SAPI    O221683   2.187   4.758   6.907
  189SAPI   HO221684   2.115   4.821   6.905
  189SAPI   C1321685   2.254   4.655   6.688
  189SAPI    H321686   2.307   4.695   6.599
  189SAPI    O321687   2.118   4.628   6.653
  189SAPI   HO321688   2.059   4.613   6.727
  189SAPI   C1421689   2.319   4.530   6.742
  189SAPI    H421690   2.239   4.508   6.816
  189SAPI    O421691   2.315   4.422   6.646
  189SAPI   HO421692   2.282   4.452   6.561
  189SAPI   C1521693   2.448   4.548   6.805
  189SAPI    H521694   2.518   4.540   6.719
  189SAPI    O521695   2.478   4.444   6.892
  189SAPI   HO521696   2.543   4.384   6.854
  189SAPI   C1621697   2.471   4.678   6.878
  189SAPI    H621698   2.424   4.669   6.978
  189SAPI    O621699   2.609   4.704   6.897
  189SAPI   HO621700   2.650   4.751   6.824
  189SAPI   C1121701   2.414   4.801   6.813
  189SAPI    H121702   2.469   4.809   6.717
  189SAPI     P21703   2.516   5.049   6.828
  189SAPI   O1321704   2.652   4.999   6.788
  189SAPI   O1421705   2.513   5.156   6.930
  189SAPI   O1221706   2.425   4.920   6.885
  189SAPI   O1121707   2.433   5.094   6.701
  189SAPI    C121708   2.291   5.139   6.710
  189SAPI    HA21709   2.220   5.054   6.716
  189SAPI    HB21710   2.276   5.201   6.801
  189SAPI    C221711   2.249   5.237   6.594
  189SAPI    HS21712   2.141   5.261   6.602
  189SAPI   O2121713   2.289   5.199   6.461
  189SAPI   C2121714   2.215   5.098   6.416
  189SAPI   O2221715   2.147   5.024   6.484
  189SAPI   C2221716   2.225   5.106   6.262
  189SAPI   H2R21717   2.139   5.052   6.217
  189SAPI   H2S21718   2.191   5.210   6.242
  189SAPI    C321719   2.301   5.376   6.597
  189SAPI    HX21720   2.412   5.365   6.597
  189SAPI    HY21721   2.274   5.431   6.690
  189SAPI   O3121722   2.261   5.453   6.480
  189SAPI   C3121723   2.343   5.562   6.458
  189SAPI   O3221724   2.436   5.591   6.534
  189SAPI   C3221725   2.294   5.643   6.339
  189SAPI   H2X21726   2.264   5.743   6.379
  189SAPI   H2Y21727   2.198   5.596   6.309
  189SAPI   C2321728   2.364   5.090   6.192
  189SAPI   H3R21729   2.411   4.990   6.198
  189SAPI   H3S21730   2.431   5.162   6.245
  189SAPI   C2421731   2.360   5.147   6.044
  189SAPI   H4R21732   2.461   5.184   6.015
  189SAPI   H4S21733   2.294   5.235   6.031
  189SAPI   C2521734   2.318   5.039   5.953
  189SAPI   H5R21735   2.323   4.937   5.995
  189SAPI   C2621736   2.295   5.051   5.823
  189SAPI   H6R21737   2.249   4.963   5.774
  189SAPI   C2721738   2.282   5.174   5.728
  189SAPI   H7R21739   2.284   5.270   5.783
  189SAPI   H7S21740   2.178   5.177   5.689
  189SAPI   C2821741   2.394   5.160   5.628
  189SAPI   H8R21742   2.494   5.135   5.668
  189SAPI   C2921743   2.389   5.159   5.494
  189SAPI   H9R21744   2.482   5.133   5.441
  189SAPI  C21021745   2.264   5.189   5.406
  189SAPI  H10R21746   2.298   5.267   5.335
  189SAPI  H10S21747   2.189   5.251   5.460
  189SAPI  C21121748   2.203   5.073   5.334
  189SAPI  H11R21749   2.166   4.999   5.407
  189SAPI  C21221750   2.223   5.040   5.201
  189SAPI  H12R21751   2.170   4.947   5.178
  189SAPI  C21321752   2.285   5.122   5.093
  189SAPI  H13R21753   2.364   5.069   5.035
  189SAPI  H13S21754   2.335   5.209   5.141
  189SAPI  C21421755   2.192   5.174   4.987
  189SAPI  H14R21756   2.160   5.279   4.987
  189SAPI  C21521757   2.129   5.097   4.898
  189SAPI  H15R21758   2.058   5.147   4.830
  189SAPI  C21621759   2.154   4.950   4.878
  189SAPI  H16R21760   2.063   4.893   4.904
  189SAPI  H16S21761   2.227   4.910   4.952
  189SAPI  C21721762   2.206   4.941   4.727
  189SAPI  H17R21763   2.232   4.835   4.706
  189SAPI  H17S21764   2.298   5.000   4.705
  189SAPI  C21821765   2.112   4.978   4.601
  189SAPI  H18R21766   2.134   5.084   4.575
  189SAPI  H18S21767   2.014   4.952   4.648
  189SAPI  C21921768   2.125   4.884   4.486
  189SAPI  H19R21769   2.036   4.902   4.421
  189SAPI  H19S21770   2.122   4.780   4.525
  189SAPI  C22021771   2.260   4.915   4.411
  189SAPI  H20R21772   2.347   4.904   4.479
  189SAPI  H20S21773   2.259   5.019   4.372
  189SAPI  H20T21774   2.271   4.844   4.326
  189SAPI   C3321775   2.389   5.654   6.221
  189SAPI   H3X21776   2.487   5.694   6.258
  189SAPI   H3Y21777   2.342   5.729   6.154
  189SAPI   C3421778   2.409   5.525   6.158
  189SAPI   H4X21779   2.314   5.468   6.160
  189SAPI   H4Y21780   2.466   5.453   6.220
  189SAPI   C3521781   2.481   5.534   6.019
  189SAPI   H5X21782   2.517   5.435   5.984
  189SAPI   H5Y21783   2.557   5.615   6.026
  189SAPI   C3621784   2.370   5.557   5.910
  189SAPI   H6X21785   2.308   5.646   5.932
  189SAPI   H6Y21786   2.312   5.462   5.916
  189SAPI   C3721787   2.433   5.575   5.775
  189SAPI   H7X21788   2.505   5.492   5.757
  189SAPI   H7Y21789   2.500   5.664   5.769
  189SAPI   C3821790   2.330   5.593   5.656
  189SAPI   H8X21791   2.250   5.662   5.691
  189SAPI   H8Y21792   2.284   5.492   5.642
  189SAPI   C3921793   2.412   5.620   5.528
  189SAPI   H9X21794   2.503   5.556   5.526
  189SAPI   H9Y21795   2.454   5.722   5.527
  189SAPI  C31021796   2.333   5.584   5.392
  189SAPI  H10X21797   2.258   5.666   5.383
  189SAPI  H10Y21798   2.292   5.482   5.405
  189SAPI  C31121799   2.433   5.586   5.275
  189SAPI  H11X21800   2.509   5.512   5.308
  189SAPI  H11Y21801   2.484   5.685   5.272
  189SAPI  C31221802   2.379   5.522   5.143
  189SAPI  H12X21803   2.311   5.599   5.102
  189SAPI  H12Y21804   2.312   5.435   5.156
  189SAPI  C31321805   2.494   5.481   5.047
  189SAPI  H13X21806   2.538   5.388   5.088
  189SAPI  H13Y21807   2.561   5.569   5.037
  189SAPI  C31421808   2.464   5.442   4.901
  189SAPI  H14X21809   2.462   5.331   4.901
  189SAPI  H14Y21810   2.547   5.481   4.839
  189SAPI  C31521811   2.340   5.492   4.843
  189SAPI  H15X21812   2.347   5.603   4.836
  189SAPI  H15Y21813   2.246   5.471   4.898
  189SAPI  C31621814   2.308   5.432   4.698
  189SAPI  H16X21815   2.217   5.472   4.649
  189SAPI  H16Y21816   2.305   5.321   4.705
  189SAPI  C31721817   2.417   5.466   4.592
  189SAPI  H17X21818   2.508   5.409   4.622
  189SAPI  H17Y21819   2.444   5.574   4.597
  189SAPI  C31821820   2.390   5.418   4.449
  189SAPI  H18X21821   2.476   5.423   4.379
  189SAPI  H18Y21822   2.308   5.475   4.400
  189SAPI  H18Z21823   2.349   5.315   4.452
  190SAPI   C1221824   0.817   3.101   7.031
  190SAPI    H221825   0.872   3.175   6.969
  190SAPI    O221826   0.861   3.098   7.166
  190SAPI   HO221827   0.955   3.085   7.154
  190SAPI   C1321828   0.667   3.138   7.027
  190SAPI    H321829   0.641   3.134   6.920
  190SAPI    O321830   0.649   3.273   7.075
  190SAPI   HO321831   0.693   3.278   7.160
  190SAPI   C1421832   0.576   3.030   7.099
  190SAPI    H421833   0.611   3.043   7.204
  190SAPI    O421834   0.434   3.054   7.096
  190SAPI   HO421835   0.409   3.118   7.163
  190SAPI   C1521836   0.615   2.889   7.060
  190SAPI    H521837   0.556   2.879   6.966
  190SAPI    O521838   0.556   2.788   7.146
  190SAPI   HO521839   0.535   2.710   7.095
  190SAPI   C1621840   0.761   2.853   7.028
  190SAPI    H621841   0.800   2.817   7.125
  190SAPI    O621842   0.782   2.732   6.951
  190SAPI   HO621843   0.738   2.733   6.865
  190SAPI   C1121844   0.845   2.964   6.964
  190SAPI    H121845   0.812   2.973   6.858
  190SAPI     P21846   1.093   2.965   6.848
  190SAPI   O1321847   1.221   2.977   6.929
  190SAPI   O1421848   1.052   3.080   6.763
  190SAPI   O1221849   0.982   2.941   6.965
  190SAPI   O1121850   1.101   2.822   6.778
  190SAPI    C121851   0.989   2.786   6.688
  190SAPI    HA21852   0.898   2.759   6.745
  190SAPI    HB21853   0.951   2.868   6.622
  190SAPI    C221854   1.029   2.663   6.597
  190SAPI    HS21855   1.069   2.588   6.668
  190SAPI   O2121856   1.135   2.709   6.509
  190SAPI   C2121857   1.212   2.618   6.458
  190SAPI   O2221858   1.247   2.515   6.511
  190SAPI   C2221859   1.253   2.667   6.318
  190SAPI   H2R21860   1.226   2.771   6.292
  190SAPI   H2S21861   1.364   2.662   6.316
  190SAPI    C321862   0.902   2.603   6.514
  190SAPI    HX21863   0.887   2.688   6.444
  190SAPI    HY21864   0.812   2.598   6.580
  190SAPI   O3121865   0.933   2.481   6.448
  190SAPI   C3121866   0.882   2.369   6.496
  190SAPI   O3221867   0.806   2.358   6.591
  190SAPI   C3221868   0.938   2.246   6.414
  190SAPI   H2X21869   0.980   2.283   6.317
  190SAPI   H2Y21870   0.854   2.184   6.377
  190SAPI   C2321871   1.214   2.574   6.202
  190SAPI   H3R21872   1.243   2.468   6.220
  190SAPI   H3S21873   1.270   2.607   6.112
  190SAPI   C2421874   1.063   2.581   6.158
  190SAPI   H4R21875   0.996   2.553   6.242
  190SAPI   H4S21876   1.056   2.497   6.086
  190SAPI   C2521877   1.024   2.722   6.107
  190SAPI   H5R21878   1.014   2.795   6.189
  190SAPI   C2621879   1.010   2.767   5.982
  190SAPI   H6R21880   0.992   2.874   5.962
  190SAPI   C2721881   1.027   2.673   5.864
  190SAPI   H7R21882   0.929   2.632   5.831
  190SAPI   H7S21883   1.081   2.581   5.894
  190SAPI   C2821884   1.118   2.718   5.745
  190SAPI   H8R21885   1.224   2.725   5.774
  190SAPI   C2921886   1.071   2.741   5.623
  190SAPI   H9R21887   1.136   2.755   5.535
  190SAPI  C21021888   0.928   2.725   5.583
  190SAPI  H10R21889   0.857   2.755   5.664
  190SAPI  H10S21890   0.916   2.620   5.551
  190SAPI  C21121891   0.885   2.812   5.474
  190SAPI  H11R21892   0.800   2.876   5.503
  190SAPI  C21221893   0.908   2.803   5.339
  190SAPI  H12R21894   0.860   2.882   5.279
  190SAPI  C21321895   1.003   2.714   5.263
  190SAPI  H13R21896   1.091   2.680   5.322
  190SAPI  H13S21897   1.061   2.783   5.199
  190SAPI  C21421898   0.943   2.600   5.188
  190SAPI  H14R21899   0.943   2.503   5.240
  190SAPI  C21521900   0.880   2.605   5.067
  190SAPI  H15R21901   0.834   2.515   5.022
  190SAPI  C21621902   0.871   2.728   4.976
  190SAPI  H16R21903   0.926   2.814   5.020
  190SAPI  H16S21904   0.767   2.764   4.958
  190SAPI  C21721905   0.940   2.702   4.839
  190SAPI  H17R21906   0.920   2.611   4.780
  190SAPI  H17S21907   1.045   2.695   4.876
  190SAPI  C21821908   0.952   2.828   4.751
  190SAPI  H18R21909   0.963   2.916   4.818
  190SAPI  H18S21910   0.855   2.842   4.699
  190SAPI  C21921911   1.063   2.823   4.645
  190SAPI  H19R21912   1.062   2.720   4.604
  190SAPI  H19S21913   1.165   2.843   4.686
  190SAPI  C22021914   1.048   2.921   4.527
  190SAPI  H20R21915   1.065   3.027   4.558
  190SAPI  H20S21916   0.942   2.909   4.498
  190SAPI  H20T21917   1.114   2.886   4.446
  190SAPI   C3321918   1.059   2.169   6.484
  190SAPI   H3X21919   1.034   2.116   6.578
  190SAPI   H3Y21920   1.142   2.241   6.498
  190SAPI   C3421921   1.106   2.054   6.398
  190SAPI   H4X21922   1.014   2.001   6.366
  190SAPI   H4Y21923   1.173   1.988   6.458
  190SAPI   C3521924   1.214   2.092   6.288
  190SAPI   H5X21925   1.257   1.992   6.262
  190SAPI   H5Y21926   1.298   2.156   6.323
  190SAPI   C3621927   1.157   2.158   6.161
  190SAPI   H6X21928   1.141   2.263   6.193
  190SAPI   H6Y21929   1.059   2.116   6.128
  190SAPI   C3721930   1.241   2.165   6.036
  190SAPI   H7X21931   1.260   2.063   5.995
  190SAPI   H7Y21932   1.324   2.234   6.060
  190SAPI   C3821933   1.171   2.240   5.925
  190SAPI   H8X21934   1.136   2.340   5.960
  190SAPI   H8Y21935   1.076   2.186   5.908
  190SAPI   C3921936   1.250   2.243   5.794
  190SAPI   H9X21937   1.250   2.141   5.749
  190SAPI   H9Y21938   1.352   2.283   5.815
  190SAPI  C31021939   1.176   2.324   5.689
  190SAPI  H10X21940   1.183   2.430   5.721
  190SAPI  H10Y21941   1.067   2.306   5.688
  190SAPI  C31121942   1.232   2.318   5.549
  190SAPI  H11X21943   1.214   2.219   5.503
  190SAPI  H11Y21944   1.341   2.334   5.560
  190SAPI  C31221945   1.173   2.418   5.454
  190SAPI  H12X21946   1.179   2.522   5.493
  190SAPI  H12Y21947   1.063   2.409   5.440
  190SAPI  C31321948   1.234   2.415   5.312
  190SAPI  H13X21949   1.344   2.412   5.316
  190SAPI  H13Y21950   1.203   2.504   5.253
  190SAPI  C31421951   1.194   2.296   5.220
  190SAPI  H14X21952   1.084   2.284   5.210
  190SAPI  H14Y21953   1.234   2.210   5.277
  190SAPI  C31521954   1.261   2.298   5.085
  190SAPI  H15X21955   1.262   2.200   5.032
  190SAPI  H15Y21956   1.362   2.340   5.098
  190SAPI  C31621957   1.183   2.390   4.977
  190SAPI  H16X21958   1.183   2.493   5.018
  190SAPI  H16Y21959   1.079   2.351   4.973
  190SAPI  C31721960   1.249   2.388   4.837
  190SAPI  H17X21961   1.268   2.286   4.798
  190SAPI  H17Y21962   1.343   2.445   4.855
  190SAPI  C31821963   1.170   2.469   4.734
  190SAPI  H18X21964   1.213   2.454   4.633
  190SAPI  H18Y21965   1.177   2.579   4.750
  190SAPI  H18Z21966   1.070   2.427   4.715
  191SAPI   C1221967   4.963   3.931   2.499
  191SAPI    H221968   4.876   3.862   2.497
  191SAPI    O221969   5.020   3.915   2.634
  191SAPI   HO221970   5.098   3.968   2.650
  191SAPI   C1321971   5.050   3.875   2.388
  191SAPI    H321972   4.990   3.872   2.294
  191SAPI    O321973   5.085   3.742   2.425
  191SAPI   HO321974   5.160   3.742   2.486
  191SAPI   C1421975   5.172   3.960   2.369
  191SAPI    H421976   5.250   3.939   2.446
  191SAPI    O421977   5.246   3.933   2.249
  191SAPI   HO421978   5.326   3.985   2.250
  191SAPI   C1521979   5.153   4.110   2.371
  191SAPI    H521980   5.133   4.139   2.266
  191SAPI    O521981   5.277   4.173   2.403
  191SAPI   HO521982   5.349   4.141   2.349
  191SAPI   C1621983   5.037   4.171   2.451
  191SAPI    H621984   5.081   4.181   2.553
  191SAPI    O621985   4.992   4.299   2.401
  191SAPI   HO621986   5.041   4.364   2.451
  191SAPI   C1121987   4.916   4.079   2.470
  191SAPI    H121988   4.862   4.080   2.373
  191SAPI     P21989   4.662   4.080   2.577
  191SAPI   O1321990   4.638   3.972   2.482
  191SAPI   O1421991   4.584   4.201   2.549
  191SAPI   O1221992   4.828   4.124   2.578
  191SAPI   O1121993   4.629   4.031   2.723
  191SAPI    C121994   4.722   3.962   2.809
  191SAPI    HA21995   4.823   4.008   2.810
  191SAPI    HB21996   4.691   3.979   2.915
  191SAPI    C221997   4.720   3.812   2.786
  191SAPI    HS21998   4.743   3.789   2.679
  191SAPI   O2121999   4.581   3.770   2.805
  191SAPI   C2122000   4.543   3.649   2.759
  191SAPI   O2222001   4.613   3.575   2.692
  191SAPI   C2222002   4.405   3.606   2.819
  191SAPI   H2R22003   4.349   3.681   2.879
  191SAPI   H2S22004   4.336   3.584   2.735
  191SAPI    C322005   4.812   3.744   2.881
  191SAPI    HX22006   4.914   3.775   2.851
  191SAPI    HY22007   4.805   3.634   2.867
  191SAPI   O3122008   4.792   3.800   3.015
  191SAPI   C3122009   4.740   3.726   3.110
  191SAPI   O3222010   4.710   3.608   3.096
  191SAPI   C3222011   4.704   3.814   3.233
  191SAPI   H2X22012   4.599   3.848   3.220
  191SAPI   H2Y22013   4.770   3.904   3.228
  191SAPI   C2322014   4.426   3.487   2.914
  191SAPI   H3R22015   4.492   3.522   2.996
  191SAPI   H3S22016   4.477   3.402   2.864
  191SAPI   C2422017   4.290   3.437   2.966
  191SAPI   H4R22018   4.282   3.329   2.991
  191SAPI   H4S22019   4.216   3.452   2.885
  191SAPI   C2522020   4.247   3.512   3.093
  191SAPI   H5R22021   4.210   3.611   3.063
  191SAPI   C2622022   4.264   3.489   3.223
  191SAPI   H6R22023   4.247   3.575   3.289
  191SAPI   C2722024   4.334   3.378   3.293
  191SAPI   H7R22025   4.318   3.285   3.235
  191SAPI   H7S22026   4.292   3.349   3.392
  191SAPI   C2822027   4.487   3.387   3.302
  191SAPI   H8R22028   4.538   3.408   3.207
  191SAPI   C2922029   4.566   3.379   3.406
  191SAPI   H9R22030   4.673   3.396   3.392
  191SAPI  C21022031   4.524   3.361   3.552
  191SAPI  H10R22032   4.608   3.385   3.621
  191SAPI  H10S22033   4.506   3.252   3.551
  191SAPI  C21122034   4.409   3.444   3.606
  191SAPI  H11R22035   4.398   3.541   3.556
  191SAPI  C21222036   4.329   3.414   3.711
  191SAPI  H12R22037   4.246   3.482   3.737
  191SAPI  C21322038   4.339   3.297   3.800
  191SAPI  H13R22039   4.418   3.227   3.765
  191SAPI  H13S22040   4.245   3.239   3.791
  191SAPI  C21422041   4.379   3.338   3.935
  191SAPI  H14R22042   4.476   3.385   3.956
  191SAPI  C21522043   4.296   3.310   4.039
  191SAPI  H15R22044   4.333   3.332   4.140
  191SAPI  C21622045   4.167   3.227   4.035
  191SAPI  H16R22046   4.150   3.160   3.948
  191SAPI  H16S22047   4.080   3.296   4.029
  191SAPI  C21722048   4.156   3.132   4.163
  191SAPI  H17R22049   4.251   3.077   4.175
  191SAPI  H17S22050   4.081   3.051   4.150
  191SAPI  C21822051   4.136   3.207   4.303
  191SAPI  H18R22052   4.216   3.273   4.342
  191SAPI  H18S22053   4.110   3.129   4.379
  191SAPI  C21922054   4.025   3.309   4.283
  191SAPI  H19R22055   3.958   3.257   4.211
  191SAPI  H19S22056   4.061   3.405   4.241
  191SAPI  C22022057   3.933   3.355   4.409
  191SAPI  H20R22058   3.895   3.455   4.378
  191SAPI  H20S22059   3.993   3.383   4.498
  191SAPI  H20T22060   3.858   3.279   4.440
  191SAPI   C3322061   4.728   3.730   3.367
  191SAPI   H3X22062   4.838   3.728   3.381
  191SAPI   H3Y22063   4.685   3.628   3.361
  191SAPI   C3422064   4.663   3.794   3.482
  191SAPI   H4X22065   4.555   3.781   3.464
  191SAPI   H4Y22066   4.699   3.896   3.508
  191SAPI   C3522067   4.706   3.710   3.601
  191SAPI   H5X22068   4.817   3.704   3.596
  191SAPI   H5Y22069   4.669   3.606   3.596
  191SAPI   C3622070   4.648   3.753   3.735
  191SAPI   H6X22071   4.538   3.739   3.739
  191SAPI   H6Y22072   4.668   3.861   3.748
  191SAPI   C3722073   4.715   3.674   3.850
  191SAPI   H7X22074   4.822   3.704   3.845
  191SAPI   H7Y22075   4.703   3.564   3.840
  191SAPI   C3822076   4.642   3.719   3.984
  191SAPI   H8X22077   4.534   3.699   3.968
  191SAPI   H8Y22078   4.641   3.826   4.014
  191SAPI   C3922079   4.683   3.625   4.102
  191SAPI   H9X22080   4.691   3.527   4.052
  191SAPI   H9Y22081   4.604   3.617   4.180
  191SAPI  C31022082   4.814   3.671   4.156
  191SAPI  H10X22083   4.810   3.777   4.190
  191SAPI  H10Y22084   4.889   3.653   4.076
  191SAPI  C31122085   4.853   3.577   4.269
  191SAPI  H11X22086   4.958   3.607   4.290
  191SAPI  H11Y22087   4.854   3.470   4.241
  191SAPI  C31222088   4.766   3.607   4.385
  191SAPI  H12X22089   4.669   3.553   4.375
  191SAPI  H12Y22090   4.727   3.711   4.378
  191SAPI  C31322091   4.825   3.584   4.519
  191SAPI  H13X22092   4.918   3.646   4.517
  191SAPI  H13Y22093   4.866   3.480   4.510
  191SAPI  C31422094   4.754   3.608   4.651
  191SAPI  H14X22095   4.671   3.534   4.652
  191SAPI  H14Y22096   4.697   3.704   4.656
  191SAPI  C31522097   4.844   3.602   4.780
  191SAPI  H15X22098   4.912   3.690   4.786
  191SAPI  H15Y22099   4.905   3.509   4.772
  191SAPI  C31622100   4.762   3.578   4.911
  191SAPI  H16X22101   4.827   3.515   4.976
  191SAPI  H16Y22102   4.680   3.507   4.891
  191SAPI  C31722103   4.725   3.702   4.993
  191SAPI  H17X22104   4.806   3.777   5.003
  191SAPI  H17Y22105   4.706   3.680   5.100
  191SAPI  C31822106   4.598   3.769   4.954
  191SAPI  H18X22107   4.515   3.695   4.957
  191SAPI  H18Y22108   4.603   3.805   4.849
  191SAPI  H18Z22109   4.568   3.854   5.019
  192SAPI   C1222110   0.187   6.778   2.178
  192SAPI    H222111   0.208   6.739   2.076
  192SAPI    O222112   0.259   0.075   2.171
  192SAPI   HO222113   0.316   0.080   2.093
  192SAPI   C1322114   0.040   6.793   2.202
  192SAPI    H322115   0.008   6.687   2.208
  192SAPI    O322116   6.807   0.047   2.093
  192SAPI   HO322117   6.715   0.021   2.084
  192SAPI   C1422118   0.012   0.035   2.336
  192SAPI    H422119   0.060   0.134   2.325
  192SAPI    O422120   6.697   0.057   2.358
  192SAPI   HO422121   6.663   0.125   2.300
  192SAPI   C1522122   0.079   6.790   2.456
  192SAPI    H522123   0.017   6.701   2.480
  192SAPI    O522124   0.075   0.040   2.577
  192SAPI   HO522125   0.048   0.130   2.556
  192SAPI   C1622126   0.225   6.732   2.430
  192SAPI    H622127   0.290   6.822   2.440
  192SAPI    O622128   0.249   6.636   2.530
  192SAPI   HO622129   0.321   6.669   2.584
  192SAPI   C1122130   0.248   6.683   2.286
  192SAPI    H122131   0.187   6.591   2.278
  192SAPI     P22132   0.440   6.536   2.170
  192SAPI   O1322133   0.576   6.551   2.117
  192SAPI   O1422134   0.335   6.510   2.072
  192SAPI   O1222135   0.392   6.657   2.268
  192SAPI   O1122136   0.438   6.426   2.284
  192SAPI    C122137   0.549   6.409   2.374
  192SAPI    HA22138   0.640   6.385   2.314
  192SAPI    HB22139   0.570   6.500   2.434
  192SAPI    C222140   0.528   6.291   2.475
  192SAPI    HS22141   0.479   6.212   2.415
  192SAPI   O2122142   0.440   6.351   2.572
  192SAPI   C2122143   0.366   6.264   2.641
  192SAPI   O2222144   0.367   6.142   2.630
  192SAPI   C2222145   0.300   6.350   2.751
  192SAPI   H2R22146   0.380   6.413   2.796
  192SAPI   H2S22147   0.219   6.415   2.710
  192SAPI    C322148   0.662   6.244   2.541
  192SAPI    HX22149   0.728   6.203   2.461
  192SAPI    HY22150   0.635   6.154   2.600
  192SAPI   O3122151   0.733   6.349   2.614
  192SAPI   C3122152   0.717   6.344   2.744
  192SAPI   O3222153   0.657   6.255   2.804
  192SAPI   C3222154   0.781   6.459   2.815
  192SAPI   H2X22155   0.722   6.550   2.792
  192SAPI   H2Y22156   0.881   6.491   2.779
  192SAPI   C2322157   0.227   6.265   2.855
  192SAPI   H3R22158   0.300   6.211   2.919
  192SAPI   H3S22159   0.178   6.187   2.792
  192SAPI   C2422160   0.116   6.337   2.939
  192SAPI   H4R22161   0.064   6.253   2.991
  192SAPI   H4S22162   0.047   6.381   2.864
  192SAPI   C2522163   0.179   6.434   3.038
  192SAPI   H5R22164   0.227   6.521   2.991
  192SAPI   C2622165   0.182   6.423   3.168
  192SAPI   H6R22166   0.229   6.502   3.228
  192SAPI   C2722167   0.130   6.305   3.248
  192SAPI   H7R22168   0.081   6.229   3.183
  192SAPI   H7S22169   0.055   6.334   3.325
  192SAPI   C2822170   0.241   6.241   3.322
  192SAPI   H8R22171   0.332   6.229   3.261
  192SAPI   C2922172   0.259   6.200   3.448
  192SAPI   H9R22173   0.363   6.174   3.473
  192SAPI  C21022174   0.157   6.216   3.560
  192SAPI  H10R22175   0.113   6.117   3.585
  192SAPI  H10S22176   0.072   6.278   3.524
  192SAPI  C21122177   0.217   6.292   3.677
  192SAPI  H11R22178   0.323   6.319   3.687
  192SAPI  C21222179   0.129   6.348   3.764
  192SAPI  H12R22180   0.173   6.407   3.845
  192SAPI  C21322181   6.800   6.341   3.755
  192SAPI  H13R22182   6.779   6.236   3.724
  192SAPI  H13S22183   6.767   6.383   3.658
  192SAPI  C21422184   6.728   6.387   3.872
  192SAPI  H14R22185   6.692   6.491   3.877
  192SAPI  C21522186   6.688   6.300   3.967
  192SAPI  H15R22187   6.642   6.349   4.054
  192SAPI  C21622188   6.722   6.155   3.981
  192SAPI  H16R22189   6.794   6.125   3.901
  192SAPI  H16S22190   6.635   6.086   3.979
  192SAPI  C21722191   6.811   6.142   4.115
  192SAPI  H17R22192   0.063   6.220   4.098
  192SAPI  H17S22193   0.041   6.048   4.133
  192SAPI  C21822194   6.732   6.172   4.250
  192SAPI  H18R22195   6.637   6.115   4.250
  192SAPI  H18S22196   6.718   6.283   4.247
  192SAPI  C21922197   0.001   6.145   4.371
  192SAPI  H19R22198   0.110   6.141   4.347
  192SAPI  H19S22199   6.801   6.041   4.401
  192SAPI  C22022200   6.799   6.227   4.498
  192SAPI  H20R22201   6.689   6.216   4.515
  192SAPI  H20S22202   6.814   6.337   4.489
  192SAPI  H20T22203   0.029   6.196   4.589
  192SAPI   C3322204   0.782   6.432   2.966
  192SAPI   H3X22205   0.844   6.346   2.999
  192SAPI   H3Y22206   0.678   6.398   2.986
  192SAPI   C3422207   0.807   6.560   3.038
  192SAPI   H4X22208   0.736   6.642   3.014
  192SAPI   H4Y22209   0.906   6.607   3.024
  192SAPI   C3522210   0.795   6.551   3.190
  192SAPI   H5X22211   0.687   6.533   3.211
  192SAPI   H5Y22212   0.815   6.651   3.233
  192SAPI   C3622213   0.881   6.456   3.274
  192SAPI   H6X22214   0.986   6.488   3.256
  192SAPI   H6Y22215   0.872   6.358   3.223
  192SAPI   C3722216   0.850   6.458   3.424
  192SAPI   H7X22217   0.810   6.557   3.455
  192SAPI   H7Y22218   0.950   6.443   3.471
  192SAPI   C3822219   0.761   6.344   3.472
  192SAPI   H8X22220   0.823   6.253   3.457
  192SAPI   H8Y22221   0.670   6.335   3.409
  192SAPI   C3922222   0.727   6.351   3.623
  192SAPI   H9X22223   0.679   6.448   3.649
  192SAPI   H9Y22224   0.813   6.348   3.692
  192SAPI  C31022225   0.620   6.245   3.664
  192SAPI  H10X22226   0.661   6.155   3.613
  192SAPI  H10Y22227   0.520   6.258   3.618
  192SAPI  C31122228   0.630   6.215   3.818
  192SAPI  H11X22229   0.620   6.319   3.856
  192SAPI  H11Y22230   0.727   6.171   3.849
  192SAPI  C31222231   0.519   6.116   3.877
  192SAPI  H12X22232   0.528   6.011   3.842
  192SAPI  H12Y22233   0.426   6.151   3.827
  192SAPI  C31322234   0.499   6.103   4.031
  192SAPI  H13X22235   0.478   6.204   4.071
  192SAPI  H13Y22236   0.595   6.060   4.068
  192SAPI  C31422237   0.397   6.003   4.068
  192SAPI  H14X22238   0.429   5.903   4.033
  192SAPI  H14Y22239   0.309   6.024   4.003
  192SAPI  C31522240   0.370   6.002   4.217
  192SAPI  H15X22241   0.321   6.099   4.241
  192SAPI  H15Y22242   0.463   6.003   4.277
  192SAPI  C31622243   0.302   5.879   4.272
  192SAPI  H16X22244   0.359   5.791   4.234
  192SAPI  H16Y22245   0.203   5.864   4.224
  192SAPI  C31722246   0.292   5.873   4.425
  192SAPI  H17X22247   0.224   5.959   4.444
  192SAPI  H17Y22248   0.392   5.880   4.471
  192SAPI  C31822249   0.221   5.744   4.474
  192SAPI  H18X22250   0.125   5.726   4.419
  192SAPI  H18Y22251   0.202   5.750   4.583
  192SAPI  H18Z22252   0.287   5.658   4.454
  193SOD    SOD22253   5.999   1.079   1.455
  194SOD    SOD22254   1.533   6.563   7.076
  195SOD    SOD22255   2.820   2.174   6.851
  196SOD    SOD22256   5.768   3.947   1.085
  197SOD    SOD22257   4.081   2.651   2.262
  198SOD    SOD22258   1.442   6.052   2.373
  199SOD    SOD22259   3.250   2.979   2.206
  200SOD    SOD22260   1.461   1.967   6.723
  201SOD    SOD22261   4.157   5.354   1.610
  202SOD    SOD22262   4.609   3.463   8.250
  203SOD    SOD22263   3.578   3.339   1.225
  204SOD    SOD22264   0.659   1.459   8.208
  205SOD    SOD22265   3.226   6.337   6.498
  206SOD    SOD22266   1.644   5.732   0.117
  207SOD    SOD22267   4.901   0.997   7.724
  208SOD    SOD22268   3.889   0.382   1.517
  209SOD    SOD22269   4.682   1.833   0.821
  210SOD    SOD22270   6.446   0.249   0.048
  211SOD    SOD22271   5.301   2.059   1.444
  212SOD    SOD22272   3.945   5.201   2.176
  213SOD    SOD22273   6.115   0.066   1.133
  214SOD    SOD22274   5.550   3.417   1.562
  215SOD    SOD22275   1.288   6.548   7.618
  216SOD    SOD22276   1.780   6.372   6.321
  217SOD    SOD22277   6.709   4.926   0.675
  218SOD    SOD22278   4.460   2.122   1.846
  219SOD    SOD22279   6.520   0.841   8.201
  220SOD    SOD22280   5.464   1.004   6.957
  221SOD    SOD22281   1.666   1.743   7.399
  222SOD    SOD22282   4.841   1.224   8.326
  223SOD    SOD22283   5.110   3.509   2.050
  224SOD    SOD22284   2.561   6.528   2.598
  225SOD    SOD22285   4.552   4.319   7.165
  226SOD    SOD22286   4.597   0.126   2.460
  227SOD    SOD22287   0.137   2.600   1.793
  228SOD    SOD22288   0.890   2.641   7.341
  229SOD    SOD22289   3.859   0.535   7.518
  230SOD    SOD22290   4.623   3.469   7.687
  231SOD    SOD22291   6.083   3.591   7.751
  232SOD    SOD22292   6.469   2.585   0.353
  233SOD    SOD22293   3.463   0.918   7.298
  234CLA    CLA22294   0.500   2.306   1.886
  235CLA    CLA22295   5.718   2.066   0.700
  236CLA    CLA22296   1.094   6.654   7.795
  237CLA    CLA22297   3.808   0.657   8.360
  238CLA    CLA22298   2.144   0.627   0.772
  239CLA    CLA22299   0.073   2.097   8.252
  240CLA    CLA22300   5.505   4.565   0.832
  241CLA    CLA22301   4.086   2.394   1.580
  242CLA    CLA22302   3.679   3.904   8.122
  243CLA    CLA22303   6.110   2.307   0.452
  244CLA    CLA22304   0.580   6.245   0.624
  245CLA    CLA22305   2.766   6.599   7.756
  246CLA    CLA22306   6.147   4.177   0.965
  247CLA    CLA22307   4.152   1.426   0.050
  248CLA    CLA22308   4.671   1.512   7.283
  249CLA    CLA22309   4.331   0.489   8.756
  250CLA    CLA22310   1.724   4.721   1.543
  251TIP3   OH222311   4.481   0.194   1.759
  251TIP3    H122312   4.448   0.105   1.757
  251TIP3    H222313   4.556   0.191   1.819
  252TIP3   OH222314   0.015   5.438   0.399
  252TIP3    H122315   0.063   5.361   0.429
  252TIP3    H222316   0.036   5.506   0.463
  253TIP3   OH222317   4.007   3.926   0.768
  253TIP3    H122318   4.088   3.977   0.769
  253TIP3    H222319   3.964   3.950   0.686
  254TIP3   OH222320   3.543   5.282   6.208
  254TIP3    H122321   3.635   5.258   6.197
  254TIP3    H222322   3.542   5.377   6.197
  255TIP3   OH222323   2.547   1.661   2.311
  255TIP3    H122324   2.533   1.754   2.331
  255TIP3    H222325   2.466   1.634   2.268
  256TIP3   OH222326   6.673   5.741   0.541
  256TIP3    H122327   6.687   5.696   0.458
  256TIP3    H222328   6.678   5.672   0.607
  257TIP3   OH222329   0.404   5.130   1.980
  257TIP3    H122330   0.468   5.071   1.940
  257TIP3    H222331   0.333   5.136   1.915
  258TIP3   OH222332   3.079   1.203   8.564
  258TIP3    H122333   3.005   1.156   8.527
  258TIP3    H222334   3.053   1.222   8.654
  259TIP3   OH222335   1.418   1.253   0.843
  259TIP3    H122336   1.453   1.332   0.884
  259TIP3    H222337   1.496   1.203   0.817
  260TIP3   OH222338   2.837   6.160   1.610
  260TIP3    H122339   2.912   6.123   1.564
  260TIP3    H222340   2.763   6.148   1.551
  261TIP3   OH222341   1.161   3.217   2.209
  261TIP3    H122342   1.243   3.207   2.161
  261TIP3    H222343   1.183   3.196   2.299
  262TIP3   OH222344   4.672   1.314   0.305
  262TIP3    H122345   4.608   1.288   0.239
  262TIP3    H222346   4.710   1.395   0.271
  263TIP3   OH222347   1.034   6.789   0.822
  263TIP3    H122348   0.948   6.756   0.846
  263TIP3    H222349   1.088   6.775   0.900
  264TIP3   OH222350   3.668   0.041   1.744
  264TIP3    H122351   3.586   6.822   1.722
  264TIP3    H222352   3.734   6.798   1.741
  265TIP3   OH222353   6.809   5.408   2.133
  265TIP3    H122354   6.771   5.370   2.213
  265TIP3    H222355   0.068   5.365   2.124
  266TIP3   OH222356   2.614   2.066   6.801
  266TIP3    H122357   2.557   2.073   6.724
  266TIP3    H222358   2.567   2.008   6.861
  267TIP3   OH222359   2.484   2.554   1.361
  267TIP3    H122360   2.498   2.460   1.348
  267TIP3    H222361   2.507   2.569   1.453
  268TIP3   OH222362   3.835   1.287   7.214
  268TIP3    H122363   3.772   1.291   7.142
  268TIP3    H222364   3.876   1.374   7.214
  269TIP3   OH222365   4.165   0.863   7.701
  269TIP3    H122366   4.093   0.898   7.647
  269TIP3    H222367   4.121   0.822   7.775
  270TIP3   OH222368   0.367   2.735   6.637
  270TIP3    H122369   0.334   2.729   6.727
  270TIP3    H222370   0.342   2.823   6.608
  271TIP3   OH222371   1.337   5.925   8.399
  271TIP3    H122372   1.283   5.861   8.444
  271TIP3    H222373   1.425   5.887   8.399
  272TIP3   OH222374   0.208   0.878   1.777
  272TIP3    H122375   0.259   0.797   1.774
  272TIP3    H222376   0.255   0.933   1.839
  273TIP3   OH222377   6.758   3.575   7.309
  273TIP3    H122378   6.705   3.565   7.230
  273TIP3    H222379   6.715   3.645   7.358
  274TIP3   OH222380   0.512   2.738   1.007
  274TIP3    H122381   0.509   2.644   1.023
  274TIP3    H222382   0.450   2.752   0.936
  275TIP3   OH222383   6.204   5.036   0.731
  275TIP3    H122384   6.239   4.947   0.723
  275TIP3    H222385   6.209   5.056   0.824
  276TIP3   OH222386   6.323   4.341   2.045
  276TIP3    H122387   6.285   4.323   1.958
  276TIP3    H222388   6.395   4.278   2.053
  277TIP3   OH222389   6.008   4.139   2.367
  277TIP3    H122390   6.037   4.048   2.368
  277TIP3    H222391   6.089   4.189   2.353
  278TIP3   OH222392   1.797   6.691   2.169
  278TIP3    H122393   1.707   6.702   2.197
  278TIP3    H222394   1.827   6.611   2.212
  279TIP3   OH222395   6.236   5.638   6.162
  279TIP3    H122396   6.143   5.649   6.144
  279TIP3    H222397   6.275   5.723   6.141
  280TIP3   OH222398   6.553   5.159   7.399
  280TIP3    H122399   6.540   5.237   7.454
  280TIP3    H222400   6.543   5.191   7.310
  281TIP3   OH222401   4.664   4.359   1.602
  281TIP3    H122402   4.658   4.407   1.684
  281TIP3    H222403   4.733   4.294   1.617
  282TIP3   OH222404   4.784   5.196   0.242
  282TIP3    H122405   4.762   5.114   0.288
  282TIP3    H222406   4.793   5.260   0.312
  283TIP3   OH222407   2.718   4.527   1.860
  283TIP3    H122408   2.802   4.518   1.815
  283TIP3    H222409   2.731   4.598   1.922
  284TIP3   OH222410   2.224   2.166   0.385
  284TIP3    H122411   2.274   2.150   0.465
  284TIP3    H222412   2.161   2.234   0.408
  285TIP3   OH222413   6.789   3.590   1.290
  285TIP3    H122414   6.789   3.633   1.204
  285TIP3    H222415   6.769   3.661   1.352
  286TIP3   OH222416   3.816   3.012   7.654
  286TIP3    H122417   3.873   3.080   7.617
  286TIP3    H222418   3.766   2.979   7.579
  287TIP3   OH222419   2.121   6.207   7.234
  287TIP3    H122420   2.216   6.222   7.235
  287TIP3    H222421   2.108   6.140   7.167
  288TIP3   OH222422   5.293   5.374   7.441
  288TIP3    H122423   5.200   5.377   7.464
  288TIP3    H222424   5.336   5.431   7.506
  289TIP3   OH222425   2.640   6.019   7.729
  289TIP3    H122426   2.665   6.013   7.637
  289TIP3    H222427   2.551   6.054   7.728
  290TIP3   OH222428   1.287   4.493   2.116
  290TIP3    H122429   1.346   4.438   2.064
  290TIP3    H222430   1.317   4.582   2.100
  291TIP3   OH222431   5.592   1.651   8.357
  291TIP3    H122432   5.573   1.710   8.284
  291TIP3    H222433   5.675   1.684   8.393
  292TIP3   OH222434   1.148   5.143   8.267
  292TIP3    H122435   1.109   5.097   8.193
  292TIP3    H222436   1.217   5.084   8.298
  293TIP3   OH222437   4.256   3.587   1.425
  293TIP3    H122438   4.291   3.518   1.369
  293TIP3    H222439   4.287   3.566   1.513
  294TIP3   OH222440   3.561   5.917   8.627
  294TIP3    H122441   3.513   5.912   8.710
  294TIP3    H222442   3.559   5.828   8.593
  295TIP3   OH222443   1.304   4.151   8.169
  295TIP3    H122444   1.227   4.196   8.203
  295TIP3    H222445   1.378   4.204   8.197
  296TIP3   OH222446   6.152   1.333   0.726
  296TIP3    H122447   6.231   1.382   0.703
  296TIP3    H222448   6.180   1.242   0.727
  297TIP3   OH222449   6.139   2.804   0.451
  297TIP3    H122450   6.187   2.723   0.466
  297TIP3    H222451   6.051   2.785   0.484
  298TIP3   OH222452   2.071   6.016   7.684
  298TIP3    H122453   2.111   5.965   7.755
  298TIP3    H222454   2.060   5.953   7.613
  299TIP3   OH222455   6.428   6.121   7.602
  299TIP3    H122456   6.383   6.158   7.526
  299TIP3    H222457   6.521   6.137   7.584
  300TIP3   OH222458   4.604   4.859   1.208
  300TIP3    H122459   4.586   4.791   1.144
  300TIP3    H222460   4.674   4.912   1.169
  301TIP3   OH222461   6.803   4.006   8.735
  301TIP3    H122462   0.041   4.000   8.664
  301TIP3    H222463   0.028   3.987   0.033
  302TIP3   OH222464   0.063   2.585   7.113
  302TIP3    H122465   6.817   2.639   7.079
  302TIP3    H222466   0.088   2.528   7.040
  303TIP3   OH222467   5.596   1.331   0.007
  303TIP3    H122468   5.541   1.408   8.775
  303TIP3    H222469   5.536   1.265   0.044
  304TIP3   OH222470   3.345   6.287   8.233
  304TIP3    H122471   3.341   6.234   8.154
  304TIP3    H222472   3.294   6.238   8.297
  305TIP3   OH222473   5.617   0.798   1.279
  305TIP3    H122474   5.567   0.838   1.208
  305TIP3    H222475   5.579   0.836   1.359
  306TIP3   OH222476   4.500   0.838   1.163
  306TIP3    H122477   4.529   0.815   1.074
  306TIP3    H222478   4.561   0.907   1.190
  307TIP3   OH222479   1.380   0.354   6.214
  307TIP3    H122480   1.435   0.425   6.246
  307TIP3    H222481   1.332   0.392   6.140
  308TIP3   OH222482   6.699   3.399   1.847
  308TIP3    H122483   6.671   3.487   1.874
  308TIP3    H222484   6.735   3.359   1.926
  309TIP3   OH222485   5.302   4.409   1.161
  309TIP3    H122486   5.233   4.419   1.226
  309TIP3    H222487   5.277   4.468   1.090
  310TIP3   OH222488   0.318   0.424   6.905
  310TIP3    H122489   0.413   0.437   6.905
  310TIP3    H222490   0.288   0.464   6.823
  311TIP3   OH222491   0.374   1.720   1.571
  311TIP3    H122492   0.359   1.687   1.660
  311TIP3    H222493   0.419   1.803   1.583
  312TIP3   OH222494   5.043   0.754   0.448
  312TIP3    H122495   4.954   0.731   0.471
  312TIP3    H222496   5.095   0.677   0.471
  313TIP3   OH222497   2.011   1.478   8.245
  313TIP3    H122498   1.922   1.464   8.213
  313TIP3    H222499   2.042   1.554   8.196
  314TIP3   OH222500   2.554   0.089   1.129
  314TIP3    H122501   2.649   0.081   1.118
  314TIP3    H222502   2.534   0.177   1.096
  315TIP3   OH222503   4.402   2.289   8.244
  315TIP3    H122504   4.471   2.342   8.284
  315TIP3    H222505   4.339   2.274   8.315
  316TIP3   OH222506   3.376   1.508   8.367
  316TIP3    H122507   3.464   1.490   8.402
  316TIP3    H222508   3.391   1.569   8.295
  317TIP3   OH222509   5.294   2.891   7.598
  317TIP3    H122510   5.306   2.953   7.526
  317TIP3    H222511   5.374   2.900   7.650
  318TIP3   OH222512   1.419   6.064   8.713
  318TIP3    H122513   1.450   6.088   8.626
  318TIP3    H222514   1.441   6.139   8.768
  319TIP3   OH222515   1.328   6.009   7.291
  319TIP3    H122516   1.241   5.981   7.320
  319TIP3    H222517   1.379   5.929   7.287
  320TIP3   OH222518   3.817   3.758   1.527
  320TIP3    H122519   3.899   3.800   1.551
  320TIP3    H222520   3.793   3.706   1.604
  321TIP3   OH222521   1.705   5.444   7.511
  321TIP3    H122522   1.703   5.435   7.607
  321TIP3    H222523   1.727   5.357   7.479
  322TIP3   OH222524   4.142   5.372   0.569
  322TIP3    H122525   4.203   5.433   0.609
  322TIP3    H222526   4.196   5.297   0.544
  323TIP3   OH222527   3.786   1.117   2.358
  323TIP3    H122528   3.758   1.179   2.290
  323TIP3    H222529   3.717   1.051   2.360
  324TIP3   OH222530   2.985   1.797   1.523
  324TIP3    H122531   3.059   1.751   1.482
  324TIP3    H222532   2.914   1.733   1.522
  325TIP3   OH222533   3.654   2.459   6.677
  325TIP3    H122534   3.578   2.453   6.619
  325TIP3    H222535   3.706   2.531   6.642
  326TIP3   OH222536   1.328   3.581   6.239
  326TIP3    H122537   1.299   3.668   6.212
  326TIP3    H222538   1.386   3.596   6.313
  327TIP3   OH222539   3.899   1.367   7.815
  327TIP3    H122540   3.960   1.440   7.811
  327TIP3    H222541   3.908   1.333   7.904
  328TIP3   OH222542   3.710   2.158   6.616
  328TIP3    H122543   3.727   2.248   6.589
  328TIP3    H222544   3.796   2.116   6.617
  329TIP3   OH222545   0.654   5.667   8.064
  329TIP3    H122546   0.638   5.761   8.076
  329TIP3    H222547   0.583   5.625   8.114
  330TIP3   OH222548   5.564   4.285   7.805
  330TIP3    H122549   5.585   4.297   7.898
  330TIP3    H222550   5.537   4.371   7.775
  331TIP3   OH222551   0.922   5.551   8.547
  331TIP3    H122552   0.963   5.472   8.512
  331TIP3    H222553   0.878   5.591   8.472
  332TIP3   OH222554   5.146   0.472   7.899
  332TIP3    H122555   5.194   0.416   7.838
  332TIP3    H222556   5.086   0.521   7.844
  333TIP3   OH222557   2.140   0.254   1.177
  333TIP3    H122558   2.151   0.337   1.132
  333TIP3    H222559   2.045   0.245   1.188
  334TIP3   OH222560   6.268   0.176   6.491
  334TIP3    H122561   6.331   0.203   6.424
  334TIP3    H222562   6.245   0.257   6.537
  335TIP3   OH222563   1.418   3.098   1.290
  335TIP3    H122564   1.493   3.041   1.305
  335TIP3    H222565   1.371   3.098   1.374
  336TIP3   OH222566   1.319   3.727   7.969
  336TIP3    H122567   1.316   3.822   7.983
  336TIP3    H222568   1.247   3.693   8.022
  337TIP3   OH222569   2.475   4.888   8.356
  337TIP3    H122570   2.405   4.832   8.323
  337TIP3    H222571   2.503   4.846   8.438
  338TIP3   OH222572   1.849   3.873   7.512
  338TIP3    H122573   1.891   3.844   7.593
  338TIP3    H222574   1.794   3.947   7.538
  339TIP3   OH222575   0.520   0.191   8.525
  339TIP3    H122576   0.478   0.276   8.512
  339TIP3    H222577   0.613   0.211   8.529
  340TIP3   OH222578   0.058   4.028   6.827
  340TIP3    H122579   0.051   3.973   6.749
  340TIP3    H222580   0.038   4.116   6.796
  341TIP3   OH222581   3.915   3.605   7.486
  341TIP3    H122582   3.974   3.538   7.452
  341TIP3    H222583   3.970   3.683   7.495
  342TIP3   OH222584   2.410   6.630   8.742
  342TIP3    H122585   2.452   6.577   0.029
  342TIP3    H222586   2.478   6.641   8.675
  343TIP3   OH222587   5.452   0.820   6.450
  343TIP3    H122588   5.482   0.902   6.489
  343TIP3    H222589   5.357   0.830   6.442
  344TIP3   OH222590   3.121   5.728   1.036
  344TIP3    H122591   3.158   5.658   1.089
  344TIP3    H222592   3.088   5.792   1.099
  345TIP3   OH222593   5.484   4.735   1.328
  345TIP3    H122594   5.414   4.800   1.341
  345TIP3    H222595   5.469   4.702   1.239
  346TIP3   OH222596   4.557   4.340   0.894
  346TIP3    H122597   4.596   4.291   0.966
  346TIP3    H222598   4.491   4.395   0.935
  347TIP3   OH222599   6.488   4.120   8.095
  347TIP3    H122600   6.520   4.087   8.011
  347TIP3    H222601   6.448   4.204   8.073
  348TIP3   OH222602   4.533   2.375   7.942
  348TIP3    H122603   4.454   2.423   7.917
  348TIP3    H222604   4.505   2.319   8.014
  349TIP3   OH222605   3.703   5.991   1.262
  349TIP3    H122606   3.672   6.081   1.273
  349TIP3    H222607   3.798   6.000   1.255
  350TIP3   OH222608   1.808   2.296   7.397
  350TIP3    H122609   1.776   2.367   7.452
  350TIP3    H222610   1.894   2.325   7.367
  351TIP3   OH222611   1.014   2.977   7.534
  351TIP3    H122612   1.086   3.020   7.490
  351TIP3    H222613   1.027   2.996   7.627
  352TIP3   OH222614   3.630   0.110   7.706
  352TIP3    H122615   3.604   0.019   7.717
  352TIP3    H222616   3.713   0.117   7.752
  353TIP3   OH222617   4.470   4.576   8.133
  353TIP3    H122618   4.456   4.493   8.180
  353TIP3    H222619   4.386   4.622   8.141
  354TIP3   OH222620   5.552   4.204   0.373
  354TIP3    H122621   5.569   4.157   0.455
  354TIP3    H222622   5.614   4.166   0.311
  355TIP3   OH222623   0.740   3.372   7.338
  355TIP3    H122624   0.801   3.445   7.347
  355TIP3    H222625   0.784   3.299   7.381
  356TIP3   OH222626   3.715   5.218   7.935
  356TIP3    H122627   3.796   5.200   7.983
  356TIP3    H222628   3.675   5.131   7.923
  357TIP3   OH222629   3.777   1.492   0.304
  357TIP3    H122630   3.795   1.573   0.256
  357TIP3    H222631   3.820   1.424   0.253
  358TIP3   OH222632   3.194   3.643   1.925
  358TIP3    H122633   3.267   3.591   1.959
  358TIP3    H222634   3.117   3.587   1.936
  359TIP3   OH222635   4.606   4.575   1.778
  359TIP3    H122636   4.541   4.646   1.781
  359TIP3    H222637   4.616   4.548   1.870
  360TIP3   OH222638   4.529   5.987   8.242
  360TIP3    H122639   4.459   5.967   8.304
  360TIP3    H222640   4.593   5.917   8.253
  361TIP3   OH222641   4.991   4.324   7.901
  361TIP3    H122642   4.963   4.413   7.879
  361TIP3    H222643   5.015   4.329   7.994
  362TIP3   OH222644   1.899   1.189   8.577
  362TIP3    H122645   1.916   1.270   8.625
  362TIP3    H222646   1.808   1.168   8.596
  363TIP3   OH222647   6.475   6.152   1.263
  363TIP3    H122648   6.565   6.141   1.293
  363TIP3    H222649   6.445   6.064   1.243
  364TIP3   OH222650   2.936   1.627   2.503
  364TIP3    H122651   2.981   1.709   2.524
  364TIP3    H222652   2.898   1.642   2.417
  365TIP3   OH222653   1.423   0.657   1.251
  365TIP3    H122654   1.507   0.657   1.204
  365TIP3    H222655   1.397   0.749   1.252
  366TIP3   OH222656   2.739   4.622   8.530
  366TIP3    H122657   2.762   4.531   8.511
  366TIP3    H222658   2.787   4.672   8.464
  367TIP3   OH222659   6.765   5.442   8.544
  367TIP3    H122660   6.777   5.503   8.616
  367TIP3    H222661   6.703   5.377   8.577
  368TIP3   OH222662   0.110   4.992   0.848
  368TIP3    H122663   0.081   4.903   0.870
  368TIP3    H222664   0.203   4.983   0.830
  369TIP3   OH222665   4.991   0.317   2.443
  369TIP3    H122666   4.910   0.268   2.444
  369TIP3    H222667   4.965   0.408   2.429
  370TIP3   OH222668   4.322   1.497   2.018
  370TIP3    H122669   4.344   1.417   1.969
  370TIP3    H222670   4.373   1.490   2.098
  371TIP3   OH222671   4.962   0.736   2.786
  371TIP3    H122672   4.909   0.815   2.773
  371TIP3    H222673   5.037   0.748   2.728
  372TIP3   OH222674   2.518   1.161   0.525
  372TIP3    H122675   2.540   1.213   0.448
  372TIP3    H222676   2.558   1.076   0.508
  373TIP3   OH222677   6.514   6.730   0.483
  373TIP3    H122678   6.599   6.697   0.454
  373TIP3    H222679   6.451   6.666   0.450
  374TIP3   OH222680   3.617   5.531   1.250
  374TIP3    H122681   3.635   5.619   1.218
  374TIP3    H222682   3.675   5.521   1.326
  375TIP3   OH222683   6.023   6.227   8.765
  375TIP3    H122684   6.057   6.291   0.046
  375TIP3    H222685   6.084   6.230   8.691
  376TIP3   OH222686   3.477   1.984   1.590
  376TIP3    H122687   3.475   1.955   1.681
  376TIP3    H222688   3.407   2.049   1.583
  377TIP3   OH222689   5.537   1.587   0.315
  377TIP3    H122690   5.597   1.659   0.300
  377TIP3    H222691   5.576   1.537   0.387
  378TIP3   OH222692   2.253   4.370   8.709
  378TIP3    H122693   2.269   4.396   0.019
  378TIP3    H222694   2.317   4.420   8.658
  379TIP3   OH222695   2.961   5.023   1.751
  379TIP3    H122696   2.962   5.039   1.846
  379TIP3    H222697   2.966   4.928   1.743
  380TIP3   OH222698   0.902   2.590   0.064
  380TIP3    H122699   0.937   2.677   0.044
  380TIP3    H222700   0.897   2.547   8.760
  381TIP3   OH222701   6.784   0.118   0.520
  381TIP3    H122702   6.788   0.175   0.597
  381TIP3    H222703   0.018   0.158   0.457
  382TIP3   OH222704   5.225   4.600   0.972
  382TIP3    H122705   5.203   4.689   0.999
  382TIP3    H222706   5.304   4.610   0.918
  383TIP3   OH222707   0.711   1.385   2.232
  383TIP3    H122708   0.772   1.326   2.188
  383TIP3    H222709   0.756   1.469   2.235
  384TIP3   OH222710   5.684   5.404   6.645
  384TIP3    H122711   5.773   5.370   6.647
  384TIP3    H222712   5.682   5.470   6.714
  385TIP3   OH222713   6.359   2.655   7.913
  385TIP3    H122714   6.371   2.746   7.939
  385TIP3    H222715   6.284   2.656   7.853
  386TIP3   OH222716   3.942   1.222   1.453
  386TIP3    H122717   3.980   1.135   1.466
  386TIP3    H222718   3.851   1.204   1.429
  387TIP3   OH222719   6.574   3.979   0.977
  387TIP3    H122720   6.492   3.940   1.006
  387TIP3    H222721   6.576   4.065   1.018
  388TIP3   OH222722   5.954   0.492   6.960
  388TIP3    H122723   5.885   0.453   6.906
  388TIP3    H222724   5.909   0.558   7.013
  389TIP3   OH222725   6.165   3.856   8.348
  389TIP3    H122726   6.119   3.869   8.430
  389TIP3    H222727   6.242   3.913   8.354
  390TIP3   OH222728   5.215   1.614   0.997
  390TIP3    H122729   5.122   1.593   1.010
  390TIP3    H222730   5.257   1.582   1.077
  391TIP3   OH222731   4.696   5.446   6.853
  391TIP3    H122732   4.635   5.485   6.790
  391TIP3    H222733   4.680   5.352   6.847
  392TIP3   OH222734   4.043   1.728   1.504
  392TIP3    H122735   3.972   1.756   1.447
  392TIP3    H222736   4.042   1.790   1.577
  393TIP3   OH222737   1.669   0.918   1.096
  393TIP3    H122738   1.677   1.007   1.059
  393TIP3    H222739   1.757   0.897   1.126
  394TIP3   OH222740   2.593   2.867   0.038
  394TIP3    H122741   2.668   2.843   0.093
  394TIP3    H222742   2.524   2.805   0.063
  395TIP3   OH222743   3.953   3.238   8.401
  395TIP3    H122744   3.888   3.262   8.335
  395TIP3    H222745   3.962   3.317   8.455
  396TIP3   OH222746   1.162   1.266   0.945
  396TIP3    H122747   1.251   1.274   0.911
  396TIP3    H222748   1.163   1.315   1.027
  397TIP3   OH222749   5.391   1.003   1.798
  397TIP3    H122750   5.319   0.964   1.749
  397TIP3    H222751   5.402   0.946   1.874
  398TIP3   OH222752   0.769   4.115   0.784
  398TIP3    H122753   0.795   4.024   0.800
  398TIP3    H222754   0.766   4.122   0.688
  399TIP3   OH222755   5.224   3.694   8.662
  399TIP3    H122756   5.186   3.609   8.636
  399TIP3    H222757   5.318   3.679   8.663
  400TIP3   OH222758   1.097   6.460   2.379
  400TIP3    H122759   1.101   6.380   2.431
  400TIP3    H222760   1.188   6.487   2.369
  401TIP3   OH222761   4.458   6.346   1.137
  401TIP3    H122762   4.536   6.295   1.157
  401TIP3    H222763   4.403   6.338   1.216
  402TIP3   OH222764   6.675   6.197   7.478
  402TIP3    H122765   6.765   6.232   7.478
  402TIP3    H222766   6.673   6.136   7.405
  403TIP3   OH222767   6.320   6.523   7.438
  403TIP3    H122768   6.344   6.547   7.348
  403TIP3    H222769   6.398   6.545   7.490
  404TIP3   OH222770   3.783   6.115   0.071
  404TIP3    H122771   3.801   6.186   0.133
  404TIP3    H222772   3.826   6.143   8.771
  405TIP3   OH222773   4.410   0.513   7.906
  405TIP3    H122774   4.448   0.427   7.885
  405TIP3    H222775   4.334   0.492   7.961
  406TIP3   OH222776   0.439   1.376   7.856
  406TIP3    H122777   0.346   1.394   7.853
  406TIP3    H222778   0.456   1.325   7.776
  407TIP3   OH222779   3.203   6.073   7.038
  407TIP3    H122780   3.115   6.106   7.021
  407TIP3    H222781   3.224   6.021   6.961
  408TIP3   OH222782   2.001   2.381   0.266
  408TIP3    H122783   2.035   2.452   0.321
  408TIP3    H222784   2.034   2.400   0.178
  409TIP3   OH222785   0.246   5.243   1.775
  409TIP3    H122786   0.207   5.155   1.769
  409TIP3    H222787   0.240   5.278   1.686
  410TIP3   OH222788   4.123   1.034   0.255
  410TIP3    H122789   4.070   0.979   0.313
  410TIP3    H222790   4.154   0.975   0.187
  411TIP3   OH222791   5.943   4.478   0.796
  411TIP3    H122792   5.893   4.450   0.872
  411TIP3    H222793   5.889   4.452   0.721
  412TIP3   OH222794   2.866   4.331   7.496
  412TIP3    H122795   2.823   4.251   7.525
  412TIP3    H222796   2.870   4.323   7.401
  413TIP3   OH222797   1.698   0.757   7.892
  413TIP3    H122798   1.749   0.683   7.859
  413TIP3    H222799   1.676   0.732   7.982
  414TIP3   OH222800   4.991   0.976   2.295
  414TIP3    H122801   4.959   1.062   2.322
  414TIP3    H222802   4.915   0.934   2.255
  415TIP3   OH222803   6.774   2.715   0.646
  415TIP3    H122804   6.793   2.625   0.674
  415TIP3    H222805   6.794   2.715   0.553
  416TIP3   OH222806   1.695   2.502   7.948
  416TIP3    H122807   1.733   2.462   8.026
  416TIP3    H222808   1.601   2.486   7.957
  417TIP3   OH222809   5.113   6.152   6.825
  417TIP3    H122810   5.073   6.226   6.780
  417TIP3    H222811   5.150   6.099   6.754
  418TIP3   OH222812   3.878   0.340   1.923
  418TIP3    H122813   3.916   0.423   1.893
  418TIP3    H222814   3.830   0.308   1.846
  419TIP3   OH222815   6.165   4.501   7.639
  419TIP3    H122816   6.130   4.447   7.568
  419TIP3    H222817   6.257   4.475   7.644
  420TIP3   OH222818   4.937   5.983   7.253
  420TIP3    H122819   4.898   5.912   7.202
  420TIP3    H222820   4.867   6.015   7.310
  421TIP3   OH222821   5.681   2.178   8.020
  421TIP3    H122822   5.710   2.134   8.100
  421TIP3    H222823   5.732   2.137   7.951
  422TIP3   OH222824   4.185   3.070   0.928
  422TIP3    H122825   4.157   3.151   0.970
  422TIP3    H222826   4.150   3.000   0.983
  423TIP3   OH222827   2.677   0.067   0.285
  423TIP3    H122828   2.697   0.109   0.202
  423TIP3    H222829   2.584   0.086   0.300
  424TIP3   OH222830   5.618   1.320   8.398
  424TIP3    H122831   5.532   1.336   8.437
  424TIP3    H222832   5.621   1.380   8.323
  425TIP3   OH222833   4.618   0.025   2.239
  425TIP3    H122834   4.698   0.011   2.189
  425TIP3    H222835   4.562   0.076   2.182
  426TIP3   OH222836   1.364   0.549   2.026
  426TIP3    H122837   1.382   0.537   2.120
  426TIP3    H222838   1.277   0.513   2.013
  427TIP3   OH222839   0.364   2.260   7.148
  427TIP3    H122840   0.350   2.165   7.144
  427TIP3    H222841   0.293   2.292   7.204
  428TIP3   OH222842   4.004   3.729   0.337
  428TIP3    H122843   4.017   3.807   0.391
  428TIP3    H222844   3.909   3.714   0.341
  429TIP3   OH222845   5.523   6.347   6.422
  429TIP3    H122846   5.616   6.329   6.431
  429TIP3    H222847   5.484   6.314   6.503
  430TIP3   OH222848   6.523   0.035   8.750
  430TIP3    H122849   6.521   6.789   8.685
  430TIP3    H222850   6.575   6.824   0.042
  431TIP3   OH222851   0.497   4.015   0.865
  431TIP3    H122852   0.556   4.034   0.937
  431TIP3    H222853   0.505   4.091   0.807
  432TIP3   OH222854   3.399   1.013   7.904
  432TIP3    H122855   3.477   1.053   7.942
  432TIP3    H222856   3.357   0.967   7.977
  433TIP3   OH222857   0.102   3.449   6.572
  433TIP3    H122858   0.007   3.456   6.579
  433TIP3    H222859   0.119   3.355   6.566
  434TIP3   OH222860   3.198   1.436   7.001
  434TIP3    H122861   3.283   1.392   7.009
  434TIP3    H222862   3.220   1.528   6.991
  435TIP3   OH222863   4.226   1.294   1.488
  435TIP3    H122864   4.134   1.314   1.504
  435TIP3    H222865   4.229   1.198   1.483
  436TIP3   OH222866   1.391   0.932   1.170
  436TIP3    H122867   1.396   0.998   1.239
  436TIP3    H222868   1.482   0.915   1.147
  437TIP3   OH222869   3.867   4.790   7.279
  437TIP3    H122870   3.862   4.704   7.322
  437TIP3    H222871   3.900   4.771   7.191
  438TIP3   OH222872   1.687   1.352   8.009
  438TIP3    H122873   1.705   1.416   8.078
  438TIP3    H222874   1.773   1.333   7.971
  439TIP3   OH222875   1.984   1.894   7.570
  439TIP3    H122876   1.925   1.964   7.596
  439TIP3    H222877   1.932   1.814   7.579
  440TIP3   OH222878   3.789   2.428   1.536
  440TIP3    H122879   3.877   2.412   1.569
  440TIP3    H222880   3.733   2.375   1.593
  441TIP3   OH222881   3.274   0.630   2.560
  441TIP3    H122882   3.335   0.557   2.568
  441TIP3    H222883   3.319   0.693   2.504
  442TIP3   OH222884   2.657   0.101   2.264
  442TIP3    H122885   2.580   0.049   2.242
  442TIP3    H222886   2.706   0.046   2.325
  443TIP3   OH222887   6.456   1.419   8.092
  443TIP3    H122888   6.550   1.399   8.100
  443TIP3    H222889   6.413   1.334   8.092
  444TIP3   OH222890   5.086   3.086   0.656
  444TIP3    H122891   5.051   3.069   0.743
  444TIP3    H222892   5.131   3.170   0.664
  445TIP3   OH222893   5.490   3.855   7.386
  445TIP3    H122894   5.556   3.912   7.346
  445TIP3    H222895   5.430   3.835   7.315
  446TIP3   OH222896   4.375   4.030   7.711
  446TIP3    H122897   4.294   4.000   7.670
  446TIP3    H222898   4.443   4.010   7.646
  447TIP3   OH222899   1.051   5.192   7.371
  447TIP3    H122900   1.084   5.280   7.352
  447TIP3    H222901   0.976   5.207   7.428
  448TIP3   OH222902   4.886   6.655   8.560
  448TIP3    H122903   4.954   6.718   8.539
  448TIP3    H222904   4.910   6.576   8.511
  449TIP3   OH222905   0.859   1.464   8.109
  449TIP3    H122906   0.867   1.439   8.016
  449TIP3    H222907   0.946   1.497   8.132
  450TIP3   OH222908   5.745   4.805   1.442
  450TIP3    H122909   5.749   4.817   1.347
  450TIP3    H222910   5.652   4.798   1.461
  451TIP3   OH222911   1.436   0.087   8.473
  451TIP3    H122912   1.433   0.181   8.489
  451TIP3    H222913   1.362   0.071   8.414
  452TIP3   OH222914   3.094   0.303   2.220
  452TIP3    H122915   3.037   0.320   2.145
  452TIP3    H222916   3.037   0.263   2.285
  453TIP3   OH222917   1.319   0.159   1.573
  453TIP3    H122918   1.283   0.238   1.533
  453TIP3    H222919   1.406   0.185   1.603
  454TIP3   OH222920   3.207   1.839   7.693
  454TIP3    H122921   3.137   1.897   7.723
  454TIP3    H222922   3.259   1.820   7.771
  455TIP3   OH222923   2.006   6.438   6.437
  455TIP3    H122924   2.032   6.367   6.496
  455TIP3    H222925   2.074   6.504   6.447
  456TIP3   OH222926   2.970   0.604   8.474
  456TIP3    H122927   3.047   0.608   8.418
  456TIP3    H222928   2.896   0.618   8.414
  457TIP3   OH222929   4.282   5.695   7.070
  457TIP3    H122930   4.282   5.772   7.126
  457TIP3    H222931   4.318   5.726   6.987
  458TIP3   OH222932   1.473   1.240   0.369
  458TIP3    H122933   1.564   1.269   0.372
  458TIP3    H222934   1.451   1.239   0.276
  459TIP3   OH222935   2.911   5.499   0.395
  459TIP3    H122936   2.959   5.577   0.422
  459TIP3    H222937   2.908   5.444   0.474
  460TIP3   OH222938   0.973   6.212   0.973
  460TIP3    H122939   1.041   6.181   0.913
  460TIP3    H222940   0.930   6.132   1.004
  461TIP3   OH222941   5.706   3.718   1.730
  461TIP3    H122942   5.795   3.752   1.718
  461TIP3    H222943   5.715   3.623   1.717
  462TIP3   OH222944   1.829   4.512   2.200
  462TIP3    H122945   1.855   4.602   2.180
  462TIP3    H222946   1.738   4.506   2.172
  463TIP3   OH222947   3.437   2.245   0.696
  463TIP3    H122948   3.501   2.185   0.732
  463TIP3    H222949   3.392   2.195   0.628
  464TIP3   OH222950   1.787   5.835   8.718
  464TIP3    H122951   1.849   5.901   8.687
  464TIP3    H222952   1.784   5.770   8.648
  465TIP3   OH222953   6.197   4.739   1.634
  465TIP3    H122954   6.125   4.749   1.696
  465TIP3    H222955   6.253   4.672   1.673
  466TIP3   OH222956   2.365   3.017   7.371
  466TIP3    H122957   2.424   2.942   7.374
  466TIP3    H222958   2.408   3.080   7.313
  467TIP3   OH222959   2.517   3.645   2.100
  467TIP3    H122960   2.545   3.723   2.148
  467TIP3    H222961   2.599   3.600   2.078
  468TIP3   OH222962   6.538   2.529   1.185
  468TIP3    H122963   6.542   2.624   1.196
  468TIP3    H222964   6.588   2.511   1.106
  469TIP3   OH222965   5.742   6.572   2.480
  469TIP3    H122966   5.681   6.639   2.449
  469TIP3    H222967   5.783   6.612   2.557
  470TIP3   OH222968   1.656   6.377   1.996
  470TIP3    H122969   1.644   6.420   2.081
  470TIP3    H222970   1.569   6.346   1.972
  471TIP3   OH222971   1.522   3.578   8.338
  471TIP3    H122972   1.542   3.524   8.261
  471TIP3    H222973   1.463   3.525   8.390
  472TIP3   OH222974   0.326   5.332   1.506
  472TIP3    H122975   0.334   5.369   1.418
  472TIP3    H222976   0.336   5.238   1.494
  473TIP3   OH222977   0.503   2.718   1.749
  473TIP3    H122978   0.409   2.700   1.748
  473TIP3    H222979   0.533   2.686   1.835
  474TIP3   OH222980   6.645   2.481   0.945
  474TIP3    H122981   6.574   2.514   0.890
  474TIP3    H222982   6.713   2.454   0.883
  475TIP3   OH222983   3.278   3.881   2.094
  475TIP3    H122984   3.341   3.882   2.167
  475TIP3    H222985   3.330   3.856   2.018
  476TIP3   OH222986   4.500   3.273   7.634
  476TIP3    H122987   4.457   3.189   7.645
  476TIP3    H222988   4.445   3.321   7.573
  477TIP3   OH222989   4.845   0.497   0.881
  477TIP3    H122990   4.934   0.471   0.859
  477TIP3    H222991   4.795   0.416   0.878
  478TIP3   OH222992   3.301   5.386   7.917
  478TIP3    H122993   3.207   5.371   7.909
  478TIP3    H222994   3.321   5.450   7.848
  479TIP3   OH222995   4.153   0.948   1.726
  479TIP3    H122996   4.130   0.855   1.731
  479TIP3    H222997   4.243   0.948   1.692
  480TIP3   OH222998   1.186   0.498   6.099
  480TIP3    H122999   1.218   0.588   6.105
  480TIP3    H223000   1.117   0.493   6.165
  481TIP3   OH223001   2.637   2.006   0.808
  481TIP3    H123002   2.546   2.029   0.791
  481TIP3    H223003   2.652   1.926   0.758
  482TIP3   OH223004   5.257   1.446   7.315
  482TIP3    H123005   5.328   1.383   7.319
  482TIP3    H223006   5.205   1.420   7.238
  483TIP3   OH223007   4.844   3.102   0.842
  483TIP3    H123008   4.815   3.176   0.894
  483TIP3    H223009   4.763   3.053   0.823
  484TIP3   OH223010   5.423   3.474   7.740
  484TIP3    H123011   5.386   3.544   7.686
  484TIP3    H223012   5.426   3.398   7.681
  485TIP3   OH223013   0.881   5.306   0.844
  485TIP3    H123014   0.862   5.288   0.752
  485TIP3    H223015   0.948   5.241   0.868
  486TIP3   OH223016   0.905   5.332   1.211
  486TIP3    H123017   0.890   5.332   1.305
  486TIP3    H223018   0.924   5.423   1.189
  487TIP3   OH223019   5.967   3.221   0.534
  487TIP3    H123020   5.939   3.223   0.625
  487TIP3    H223021   5.942   3.134   0.503
  488TIP3   OH223022   0.642   1.801   1.864
  488TIP3    H123023   0.715   1.861   1.849
  488TIP3    H223024   0.624   1.808   1.958
  489TIP3   OH223025   5.996   4.334   8.505
  489TIP3    H123026   5.914   4.320   8.552
  489TIP3    H223027   5.997   4.428   8.487
  490TIP3   OH223028   3.000   6.784   2.154
  490TIP3    H123029   2.943   6.762   2.228
  490TIP3    H223030   2.957   0.033   2.111
  491TIP3   OH223031   4.870   4.361   8.651
  491TIP3    H123032   4.825   4.351   8.567
  491TIP3    H223033   4.945   4.302   8.647
  492TIP3   OH223034   3.889   4.073   6.969
  492TIP3    H123035   3.805   4.027   6.973
  492TIP3    H223036   3.935   4.034   6.895
  493TIP3   OH223037   6.253   3.272   0.399
  493TIP3    H123038   6.228   3.185   0.431
  493TIP3    H223039   6.220   3.332   0.466
  494TIP3   OH223040   4.777   3.304   1.916
  494TIP3    H123041   4.770   3.375   1.852
  494TIP3    H223042   4.704   3.318   1.976
  495TIP3   OH223043   5.778   3.385   7.950
  495TIP3    H123044   5.873   3.389   7.935
  495TIP3    H223045   5.747   3.474   7.933
  496TIP3   OH223046   3.624   2.552   1.256
  496TIP3    H123047   3.568   2.476   1.240
  496TIP3    H223048   3.582   2.599   1.328
  497TIP3   OH223049   1.216   6.068   0.846
  497TIP3    H123050   1.263   6.150   0.833
  497TIP3    H223051   1.265   6.023   0.915
  498TIP3   OH223052   6.162   1.537   8.417
  498TIP3    H123053   6.207   1.473   8.472
  498TIP3    H223054   6.151   1.613   8.473
  499TIP3   OH223055   3.366   3.375   2.072
  499TIP3    H123056   3.400   3.440   2.010
  499TIP3    H223057   3.374   3.416   2.158
  500TIP3   OH223058   4.772   4.619   8.661
  500TIP3    H123059   4.840   4.675   8.699
  500TIP3    H223060   4.813   4.532   8.657
  501TIP3   OH223061   5.300   4.608   7.134
  501TIP3    H123062   5.310   4.530   7.079
  501TIP3    H223063   5.332   4.680   7.079
  502TIP3   OH223064   4.028   3.312   0.303
  502TIP3    H123065   4.023   3.378   0.372
  502TIP3    H223066   4.021   3.228   0.349
  503TIP3   OH223067   3.753   6.395   0.951
  503TIP3    H123068   3.804   6.397   0.870
  503TIP3    H223069   3.694   6.321   0.941
  504TIP3   OH223070   0.971   2.875   1.172
  504TIP3    H123071   0.890   2.916   1.144
  504TIP3    H223072   1.026   2.948   1.202
  505TIP3   OH223073   6.199   6.312   2.035
  505TIP3    H123074   6.282   6.314   2.083
  505TIP3    H223075   6.139   6.266   2.093
  506TIP3   OH223076   5.212   0.839   8.048
  506TIP3    H123077   5.269   0.803   8.116
  506TIP3    H223078   5.193   0.929   8.077
  507TIP3   OH223079   5.241   3.210   7.568
  507TIP3    H123080   5.180   3.281   7.548
  507TIP3    H223081   5.222   3.187   7.659
  508TIP3   OH223082   1.738   6.038   8.523
  508TIP3    H123083   1.661   6.083   8.489
  508TIP3    H223084   1.795   6.108   8.554
  509TIP3   OH223085   0.620   3.243   0.199
  509TIP3    H123086   0.578   3.214   0.279
  509TIP3    H223087   0.574   3.196   0.129
  510TIP3   OH223088   4.282   0.912   1.004
  510TIP3    H123089   4.371   0.911   1.039
  510TIP3    H223090   4.268   1.003   0.977
  511TIP3   OH223091   1.654   2.842   8.319
  511TIP3    H123092   1.652   2.870   8.411
  511TIP3    H223093   1.736   2.793   8.311
  512TIP3   OH223094   4.836   4.715   1.900
  512TIP3    H123095   4.787   4.707   1.983
  512TIP3    H223096   4.790   4.657   1.840
  513TIP3   OH223097   1.831   0.906   6.853
  513TIP3    H123098   1.787   0.981   6.893
  513TIP3    H223099   1.881   0.866   6.925
  514TIP3   OH223100   2.150   5.861   7.408
  514TIP3    H123101   2.226   5.891   7.357
  514TIP3    H223102   2.079   5.856   7.344
  515TIP3   OH223103   2.671   2.163   1.609
  515TIP3    H123104   2.716   2.157   1.693
  515TIP3    H223105   2.656   2.072   1.582
  516TIP3   OH223106   1.734   0.032   1.183
  516TIP3    H123107   1.813   0.027   1.129
  516TIP3    H223108   1.667   6.812   1.131
  517TIP3   OH223109   3.612   1.844   7.534
  517TIP3    H123110   3.700   1.881   7.543
  517TIP3    H223111   3.569   1.899   7.470
  518TIP3   OH223112   5.740   0.278   0.234
  518TIP3    H123113   5.715   0.186   0.249
  518TIP3    H223114   5.695   0.303   0.154
  519TIP3   OH223115   1.106   5.039   0.233
  519TIP3    H123116   1.146   4.983   0.166
  519TIP3    H223117   1.152   5.122   0.225
  520TIP3   OH223118   6.594   1.805   7.717
  520TIP3    H123119   6.584   1.895   7.686
  520TIP3    H223120   6.673   1.806   7.770
  521TIP3   OH223121   5.830   1.360   0.161
  521TIP3    H123122   5.750   1.342   0.113
  521TIP3    H223123   5.819   1.315   0.245
  522TIP3   OH223124   5.470   2.384   8.053
  522TIP3    H123125   5.496   2.292   8.060
  522TIP3    H223126   5.432   2.391   7.965
  523TIP3   OH223127   3.922   3.384   1.511
  523TIP3    H123128   3.913   3.292   1.487
  523TIP3    H223129   3.934   3.383   1.606
  524TIP3   OH223130   1.291   1.978   7.596
  524TIP3    H123131   1.377   2.018   7.604
  524TIP3    H223132   1.239   2.042   7.547
  525TIP3   OH223133   1.846   5.897   7.392
  525TIP3    H123134   1.874   5.863   7.307
  525TIP3    H223135   1.768   5.845   7.413
  526TIP3   OH223136   6.411   1.713   1.868
  526TIP3    H123137   6.382   1.766   1.794
  526TIP3    H223138   6.364   1.630   1.858
  527TIP3   OH223139   0.790   5.705   1.015
  527TIP3    H123140   0.722   5.642   1.038
  527TIP3    H223141   0.830   5.668   0.936
  528TIP3   OH223142   3.809   5.645   6.844
  528TIP3    H123143   3.841   5.632   6.755
  528TIP3    H223144   3.876   5.604   6.899
  529TIP3   OH223145   2.183   2.624   0.671
  529TIP3    H123146   2.199   2.718   0.673
  529TIP3    H223147   2.191   2.600   0.579
  530TIP3   OH223148   3.789   1.067   1.809
  530TIP3    H123149   3.836   1.151   1.802
  530TIP3    H223150   3.696   1.091   1.804
  531TIP3   OH223151   4.216   2.687   0.529
  531TIP3    H123152   4.152   2.696   0.599
  531TIP3    H223153   4.300   2.709   0.570
  532TIP3   OH223154   4.463   3.975   2.290
  532TIP3    H123155   4.524   3.962   2.363
  532TIP3    H223156   4.376   3.973   2.330
  533TIP3   OH223157   4.987   6.460   0.734
  533TIP3    H123158   5.004   6.371   0.767
  533TIP3    H223159   4.894   6.473   0.749
  534TIP3   OH223160   0.931   2.581   7.127
  534TIP3    H123161   0.878   2.628   7.063
  534TIP3    H223162   0.982   2.518   7.076
  535TIP3   OH223163   3.338   2.003   7.076
  535TIP3    H123164   3.251   2.016   7.039
  535TIP3    H223165   3.381   2.088   7.065
  536TIP3   OH223166   0.753   0.840   6.605
  536TIP3    H123167   0.760   0.926   6.645
  536TIP3    H223168   0.661   0.834   6.577
  537TIP3   OH223169   4.518   6.628   7.615
  537TIP3    H123170   4.434   6.671   7.632
  537TIP3    H223171   4.512   6.545   7.662
  538TIP3   OH223172   5.209   6.635   6.499
  538TIP3    H123173   5.199   6.606   6.408
  538TIP3    H223174   5.140   6.700   6.511
  539TIP3   OH223175   6.271   5.250   1.076
  539TIP3    H123176   6.258   5.307   1.152
  539TIP3    H223177   6.201   5.273   1.016
  540TIP3   OH223178   5.762   3.513   1.464
  540TIP3    H123179   5.832   3.472   1.515
  540TIP3    H223180   5.794   3.512   1.374
  541TIP3   OH223181   5.108   1.193   1.299
  541TIP3    H123182   5.066   1.155   1.222
  541TIP3    H223183   5.038   1.243   1.342
  542TIP3   OH223184   1.083   3.226   0.130
  542TIP3    H123185   1.106   3.234   0.222
  542TIP3    H223186   1.002   3.275   0.121
  543TIP3   OH223187   2.075   6.789   2.039
  543TIP3    H123188   2.010   6.733   2.081
  543TIP3    H223189   2.154   6.735   2.036
  544TIP3   OH223190   5.404   0.812   0.007
  544TIP3    H123191   5.356   0.783   0.084
  544TIP3    H223192   5.399   0.738   8.727
  545TIP3   OH223193   3.035   2.231   1.592
  545TIP3    H123194   2.984   2.197   1.518
  545TIP3    H223195   3.067   2.316   1.561
  546TIP3   OH223196   0.440   1.069   1.596
  546TIP3    H123197   0.494   0.990   1.604
  546TIP3    H223198   0.498   1.140   1.625
  547TIP3   OH223199   2.481   5.560   0.585
  547TIP3    H123200   2.420   5.632   0.604
  547TIP3    H223201   2.445   5.517   0.508
  548TIP3   OH223202   1.293   2.507   8.409
  548TIP3    H123203   1.221   2.532   8.351
  548TIP3    H223204   1.324   2.590   8.446
  549TIP3   OH223205   6.386   5.771   7.972
  549TIP3    H123206   6.391   5.843   7.910
  549TIP3    H223207   6.359   5.811   8.054
  550TIP3   OH223208   2.484   1.724   7.133
  550TIP3    H123209   2.432   1.771   7.198
  550TIP3    H223210   2.500   1.638   7.173
  551TIP3   OH223211   0.708   6.486   1.016
  551TIP3    H123212   0.766   6.452   1.085
  551TIP3    H223213   0.629   6.432   1.023
  552TIP3   OH223214   4.432   1.332   8.510
  552TIP3    H123215   4.428   1.303   8.602
  552TIP3    H223216   4.366   1.400   8.504
  553TIP3   OH223217   4.590   3.438   0.928
  553TIP3    H123218   4.531   3.363   0.932
  553TIP3    H223219   4.655   3.420   0.996
  554TIP3   OH223220   3.784   5.670   7.227
  554TIP3    H123221   3.779   5.712   7.313
  554TIP3    H223222   3.876   5.645   7.218
  555TIP3   OH223223   6.383   6.445   0.705
  555TIP3    H123224   6.405   6.356   0.677
  555TIP3    H223225   6.464   6.495   0.689
  556TIP3   OH223226   4.986   1.967   1.722
  556TIP3    H123227   4.947   1.955   1.636
  556TIP3    H223228   4.965   1.887   1.770
  557TIP3   OH223229   4.020   3.020   8.554
  557TIP3    H123230   3.999   3.093   8.496
  557TIP3    H223231   4.069   3.060   8.626
  558TIP3   OH223232   3.702   5.101   1.493
  558TIP3    H123233   3.615   5.132   1.519
  558TIP3    H223234   3.695   5.084   1.399
  559TIP3   OH223235   4.404   1.077   0.229
  559TIP3    H123236   4.474   1.019   0.259
  559TIP3    H223237   4.324   1.025   0.238
  560TIP3   OH223238   5.601   5.170   6.259
  560TIP3    H123239   5.516   5.164   6.215
  560TIP3    H223240   5.581   5.209   6.344
  561TIP3   OH223241   0.377   5.899   0.039
  561TIP3    H123242   0.453   5.847   0.011
  561TIP3    H223243   0.413   5.964   0.100
  562TIP3   OH223244   3.486   1.642   0.981
  562TIP3    H123245   3.437   1.725   0.972
  562TIP3    H223246   3.454   1.605   1.063
  563TIP3   OH223247   1.127   2.144   7.029
  563TIP3    H123248   1.202   2.172   6.977
  563TIP3    H223249   1.142   2.050   7.044
  564TIP3   OH223250   1.476   1.845   7.284
  564TIP3    H123251   1.490   1.908   7.214
  564TIP3    H223252   1.393   1.872   7.325
  565TIP3   OH223253   3.237   2.828   1.873
  565TIP3    H123254   3.279   2.914   1.875
  565TIP3    H223255   3.302   2.771   1.832
  566TIP3   OH223256   6.686   4.104   0.539
  566TIP3    H123257   6.633   4.087   0.616
  566TIP3    H223258   6.698   4.019   0.498
  567TIP3   OH223259   2.047   4.192   8.599
  567TIP3    H123260   2.088   4.250   8.663
  567TIP3    H223261   2.116   4.175   8.535
  568TIP3   OH223262   0.786   3.158   7.972
  568TIP3    H123263   0.752   3.181   8.058
  568TIP3    H223264   0.713   3.177   7.912
  569TIP3   OH223265   1.445   6.721   6.396
  569TIP3    H123266   1.378   6.656   6.415
  569TIP3    H223267   1.406   6.777   6.329
  570TIP3   OH223268   2.687   2.494   1.573
  570TIP3    H123269   2.757   2.469   1.633
  570TIP3    H223270   2.684   2.423   1.509
  571TIP3   OH223271   0.229   3.754   7.813
  571TIP3    H123272   0.232   3.676   7.867
  571TIP3    H223273   0.192   3.724   7.730
  572TIP3   OH223274   2.071   3.194   6.771
  572TIP3    H123275   2.006   3.236   6.713
  572TIP3    H223276   2.089   3.110   6.729
  573TIP3   OH223277   2.587   6.817   6.889
  573TIP3    H123278   2.590   0.067   6.829
  573TIP3    H223279   2.507   6.770   6.864
  574TIP3   OH223280   4.421   6.699   0.522
  574TIP3    H123281   4.427   6.751   0.442
  574TIP3    H223282   4.381   6.617   0.493
  575TIP3   OH223283   2.824   2.021   1.035
  575TIP3    H123284   2.772   2.010   0.956
  575TIP3    H223285   2.772   2.077   1.092
  576TIP3   OH223286   1.955   2.332   8.400
  576TIP3    H123287   1.986   2.379   8.477
  576TIP3    H223288   2.022   2.266   8.383
  577TIP3   OH223289   2.932   1.983   1.299
  577TIP3    H123290   2.940   2.012   1.208
  577TIP3    H223291   2.875   1.907   1.295
  578TIP3   OH223292   5.593   0.826   8.385
  578TIP3    H123293   5.641   0.744   8.373
  578TIP3    H223294   5.660   0.888   8.415
  579TIP3   OH223295   6.740   2.943   7.914
  579TIP3    H123296   6.811   2.934   7.978
  579TIP3    H223297   6.731   2.857   7.875
  580TIP3   OH223298   0.155   2.219   7.523
  580TIP3    H123299   0.159   2.133   7.566
  580TIP3    H223300   0.062   2.236   7.510
  581TIP3   OH223301   6.296   5.717   0.124
  581TIP3    H123302   6.291   5.792   0.064
  581TIP3    H223303   6.294   5.757   0.211
  582TIP3   OH223304   5.080   2.374   0.979
  582TIP3    H123305   5.134   2.381   0.900
  582TIP3    H223306   4.999   2.420   0.956
  583TIP3   OH223307   0.810   6.318   8.027
  583TIP3    H123308   0.867   6.272   8.089
  583TIP3    H223309   0.847   6.299   7.941
  584TIP3   OH223310   1.097   1.524   7.243
  584TIP3    H123311   1.003   1.511   7.257
  584TIP3    H223312   1.108   1.619   7.241
  585TIP3   OH223313   2.584   2.742   2.622
  585TIP3    H123314   2.557   2.692   2.545
  585TIP3    H223315   2.629   2.818   2.587
  586TIP3   OH223316   4.760   5.597   0.400
  586TIP3    H123317   4.818   5.614   0.474
  586TIP3    H223318   4.799   5.646   0.328
  587TIP3   OH223319   4.548   1.755   1.372
  587TIP3    H123320   4.454   1.765   1.389
  587TIP3    H223321   4.555   1.675   1.320
  588TIP3   OH223322   1.287   3.681   1.874
  588TIP3    H123323   1.267   3.743   1.804
  588TIP3    H223324   1.245   3.719   1.952
  589TIP3   OH223325   5.458   1.424   6.705
  589TIP3    H123326   5.418   1.392   6.625
  589TIP3    H223327   5.473   1.517   6.689
  590TIP3   OH223328   1.931   3.428   8.333
  590TIP3    H123329   1.897   3.395   8.250
  590TIP3    H223330   2.010   3.376   8.350
  591TIP3   OH223331   5.301   1.079   7.622
  591TIP3    H123332   5.235   1.079   7.552
  591TIP3    H223333   5.355   1.156   7.604
  592TIP3   OH223334   1.136   2.595   1.623
  592TIP3    H123335   1.108   2.679   1.659
  592TIP3    H223336   1.211   2.617   1.567
  593TIP3   OH223337   6.673   5.811   0.137
  593TIP3    H123338   6.766   5.806   0.158
  593TIP3    H223339   6.670   5.849   0.049
  594TIP3   OH223340   2.227   3.867   7.528
  594TIP3    H123341   2.224   3.820   7.611
  594TIP3    H223342   2.270   3.950   7.549
  595TIP3   OH223343   0.795   6.694   7.714
  595TIP3    H123344   0.740   6.682   7.792
  595TIP3    H223345   0.875   6.646   7.735
  596TIP3   OH223346   3.301   2.214   1.273
  596TIP3    H123347   3.383   2.234   1.318
  596TIP3    H223348   3.263   2.141   1.321
  597TIP3   OH223349   1.504   0.710   8.714
  597TIP3    H123350   1.506   0.624   8.755
  597TIP3    H223351   1.468   0.694   8.626
  598TIP3   OH223352   3.940   5.523   8.084
  598TIP3    H123353   3.928   5.517   8.179
  598TIP3    H223354   3.935   5.433   8.054
  599TIP3   OH223355   1.944   2.404   1.209
  599TIP3    H123356   1.941   2.364   1.296
  599TIP3    H223357   2.021   2.364   1.168
  600TIP3   OH223358   0.908   2.466   0.312
  600TIP3    H123359   0.955   2.524   0.372
  600TIP3    H223360   0.904   2.515   0.230
  601TIP3   OH223361   4.296   0.208   1.476
  601TIP3    H123362   4.300   0.211   1.381
  601TIP3    H223363   4.385   0.228   1.505
  602TIP3   OH223364   0.966   0.646   0.274
  602TIP3    H123365   1.035   0.628   0.209
  602TIP3    H223366   0.886   0.613   0.233
  603TIP3   OH223367   3.327   4.358   8.550
  603TIP3    H123368   3.294   4.348   8.461
  603TIP3    H223369   3.421   4.337   8.543
  604TIP3   OH223370   0.816   3.222   6.725
  604TIP3    H123371   0.832   3.305   6.680
  604TIP3    H223372   0.903   3.184   6.737
  605TIP3   OH223373   1.807   6.487   0.619
  605TIP3    H123374   1.752   6.522   0.689
  605TIP3    H223375   1.786   6.393   0.617
  606TIP3   OH223376   1.529   1.022   1.924
  606TIP3    H123377   1.466   0.962   1.964
  606TIP3    H223378   1.592   0.965   1.880
  607TIP3   OH223379   0.149   5.987   7.289
  607TIP3    H123380   0.228   5.935   7.305
  607TIP3    H223381   0.179   6.078   7.295
  608TIP3   OH223382   1.892   1.942   0.223
  608TIP3    H123383   1.972   1.993   0.208
  608TIP3    H223384   1.909   1.859   0.178
  609TIP3   OH223385   3.549   0.469   1.792
  609TIP3    H123386   3.564   0.534   1.723
  609TIP3    H223387   3.459   0.439   1.777
  610TIP3   OH223388   2.485   0.340   0.468
  610TIP3    H123389   2.535   0.410   0.427
  610TIP3    H223390   2.521   0.333   0.557
  611TIP3   OH223391   5.722   3.845   0.412
  611TIP3    H123392   5.696   3.842   0.320
  611TIP3    H223393   5.734   3.753   0.436
  612TIP3   OH223394   1.610   2.591   6.928
  612TIP3    H123395   1.678   2.629   6.873
  612TIP3    H223396   1.589   2.508   6.886
  613TIP3   OH223397   5.952   3.400   7.710
  613TIP3    H123398   5.977   3.312   7.682
  613TIP3    H223399   5.857   3.396   7.722
  614TIP3   OH223400   6.822   5.765   7.369
  614TIP3    H123401   6.761   5.789   7.299
  614TIP3    H223402   0.060   5.838   7.372
  615TIP3   OH223403   2.781   3.351   1.018
  615TIP3    H123404   2.765   3.443   1.037
  615TIP3    H223405   2.855   3.327   1.075
  616TIP3   OH223406   2.019   4.098   0.614
  616TIP3    H123407   2.006   4.009   0.647
  616TIP3    H223408   1.955   4.108   0.544
  617TIP3   OH223409   0.585   1.308   8.065
  617TIP3    H123410   0.562   1.327   7.974
  617TIP3    H223411   0.627   1.222   8.062
  618TIP3   OH223412   2.216   1.619   0.690
  618TIP3    H123413   2.270   1.545   0.716
  618TIP3    H223414   2.126   1.591   0.707
  619TIP3   OH223415   3.598   6.152   7.000
  619TIP3    H123416   3.605   6.087   7.070
  619TIP3    H223417   3.567   6.102   6.924
  620TIP3   OH223418   5.280   6.333   6.304
  620TIP3    H123419   5.253   6.423   6.283
  620TIP3    H223420   5.375   6.338   6.312
  621TIP3   OH223421   4.526   0.686   0.427
  621TIP3    H123422   4.537   0.770   0.383
  621TIP3    H223423   4.550   0.621   0.361
  622TIP3   OH223424   5.255   6.147   0.375
  622TIP3    H123425   5.335   6.103   0.347
  622TIP3    H223426   5.263   6.153   0.471
  623TIP3   OH223427   4.763   3.403   6.631
  623TIP3    H123428   4.809   3.343   6.573
  623TIP3    H223429   4.751   3.354   6.712
  624TIP3   OH223430   3.332   1.314   0.444
  624TIP3    H123431   3.285   1.235   0.418
  624TIP3    H223432   3.341   1.307   0.539
  625TIP3   OH223433   0.172   6.703   7.536
  625TIP3    H123434   0.207   6.660   7.614
  625TIP3    H223435   0.250   6.728   7.486
  626TIP3   OH223436   4.677   0.082   7.607
  626TIP3    H123437   4.613   0.015   7.632
  626TIP3    H223438   4.737   0.037   7.547
  627TIP3   OH223439   0.215   0.493   1.811
  627TIP3    H123440   0.185   0.421   1.867
  627TIP3    H223441   0.168   0.570   1.844
  628TIP3   OH223442   5.490   0.716   0.671
  628TIP3    H123443   5.480   0.666   0.751
  628TIP3    H223444   5.584   0.715   0.653
  629TIP3   OH223445   1.677   2.710   8.737
  629TIP3    H123446   1.700   2.794   8.778
  629TIP3    H223447   1.591   2.725   8.698
  630TIP3   OH223448   2.058   3.142   7.717
  630TIP3    H123449   2.002   3.196   7.660
  630TIP3    H223450   2.147   3.170   7.697
  631TIP3   OH223451   4.660   6.353   0.302
  631TIP3    H123452   4.709   6.434   0.287
  631TIP3    H223453   4.695   6.292   0.238
  632TIP3   OH223454   4.354   2.832   6.613
  632TIP3    H123455   4.439   2.848   6.573
  632TIP3    H223456   4.294   2.822   6.539
  633TIP3   OH223457   4.513   1.071   8.379
  633TIP3    H123458   4.472   1.137   8.435
  633TIP3    H223459   4.539   1.119   8.300
  634TIP3   OH223460   3.397   3.735   0.452
  634TIP3    H123461   3.331   3.799   0.426
  634TIP3    H223462   3.433   3.770   0.534
  635TIP3   OH223463   6.770   6.108   0.177
  635TIP3    H123464   0.008   6.092   0.246
  635TIP3    H223465   6.823   6.113   0.097
  636TIP3   OH223466   1.502   2.061   7.094
  636TIP3    H123467   1.571   2.038   7.031
  636TIP3    H223468   1.467   2.144   7.062
  637TIP3   OH223469   0.689   4.354   7.026
  637TIP3    H123470   0.718   4.356   6.935
  637TIP3    H223471   0.601   4.391   7.023
  638TIP3   OH223472   3.814   2.283   6.861
  638TIP3    H123473   3.753   2.326   6.800
  638TIP3    H223474   3.879   2.242   6.804
  639TIP3   OH223475   1.125   5.952   1.940
  639TIP3    H123476   1.110   5.946   2.035
  639TIP3    H223477   1.046   5.993   1.906
  640TIP3   OH223478   2.487   5.847   8.726
  640TIP3    H123479   2.579   5.850   8.754
  640TIP3    H223480   2.485   5.896   8.645
  641TIP3   OH223481   2.428   3.965   7.063
  641TIP3    H123482   2.369   3.898   7.030
  641TIP3    H223483   2.381   4.048   7.050
  642TIP3   OH223484   4.022   5.255   2.545
  642TIP3    H123485   4.048   5.187   2.483
  642TIP3    H223486   4.062   5.335   2.511
  643TIP3   OH223487   1.839   3.118   0.641
  643TIP3    H123488   1.831   3.157   0.554
  643TIP3    H223489   1.921   3.154   0.676
  644TIP3   OH223490   3.461   3.659   7.783
  644TIP3    H123491   3.456   3.753   7.767
  644TIP3    H223492   3.439   3.649   7.875
  645TIP3   OH223493   1.806   1.499   1.348
  645TIP3    H123494   1.824   1.410   1.317
  645TIP3    H223495   1.884   1.549   1.324
  646TIP3   OH223496   6.732   3.033   0.345
  646TIP3    H123497   6.781   3.091   0.286
  646TIP3    H223498   6.783   3.032   0.426
  647TIP3   OH223499   6.568   2.218   8.488
  647TIP3    H123500   6.499   2.164   8.449
  647TIP3    H223501   6.649   2.188   8.447
  648TIP3   OH223502   2.344   0.313   2.017
  648TIP3    H123503   2.430   0.314   1.974
  648TIP3    H223504   2.298   0.387   1.979
  649TIP3   OH223505   5.311   5.980   7.172
  649TIP3    H123506   5.397   6.021   7.168
  649TIP3    H223507   5.286   5.967   7.080
  650TIP3   OH223508   4.462   5.795   1.320
  650TIP3    H123509   4.495   5.823   1.235
  650TIP3    H223510   4.424   5.708   1.303
  651TIP3   OH223511   0.383   2.007   0.469
  651TIP3    H123512   0.364   1.924   0.424
  651TIP3    H223513   0.300   2.055   0.466
  652TIP3   OH223514   5.954   0.972   8.742
  652TIP3    H123515   5.879   1.031   8.740
  652TIP3    H223516   5.947   0.926   0.045
  653TIP3   OH223517   6.463   5.404   0.674
  653TIP3    H123518   6.433   5.379   0.762
  653TIP3    H223519   6.429   5.336   0.617
  654TIP3   OH223520   5.228   0.531   8.393
  654TIP3    H123521   5.235   0.450   8.344
  654TIP3    H223522   5.309   0.538   8.442
  655TIP3   OH223523   2.203   5.927   2.158
  655TIP3    H123524   2.269   5.910   2.225
  655TIP3    H223525   2.168   6.013   2.180
  656TIP3   OH223526   4.849   1.122   2.008
  656TIP3    H123527   4.824   1.054   2.071
  656TIP3    H223528   4.881   1.194   2.063
  657TIP3   OH223529   3.269   2.605   2.084
  657TIP3    H123530   3.295   2.697   2.075
  657TIP3    H223531   3.226   2.601   2.170
  658TIP3   OH223532   6.244   4.589   0.497
  658TIP3    H123533   6.314   4.655   0.493
  658TIP3    H223534   6.289   4.506   0.486
  659TIP3   OH223535   0.340   1.742   7.002
  659TIP3    H123536   0.358   1.727   6.909
  659TIP3    H223537   0.255   1.788   7.002
  660TIP3   OH223538   1.727   0.493   2.318
  660TIP3    H123539   1.638   0.521   2.297
  660TIP3    H223540   1.762   0.461   2.235
  661TIP3   OH223541   6.137   2.864   1.887
  661TIP3    H123542   6.106   2.775   1.900
  661TIP3    H223543   6.096   2.914   1.958
  662TIP3   OH223544   6.252   6.348   1.769
  662TIP3    H123545   6.223   6.347   1.860
  662TIP3    H223546   6.347   6.335   1.774
  663TIP3   OH223547   6.467   0.304   0.943
  663TIP3    H123548   6.494   0.391   0.912
  663TIP3    H223549   6.503   0.298   1.032
  664TIP3   OH223550   3.461   2.400   0.043
  664TIP3    H123551   3.423   2.352   0.117
  664TIP3    H223552   3.548   2.426   0.074
  665TIP3   OH223553   3.962   1.503   1.627
  665TIP3    H123554   4.014   1.546   1.559
  665TIP3    H223555   3.872   1.532   1.611
  666TIP3   OH223556   0.280   6.233   8.080
  666TIP3    H123557   0.375   6.227   8.068
  666TIP3    H223558   0.263   6.327   8.089
  667TIP3   OH223559   3.966   2.309   8.156
  667TIP3    H123560   3.881   2.332   8.117
  667TIP3    H223561   3.965   2.351   8.242
  668TIP3   OH223562   1.556   2.404   0.100
  668TIP3    H123563   1.588   2.382   0.188
  668TIP3    H223564   1.575   2.498   0.091
  669TIP3   OH223565   1.342   0.814   0.559
  669TIP3    H123566   1.258   0.768   0.551
  669TIP3    H223567   1.326   0.881   0.626
  670TIP3   OH223568   0.303   1.081   8.275
  670TIP3    H123569   0.276   1.173   8.278
  670TIP3    H223570   0.365   1.077   8.203
  671TIP3   OH223571   4.839   3.244   1.335
  671TIP3    H123572   4.763   3.236   1.393
  671TIP3    H223573   4.914   3.250   1.395
  672TIP3   OH223574   2.803   3.026   1.863
  672TIP3    H123575   2.786   2.964   1.934
  672TIP3    H223576   2.879   2.989   1.818
  673TIP3   OH223577   1.304   6.709   1.509
  673TIP3    H123578   1.221   6.671   1.536
  673TIP3    H223579   1.295   6.802   1.530
  674TIP3   OH223580   4.078   6.051   0.751
  674TIP3    H123581   4.079   6.147   0.746
  674TIP3    H223582   3.989   6.029   0.778
  675TIP3   OH223583   4.254   0.627   1.488
  675TIP3    H123584   4.167   0.595   1.463
  675TIP3    H223585   4.311   0.598   1.417
  676TIP3   OH223586   2.496   6.257   2.154
  676TIP3    H123587   2.494   6.162   2.137
  676TIP3    H223588   2.453   6.267   2.239
  677TIP3   OH223589   3.525   6.014   1.639
  677TIP3    H123590   3.604   6.055   1.675
  677TIP3    H223591   3.511   5.937   1.694
  678TIP3   OH223592   6.009   2.055   8.014
  678TIP3    H123593   6.022   1.979   7.958
  678TIP3    H223594   6.084   2.053   8.074
  679TIP3   OH223595   1.536   1.014   7.302
  679TIP3    H123596   1.479   0.953   7.348
  679TIP3    H223597   1.613   0.962   7.279
  680TIP3   OH223598   2.602   5.092   2.062
  680TIP3    H123599   2.689   5.130   2.070
  680TIP3    H223600   2.612   5.022   1.997
  681TIP3   OH223601   2.920   5.332   0.607
  681TIP3    H123602   2.943   5.336   0.699
  681TIP3    H223603   2.995   5.287   0.566
  682TIP3   OH223604   4.540   0.235   2.652
  682TIP3    H123605   4.613   0.287   2.684
  682TIP3    H223606   4.464   0.293   2.657
  683TIP3   OH223607   0.459   1.857   1.232
  683TIP3    H123608   0.554   1.870   1.225
  683TIP3    H223609   0.450   1.773   1.277
  684TIP3   OH223610   1.263   2.453   0.119
  684TIP3    H123611   1.340   2.397   0.107
  684TIP3    H223612   1.204   2.429   0.047
  685TIP3   OH223613   5.360   6.672   0.537
  685TIP3    H123614   5.297   6.675   0.609
  685TIP3    H223615   5.405   6.757   0.540
  686TIP3   OH223616   3.138   3.314   7.274
  686TIP3    H123617   3.152   3.247   7.207
  686TIP3    H223618   3.225   3.332   7.309
  687TIP3   OH223619   2.308   3.939   0.064
  687TIP3    H123620   2.356   3.872   0.016
  687TIP3    H223621   2.318   3.914   0.156
  688TIP3   OH223622   2.855   3.671   7.757
  688TIP3    H123623   2.905   3.597   7.793
  688TIP3    H223624   2.836   3.726   7.833
  689TIP3   OH223625   2.540   4.217   0.860
  689TIP3    H123626   2.511   4.151   0.797
  689TIP3    H223627   2.561   4.168   0.939
  690TIP3   OH223628   2.916   5.126   1.000
  690TIP3    H123629   2.844   5.081   0.956
  690TIP3    H223630   2.904   5.105   1.093
  691TIP3   OH223631   2.847   2.259   1.375
  691TIP3    H123632   2.912   2.311   1.328
  691TIP3    H223633   2.877   2.168   1.366
  692TIP3   OH223634   3.080   0.256   0.001
  692TIP3    H123635   3.053   0.197   0.072
  692TIP3    H223636   3.139   0.202   8.728
  693TIP3   OH223637   0.145   2.349   7.275
  693TIP3    H123638   0.078   2.416   7.266
  693TIP3    H223639   0.152   2.333   7.369
  694TIP3   OH223640   3.361   4.063   1.187
  694TIP3    H123641   3.287   4.121   1.205
  694TIP3    H223642   3.321   3.979   1.166
  695TIP3   OH223643   2.157   2.042   0.133
  695TIP3    H123644   2.228   1.987   0.099
  695TIP3    H223645   2.201   2.105   0.190
  696TIP3   OH223646   6.197   3.261   7.972
  696TIP3    H123647   6.172   3.169   7.965
  696TIP3    H223648   6.286   3.264   7.938
  697TIP3   OH223649   0.635   3.495   0.844
  697TIP3    H123650   0.612   3.454   0.928
  697TIP3    H223651   0.594   3.439   0.778
  698TIP3   OH223652   0.170   3.008   7.289
  698TIP3    H123653   0.171   2.915   7.309
  698TIP3    H223654   0.180   3.012   7.194
  699TIP3   OH223655   4.761   5.936   8.659
  699TIP3    H123656   4.789   5.844   8.656
  699TIP3    H223657   4.841   5.986   8.644
  700TIP3   OH223658   3.304   4.330   7.064
  700TIP3    H123659   3.362   4.323   7.140
  700TIP3    H223660   3.220   4.356   7.101
  701TIP3   OH223661   2.161   4.878   1.025
  701TIP3    H123662   2.107   4.847   1.097
  701TIP3    H223663   2.197   4.799   0.985
  702TIP3   OH223664   5.509   1.382   2.350
  702TIP3    H123665   5.591   1.358   2.394
  702TIP3    H223666   5.521   1.474   2.328
  703TIP3   OH223667   5.826   1.254   0.429
  703TIP3    H123668   5.791   1.169   0.453
  703TIP3    H223669   5.832   1.302   0.512
  704TIP3   OH223670   6.026   2.341   1.832
  704TIP3    H123671   5.937   2.320   1.804
  704TIP3    H223672   6.018   2.427   1.875
  705TIP3   OH223673   6.714   5.822   0.888
  705TIP3    H123674   6.677   5.738   0.860
  705TIP3    H223675   6.753   5.803   0.974
  706TIP3   OH223676   5.805   3.787   8.428
  706TIP3    H123677   5.833   3.867   8.473
  706TIP3    H223678   5.858   3.718   8.468
  707TIP3   OH223679   4.227   5.132   1.621
  707TIP3    H123680   4.221   5.045   1.580
  707TIP3    H223681   4.313   5.133   1.661
  708TIP3   OH223682   1.421   2.240   0.380
  708TIP3    H123683   1.332   2.270   0.361
  708TIP3    H223684   1.455   2.305   0.441
  709TIP3   OH223685   2.729   1.290   1.615
  709TIP3    H123686   2.650   1.243   1.641
  709TIP3    H223687   2.732   1.281   1.520
  710TIP3   OH223688   6.769   3.872   1.904
  710TIP3    H123689   6.743   3.783   1.925
  710TIP3    H223690   6.733   3.925   1.974
  711TIP3   OH223691   1.117   3.493   0.313
  711TIP3    H123692   1.169   3.543   0.251
  711TIP3    H223693   1.038   3.469   0.264
  712TIP3   OH223694   3.421   1.997   8.004
  712TIP3    H123695   3.461   2.009   7.918
  712TIP3    H223696   3.485   1.946   8.054
  713TIP3   OH223697   5.669   4.893   8.491
  713TIP3    H123698   5.603   4.957   8.518
  713TIP3    H223699   5.724   4.940   8.429
  714TIP3   OH223700   0.341   6.747   3.085
  714TIP3    H123701   0.309   6.737   2.996
  714TIP3    H223702   0.436   6.746   3.077
  715TIP3   OH223703   6.432   4.799   8.011
  715TIP3    H123704   6.524   4.801   8.038
  715TIP3    H223705   6.426   4.723   7.952
  716TIP3   OH223706   1.423   4.432   1.222
  716TIP3    H123707   1.499   4.373   1.225
  716TIP3    H223708   1.349   4.375   1.204
  717TIP3   OH223709   4.600   2.092   8.602
  717TIP3    H123710   4.669   2.156   8.583
  717TIP3    H223711   4.518   2.139   8.584
  718TIP3   OH223712   4.307   0.419   6.547
  718TIP3    H123713   4.337   0.330   6.568
  718TIP3    H223714   4.331   0.470   6.624
  719TIP3   OH223715   2.058   6.310   6.675
  719TIP3    H123716   1.979   6.270   6.711
  719TIP3    H223717   2.130   6.259   6.712
  720TIP3   OH223718   5.629   0.833   0.952
  720TIP3    H123719   5.619   0.905   0.890
  720TIP3    H223720   5.553   0.840   1.009
  721TIP3   OH223721   3.116   0.645   1.756
  721TIP3    H123722   3.137   0.682   1.670
  721TIP3    H223723   3.169   0.566   1.762
  722TIP3   OH223724   3.616   3.740   1.336
  722TIP3    H123725   3.550   3.801   1.369
  722TIP3    H223726   3.688   3.747   1.399
  723TIP3   OH223727   5.929   2.971   1.180
  723TIP3    H123728   5.885   2.916   1.245
  723TIP3    H223729   6.022   2.958   1.199
  724TIP3   OH223730   4.684   0.185   1.944
  724TIP3    H123731   4.746   0.237   1.892
  724TIP3    H223732   4.740   0.141   2.009
  725TIP3   OH223733   2.797   3.579   6.492
  725TIP3    H123734   2.775   3.507   6.552
  725TIP3    H223735   2.713   3.621   6.473
  726TIP3   OH223736   2.946   0.637   8.171
  726TIP3    H123737   3.011   0.572   8.198
  726TIP3    H223738   2.896   0.593   8.102
  727TIP3   OH223739   4.211   0.726   8.571
  727TIP3    H123740   4.191   0.634   8.587
  727TIP3    H223741   4.218   0.765   8.658
  728TIP3   OH223742   2.807   1.561   1.507
  728TIP3    H123743   2.730   1.598   1.463
  728TIP3    H223744   2.823   1.478   1.462
  729TIP3   OH223745   6.595   2.997   1.292
  729TIP3    H123746   6.616   3.068   1.232
  729TIP3    H223747   6.626   3.028   1.378
  730TIP3   OH223748   6.624   2.237   8.171
  730TIP3    H123749   6.705   2.186   8.173
  730TIP3    H223750   6.649   2.325   8.197
  731TIP3   OH223751   2.399   6.043   0.177
  731TIP3    H123752   2.340   6.113   0.204
  731TIP3    H223753   2.463   6.086   0.120
  732TIP3   OH223754   2.959   1.590   7.837
  732TIP3    H123755   2.994   1.628   7.757
  732TIP3    H223756   3.036   1.568   7.889
  733TIP3   OH223757   6.604   6.524   0.238
  733TIP3    H123758   6.512   6.547   0.250
  733TIP3    H223759   6.616   6.446   0.291
  734TIP3   OH223760   6.132   1.866   1.291
  734TIP3    H123761   6.075   1.868   1.368
  734TIP3    H223762   6.154   1.957   1.275
  735TIP3   OH223763   5.061   0.309   7.132
  735TIP3    H123764   4.968   0.326   7.146
  735TIP3    H223765   5.083   0.358   7.053
  736TIP3   OH223766   4.294   4.656   7.406
  736TIP3    H123767   4.355   4.730   7.401
  736TIP3    H223768   4.332   4.597   7.471
  737TIP3   OH223769   3.327   5.241   1.005
  737TIP3    H123770   3.357   5.329   1.028
  737TIP3    H223771   3.387   5.213   0.936
  738TIP3   OH223772   1.478   0.232   2.431
  738TIP3    H123773   1.572   0.240   2.446
  738TIP3    H223774   1.471   0.209   2.338
  739TIP3   OH223775   3.025   6.535   2.599
  739TIP3    H123776   3.110   6.515   2.640
  739TIP3    H223777   3.022   6.631   2.596
  740TIP3   OH223778   3.218   0.152   7.816
  740TIP3    H123779   3.273   0.227   7.791
  740TIP3    H223780   3.190   0.114   7.733
  741TIP3   OH223781   1.763   2.621   1.244
  741TIP3    H123782   1.700   2.602   1.314
  741TIP3    H223783   1.827   2.550   1.251
  742TIP3   OH223784   3.952   3.747   6.708
  742TIP3    H123785   3.954   3.815   6.641
  742TIP3    H223786   3.990   3.670   6.665
  743TIP3   OH223787   4.738   0.587   1.425
  743TIP3    H123788   4.710   0.578   1.334
  743TIP3    H223789   4.736   0.681   1.441
  744TIP3   OH223790   0.653   4.171   7.224
  744TIP3    H123791   0.686   4.214   7.145
  744TIP3    H223792   0.624   4.085   7.193
  745TIP3   OH223793   1.478   0.667   8.408
  745TIP3    H123794   1.519   0.749   8.378
  745TIP3    H223795   1.476   0.612   8.330
  746TIP3   OH223796   1.831   4.582   7.638
  746TIP3    H123797   1.858   4.669   7.665
  746TIP3    H223798   1.740   4.574   7.667
  747TIP3   OH223799   0.600   3.775   8.325
  747TIP3    H123800   0.535   3.781   8.256
  747TIP3    H223801   0.555   3.733   8.398
  748TIP3   OH223802   6.692   5.908   8.677
  748TIP3    H123803   6.738   5.859   8.608
  748TIP3    H223804   6.599   5.891   8.661
  749TIP3   OH223805   1.893   1.800   0.993
  749TIP3    H123806   1.858   1.887   1.012
  749TIP3    H223807   1.962   1.787   1.058
  750TIP3   OH223808   5.159   6.287   1.853
  750TIP3    H123809   5.211   6.246   1.783
  750TIP3    H223810   5.169   6.381   1.838
  751TIP3   OH223811   5.592   3.413   7.373
  751TIP3    H123812   5.558   3.498   7.402
  751TIP3    H223813   5.675   3.434   7.329
  752TIP3   OH223814   5.273   1.306   8.578
  752TIP3    H123815   5.350   1.255   8.603
  752TIP3    H223816   5.301   1.397   8.581
  753TIP3   OH223817   1.715   3.806   0.608
  753TIP3    H123818   1.681   3.872   0.548
  753TIP3    H223819   1.655   3.732   0.601
  754TIP3   OH223820   3.375   0.532   1.362
  754TIP3    H123821   3.442   0.582   1.316
  754TIP3    H223822   3.305   0.595   1.380
  755TIP3   OH223823   1.739   4.597   8.206
  755TIP3    H123824   1.831   4.623   8.211
  755TIP3    H223825   1.731   4.521   8.264
  756TIP3   OH223826   4.112   1.898   1.052
  756TIP3    H123827   4.194   1.854   1.074
  756TIP3    H223828   4.138   1.989   1.033
  757TIP3   OH223829   0.659   5.930   7.292
  757TIP3    H123830   0.687   5.857   7.347
  757TIP3    H223831   0.694   5.909   7.205
  758TIP3   OH223832   0.753   6.674   2.546
  758TIP3    H123833   0.811   6.631   2.483
  758TIP3    H223834   0.708   6.741   2.494
  759TIP3   OH223835   3.954   4.375   6.234
  759TIP3    H123836   4.001   4.292   6.241
  759TIP3    H223837   4.010   4.429   6.179
  760TIP3   OH223838   2.821   1.484   8.316
  760TIP3    H123839   2.893   1.435   8.277
  760TIP3    H223840   2.846   1.576   8.306
  761TIP3   OH223841   5.230   6.283   2.602
  761TIP3    H123842   5.239   6.191   2.576
  761TIP3    H223843   5.311   6.324   2.571
  762TIP3   OH223844   5.584   3.633   8.460
  762TIP3    H123845   5.596   3.551   8.414
  762TIP3    H223846   5.664   3.683   8.443
  763TIP3   OH223847   3.302   0.288   1.216
  763TIP3    H123848   3.396   0.276   1.204
  763TIP3    H223849   3.294   0.373   1.260
  764TIP3   OH223850   0.863   2.282   1.148
  764TIP3    H123851   0.779   2.261   1.188
  764TIP3    H223852   0.881   2.372   1.177
  765TIP3   OH223853   6.640   0.523   8.586
  765TIP3    H123854   6.706   0.576   8.542
  765TIP3    H223855   6.641   0.553   8.677
  766TIP3   OH223856   5.942   0.349   1.943
  766TIP3    H123857   6.035   0.361   1.960
  766TIP3    H223858   5.906   0.317   2.026
  767TIP3   OH223859   5.518   3.266   7.603
  767TIP3    H123860   5.562   3.287   7.520
  767TIP3    H223861   5.433   3.230   7.576
  768TIP3   OH223862   5.255   2.528   0.801
  768TIP3    H123863   5.183   2.518   0.738
  768TIP3    H223864   5.326   2.475   0.764
  769TIP3   OH223865   5.072   1.264   0.602
  769TIP3    H123866   5.055   1.355   0.577
  769TIP3    H223867   5.021   1.212   0.540
  770TIP3   OH223868   5.762   5.073   2.359
  770TIP3    H123869   5.713   5.135   2.304
  770TIP3    H223870   5.694   5.026   2.408
  771TIP3   OH223871   4.989   1.646   8.091
  771TIP3    H123872   4.983   1.718   8.028
  771TIP3    H223873   5.053   1.676   8.156
  772TIP3   OH223874   2.437   6.060   8.509
  772TIP3    H123875   2.475   6.101   8.431
  772TIP3    H223876   2.367   6.121   8.535
  773TIP3   OH223877   3.712   0.899   6.526
  773TIP3    H123878   3.657   0.829   6.493
  773TIP3    H223879   3.747   0.943   6.448
  774TIP3   OH223880   0.691   2.421   6.880
  774TIP3    H123881   0.668   2.481   6.951
  774TIP3    H223882   0.663   2.466   6.800
  775TIP3   OH223883   1.252   1.938   8.226
  775TIP3    H123884   1.279   1.999   8.157
  775TIP3    H223885   1.328   1.933   8.284
  776TIP3   OH223886   3.033   0.683   7.217
  776TIP3    H123887   2.945   0.717   7.234
  776TIP3    H223888   3.084   0.708   7.294
  777TIP3   OH223889   3.804   4.400   1.136
  777TIP3    H123890   3.891   4.395   1.176
  777TIP3    H223891   3.774   4.310   1.132
  778TIP3   OH223892   3.049   6.425   0.416
  778TIP3    H123893   3.143   6.442   0.413
  778TIP3    H223894   3.010   6.511   0.433
  779TIP3   OH223895   0.366   1.730   7.501
  779TIP3    H123896   0.318   1.710   7.421
  779TIP3    H223897   0.458   1.731   7.474
  780TIP3   OH223898   4.484   4.823   0.629
  780TIP3    H123899   4.565   4.857   0.667
  780TIP3    H223900   4.451   4.762   0.694
  781TIP3   OH223901   5.732   1.824   2.229
  781TIP3    H123902   5.722   1.838   2.323
  781TIP3    H223903   5.728   1.729   2.218
  782TIP3   OH223904   3.876   1.997   7.791
  782TIP3    H123905   3.897   2.070   7.850
  782TIP3    H223906   3.950   1.937   7.800
  783TIP3   OH223907   4.653   0.907   1.476
  783TIP3    H123908   4.562   0.876   1.474
  783TIP3    H223909   4.666   0.948   1.391
  784TIP3   OH223910   1.808   3.790   1.361
  784TIP3    H123911   1.802   3.745   1.277
  784TIP3    H223912   1.721   3.782   1.399
  785TIP3   OH223913   6.611   2.456   0.487
  785TIP3    H123914   6.665   2.463   0.566
  785TIP3    H223915   6.661   2.400   0.428
  786TIP3   OH223916   6.815   5.784   8.475
  786TIP3    H123917   0.050   5.738   8.534
  786TIP3    H223918   0.047   5.832   8.415
  787TIP3   OH223919   1.047   5.157   7.937
  787TIP3    H123920   0.961   5.184   7.902
  787TIP3    H223921   1.098   5.238   7.939
  788TIP3   OH223922   6.560   0.553   1.039
  788TIP3    H123923   6.547   0.626   1.099
  788TIP3    H223924   6.649   0.522   1.057
  789TIP3   OH223925   1.168   3.219   1.811
  789TIP3    H123926   1.177   3.130   1.844
  789TIP3    H223927   1.085   3.250   1.848
  790TIP3   OH223928   1.189   0.397   8.078
  790TIP3    H123929   1.242   0.474   8.057
  790TIP3    H223930   1.214   0.332   8.012
  791TIP3   OH223931   5.649   2.618   1.831
  791TIP3    H123932   5.697   2.652   1.906
  791TIP3    H223933   5.558   2.642   1.848
  792TIP3   OH223934   5.218   5.602   1.191
  792TIP3    H123935   5.277   5.529   1.214
  792TIP3    H223936   5.275   5.667   1.151
  793TIP3   OH223937   4.493   3.773   1.825
  793TIP3    H123938   4.471   3.781   1.918
  793TIP3    H223939   4.456   3.852   1.785
  794TIP3   OH223940   3.272   4.989   1.116
  794TIP3    H123941   3.301   5.074   1.083
  794TIP3    H223942   3.242   5.007   1.205
  795TIP3   OH223943   1.637   6.365   6.504
  795TIP3    H123944   1.656   6.412   6.586
  795TIP3    H223945   1.550   6.329   6.517
  796TIP3   OH223946   4.908   4.180   2.159
  796TIP3    H123947   4.921   4.229   2.239
  796TIP3    H223948   4.942   4.236   2.090
  797TIP3   OH223949   3.550   4.335   6.938
  797TIP3    H123950   3.457   4.313   6.943
  797TIP3    H223951   3.584   4.316   7.025
  798TIP3   OH223952   2.353   5.103   2.183
  798TIP3    H123953   2.380   5.181   2.233
  798TIP3    H223954   2.434   5.070   2.144
  799TIP3   OH223955   1.046   3.559   6.050
  799TIP3    H123956   1.131   3.518   6.032
  799TIP3    H223957   1.068   3.639   6.098
  800TIP3   OH223958   5.291   3.481   0.086
  800TIP3    H123959   5.305   3.559   0.033
  800TIP3    H223960   5.317   3.408   0.030
  801TIP3   OH223961   3.941   6.494   6.639
  801TIP3    H123962   3.980   6.439   6.572
  801TIP3    H223963   3.896   6.433   6.697
  802TIP3   OH223964   6.608   4.604   0.453
  802TIP3    H123965   6.586   4.585   0.545
  802TIP3    H223966   6.663   4.683   0.457
  803TIP3   OH223967   6.205   0.424   6.567
  803TIP3    H123968   6.211   0.444   6.660
  803TIP3    H223969   6.140   0.485   6.533
  804TIP3   OH223970   5.333   6.249   1.477
  804TIP3    H123971   5.378   6.181   1.527
  804TIP3    H223972   5.403   6.297   1.432
  805TIP3   OH223973   6.420   6.615   7.831
  805TIP3    H123974   6.324   6.614   7.832
  805TIP3    H223975   6.445   6.555   7.902
  806TIP3   OH223976   5.553   2.741   0.466
  806TIP3    H123977   5.624   2.695   0.421
  806TIP3    H223978   5.576   2.736   0.559
  807TIP3   OH223979   6.082   4.521   6.777
  807TIP3    H123980   6.111   4.430   6.778
  807TIP3    H223981   6.144   4.565   6.719
  808TIP3   OH223982   0.234   3.546   8.010
  808TIP3    H123983   0.304   3.483   7.998
  808TIP3    H223984   0.189   3.518   8.090
  809TIP3   OH223985   4.090   2.203   1.951
  809TIP3    H123986   4.037   2.124   1.946
  809TIP3    H223987   4.125   2.215   1.863
  810TIP3   OH223988   1.872   6.645   0.151
  810TIP3    H123989   1.909   6.732   0.139
  810TIP3    H223990   1.892   6.599   0.070
  811TIP3   OH223991   3.992   0.089   1.707
  811TIP3    H123992   4.054   0.141   1.757
  811TIP3    H223993   4.002   0.000   1.741
  812TIP3   OH223994   3.425   4.364   6.138
  812TIP3    H123995   3.335   4.335   6.122
  812TIP3    H223996   3.439   4.345   6.231
  813TIP3   OH223997   4.369   3.944   1.555
  813TIP3    H123998   4.374   3.991   1.638
  813TIP3    H223999   4.429   3.992   1.497
  814TIP3   OH224000   3.022   1.076   0.339
  814TIP3    H124001   2.964   1.138   0.382
  814TIP3    H224002   2.967   1.030   0.275
  815TIP3   OH224003   2.093   2.295   8.006
  815TIP3    H124004   2.089   2.383   7.970
  815TIP3    H224005   2.185   2.282   8.027
  816TIP3   OH224006   0.703   6.154   0.903
  816TIP3    H124007   0.798   6.160   0.897
  816TIP3    H224008   0.671   6.194   0.822
  817TIP3   OH224009   2.421   3.044   1.216
  817TIP3    H124010   2.447   3.018   1.128
  817TIP3    H224011   2.348   2.987   1.238
  818TIP3   OH224012   5.657   1.083   1.131
  818TIP3    H124013   5.568   1.082   1.166
  818TIP3    H224014   5.680   0.991   1.121
  819TIP3   OH224015   2.094   3.996   1.256
  819TIP3    H124016   2.097   4.090   1.274
  819TIP3    H224017   2.037   3.988   1.180
  820TIP3   OH224018   4.749   5.552   7.424
  820TIP3    H124019   4.829   5.574   7.472
  820TIP3    H224020   4.779   5.537   7.334
  821TIP3   OH224021   5.003   6.000   0.129
  821TIP3    H124022   4.957   6.037   0.205
  821TIP3    H224023   5.033   5.914   0.159
  822TIP3   OH224024   1.352   6.706   0.300
  822TIP3    H124025   1.310   6.669   0.222
  822TIP3    H224026   1.287   6.698   0.369
  823TIP3   OH224027   4.427   6.548   2.381
  823TIP3    H124028   4.384   6.476   2.427
  823TIP3    H224029   4.447   6.513   2.294
  824TIP3   OH224030   5.125   4.617   0.682
  824TIP3    H124031   5.148   4.536   0.635
  824TIP3    H224032   5.190   4.681   0.653
  825TIP3   OH224033   1.396   1.443   7.516
  825TIP3    H124034   1.430   1.354   7.507
  825TIP3    H224035   1.433   1.474   7.599
  826TIP3   OH224036   3.191   1.544   8.027
  826TIP3    H124037   3.247   1.620   8.044
  826TIP3    H224038   3.142   1.532   8.109
  827TIP3   OH224039   3.597   2.723   0.046
  827TIP3    H124040   3.523   2.682   0.092
  827TIP3    H224041   3.561   2.805   0.012
  828TIP3   OH224042   3.881   6.646   0.996
  828TIP3    H124043   3.974   6.632   0.983
  828TIP3    H224044   3.842   6.559   0.994
  829TIP3   OH224045   5.487   5.530   1.342
  829TIP3    H124046   5.543   5.452   1.345
  829TIP3    H224047   5.453   5.538   1.431
  830TIP3   OH224048   3.900   0.879   2.388
  830TIP3    H124049   3.891   0.974   2.384
  830TIP3    H224050   3.811   0.846   2.399
  831TIP3   OH224051   3.393   6.698   7.497
  831TIP3    H124052   3.450   6.774   7.489
  831TIP3    H224053   3.447   6.632   7.541
  832TIP3   OH224054   5.742   6.245   8.086
  832TIP3    H124055   5.705   6.305   8.020
  832TIP3    H224056   5.833   6.272   8.095
  833TIP3   OH224057   5.132   1.966   7.455
  833TIP3    H124058   5.142   2.037   7.391
  833TIP3    H224059   5.110   1.889   7.403
  834TIP3   OH224060   4.599   5.821   1.563
  834TIP3    H124061   4.567   5.817   1.473
  834TIP3    H224062   4.607   5.914   1.581
  835TIP3   OH224063   1.625   3.920   0.262
  835TIP3    H124064   1.685   3.980   0.306
  835TIP3    H224065   1.573   3.975   0.204
  836TIP3   OH224066   5.149   3.810   7.485
  836TIP3    H124067   5.142   3.852   7.399
  836TIP3    H224068   5.193   3.875   7.540
  837TIP3   OH224069   4.653   0.217   8.374
  837TIP3    H124070   4.667   0.277   8.300
  837TIP3    H224071   4.625   0.274   8.445
  838TIP3   OH224072   2.638   0.607   0.059
  838TIP3    H124073   2.724   0.586   0.022
  838TIP3    H224074   2.590   0.524   0.059
  839TIP3   OH224075   1.604   3.154   7.749
  839TIP3    H124076   1.658   3.080   7.721
  839TIP3    H224077   1.665   3.212   7.795
  840TIP3   OH224078   4.366   0.192   6.674
  840TIP3    H124079   4.377   0.099   6.697
  840TIP3    H224080   4.416   0.239   6.741
  841TIP3   OH224081   5.946   0.362   1.357
  841TIP3    H124082   5.935   0.301   1.430
  841TIP3    H224083   5.986   0.440   1.396
  842TIP3   OH224084   0.283   0.405   7.569
  842TIP3    H124085   0.263   0.378   7.479
  842TIP3    H224086   0.210   0.462   7.593
  843TIP3   OH224087   0.177   3.015   7.010
  843TIP3    H124088   0.168   2.953   6.937
  843TIP3    H224089   0.271   3.020   7.026
  844TIP3   OH224090   0.408   1.922   8.781
  844TIP3    H124091   0.472   1.932   0.070
  844TIP3    H224092   0.457   1.887   8.707
  845TIP3   OH224093   0.533   3.910   7.197
  845TIP3    H124094   0.624   3.900   7.170
  845TIP3    H224095   0.513   3.830   7.245
  846TIP3   OH224096   5.153   6.196   6.513
  846TIP3    H124097   5.205   6.267   6.475
  846TIP3    H224098   5.218   6.133   6.545
  847TIP3   OH224099   5.146   4.105   1.058
  847TIP3    H124100   5.053   4.123   1.070
  847TIP3    H224101   5.189   4.162   1.122
  848TIP3   OH224102   6.040   0.174   8.511
  848TIP3    H124103   6.013   0.133   8.593
  848TIP3    H224104   6.023   0.267   8.523
  849TIP3   OH224105   0.722   5.643   8.358
  849TIP3    H124106   0.700   5.649   8.265
  849TIP3    H224107   0.759   5.729   8.379
  850TIP3   OH224108   2.419   4.629   1.426
  850TIP3    H124109   2.411   4.655   1.518
  850TIP3    H224110   2.510   4.648   1.404
  851TIP3   OH224111   3.226   1.296   7.891
  851TIP3    H124112   3.179   1.379   7.903
  851TIP3    H224113   3.278   1.287   7.971
  852TIP3   OH224114   3.697   5.960   0.522
  852TIP3    H124115   3.761   5.987   0.456
  852TIP3    H224116   3.644   6.038   0.537
  853TIP3   OH224117   2.276   6.147   0.941
  853TIP3    H124118   2.358   6.101   0.924
  853TIP3    H224119   2.291   6.236   0.908
  854TIP3   OH224120   5.371   5.551   7.620
  854TIP3    H124121   5.463   5.552   7.595
  854TIP3    H224122   5.369   5.584   7.710
  855TIP3   OH224123   4.795   1.519   0.164
  855TIP3    H124124   4.706   1.555   0.168
  855TIP3    H224125   4.838   1.571   0.096
  856TIP3   OH224126   6.336   3.918   0.313
  856TIP3    H124127   6.326   4.013   0.302
  856TIP3    H224128   6.430   3.905   0.327
  857TIP3   OH224129   1.588   6.675   1.051
  857TIP3    H124130   1.497   6.674   1.082
  857TIP3    H224131   1.608   6.583   1.033
  858TIP3   OH224132   0.395   0.612   7.772
  858TIP3    H124133   0.352   0.534   7.807
  858TIP3    H224134   0.488   0.598   7.790
  859TIP3   OH224135   2.695   0.457   7.483
  859TIP3    H124136   2.768   0.490   7.536
  859TIP3    H224137   2.738   0.408   7.412
  860TIP3   OH224138   5.934   2.689   1.610
  860TIP3    H124139   6.026   2.680   1.584
  860TIP3    H224140   5.936   2.686   1.705
  861TIP3   OH224141   4.367   5.969   1.800
  861TIP3    H124142   4.429   5.988   1.730
  861TIP3    H224143   4.405   5.894   1.847
  862TIP3   OH224144   4.542   1.543   1.186
  862TIP3    H124145   4.545   1.481   1.113
  862TIP3    H224146   4.521   1.489   1.263
  863TIP3   OH224147   6.112   5.005   7.743
  863TIP3    H124148   6.205   4.985   7.737
  863TIP3    H224149   6.076   4.980   7.658
  864TIP3   OH224150   5.847   1.432   1.169
  864TIP3    H124151   5.941   1.446   1.167
  864TIP3    H224152   5.836   1.355   1.226
  865TIP3   OH224153   5.024   6.294   2.417
  865TIP3    H124154   5.034   6.212   2.368
  865TIP3    H224155   5.099   6.295   2.477
  866TIP3   OH224156   5.491   4.713   0.332
  866TIP3    H124157   5.430   4.733   0.261
  866TIP3    H224158   5.531   4.798   0.354
  867TIP3   OH224159   1.950   1.297   0.283
  867TIP3    H124160   1.860   1.303   0.252
  867TIP3    H224161   1.993   1.239   0.221
  868TIP3   OH224162   0.040   0.762   1.062
  868TIP3    H124163   0.079   0.676   1.078
  868TIP3    H224164   0.114   0.817   1.037
  869TIP3   OH224165   1.756   0.853   7.230
  869TIP3    H124166   1.811   0.821   7.302
  869TIP3    H224167   1.794   0.815   7.151
  870TIP3   OH224168   4.099   6.258   8.279
  870TIP3    H124169   4.085   6.266   8.185
  870TIP3    H224170   4.167   6.191   8.288
  871TIP3   OH224171   0.994   2.892   1.773
  871TIP3    H124172   1.073   2.920   1.820
  871TIP3    H224173   0.922   2.921   1.828
  872TIP3   OH224174   2.202   0.107   2.467
  872TIP3    H124175   2.270   0.111   2.535
  872TIP3    H224176   2.234   0.039   2.407
  873TIP3   OH224177   1.261   0.986   0.750
  873TIP3    H124178   1.272   1.077   0.778
  873TIP3    H224179   1.249   0.937   0.832
  874TIP3   OH224180   6.592   3.631   2.962
  874TIP3    H124181   6.668   3.690   2.956
  874TIP3    H224182   6.621   3.550   2.921
  875TIP3   OH224183   5.459   0.193   0.939
  875TIP3    H124184   5.497   0.154   1.018
  875TIP3    H224185   5.505   0.150   0.867
  876TIP3   OH224186   3.111   4.820   6.523
  876TIP3    H124187   3.090   4.885   6.456
  876TIP3    H224188   3.111   4.736   6.476
  877TIP3   OH224189   2.518   6.492   1.296
  877TIP3    H124190   2.444   6.503   1.236
  877TIP3    H224191   2.595   6.490   1.239
  878TIP3   OH224192   5.801   6.530   8.258
  878TIP3    H124193   5.810   6.577   8.340
  878TIP3    H224194   5.786   6.439   8.283
  879TIP3   OH224195   4.818   5.030   2.093
  879TIP3    H124196   4.754   4.998   2.029
  879TIP3    H224197   4.903   5.009   2.053
  880TIP3   OH224198   0.233   0.847   8.474
  880TIP3    H124199   0.186   0.929   8.465
  880TIP3    H224200   0.303   0.866   8.536
  881TIP3   OH224201   3.237   4.268   0.835
  881TIP3    H124202   3.236   4.178   0.803
  881TIP3    H224203   3.162   4.274   0.894
  882TIP3   OH224204   5.962   5.079   7.951
  882TIP3    H124205   5.919   5.158   7.917
  882TIP3    H224206   6.000   5.037   7.874
  883TIP3   OH224207   5.746   1.308   2.486
  883TIP3    H124208   5.811   1.374   2.459
  883TIP3    H224209   5.768   1.231   2.433
  884TIP3   OH224210   0.800   5.004   0.191
  884TIP3    H124211   0.891   5.003   0.220
  884TIP3    H224212   0.806   5.011   0.096
  885TIP3   OH224213   5.459   0.580   8.608
  885TIP3    H124214   5.457   0.485   8.620
  885TIP3    H224215   5.543   0.597   8.566
  886TIP3   OH224216   6.777   6.561   7.501
  886TIP3    H124217   0.033   6.612   7.495
  886TIP3    H224218   6.791   6.502   7.574
  887TIP3   OH224219   0.248   2.954   7.801
  887TIP3    H124220   0.292   2.890   7.857
  887TIP3    H224221   0.313   2.976   7.734
  888TIP3   OH224222   5.083   3.216   8.599
  888TIP3    H124223   5.052   3.133   8.634
  888TIP3    H224224   5.154   3.192   8.540
  889TIP3   OH224225   2.124   0.250   0.500
  889TIP3    H124226   2.132   0.286   0.411
  889TIP3    H224227   2.031   0.229   0.509
  890TIP3   OH224228   5.912   3.957   7.599
  890TIP3    H124229   5.999   3.979   7.566
  890TIP3    H224230   5.873   3.903   7.531
  891TIP3   OH224231   6.656   1.520   8.398
  891TIP3    H124232   6.699   1.458   8.339
  891TIP3    H224233   6.691   1.605   8.373
  892TIP3   OH224234   1.904   4.828   0.181
  892TIP3    H124235   1.942   4.915   0.192
  892TIP3    H224236   1.889   4.819   0.087
  893TIP3   OH224237   1.835   5.626   8.552
  893TIP3    H124238   1.773   5.584   8.612
  893TIP3    H224239   1.912   5.569   8.553
  894TIP3   OH224240   2.231   3.615   7.802
  894TIP3    H124241   2.323   3.595   7.820
  894TIP3    H224242   2.222   3.708   7.819
  895TIP3   OH224243   6.187   2.921   0.208
  895TIP3    H124244   6.102   2.951   0.175
  895TIP3    H224245   6.176   2.920   0.303
  896TIP3   OH224246   3.224   4.167   7.529
  896TIP3    H124247   3.183   4.150   7.445
  896TIP3    H224248   3.181   4.106   7.590
  897TIP3   OH224249   6.289   1.882   0.439
  897TIP3    H124250   6.263   1.841   0.356
  897TIP3    H224251   6.289   1.810   0.502
  898TIP3   OH224252   2.549   4.879   0.609
  898TIP3    H124253   2.596   4.947   0.560
  898TIP3    H224254   2.579   4.797   0.571
  899TIP3   OH224255   2.788   0.356   8.315
  899TIP3    H124256   2.860   0.323   8.368
  899TIP3    H224257   2.775   0.290   8.247
  900TIP3   OH224258   6.549   2.221   1.049
  900TIP3    H124259   6.635   2.179   1.044
  900TIP3    H224260   6.567   2.314   1.033
  901TIP3   OH224261   5.278   5.695   7.270
  901TIP3    H124262   5.280   5.786   7.240
  901TIP3    H224263   5.251   5.645   7.193
  902TIP3   OH224264   3.115   1.168   1.012
  902TIP3    H124265   3.028   1.137   0.985
  902TIP3    H224266   3.175   1.102   0.978
  903TIP3   OH224267   6.685   4.446   7.496
  903TIP3    H124268   6.763   4.405   7.458
  903TIP3    H224269   6.618   4.439   7.427
  904TIP3   OH224270   5.216   5.392   0.254
  904TIP3    H124271   5.263   5.331   0.197
  904TIP3    H224272   5.265   5.474   0.246
  905TIP3   OH224273   5.210   0.423   1.075
  905TIP3    H124274   5.239   0.333   1.087
  905TIP3    H224275   5.117   0.423   1.098
  906TIP3   OH224276   2.087   5.854   0.177
  906TIP3    H124277   2.103   5.939   0.218
  906TIP3    H224278   2.100   5.870   0.083
  907TIP3   OH224279   1.214   1.290   5.934
  907TIP3    H124280   1.277   1.225   5.903
  907TIP3    H224281   1.176   1.252   6.013
  908TIP3   OH224282   2.641   5.509   1.522
  908TIP3    H124283   2.679   5.594   1.501
  908TIP3    H224284   2.619   5.470   1.437
  909TIP3   OH224285   6.640   1.540   2.709
  909TIP3    H124286   6.629   1.578   2.796
  909TIP3    H224287   6.553   1.543   2.670
  910TIP3   OH224288   0.946   5.014   6.529
  910TIP3    H124289   0.901   5.082   6.579
  910TIP3    H224290   0.972   4.948   6.594
  911TIP3   OH224291   5.388   3.385   8.466
  911TIP3    H124292   5.396   3.470   8.423
  911TIP3    H224293   5.353   3.327   8.399
  912TIP3   OH224294   4.300   3.484   7.652
  912TIP3    H124295   4.313   3.579   7.656
  912TIP3    H224296   4.307   3.463   7.559
  913TIP3   OH224297   2.101   2.720   8.046
  913TIP3    H124298   2.172   2.712   8.109
  913TIP3    H224299   2.144   2.737   7.962
  914TIP3   OH224300   5.277   0.432   0.247
  914TIP3    H124301   5.200   0.376   0.239
  914TIP3    H224302   5.340   0.396   0.184
  915TIP3   OH224303   3.269   2.166   8.132
  915TIP3    H124304   3.336   2.105   8.101
  915TIP3    H224305   3.269   2.157   8.227
  916TIP3   OH224306   5.365   6.001   8.080
  916TIP3    H124307   5.299   6.063   8.048
  916TIP3    H224308   5.398   5.958   8.000
  917TIP3   OH224309   4.148   4.217   1.597
  917TIP3    H124310   4.188   4.277   1.659
  917TIP3    H224311   4.196   4.135   1.609
  918TIP3   OH224312   4.046   1.063   1.984
  918TIP3    H124313   3.977   1.116   1.944
  918TIP3    H224314   4.093   1.024   1.911
  919TIP3   OH224315   2.595   4.046   8.151
  919TIP3    H124316   2.529   4.070   8.216
  919TIP3    H224317   2.620   4.129   8.110
  920TIP3   OH224318   5.076   3.849   1.244
  920TIP3    H124319   5.110   3.933   1.213
  920TIP3    H224320   5.056   3.863   1.336
  921TIP3   OH224321   1.603   3.807   7.160
  921TIP3    H124322   1.553   3.876   7.204
  921TIP3    H224323   1.537   3.746   7.127
  922TIP3   OH224324   4.901   6.460   8.358
  922TIP3    H124325   4.926   6.535   8.304
  922TIP3    H224326   4.976   6.401   8.355
  923TIP3   OH224327   5.147   3.596   7.636
  923TIP3    H124328   5.137   3.665   7.570
  923TIP3    H224329   5.120   3.637   7.718
  924TIP3   OH224330   5.202   4.597   7.873
  924TIP3    H124331   5.229   4.547   7.950
  924TIP3    H224332   5.109   4.615   7.886
  925TIP3   OH224333   4.158   2.188   0.985
  925TIP3    H124334   4.126   2.239   1.060
  925TIP3    H224335   4.252   2.203   0.983
  926TIP3   OH224336   4.468   4.486   7.542
  926TIP3    H124337   4.556   4.468   7.574
  926TIP3    H224338   4.416   4.411   7.570
  927TIP3   OH224339   0.610   2.912   1.589
  927TIP3    H124340   0.652   2.875   1.511
  927TIP3    H224341   0.586   2.836   1.642
  928TIP3   OH224342   2.301   2.808   0.259
  928TIP3    H124343   2.379   2.840   0.305
  928TIP3    H224344   2.333   2.781   0.173
  929TIP3   OH224345   0.486   0.043   7.949
  929TIP3    H124346   0.570   0.089   7.955
  929TIP3    H224347   0.432   0.083   8.017
  930TIP3   OH224348   2.942   5.567   1.449
  930TIP3    H124349   3.027   5.536   1.419
  930TIP3    H224350   2.957   5.594   1.540
  931TIP3   OH224351   5.059   4.816   0.279
  931TIP3    H124352   5.067   4.770   0.362
  931TIP3    H224353   5.146   4.810   0.239
  932TIP3   OH224354   0.424   0.073   1.186
  932TIP3    H124355   0.517   0.052   1.193
  932TIP3    H224356   0.389   0.007   1.126
  933TIP3   OH224357   4.291   2.809   1.869
  933TIP3    H124358   4.269   2.744   1.936
  933TIP3    H224359   4.214   2.866   1.866
  934TIP3   OH224360   4.136   5.636   8.701
  934TIP3    H124361   4.077   5.565   8.676
  934TIP3    H224362   4.140   5.631   0.016
  935TIP3   OH224363   5.687   1.413   1.615
  935TIP3    H124364   5.638   1.352   1.670
  935TIP3    H224365   5.763   1.437   1.667
  936TIP3   OH224366   1.359   3.831   8.286
  936TIP3    H124367   1.357   3.739   8.258
  936TIP3    H224368   1.268   3.860   8.276
  937TIP3   OH224369   3.659   2.939   7.433
  937TIP3    H124370   3.598   3.013   7.441
  937TIP3    H224371   3.604   2.862   7.448
  938TIP3   OH224372   3.962   0.404   7.872
  938TIP3    H124373   3.946   0.440   7.959
  938TIP3    H224374   3.914   0.461   7.813
  939TIP3   OH224375   4.631   0.210   7.098
  939TIP3    H124376   4.556   0.150   7.099
  939TIP3    H224377   4.695   0.167   7.042
  940TIP3   OH224378   0.374   0.804   0.297
  940TIP3    H124379   0.320   0.858   0.356
  940TIP3    H224380   0.458   0.796   0.342
  941TIP3   OH224381   2.662   5.330   2.270
  941TIP3    H124382   2.626   5.256   2.222
  941TIP3    H224383   2.625   5.323   2.358
  942TIP3   OH224384   3.989   1.907   7.298
  942TIP3    H124385   4.022   1.922   7.210
  942TIP3    H224386   4.063   1.869   7.345
  943TIP3   OH224387   2.421   5.272   1.449
  943TIP3    H124388   2.379   5.283   1.363
  943TIP3    H224389   2.490   5.338   1.451
  944TIP3   OH224390   3.257   5.348   8.275
  944TIP3    H124391   3.203   5.269   8.277
  944TIP3    H224392   3.335   5.323   8.225
  945TIP3   OH224393   2.075   6.247   1.542
  945TIP3    H124394   2.090   6.295   1.460
  945TIP3    H224395   2.146   6.276   1.599
  946TIP3   OH224396   1.733   6.785   7.783
  946TIP3    H124397   1.687   0.024   7.837
  946TIP3    H224398   1.822   6.783   7.819
  947TIP3   OH224399   0.749   3.277   6.337
  947TIP3    H124400   0.788   3.346   6.284
  947TIP3    H224401   0.776   3.297   6.427
  948TIP3   OH224402   3.249   5.997   0.201
  948TIP3    H124403   3.202   5.915   0.190
  948TIP3    H224404   3.335   5.981   0.164
  949TIP3   OH224405   3.374   6.410   6.326
  949TIP3    H124406   3.463   6.375   6.335
  949TIP3    H224407   3.386   6.495   6.284
  950TIP3   OH224408   1.928   3.254   1.627
  950TIP3    H124409   1.851   3.285   1.675
  950TIP3    H224410   2.002   3.299   1.668
  951TIP3   OH224411   2.896   0.038   6.696
  951TIP3    H124412   2.831   0.108   6.687
  951TIP3    H224413   2.979   0.079   6.671
  952TIP3   OH224414   1.577   0.437   7.091
  952TIP3    H124415   1.544   0.520   7.126
  952TIP3    H224416   1.565   0.374   7.162
  953TIP3   OH224417   2.716   3.606   1.101
  953TIP3    H124418   2.643   3.642   1.150
  953TIP3    H224419   2.793   3.652   1.134
  954TIP3   OH224420   4.572   1.610   7.689
  954TIP3    H124421   4.662   1.612   7.720
  954TIP3    H224422   4.535   1.694   7.717
  955TIP3   OH224423   3.077   5.266   1.924
  955TIP3    H124424   3.015   5.241   1.856
  955TIP3    H224425   3.159   5.222   1.900
  956TIP3   OH224426   5.642   5.334   0.115
  956TIP3    H124427   5.567   5.394   0.120
  956TIP3    H224428   5.673   5.328   0.205
  957TIP3   OH224429   1.426   3.373   8.541
  957TIP3    H124430   1.470   3.357   8.625
  957TIP3    H224431   1.453   3.300   8.485
  958TIP3   OH224432   3.328   3.072   7.213
  958TIP3    H124433   3.277   3.026   7.146
  958TIP3    H224434   3.351   3.004   7.276
  959TIP3   OH224435   5.101   3.725   7.894
  959TIP3    H124436   5.007   3.705   7.904
  959TIP3    H224437   5.105   3.821   7.894
  960TIP3   OH224438   4.557   0.294   1.513
  960TIP3    H124439   4.584   0.213   1.469
  960TIP3    H224440   4.535   0.267   1.602
  961TIP3   OH224441   2.190   2.749   1.810
  961TIP3    H124442   2.184   2.734   1.904
  961TIP3    H224443   2.124   2.691   1.772
  962TIP3   OH224444   0.983   4.094   8.121
  962TIP3    H124445   1.004   4.182   8.090
  962TIP3    H224446   0.994   4.038   8.045
  963TIP3   OH224447   2.183   6.674   2.390
  963TIP3    H124448   2.111   6.673   2.453
  963TIP3    H224449   2.185   6.586   2.354
  964TIP3   OH224450   1.653   2.862   7.941
  964TIP3    H124451   1.693   2.946   7.915
  964TIP3    H224452   1.726   2.800   7.943
  965TIP3   OH224453   2.830   5.082   7.130
  965TIP3    H124454   2.814   5.171   7.098
  965TIP3    H224455   2.898   5.093   7.197
  966TIP3   OH224456   1.466   2.813   6.738
  966TIP3    H124457   1.396   2.785   6.796
  966TIP3    H224458   1.546   2.797   6.788
  967TIP3   OH224459   2.313   2.247   0.689
  967TIP3    H124460   2.375   2.315   0.663
  967TIP3    H224461   2.232   2.271   0.645
  968TIP3   OH224462   3.486   6.617   6.633
  968TIP3    H124463   3.500   6.652   6.721
  968TIP3    H224464   3.440   6.534   6.647
  969TIP3   OH224465   6.567   3.818   6.886
  969TIP3    H124466   6.482   3.780   6.907
  969TIP3    H224467   6.561   3.845   6.795
  970TIP3   OH224468   3.645   3.933   6.972
  970TIP3    H124469   3.635   3.926   6.877
  970TIP3    H224470   3.567   3.981   7.001
  971TIP3   OH224471   2.097   4.487   1.955
  971TIP3    H124472   2.179   4.522   1.919
  971TIP3    H224473   2.037   4.484   1.880
  972TIP3   OH224474   2.368   5.899   7.615
  972TIP3    H124475   2.297   5.901   7.552
  972TIP3    H224476   2.388   5.991   7.632
  973TIP3   OH224477   5.831   2.934   7.706
  973TIP3    H124478   5.778   2.889   7.773
  973TIP3    H224479   5.798   3.024   7.706
  974TIP3   OH224480   0.586   0.839   1.626
  974TIP3    H124481   0.562   0.832   1.718
  974TIP3    H224482   0.595   0.748   1.597
  975TIP3   OH224483   5.072   2.092   8.524
  975TIP3    H124484   5.083   2.185   8.543
  975TIP3    H224485   4.998   2.088   8.463
  976TIP3   OH224486   1.301   5.357   2.141
  976TIP3    H124487   1.277   5.349   2.048
  976TIP3    H224488   1.270   5.443   2.167
  977TIP3   OH224489   1.967   4.319   7.835
  977TIP3    H124490   2.005   4.284   7.754
  977TIP3    H224491   1.886   4.269   7.846
  978TIP3   OH224492   0.071   1.287   0.542
  978TIP3    H124493   0.086   1.246   0.627
  978TIP3    H224494   0.116   1.371   0.548
  979TIP3   OH224495   4.755   5.890   1.876
  979TIP3    H124496   4.763   5.806   1.831
  979TIP3    H224497   4.662   5.899   1.895
  980TIP3   OH224498   4.862   0.381   0.439
  980TIP3    H124499   4.935   0.344   0.489
  980TIP3    H224500   4.896   0.463   0.404
  981TIP3   OH224501   1.462   5.785   8.764
  981TIP3    H124502   1.395   5.735   8.718
  981TIP3    H224503   1.427   5.875   8.768
  982TIP3   OH224504   1.012   4.936   1.457
  982TIP3    H124505   1.018   5.030   1.477
  982TIP3    H224506   1.103   4.910   1.441
  983TIP3   OH224507   2.898   0.782   2.105
  983TIP3    H124508   2.891   0.875   2.087
  983TIP3    H224509   2.931   0.778   2.195
  984TIP3   OH224510   0.691   6.188   7.441
  984TIP3    H124511   0.666   6.125   7.373
  984TIP3    H224512   0.755   6.142   7.495
  985TIP3   OH224513   1.958   0.178   1.861
  985TIP3    H124514   2.027   0.223   1.811
  985TIP3    H224515   1.986   0.187   1.952
  986TIP3   OH224516   6.680   6.651   8.298
  986TIP3    H124517   6.758   6.596   8.301
  986TIP3    H224518   6.654   6.651   8.206
  987TIP3   OH224519   6.000   4.142   8.756
  987TIP3    H124520   5.915   4.178   8.731
  987TIP3    H224521   6.064   4.200   8.715
  988TIP3   OH224522   5.351   4.149   2.011
  988TIP3    H124523   5.403   4.121   2.086
  988TIP3    H224524   5.346   4.245   2.019
  989TIP3   OH224525   4.518   1.666   6.580
  989TIP3    H124526   4.578   1.674   6.654
  989TIP3    H224527   4.566   1.705   6.506
  990TIP3   OH224528   2.006   6.157   0.944
  990TIP3    H124529   1.975   6.080   0.992
  990TIP3    H224530   2.101   6.153   0.951
  991TIP3   OH224531   3.373   0.778   6.910
  991TIP3    H124532   3.368   0.807   6.819
  991TIP3    H224533   3.466   0.779   6.931
  992TIP3   OH224534   5.896   0.191   1.566
  992TIP3    H124535   5.942   0.142   1.634
  992TIP3    H224536   5.814   0.144   1.552
  993TIP3   OH224537   4.584   5.545   6.615
  993TIP3    H124538   4.506   5.514   6.570
  993TIP3    H224539   4.612   5.622   6.565
  994TIP3   OH224540   0.354   1.877   1.831
  994TIP3    H124541   0.344   1.849   1.922
  994TIP3    H224542   0.448   1.878   1.816
  995TIP3   OH224543   3.108   4.148   7.276
  995TIP3    H124544   3.039   4.086   7.299
  995TIP3    H224545   3.067   4.207   7.212
  996TIP3   OH224546   0.626   6.688   8.604
  996TIP3    H124547   0.575   6.620   8.560
  996TIP3    H224548   0.572   6.714   8.679
  997TIP3   OH224549   1.857   4.119   0.322
  997TIP3    H124550   1.905   4.064   0.260
  997TIP3    H224551   1.821   4.190   0.268
  998TIP3   OH224552   6.354   5.869   7.208
  998TIP3    H124553   6.260   5.887   7.199
  998TIP3    H224554   6.384   5.931   7.275
  999TIP3   OH224555   5.080   0.204   0.474
  999TIP3    H124556   5.006   0.143   0.473
  999TIP3    H224557   5.144   0.163   0.532
 1000TIP3   OH224558   0.100   5.664   1.078
 1000TIP3    H124559   0.114   5.735   1.141
 1000TIP3    H224560   0.027   5.614   1.114
 1001TIP3   OH224561   0.107   1.822   0.443
 1001TIP3    H124562   0.105   1.916   0.427
 1001TIP3    H224563   0.194   1.794   0.415
 1002TIP3   OH224564   2.387   3.510   0.460
 1002TIP3    H124565   2.393   3.571   0.387
 1002TIP3    H224566   2.378   3.424   0.419
 1003TIP3   OH224567   2.866   4.537   7.984
 1003TIP3    H124568   2.837   4.556   7.895
 1003TIP3    H224569   2.808   4.589   8.039
 1004TIP3   OH224570   4.795   1.085   8.521
 1004TIP3    H124571   4.866   1.023   8.536
 1004TIP3    H224572   4.727   1.034   8.477
 1005TIP3   OH224573   5.130   0.864   6.381
 1005TIP3    H124574   5.135   0.956   6.408
 1005TIP3    H224575   5.067   0.864   6.308
 1006TIP3   OH224576   5.366   5.924   0.834
 1006TIP3    H124577   5.451   5.903   0.797
 1006TIP3    H224578   5.379   6.006   0.881
 1007TIP3   OH224579   2.324   5.572   2.384
 1007TIP3    H124580   2.293   5.661   2.366
 1007TIP3    H224581   2.419   5.578   2.374
 1008TIP3   OH224582   6.694   1.476   1.084
 1008TIP3    H124583   6.677   1.512   0.997
 1008TIP3    H224584   6.785   1.447   1.080
 1009TIP3   OH224585   5.937   3.380   1.607
 1009TIP3    H124586   5.926   3.299   1.559
 1009TIP3    H224587   5.931   3.355   1.699
 1010TIP3   OH224588   4.588   0.727   7.896
 1010TIP3    H124589   4.631   0.750   7.979
 1010TIP3    H224590   4.526   0.658   7.920
 1011TIP3   OH224591   3.422   4.766   1.397
 1011TIP3    H124592   3.346   4.728   1.353
 1011TIP3    H224593   3.498   4.728   1.352
 1012TIP3   OH224594   2.143   4.467   7.690
 1012TIP3    H124595   2.107   4.380   7.708
 1012TIP3    H224596   2.094   4.526   7.748
 1013TIP3   OH224597   2.823   6.409   6.527
 1013TIP3    H124598   2.753   6.408   6.462
 1013TIP3    H224599   2.785   6.368   6.605
 1014TIP3   OH224600   5.208   6.569   0.133
 1014TIP3    H124601   5.162   6.505   0.079
 1014TIP3    H224602   5.274   6.607   0.074
 1015TIP3   OH224603   3.321   4.813   0.916
 1015TIP3    H124604   3.279   4.874   0.977
 1015TIP3    H224605   3.317   4.857   0.831
 1016TIP3   OH224606   0.381   0.972   8.705
 1016TIP3    H124607   0.298   0.998   8.744
 1016TIP3    H224608   0.386   0.877   8.717
 1017TIP3   OH224609   3.966   6.755   7.701
 1017TIP3    H124610   3.918   6.765   7.619
 1017TIP3    H224611   3.961   6.661   7.721
 1018TIP3   OH224612   6.711   1.056   1.209
 1018TIP3    H124613   6.709   1.013   1.124
 1018TIP3    H224614   6.794   1.027   1.248
 1019TIP3   OH224615   0.580   3.442   8.711
 1019TIP3    H124616   0.625   3.414   0.009
 1019TIP3    H224617   0.548   3.530   8.731
 1020TIP3   OH224618   0.748   1.623   8.344
 1020TIP3    H124619   0.797   1.603   8.424
 1020TIP3    H224620   0.799   1.692   8.301
 1021TIP3   OH224621   2.205   5.945   8.734
 1021TIP3    H124622   2.242   5.937   8.647
 1021TIP3    H224623   2.275   5.982   0.006
 1022TIP3   OH224624   6.779   5.311   7.843
 1022TIP3    H124625   6.809   5.259   7.768
 1022TIP3    H224626   0.021   5.298   7.909
 1023TIP3   OH224627   6.291   1.595   1.399
 1023TIP3    H124628   6.202   1.578   1.368
 1023TIP3    H224629   6.347   1.574   1.324
 1024TIP3   OH224630   5.625   2.415   1.363
 1024TIP3    H124631   5.673   2.491   1.395
 1024TIP3    H224632   5.581   2.445   1.284
 1025TIP3   OH224633   1.966   3.836   0.728
 1025TIP3    H124634   1.991   3.748   0.757
 1025TIP3    H224635   1.873   3.828   0.706
 1026TIP3   OH224636   2.220   1.281   7.153
 1026TIP3    H124637   2.136   1.260   7.194
 1026TIP3    H224638   2.206   1.366   7.112
 1027TIP3   OH224639   3.633   2.866   7.176
 1027TIP3    H124640   3.642   2.873   7.271
 1027TIP3    H224641   3.609   2.775   7.161
 1028TIP3   OH224642   5.476   6.228   6.675
 1028TIP3    H124643   5.560   6.200   6.711
 1028TIP3    H224644   5.412   6.168   6.713
 1029TIP3   OH224645   3.858   6.367   1.979
 1029TIP3    H124646   3.825   6.455   1.960
 1029TIP3    H224647   3.786   6.323   2.024
 1030TIP3   OH224648   4.394   2.854   7.996
 1030TIP3    H124649   4.360   2.782   8.049
 1030TIP3    H224650   4.329   2.924   8.006
 1031TIP3   OH224651   4.750   3.485   6.360
 1031TIP3    H124652   4.748   3.472   6.455
 1031TIP3    H224653   4.799   3.566   6.348
 1032TIP3   OH224654   2.203   0.205   7.864
 1032TIP3    H124655   2.157   0.233   7.784
 1032TIP3    H224656   2.252   0.127   7.837
 1033TIP3   OH224657   3.792   4.301   8.687
 1033TIP3    H124658   3.717   4.305   8.628
 1033TIP3    H224659   3.861   4.259   8.636
 1034TIP3   OH224660   2.290   2.525   8.331
 1034TIP3    H124661   2.211   2.576   8.350
 1034TIP3    H224662   2.258   2.436   8.317
 1035TIP3   OH224663   2.155   5.549   7.428
 1035TIP3    H124664   2.176   5.629   7.379
 1035TIP3    H224665   2.236   5.528   7.475
 1036TIP3   OH224666   6.602   2.667   0.167
 1036TIP3    H124667   6.602   2.752   0.122
 1036TIP3    H224668   6.695   2.645   0.176
 1037TIP3   OH224669   1.167   4.850   1.164
 1037TIP3    H124670   1.174   4.783   1.096
 1037TIP3    H224671   1.080   4.889   1.150
 1038TIP3   OH224672   5.230   1.358   7.574
 1038TIP3    H124673   5.206   1.409   7.497
 1038TIP3    H224674   5.325   1.352   7.570
 1039TIP3   OH224675   2.443   3.805   0.842
 1039TIP3    H124676   2.496   3.853   0.907
 1039TIP3    H224677   2.507   3.754   0.792
 1040TIP3   OH224678   2.205   3.175   0.081
 1040TIP3    H124679   2.297   3.147   0.076
 1040TIP3    H224680   2.155   3.095   0.073
 1041TIP3   OH224681   3.090   4.685   7.991
 1041TIP3    H124682   3.033   4.757   7.965
 1041TIP3    H224683   3.033   4.608   7.993
 1042TIP3   OH224684   0.357   2.736   7.943
 1042TIP3    H124685   0.289   2.681   7.983
 1042TIP3    H224686   0.361   2.706   7.852
 1043TIP3   OH224687   5.387   0.205   8.177
 1043TIP3    H124688   5.292   0.202   8.186
 1043TIP3    H224689   5.413   0.117   8.152
 1044TIP3   OH224690   6.378   4.494   1.347
 1044TIP3    H124691   6.449   4.455   1.399
 1044TIP3    H224692   6.348   4.423   1.292
 1045TIP3   OH224693   4.809   4.337   0.771
 1045TIP3    H124694   4.775   4.330   0.681
 1045TIP3    H224695   4.733   4.363   0.823
 1046TIP3   OH224696   1.713   0.114   8.398
 1046TIP3    H124697   1.624   0.098   8.431
 1046TIP3    H224698   1.770   0.078   8.467
 1047TIP3   OH224699   3.722   0.947   7.295
 1047TIP3    H124700   3.747   0.958   7.203
 1047TIP3    H224701   3.758   1.024   7.338
 1048TIP3   OH224702   3.179   6.456   8.385
 1048TIP3    H124703   3.221   6.411   8.311
 1048TIP3    H224704   3.224   6.420   8.462
 1049TIP3   OH224705   4.849   5.071   0.665
 1049TIP3    H124706   4.892   5.035   0.588
 1049TIP3    H224707   4.853   5.000   0.730
 1050TIP3   OH224708   5.767   3.327   8.709
 1050TIP3    H124709   5.734   3.372   0.006
 1050TIP3    H224710   5.854   3.365   8.694
 1051TIP3   OH224711   5.439   4.015   1.356
 1051TIP3    H124712   5.450   4.020   1.451
 1051TIP3    H224713   5.357   4.062   1.339
 1052TIP3   OH224714   4.543   4.035   1.345
 1052TIP3    H124715   4.493   4.016   1.266
 1052TIP3    H224716   4.549   4.131   1.348
 1053TIP3   OH224717   4.837   1.000   0.147
 1053TIP3    H124718   4.902   0.988   0.077
 1053TIP3    H224719   4.793   1.082   0.125
 1054TIP3   OH224720   4.757   3.672   1.960
 1054TIP3    H124721   4.792   3.753   1.996
 1054TIP3    H224722   4.672   3.662   2.002
 1055TIP3   OH224723   3.166   3.498   1.087
 1055TIP3    H124724   3.185   3.576   1.035
 1055TIP3    H224725   3.184   3.425   1.028
 1056TIP3   OH224726   3.210   4.942   0.372
 1056TIP3    H124727   3.141   4.884   0.406
 1056TIP3    H224728   3.210   4.926   0.278
 1057TIP3   OH224729   2.074   4.204   7.617
 1057TIP3    H124730   2.034   4.179   7.534
 1057TIP3    H224731   2.168   4.190   7.603
 1058TIP3   OH224732   3.801   4.018   0.553
 1058TIP3    H124733   3.720   3.981   0.519
 1058TIP3    H224734   3.811   4.101   0.508
 1059TIP3   OH224735   1.328   5.047   0.942
 1059TIP3    H124736   1.313   5.026   1.034
 1059TIP3    H224737   1.374   4.970   0.907
 1060TIP3   OH224738   6.072   6.558   8.417
 1060TIP3    H124739   6.050   6.466   8.406
 1060TIP3    H224740   6.086   6.568   8.511
 1061TIP3   OH224741   1.517   1.704   8.277
 1061TIP3    H124742   1.562   1.644   8.337
 1061TIP3    H224743   1.504   1.783   8.329
 1062TIP3   OH224744   2.374   0.617   1.962
 1062TIP3    H124745   2.291   0.665   1.959
 1062TIP3    H224746   2.383   0.590   2.053
 1063TIP3   OH224747   2.535   1.956   7.031
 1063TIP3    H124748   2.523   1.861   7.039
 1063TIP3    H224749   2.454   1.993   7.066
 1064TIP3   OH224750   3.439   2.255   7.158
 1064TIP3    H124751   3.410   2.313   7.229
 1064TIP3    H224752   3.419   2.304   7.078
 1065TIP3   OH224753   4.443   0.583   7.109
 1065TIP3    H124754   4.433   0.535   7.191
 1065TIP3    H224755   4.533   0.615   7.109
 1066TIP3   OH224756   2.611   3.216   7.072
 1066TIP3    H124757   2.646   3.210   6.983
 1066TIP3    H224758   2.674   3.270   7.119
 1067TIP3   OH224759   5.635   6.202   7.530
 1067TIP3    H124760   5.723   6.224   7.560
 1067TIP3    H224761   5.646   6.120   7.481
 1068TIP3   OH224762   4.744   6.205   0.033
 1068TIP3    H124763   4.696   6.207   8.731
 1068TIP3    H224764   4.728   6.117   0.068
 1069TIP3   OH224765   1.500   3.197   8.334
 1069TIP3    H124766   1.539   3.279   8.305
 1069TIP3    H224767   1.511   3.137   8.260
 1070TIP3   OH224768   6.782   6.582   7.179
 1070TIP3    H124769   0.031   6.535   7.142
 1070TIP3    H224770   6.791   6.571   7.274
 1071TIP3   OH224771   5.860   3.262   6.400
 1071TIP3    H124772   5.950   3.249   6.371
 1071TIP3    H224773   5.847   3.197   6.469
 1072TIP3   OH224774   1.823   4.933   6.635
 1072TIP3    H124775   1.866   4.887   6.563
 1072TIP3    H224776   1.874   5.014   6.646
 1073TIP3   OH224777   3.324   2.128   8.408
 1073TIP3    H124778   3.342   2.035   8.422
 1073TIP3    H224779   3.354   2.171   8.488
 1074TIP3   OH224780   1.549   5.962   0.627
 1074TIP3    H124781   1.571   5.878   0.586
 1074TIP3    H224782   1.538   5.942   0.719
 1075TIP3   OH224783   2.134   2.489   7.779
 1075TIP3    H124784   2.217   2.515   7.739
 1075TIP3    H224785   2.067   2.533   7.725
 1076TIP3   OH224786   6.100   3.995   1.366
 1076TIP3    H124787   6.059   4.014   1.451
 1076TIP3    H224788   6.050   3.920   1.333
 1077TIP3   OH224789   2.161   6.485   2.026
 1077TIP3    H124790   2.128   6.473   2.116
 1077TIP3    H224791   2.255   6.495   2.036
 1078TIP3   OH224792   4.968   5.880   6.846
 1078TIP3    H124793   4.994   5.930   6.769
 1078TIP3    H224794   4.885   5.839   6.822
 1079TIP3   OH224795   3.488   1.070   7.121
 1079TIP3    H124796   3.461   1.030   7.038
 1079TIP3    H224797   3.485   1.164   7.104
 1080TIP3   OH224798   6.497   0.497   0.657
 1080TIP3    H124799   6.524   0.501   0.565
 1080TIP3    H224800   6.432   0.427   0.659
 1081TIP3   OH224801   4.416   0.050   7.037
 1081TIP3    H124802   4.424   6.798   6.981
 1081TIP3    H224803   4.323   0.053   7.060
 1082TIP3   OH224804   0.608   5.240   8.257
 1082TIP3    H124805   0.626   5.228   8.351
 1082TIP3    H224806   0.556   5.163   8.233
 1083TIP3   OH224807   5.805   0.973   8.450
 1083TIP3    H124808   5.822   1.021   8.531
 1083TIP3    H224809   5.850   1.024   8.382
 1084TIP3   OH224810   6.072   6.119   7.531
 1084TIP3    H124811   6.152   6.166   7.507
 1084TIP3    H224812   6.038   6.086   7.448
 1085TIP3   OH224813   5.098   5.240   8.078
 1085TIP3    H124814   5.077   5.232   7.985
 1085TIP3    H224815   5.140   5.157   8.100
 1086TIP3   OH224816   6.274   1.455   0.166
 1086TIP3    H124817   6.195   1.412   0.132
 1086TIP3    H224818   6.346   1.417   0.116
 1087TIP3   OH224819   3.044   5.341   0.908
 1087TIP3    H124820   3.136   5.316   0.918
 1087TIP3    H224821   2.995   5.262   0.929
 1088TIP3   OH224822   3.001   0.492   7.013
 1088TIP3    H124823   3.029   0.573   6.970
 1088TIP3    H224824   3.024   0.505   7.105
 1089TIP3   OH224825   0.774   1.231   0.624
 1089TIP3    H124826   0.728   1.303   0.669
 1089TIP3    H224827   0.865   1.240   0.654
 1090TIP3   OH224828   4.307   1.019   7.973
 1090TIP3    H124829   4.329   0.934   7.935
 1090TIP3    H224830   4.238   1.053   7.916
 1091TIP3   OH224831   2.082   5.139   7.081
 1091TIP3    H124832   2.048   5.174   6.999
 1091TIP3    H224833   2.064   5.208   7.145
 1092TIP3   OH224834   6.013   6.593   8.080
 1092TIP3    H124835   6.013   6.688   8.067
 1092TIP3    H224836   5.949   6.578   8.149
 1093TIP3   OH224837   2.478   3.650   0.198
 1093TIP3    H124838   2.471   3.662   0.104
 1093TIP3    H224839   2.460   3.737   0.235
 1094TIP3   OH224840   5.295   0.309   7.717
 1094TIP3    H124841   5.356   0.267   7.777
 1094TIP3    H224842   5.351   0.340   7.645
 1095TIP3   OH224843   1.543   0.965   8.415
 1095TIP3    H124844   1.467   0.962   8.357
 1095TIP3    H224845   1.617   0.982   8.357
 1096TIP3   OH224846   4.796   6.073   6.310
 1096TIP3    H124847   4.780   6.168   6.313
 1096TIP3    H224848   4.751   6.039   6.388
 1097TIP3   OH224849   4.736   2.185   6.938
 1097TIP3    H124850   4.754   2.092   6.940
 1097TIP3    H224851   4.746   2.210   6.846
 1098TIP3   OH224852   1.889   6.161   8.046
 1098TIP3    H124853   1.887   6.195   7.956
 1098TIP3    H224854   1.982   6.156   8.068
 1099TIP3   OH224855   0.458   2.485   1.019
 1099TIP3    H124856   0.484   2.513   0.931
 1099TIP3    H224857   0.487   2.394   1.025
 1100TIP3   OH224858   0.908   4.179   8.376
 1100TIP3    H124859   0.969   4.199   8.447
 1100TIP3    H224860   0.964   4.164   8.300
 1101TIP3   OH224861   1.131   2.293   8.338
 1101TIP3    H124862   1.172   2.227   8.394
 1101TIP3    H224863   1.194   2.365   8.335
 1102TIP3   OH224864   0.130   2.074   0.396
 1102TIP3    H124865   0.118   2.108   0.307
 1102TIP3    H224866   0.069   2.124   0.450
 1103TIP3   OH224867   0.595   0.409   8.272
 1103TIP3    H124868   0.573   0.318   8.254
 1103TIP3    H224869   0.541   0.433   8.348
 1104TIP3   OH224870   2.073   0.414   0.284
 1104TIP3    H124871   2.070   0.497   0.331
 1104TIP3    H224872   2.096   0.438   0.195
 1105TIP3   OH224873   5.817   0.011   7.393
 1105TIP3    H124874   5.844   6.754   7.435
 1105TIP3    H224875   5.737   0.037   7.439
 1106TIP3   OH224876   3.486   2.689   1.468
 1106TIP3    H124877   3.396   2.719   1.456
 1106TIP3    H224878   3.536   2.769   1.485
 1107TIP3   OH224879   0.617   4.951   1.834
 1107TIP3    H124880   0.662   4.907   1.906
 1107TIP3    H224881   0.582   4.879   1.781
 1108TIP3   OH224882   6.127   6.462   0.808
 1108TIP3    H124883   6.118   6.375   0.847
 1108TIP3    H224884   6.215   6.464   0.772
 1109TIP3   OH224885   2.478   5.102   7.206
 1109TIP3    H124886   2.454   5.108   7.113
 1109TIP3    H224887   2.555   5.045   7.207
 1110TIP3   OH224888   0.089   1.591   6.819
 1110TIP3    H124889   0.089   1.498   6.796
 1110TIP3    H224890   0.179   1.620   6.800
 1111TIP3   OH224891   0.642   4.509   2.147
 1111TIP3    H124892   0.722   4.503   2.094
 1111TIP3    H224893   0.635   4.423   2.189
 1112TIP3   OH224894   6.123   6.460   0.118
 1112TIP3    H124895   6.086   6.475   0.205
 1112TIP3    H224896   6.206   6.416   0.134
 1113TIP3   OH224897   6.458   2.757   1.374
 1113TIP3    H124898   6.510   2.834   1.353
 1113TIP3    H224899   6.521   2.694   1.409
 1114TIP3   OH224900   5.588   0.276   1.574
 1114TIP3    H124901   5.628   0.314   1.652
 1114TIP3    H224902   5.494   0.285   1.589
 1115TIP3   OH224903   1.058   1.384   0.120
 1115TIP3    H124904   1.040   1.362   0.211
 1115TIP3    H224905   1.052   1.480   0.117
 1116TIP3   OH224906   4.590   0.911   0.916
 1116TIP3    H124907   4.651   0.982   0.895
 1116TIP3    H224908   4.547   0.892   0.833
 1117TIP3   OH224909   5.320   2.317   7.380
 1117TIP3    H124910   5.343   2.242   7.434
 1117TIP3    H224911   5.402   2.366   7.370
 1118TIP3   OH224912   1.441   0.236   0.959
 1118TIP3    H124913   1.361   0.208   0.915
 1118TIP3    H224914   1.454   0.173   1.029
 1119TIP3   OH224915   6.373   3.015   0.041
 1119TIP3    H124916   6.334   2.967   0.114
 1119TIP3    H224917   6.300   3.033   8.763
 1120TIP3   OH224918   5.476   1.527   7.881
 1120TIP3    H124919   5.385   1.532   7.911
 1120TIP3    H224920   5.486   1.601   7.822
 1121TIP3   OH224921   5.228   4.449   8.730
 1121TIP3    H124922   5.168   4.454   0.024
 1121TIP3    H224923   5.204   4.367   8.687
 1122TIP3   OH224924   2.440   6.527   1.558
 1122TIP3    H124925   2.465   6.519   1.466
 1122TIP3    H224926   2.379   6.601   1.560
 1123TIP3   OH224927   3.232   0.576   8.692
 1123TIP3    H124928   3.285   0.498   8.707
 1123TIP3    H224929   3.255   0.635   8.763
 1124TIP3   OH224930   1.254   5.370   7.866
 1124TIP3    H124931   1.204   5.452   7.856
 1124TIP3    H224932   1.277   5.345   7.777
 1125TIP3   OH224933   1.208   3.917   1.332
 1125TIP3    H124934   1.184   3.976   1.403
 1125TIP3    H224935   1.294   3.947   1.303
 1126TIP3   OH224936   4.130   1.712   0.538
 1126TIP3    H124937   4.129   1.621   0.566
 1126TIP3    H224938   4.052   1.751   0.578
 1127TIP3   OH224939   4.010   1.462   0.518
 1127TIP3    H124940   4.049   1.383   0.480
 1127TIP3    H224941   3.944   1.490   0.454
 1128TIP3   OH224942   6.469   0.349   8.026
 1128TIP3    H124943   6.460   0.419   7.962
 1128TIP3    H224944   6.464   0.392   8.111
 1129TIP3   OH224945   4.725   2.060   0.800
 1129TIP3    H124946   4.689   2.130   0.854
 1129TIP3    H224947   4.710   2.090   0.710
 1130TIP3   OH224948   6.540   5.441   8.348
 1130TIP3    H124949   6.587   5.428   8.430
 1130TIP3    H224950   6.570   5.526   8.316
 1131TIP3   OH224951   4.683   2.770   7.278
 1131TIP3    H124952   4.614   2.705   7.295
 1131TIP3    H224953   4.683   2.826   7.356
 1132TIP3   OH224954   1.696   5.673   6.507
 1132TIP3    H124955   1.727   5.678   6.416
 1132TIP3    H224956   1.775   5.659   6.558
 1133TIP3   OH224957   0.105   6.243   2.157
 1133TIP3    H124958   0.061   6.274   2.235
 1133TIP3    H224959   0.095   6.314   2.093
 1134TIP3   OH224960   4.974   4.052   0.300
 1134TIP3    H124961   5.058   4.051   0.254
 1134TIP3    H224962   4.995   4.026   0.390
 1135TIP3   OH224963   5.127   4.573   7.420
 1135TIP3    H124964   5.180   4.604   7.347
 1135TIP3    H224965   5.040   4.559   7.382
 1136TIP3   OH224966   0.145   2.377   0.326
 1136TIP3    H124967   0.070   2.361   0.269
 1136TIP3    H224968   0.221   2.376   0.267
 1137TIP3   OH224969   1.596   4.467   8.455
 1137TIP3    H124970   1.563   4.484   8.543
 1137TIP3    H224971   1.689   4.447   8.467
 1138TIP3   OH224972   5.356   3.056   7.374
 1138TIP3    H124973   5.387   3.096   7.293
 1138TIP3    H224974   5.333   3.130   7.431
 1139TIP3   OH224975   3.044   6.000   7.306
 1139TIP3    H124976   3.057   6.009   7.212
 1139TIP3    H224977   3.065   6.087   7.341
 1140TIP3   OH224978   3.183   2.875   8.612
 1140TIP3    H124979   3.160   2.966   8.596
 1140TIP3    H224980   3.245   2.853   8.542
 1141TIP3   OH224981   3.325   5.276   0.309
 1141TIP3    H124982   3.260   5.340   0.281
 1141TIP3    H224983   3.385   5.268   0.234
 1142TIP3   OH224984   0.086   5.971   7.588
 1142TIP3    H124985   0.035   5.987   7.667
 1142TIP3    H224986   0.176   5.992   7.611
 1143TIP3   OH224987   5.910   3.713   0.007
 1143TIP3    H124988   5.979   3.780   0.014
 1143TIP3    H224989   5.939   3.643   0.065
 1144TIP3   OH224990   0.056   2.853   8.129
 1144TIP3    H124991   0.055   2.843   8.224
 1144TIP3    H224992   0.099   2.774   8.097
 1145TIP3   OH224993   1.161   3.563   8.125
 1145TIP3    H124994   1.167   3.485   8.181
 1145TIP3    H224995   1.068   3.570   8.105
 1146TIP3   OH224996   1.526   5.727   8.102
 1146TIP3    H124997   1.442   5.710   8.145
 1146TIP3    H224998   1.585   5.661   8.137
 1147TIP3   OH224999   2.527   4.403   6.404
 1147TIP3    H125000   2.598   4.435   6.461
 1147TIP3    H225001   2.488   4.482   6.369
 1148TIP3   OH225002   4.369   0.775   2.634
 1148TIP3    H125003   4.300   0.815   2.581
 1148TIP3    H225004   4.431   0.740   2.570
 1149TIP3   OH225005   1.104   0.420   1.685
 1149TIP3    H125006   1.181   0.451   1.732
 1149TIP3    H225007   1.053   0.374   1.752
 1150TIP3   OH225008   0.018   0.550   7.570
 1150TIP3    H125009   0.040   0.643   7.566
 1150TIP3    H225010   6.760   0.547   7.617
 1151TIP3   OH225011   4.865   2.285   8.628
 1151TIP3    H125012   4.863   2.220   8.558
 1151TIP3    H225013   4.874   2.369   8.583
 1152TIP3   OH225014   2.740   5.405   0.183
 1152TIP3    H125015   2.788   5.403   0.266
 1152TIP3    H225016   2.663   5.458   0.202
 1153TIP3   OH225017   5.772   3.588   0.492
 1153TIP3    H125018   5.747   3.499   0.470
 1153TIP3    H225019   5.855   3.579   0.538
 1154TIP3   OH225020   0.659   3.024   6.586
 1154TIP3    H125021   0.720   3.092   6.613
 1154TIP3    H225022   0.572   3.062   6.600
 1155TIP3   OH225023   1.650   4.234   0.770
 1155TIP3    H125024   1.675   4.144   0.792
 1155TIP3    H225025   1.557   4.227   0.747
 1156TIP3   OH225026   6.224   3.819   8.085
 1156TIP3    H125027   6.177   3.737   8.072
 1156TIP3    H225028   6.210   3.840   8.178
 1157TIP3   OH225029   0.488   4.979   7.697
 1157TIP3    H125030   0.478   4.907   7.634
 1157TIP3    H225031   0.524   5.051   7.645
 1158TIP3   OH225032   3.238   0.272   6.897
 1158TIP3    H125033   3.208   0.361   6.878
 1158TIP3    H225034   3.286   0.281   6.979
 1159TIP3   OH225035   3.140   6.710   6.782
 1159TIP3    H125036   3.049   6.735   6.796
 1159TIP3    H225037   3.186   6.743   6.859
 1160TIP3   OH225038   0.020   3.654   0.361
 1160TIP3    H125039   6.824   3.722   0.425
 1160TIP3    H225040   0.084   3.598   0.405
 1161TIP3   OH225041   0.833   3.814   6.855
 1161TIP3    H125042   0.874   3.881   6.801
 1161TIP3    H225043   0.810   3.744   6.794
 1162TIP3   OH225044   1.488   2.937   0.675
 1162TIP3    H125045   1.569   2.937   0.726
 1162TIP3    H225046   1.491   3.019   0.625
 1163TIP3   OH225047   2.277   4.835   0.683
 1163TIP3    H125048   2.369   4.830   0.656
 1163TIP3    H225049   2.249   4.743   0.690
 1164TIP3   OH225050   4.022   3.690   6.976
 1164TIP3    H125051   3.998   3.684   6.884
 1164TIP3    H225052   4.115   3.710   6.976
 1165TIP3   OH225053   0.649   3.314   1.056
 1165TIP3    H125054   0.566   3.292   1.099
 1165TIP3    H225055   0.710   3.245   1.085
 1166TIP3   OH225056   6.018   1.706   0.002
 1166TIP3    H125057   6.062   1.754   0.073
 1166TIP3    H225058   5.940   1.757   8.763
 1167TIP3   OH225059   0.541   4.880   1.426
 1167TIP3    H125060   0.554   4.962   1.380
 1167TIP3    H225061   0.547   4.813   1.358
 1168TIP3   OH225062   1.965   5.282   7.763
 1168TIP3    H125063   1.995   5.291   7.672
 1168TIP3    H225064   1.897   5.348   7.772
 1169TIP3   OH225065   5.600   1.526   1.347
 1169TIP3    H125066   5.624   1.499   1.436
 1169TIP3    H225067   5.681   1.562   1.311
 1170TIP3   OH225068   4.795   4.931   0.348
 1170TIP3    H125069   4.872   4.903   0.299
 1170TIP3    H225070   4.749   4.849   0.370
 1171TIP3   OH225071   5.474   2.183   8.623
 1171TIP3    H125072   5.452   2.090   8.627
 1171TIP3    H225073   5.563   2.186   8.588
 1172TIP3   OH225074   2.840   1.493   7.469
 1172TIP3    H125075   2.793   1.445   7.536
 1172TIP3    H225076   2.886   1.562   7.516
 1173TIP3   OH225077   0.334   2.530   0.150
 1173TIP3    H125078   0.415   2.578   0.136
 1173TIP3    H225079   0.296   2.520   0.062
 1174TIP3   OH225080   5.006   6.007   0.973
 1174TIP3    H125081   5.017   5.917   1.005
 1174TIP3    H225082   4.932   6.002   0.913
 1175TIP3   OH225083   2.300   1.572   7.781
 1175TIP3    H125084   2.243   1.508   7.739
 1175TIP3    H225085   2.240   1.638   7.817
 1176TIP3   OH225086   3.633   1.051   7.710
 1176TIP3    H125087   3.601   1.052   7.800
 1176TIP3    H225088   3.616   1.140   7.677
 1177TIP3   OH225089   3.687   4.855   8.532
 1177TIP3    H125090   3.621   4.898   8.587
 1177TIP3    H225091   3.671   4.761   8.546
 1178TIP3   OH225092   1.810   5.287   0.618
 1178TIP3    H125093   1.894   5.253   0.647
 1178TIP3    H225094   1.764   5.311   0.699
 1179TIP3   OH225095   5.377   5.697   8.106
 1179TIP3    H125096   5.323   5.619   8.118
 1179TIP3    H225097   5.318   5.761   8.065
 1180TIP3   OH225098   1.428   1.161   1.336
 1180TIP3    H125099   1.400   1.246   1.370
 1180TIP3    H225100   1.524   1.167   1.333
 1181TIP3   OH225101   1.674   5.529   8.774
 1181TIP3    H125102   1.733   5.454   0.005
 1181TIP3    H225103   1.590   5.491   8.750
 1182TIP3   OH225104   0.340   4.021   7.931
 1182TIP3    H125105   0.315   4.082   7.862
 1182TIP3    H225106   0.301   3.937   7.905
 1183TIP3   OH225107   1.691   1.191   1.284
 1183TIP3    H125108   1.725   1.193   1.194
 1183TIP3    H225109   1.756   1.141   1.333
 1184TIP3   OH225110   0.073   1.901   6.902
 1184TIP3    H125111   6.819   1.888   6.851
 1184TIP3    H225112   0.065   1.990   6.937
 1185TIP3   OH225113   2.000   6.777   7.477
 1185TIP3    H125114   2.052   0.024   7.442
 1185TIP3    H225115   1.915   6.817   7.499
 1186TIP3   OH225116   3.931   5.603   0.724
 1186TIP3    H125117   3.892   5.520   0.751
 1186TIP3    H225118   4.023   5.596   0.750
 1187TIP3   OH225119   5.597   0.998   7.151
 1187TIP3    H125120   5.673   1.055   7.138
 1187TIP3    H225121   5.552   1.035   7.227
 1188TIP3   OH225122   4.510   6.025   8.563
 1188TIP3    H125123   4.576   5.979   8.614
 1188TIP3    H225124   4.549   6.110   8.544
 1189TIP3   OH225125   4.067   3.778   7.294
 1189TIP3    H125126   4.001   3.830   7.339
 1189TIP3    H225127   4.075   3.819   7.208
 1190TIP3   OH225128   1.456   4.240   7.514
 1190TIP3    H125129   1.370   4.198   7.510
 1190TIP3    H225130   1.448   4.316   7.457
 1191TIP3   OH225131   5.316   6.688   8.659
 1191TIP3    H125132   5.237   6.647   8.623
 1191TIP3    H225133   5.340   6.755   8.595
 1192TIP3   OH225134   1.265   2.785   7.128
 1192TIP3    H125135   1.178   2.822   7.141
 1192TIP3    H225136   1.322   2.861   7.114
 1193TIP3   OH225137   0.136   6.011   0.354
 1193TIP3    H125138   0.102   5.992   0.441
 1193TIP3    H225139   0.227   6.036   0.368
 1194TIP3   OH225140   4.240   5.953   7.210
 1194TIP3    H125141   4.235   5.943   7.305
 1194TIP3    H225142   4.219   6.045   7.194
 1195TIP3   OH225143   4.482   6.281   2.478
 1195TIP3    H125144   4.573   6.302   2.459
 1195TIP3    H225145   4.478   6.274   2.573
 1196TIP3   OH225146   5.261   4.148   0.302
 1196TIP3    H125147   5.338   4.201   0.317
 1196TIP3    H225148   5.287   4.085   0.234
 1197TIP3   OH225149   3.247   5.342   8.636
 1197TIP3    H125150   3.248   5.425   8.589
 1197TIP3    H225151   3.314   5.289   8.593
 1198TIP3   OH225152   4.688   1.407   8.387
 1198TIP3    H125153   4.733   1.461   8.453
 1198TIP3    H225154   4.595   1.413   8.411
 1199TIP3   OH225155   2.563   5.941   8.032
 1199TIP3    H125156   2.634   5.901   7.982
 1199TIP3    H225157   2.599   5.949   8.121
 1200TIP3   OH225158   6.445   6.212   7.180
 1200TIP3    H125159   6.524   6.161   7.194
 1200TIP3    H225160   6.476   6.302   7.173
 1201TIP3   OH225161   2.694   2.425   7.358
 1201TIP3    H125162   2.686   2.350   7.300
 1201TIP3    H225163   2.654   2.396   7.441
 1202TIP3   OH225164   3.159   6.594   7.413
 1202TIP3    H125165   3.245   6.615   7.449
 1202TIP3    H225166   3.097   6.635   7.474
 1203TIP3   OH225167   1.505   6.758   7.314
 1203TIP3    H125168   1.585   6.707   7.329
 1203TIP3    H225169   1.443   6.724   7.378
 1204TIP3   OH225170   0.797   2.989   0.521
 1204TIP3    H125171   0.830   2.945   0.599
 1204TIP3    H225172   0.865   3.053   0.498
 1205TIP3   OH225173   1.928   6.032   1.458
 1205TIP3    H125174   1.985   5.968   1.500
 1205TIP3    H225175   1.963   6.117   1.487
 1206TIP3   OH225176   2.152   6.709   0.753
 1206TIP3    H125177   2.169   6.774   0.821
 1206TIP3    H225178   2.064   6.730   0.722
 1207TIP3   OH225179   2.754   6.191   7.113
 1207TIP3    H125180   2.696   6.178   7.039
 1207TIP3    H225181   2.704   6.159   7.189
 1208TIP3   OH225182   2.497   3.608   7.416
 1208TIP3    H125183   2.519   3.531   7.363
 1208TIP3    H225184   2.528   3.682   7.364
 1209TIP3   OH225185   3.785   5.921   7.388
 1209TIP3    H125186   3.868   5.950   7.425
 1209TIP3    H225187   3.720   5.941   7.455
 1210TIP3   OH225188   3.602   5.151   7.089
 1210TIP3    H125189   3.549   5.231   7.094
 1210TIP3    H225190   3.638   5.151   7.000
 1211TIP3   OH225191   3.681   2.444   0.292
 1211TIP3    H125192   3.753   2.505   0.304
 1211TIP3    H225193   3.629   2.453   0.372
 1212TIP3   OH225194   6.112   5.757   7.413
 1212TIP3    H125195   6.134   5.664   7.412
 1212TIP3    H225196   6.196   5.802   7.421
 1213TIP3   OH225197   5.262   1.903   1.041
 1213TIP3    H125198   5.231   1.825   0.996
 1213TIP3    H225199   5.351   1.881   1.068
 1214TIP3   OH225200   1.333   4.138   1.486
 1214TIP3    H125201   1.330   4.146   1.582
 1214TIP3    H225202   1.282   4.213   1.455
 1215TIP3   OH225203   3.972   0.709   0.221
 1215TIP3    H125204   3.915   0.736   0.149
 1215TIP3    H225205   3.949   0.766   0.294
 1216TIP3   OH225206   2.792   1.746   8.014
 1216TIP3    H125207   2.828   1.697   7.940
 1216TIP3    H225208   2.769   1.831   7.977
 1217TIP3   OH225209   1.136   6.643   1.277
 1217TIP3    H125210   1.110   6.660   1.367
 1217TIP3    H225211   1.221   6.600   1.285
 1218TIP3   OH225212   4.101   5.573   8.314
 1218TIP3    H125213   4.110   5.545   8.223
 1218TIP3    H225214   4.032   5.517   8.350
 1219TIP3   OH225215   4.605   5.358   8.559
 1219TIP3    H125216   4.629   5.386   8.647
 1219TIP3    H225217   4.523   5.309   8.571
 1220TIP3   OH225218   4.856   3.184   7.354
 1220TIP3    H125219   4.787   3.186   7.288
 1220TIP3    H225220   4.937   3.172   7.303
 1221TIP3   OH225221   3.385   2.779   8.419
 1221TIP3    H125222   3.379   2.712   8.487
 1221TIP3    H225223   3.414   2.858   8.465
 1222TIP3   OH225224   3.518   6.675   1.518
 1222TIP3    H125225   3.497   6.672   1.424
 1222TIP3    H225226   3.470   6.751   1.550
 1223TIP3   OH225227   0.866   3.075   8.722
 1223TIP3    H125228   0.917   3.155   8.710
 1223TIP3    H225229   0.845   3.074   0.035
 1224TIP3   OH225230   0.530   5.197   7.196
 1224TIP3    H125231   0.493   5.110   7.211
 1224TIP3    H225232   0.625   5.184   7.198
 1225TIP3   OH225233   6.439   5.798   8.617
 1225TIP3    H125234   6.391   5.717   8.597
 1225TIP3    H225235   6.370   5.861   8.639
 1226TIP3   OH225236   1.178   6.347   1.261
 1226TIP3    H125237   1.168   6.381   1.171
 1226TIP3    H225238   1.239   6.275   1.252
 1227TIP3   OH225239   5.066   3.615   6.612
 1227TIP3    H125240   5.123   3.610   6.535
 1227TIP3    H225241   4.988   3.661   6.580
 1228TIP3   OH225242   5.463   6.367   2.461
 1228TIP3    H125243   5.440   6.384   2.369
 1228TIP3    H225244   5.538   6.308   2.457
 1229TIP3   OH225245   4.431   2.577   7.618
 1229TIP3    H125246   4.388   2.546   7.697
 1229TIP3    H225247   4.478   2.655   7.646
 1230TIP3   OH225248   3.085   4.661   8.503
 1230TIP3    H125249   3.031   4.645   8.426
 1230TIP3    H225250   3.023   4.660   8.576
 1231TIP3   OH225251   4.257   4.519   0.443
 1231TIP3    H125252   4.185   4.458   0.457
 1231TIP3    H225253   4.250   4.582   0.514
 1232TIP3   OH225254   0.203   1.410   7.440
 1232TIP3    H125255   0.157   1.461   7.506
 1232TIP3    H225256   0.143   1.339   7.418
 1233TIP3   OH225257   4.274   3.563   0.750
 1233TIP3    H125258   4.285   3.567   0.845
 1233TIP3    H225259   4.300   3.650   0.719
 1234TIP3   OH225260   0.285   6.472   7.823
 1234TIP3    H125261   0.261   6.449   7.913
 1234TIP3    H225262   0.324   6.559   7.830
 1235TIP3   OH225263   2.770   1.583   8.609
 1235TIP3    H125264   2.750   1.568   8.517
 1235TIP3    H225265   2.689   1.565   8.655
 1236TIP3   OH225266   4.340   3.159   8.584
 1236TIP3    H125267   4.419   3.138   8.633
 1236TIP3    H225268   4.322   3.251   8.605
 1237TIP3   OH225269   2.126   3.722   7.277
 1237TIP3    H125270   2.158   3.731   7.367
 1237TIP3    H225271   2.030   3.729   7.286
 1238TIP3   OH225272   3.281   3.260   7.763
 1238TIP3    H125273   3.202   3.234   7.811
 1238TIP3    H225274   3.260   3.345   7.725
 1239TIP3   OH225275   2.464   0.556   0.831
 1239TIP3    H125276   2.371   0.573   0.819
 1239TIP3    H225277   2.493   0.519   0.748
 1240TIP3   OH225278   1.614   1.229   1.766
 1240TIP3    H125279   1.665   1.279   1.830
 1240TIP3    H225280   1.578   1.155   1.815
 1241TIP3   OH225281   2.723   3.610   0.337
 1241TIP3    H125282   2.658   3.632   0.270
 1241TIP3    H225283   2.697   3.523   0.367
 1242TIP3   OH225284   4.361   6.061   7.755
 1242TIP3    H125285   4.307   5.990   7.720
 1242TIP3    H225286   4.379   6.035   7.845
 1243TIP3   OH225287   5.323   4.955   1.401
 1243TIP3    H125288   5.402   4.990   1.442
 1243TIP3    H225289   5.257   5.022   1.415
 1244TIP3   OH225290   4.448   2.726   8.472
 1244TIP3    H125291   4.374   2.786   8.478
 1244TIP3    H225292   4.463   2.698   8.563
 1245TIP3   OH225293   5.929   3.276   1.868
 1245TIP3    H125294   5.843   3.244   1.896
 1245TIP3    H225295   5.978   3.289   1.949
 1246TIP3   OH225296   1.941   6.372   1.190
 1246TIP3    H125297   2.031   6.377   1.221
 1246TIP3    H225298   1.928   6.454   1.141
 1247TIP3   OH225299   4.183   2.164   6.840
 1247TIP3    H125300   4.217   2.244   6.880
 1247TIP3    H225301   4.239   2.149   6.764
 1248TIP3   OH225302   3.541   3.148   1.354
 1248TIP3    H125303   3.469   3.120   1.410
 1248TIP3    H225304   3.589   3.068   1.335
 1249TIP3   OH225305   2.631   6.481   8.400
 1249TIP3    H125306   2.661   6.392   8.419
 1249TIP3    H225307   2.570   6.471   8.327
 1250TIP3   OH225308   4.884   3.543   0.476
 1250TIP3    H125309   4.935   3.616   0.509
 1250TIP3    H225310   4.801   3.548   0.524
 1251TIP3   OH225311   2.768   4.626   7.744
 1251TIP3    H125312   2.822   4.645   7.667
 1251TIP3    H225313   2.706   4.699   7.749
 1252TIP3   OH225314   4.997   6.676   6.859
 1252TIP3    H125315   5.003   6.732   6.782
 1252TIP3    H225316   5.068   6.612   6.848
 1253TIP3   OH225317   1.393   6.784   8.110
 1253TIP3    H125318   1.473   6.735   8.087
 1253TIP3    H225319   1.323   6.720   8.099
 1254TIP3   OH225320   6.696   0.282   2.765
 1254TIP3    H125321   6.695   0.319   2.853
 1254TIP3    H225322   6.639   0.205   2.771
 1255TIP3   OH225323   6.420   2.084   0.349
 1255TIP3    H125324   6.493   2.024   0.334
 1255TIP3    H225325   6.353   2.030   0.392
 1256TIP3   OH225326   0.248   6.314   0.125
 1256TIP3    H125327   0.212   6.398   0.152
 1256TIP3    H225328   0.216   6.301   0.035
 1257TIP3   OH225329   5.730   5.885   2.079
 1257TIP3    H125330   5.794   5.832   2.032
 1257TIP3    H225331   5.782   5.948   2.129
 1258TIP3   OH225332   6.035   2.390   7.696
 1258TIP3    H125333   6.067   2.420   7.781
 1258TIP3    H225334   6.072   2.452   7.633
 1259TIP3   OH225335   5.444   5.617   0.753
 1259TIP3    H125336   5.508   5.629   0.683
 1259TIP3    H225337   5.443   5.522   0.767
 1260TIP3   OH225338   3.167   6.639   8.684
 1260TIP3    H125339   3.171   6.732   8.660
 1260TIP3    H225340   3.079   6.611   8.658
 1261TIP3   OH225341   4.024   5.808   1.445
 1261TIP3    H125342   3.948   5.840   1.494
 1261TIP3    H225343   4.098   5.858   1.480
 1262TIP3   OH225344   5.821   0.055   0.473
 1262TIP3    H125345   5.750   0.079   0.414
 1262TIP3    H225346   5.790   6.801   0.516
 1263TIP3   OH225347   3.757   4.628   8.758
 1263TIP3    H125348   3.805   4.574   0.040
 1263TIP3    H225349   3.733   4.706   0.027
 1264TIP3   OH225350   5.758   2.321   7.691
 1264TIP3    H125351   5.851   2.331   7.666
 1264TIP3    H225352   5.753   2.235   7.731
 1265TIP3   OH225353   0.436   5.868   0.513
 1265TIP3    H125354   0.512   5.872   0.571
 1265TIP3    H225355   0.422   5.959   0.486
 1266TIP3   OH225356   5.775   0.262   0.960
 1266TIP3    H125357   5.686   0.297   0.958
 1266TIP3    H225358   5.831   0.338   0.976
 1267TIP3   OH225359   4.747   0.179   0.886
 1267TIP3    H125360   4.798   0.146   0.811
 1267TIP3    H225361   4.757   0.112   0.953
 1268TIP3   OH225362   5.474   4.873   0.900
 1268TIP3    H125363   5.548   4.898   0.955
 1268TIP3    H225364   5.494   4.783   0.873
 1269TIP3   OH225365   1.611   6.688   6.608
 1269TIP3    H125366   1.571   6.691   6.521
 1269TIP3    H225367   1.670   6.764   6.610
 1270TIP3   OH225368   4.292   5.510   6.186
 1270TIP3    H125369   4.280   5.595   6.143
 1270TIP3    H225370   4.246   5.448   6.129
 1271TIP3   OH225371   2.379   6.690   8.438
 1271TIP3    H125372   2.385   6.721   8.348
 1271TIP3    H225373   2.443   6.743   8.486
 1272TIP3   OH225374   0.373   2.905   1.210
 1272TIP3    H125375   0.321   2.983   1.190
 1272TIP3    H225376   0.416   2.884   1.127
 1273TIP3   OH225377   2.629   1.469   0.690
 1273TIP3    H125378   2.599   1.403   0.752
 1273TIP3    H225379   2.609   1.432   0.604
 1274TIP3   OH225380   4.108   1.554   0.923
 1274TIP3    H125381   4.132   1.624   0.984
 1274TIP3    H225382   4.186   1.542   0.869
 1275TIP3   OH225383   2.507   4.087   8.461
 1275TIP3    H125384   2.507   4.094   8.557
 1275TIP3    H225385   2.599   4.075   8.438
 1276TIP3   OH225386   0.736   4.030   7.453
 1276TIP3    H125387   0.767   3.948   7.416
 1276TIP3    H225388   0.709   4.082   7.378
 1277TIP3   OH225389   0.200   5.892   8.345
 1277TIP3    H125390   0.218   5.895   8.251
 1277TIP3    H225391   0.203   5.984   8.373
 1278TIP3   OH225392   0.838   2.746   7.534
 1278TIP3    H125393   0.753   2.782   7.558
 1278TIP3    H225394   0.901   2.814   7.559
 1279TIP3   OH225395   6.238   4.459   0.193
 1279TIP3    H125396   6.329   4.436   0.214
 1279TIP3    H225397   6.241   4.552   0.170
 1280TIP3   OH225398   0.303   0.708   0.030
 1280TIP3    H125399   0.325   0.721   0.123
 1280TIP3    H225400   0.343   0.624   0.007
 1281TIP3   OH225401   4.986   5.649   7.875
 1281TIP3    H125402   5.018   5.709   7.942
 1281TIP3    H225403   4.891   5.653   7.883
 1282TIP3   OH225404   3.506   6.127   7.874
 1282TIP3    H125405   3.595   6.096   7.895
 1282TIP3    H225406   3.511   6.222   7.885
 1283TIP3   OH225407   3.657   3.943   7.637
 1283TIP3    H125408   3.674   3.985   7.721
 1283TIP3    H225409   3.701   3.859   7.642
 1284TIP3   OH225410   1.942   6.232   8.545
 1284TIP3    H125411   2.023   6.182   8.536
 1284TIP3    H225412   1.922   6.262   8.456
 1285TIP3   OH225413   6.237   1.385   0.427
 1285TIP3    H125414   6.157   1.405   0.474
 1285TIP3    H225415   6.222   1.417   0.338
 1286TIP3   OH225416   0.459   3.815   1.298
 1286TIP3    H125417   0.378   3.861   1.275
 1286TIP3    H225418   0.472   3.753   1.226
 1287TIP3   OH225419   6.646   4.059   2.115
 1287TIP3    H125420   6.552   4.075   2.111
 1287TIP3    H225421   6.664   4.046   2.209
 1288TIP3   OH225422   2.708   0.728   7.943
 1288TIP3    H125423   2.661   0.778   8.009
 1288TIP3    H225424   2.781   0.784   7.917
 1289TIP3   OH225425   1.501   0.208   8.193
 1289TIP3    H125426   1.563   0.197   8.265
 1289TIP3    H225427   1.453   0.125   8.190
 1290TIP3   OH225428   3.142   6.287   6.729
 1290TIP3    H125429   3.221   6.340   6.744
 1290TIP3    H225430   3.145   6.220   6.797
 1291TIP3   OH225431   4.143   5.390   2.168
 1291TIP3    H125432   4.190   5.379   2.251
 1291TIP3    H225433   4.203   5.439   2.112
 1292TIP3   OH225434   3.527   2.163   6.830
 1292TIP3    H125435   3.591   2.189   6.764
 1292TIP3    H225436   3.497   2.245   6.869
 1293TIP3   OH225437   5.866   3.839   1.471
 1293TIP3    H125438   5.896   3.900   1.539
 1293TIP3    H225439   5.920   3.761   1.484
 1294TIP3   OH225440   3.989   2.062   1.239
 1294TIP3    H125441   4.002   2.065   1.334
 1294TIP3    H225442   4.028   1.979   1.212
 1295TIP3   OH225443   5.783   5.918   1.750
 1295TIP3    H125444   5.832   5.872   1.682
 1295TIP3    H225445   5.721   5.853   1.783
 1296TIP3   OH225446   3.813   3.375   7.914
 1296TIP3    H125447   3.815   3.456   7.967
 1296TIP3    H225448   3.745   3.391   7.849
 1297TIP3   OH225449   0.436   1.349   7.558
 1297TIP3    H125450   0.474   1.369   7.473
 1297TIP3    H225451   0.342   1.353   7.544
 1298TIP3   OH225452   4.197   1.522   8.546
 1298TIP3    H125453   4.177   1.485   8.632
 1298TIP3    H225454   4.207   1.616   8.562
 1299TIP3   OH225455   4.446   4.102   7.091
 1299TIP3    H125456   4.380   4.164   7.061
 1299TIP3    H225457   4.435   4.026   7.033
 1300TIP3   OH225458   4.025   3.210   7.976
 1300TIP3    H125459   4.099   3.218   7.917
 1300TIP3    H225460   3.960   3.271   7.943
 1301TIP3   OH225461   4.327   5.233   2.593
 1301TIP3    H125462   4.235   5.225   2.619
 1301TIP3    H225463   4.362   5.144   2.601
 1302TIP3   OH225464   2.177   4.599   7.143
 1302TIP3    H125465   2.248   4.643   7.189
 1302TIP3    H225466   2.169   4.646   7.061
 1303TIP3   OH225467   4.556   6.094   1.567
 1303TIP3    H125468   4.532   6.169   1.622
 1303TIP3    H225469   4.634   6.123   1.520
 1304TIP3   OH225470   0.732   0.183   8.003
 1304TIP3    H125471   0.795   0.171   7.932
 1304TIP3    H225472   0.735   0.276   8.023
 1305TIP3   OH225473   2.669   6.615   0.646
 1305TIP3    H125474   2.724   6.598   0.569
 1305TIP3    H225475   2.644   6.529   0.678
 1306TIP3   OH225476   5.011   5.728   0.306
 1306TIP3    H125477   5.086   5.675   0.280
 1306TIP3    H225478   5.018   5.735   0.401
 1307TIP3   OH225479   2.316   2.182   1.610
 1307TIP3    H125480   2.244   2.135   1.652
 1307TIP3    H225481   2.368   2.115   1.568
 1308TIP3   OH225482   0.212   1.951   7.613
 1308TIP3    H125483   0.256   2.015   7.669
 1308TIP3    H225484   0.283   1.893   7.583
 1309TIP3   OH225485   0.406   3.789   6.178
 1309TIP3    H125486   0.476   3.729   6.153
 1309TIP3    H225487   0.328   3.734   6.184
 1310TIP3   OH225488   5.506   0.158   0.066
 1310TIP3    H125489   5.549   0.103   0.000
 1310TIP3    H225490   5.475   0.096   0.132
 1311TIP3   OH225491   5.792   2.211   1.584
 1311TIP3    H125492   5.767   2.246   1.669
 1311TIP3    H225493   5.797   2.287   1.526
 1312TIP3   OH225494   4.649   2.910   0.783
 1312TIP3    H125495   4.586   2.947   0.721
 1312TIP3    H225496   4.606   2.920   0.868
 1313TIP3   OH225497   5.062   3.534   5.996
 1313TIP3    H125498   4.971   3.542   6.026
 1313TIP3    H225499   5.072   3.605   5.933
 1314TIP3   OH225500   2.816   4.076   7.935
 1314TIP3    H125501   2.758   4.007   7.904
 1314TIP3    H225502   2.760   4.153   7.942
 1315TIP3   OH225503   6.031   2.717   7.770
 1315TIP3    H125504   5.940   2.731   7.746
 1315TIP3    H225505   6.029   2.642   7.830
 1316TIP3   OH225506   4.230   3.933   7.502
 1316TIP3    H125507   4.323   3.910   7.492
 1316TIP3    H225508   4.219   4.010   7.445
 1317TIP3   OH225509   2.422   6.801   2.274
 1317TIP3    H125510   2.391   6.760   2.193
 1317TIP3    H225511   2.421   6.731   2.338
 1318TIP3   OH225512   4.858   1.318   0.834
 1318TIP3    H125513   4.908   1.400   0.835
 1318TIP3    H225514   4.879   1.278   0.750
 1319TIP3   OH225515   3.016   4.824   7.615
 1319TIP3    H125516   3.010   4.860   7.704
 1319TIP3    H225517   3.043   4.899   7.561
 1320TIP3   OH225518   5.239   6.807   7.528
 1320TIP3    H125519   5.236   0.027   7.444
 1320TIP3    H225520   5.321   6.757   7.526
 1321TIP3   OH225521   5.063   3.996   7.966
 1321TIP3    H125522   5.074   4.041   7.882
 1321TIP3    H225523   5.062   4.066   8.031
 1322TIP3   OH225524   2.931   4.882   7.896
 1322TIP3    H125525   2.837   4.874   7.885
 1322TIP3    H225526   2.946   4.975   7.913
 1323TIP3   OH225527   5.456   5.955   1.967
 1323TIP3    H125528   5.524   5.916   2.023
 1323TIP3    H225529   5.375   5.945   2.017
 1324TIP3   OH225530   3.724   5.651   7.973
 1324TIP3    H125531   3.704   5.600   7.894
 1324TIP3    H225532   3.780   5.593   8.024
 1325TIP3   OH225533   4.575   2.898   6.456
 1325TIP3    H125534   4.560   2.992   6.452
 1325TIP3    H225535   4.661   2.885   6.415
 1326TIP3   OH225536   2.938   1.766   6.866
 1326TIP3    H125537   2.874   1.742   6.933
 1326TIP3    H225538   2.981   1.683   6.843
 1327TIP3   OH225539   3.443   1.478   1.578
 1327TIP3    H125540   3.408   1.438   1.657
 1327TIP3    H225541   3.366   1.502   1.527
 1328TIP3   OH225542   2.285   3.608   6.779
 1328TIP3    H125543   2.231   3.646   6.709
 1328TIP3    H225544   2.285   3.675   6.848
 1329TIP3   OH225545   0.512   3.041   8.075
 1329TIP3    H125546   0.452   3.049   8.148
 1329TIP3    H225547   0.530   2.947   8.068
 1330TIP3   OH225548   1.403   5.003   8.272
 1330TIP3    H125549   1.420   4.927   8.327
 1330TIP3    H225550   1.489   5.029   8.239
 1331TIP3   OH225551   2.834   5.760   7.339
 1331TIP3    H125552   2.741   5.737   7.344
 1331TIP3    H225553   2.839   5.848   7.376
 1332TIP3   OH225554   3.486   3.204   0.361
 1332TIP3    H125555   3.393   3.211   0.381
 1332TIP3    H225556   3.515   3.125   0.406
 1333TIP3   OH225557   0.639   1.910   0.559
 1333TIP3    H125558   0.581   1.986   0.558
 1333TIP3    H225559   0.717   1.940   0.606
 1334TIP3   OH225560   1.273   5.923   1.076
 1334TIP3    H125561   1.179   5.939   1.082
 1334TIP3    H225562   1.299   5.904   1.166
 1335TIP3   OH225563   0.391   1.495   2.126
 1335TIP3    H125564   0.453   1.428   2.097
 1335TIP3    H225565   0.333   1.450   2.187
 1336TIP3   OH225566   4.274   1.805   8.602
 1336TIP3    H125567   4.333   1.853   8.660
 1336TIP3    H225568   4.243   1.871   8.540
 1337TIP3   OH225569   3.868   5.034   1.122
 1337TIP3    H125570   3.896   5.028   1.213
 1337TIP3    H225571   3.848   5.127   1.109
 1338TIP3   OH225572   1.794   2.649   7.282
 1338TIP3    H125573   1.716   2.696   7.253
 1338TIP3    H225574   1.823   2.600   7.205
 1339TIP3   OH225575   4.533   2.885   1.037
 1339TIP3    H125576   4.572   2.832   1.106
 1339TIP3    H225577   4.488   2.956   1.083
 1340TIP3   OH225578   4.224   3.353   8.303
 1340TIP3    H125579   4.205   3.443   8.276
 1340TIP3    H225580   4.139   3.310   8.308
 1341TIP3   OH225581   5.483   3.610   7.072
 1341TIP3    H125582   5.578   3.608   7.076
 1341TIP3    H225583   5.463   3.668   6.999
 1342TIP3   OH225584   0.910   0.346   1.490
 1342TIP3    H125585   0.986   0.359   1.548
 1342TIP3    H225586   0.873   0.263   1.518
 1343TIP3   OH225587   3.460   4.380   2.026
 1343TIP3    H125588   3.379   4.422   1.998
 1343TIP3    H225589   3.434   4.322   2.098
 1344TIP3   OH225590   3.316   6.494   7.726
 1344TIP3    H125591   3.366   6.560   7.774
 1344TIP3    H225592   3.225   6.510   7.751
 1345TIP3   OH225593   6.007   0.842   1.507
 1345TIP3    H125594   5.969   0.789   1.437
 1345TIP3    H225595   6.101   0.822   1.503
 1346TIP3   OH225596   4.418   2.995   1.279
 1346TIP3    H125597   4.473   2.948   1.342
 1346TIP3    H225598   4.350   3.036   1.331
 1347TIP3   OH225599   4.190   3.965   2.340
 1347TIP3    H125600   4.155   4.025   2.274
 1347TIP3    H225601   4.170   3.878   2.305
 1348TIP3   OH225602   5.606   4.561   1.925
 1348TIP3    H125603   5.639   4.472   1.932
 1348TIP3    H225604   5.632   4.603   2.007
 1349TIP3   OH225605   0.417   4.217   7.385
 1349TIP3    H125606   0.359   4.144   7.364
 1349TIP3    H225607   0.486   4.213   7.318
 1350TIP3   OH225608   1.834   5.691   7.891
 1350TIP3    H125609   1.927   5.713   7.888
 1350TIP3    H225610   1.799   5.743   7.963
 1351TIP3   OH225611   6.686   4.427   2.846
 1351TIP3    H125612   6.645   4.451   2.763
 1351TIP3    H225613   6.750   4.360   2.823
 1352TIP3   OH225614   0.807   5.258   7.832
 1352TIP3    H125615   0.742   5.188   7.831
 1352TIP3    H225616   0.756   5.337   7.813
 1353TIP3   OH225617   0.175   3.966   1.806
 1353TIP3    H125618   0.096   3.920   1.834
 1353TIP3    H225619   0.246   3.903   1.822
 1354TIP3   OH225620   2.630   3.857   7.882
 1354TIP3    H125621   2.537   3.863   7.907
 1354TIP3    H225622   2.629   3.860   7.787
 1355TIP3   OH225623   1.307   2.070   1.360
 1355TIP3    H125624   1.227   2.062   1.308
 1355TIP3    H225625   1.377   2.065   1.295
 1356TIP3   OH225626   1.092   5.664   7.244
 1356TIP3    H125627   1.037   5.657   7.166
 1356TIP3    H225628   1.050   5.731   7.298
 1357TIP3   OH225629   3.927   1.280   8.083
 1357TIP3    H125630   4.013   1.299   8.122
 1357TIP3    H225631   3.877   1.239   8.154
 1358TIP3   OH225632   5.049   0.950   7.554
 1358TIP3    H125633   5.131   0.903   7.570
 1358TIP3    H225634   5.027   0.928   7.463
 1359TIP3   OH225635   5.188   1.680   1.981
 1359TIP3    H125636   5.195   1.608   1.918
 1359TIP3    H225637   5.224   1.756   1.934
 1360TIP3   OH225638   5.573   5.910   8.651
 1360TIP3    H125639   5.615   5.839   8.603
 1360TIP3    H225640   5.639   5.979   8.654
 1361TIP3   OH225641   6.806   2.144   1.066
 1361TIP3    H125642   0.070   2.167   1.039
 1361TIP3    H225643   6.814   2.056   1.102
 1362TIP3   OH225644   4.191   4.751   6.400
 1362TIP3    H125645   4.241   4.832   6.414
 1362TIP3    H225646   4.114   4.760   6.456
 1363TIP3   OH225647   0.762   3.597   7.605
 1363TIP3    H125648   0.766   3.502   7.593
 1363TIP3    H225649   0.845   3.619   7.647
 1364TIP3   OH225650   4.436   5.984   2.547
 1364TIP3    H125651   4.455   6.068   2.505
 1364TIP3    H225652   4.493   5.982   2.624
 1365TIP3   OH225653   6.414   1.316   2.339
 1365TIP3    H125654   6.421   1.362   2.423
 1365TIP3    H225655   6.415   1.386   2.273
 1366TIP3   OH225656   4.805   3.586   7.766
 1366TIP3    H125657   4.837   3.626   7.685
 1366TIP3    H225658   4.793   3.659   7.826
 1367TIP3   OH225659   2.681   6.329   0.711
 1367TIP3    H125660   2.656   6.276   0.635
 1367TIP3    H225661   2.777   6.330   0.709
 1368TIP3   OH225662   0.868   1.546   8.553
 1368TIP3    H125663   0.918   1.527   8.632
 1368TIP3    H225664   0.777   1.532   8.577
 1369TIP3   OH225665   0.894   5.030   6.263
 1369TIP3    H125666   0.956   5.005   6.332
 1369TIP3    H225667   0.811   5.042   6.309
 1370TIP3   OH225668   2.942   0.098   0.185
 1370TIP3    H125669   2.995   0.022   0.209
 1370TIP3    H225670   2.858   0.083   0.228
 1371TIP3   OH225671   2.862   2.486   8.731
 1371TIP3    H125672   2.800   2.523   8.668
 1371TIP3    H225673   2.948   2.517   8.700
 1372TIP3   OH225674   2.865   0.616   1.825
 1372TIP3    H125675   2.868   0.664   1.907
 1372TIP3    H225676   2.957   0.605   1.800
 1373TIP3   OH225677   4.235   3.950   2.702
 1373TIP3    H125678   4.289   3.952   2.781
 1373TIP3    H225679   4.225   4.042   2.678
 1374TIP3   OH225680   6.010   4.676   0.113
 1374TIP3    H125681   6.005   4.623   0.192
 1374TIP3    H225682   5.947   4.635   0.053
 1375TIP3   OH225683   0.486   6.497   0.052
 1375TIP3    H125684   0.395   6.502   0.022
 1375TIP3    H225685   0.517   6.587   0.052
 1376TIP3   OH225686   4.473   3.509   8.079
 1376TIP3    H125687   4.477   3.600   8.109
 1376TIP3    H225688   4.382   3.496   8.053
 1377TIP3   OH225689   4.062   0.813   7.168
 1377TIP3    H125690   4.147   0.818   7.124
 1377TIP3    H225691   4.030   0.903   7.169
 1378TIP3   OH225692   0.484   6.593   0.706
 1378TIP3    H125693   0.467   6.540   0.628
 1378TIP3    H225694   0.539   6.538   0.761
 1379TIP3   OH225695   4.701   5.000   0.972
 1379TIP3    H125696   4.742   5.085   0.990
 1379TIP3    H225697   4.774   4.940   0.960
 1380TIP3   OH225698   4.556   0.258   7.921
 1380TIP3    H125699   4.603   0.264   8.004
 1380TIP3    H225700   4.534   0.165   7.913
 1381TIP3   OH225701   4.681   3.703   1.616
 1381TIP3    H125702   4.643   3.727   1.701
 1381TIP3    H225703   4.709   3.612   1.627
 1382TIP3   OH225704   5.621   5.004   1.081
 1382TIP3    H125705   5.585   5.040   1.162
 1382TIP3    H225706   5.714   4.989   1.100
 1383TIP3   OH225707   3.655   6.182   6.623
 1383TIP3    H125708   3.618   6.118   6.682
 1383TIP3    H225709   3.749   6.184   6.644
 1384TIP3   OH225710   6.756   5.269   1.737
 1384TIP3    H125711   6.822   5.275   1.806
 1384TIP3    H225712   6.681   5.226   1.780
 1385TIP3   OH225713   3.636   6.167   7.318
 1385TIP3    H125714   3.604   6.136   7.403
 1385TIP3    H225715   3.646   6.088   7.266
 1386TIP3   OH225716   0.242   6.171   6.549
 1386TIP3    H125717   0.279   6.093   6.588
 1386TIP3    H225718   0.212   6.224   6.623
 1387TIP3   OH225719   3.685   4.101   7.874
 1387TIP3    H125720   3.662   4.044   7.948
 1387TIP3    H225721   3.733   4.174   7.914
 1388TIP3   OH225722   2.349   6.764   6.358
 1388TIP3    H125723   2.441   6.787   6.367
 1388TIP3    H225724   2.330   6.776   6.265
 1389TIP3   OH225725   0.207   0.238   0.351
 1389TIP3    H125726   0.228   0.250   0.443
 1389TIP3    H225727   0.257   0.306   0.306
 1390TIP3   OH225728   5.560   0.723   8.066
 1390TIP3    H125729   5.585   0.740   8.156
 1390TIP3    H225730   5.502   0.647   8.071
 1391TIP3   OH225731   1.349   2.949   0.164
 1391TIP3    H125732   1.273   2.930   0.219
 1391TIP3    H225733   1.424   2.947   0.223
 1392TIP3   OH225734   4.287   4.866   1.097
 1392TIP3    H125735   4.249   4.953   1.111
 1392TIP3    H225736   4.341   4.852   1.175
 1393TIP3   OH225737   0.786   3.550   1.282
 1393TIP3    H125738   0.837   3.629   1.299
 1393TIP3    H225739   0.744   3.531   1.366
 1394TIP3   OH225740   6.404   0.176   1.918
 1394TIP3    H125741   6.451   0.197   1.837
 1394TIP3    H225742   6.435   0.089   1.943
 1395TIP3   OH225743   2.469   6.305   2.589
 1395TIP3    H125744   2.383   6.283   2.555
 1395TIP3    H225745   2.529   6.245   2.544
 1396TIP3   OH225746   6.660   6.070   2.348
 1396TIP3    H125747   6.742   6.093   2.393
 1396TIP3    H225748   6.591   6.107   2.402
 1397TIP3   OH225749   0.503   0.638   0.546
 1397TIP3    H125750   0.516   0.581   0.622
 1397TIP3    H225751   0.567   0.708   0.558
 1398TIP3   OH225752   3.339   2.272   0.249
 1398TIP3    H125753   3.411   2.225   0.293
 1398TIP3    H225754   3.297   2.205   0.196
 1399TIP3   OH225755   1.074   1.547   2.276
 1399TIP3    H125756   1.108   1.626   2.234
 1399TIP3    H225757   0.980   1.561   2.280
 1400TIP3   OH225758   1.321   4.688   8.658
 1400TIP3    H125759   1.342   4.627   8.729
 1400TIP3    H225760   1.264   4.753   8.700
 1401TIP3   OH225761   6.735   3.395   0.252
 1401TIP3    H125762   6.790   3.399   0.331
 1401TIP3    H225763   6.650   3.363   0.283
 1402TIP3   OH225764   2.074   1.992   2.100
 1402TIP3    H125765   2.044   2.063   2.155
 1402TIP3    H225766   2.099   2.034   2.017
 1403TIP3   OH225767   3.777   5.517   1.490
 1403TIP3    H125768   3.808   5.601   1.524
 1403TIP3    H225769   3.713   5.487   1.555
 1404TIP3   OH225770   6.310   2.738   0.740
 1404TIP3    H125771   6.361   2.799   0.793
 1404TIP3    H225772   6.336   2.651   0.771
 1405TIP3   OH225773   4.745   4.450   1.237
 1405TIP3    H125774   4.779   4.451   1.327
 1405TIP3    H225775   4.673   4.387   1.239
 1406TIP3   OH225776   2.929   1.552   0.791
 1406TIP3    H125777   2.851   1.573   0.740
 1406TIP3    H225778   2.903   1.479   0.846
 1407TIP3   OH225779   6.184   5.500   7.361
 1407TIP3    H125780   6.106   5.485   7.308
 1407TIP3    H225781   6.188   5.425   7.420
 1408TIP3   OH225782   5.973   1.743   2.467
 1408TIP3    H125783   5.903   1.729   2.530
 1408TIP3    H225784   6.038   1.675   2.488
 1409TIP3   OH225785   2.771   6.063   1.869
 1409TIP3    H125786   2.777   6.103   1.782
 1409TIP3    H225787   2.834   6.111   1.922
 1410TIP3   OH225788   5.094   1.949   0.631
 1410TIP3    H125789   5.108   1.884   0.700
 1410TIP3    H225790   5.177   1.953   0.583
 1411TIP3   OH225791   3.094   2.642   7.789
 1411TIP3    H125792   3.138   2.560   7.767
 1411TIP3    H225793   3.103   2.650   7.884
 1412TIP3   OH225794   6.278   5.156   0.325
 1412TIP3    H125795   6.356   5.201   0.357
 1412TIP3    H225796   6.302   5.125   0.238
 1413TIP3   OH225797   5.660   0.961   6.844
 1413TIP3    H125798   5.729   0.996   6.900
 1413TIP3    H225799   5.675   0.867   6.843
 1414TIP3   OH225800   6.624   4.907   0.897
 1414TIP3    H125801   6.552   4.946   0.946
 1414TIP3    H225802   6.629   4.817   0.928
 1415TIP3   OH225803   0.379   0.256   8.092
 1415TIP3    H125804   0.311   0.263   8.159
 1415TIP3    H225805   0.342   0.301   8.015
 1416TIP3   OH225806   1.704   0.733   1.870
 1416TIP3    H125807   1.760   0.704   1.942
 1416TIP3    H225808   1.736   0.821   1.849
 1417TIP3   OH225809   1.366   4.132   0.422
 1417TIP3    H125810   1.349   4.039   0.433
 1417TIP3    H225811   1.414   4.138   0.339
 1418TIP3   OH225812   0.348   6.038   1.359
 1418TIP3    H125813   0.379   5.970   1.420
 1418TIP3    H225814   0.402   6.114   1.379
 1419TIP3   OH225815   0.551   5.139   1.276
 1419TIP3    H125816   0.524   5.230   1.282
 1419TIP3    H225817   0.620   5.138   1.209
 1420TIP3   OH225818   6.795   0.858   7.392
 1420TIP3    H125819   6.721   0.889   7.444
 1420TIP3    H225820   6.757   0.793   7.332
 1421TIP3   OH225821   1.107   0.409   8.345
 1421TIP3    H125822   1.078   0.451   8.264
 1421TIP3    H225823   1.171   0.344   8.316
 1422TIP3   OH225824   5.507   5.760   7.736
 1422TIP3    H125825   5.535   5.833   7.793
 1422TIP3    H225826   5.463   5.803   7.663
 1423TIP3   OH225827   5.568   6.333   0.290
 1423TIP3    H125828   5.582   6.426   0.309
 1423TIP3    H225829   5.627   6.287   0.350
 1424TIP3   OH225830   1.765   0.582   1.265
 1424TIP3    H125831   1.786   0.489   1.259
 1424TIP3    H225832   1.756   0.611   1.174
 1425TIP3   OH225833   3.512   3.739   1.065
 1425TIP3    H125834   3.427   3.770   1.094
 1425TIP3    H225835   3.565   3.735   1.145
 1426TIP3   OH225836   0.823   0.064   2.221
 1426TIP3    H125837   0.749   0.049   2.280
 1426TIP3    H225838   0.889   6.825   2.247
 1427TIP3   OH225839   6.262   6.044   8.516
 1427TIP3    H125840   6.288   6.126   8.474
 1427TIP3    H225841   6.296   5.976   8.458
 1428TIP3   OH225842   0.004   6.744   1.275
 1428TIP3    H125843   0.056   6.672   1.308
 1428TIP3    H225844   0.019   6.815   1.337
 1429TIP3   OH225845   6.447   4.664   7.775
 1429TIP3    H125846   6.420   4.689   7.687
 1429TIP3    H225847   6.535   4.629   7.764
 1430TIP3   OH225848   2.784   6.055   8.249
 1430TIP3    H125849   2.852   6.008   8.202
 1430TIP3    H225850   2.767   6.133   8.196
 1431TIP3   OH225851   0.217   4.179   0.428
 1431TIP3    H125852   0.223   4.131   0.510
 1431TIP3    H225853   0.163   4.256   0.448
 1432TIP3   OH225854   6.335   1.377   7.558
 1432TIP3    H125855   6.284   1.300   7.587
 1432TIP3    H225856   6.389   1.399   7.634
 1433TIP3   OH225857   5.218   6.518   2.078
 1433TIP3    H125858   5.271   6.570   2.018
 1433TIP3    H225859   5.128   6.543   2.058
 1434TIP3   OH225860   2.952   4.377   8.757
 1434TIP3    H125861   2.948   4.376   8.661
 1434TIP3    H225862   3.042   4.352   8.778
 1435TIP3   OH225863   1.786   5.192   7.464
 1435TIP3    H125864   1.793   5.121   7.400
 1435TIP3    H225865   1.876   5.222   7.476
 1436TIP3   OH225866   2.982   6.674   1.506
 1436TIP3    H125867   2.915   6.740   1.519
 1436TIP3    H225868   2.934   6.593   1.489
 1437TIP3   OH225869   4.207   6.315   1.317
 1437TIP3    H125870   4.185   6.232   1.274
 1437TIP3    H225871   4.198   6.296   1.410
 1438TIP3   OH225872   3.053   2.316   7.195
 1438TIP3    H125873   3.091   2.303   7.108
 1438TIP3    H225874   3.012   2.232   7.215
 1439TIP3   OH225875   5.529   3.962   1.110
 1439TIP3    H125876   5.526   4.055   1.088
 1439TIP3    H225877   5.520   3.960   1.205
 1440TIP3   OH225878   1.461   5.172   1.493
 1440TIP3    H125879   1.420   5.252   1.526
 1440TIP3    H225880   1.390   5.125   1.450
 1441TIP3   OH225881   4.021   1.084   1.126
 1441TIP3    H125882   4.066   1.168   1.121
 1441TIP3    H225883   4.045   1.049   1.212
 1442TIP3   OH225884   5.724   5.731   7.227
 1442TIP3    H125885   5.753   5.797   7.163
 1442TIP3    H225886   5.650   5.688   7.186
 1443TIP3   OH225887   0.885   1.367   1.388
 1443TIP3    H125888   0.932   1.442   1.423
 1443TIP3    H225889   0.944   1.293   1.402
 1444TIP3   OH225890   1.830   6.483   6.704
 1444TIP3    H125891   1.884   6.480   6.624
 1444TIP3    H225892   1.812   6.576   6.718
 1445TIP3   OH225893   3.831   5.406   2.336
 1445TIP3    H125894   3.805   5.462   2.262
 1445TIP3    H225895   3.836   5.466   2.410
 1446TIP3   OH225896   2.672   3.367   0.445
 1446TIP3    H125897   2.711   3.291   0.402
 1446TIP3    H225898   2.596   3.332   0.491
 1447TIP3   OH225899   4.134   2.976   8.095
 1447TIP3    H125900   4.115   2.918   8.168
 1447TIP3    H225901   4.066   3.043   8.098
 1448TIP3   OH225902   3.628   1.527   8.505
 1448TIP3    H125903   3.705   1.557   8.457
 1448TIP3    H225904   3.662   1.467   8.571
 1449TIP3   OH225905   3.560   1.512   0.479
 1449TIP3    H125906   3.520   1.428   0.457
 1449TIP3    H225907   3.636   1.519   0.422
 1450TIP3   OH225908   4.880   5.796   2.317
 1450TIP3    H125909   4.804   5.765   2.365
 1450TIP3    H225910   4.891   5.733   2.246
 1451TIP3   OH225911   2.488   5.536   1.047
 1451TIP3    H125912   2.561   5.588   1.013
 1451TIP3    H225913   2.455   5.489   0.971
 1452TIP3   OH225914   6.206   3.693   0.398
 1452TIP3    H125915   6.242   3.709   0.485
 1452TIP3    H225916   6.221   3.774   0.349
 1453TIP3   OH225917   5.756   1.658   1.013
 1453TIP3    H125918   5.818   1.601   1.057
 1453TIP3    H225919   5.807   1.736   0.990
 1454TIP3   OH225920   5.716   0.300   7.055
 1454TIP3    H125921   5.621   0.302   7.064
 1454TIP3    H225922   5.731   0.316   6.961
 1455TIP3   OH225923   5.218   1.367   7.060
 1455TIP3    H125924   5.195   1.460   7.057
 1455TIP3    H225925   5.196   1.334   6.973
 1456TIP3   OH225926   1.109   5.905   7.966
 1456TIP3    H125927   1.180   5.942   8.018
 1456TIP3    H225928   1.148   5.829   7.923
 1457TIP3   OH225929   4.771   3.321   2.204
 1457TIP3    H125930   4.862   3.295   2.223
 1457TIP3    H225931   4.735   3.343   2.290
 1458TIP3   OH225932   2.331   6.463   7.029
 1458TIP3    H125933   2.283   6.476   6.947
 1458TIP3    H225934   2.300   6.532   7.087
 1459TIP3   OH225935   0.569   0.923   1.026
 1459TIP3    H125936   0.539   0.923   1.117
 1459TIP3    H225937   0.659   0.891   1.031
 1460TIP3   OH225938   4.516   0.209   0.752
 1460TIP3    H125939   4.531   0.249   0.666
 1460TIP3    H225940   4.601   0.213   0.795
 1461TIP3   OH225941   4.191   2.345   0.743
 1461TIP3    H125942   4.242   2.421   0.771
 1461TIP3    H225943   4.146   2.316   0.822
 1462TIP3   OH225944   0.244   6.490   8.086
 1462TIP3    H125945   0.242   6.585   8.079
 1462TIP3    H225946   0.208   6.471   8.173
 1463TIP3   OH225947   3.650   3.459   1.443
 1463TIP3    H125948   3.645   3.552   1.418
 1463TIP3    H225949   3.740   3.447   1.473
 1464TIP3   OH225950   0.328   5.001   7.301
 1464TIP3    H125951   0.271   4.927   7.284
 1464TIP3    H225952   0.292   5.042   7.379
 1465TIP3   OH225953   1.560   3.946   6.868
 1465TIP3    H125954   1.620   4.020   6.874
 1465TIP3    H225955   1.566   3.904   6.954
 1466TIP3   OH225956   0.843   4.546   0.332
 1466TIP3    H125957   0.797   4.563   0.414
 1466TIP3    H225958   0.936   4.551   0.356
 1467TIP3   OH225959   4.853   5.720   1.391
 1467TIP3    H125960   4.802   5.732   1.471
 1467TIP3    H225961   4.837   5.629   1.365
 1468TIP3   OH225962   0.141   5.629   8.679
 1468TIP3    H125963   0.170   5.717   8.700
 1468TIP3    H225964   0.179   5.574   8.747
 1469TIP3   OH225965   2.992   0.985   1.549
 1469TIP3    H125966   3.007   1.028   1.464
 1469TIP3    H225967   2.919   0.926   1.533
 1470TIP3   OH225968   3.631   0.026   0.725
 1470TIP3    H125969   3.575   0.093   0.766
 1470TIP3    H225970   3.716   0.037   0.767
 1471TIP3   OH225971   1.993   4.286   7.365
 1471TIP3    H125972   1.983   4.319   7.276
 1471TIP3    H225973   1.911   4.309   7.408
 1472TIP3   OH225974   0.134   5.689   7.911
 1472TIP3    H125975   0.198   5.724   7.972
 1472TIP3    H225976   0.079   5.631   7.964
 1473TIP3   OH225977   2.163   5.804   0.962
 1473TIP3    H125978   2.248   5.759   0.966
 1473TIP3    H225979   2.185   5.897   0.966
 1474TIP3   OH225980   6.359   1.190   0.142
 1474TIP3    H125981   6.285   1.250   0.134
 1474TIP3    H225982   6.378   1.187   0.236
 1475TIP3   OH225983   3.732   5.273   0.468
 1475TIP3    H125984   3.779   5.233   0.541
 1475TIP3    H225985   3.645   5.233   0.470
 1476TIP3   OH225986   0.934   3.403   1.932
 1476TIP3    H125987   0.902   3.329   1.984
 1476TIP3    H225988   0.975   3.462   1.995
 1477TIP3   OH225989   4.746   6.552   6.954
 1477TIP3    H125990   4.670   6.610   6.960
 1477TIP3    H225991   4.818   6.610   6.931
 1478TIP3   OH225992   5.792   2.036   7.778
 1478TIP3    H125993   5.852   1.970   7.814
 1478TIP3    H225994   5.742   1.990   7.711
 1479TIP3   OH225995   4.672   0.584   1.146
 1479TIP3    H125996   4.584   0.609   1.174
 1479TIP3    H225997   4.666   0.490   1.130
 1480TIP3   OH225998   2.917   4.710   6.794
 1480TIP3    H125999   3.010   4.713   6.816
 1480TIP3    H226000   2.895   4.616   6.793
 1481TIP3   OH226001   0.326   0.013   8.438
 1481TIP3    H126002   0.364   6.751   8.423
 1481TIP3    H226003   0.395   0.061   8.484
 1482TIP3   OH226004   6.493   1.655   1.188
 1482TIP3    H126005   6.576   1.613   1.167
 1482TIP3    H226006   6.454   1.676   1.102
 1483TIP3   OH226007   0.737   5.140   1.086
 1483TIP3    H126008   0.795   5.216   1.087
 1483TIP3    H226009   0.793   5.067   1.112
 1484TIP3   OH226010   5.375   1.192   1.205
 1484TIP3    H126011   5.396   1.279   1.171
 1484TIP3    H226012   5.291   1.203   1.249
 1485TIP3   OH226013   2.422   4.456   7.925
 1485TIP3    H126014   2.328   4.455   7.939
 1485TIP3    H226015   2.432   4.448   7.830
 1486TIP3   OH226016   2.594   3.294   0.183
 1486TIP3    H126017   2.626   3.372   0.138
 1486TIP3    H226018   2.525   3.326   0.241
 1487TIP3   OH226019   1.581   2.146   8.196
 1487TIP3    H126020   1.673   2.148   8.167
 1487TIP3    H226021   1.538   2.211   8.141
 1488TIP3   OH226022   6.311   2.808   8.510
 1488TIP3    H126023   6.239   2.755   8.475
 1488TIP3    H226024   6.269   2.888   8.541
 1489TIP3   OH226025   4.329   5.850   6.858
 1489TIP3    H126026   4.378   5.924   6.822
 1489TIP3    H226027   4.292   5.807   6.781
 1490TIP3   OH226028   0.857   2.213   6.966
 1490TIP3    H126029   0.835   2.299   6.928
 1490TIP3    H226030   0.952   2.211   6.968
 1491TIP3   OH226031   2.762   2.522   8.090
 1491TIP3    H126032   2.822   2.494   8.159
 1491TIP3    H226033   2.678   2.535   8.135
 1492TIP3   OH226034   2.942   3.316   7.446
 1492TIP3    H126035   2.943   3.225   7.475
 1492TIP3    H226036   3.004   3.319   7.373
 1493TIP3   OH226037   4.642   5.075   7.995
 1493TIP3    H126038   4.625   4.981   7.991
 1493TIP3    H226039   4.580   5.108   8.060
 1494TIP3   OH226040   4.331   3.530   0.398
 1494TIP3    H126041   4.323   3.606   0.457
 1494TIP3    H226042   4.401   3.478   0.436
 1495TIP3   OH226043   2.818   1.885   7.458
 1495TIP3    H126044   2.757   1.812   7.465
 1495TIP3    H226045   2.905   1.845   7.464
 1496TIP3   OH226046   0.304   6.588   6.978
 1496TIP3    H126047   0.390   6.549   6.993
 1496TIP3    H226048   0.282   6.562   6.889
 1497TIP3   OH226049   4.151   2.857   1.599
 1497TIP3    H126050   4.196   2.852   1.683
 1497TIP3    H226051   4.094   2.934   1.606
 1498TIP3   OH226052   4.334   1.218   8.152
 1498TIP3    H126053   4.308   1.152   8.088
 1498TIP3    H226054   4.405   1.267   8.109
 1499TIP3   OH226055   5.334   6.518   8.033
 1499TIP3    H126056   5.341   6.504   7.938
 1499TIP3    H226057   5.387   6.596   8.049
 1500TIP3   OH226058   5.579   4.826   6.813
 1500TIP3    H126059   5.568   4.748   6.759
 1500TIP3    H226060   5.557   4.899   6.754
 1501TIP3   OH226061   0.804   1.561   6.840
 1501TIP3    H126062   0.824   1.469   6.822
 1501TIP3    H226063   0.710   1.568   6.825
 1502TIP3   OH226064   5.485   5.049   1.583
 1502TIP3    H126065   5.488   4.990   1.658
 1502TIP3    H226066   5.476   5.136   1.621
 1503TIP3   OH226067   4.280   6.397   1.754
 1503TIP3    H126068   4.243   6.327   1.701
 1503TIP3    H226069   4.224   6.400   1.832
 1504TIP3   OH226070   3.971   6.365   7.226
 1504TIP3    H126071   3.885   6.398   7.252
 1504TIP3    H226072   4.014   6.438   7.183
 1505TIP3   OH226073   1.928   0.817   1.098
 1505TIP3    H126074   1.933   0.861   1.013
 1505TIP3    H226075   1.950   0.726   1.080
 1506TIP3   OH226076   5.812   5.479   8.151
 1506TIP3    H126077   5.756   5.548   8.116
 1506TIP3    H226078   5.892   5.485   8.099
 1507TIP3   OH226079   4.210   0.626   8.236
 1507TIP3    H126080   4.271   0.691   8.271
 1507TIP3    H226081   4.212   0.555   8.300
 1508TIP3   OH226082   2.860   0.693   7.571
 1508TIP3    H126083   2.942   0.644   7.566
 1508TIP3    H226084   2.869   0.748   7.649
 1509TIP3   OH226085   0.607   0.699   8.194
 1509TIP3    H126086   0.591   0.776   8.247
 1509TIP3    H226087   0.585   0.625   8.251
 1510TIP3   OH226088   1.502   4.060   7.914
 1510TIP3    H126089   1.415   4.049   7.876
 1510TIP3    H226090   1.489   4.045   8.008
 1511TIP3   OH226091   0.143   4.502   7.158
 1511TIP3    H126092   0.209   4.567   7.134
 1511TIP3    H226093   0.059   4.542   7.135
 1512TIP3   OH226094   1.016   3.115   1.447
 1512TIP3    H126095   1.030   3.155   1.361
 1512TIP3    H226096   0.958   3.177   1.492
 1513TIP3   OH226097   4.127   4.336   8.113
 1513TIP3    H126098   4.081   4.252   8.126
 1513TIP3    H226099   4.060   4.394   8.078
 1514TIP3   OH226100   2.312   5.444   0.413
 1514TIP3    H126101   2.230   5.412   0.450
 1514TIP3    H226102   2.377   5.378   0.437
 1515TIP3   OH226103   1.438   1.195   7.986
 1515TIP3    H126104   1.405   1.272   7.939
 1515TIP3    H226105   1.515   1.225   8.032
 1516TIP3   OH226106   6.434   3.265   8.237
 1516TIP3    H126107   6.530   3.267   8.231
 1516TIP3    H226108   6.405   3.264   8.146
 1517TIP3   OH226109   5.853   4.377   0.526
 1517TIP3    H126110   5.818   4.391   0.438
 1517TIP3    H226111   5.889   4.288   0.524
 1518TIP3   OH226112   3.357   1.259   8.123
 1518TIP3    H126113   3.436   1.284   8.170
 1518TIP3    H226114   3.304   1.211   8.187
 1519TIP3   OH226115   0.484   3.388   7.445
 1519TIP3    H126116   0.427   3.346   7.380
 1519TIP3    H226117   0.572   3.380   7.408
 1520TIP3   OH226118   5.445   2.469   8.603
 1520TIP3    H126119   5.483   2.452   8.516
 1520TIP3    H226120   5.486   2.404   8.660
 1521TIP3   OH226121   4.125   6.107   2.739
 1521TIP3    H126122   4.147   6.192   2.779
 1521TIP3    H226123   4.209   6.062   2.730
 1522TIP3   OH226124   3.027   5.638   8.638
 1522TIP3    H126125   2.991   5.630   8.726
 1522TIP3    H226126   3.109   5.589   8.641
 1523TIP3   OH226127   4.709   6.506   0.767
 1523TIP3    H126128   4.671   6.487   0.853
 1523TIP3    H226129   4.692   6.427   0.716
 1524TIP3   OH226130   3.404   6.715   7.887
 1524TIP3    H126131   3.392   6.676   7.974
 1524TIP3    H226132   3.354   6.797   7.891
 1525TIP3   OH226133   6.306   6.658   1.905
 1525TIP3    H126134   6.372   6.609   1.955
 1525TIP3    H226135   6.333   6.650   1.814
 1526TIP3   OH226136   1.829   0.467   8.076
 1526TIP3    H126137   1.909   0.418   8.094
 1526TIP3    H226138   1.841   0.499   7.986
 1527TIP3   OH226139   2.091   3.831   7.942
 1527TIP3    H126140   2.155   3.900   7.922
 1527TIP3    H226141   2.118   3.797   8.027
 1528TIP3   OH226142   4.843   1.718   7.726
 1528TIP3    H126143   4.864   1.713   7.633
 1528TIP3    H226144   4.914   1.769   7.764
 1529TIP3   OH226145   1.462   5.531   7.390
 1529TIP3    H126146   1.484   5.445   7.355
 1529TIP3    H226147   1.518   5.540   7.468
 1530TIP3   OH226148   3.606   6.272   6.362
 1530TIP3    H126149   3.686   6.318   6.336
 1530TIP3    H226150   3.626   6.235   6.448
 1531TIP3   OH226151   5.051   2.147   1.125
 1531TIP3    H126152   5.073   2.227   1.077
 1531TIP3    H226153   4.973   2.171   1.176
 1532TIP3   OH226154   3.263   0.746   0.853
 1532TIP3    H126155   3.285   0.660   0.817
 1532TIP3    H226156   3.171   0.758   0.832
 1533TIP3   OH226157   3.379   2.668   0.238
 1533TIP3    H126158   3.400   2.618   0.317
 1533TIP3    H226159   3.286   2.653   0.224
 1534TIP3   OH226160   6.281   2.188   7.805
 1534TIP3    H126161   6.330   2.149   7.877
 1534TIP3    H226162   6.192   2.199   7.838
 1535TIP3   OH226163   4.678   1.764   2.020
 1535TIP3    H126164   4.614   1.696   2.041
 1535TIP3    H226165   4.680   1.820   2.098
 1536TIP3   OH226166   4.268   1.095   7.281
 1536TIP3    H126167   4.184   1.110   7.237
 1536TIP3    H226168   4.251   1.115   7.373
 1537TIP3   OH226169   3.265   0.451   1.868
 1537TIP3    H126170   3.242   0.377   1.925
 1537TIP3    H226171   3.311   0.512   1.924
 1538TIP3   OH226172   0.908   1.493   0.410
 1538TIP3    H126173   1.002   1.508   0.414
 1538TIP3    H226174   0.870   1.581   0.418
 1539TIP3   OH226175   0.801   1.811   0.062
 1539TIP3    H126176   0.816   1.877   8.775
 1539TIP3    H226177   0.757   1.859   0.132
 1540TIP3   OH226178   0.819   6.345   1.566
 1540TIP3    H126179   0.852   6.388   1.487
 1540TIP3    H226180   0.748   6.403   1.597
 1541TIP3   OH226181   2.915   3.752   7.505
 1541TIP3    H126182   2.999   3.799   7.511
 1541TIP3    H226183   2.909   3.704   7.588
 1542TIP3   OH226184   0.012   4.301   8.571
 1542TIP3    H126185   6.775   4.374   8.567
 1542TIP3    H226186   0.046   4.293   8.482
 1543TIP3   OH226187   0.809   3.670   0.706
 1543TIP3    H126188   0.762   3.745   0.670
 1543TIP3    H226189   0.745   3.628   0.764
 1544TIP3   OH226190   5.349   5.513   6.616
 1544TIP3    H126191   5.339   5.601   6.652
 1544TIP3    H226192   5.306   5.456   6.680
 1545TIP3   OH226193   0.292   1.051   7.788
 1545TIP3    H126194   0.367   1.088   7.742
 1545TIP3    H226195   0.216   1.094   7.749
 1546TIP3   OH226196   4.570   5.229   6.545
 1546TIP3    H126197   4.475   5.229   6.551
 1546TIP3    H226198   4.591   5.304   6.489
 1547TIP3   OH226199   2.750   0.744   1.625
 1547TIP3    H126200   2.676   0.781   1.671
 1547TIP3    H226201   2.793   0.688   1.690
 1548TIP3   OH226202   1.706   6.117   0.023
 1548TIP3    H126203   1.678   6.063   8.729
 1548TIP3    H226204   1.707   6.057   0.097
 1549TIP3   OH226205   5.541   5.492   1.039
 1549TIP3    H126206   5.474   5.457   1.098
 1549TIP3    H226207   5.619   5.501   1.093
 1550TIP3   OH226208   6.437   1.540   8.569
 1550TIP3    H126209   6.500   1.527   8.497
 1550TIP3    H226210   6.400   1.453   8.584
 1551TIP3   OH226211   2.510   6.176   8.270
 1551TIP3    H126212   2.502   6.256   8.217
 1551TIP3    H226213   2.593   6.137   8.244
 1552TIP3   OH226214   4.766   6.405   7.927
 1552TIP3    H126215   4.858   6.396   7.901
 1552TIP3    H226216   4.743   6.319   7.962
 1553TIP3   OH226217   1.535   6.393   1.431
 1553TIP3    H126218   1.578   6.316   1.468
 1553TIP3    H226219   1.467   6.415   1.494
 1554TIP3   OH226220   2.718   1.915   1.516
 1554TIP3    H126221   2.812   1.898   1.507
 1554TIP3    H226222   2.695   1.881   1.602
 1555TIP3   OH226223   2.834   3.024   0.098
 1555TIP3    H126224   2.773   3.030   0.171
 1555TIP3    H226225   2.804   3.091   0.036
 1556TIP3   OH226226   4.270   4.690   0.824
 1556TIP3    H126227   4.196   4.710   0.767
 1556TIP3    H226228   4.258   4.746   0.901
 1557TIP3   OH226229   6.645   0.128   8.442
 1557TIP3    H126230   6.719   0.082   8.403
 1557TIP3    H226231   6.578   0.061   8.455
 1558TIP3   OH226232   4.452   0.595   1.690
 1558TIP3    H126233   4.501   0.569   1.612
 1558TIP3    H226234   4.368   0.625   1.656
 1559TIP3   OH226235   1.667   1.810   1.219
 1559TIP3    H126236   1.749   1.859   1.228
 1559TIP3    H226237   1.662   1.758   1.300
 1560TIP3   OH226238   1.598   6.115   1.022
 1560TIP3    H126239   1.556   6.195   1.054
 1560TIP3    H226240   1.682   6.113   1.067
 1561TIP3   OH226241   1.902   3.536   0.162
 1561TIP3    H126242   1.950   3.610   0.125
 1561TIP3    H226243   1.893   3.475   0.089
 1562TIP3   OH226244   2.558   3.179   1.887
 1562TIP3    H126245   2.611   3.258   1.885
 1562TIP3    H226246   2.620   3.108   1.903
 1563TIP3   OH226247   0.242   4.030   2.133
 1563TIP3    H126248   0.223   4.100   2.194
 1563TIP3    H226249   0.323   4.058   2.089
 1564TIP3   OH226250   5.210   2.437   0.131
 1564TIP3    H126251   5.158   2.462   0.207
 1564TIP3    H226252   5.296   2.414   0.166
 1565TIP3   OH226253   2.937   5.356   7.215
 1565TIP3    H126254   2.997   5.414   7.263
 1565TIP3    H226255   2.872   5.415   7.178
 1566TIP3   OH226256   2.126   2.489   0.046
 1566TIP3    H126257   2.215   2.509   0.017
 1566TIP3    H226258   2.070   2.522   8.756
 1567TIP3   OH226259   6.049   5.066   0.151
 1567TIP3    H126260   6.101   5.095   0.225
 1567TIP3    H226261   5.983   5.008   0.190
 1568TIP3   OH226262   5.838   1.735   0.249
 1568TIP3    H126263   5.814   1.794   0.320
 1568TIP3    H226264   5.933   1.744   0.242
 1569TIP3   OH226265   3.701   0.454   1.407
 1569TIP3    H126266   3.647   0.484   1.480
 1569TIP3    H226267   3.670   0.504   1.332
 1570TIP3   OH226268   0.867   5.444   1.811
 1570TIP3    H126269   0.824   5.359   1.814
 1570TIP3    H226270   0.796   5.507   1.797
 1571TIP3   OH226271   3.396   3.563   8.292
 1571TIP3    H126272   3.421   3.474   8.319
 1571TIP3    H226273   3.318   3.582   8.345
 1572TIP3   OH226274   6.270   5.906   8.189
 1572TIP3    H126275   6.210   5.981   8.190
 1572TIP3    H226276   6.238   5.849   8.259
 1573TIP3   OH226277   5.032   1.903   0.342
 1573TIP3    H126278   4.947   1.865   0.319
 1573TIP3    H226279   5.041   1.886   0.436
 1574TIP3   OH226280   2.790   5.720   7.674
 1574TIP3    H126281   2.759   5.631   7.660
 1574TIP3    H226282   2.836   5.742   7.592
 1575TIP3   OH226283   6.025   0.237   0.139
 1575TIP3    H126284   5.944   0.221   0.186
 1575TIP3    H226285   6.011   0.319   0.092
 1576TIP3   OH226286   0.933   4.750   0.125
 1576TIP3    H126287   0.896   4.666   0.154
 1576TIP3    H226288   0.862   4.813   0.140
 1577TIP3   OH226289   1.897   3.709   6.860
 1577TIP3    H126290   1.947   3.789   6.844
 1577TIP3    H226291   1.923   3.650   6.790
 1578TIP3   OH226292   2.565   2.365   0.383
 1578TIP3    H126293   2.565   2.269   0.377
 1578TIP3    H226294   2.647   2.391   0.340
 1579TIP3   OH226295   6.153   0.064   7.517
 1579TIP3    H126296   6.068   0.022   7.533
 1579TIP3    H226297   6.182   0.093   7.603
 1580TIP3   OH226298   3.249   3.212   1.351
 1580TIP3    H126299   3.300   3.292   1.342
 1580TIP3    H226300   3.268   3.162   1.271
 1581TIP3   OH226301   1.709   0.185   0.872
 1581TIP3    H126302   1.765   0.228   0.937
 1581TIP3    H226303   1.620   0.205   0.900
 1582TIP3   OH226304   5.008   3.394   1.602
 1582TIP3    H126305   5.021   3.428   1.514
 1582TIP3    H226306   5.091   3.352   1.624
 1583TIP3   OH226307   1.194   5.696   8.493
 1583TIP3    H126308   1.215   5.603   8.502
 1583TIP3    H226309   1.099   5.700   8.493
 1584TIP3   OH226310   4.421   6.154   0.443
 1584TIP3    H126311   4.447   6.141   0.351
 1584TIP3    H226312   4.460   6.080   0.489
 1585TIP3   OH226313   2.659   0.253   0.078
 1585TIP3    H126314   2.566   0.275   0.079
 1585TIP3    H226315   2.681   0.249   8.766
 1586TIP3   OH226316   0.816   0.367   8.466
 1586TIP3    H126317   0.892   0.409   8.425
 1586TIP3    H226318   0.755   0.351   8.393
 1587TIP3   OH226319   2.812   1.375   7.873
 1587TIP3    H126320   2.727   1.413   7.853
 1587TIP3    H226321   2.874   1.448   7.863
 1588TIP3   OH226322   1.373   4.692   7.518
 1588TIP3    H126323   1.394   4.706   7.610
 1588TIP3    H226324   1.426   4.756   7.471
 1589TIP3   OH226325   6.069   5.924   1.032
 1589TIP3    H126326   6.002   5.862   1.002
 1589TIP3    H226327   6.083   5.982   0.957
 1590TIP3   OH226328   1.115   4.813   8.376
 1590TIP3    H126329   1.071   4.846   8.454
 1590TIP3    H226330   1.058   4.837   8.303
 1591TIP3   OH226331   6.523   6.639   0.953
 1591TIP3    H126332   6.457   6.690   0.906
 1591TIP3    H226333   6.484   6.552   0.963
 1592TIP3   OH226334   3.195   6.715   0.222
 1592TIP3    H126335   3.173   6.696   0.130
 1592TIP3    H226336   3.284   6.681   0.232
 1593TIP3   OH226337   6.454   6.023   7.867
 1593TIP3    H126338   6.476   6.030   7.774
 1593TIP3    H226339   6.419   6.109   7.889
 1594TIP3   OH226340   5.702   0.362   8.100
 1594TIP3    H126341   5.715   0.269   8.123
 1594TIP3    H226342   5.615   0.382   8.133
 1595TIP3   OH226343   6.649   3.233   0.777
 1595TIP3    H126344   6.601   3.180   0.714
 1595TIP3    H226345   6.677   3.172   0.845
 1596TIP3   OH226346   5.345   5.034   0.694
 1596TIP3    H126347   5.401   5.050   0.618
 1596TIP3    H226348   5.401   4.985   0.754
 1597TIP3   OH226349   4.110   4.412   7.118
 1597TIP3    H126350   4.183   4.440   7.174
 1597TIP3    H226351   4.152   4.381   7.038
 1598TIP3   OH226352   3.932   0.883   0.415
 1598TIP3    H126353   3.933   0.805   0.471
 1598TIP3    H226354   3.869   0.941   0.456
 1599TIP3   OH226355   5.186   6.084   5.979
 1599TIP3    H126356   5.169   6.088   6.073
 1599TIP3    H226357   5.123   6.146   5.941
 1600TIP3   OH226358   5.145   6.495   7.295
 1600TIP3    H126359   5.105   6.411   7.314
 1600TIP3    H226360   5.239   6.477   7.289
 1601TIP3   OH226361   3.810   0.936   1.162
 1601TIP3    H126362   3.870   1.004   1.131
 1601TIP3    H226363   3.728   0.983   1.180
 1602TIP3   OH226364   3.554   1.346   0.105
 1602TIP3    H126365   3.570   1.361   0.012
 1602TIP3    H226366   3.524   1.430   0.138
 1603TIP3   OH226367   5.511   3.159   7.174
 1603TIP3    H126368   5.589   3.199   7.211
 1603TIP3    H226369   5.525   3.164   7.079
 1604TIP3   OH226370   5.412   0.561   0.908
 1604TIP3    H126371   5.340   0.552   0.971
 1604TIP3    H226372   5.491   0.562   0.962
 1605TIP3   OH226373   0.842   5.316   7.494
 1605TIP3    H126374   0.833   5.365   7.412
 1605TIP3    H226375   0.763   5.261   7.497
 1606TIP3   OH226376   1.742   1.632   1.751
 1606TIP3    H126377   1.668   1.594   1.799
 1606TIP3    H226378   1.712   1.720   1.728
 1607TIP3   OH226379   3.244   3.849   1.381
 1607TIP3    H126380   3.260   3.935   1.419
 1607TIP3    H226381   3.211   3.867   1.293
 1608TIP3   OH226382   4.967   6.591   1.277
 1608TIP3    H126383   5.030   6.663   1.278
 1608TIP3    H226384   5.004   6.526   1.218
 1609TIP3   OH226385   5.454   1.697   0.600
 1609TIP3    H126386   5.494   1.671   0.682
 1609TIP3    H226387   5.450   1.617   0.548
 1610TIP3   OH226388   3.336   6.195   0.380
 1610TIP3    H126389   3.391   6.254   0.329
 1610TIP3    H226390   3.307   6.128   0.317
 1611TIP3   OH226391   5.783   5.833   7.696
 1611TIP3    H126392   5.720   5.785   7.749
 1611TIP3    H226393   5.782   5.789   7.611
 1612TIP3   OH226394   2.918   2.830   0.496
 1612TIP3    H126395   3.004   2.865   0.470
 1612TIP3    H226396   2.938   2.753   0.548
 1613TIP3   OH226397   2.544   2.824   7.273
 1613TIP3    H126398   2.634   2.826   7.306
 1613TIP3    H226399   2.553   2.836   7.179
 1614TIP3   OH226400   1.117   1.070   6.398
 1614TIP3    H126401   1.072   0.987   6.416
 1614TIP3    H226402   1.132   1.108   6.485
 1615TIP3   OH226403   6.620   1.178   8.347
 1615TIP3    H126404   6.624   1.202   8.254
 1615TIP3    H226405   6.544   1.121   8.354
 1616TIP3   OH226406   0.313   0.553   0.884
 1616TIP3    H126407   0.389   0.570   0.941
 1616TIP3    H226408   0.321   0.460   0.862
 1617TIP3   OH226409   0.441   4.174   2.009
 1617TIP3    H126410   0.508   4.117   1.969
 1617TIP3    H226411   0.419   4.237   1.940
 1618TIP3   OH226412   2.559   6.187   0.006
 1618TIP3    H126413   2.555   6.281   0.020
 1618TIP3    H226414   2.652   6.167   0.001
 1619TIP3   OH226415   6.711   3.045   7.447
 1619TIP3    H126416   6.762   3.071   7.370
 1619TIP3    H226417   6.766   3.068   7.521
 1620TIP3   OH226418   4.527   6.821   0.285
 1620TIP3    H126419   4.545   0.084   0.319
 1620TIP3    H226420   4.586   6.811   0.211
 1621TIP3   OH226421   5.706   1.873   1.449
 1621TIP3    H126422   5.652   1.951   1.457
 1621TIP3    H226423   5.651   1.802   1.481
 1622TIP3   OH226424   0.895   4.382   0.789
 1622TIP3    H126425   0.853   4.299   0.766
 1622TIP3    H226426   0.882   4.390   0.883
 1623TIP3   OH226427   1.017   6.374   0.054
 1623TIP3    H126428   1.085   6.313   0.024
 1623TIP3    H226429   1.007   6.355   0.147
 1624TIP3   OH226430   4.403   3.238   0.917
 1624TIP3    H126431   4.321   3.203   0.951
 1624TIP3    H226432   4.384   3.261   0.826
 1625TIP3   OH226433   1.844   4.379   7.115
 1625TIP3    H126434   1.818   4.446   7.052
 1625TIP3    H226435   1.780   4.386   7.185
 1626TIP3   OH226436   5.792   6.737   1.629
 1626TIP3    H126437   5.878   6.758   1.665
 1626TIP3    H226438   5.731   6.784   1.686
 1627TIP3   OH226439   0.500   1.619   8.156
 1627TIP3    H126440   0.517   1.702   8.201
 1627TIP3    H226441   0.468   1.645   8.069
 1628TIP3   OH226442   5.009   6.698   8.246
 1628TIP3    H126443   5.056   6.716   8.327
 1628TIP3    H226444   4.925   6.742   8.256
 1629TIP3   OH226445   5.093   0.633   2.576
 1629TIP3    H126446   5.050   0.549   2.592
 1629TIP3    H226447   5.179   0.624   2.618
 1630TIP3   OH226448   2.099   2.281   7.566
 1630TIP3    H126449   2.078   2.369   7.600
 1630TIP3    H226450   2.159   2.245   7.631
 1631TIP3   OH226451   4.596   4.611   0.130
 1631TIP3    H126452   4.515   4.642   0.091
 1631TIP3    H226453   4.665   4.660   0.084
 1632TIP3   OH226454   0.728   4.671   7.190
 1632TIP3    H126455   0.686   4.715   7.116
 1632TIP3    H226456   0.801   4.729   7.214
 1633TIP3   OH226457   0.963   4.796   7.252
 1633TIP3    H126458   1.000   4.708   7.246
 1633TIP3    H226459   0.990   4.828   7.338
 1634TIP3   OH226460   3.596   0.288   1.210
 1634TIP3    H126461   3.644   0.306   1.291
 1634TIP3    H226462   3.631   0.351   1.147
 1635TIP3   OH226463   1.244   0.369   6.835
 1635TIP3    H126464   1.210   0.409   6.915
 1635TIP3    H226465   1.172   0.315   6.802
 1636TIP3   OH226466   4.354   1.603   0.807
 1636TIP3    H126467   4.324   1.692   0.786
 1636TIP3    H226468   4.447   1.614   0.826
 1637TIP3   OH226469   5.685   1.692   1.846
 1637TIP3    H126470   5.749   1.624   1.826
 1637TIP3    H226471   5.627   1.652   1.912
 1638TIP3   OH226472   0.261   4.282   0.946
 1638TIP3    H126473   0.287   4.325   0.864
 1638TIP3    H226474   0.188   4.225   0.921
 1639TIP3   OH226475   6.057   0.488   1.571
 1639TIP3    H126476   6.068   0.414   1.631
 1639TIP3    H226477   5.970   0.523   1.592
 1640TIP3   OH226478   6.567   3.157   1.101
 1640TIP3    H126479   6.638   3.157   1.037
 1640TIP3    H226480   6.541   3.249   1.108
 1641TIP3   OH226481   3.282   5.621   8.406
 1641TIP3    H126482   3.313   5.683   8.340
 1641TIP3    H226483   3.266   5.540   8.358
 1642TIP3   OH226484   2.055   4.720   7.812
 1642TIP3    H126485   1.967   4.756   7.820
 1642TIP3    H226486   2.072   4.718   7.718
 1643TIP3   OH226487   3.598   4.857   7.040
 1643TIP3    H126488   3.510   4.823   7.023
 1643TIP3    H226489   3.584   4.942   7.081
 1644TIP3   OH226490   5.511   2.023   0.172
 1644TIP3    H126491   5.535   2.015   0.265
 1644TIP3    H226492   5.420   2.053   0.174
 1645TIP3   OH226493   5.668   6.515   1.527
 1645TIP3    H126494   5.724   6.581   1.569
 1645TIP3    H226495   5.610   6.484   1.597
 1646TIP3   OH226496   4.072   3.321   0.709
 1646TIP3    H126497   4.136   3.251   0.696
 1646TIP3    H226498   4.120   3.402   0.691
 1647TIP3   OH226499   1.813   4.825   7.930
 1647TIP3    H126500   1.780   4.858   7.847
 1647TIP3    H226501   1.755   4.752   7.951
 1648TIP3   OH226502   2.979   0.636   2.344
 1648TIP3    H126503   2.951   0.712   2.395
 1648TIP3    H226504   3.073   0.649   2.332
 1649TIP3   OH226505   4.778   4.985   2.371
 1649TIP3    H126506   4.688   4.988   2.340
 1649TIP3    H226507   4.771   5.001   2.465
 1650TIP3   OH226508   1.068   6.193   2.510
 1650TIP3    H126509   1.020   6.114   2.533
 1650TIP3    H226510   1.160   6.172   2.528
 1651TIP3   OH226511   5.981   0.659   8.311
 1651TIP3    H126512   6.030   0.741   8.306
 1651TIP3    H226513   6.048   0.591   8.303
 1652TIP3   OH226514   0.821   5.929   1.516
 1652TIP3    H126515   0.899   5.981   1.496
 1652TIP3    H226516   0.800   5.885   1.434
 1653TIP3   OH226517   3.200   1.730   6.986
 1653TIP3    H126518   3.235   1.801   7.040
 1653TIP3    H226519   3.121   1.767   6.946
 1654TIP3   OH226520   5.409   6.049   8.339
 1654TIP3    H126521   5.490   6.006   8.365
 1654TIP3    H226522   5.394   6.021   8.249
 1655TIP3   OH226523   4.543   3.000   0.533
 1655TIP3    H126524   4.493   3.000   0.452
 1655TIP3    H226525   4.578   3.089   0.540
 1656TIP3   OH226526   2.418   2.882   1.569
 1656TIP3    H126527   2.487   2.887   1.502
 1656TIP3    H226528   2.465   2.871   1.651
 1657TIP3   OH226529   1.203   6.090   7.746
 1657TIP3    H126530   1.204   6.034   7.824
 1657TIP3    H226531   1.244   6.036   7.678
 1658TIP3   OH226532   3.343   1.389   7.371
 1658TIP3    H126533   3.346   1.484   7.374
 1658TIP3    H226534   3.355   1.367   7.278
 1659TIP3   OH226535   3.589   2.244   8.322
 1659TIP3    H126536   3.595   2.150   8.302
 1659TIP3    H226537   3.650   2.256   8.395
 1660TIP3   OH226538   0.067   1.160   6.488
 1660TIP3    H126539   6.821   1.215   6.457
 1660TIP3    H226540   0.032   1.071   6.486
 1661TIP3   OH226541   3.049   6.031   0.727
 1661TIP3    H126542   3.144   6.028   0.720
 1661TIP3    H226543   3.023   5.944   0.756
 1662TIP3   OH226544   3.111   6.266   7.433
 1662TIP3    H126545   3.183   6.242   7.375
 1662TIP3    H226546   3.127   6.358   7.455
 1663TIP3   OH226547   4.667   0.328   2.372
 1663TIP3    H126548   4.605   0.388   2.415
 1663TIP3    H226549   4.688   0.372   2.289
 1664TIP3   OH226550   4.701   0.448   7.751
 1664TIP3    H126551   4.692   0.535   7.789
 1664TIP3    H226552   4.657   0.390   7.812
 1665TIP3   OH226553   4.551   6.229   0.789
 1665TIP3    H126554   4.563   6.142   0.828
 1665TIP3    H226555   4.615   6.233   0.719
 1666TIP3   OH226556   0.073   6.127   2.468
 1666TIP3    H126557   0.059   6.222   2.475
 1666TIP3    H226558   0.165   6.115   2.488
 1667TIP3   OH226559   3.126   5.854   7.705
 1667TIP3    H126560   3.144   5.838   7.612
 1667TIP3    H226561   3.097   5.945   7.708
 1668TIP3   OH226562   0.605   3.740   7.948
 1668TIP3    H126563   0.527   3.749   8.002
 1668TIP3    H226564   0.605   3.819   7.893
 1669TIP3   OH226565   0.411   1.143   0.232
 1669TIP3    H126566   0.364   1.067   0.266
 1669TIP3    H226567   0.385   1.147   0.140
 1670TIP3   OH226568   2.922   0.385   0.196
 1670TIP3    H126569   2.831   0.359   0.180
 1670TIP3    H226570   2.974   0.315   0.156
 1671TIP3   OH226571   4.035   2.468   8.681
 1671TIP3    H126572   3.971   2.502   8.743
 1671TIP3    H226573   4.077   2.396   8.728
 1672TIP3   OH226574   3.971   4.567   8.023
 1672TIP3    H126575   3.964   4.631   7.952
 1672TIP3    H226576   3.988   4.619   8.101
 1673TIP3   OH226577   1.189   1.881   7.041
 1673TIP3    H126578   1.127   1.810   7.057
 1673TIP3    H226579   1.273   1.845   7.070
 1674TIP3   OH226580   5.206   1.532   2.226
 1674TIP3    H126581   5.182   1.586   2.151
 1674TIP3    H226582   5.267   1.587   2.276
 1675TIP3   OH226583   1.558   6.011   6.351
 1675TIP3    H126584   1.472   6.036   6.318
 1675TIP3    H226585   1.574   5.925   6.314
 1676TIP3   OH226586   5.626   1.186   1.767
 1676TIP3    H126587   5.547   1.136   1.747
 1676TIP3    H226588   5.658   1.149   1.850
 1677TIP3   OH226589   5.205   1.887   8.616
 1677TIP3    H126590   5.158   1.845   8.688
 1677TIP3    H226591   5.145   1.954   8.583
 1678TIP3   OH226592   2.618   6.387   7.576
 1678TIP3    H126593   2.544   6.432   7.535
 1678TIP3    H226594   2.672   6.457   7.612
 1679TIP3   OH226595   1.509   4.069   7.299
 1679TIP3    H126596   1.498   4.135   7.368
 1679TIP3    H226597   1.474   4.111   7.220
 1680TIP3   OH226598   6.246   5.159   7.399
 1680TIP3    H126599   6.238   5.204   7.483
 1680TIP3    H226600   6.300   5.082   7.417
 1681TIP3   OH226601   2.117   2.599   0.398
 1681TIP3    H126602   2.161   2.654   0.332
 1681TIP3    H226603   2.049   2.656   0.435
 1682TIP3   OH226604   4.484   5.760   1.946
 1682TIP3    H126605   4.431   5.680   1.949
 1682TIP3    H226606   4.522   5.767   2.033
 1683TIP3   OH226607   5.289   3.957   1.836
 1683TIP3    H126608   5.323   4.016   1.903
 1683TIP3    H226609   5.327   3.872   1.858
 1684TIP3   OH226610   2.110   4.481   0.887
 1684TIP3    H126611   2.131   4.518   0.801
 1684TIP3    H226612   2.075   4.394   0.869
 1685TIP3   OH226613   2.553   2.547   8.247
 1685TIP3    H126614   2.569   2.452   8.244
 1685TIP3    H226615   2.462   2.555   8.274
 1686TIP3   OH226616   4.651   2.010   1.830
 1686TIP3    H126617   4.665   1.949   1.757
 1686TIP3    H226618   4.713   1.981   1.897
 1687TIP3   OH226619   5.663   3.344   1.102
 1687TIP3    H126620   5.750   3.384   1.107
 1687TIP3    H226621   5.634   3.361   1.012
 1688TIP3   OH226622   4.175   5.334   8.602
 1688TIP3    H126623   4.249   5.369   8.650
 1688TIP3    H226624   4.203   5.334   8.510
 1689TIP3   OH226625   3.169   4.119   8.478
 1689TIP3    H126626   3.249   4.084   8.519
 1689TIP3    H226627   3.185   4.213   8.472
 1690TIP3   OH226628   3.471   6.679   2.773
 1690TIP3    H126629   3.398   6.710   2.826
 1690TIP3    H226630   3.549   6.695   2.827
 1691TIP3   OH226631   6.445   4.259   6.710
 1691TIP3    H126632   6.445   4.333   6.650
 1691TIP3    H226633   6.438   4.182   6.654
 1692TIP3   OH226634   0.090   1.676   8.422
 1692TIP3    H126635   0.087   1.631   8.337
 1692TIP3    H226636   0.176   1.718   8.424
 1693TIP3   OH226637   2.409   2.242   6.500
 1693TIP3    H126638   2.390   2.160   6.545
 1693TIP3    H226639   2.333   2.259   6.446
 1694TIP3   OH226640   3.045   2.298   8.037
 1694TIP3    H126641   3.110   2.244   8.082
 1694TIP3    H226642   3.084   2.386   8.036
 1695TIP3   OH226643   0.316   4.657   1.404
 1695TIP3    H126644   0.343   4.566   1.402
 1695TIP3    H226645   0.369   4.700   1.337
 1696TIP3   OH226646   4.749   5.320   8.294
 1696TIP3    H126647   4.698   5.242   8.274
 1696TIP3    H226648   4.732   5.337   8.387
 1697TIP3   OH226649   1.095   2.423   6.974
 1697TIP3    H126650   1.129   2.504   6.935
 1697TIP3    H226651   1.174   2.370   6.989
 1698TIP3   OH226652   3.424   6.627   8.494
 1698TIP3    H126653   3.367   6.695   8.457
 1698TIP3    H226654   3.469   6.590   8.418
 1699TIP3   OH226655   3.183   1.115   8.303
 1699TIP3    H126656   3.164   1.136   8.394
 1699TIP3    H226657   3.111   1.058   8.276
 1700TIP3   OH226658   0.584   0.804   7.939
 1700TIP3    H126659   0.595   0.760   8.024
 1700TIP3    H226660   0.615   0.740   7.875
 1701TIP3   OH226661   5.849   2.985   0.421
 1701TIP3    H126662   5.842   2.917   0.488
 1701TIP3    H226663   5.785   2.960   0.354
 1702TIP3   OH226664   3.172   1.924   7.381
 1702TIP3    H126665   3.167   1.935   7.476
 1702TIP3    H226666   3.266   1.929   7.362
 1703TIP3   OH226667   5.402   5.865   2.660
 1703TIP3    H126668   5.322   5.916   2.648
 1703TIP3    H226669   5.473   5.927   2.639
 1704TIP3   OH226670   3.962   2.110   8.536
 1704TIP3    H126671   3.881   2.160   8.547
 1704TIP3    H226672   3.933   2.021   8.518
 1705TIP3   OH226673   3.183   3.019   8.366
 1705TIP3    H126674   3.106   2.983   8.322
 1705TIP3    H226675   3.147   3.079   8.432
 1706TIP3   OH226676   1.500   6.643   1.324
 1706TIP3    H126677   1.424   6.680   1.370
 1706TIP3    H226678   1.509   6.555   1.359
 1707TIP3   OH226679   4.662   5.574   0.802
 1707TIP3    H126680   4.717   5.498   0.784
 1707TIP3    H226681   4.694   5.608   0.885
 1708TIP3   OH226682   2.686   3.919   0.961
 1708TIP3    H126683   2.754   3.896   0.897
 1708TIP3    H226684   2.734   3.948   1.038
 1709TIP3   OH226685   1.083   5.574   1.672
 1709TIP3    H126686   1.027   5.631   1.620
 1709TIP3    H226687   1.023   5.528   1.731
 1710TIP3   OH226688   3.758   3.568   1.727
 1710TIP3    H126689   3.751   3.615   1.810
 1710TIP3    H226690   3.784   3.480   1.751
 1711TIP3   OH226691   6.796   2.405   7.934
 1711TIP3    H126692   6.705   2.409   7.903
 1711TIP3    H226693   0.022   2.447   7.865
 1712TIP3   OH226694   2.362   6.101   1.689
 1712TIP3    H126695   2.423   6.041   1.646
 1712TIP3    H226696   2.356   6.177   1.630
 1713TIP3   OH226697   2.812   0.312   7.227
 1713TIP3    H126698   2.856   0.358   7.155
 1713TIP3    H226699   2.769   0.237   7.185
 1714TIP3   OH226700   1.626   2.307   1.114
 1714TIP3    H126701   1.719   2.316   1.131
 1714TIP3    H226702   1.619   2.306   1.019
 1715TIP3   OH226703   2.424   0.083   0.017
 1715TIP3    H126704   2.395   0.002   0.058
 1715TIP3    H226705   2.442   0.143   0.090
 1716TIP3   OH226706   5.504   4.463   8.667
 1716TIP3    H126707   5.416   4.436   8.694
 1716TIP3    H226708   5.509   4.441   8.575
 1717TIP3   OH226709   2.649   5.259   7.400
 1717TIP3    H126710   2.637   5.196   7.329
 1717TIP3    H226711   2.605   5.219   7.475
 1718TIP3   OH226712   1.262   6.583   7.375
 1718TIP3    H126713   1.238   6.645   7.306
 1718TIP3    H226714   1.221   6.501   7.348
 1719TIP3   OH226715   0.869   5.889   0.698
 1719TIP3    H126716   0.913   5.818   0.652
 1719TIP3    H226717   0.853   5.955   0.631
 1720TIP3   OH226718   5.486   3.329   8.718
 1720TIP3    H126719   5.457   3.363   8.633
 1720TIP3    H226720   5.581   3.321   8.709
 1721TIP3   OH226721   0.148   3.679   7.558
 1721TIP3    H126722   0.108   3.651   7.475
 1721TIP3    H226723   0.238   3.648   7.553
 1722TIP3   OH226724   5.283   6.514   1.710
 1722TIP3    H126725   5.289   6.598   1.756
 1722TIP3    H226726   5.368   6.472   1.726
 1723TIP3   OH226727   4.768   4.620   8.387
 1723TIP3    H126728   4.827   4.695   8.379
 1723TIP3    H226729   4.750   4.613   8.480
 1724TIP3   OH226730   1.378   2.286   6.971
 1724TIP3    H126731   1.397   2.362   7.026
 1724TIP3    H226732   1.412   2.309   6.885
 1725TIP3   OH226733   3.555   0.772   8.775
 1725TIP3    H126734   3.467   0.772   0.031
 1725TIP3    H226735   3.549   0.829   8.698
 1726TIP3   OH226736   6.813   5.059   8.324
 1726TIP3    H126737   0.074   5.071   8.283
 1726TIP3    H226738   6.762   5.134   8.294
 1727TIP3   OH226739   6.570   1.201   7.872
 1727TIP3    H126740   6.625   1.164   7.802
 1727TIP3    H226741   6.569   1.295   7.854
 1728TIP3   OH226742   4.427   1.265   1.748
 1728TIP3    H126743   4.364   1.247   1.818
 1728TIP3    H226744   4.478   1.184   1.741
 1729TIP3   OH226745   1.155   3.029   6.519
 1729TIP3    H126746   1.105   3.041   6.600
 1729TIP3    H226747   1.089   3.006   6.453
 1730TIP3   OH226748   5.695   2.579   1.553
 1730TIP3    H126749   5.651   2.581   1.638
 1730TIP3    H226750   5.784   2.607   1.572
 1731TIP3   OH226751   4.160   5.097   1.178
 1731TIP3    H126752   4.131   5.187   1.196
 1731TIP3    H226753   4.096   5.042   1.223
 1732TIP3   OH226754   3.436   4.042   7.092
 1732TIP3    H126755   3.460   4.023   7.183
 1732TIP3    H226756   3.364   4.105   7.099
 1733TIP3   OH226757   1.205   4.718   0.162
 1733TIP3    H126758   1.120   4.750   0.133
 1733TIP3    H226759   1.191   4.625   0.179
 1734TIP3   OH226760   0.407   5.534   7.961
 1734TIP3    H126761   0.440   5.551   7.873
 1734TIP3    H226762   0.440   5.447   7.983
 1735TIP3   OH226763   1.397   6.224   6.529
 1735TIP3    H126764   1.304   6.236   6.547
 1735TIP3    H226765   1.399   6.187   6.441
 1736TIP3   OH226766   1.860   4.845   7.658
 1736TIP3    H126767   1.923   4.871   7.590
 1736TIP3    H226768   1.791   4.910   7.651
 1737TIP3   OH226769   4.888   2.491   0.828
 1737TIP3    H126770   4.879   2.578   0.790
 1737TIP3    H226771   4.909   2.434   0.754
 1738TIP3   OH226772   1.540   0.279   1.634
 1738TIP3    H126773   1.562   0.355   1.688
 1738TIP3    H226774   1.621   0.228   1.630
 1739TIP3   OH226775   5.145   6.489   8.563
 1739TIP3    H126776   5.125   6.443   8.644
 1739TIP3    H226777   5.170   6.419   8.502
 1740TIP3   OH226778   1.100   6.552   6.885
 1740TIP3    H126779   1.056   6.474   6.852
 1740TIP3    H226780   1.167   6.572   6.820
 1741TIP3   OH226781   4.241   4.825   2.046
 1741TIP3    H126782   4.219   4.918   2.045
 1741TIP3    H226783   4.235   4.801   2.139
 1742TIP3   OH226784   6.221   0.791   6.982
 1742TIP3    H126785   6.148   0.820   6.927
 1742TIP3    H226786   6.202   0.829   7.068
 1743TIP3   OH226787   3.542   6.748   6.893
 1743TIP3    H126788   3.519   6.763   6.985
 1743TIP3    H226789   3.496   6.817   6.845
 1744TIP3   OH226790   4.419   0.956   7.625
 1744TIP3    H126791   4.332   0.924   7.649
 1744TIP3    H226792   4.431   0.926   7.535
 1745TIP3   OH226793   4.383   4.488   7.179
 1745TIP3    H126794   4.344   4.542   7.248
 1745TIP3    H226795   4.402   4.549   7.108
 1746TIP3   OH226796   3.899   1.286   0.110
 1746TIP3    H126797   3.885   1.208   0.057
 1746TIP3    H226798   3.989   1.313   0.089
 1747TIP3   OH226799   5.082   2.209   1.918
 1747TIP3    H126800   5.089   2.219   1.824
 1747TIP3    H226801   4.997   2.167   1.932
 1748TIP3   OH226802   3.570   5.652   7.658
 1748TIP3    H126803   3.640   5.713   7.682
 1748TIP3    H226804   3.594   5.570   7.702
 1749TIP3   OH226805   4.774   2.270   1.866
 1749TIP3    H126806   4.771   2.182   1.829
 1749TIP3    H226807   4.686   2.285   1.899
 1750TIP3   OH226808   4.067   3.529   0.492
 1750TIP3    H126809   4.044   3.601   0.433
 1750TIP3    H226810   4.162   3.523   0.488
 1751TIP3   OH226811   0.711   2.121   8.417
 1751TIP3    H126812   0.785   2.127   8.355
 1751TIP3    H226813   0.685   2.212   8.431
 1752TIP3   OH226814   4.968   6.466   7.743
 1752TIP3    H126815   4.904   6.520   7.696
 1752TIP3    H226816   4.966   6.381   7.697
 1753TIP3   OH226817   3.015   6.041   8.055
 1753TIP3    H126818   3.095   6.037   8.003
 1753TIP3    H226819   2.946   6.010   7.997
 1754TIP3   OH226820   0.959   6.302   7.426
 1754TIP3    H126821   0.865   6.286   7.432
 1754TIP3    H226822   0.967   6.396   7.412
 1755TIP3   OH226823   6.013   1.945   1.539
 1755TIP3    H126824   5.938   2.002   1.521
 1755TIP3    H226825   5.976   1.869   1.584
 1756TIP3   OH226826   6.629   5.474   7.606
 1756TIP3    H126827   6.584   5.467   7.691
 1756TIP3    H226828   6.560   5.497   7.544
 1757TIP3   OH226829   2.341   1.479   0.409
 1757TIP3    H126830   2.339   1.571   0.435
 1757TIP3    H226831   2.271   1.438   0.460
 1758TIP3   OH226832   1.017   1.995   8.393
 1758TIP3    H126833   1.056   2.083   8.401
 1758TIP3    H226834   1.076   1.948   8.335
 1759TIP3   OH226835   3.226   1.389   7.612
 1759TIP3    H126836   3.256   1.371   7.523
 1759TIP3    H226837   3.305   1.419   7.658
 1760TIP3   OH226838   6.321   6.714   0.775
 1760TIP3    H126839   6.381   6.762   0.718
 1760TIP3    H226840   6.274   6.655   0.716
 1761TIP3   OH226841   6.154   0.951   7.233
 1761TIP3    H126842   6.211   0.988   7.301
 1761TIP3    H226843   6.118   1.028   7.187
 1762TIP3   OH226844   1.738   0.077   7.521
 1762TIP3    H126845   1.717   0.031   7.602
 1762TIP3    H226846   1.663   0.136   7.506
 1763TIP3   OH226847   5.940   4.044   8.496
 1763TIP3    H126848   5.957   4.024   8.588
 1763TIP3    H226849   5.998   4.117   8.477
 1764TIP3   OH226850   5.201   1.473   2.531
 1764TIP3    H126851   5.239   1.441   2.613
 1764TIP3    H226852   5.269   1.528   2.493
 1765TIP3   OH226853   4.592   2.036   7.913
 1765TIP3    H126854   4.596   2.022   8.007
 1765TIP3    H226855   4.682   2.061   7.889
 1766TIP3   OH226856   3.160   2.134   0.737
 1766TIP3    H126857   3.170   2.051   0.690
 1766TIP3    H226858   3.120   2.111   0.820
 1767TIP3   OH226859   0.512   0.369   0.426
 1767TIP3    H126860   0.588   0.382   0.368
 1767TIP3    H226861   0.525   0.432   0.497
 1768TIP3   OH226862   4.933   2.908   0.508
 1768TIP3    H126863   5.018   2.888   0.469
 1768TIP3    H226864   4.952   2.972   0.577
 1769TIP3   OH226865   5.655   5.323   1.801
 1769TIP3    H126866   5.575   5.327   1.853
 1769TIP3    H226867   5.726   5.322   1.866
 1770TIP3   OH226868   5.767   3.742   7.456
 1770TIP3    H126869   5.700   3.772   7.518
 1770TIP3    H226870   5.738   3.777   7.371
 1771TIP3   OH226871   4.407   6.616   1.259
 1771TIP3    H126872   4.314   6.637   1.261
 1771TIP3    H226873   4.417   6.555   1.186
 1772TIP3   OH226874   4.536   6.604   8.221
 1772TIP3    H126875   4.487   6.576   8.143
 1772TIP3    H226876   4.470   6.639   8.280
 1773TIP3   OH226877   1.047   1.091   7.373
 1773TIP3    H126878   1.100   1.162   7.409
 1773TIP3    H226879   0.975   1.136   7.328
 1774TIP3   OH226880   5.783   6.072   0.756
 1774TIP3    H126881   5.851   6.130   0.789
 1774TIP3    H226882   5.742   6.036   0.835
 1775TIP3   OH226883   3.003   2.637   6.999
 1775TIP3    H126884   3.082   2.619   6.946
 1775TIP3    H226885   2.931   2.626   6.937
 1776TIP3   OH226886   6.068   6.103   6.314
 1776TIP3    H126887   6.034   6.192   6.326
 1776TIP3    H226888   6.005   6.047   6.358
 1777TIP3   OH226889   4.274   0.199   0.071
 1777TIP3    H126890   4.284   0.292   0.050
 1777TIP3    H226891   4.358   0.160   0.050
 1778TIP3   OH226892   2.054   5.727   2.301
 1778TIP3    H126893   1.980   5.779   2.333
 1778TIP3    H226894   2.103   5.786   2.244
 1779TIP3   OH226895   5.767   1.858   7.039
 1779TIP3    H126896   5.831   1.840   6.971
 1779TIP3    H226897   5.818   1.872   7.118
 1780TIP3   OH226898   0.048   3.865   0.553
 1780TIP3    H126899   0.096   3.947   0.571
 1780TIP3    H226900   0.084   3.803   0.617
 1781TIP3   OH226901   2.145   5.085   8.158
 1781TIP3    H126902   2.081   5.149   8.126
 1781TIP3    H226903   2.093   5.007   8.178
 1782TIP3   OH226904   4.359   6.500   8.022
 1782TIP3    H126905   4.340   6.410   8.047
 1782TIP3    H226906   4.274   6.536   7.995
 1783TIP3   OH226907   1.808   0.315   6.780
 1783TIP3    H126908   1.884   0.259   6.764
 1783TIP3    H226909   1.844   0.404   6.780
 1784TIP3   OH226910   2.009   1.600   1.202
 1784TIP3    H126911   2.043   1.565   1.119
 1784TIP3    H226912   2.061   1.679   1.217
 1785TIP3   OH226913   2.376   4.499   0.995
 1785TIP3    H126914   2.377   4.443   1.072
 1785TIP3    H226915   2.289   4.489   0.958
 1786TIP3   OH226916   0.819   3.523   6.206
 1786TIP3    H126917   0.897   3.532   6.152
 1786TIP3    H226918   0.845   3.556   6.292
 1787TIP3   OH226919   1.946   1.143   7.711
 1787TIP3    H126920   2.027   1.145   7.661
 1787TIP3    H226921   1.877   1.155   7.646
 1788TIP3   OH226922   3.862   0.715   1.034
 1788TIP3    H126923   3.862   0.788   1.097
 1788TIP3    H226924   3.921   0.744   0.965
 1789TIP3   OH226925   0.232   2.821   0.591
 1789TIP3    H126926   0.219   2.779   0.676
 1789TIP3    H226927   0.193   2.761   0.528
 1790TIP3   OH226928   6.514   0.149   0.289
 1790TIP3    H126929   6.435   0.100   0.314
 1790TIP3    H226930   6.580   0.082   0.275
 1791TIP3   OH226931   3.489   0.327   7.428
 1791TIP3    H126932   3.447   0.305   7.511
 1791TIP3    H226933   3.545   0.402   7.447
 1792TIP3   OH226934   3.059   5.118   7.973
 1792TIP3    H126935   3.053   5.199   7.923
 1792TIP3    H226936   3.153   5.105   7.987
 1793TIP3   OH226937   4.721   6.453   1.417
 1793TIP3    H126938   4.768   6.536   1.410
 1793TIP3    H226939   4.646   6.472   1.473
 1794TIP3   OH226940   0.248   4.952   8.189
 1794TIP3    H126941   0.323   4.907   8.229
 1794TIP3    H226942   0.263   4.946   8.095
 1795TIP3   OH226943   2.208   0.959   7.528
 1795TIP3    H126944   2.192   1.054   7.528
 1795TIP3    H226945   2.189   0.932   7.618
 1796TIP3   OH226946   6.805   6.572   1.017
 1796TIP3    H126947   6.803   6.635   1.090
 1796TIP3    H226948   6.743   6.608   0.953
 1797TIP3   OH226949   0.807   6.048   1.978
 1797TIP3    H126950   0.771   6.134   2.001
 1797TIP3    H226951   0.801   5.998   2.059
 1798TIP3   OH226952   2.829   6.747   2.391
 1798TIP3    H126953   2.744   6.732   2.432
 1798TIP3    H226954   2.892   6.742   2.463
 1799TIP3   OH226955   3.426   6.283   1.532
 1799TIP3    H126956   3.501   6.317   1.581
 1799TIP3    H226957   3.440   6.189   1.528
 1800TIP3   OH226958   4.190   6.775   7.957
 1800TIP3    H126959   4.146   0.035   7.962
 1800TIP3    H226960   4.280   6.797   7.931
 1801TIP3   OH226961   5.958   4.932   7.496
 1801TIP3    H126962   5.915   4.984   7.563
 1801TIP3    H226963   5.896   4.932   7.423
 1802TIP3   OH226964   1.938   4.855   1.226
 1802TIP3    H126965   1.936   4.760   1.225
 1802TIP3    H226966   1.892   4.880   1.145
 1803TIP3   OH226967   2.736   6.275   0.306
 1803TIP3    H126968   2.816   6.223   0.313
 1803TIP3    H226969   2.764   6.364   0.328
 1804TIP3   OH226970   5.730   4.590   1.044
 1804TIP3    H126971   5.727   4.502   1.082
 1804TIP3    H226972   5.668   4.586   0.971
 1805TIP3   OH226973   5.351   6.204   0.055
 1805TIP3    H126974   5.338   6.109   0.051
 1805TIP3    H226975   5.369   6.222   0.147
 1806TIP3   OH226976   2.586   5.155   0.965
 1806TIP3    H126977   2.492   5.145   0.956
 1806TIP3    H226978   2.621   5.139   0.878
 1807TIP3   OH226979   4.737   5.269   1.037
 1807TIP3    H126980   4.823   5.268   1.080
 1807TIP3    H226981   4.701   5.356   1.057
 1808TIP3   OH226982   2.677   4.709   1.350
 1808TIP3    H126983   2.690   4.797   1.386
 1808TIP3    H226984   2.709   4.715   1.260
 1809TIP3   OH226985   1.218   0.510   0.191
 1809TIP3    H126986   1.310   0.524   0.212
 1809TIP3    H226987   1.197   0.579   0.128
 1810TIP3   OH226988   3.675   2.117   0.061
 1810TIP3    H126989   3.641   2.090   0.146
 1810TIP3    H226990   3.756   2.165   0.080
 1811TIP3   OH226991   0.155   6.399   1.139
 1811TIP3    H126992   0.157   6.449   1.220
 1811TIP3    H226993   0.111   6.456   1.076
 1812TIP3   OH226994   0.534   6.444   6.906
 1812TIP3    H126995   0.552   6.356   6.873
 1812TIP3    H226996   0.498   6.491   6.831
 1813TIP3   OH226997   1.127   3.245   7.533
 1813TIP3    H126998   1.210   3.271   7.573
 1813TIP3    H226999   1.062   3.304   7.571
 1814TIP3   OH227000   5.721   1.067   1.493
 1814TIP3    H127001   5.714   1.116   1.575
 1814TIP3    H227002   5.658   0.996   1.501
 1815TIP3   OH227003   4.811   6.551   7.518
 1815TIP3    H127004   4.717   6.566   7.507
 1815TIP3    H227005   4.852   6.625   7.474
 1816TIP3   OH227006   2.325   4.404   0.195
 1816TIP3    H127007   2.336   4.478   0.254
 1816TIP3    H227008   2.284   4.336   0.248
 1817TIP3   OH227009   1.061   1.112   8.235
 1817TIP3    H127010   1.090   1.197   8.269
 1817TIP3    H227011   1.059   1.124   8.140
 1818TIP3   OH227012   0.852   0.144   6.510
 1818TIP3    H127013   0.807   0.202   6.572
 1818TIP3    H227014   0.786   0.127   6.442
 1819TIP3   OH227015   1.347   4.472   7.361
 1819TIP3    H127016   1.319   4.545   7.417
 1819TIP3    H227017   1.279   4.465   7.294
 1820TIP3   OH227018   6.770   4.171   1.169
 1820TIP3    H127019   6.676   4.176   1.183
 1820TIP3    H227020   6.805   4.142   1.253
 1821TIP3   OH227021   0.216   5.490   2.621
 1821TIP3    H127022   0.234   5.492   2.527
 1821TIP3    H227023   0.197   5.398   2.639
 1822TIP3   OH227024   6.278   6.246   7.381
 1822TIP3    H127025   6.293   6.336   7.410
 1822TIP3    H227026   6.321   6.240   7.296
 1823TIP3   OH227027   1.918   6.149   7.496
 1823TIP3    H127028   1.892   6.080   7.435
 1823TIP3    H227029   1.989   6.111   7.547
 1824TIP3   OH227030   1.481   1.969   8.361
 1824TIP3    H127031   1.532   2.023   8.302
 1824TIP3    H227032   1.441   2.030   8.423
 1825TIP3   OH227033   4.734   4.095   8.485
 1825TIP3    H127034   4.689   4.132   8.410
 1825TIP3    H227035   4.767   4.010   8.454
 1826TIP3   OH227036   6.177   6.515   1.236
 1826TIP3    H127037   6.149   6.475   1.318
 1826TIP3    H227038   6.173   6.444   1.172
 1827TIP3   OH227039   2.698   5.692   6.542
 1827TIP3    H127040   2.741   5.607   6.532
 1827TIP3    H227041   2.605   5.673   6.535
 1828TIP3   OH227042   6.696   0.637   7.239
 1828TIP3    H127043   6.696   0.607   7.148
 1828TIP3    H227044   6.605   0.627   7.267
 1829TIP3   OH227045   3.972   0.306   0.898
 1829TIP3    H127046   3.931   0.220   0.891
 1829TIP3    H227047   4.045   0.303   0.837
 1830TIP3   OH227048   5.221   1.634   7.000
 1830TIP3    H127049   5.138   1.643   6.953
 1830TIP3    H227050   5.278   1.700   6.960
 1831TIP3   OH227051   1.968   2.227   2.165
 1831TIP3    H127052   2.021   2.305   2.147
 1831TIP3    H227053   1.903   2.256   2.229
 1832TIP3   OH227054   1.404   2.360   1.281
 1832TIP3    H127055   1.441   2.299   1.345
 1832TIP3    H227056   1.474   2.373   1.217
 1833TIP3   OH227057   0.467   2.250   0.064
 1833TIP3    H127058   0.555   2.219   0.041
 1833TIP3    H227059   0.479   2.298   0.146
 1834TIP3   OH227060   4.628   0.799   1.792
 1834TIP3    H127061   4.560   0.738   1.764
 1834TIP3    H227062   4.672   0.755   1.865
 1835TIP3   OH227063   4.681   5.357   0.526
 1835TIP3    H127064   4.759   5.343   0.578
 1835TIP3    H227065   4.702   5.433   0.471
 1836TIP3   OH227066   0.257   0.004   2.791
 1836TIP3    H127067   0.203   0.006   2.712
 1836TIP3    H227068   0.339   0.046   2.766
 1837TIP3   OH227069   0.533   2.011   2.078
 1837TIP3    H127070   0.486   2.069   2.019
 1837TIP3    H227071   0.560   2.067   2.151
 1838TIP3   OH227072   6.683   4.318   0.784
 1838TIP3    H127073   6.736   4.323   0.704
 1838TIP3    H227074   6.614   4.384   0.771
 1839TIP3   OH227075   6.414   6.332   2.189
 1839TIP3    H127076   6.496   6.304   2.228
 1839TIP3    H227077   6.414   6.427   2.198
 1840TIP3   OH227078   4.589   5.655   8.561
 1840TIP3    H127079   4.499   5.649   8.531
 1840TIP3    H227080   4.582   5.694   8.648
 1841TIP3   OH227081   2.190   1.856   0.547
 1841TIP3    H127082   2.197   1.765   0.575
 1841TIP3    H227083   2.097   1.868   0.528
 1842TIP3   OH227084   2.908   4.651   8.324
 1842TIP3    H127085   2.923   4.727   8.268
 1842TIP3    H227086   2.844   4.598   8.276
 1843TIP3   OH227087   3.088   0.046   7.005
 1843TIP3    H127088   3.146   0.112   6.967
 1843TIP3    H227089   3.000   0.075   6.981
 1844TIP3   OH227090   2.019   3.929   0.208
 1844TIP3    H127091   2.021   3.869   0.133
 1844TIP3    H227092   2.066   3.882   0.277
 1845TIP3   OH227093   3.190   0.496   6.772
 1845TIP3    H127094   3.110   0.487   6.720
 1845TIP3    H227095   3.180   0.580   6.816
 1846TIP3   OH227096   6.050   3.620   1.494
 1846TIP3    H127097   6.015   3.538   1.530
 1846TIP3    H227098   6.117   3.592   1.432
 1847TIP3   OH227099   4.923   1.018   8.232
 1847TIP3    H127100   4.946   0.932   8.265
 1847TIP3    H227101   4.998   1.044   8.177
 1848TIP3   OH227102   3.202   0.950   6.734
 1848TIP3    H127103   3.282   0.926   6.686
 1848TIP3    H227104   3.221   1.037   6.769
 1849TIP3   OH227105   1.163   6.790   1.051
 1849TIP3    H127106   1.231   0.022   1.086
 1849TIP3    H227107   1.130   6.742   1.127
 1850TIP3   OH227108   4.229   3.888   0.104
 1850TIP3    H127109   4.303   3.927   0.151
 1850TIP3    H227110   4.253   3.796   0.093
 1851TIP3   OH227111   5.651   6.047   0.988
 1851TIP3    H127112   5.571   5.998   1.007
 1851TIP3    H227113   5.633   6.135   1.023
 1852TIP3   OH227114   5.775   6.286   0.516
 1852TIP3    H127115   5.779   6.200   0.557
 1852TIP3    H227116   5.783   6.348   0.589
 1853TIP3   OH227117   5.268   1.127   0.769
 1853TIP3    H127118   5.208   1.201   0.764
 1853TIP3    H227119   5.226   1.058   0.718
 1854TIP3   OH227120   3.353   5.958   1.379
 1854TIP3    H127121   3.350   6.030   1.315
 1854TIP3    H227122   3.431   5.977   1.432
 1855TIP3   OH227123   4.391   4.345   1.684
 1855TIP3    H127124   4.409   4.362   1.776
 1855TIP3    H227125   4.465   4.292   1.654
 1856TIP3   OH227126   3.031   3.237   7.899
 1856TIP3    H127127   3.038   3.279   7.985
 1856TIP3    H227128   2.997   3.306   7.842
 1857TIP3   OH227129   0.097   0.409   8.469
 1857TIP3    H127130   0.049   0.492   8.466
 1857TIP3    H227131   0.060   0.363   8.544
 1858TIP3   OH227132   2.820   1.381   2.508
 1858TIP3    H127133   2.843   1.474   2.521
 1858TIP3    H227134   2.875   1.335   2.571
 1859TIP3   OH227135   2.724   4.997   7.420
 1859TIP3    H127136   2.781   5.038   7.485
 1859TIP3    H227137   2.778   4.992   7.341
 1860TIP3   OH227138   1.564   1.426   0.990
 1860TIP3    H127139   1.533   1.432   1.080
 1860TIP3    H227140   1.582   1.516   0.964
 1861TIP3   OH227141   5.700   0.409   1.783
 1861TIP3    H127142   5.773   0.393   1.844
 1861TIP3    H227143   5.643   0.469   1.830
 1862TIP3   OH227144   5.119   1.713   1.300
 1862TIP3    H127145   5.033   1.694   1.262
 1862TIP3    H227146   5.099   1.736   1.391
 1863TIP3   OH227147   3.782   6.596   0.238
 1863TIP3    H127148   3.872   6.613   0.209
 1863TIP3    H227149   3.784   6.615   0.332
 1864TIP3   OH227150   2.267   0.816   1.662
 1864TIP3    H127151   2.234   0.791   1.748
 1864TIP3    H227152   2.240   0.908   1.652
 1865TIP3   OH227153   3.345   4.471   1.094
 1865TIP3    H127154   3.430   4.505   1.122
 1865TIP3    H227155   3.362   4.430   1.010
 1866TIP3   OH227156   4.035   4.074   6.729
 1866TIP3    H127157   4.130   4.063   6.740
 1866TIP3    H227158   4.024   4.168   6.714
 1867TIP3   OH227159   0.871   0.578   1.063
 1867TIP3    H127160   0.880   0.669   1.035
 1867TIP3    H227161   0.932   0.569   1.136
 1868TIP3   OH227162   3.780   3.465   8.692
 1868TIP3    H127163   3.839   3.473   8.618
 1868TIP3    H227164   3.758   3.556   8.715
 1869TIP3   OH227165   1.159   3.081   1.169
 1869TIP3    H127166   1.252   3.090   1.193
 1869TIP3    H227167   1.129   3.171   1.159
 1870TIP3   OH227168   1.628   6.230   0.631
 1870TIP3    H127169   1.567   6.251   0.560
 1870TIP3    H227170   1.598   6.146   0.666
 1871TIP3   OH227171   3.807   4.349   7.818
 1871TIP3    H127172   3.851   4.413   7.874
 1871TIP3    H227173   3.852   4.357   7.734
 1872TIP3   OH227174   4.998   5.212   7.803
 1872TIP3    H127175   4.969   5.284   7.747
 1872TIP3    H227176   4.927   5.148   7.799
 1873TIP3   OH227177   0.760   4.352   2.343
 1873TIP3    H127178   0.806   4.430   2.374
 1873TIP3    H227179   0.801   4.279   2.389
 1874TIP3   OH227180   1.619   2.503   1.450
 1874TIP3    H127181   1.623   2.527   1.543
 1874TIP3    H227182   1.630   2.408   1.450
 1875TIP3   OH227183   5.189   0.273   1.395
 1875TIP3    H127184   5.249   0.302   1.463
 1875TIP3    H227185   5.139   0.351   1.371
 1876TIP3   OH227186   3.040   6.416   1.098
 1876TIP3    H127187   3.016   6.499   1.139
 1876TIP3    H227188   3.054   6.437   1.006
 1877TIP3   OH227189   0.317   4.623   6.848
 1877TIP3    H127190   0.299   4.710   6.885
 1877TIP3    H227191   0.310   4.635   6.754
 1878TIP3   OH227192   5.329   3.579   7.975
 1878TIP3    H127193   5.373   3.540   7.900
 1878TIP3    H227194   5.254   3.625   7.938
 1879TIP3   OH227195   5.148   2.190   6.961
 1879TIP3    H127196   5.185   2.200   6.874
 1879TIP3    H227197   5.067   2.241   6.959
 1880TIP3   OH227198   1.045   5.007   7.079
 1880TIP3    H127199   0.982   4.936   7.087
 1880TIP3    H227200   1.095   4.986   7.000
 1881TIP3   OH227201   3.145   2.273   8.681
 1881TIP3    H127202   3.229   2.227   8.687
 1881TIP3    H227203   3.100   2.250   8.762
 1882TIP3   OH227204   2.999   2.237   2.243
 1882TIP3    H127205   2.932   2.175   2.273
 1882TIP3    H227206   3.081   2.204   2.279
 1883TIP3   OH227207   3.924   2.726   2.112
 1883TIP3    H127208   3.950   2.752   2.024
 1883TIP3    H227209   3.833   2.755   2.119
 1884TIP3   OH227210   3.026   3.150   2.585
 1884TIP3    H127211   3.109   3.120   2.623
 1884TIP3    H227212   2.960   3.122   2.648
 1885TIP3   OH227213   4.236   1.868   0.260
 1885TIP3    H127214   4.252   1.779   0.291
 1885TIP3    H227215   4.211   1.857   0.168
 1886TIP3   OH227216   1.619   6.368   8.768
 1886TIP3    H127217   1.683   6.435   0.012
 1886TIP3    H227218   1.665   6.285   8.780
 1887TIP3   OH227219   4.606   2.706   0.274
 1887TIP3    H127220   4.643   2.718   0.361
 1887TIP3    H227221   4.512   2.695   0.289
 1888TIP3   OH227222   4.327   3.103   7.144
 1888TIP3    H127223   4.293   3.150   7.068
 1888TIP3    H227224   4.378   3.031   7.106
 1889TIP3   OH227225   2.053   5.490   1.887
 1889TIP3    H127226   2.007   5.407   1.903
 1889TIP3    H227227   2.124   5.466   1.827
 1890TIP3   OH227228   1.027   2.834   8.725
 1890TIP3    H127229   0.970   2.911   8.715
 1890TIP3    H227230   1.069   2.824   8.640
 1891TIP3   OH227231   4.772   3.608   2.441
 1891TIP3    H127232   4.809   3.621   2.528
 1891TIP3    H227233   4.702   3.543   2.454
 1892TIP3   OH227234   4.010   6.346   8.028
 1892TIP3    H127235   3.942   6.356   7.962
 1892TIP3    H227236   4.009   6.430   8.076
 1893TIP3   OH227237   2.549   5.217   0.543
 1893TIP3    H127238   2.616   5.275   0.579
 1893TIP3    H227239   2.584   5.191   0.457
 1894TIP3   OH227240   1.287   3.624   0.139
 1894TIP3    H127241   1.383   3.625   0.145
 1894TIP3    H227242   1.263   3.713   0.115
 1895TIP3   OH227243   2.292   0.020   1.187
 1895TIP3    H127244   2.376   0.042   1.146
 1895TIP3    H227245   2.235   0.094   1.164
 1896TIP3   OH227246   0.039   6.363   1.521
 1896TIP3    H127247   0.049   6.458   1.506
 1896TIP3    H227248   0.129   6.331   1.527
 1897TIP3   OH227249   5.926   2.586   1.246
 1897TIP3    H127250   5.910   2.533   1.324
 1897TIP3    H227251   6.020   2.604   1.247
 1898TIP3   OH227252   0.245   3.640   1.152
 1898TIP3    H127253   0.260   3.732   1.129
 1898TIP3    H227254   0.153   3.638   1.178
 1899TIP3   OH227255   2.792   2.331   6.684
 1899TIP3    H127256   2.739   2.403   6.650
 1899TIP3    H227257   2.834   2.293   6.608
 1900TIP3   OH227258   6.708   1.302   8.661
 1900TIP3    H127259   6.630   1.252   8.685
 1900TIP3    H227260   6.687   1.340   8.575
 1901TIP3   OH227261   5.547   6.215   2.017
 1901TIP3    H127262   5.513   6.127   2.001
 1901TIP3    H227263   5.642   6.205   2.015
 1902TIP3   OH227264   5.071   5.193   8.375
 1902TIP3    H127265   4.982   5.161   8.390
 1902TIP3    H227266   5.099   5.149   8.295
 1903TIP3   OH227267   1.882   4.643   7.326
 1903TIP3    H127268   1.841   4.590   7.395
 1903TIP3    H227269   1.974   4.651   7.354
 1904TIP3   OH227270   2.439   4.206   1.548
 1904TIP3    H127271   2.512   4.146   1.531
 1904TIP3    H227272   2.435   4.212   1.643
 1905TIP3   OH227273   1.285   3.085   1.606
 1905TIP3    H127274   1.239   3.121   1.682
 1905TIP3    H227275   1.216   3.071   1.541
 1906TIP3   OH227276   0.496   5.482   7.184
 1906TIP3    H127277   0.424   5.508   7.242
 1906TIP3    H227278   0.506   5.388   7.200
 1907TIP3   OH227279   0.641   4.980   8.411
 1907TIP3    H127280   0.604   4.959   8.326
 1907TIP3    H227281   0.589   4.928   8.473
 1908TIP3   OH227282   6.663   0.847   1.477
 1908TIP3    H127283   6.753   0.861   1.448
 1908TIP3    H227284   6.650   0.753   1.474
 1909TIP3   OH227285   3.177   0.718   7.460
 1909TIP3    H127286   3.199   0.757   7.545
 1909TIP3    H227287   3.225   0.635   7.460
 1910TIP3   OH227288   4.244   0.059   1.038
 1910TIP3    H127289   4.182   6.816   1.012
 1910TIP3    H227290   4.325   0.036   0.993
 1911TIP3   OH227291   6.801   0.442   2.173
 1911TIP3    H127292   0.020   0.513   2.127
 1911TIP3    H227293   6.756   0.485   2.246
 1912TIP3   OH227294   0.777   0.738   7.527
 1912TIP3    H127295   0.699   0.792   7.510
 1912TIP3    H227296   0.840   0.767   7.462
 1913TIP3   OH227297   0.627   3.449   7.865
 1913TIP3    H127298   0.637   3.541   7.842
 1913TIP3    H227299   0.578   3.411   7.792
 1914TIP3   OH227300   6.654   3.470   8.678
 1914TIP3    H127301   6.594   3.415   8.728
 1914TIP3    H227302   6.735   3.421   8.675
 1915TIP3   OH227303   3.472   4.118   0.631
 1915TIP3    H127304   3.393   4.065   0.637
 1915TIP3    H227305   3.454   4.194   0.687
 1916TIP3   OH227306   3.742   2.431   2.086
 1916TIP3    H127307   3.727   2.489   2.011
 1916TIP3    H227308   3.834   2.445   2.109
 1917TIP3   OH227309   0.635   4.666   0.911
 1917TIP3    H127310   0.689   4.630   0.981
 1917TIP3    H227311   0.683   4.744   0.881
 1918TIP3   OH227312   1.642   1.495   7.362
 1918TIP3    H127313   1.557   1.454   7.378
 1918TIP3    H227314   1.687   1.436   7.302
 1919TIP3   OH227315   1.891   1.743   8.620
 1919TIP3    H127316   1.875   1.837   8.610
 1919TIP3    H227317   1.895   1.729   8.715
 1920TIP3   OH227318   3.438   2.312   1.049
 1920TIP3    H127319   3.382   2.381   1.012
 1920TIP3    H227320   3.387   2.278   1.123
 1921TIP3   OH227321   5.525   2.354   7.108
 1921TIP3    H127322   5.536   2.261   7.089
 1921TIP3    H227323   5.608   2.380   7.148
 1922TIP3   OH227324   3.463   5.444   1.507
 1922TIP3    H127325   3.423   5.516   1.457
 1922TIP3    H227326   3.455   5.470   1.598
 1923TIP3   OH227327   3.813   1.596   8.327
 1923TIP3    H127328   3.784   1.586   8.236
 1923TIP3    H227329   3.879   1.527   8.338
 1924TIP3   OH227330   3.459   5.565   2.018
 1924TIP3    H127331   3.370   5.570   1.984
 1924TIP3    H227332   3.466   5.477   2.056
 1925TIP3   OH227333   0.103   1.073   8.765
 1925TIP3    H127334   0.072   1.138   0.047
 1925TIP3    H227335   0.077   0.989   0.021
 1926TIP3   OH227336   0.117   3.884   2.498
 1926TIP3    H127337   0.176   3.822   2.455
 1926TIP3    H227338   0.166   3.966   2.500
 1927TIP3   OH227339   3.461   5.260   8.500
 1927TIP3    H127340   3.506   5.295   8.422
 1927TIP3    H227341   3.468   5.165   8.492
 1928TIP3   OH227342   2.782   0.797   7.304
 1928TIP3    H127343   2.690   0.821   7.296
 1928TIP3    H227344   2.790   0.762   7.393
 1929TIP3   OH227345   1.033   1.643   0.096
 1929TIP3    H127346   1.079   1.662   0.178
 1929TIP3    H227347   0.970   1.715   0.088
 1930TIP3   OH227348   3.279   4.844   8.415
 1930TIP3    H127349   3.235   4.905   8.356
 1930TIP3    H227350   3.214   4.777   8.433
 1931TIP3   OH227351   2.165   1.277   8.025
 1931TIP3    H127352   2.244   1.315   8.064
 1931TIP3    H227353   2.194   1.243   7.940
 1932TIP3   OH227354   5.361   5.286   1.642
 1932TIP3    H127355   5.354   5.278   1.737
 1932TIP3    H227356   5.352   5.380   1.625
 1933TIP3   OH227357   6.465   6.336   8.486
 1933TIP3    H127358   6.466   6.418   8.438
 1933TIP3    H227359   6.557   6.308   8.489
 1934TIP3   OH227360   3.099   5.391   0.229
 1934TIP3    H127361   3.022   5.403   0.285
 1934TIP3    H227362   3.084   5.450   0.155
 1935TIP3   OH227363   5.503   1.247   6.926
 1935TIP3    H127364   5.486   1.320   6.986
 1935TIP3    H227365   5.500   1.287   6.839
 1936TIP3   OH227366   5.252   2.579   2.128
 1936TIP3    H127367   5.230   2.589   2.221
 1936TIP3    H227368   5.336   2.533   2.129
 1937TIP3   OH227369   6.150   0.362   7.436
 1937TIP3    H127370   6.151   0.266   7.436
 1937TIP3    H227371   6.155   0.386   7.528
 1938TIP3   OH227372   1.207   1.610   7.793
 1938TIP3    H127373   1.158   1.532   7.820
 1938TIP3    H227374   1.145   1.682   7.804
 1939TIP3   OH227375   2.180   3.294   1.450
 1939TIP3    H127376   2.136   3.337   1.523
 1939TIP3    H227377   2.174   3.200   1.470
 1940TIP3   OH227378   0.093   1.238   7.694
 1940TIP3    H127379   0.098   1.277   7.781
 1940TIP3    H227380   0.044   1.301   7.641
 1941TIP3   OH227381   2.526   3.695   7.175
 1941TIP3    H127382   2.614   3.722   7.201
 1941TIP3    H227383   2.481   3.777   7.154
 1942TIP3   OH227384   4.129   6.728   0.827
 1942TIP3    H127385   4.082   6.742   0.744
 1942TIP3    H227386   4.209   6.684   0.801
 1943TIP3   OH227387   6.703   1.310   8.124
 1943TIP3    H127388   6.775   1.373   8.125
 1943TIP3    H227389   6.739   1.233   8.080
 1944TIP3   OH227390   4.448   4.404   0.264
 1944TIP3    H127391   4.491   4.488   0.248
 1944TIP3    H227392   4.355   4.425   0.271
 1945TIP3   OH227393   2.459   4.181   0.447
 1945TIP3    H127394   2.496   4.265   0.472
 1945TIP3    H227395   2.478   4.123   0.521
 1946TIP3   OH227396   4.750   0.925   2.151
 1946TIP3    H127397   4.688   0.934   2.223
 1946TIP3    H227398   4.743   0.833   2.125
 1947TIP3   OH227399   0.491   4.517   8.718
 1947TIP3    H127400   0.422   4.550   8.661
 1947TIP3    H227401   0.459   4.432   8.749
 1948TIP3   OH227402   6.090   5.812   7.687
 1948TIP3    H127403   6.051   5.892   7.722
 1948TIP3    H227404   6.074   5.817   7.593
 1949TIP3   OH227405   4.196   4.152   2.061
 1949TIP3    H127406   4.122   4.103   2.026
 1949TIP3    H227407   4.270   4.092   2.052
 1950TIP3   OH227408   1.188   0.415   7.112
 1950TIP3    H127409   1.158   0.501   7.141
 1950TIP3    H227410   1.256   0.391   7.174
 1951TIP3   OH227411   2.350   2.442   7.592
 1951TIP3    H127412   2.340   2.458   7.498
 1951TIP3    H227413   2.441   2.413   7.602
 1952TIP3   OH227414   3.515   0.188   8.759
 1952TIP3    H127415   3.489   0.278   8.777
 1952TIP3    H227416   3.601   0.179   0.019
 1953TIP3   OH227417   1.343   6.249   2.315
 1953TIP3    H127418   1.270   6.250   2.253
 1953TIP3    H227419   1.406   6.311   2.279
 1954TIP3   OH227420   5.133   5.744   2.401
 1954TIP3    H127421   5.158   5.693   2.323
 1954TIP3    H227422   5.038   5.755   2.393
 1955TIP3   OH227423   3.119   1.406   1.202
 1955TIP3    H127424   3.055   1.477   1.209
 1955TIP3    H227425   3.089   1.353   1.128
 1956TIP3   OH227426   0.868   3.324   7.625
 1956TIP3    H127427   0.865   3.247   7.567
 1956TIP3    H227428   0.884   3.287   7.712
 1957TIP3   OH227429   3.042   2.700   0.972
 1957TIP3    H127430   2.980   2.724   1.042
 1957TIP3    H227431   3.005   2.620   0.935
 1958TIP3   OH227432   2.559   6.706   1.751
 1958TIP3    H127433   2.519   6.747   1.675
 1958TIP3    H227434   2.533   6.614   1.745
 1959TIP3   OH227435   1.433   1.645   7.065
 1959TIP3    H127436   1.474   1.692   7.138
 1959TIP3    H227437   1.485   1.566   7.055
 1960TIP3   OH227438   2.095   4.897   7.215
 1960TIP3    H127439   2.186   4.866   7.206
 1960TIP3    H227440   2.093   4.980   7.167
 1961TIP3   OH227441   6.620   5.524   1.948
 1961TIP3    H127442   6.544   5.517   2.006
 1961TIP3    H227443   6.692   5.484   1.997
 1962TIP3   OH227444   4.678   1.745   7.994
 1962TIP3    H127445   4.712   1.745   7.904
 1962TIP3    H227446   4.730   1.811   8.039
 1963TIP3   OH227447   4.366   5.453   1.699
 1963TIP3    H127448   4.421   5.426   1.626
 1963TIP3    H227449   4.427   5.495   1.761
 1964TIP3   OH227450   2.168   4.164   0.244
 1964TIP3    H127451   2.249   4.126   0.210
 1964TIP3    H227452   2.102   4.096   0.232
 1965TIP3   OH227453   1.626   3.973   8.719
 1965TIP3    H127454   1.673   3.918   8.657
 1965TIP3    H227455   1.636   3.929   0.022
 1966TIP3   OH227456   1.621   3.641   0.197
 1966TIP3    H127457   1.623   3.721   0.251
 1966TIP3    H227458   1.711   3.610   0.196
 1967TIP3   OH227459   3.971   3.872   7.566
 1967TIP3    H127460   3.957   3.916   7.650
 1967TIP3    H227461   4.066   3.877   7.552
 1968TIP3   OH227462   3.662   5.826   8.204
 1968TIP3    H127463   3.584   5.875   8.232
 1968TIP3    H227464   3.627   5.744   8.169
 1969TIP3   OH227465   3.009   1.538   6.754
 1969TIP3    H127466   3.074   1.499   6.696
 1969TIP3    H227467   2.937   1.475   6.757
 1970TIP3   OH227468   6.042   6.073   8.172
 1970TIP3    H127469   5.978   6.066   8.101
 1970TIP3    H227470   6.047   6.167   8.190
 1971TIP3   OH227471   6.275   4.755   0.741
 1971TIP3    H127472   6.235   4.671   0.717
 1971TIP3    H227473   6.283   4.751   0.836
 1972TIP3   OH227474   1.453   1.679   0.488
 1972TIP3    H127475   1.496   1.670   0.404
 1972TIP3    H227476   1.477   1.767   0.518
 1973TIP3   OH227477   4.410   6.467   2.106
 1973TIP3    H127478   4.326   6.440   2.144
 1973TIP3    H227479   4.393   6.556   2.073
 1974TIP3   OH227480   4.887   2.387   0.572
 1974TIP3    H127481   4.809   2.440   0.556
 1974TIP3    H227482   4.879   2.314   0.510
 1975TIP3   OH227483   3.244   1.104   1.928
 1975TIP3    H127484   3.241   1.094   2.023
 1975TIP3    H227485   3.187   1.035   1.895
 1976TIP3   OH227486   3.947   3.174   7.459
 1976TIP3    H127487   3.980   3.260   7.434
 1976TIP3    H227488   3.923   3.132   7.376
 1977TIP3   OH227489   6.230   6.362   6.800
 1977TIP3    H127490   6.314   6.406   6.795
 1977TIP3    H227491   6.166   6.432   6.811
 1978TIP3   OH227492   2.614   4.412   0.656
 1978TIP3    H127493   2.697   4.373   0.685
 1978TIP3    H227494   2.548   4.374   0.715
 1979TIP3   OH227495   5.184   4.095   8.312
 1979TIP3    H127496   5.201   4.051   8.395
 1979TIP3    H227497   5.268   4.133   8.288
 1980TIP3   OH227498   1.513   5.003   8.585
 1980TIP3    H127499   1.529   4.918   8.544
 1980TIP3    H227500   1.589   5.055   8.562
 1981TIP3   OH227501   3.111   0.106   7.539
 1981TIP3    H127502   3.052   0.030   7.532
 1981TIP3    H227503   3.162   0.104   7.458
 1982TIP3   OH227504   2.873   1.835   0.137
 1982TIP3    H127505   2.880   1.903   0.204
 1982TIP3    H227506   2.960   1.796   0.134
 1983TIP3   OH227507   3.119   5.177   0.508
 1983TIP3    H127508   3.126   5.084   0.486
 1983TIP3    H227509   3.159   5.221   0.434
 1984TIP3   OH227510   5.933   1.120   1.237
 1984TIP3    H127511   5.844   1.124   1.201
 1984TIP3    H227512   5.989   1.103   1.161
 1985TIP3   OH227513   5.524   6.259   8.498
 1985TIP3    H127514   5.470   6.237   8.422
 1985TIP3    H227515   5.614   6.242   8.469
 1986TIP3   OH227516   6.398   3.652   1.938
 1986TIP3    H127517   6.330   3.618   1.880
 1986TIP3    H227518   6.445   3.716   1.884
 1987TIP3   OH227519   0.222   4.205   7.742
 1987TIP3    H127520   0.273   4.266   7.689
 1987TIP3    H227521   0.167   4.159   7.678
 1988TIP3   OH227522   3.495   1.854   1.833
 1988TIP3    H127523   3.588   1.837   1.823
 1988TIP3    H227524   3.490   1.932   1.888
 1989TIP3   OH227525   5.588   2.396   7.474
 1989TIP3    H127526   5.648   2.370   7.544
 1989TIP3    H227527   5.645   2.421   7.401
 1990TIP3   OH227528   3.396   2.582   8.604
 1990TIP3    H127529   3.397   2.546   8.693
 1990TIP3    H227530   3.414   2.506   8.547
 1991TIP3   OH227531   2.039   0.856   1.371
 1991TIP3    H127532   2.023   0.871   1.278
 1991TIP3    H227533   2.087   0.773   1.374
 1992TIP3   OH227534   5.096   0.233   1.957
 1992TIP3    H127535   5.083   0.162   2.020
 1992TIP3    H227536   5.103   0.312   2.010
 1993TIP3   OH227537   2.272   2.801   7.845
 1993TIP3    H127538   2.341   2.761   7.792
 1993TIP3    H227539   2.247   2.880   7.796
 1994TIP3   OH227540   5.223   4.315   0.780
 1994TIP3    H127541   5.201   4.249   0.845
 1994TIP3    H227542   5.279   4.377   0.826
 1995TIP3   OH227543   5.549   1.832   8.144
 1995TIP3    H127544   5.634   1.866   8.115
 1995TIP3    H227545   5.507   1.906   8.187
 1996TIP3   OH227546   4.729   1.086   2.440
 1996TIP3    H127547   4.681   1.135   2.507
 1996TIP3    H227548   4.787   1.151   2.400
 1997TIP3   OH227549   6.324   1.844   8.295
 1997TIP3    H127550   6.267   1.790   8.349
 1997TIP3    H227551   6.381   1.781   8.250
 1998TIP3   OH227552   5.135   5.795   8.632
 1998TIP3    H127553   5.055   5.837   8.663
 1998TIP3    H227554   5.147   5.830   8.543
 1999TIP3   OH227555   5.164   0.029   8.073
 1999TIP3    H127556   5.078   0.071   8.070
 1999TIP3    H227557   5.145   6.765   8.104
 2000TIP3   OH227558   2.438   2.675   1.107
 2000TIP3    H127559   2.447   2.666   1.202
 2000TIP3    H227560   2.516   2.631   1.071
 2001TIP3   OH227561   3.396   6.008   0.599
 2001TIP3    H127562   3.357   5.927   0.567
 2001TIP3    H227563   3.391   6.068   0.524
 2002TIP3   OH227564   5.712   0.999   0.564
 2002TIP3    H127565   5.677   1.020   0.651
 2002TIP3    H227566   5.730   0.905   0.567
 2003TIP3   OH227567   5.298   3.099   8.448
 2003TIP3    H127568   5.359   3.080   8.519
 2003TIP3    H227569   5.353   3.129   8.376
 2004TIP3   OH227570   0.565   0.911   7.487
 2004TIP3    H127571   0.560   0.983   7.550
 2004TIP3    H227572   0.481   0.866   7.495
 2005TIP3   OH227573   5.603   5.811   8.273
 2005TIP3    H127574   5.522   5.785   8.229
 2005TIP3    H227575   5.644   5.872   8.212
 2006TIP3   OH227576   5.080   0.603   2.117
 2006TIP3    H127577   5.103   0.672   2.180
 2006TIP3    H227578   5.142   0.532   2.136
 2007TIP3   OH227579   1.443   0.930   0.316
 2007TIP3    H127580   1.432   0.887   0.401
 2007TIP3    H227581   1.371   0.992   0.312
 2008TIP3   OH227582   4.944   6.738   7.342
 2008TIP3    H127583   5.007   6.691   7.288
 2008TIP3    H227584   4.986   6.823   7.359
 2009TIP3   OH227585   6.161   2.564   1.034
 2009TIP3    H127586   6.180   2.651   1.070
 2009TIP3    H227587   6.182   2.504   1.106
 2010TIP3   OH227588   5.621   4.708   1.693
 2010TIP3    H127589   5.581   4.791   1.718
 2010TIP3    H227590   5.636   4.663   1.776
 2011TIP3   OH227591   1.855   2.401   8.148
 2011TIP3    H127592   1.850   2.353   8.231
 2011TIP3    H227593   1.949   2.408   8.131
 2012TIP3   OH227594   2.002   1.323   1.222
 2012TIP3    H127595   2.014   1.417   1.218
 2012TIP3    H227596   2.085   1.289   1.255
 2013TIP3   OH227597   1.023   5.598   1.212
 2013TIP3    H127598   1.111   5.591   1.248
 2013TIP3    H227599   0.994   5.686   1.234
 2014TIP3   OH227600   1.900   0.823   8.166
 2014TIP3    H127601   1.836   0.890   8.189
 2014TIP3    H227602   1.867   0.744   8.208
 2015TIP3   OH227603   0.639   3.857   0.582
 2015TIP3    H127604   0.557   3.903   0.598
 2015TIP3    H227605   0.619   3.796   0.510
 2016TIP3   OH227606   5.547   5.762   2.248
 2016TIP3    H127607   5.573   5.675   2.276
 2016TIP3    H227608   5.624   5.797   2.203
 2017TIP3   OH227609   5.091   6.046   1.231
 2017TIP3    H127610   5.070   6.050   1.138
 2017TIP3    H227611   5.007   6.031   1.274
 2018TIP3   OH227612   1.708   4.939   1.327
 2018TIP3    H127613   1.706   4.875   1.398
 2018TIP3    H227614   1.793   4.924   1.284
 2019TIP3   OH227615   4.831   6.346   7.134
 2019TIP3    H127616   4.877   6.362   7.216
 2019TIP3    H227617   4.808   6.433   7.102
 2020TIP3   OH227618   0.189   6.229   7.657
 2020TIP3    H127619   0.270   6.200   7.614
 2020TIP3    H227620   0.212   6.314   7.695
 2021TIP3   OH227621   2.695   3.479   8.743
 2021TIP3    H127622   2.603   3.466   8.718
 2021TIP3    H227623   2.732   3.530   8.671
 2022TIP3   OH227624   4.949   3.167   2.446
 2022TIP3    H127625   4.928   3.074   2.449
 2022TIP3    H227626   4.904   3.205   2.522
 2023TIP3   OH227627   1.421   5.834   7.862
 2023TIP3    H127628   1.470   5.783   7.926
 2023TIP3    H227629   1.451   5.924   7.874
 2024TIP3   OH227630   0.482   3.761   0.862
 2024TIP3    H127631   0.563   3.749   0.912
 2024TIP3    H227632   0.475   3.856   0.851
 2025TIP3   OH227633   0.733   5.663   7.403
 2025TIP3    H127634   0.699   5.647   7.491
 2025TIP3    H227635   0.765   5.578   7.374
 2026TIP3   OH227636   1.858   3.768   7.264
 2026TIP3    H127637   1.770   3.789   7.233
 2026TIP3    H227638   1.857   3.793   7.356
 2027TIP3   OH227639   0.053   5.956   0.600
 2027TIP3    H127640   0.003   5.875   0.595
 2027TIP3    H227641   0.101   5.950   0.683
 2028TIP3   OH227642   5.937   3.536   0.933
 2028TIP3    H127643   5.985   3.616   0.911
 2028TIP3    H227644   5.845   3.564   0.938
 2029TIP3   OH227645   2.696   0.923   0.985
 2029TIP3    H127646   2.656   0.924   0.898
 2029TIP3    H227647   2.680   0.835   1.019
 2030TIP3   OH227648   6.368   1.969   6.618
 2030TIP3    H127649   6.434   1.990   6.552
 2030TIP3    H227650   6.305   2.041   6.611
 2031TIP3   OH227651   2.339   4.108   7.567
 2031TIP3    H127652   2.361   4.154   7.486
 2031TIP3    H227653   2.424   4.085   7.605
 2032TIP3   OH227654   5.990   0.750   0.707
 2032TIP3    H127655   5.943   0.758   0.624
 2032TIP3    H227656   6.054   0.680   0.692
 2033TIP3   OH227657   3.330   3.781   8.574
 2033TIP3    H127658   3.348   3.706   8.630
 2033TIP3    H227659   3.406   3.786   8.516
 2034TIP3   OH227660   2.331   5.894   8.326
 2034TIP3    H127661   2.291   5.939   8.252
 2034TIP3    H227662   2.338   5.962   8.394
 2035TIP3   OH227663   0.263   3.032   8.230
 2035TIP3    H127664   0.242   2.942   8.202
 2035TIP3    H227665   0.227   3.087   8.161
 2036TIP3   OH227666   6.498   0.889   7.214
 2036TIP3    H127667   6.543   0.832   7.152
 2036TIP3    H227668   6.524   0.977   7.189
 2037TIP3   OH227669   3.985   2.350   7.783
 2037TIP3    H127670   4.035   2.292   7.725
 2037TIP3    H227671   3.956   2.294   7.854
 2038TIP3   OH227672   4.937   6.335   7.396
 2038TIP3    H127673   4.905   6.259   7.445
 2038TIP3    H227674   4.917   6.409   7.453
 2039TIP3   OH227675   2.391   0.364   2.573
 2039TIP3    H127676   2.352   0.369   2.486
 2039TIP3    H227677   2.413   0.272   2.584
 2040TIP3   OH227678   2.994   4.656   7.379
 2040TIP3    H127679   3.014   4.701   7.461
 2040TIP3    H227680   3.074   4.609   7.356
 2041TIP3   OH227681   6.366   4.869   0.413
 2041TIP3    H127682   6.313   4.948   0.403
 2041TIP3    H227683   6.315   4.801   0.369
 2042TIP3   OH227684   3.146   4.197   0.293
 2042TIP3    H127685   3.202   4.258   0.341
 2042TIP3    H227686   3.060   4.238   0.294
 2043TIP3   OH227687   1.788   5.282   0.022
 2043TIP3    H127688   1.800   5.203   8.751
 2043TIP3    H227689   1.752   5.250   0.106
 2044TIP3   OH227690   1.260   0.968   7.149
 2044TIP3    H127691   1.301   1.050   7.120
 2044TIP3    H227692   1.284   0.960   7.241
 2045TIP3   OH227693   6.317   2.051   2.030
 2045TIP3    H127694   6.407   2.044   2.062
 2045TIP3    H227695   6.273   2.107   2.093
 2046TIP3   OH227696   4.164   2.233   7.617
 2046TIP3    H127697   4.214   2.151   7.619
 2046TIP3    H227698   4.190   2.275   7.535
 2047TIP3   OH227699   0.940   5.848   8.368
 2047TIP3    H127700   0.930   5.880   8.278
 2047TIP3    H227701   0.914   5.922   8.423
 2048TIP3   OH227702   1.273   5.676   8.177
 2048TIP3    H127703   1.216   5.681   8.254
 2048TIP3    H227704   1.257   5.589   8.141
 2049TIP3   OH227705   1.102   2.212   0.325
 2049TIP3    H127706   1.130   2.259   0.403
 2049TIP3    H227707   1.033   2.267   0.288
 2050TIP3   OH227708   5.171   2.416   1.248
 2050TIP3    H127709   5.143   2.494   1.296
 2050TIP3    H227710   5.145   2.433   1.158
 2051TIP3   OH227711   3.710   5.216   6.834
 2051TIP3    H127712   3.677   5.148   6.776
 2051TIP3    H227713   3.672   5.297   6.800
 2052TIP3   OH227714   0.889   5.199   2.494
 2052TIP3    H127715   0.801   5.174   2.522
 2052TIP3    H227716   0.875   5.275   2.437
 2053TIP3   OH227717   5.381   1.995   8.274
 2053TIP3    H127718   5.291   1.964   8.286
 2053TIP3    H227719   5.395   2.058   8.345
 2054TIP3   OH227720   4.462   4.420   8.688
 2054TIP3    H127721   4.541   4.413   8.740
 2054TIP3    H227722   4.444   4.514   8.685
 2055TIP3   OH227723   5.367   0.857   7.772
 2055TIP3    H127724   5.340   0.866   7.864
 2055TIP3    H227725   5.352   0.944   7.735
 2056TIP3   OH227726   1.800   2.445   7.119
 2056TIP3    H127727   1.876   2.399   7.153
 2056TIP3    H227728   1.821   2.461   7.027
 2057TIP3   OH227729   3.015   2.929   1.725
 2057TIP3    H127730   2.995   2.847   1.680
 2057TIP3    H227731   3.109   2.925   1.741
 2058TIP3   OH227732   1.367   4.718   8.398
 2058TIP3    H127733   1.340   4.674   8.479
 2058TIP3    H227734   1.289   4.763   8.368
 2059TIP3   OH227735   4.252   6.449   7.471
 2059TIP3    H127736   4.315   6.382   7.497
 2059TIP3    H227737   4.305   6.519   7.432
 2060TIP3   OH227738   0.248   2.376   6.295
 2060TIP3    H127739   0.176   2.435   6.272
 2060TIP3    H227740   0.294   2.422   6.365
 2061TIP3   OH227741   1.927   0.593   0.545
 2061TIP3    H127742   2.001   0.606   0.605
 2061TIP3    H227743   1.858   0.558   0.601
 2062TIP3   OH227744   4.376   6.647   8.436
 2062TIP3    H127745   4.338   6.569   8.475
 2062TIP3    H227746   4.428   6.687   8.506
 2063TIP3   OH227747   2.444   1.368   7.355
 2063TIP3    H127748   2.513   1.425   7.320
 2063TIP3    H227749   2.423   1.310   7.282
 2064TIP3   OH227750   1.463   2.675   0.773
 2064TIP3    H127751   1.434   2.766   0.760
 2064TIP3    H227752   1.383   2.628   0.800
 2065TIP3   OH227753   6.253   3.992   6.939
 2065TIP3    H127754   6.285   3.915   6.986
 2065TIP3    H227755   6.211   3.958   6.861
 2066TIP3   OH227756   2.114   6.105   0.380
 2066TIP3    H127757   2.146   6.071   0.463
 2066TIP3    H227758   2.020   6.119   0.394
 2067TIP3   OH227759   1.257   2.249   7.767
 2067TIP3    H127760   1.193   2.306   7.726
 2067TIP3    H227761   1.331   2.249   7.706
 2068TIP3   OH227762   4.516   5.030   7.588
 2068TIP3    H127763   4.590   5.088   7.609
 2068TIP3    H227764   4.534   4.949   7.636
 2069TIP3   OH227765   1.623   1.930   0.819
 2069TIP3    H127766   1.587   1.919   0.731
 2069TIP3    H227767   1.668   2.014   0.817
 2070TIP3   OH227768   1.252   3.557   0.542
 2070TIP3    H127769   1.193   3.583   0.612
 2070TIP3    H227770   1.193   3.531   0.470
 2071TIP3   OH227771   1.502   5.849   1.366
 2071TIP3    H127772   1.570   5.818   1.307
 2071TIP3    H227773   1.537   5.930   1.403
 2072TIP3   OH227774   5.867   5.285   7.821
 2072TIP3    H127775   5.935   5.348   7.798
 2072TIP3    H227776   5.788   5.338   7.833
 2073TIP3   OH227777   5.998   2.605   1.907
 2073TIP3    H127778   5.917   2.632   1.951
 2073TIP3    H227779   6.061   2.591   1.978
 2074TIP3   OH227780   0.425   4.329   0.283
 2074TIP3    H127781   0.350   4.296   0.331
 2074TIP3    H227782   0.408   4.305   0.192
 2075TIP3   OH227783   0.172   6.582   8.616
 2075TIP3    H127784   0.101   6.549   8.671
 2075TIP3    H227785   0.206   6.658   8.663
 2076TIP3   OH227786   3.917   6.746   8.351
 2076TIP3    H127787   3.910   6.739   8.446
 2076TIP3    H227788   3.826   6.753   8.321
 2077TIP3   OH227789   4.963   3.623   2.657
 2077TIP3    H127790   4.980   3.715   2.637
 2077TIP3    H227791   5.003   3.575   2.585
 2078TIP3   OH227792   4.501   5.779   7.283
 2078TIP3    H127793   4.479   5.867   7.313
 2078TIP3    H227794   4.594   5.784   7.261
 2079TIP3   OH227795   0.964   2.957   0.213
 2079TIP3    H127796   1.016   2.931   0.137
 2079TIP3    H227797   1.018   2.936   0.288
 2080TIP3   OH227798   1.388   4.847   6.964
 2080TIP3    H127799   1.298   4.848   6.929
 2080TIP3    H227800   1.425   4.765   6.930
 2081TIP3   OH227801   3.260   3.130   2.023
 2081TIP3    H127802   3.297   3.105   1.939
 2081TIP3    H227803   3.307   3.210   2.048
 2082TIP3   OH227804   5.957   5.371   7.277
 2082TIP3    H127805   5.882   5.363   7.337
 2082TIP3    H227806   5.917   5.381   7.190
 2083TIP3   OH227807   4.464   6.252   2.738
 2083TIP3    H127808   4.463   6.160   2.765
 2083TIP3    H227809   4.392   6.292   2.787
 2084TIP3   OH227810   4.581   1.647   0.135
 2084TIP3    H127811   4.557   1.739   0.130
 2084TIP3    H227812   4.500   1.602   0.158
 2085TIP3   OH227813   1.767   6.821   8.112
 2085TIP3    H127814   1.753   0.017   8.204
 2085TIP3    H227815   1.718   0.063   8.064
 2086TIP3   OH227816   4.454   3.227   1.760
 2086TIP3    H127817   4.423   3.281   1.834
 2086TIP3    H227818   4.488   3.148   1.801
 2087TIP3   OH227819   3.621   1.639   0.722
 2087TIP3    H127820   3.556   1.634   0.792
 2087TIP3    H227821   3.587   1.581   0.654
 2088TIP3   OH227822   5.086   6.710   0.336
 2088TIP3    H127823   5.126   6.651   0.401
 2088TIP3    H227824   5.121   6.680   0.252
 2089TIP3   OH227825   4.034   2.250   7.150
 2089TIP3    H127826   4.023   2.160   7.118
 2089TIP3    H227827   4.098   2.288   7.089
 2090TIP3   OH227828   5.682   2.925   8.767
 2090TIP3    H127829   5.647   2.919   0.075
 2090TIP3    H227830   5.682   2.835   8.735
 2091TIP3   OH227831   5.132   1.124   8.099
 2091TIP3    H127832   5.134   1.154   8.008
 2091TIP3    H227833   5.188   1.186   8.146
 2092TIP3   OH227834   5.214   5.003   8.205
 2092TIP3    H127835   5.255   4.949   8.137
 2092TIP3    H227836   5.243   4.964   8.287
 2093TIP3   OH227837   3.860   2.692   7.361
 2093TIP3    H127838   3.811   2.676   7.442
 2093TIP3    H227839   3.871   2.606   7.322
 2094TIP3   OH227840   3.074   0.636   1.354
 2094TIP3    H127841   2.986   0.614   1.383
 2094TIP3    H227842   3.089   0.579   1.279
 2095TIP3   OH227843   1.917   0.318   0.997
 2095TIP3    H127844   1.958   0.401   0.974
 2095TIP3    H227845   1.915   0.316   1.092
 2096TIP3   OH227846   6.247   0.539   8.023
 2096TIP3    H127847   6.225   0.497   7.940
 2096TIP3    H227848   6.165   0.536   8.073
 2097TIP3   OH227849   2.832   4.237   0.194
 2097TIP3    H127850   2.750   4.283   0.178
 2097TIP3    H227851   2.889   4.264   0.122
 2098TIP3   OH227852   0.136   1.724   1.414
 2098TIP3    H127853   0.231   1.720   1.425
 2098TIP3    H227854   0.114   1.815   1.432
 2099TIP3   OH227855   4.050   2.002   7.021
 2099TIP3    H127856   4.091   2.049   6.948
 2099TIP3    H227857   4.041   1.912   6.988
 2100TIP3   OH227858   0.205   2.765   6.332
 2100TIP3    H127859   0.186   2.831   6.399
 2100TIP3    H227860   0.291   2.789   6.299
 2101TIP3   OH227861   0.620   3.107   8.578
 2101TIP3    H127862   0.595   3.199   8.571
 2101TIP3    H227863   0.686   3.105   8.647
 2102TIP3   OH227864   2.680   3.359   8.273
 2102TIP3    H127865   2.714   3.298   8.207
 2102TIP3    H227866   2.676   3.443   8.228
 2103TIP3   OH227867   0.234   4.665   1.704
 2103TIP3    H127868   0.145   4.695   1.726
 2103TIP3    H227869   0.236   4.669   1.608
 2104TIP3   OH227870   4.059   0.165   6.881
 2104TIP3    H127871   4.033   0.183   6.791
 2104TIP3    H227872   4.034   0.074   6.895
 2105TIP3   OH227873   1.352   5.991   2.157
 2105TIP3    H127874   1.256   5.997   2.161
 2105TIP3    H227875   1.369   5.903   2.124
 2106TIP3   OH227876   6.109   6.281   8.359
 2106TIP3    H127877   6.142   6.288   8.449
 2106TIP3    H227878   6.172   6.328   8.306
 2107TIP3   OH227879   3.633   2.690   0.827
 2107TIP3    H127880   3.543   2.657   0.829
 2107TIP3    H227881   3.686   2.614   0.805
 2108TIP3   OH227882   4.390   1.303   7.721
 2108TIP3    H127883   4.442   1.278   7.797
 2108TIP3    H227884   4.452   1.301   7.648
 2109TIP3   OH227885   3.683   4.195   0.801
 2109TIP3    H127886   3.693   4.117   0.746
 2109TIP3    H227887   3.747   4.257   0.766
 2110TIP3   OH227888   3.726   2.088   2.215
 2110TIP3    H127889   3.794   2.148   2.244
 2110TIP3    H227890   3.734   2.013   2.273
 2111TIP3   OH227891   5.221   4.324   6.566
 2111TIP3    H127892   5.301   4.374   6.550
 2111TIP3    H227893   5.238   4.238   6.526
 2112TIP3   OH227894   2.544   0.635   2.571
 2112TIP3    H127895   2.497   0.551   2.570
 2112TIP3    H227896   2.476   0.701   2.584
 2113TIP3   OH227897   3.980   5.506   7.269
 2113TIP3    H127898   4.064   5.507   7.314
 2113TIP3    H227899   3.941   5.422   7.293
 2114TIP3   OH227900   3.571   0.498   8.592
 2114TIP3    H127901   3.575   0.437   8.519
 2114TIP3    H227902   3.662   0.510   8.619
 2115TIP3   OH227903   0.745   0.089   1.504
 2115TIP3    H127904   0.791   0.107   1.422
 2115TIP3    H227905   0.710   0.000   1.493
 2116TIP3   OH227906   1.728   5.716   7.605
 2116TIP3    H127907   1.754   5.624   7.595
 2116TIP3    H227908   1.741   5.734   7.698
 2117TIP3   OH227909   3.105   1.042   7.946
 2117TIP3    H127910   3.161   1.104   7.899
 2117TIP3    H227911   3.053   1.097   8.004
 2118TIP3   OH227912   2.986   2.340   1.840
 2118TIP3    H127913   3.072   2.383   1.842
 2118TIP3    H227914   2.977   2.309   1.749
 2119TIP3   OH227915   1.011   3.633   8.438
 2119TIP3    H127916   1.063   3.657   8.514
 2119TIP3    H227917   0.956   3.710   8.421
 2120TIP3   OH227918   4.155   5.609   0.420
 2120TIP3    H127919   4.074   5.655   0.439
 2120TIP3    H227920   4.134   5.516   0.434
 2121TIP3   OH227921   0.654   6.655   7.439
 2121TIP3    H127922   0.650   6.664   7.535
 2121TIP3    H227923   0.714   6.725   7.412
 2122TIP3   OH227924   2.103   1.523   0.189
 2122TIP3    H127925   2.062   1.440   0.213
 2122TIP3    H227926   2.195   1.513   0.214
 2123TIP3   OH227927   0.199   6.582   1.355
 2123TIP3    H127928   0.261   6.531   1.407
 2123TIP3    H227929   0.255   6.637   1.300
 2124TIP3   OH227930   2.924   4.312   8.129
 2124TIP3    H127931   2.870   4.264   8.066
 2124TIP3    H227932   2.910   4.404   8.107
 2125TIP3   OH227933   1.874   3.159   1.370
 2125TIP3    H127934   1.891   3.211   1.449
 2125TIP3    H227935   1.921   3.077   1.385
 2126TIP3   OH227936   1.947   1.240   7.303
 2126TIP3    H127937   1.872   1.291   7.273
 2126TIP3    H227938   1.971   1.184   7.230
 2127TIP3   OH227939   3.134   1.737   0.153
 2127TIP3    H127940   3.192   1.763   0.081
 2127TIP3    H227941   3.181   1.667   0.197
 2128TIP3   OH227942   0.884   6.106   7.069
 2128TIP3    H127943   0.803   6.062   7.043
 2128TIP3    H227944   0.855   6.186   7.112
 2129TIP3   OH227945   5.970   1.063   8.069
 2129TIP3    H127946   5.952   1.016   7.988
 2129TIP3    H227947   5.903   1.130   8.074
 2130TIP3   OH227948   5.251   2.878   1.120
 2130TIP3    H127949   5.201   2.850   1.043
 2130TIP3    H227950   5.335   2.832   1.112
 2131TIP3   OH227951   5.439   0.302   7.037
 2131TIP3    H127952   5.366   0.329   6.981
 2131TIP3    H227953   5.459   0.213   7.009
 2132TIP3   OH227954   0.693   0.423   1.728
 2132TIP3    H127955   0.673   0.329   1.728
 2132TIP3    H227956   0.717   0.443   1.818
 2133TIP3   OH227957   2.675   0.055   1.390
 2133TIP3    H127958   2.583   0.068   1.366
 2133TIP3    H227959   2.690   6.787   1.380
 2134TIP3   OH227960   4.638   1.190   8.169
 2134TIP3    H127961   4.632   1.177   8.074
 2134TIP3    H227962   4.638   1.285   8.180
 2135TIP3   OH227963   3.390   6.372   7.510
 2135TIP3    H127964   3.360   6.413   7.591
 2135TIP3    H227965   3.482   6.397   7.504
 2136TIP3   OH227966   5.909   4.263   7.556
 2136TIP3    H127967   5.851   4.318   7.609
 2136TIP3    H227968   5.938   4.194   7.615
 2137TIP3   OH227969   4.736   3.439   1.664
 2137TIP3    H127970   4.823   3.404   1.646
 2137TIP3    H227971   4.682   3.409   1.591
 2138TIP3   OH227972   5.346   5.149   7.548
 2138TIP3    H127973   5.288   5.147   7.624
 2138TIP3    H227974   5.352   5.242   7.526
 2139TIP3   OH227975   2.829   0.879   1.306
 2139TIP3    H127976   2.853   0.970   1.292
 2139TIP3    H227977   2.883   0.831   1.243
 2140TIP3   OH227978   2.984   4.810   7.077
 2140TIP3    H127979   3.048   4.739   7.085
 2140TIP3    H227980   2.957   4.829   7.167
 2141TIP3   OH227981   1.532   1.946   0.531
 2141TIP3    H127982   1.492   2.033   0.521
 2141TIP3    H227983   1.619   1.955   0.492
 2142TIP3   OH227984   2.016   2.182   8.733
 2142TIP3    H127985   2.074   2.120   8.778
 2142TIP3    H227986   2.038   2.267   8.770
 2143TIP3   OH227987   0.944   4.676   7.899
 2143TIP3    H127988   0.869   4.629   7.863
 2143TIP3    H227989   1.015   4.659   7.837
 2144TIP3   OH227990   3.106   6.447   0.847
 2144TIP3    H127991   3.046   6.398   0.791
 2144TIP3    H227992   3.188   6.452   0.797
 2145TIP3   OH227993   6.782   6.678   0.444
 2145TIP3    H127994   0.037   6.675   0.391
 2145TIP3    H227995   6.779   6.768   0.477
 2146TIP3   OH227996   2.016   6.557   1.795
 2146TIP3    H127997   2.062   6.561   1.879
 2146TIP3    H227998   2.078   6.515   1.735
 2147TIP3   OH227999   1.911   5.648   6.706
 2147TIP3    H128000   1.885   5.575   6.761
 2147TIP3    H228001   2.004   5.632   6.686
 2148TIP3   OH228002   1.297   4.396   0.867
 2148TIP3    H128003   1.207   4.361   0.869
 2148TIP3    H228004   1.342   4.344   0.800
 2149TIP3   OH228005   5.697   4.593   0.040
 2149TIP3    H128006   5.656   4.639   0.114
 2149TIP3    H228007   5.623   4.570   8.764
 2150TIP3   OH228008   6.098   6.280   1.050
 2150TIP3    H128009   6.190   6.305   1.046
 2150TIP3    H228010   6.093   6.219   1.123
 2151TIP3   OH228011   1.790   4.821   8.701
 2151TIP3    H128012   1.782   4.734   8.739
 2151TIP3    H228013   1.731   4.819   8.625
 2152TIP3   OH228014   6.765   0.504   1.267
 2152TIP3    H128015   0.015   0.538   1.218
 2152TIP3    H228016   6.786   0.520   1.359
 2153TIP3   OH228017   0.392   4.912   0.476
 2153TIP3    H128018   0.355   4.835   0.518
 2153TIP3    H228019   0.478   4.884   0.445
 2154TIP3   OH228020   2.118   4.621   2.352
 2154TIP3    H128021   2.177   4.695   2.362
 2154TIP3    H228022   2.052   4.651   2.289
 2155TIP3   OH228023   5.053   1.378   6.804
 2155TIP3    H128024   4.959   1.388   6.818
 2155TIP3    H228025   5.087   1.467   6.798
 2156TIP3   OH228026   2.842   4.684   0.470
 2156TIP3    H128027   2.849   4.672   0.376
 2156TIP3    H228028   2.753   4.657   0.492
 2157TIP3   OH228029   3.486   0.925   6.707
 2157TIP3    H128030   3.565   0.878   6.681
 2157TIP3    H228031   3.518   0.994   6.766
 2158TIP3   OH228032   2.739   5.027   0.479
 2158TIP3    H128033   2.728   4.973   0.402
 2158TIP3    H228034   2.818   5.079   0.462
 2159TIP3   OH228035   1.590   0.136   7.933
 2159TIP3    H128036   1.529   0.181   7.992
 2159TIP3    H228037   1.622   0.205   7.875
 2160TIP3   OH228038   4.249   5.112   0.631
 2160TIP3    H128039   4.334   5.145   0.603
 2160TIP3    H228040   4.267   5.069   0.714
 2161TIP3   OH228041   1.781   0.239   0.268
 2161TIP3    H128042   1.691   0.208   0.266
 2161TIP3    H228043   1.774   0.331   0.293
 2162TIP3   OH228044   2.774   5.069   0.742
 2162TIP3    H128045   2.857   5.101   0.706
 2162TIP3    H228046   2.728   5.031   0.667
 2163TIP3   OH228047   6.362   1.771   7.875
 2163TIP3    H128048   6.430   1.779   7.808
 2163TIP3    H228049   6.410   1.767   7.958
 2164TIP3   OH228050   6.534   5.342   8.631
 2164TIP3    H128051   6.550   5.249   8.647
 2164TIP3    H228052   6.460   5.364   8.688
 2165TIP3   OH228053   3.613   0.077   7.420
 2165TIP3    H128054   3.603   0.172   7.432
 2165TIP3    H228055   3.707   0.062   7.434
 2166TIP3   OH228056   1.773   1.056   7.942
 2166TIP3    H128057   1.728   1.001   7.878
 2166TIP3    H228058   1.850   1.088   7.896
 2167TIP3   OH228059   1.303   5.107   6.415
 2167TIP3    H128060   1.291   5.017   6.385
 2167TIP3    H228061   1.215   5.134   6.444
 2168TIP3   OH228062   3.822   3.225   7.161
 2168TIP3    H128063   3.842   3.139   7.199
 2168TIP3    H228064   3.731   3.242   7.187
 2169TIP3   OH228065   4.334   4.059   1.796
 2169TIP3    H128066   4.251   4.041   1.840
 2169TIP3    H228067   4.380   4.119   1.855
 2170TIP3   OH228068   1.778   0.510   0.311
 2170TIP3    H128069   1.767   0.588   0.256
 2170TIP3    H228070   1.835   0.540   0.382
 2171TIP3   OH228071   1.774   5.492   0.379
 2171TIP3    H128072   1.832   5.542   0.321
 2171TIP3    H228073   1.831   5.462   0.450
 2172TIP3   OH228074   6.232   4.431   0.783
 2172TIP3    H128075   6.141   4.460   0.784
 2172TIP3    H228076   6.233   4.352   0.836
 2173TIP3   OH228077   1.329   5.628   1.250
 2173TIP3    H128078   1.389   5.555   1.237
 2173TIP3    H228079   1.384   5.697   1.289
 2174TIP3   OH228080   5.308   1.302   8.215
 2174TIP3    H128081   5.368   1.228   8.222
 2174TIP3    H228082   5.364   1.375   8.190
 2175TIP3   OH228083   6.316   3.574   0.176
 2175TIP3    H128084   6.256   3.526   0.119
 2175TIP3    H228085   6.260   3.618   0.239
 2176TIP3   OH228086   3.146   0.089   1.726
 2176TIP3    H128087   3.065   0.084   1.674
 2176TIP3    H228088   3.128   0.156   1.792
 2177TIP3   OH228089   0.801   1.254   0.349
 2177TIP3    H128090   0.765   1.233   0.435
 2177TIP3    H228091   0.843   1.339   0.361
 2178TIP3   OH228092   5.077   1.746   7.321
 2178TIP3    H128093   5.145   1.678   7.325
 2178TIP3    H228094   5.053   1.751   7.229
 2179TIP3   OH228095   1.639   6.183   6.761
 2179TIP3    H128096   1.551   6.213   6.783
 2179TIP3    H228097   1.625   6.109   6.702
 2180TIP3   OH228098   2.943   1.010   0.626
 2180TIP3    H128099   3.035   1.032   0.608
 2180TIP3    H228100   2.910   0.979   0.542
 2181TIP3   OH228101   1.706   1.599   8.446
 2181TIP3    H128102   1.764   1.664   8.487
 2181TIP3    H228103   1.651   1.568   8.518
 2182TIP3   OH228104   3.172   4.426   7.368
 2182TIP3    H128105   3.157   4.358   7.433
 2182TIP3    H228106   3.123   4.397   7.291
 2183TIP3   OH228107   4.531   3.127   6.770
 2183TIP3    H128108   4.533   3.142   6.675
 2183TIP3    H228109   4.440   3.142   6.795
 2184TIP3   OH228110   6.295   5.443   2.039
 2184TIP3    H128111   6.278   5.350   2.056
 2184TIP3    H228112   6.306   5.481   2.126
 2185TIP3   OH228113   1.846   1.559   0.878
 2185TIP3    H128114   1.866   1.649   0.901
 2185TIP3    H228115   1.757   1.546   0.910
 2186TIP3   OH228116   5.454   1.580   0.040
 2186TIP3    H128117   5.360   1.598   0.039
 2186TIP3    H228118   5.477   1.581   0.133
 2187TIP3   OH228119   4.087   0.310   7.131
 2187TIP3    H128120   4.041   0.317   7.047
 2187TIP3    H228121   4.155   0.378   7.126
 2188TIP3   OH228122   6.157   2.529   7.083
 2188TIP3    H128123   6.121   2.550   7.169
 2188TIP3    H228124   6.210   2.605   7.060
 2189TIP3   OH228125   2.380   1.878   0.743
 2189TIP3    H128126   2.318   1.893   0.671
 2189TIP3    H228127   2.389   1.782   0.747
 2190TIP3   OH228128   3.587   6.664   0.974
 2190TIP3    H128129   3.655   6.597   0.976
 2190TIP3    H228130   3.607   6.716   0.896
 2191TIP3   OH228131   4.369   5.451   8.729
 2191TIP3    H128132   4.464   5.454   8.732
 2191TIP3    H228133   4.342   5.542   8.715
 2192TIP3   OH228134   0.742   4.608   7.713
 2192TIP3    H128135   0.658   4.575   7.681
 2192TIP3    H228136   0.756   4.688   7.663
 2193TIP3   OH228137   4.985   1.402   1.915
 2193TIP3    H128138   4.963   1.378   2.005
 2193TIP3    H228139   4.900   1.414   1.872
 2194TIP3   OH228140   4.014   4.389   1.304
 2194TIP3    H128141   4.010   4.302   1.344
 2194TIP3    H228142   4.098   4.391   1.259
 2195TIP3   OH228143   4.180   0.265   1.892
 2195TIP3    H128144   4.269   0.253   1.860
 2195TIP3    H228145   4.186   0.337   1.954
 2196TIP3   OH228146   3.439   4.586   7.148
 2196TIP3    H128147   3.490   4.510   7.175
 2196TIP3    H228148   3.414   4.629   7.230
 2197TIP3   OH228149   5.856   4.988   1.227
 2197TIP3    H128150   5.946   5.003   1.198
 2197TIP3    H228151   5.852   5.026   1.315
 2198TIP3   OH228152   2.780   4.087   8.464
 2198TIP3    H128153   2.805   4.025   8.533
 2198TIP3    H228154   2.816   4.050   8.384
 2199TIP3   OH228155   2.873   2.952   6.896
 2199TIP3    H128156   2.876   2.917   6.807
 2199TIP3    H228157   2.836   3.040   6.886
 2200TIP3   OH228158   3.822   1.365   6.504
 2200TIP3    H128159   3.852   1.300   6.568
 2200TIP3    H228160   3.811   1.315   6.423
 2201TIP3   OH228161   4.612   3.701   0.210
 2201TIP3    H128162   4.670   3.766   0.170
 2201TIP3    H228163   4.618   3.717   0.304
 2202TIP3   OH228164   2.002   4.610   8.210
 2202TIP3    H128165   2.079   4.658   8.240
 2202TIP3    H228166   1.987   4.543   8.277
 2203TIP3   OH228167   6.517   4.808   0.634
 2203TIP3    H128168   6.460   4.810   0.556
 2203TIP3    H228169   6.460   4.775   0.703
 2204TIP3   OH228170   3.444   1.247   2.452
 2204TIP3    H128171   3.472   1.157   2.438
 2204TIP3    H228172   3.376   1.261   2.385
 2205TIP3   OH228173   0.255   5.497   0.175
 2205TIP3    H128174   0.179   5.522   0.227
 2205TIP3    H228175   0.330   5.511   0.233
 2206TIP3   OH228176   0.358   3.734   6.903
 2206TIP3    H128177   0.329   3.779   6.983
 2206TIP3    H228178   0.403   3.656   6.935
 2207TIP3   OH228179   1.907   0.351   8.485
 2207TIP3    H128180   1.889   0.274   8.430
 2207TIP3    H228181   1.992   0.382   8.456
 2208TIP3   OH228182   0.019   4.570   0.864
 2208TIP3    H128183   6.808   4.599   0.948
 2208TIP3    H228184   6.802   4.486   0.848
 2209TIP3   OH228185   3.436   2.708   1.742
 2209TIP3    H128186   3.483   2.674   1.665
 2209TIP3    H228187   3.506   2.732   1.803
 2210TIP3   OH228188   3.459   4.899   7.654
 2210TIP3    H128189   3.391   4.832   7.648
 2210TIP3    H228190   3.452   4.947   7.571
 2211TIP3   OH228191   1.853   2.882   0.797
 2211TIP3    H128192   1.768   2.858   0.834
 2211TIP3    H228193   1.833   2.952   0.734
 2212TIP3   OH228194   4.626   2.609   0.866
 2212TIP3    H128195   4.618   2.683   0.807
 2212TIP3    H228196   4.720   2.588   0.865
 2213TIP3   OH228197   0.563   1.538   0.386
 2213TIP3    H128198   0.594   1.454   0.419
 2213TIP3    H228199   0.640   1.578   0.346
 2214TIP3   OH228200   3.531   0.856   0.536
 2214TIP3    H128201   3.524   0.836   0.442
 2214TIP3    H228202   3.616   0.899   0.545
 2215TIP3   OH228203   5.179   0.980   1.001
 2215TIP3    H128204   5.162   0.896   0.958
 2215TIP3    H228205   5.218   1.035   0.933
 2216TIP3   OH228206   0.541   4.415   7.623
 2216TIP3    H128207   0.521   4.322   7.628
 2216TIP3    H228208   0.563   4.430   7.531
 2217TIP3   OH228209   5.730   0.326   7.381
 2217TIP3    H128210   5.773   0.316   7.296
 2217TIP3    H228211   5.637   0.319   7.361
 2218TIP3   OH228212   6.471   2.998   1.763
 2218TIP3    H128213   6.527   3.073   1.741
 2218TIP3    H228214   6.525   2.943   1.819
 2219TIP3   OH228215   1.614   2.228   1.446
 2219TIP3    H128216   1.591   2.183   1.527
 2219TIP3    H228217   1.686   2.177   1.409
 2220TIP3   OH228218   4.554   0.023   1.391
 2220TIP3    H128219   4.637   0.019   1.344
 2220TIP3    H228220   4.493   6.800   1.334
 2221TIP3   OH228221   0.896   3.306   1.223
 2221TIP3    H128222   0.846   3.378   1.262
 2221TIP3    H228223   0.949   3.347   1.155
 2222TIP3   OH228224   5.769   0.325   8.685
 2222TIP3    H128225   5.836   0.388   8.659
 2222TIP3    H228226   5.692   0.379   8.705
 2223TIP3   OH228227   2.298   4.633   0.345
 2223TIP3    H128228   2.204   4.640   0.364
 2223TIP3    H228229   2.306   4.659   0.253
 2224TIP3   OH228230   4.981   4.898   7.991
 2224TIP3    H128231   5.038   4.936   8.058
 2224TIP3    H228232   4.933   4.829   8.037
 2225TIP3   OH228233   5.001   6.637   7.964
 2225TIP3    H128234   5.017   6.551   7.924
 2225TIP3    H228235   5.002   6.620   8.058
 2226TIP3   OH228236   1.009   0.811   7.377
 2226TIP3    H128237   1.047   0.895   7.351
 2226TIP3    H228238   1.040   0.749   7.311
 2227TIP3   OH228239   0.404   4.178   1.715
 2227TIP3    H128240   0.411   4.262   1.669
 2227TIP3    H228241   0.314   4.176   1.746
 2228TIP3   OH228242   1.389   6.729   6.999
 2228TIP3    H128243   1.342   6.706   6.919
 2228TIP3    H228244   1.423   6.817   6.982
 2229TIP3   OH228245   0.673   5.022   7.915
 2229TIP3    H128246   0.629   4.970   7.848
 2229TIP3    H228247   0.743   4.965   7.947
 2230TIP3   OH228248   2.096   3.243   1.200
 2230TIP3    H128249   2.141   3.226   1.283
 2230TIP3    H228250   2.005   3.218   1.216
 2231TIP3   OH228251   0.717   2.823   1.349
 2231TIP3    H128252   0.653   2.752   1.345
 2231TIP3    H228253   0.800   2.779   1.366
 2232TIP3   OH228254   2.433   3.825   1.490
 2232TIP3    H128255   2.406   3.733   1.485
 2232TIP3    H228256   2.400   3.855   1.575
 2233TIP3   OH228257   3.762   0.934   6.996
 2233TIP3    H128258   3.849   0.931   6.955
 2233TIP3    H228259   3.721   1.012   6.958
 2234TIP3   OH228260   2.478   3.411   1.027
 2234TIP3    H128261   2.549   3.366   1.074
 2234TIP3    H228262   2.471   3.496   1.070
 2235TIP3   OH228263   5.837   6.265   2.043
 2235TIP3    H128264   5.921   6.239   2.082
 2235TIP3    H228265   5.785   6.295   2.118
 2236TIP3   OH228266   5.934   5.143   7.005
 2236TIP3    H128267   6.004   5.156   7.069
 2236TIP3    H228268   5.957   5.061   6.961
 2237TIP3   OH228269   4.229   1.567   7.798
 2237TIP3    H128270   4.200   1.542   7.886
 2237TIP3    H228271   4.277   1.491   7.765
 2238TIP3   OH228272   0.341   3.243   7.263
 2238TIP3    H128273   0.286   3.278   7.193
 2238TIP3    H228274   0.280   3.219   7.332
 2239TIP3   OH228275   6.417   0.225   7.157
 2239TIP3    H128276   6.442   0.317   7.153
 2239TIP3    H228277   6.443   0.190   7.072
 2240TIP3   OH228278   3.958   4.094   8.169
 2240TIP3    H128279   3.997   4.048   8.244
 2240TIP3    H228280   3.866   4.067   8.170
 2241TIP3   OH228281   2.751   4.719   0.805
 2241TIP3    H128282   2.703   4.773   0.867
 2241TIP3    H228283   2.695   4.716   0.727
 2242TIP3   OH228284   6.018   5.319   0.004
 2242TIP3    H128285   6.029   5.240   0.057
 2242TIP3    H228286   6.053   5.295   8.699
 2243TIP3   OH228287   5.529   5.138   8.480
 2243TIP3    H128288   5.534   5.191   8.401
 2243TIP3    H228289   5.574   5.189   8.547
 2244TIP3   OH228290   0.853   1.218   7.259
 2244TIP3    H128291   0.818   1.179   7.178
 2244TIP3    H228292   0.835   1.311   7.251
 2245TIP3   OH228293   3.426   0.047   1.938
 2245TIP3    H128294   3.476   0.075   1.861
 2245TIP3    H228295   3.451   6.781   1.951
 2246TIP3   OH228296   0.593   5.953   8.071
 2246TIP3    H128297   0.557   6.036   8.038
 2246TIP3    H228298   0.687   5.970   8.080
 2247TIP3   OH228299   0.428   3.320   7.708
 2247TIP3    H128300   0.453   3.335   7.617
 2247TIP3    H228301   0.336   3.348   7.712
 2248TIP3   OH228302   2.982   0.375   0.497
 2248TIP3    H128303   2.907   0.362   0.554
 2248TIP3    H228304   2.951   0.346   0.411
 2249TIP3   OH228305   0.365   4.374   1.394
 2249TIP3    H128306   0.307   4.336   1.328
 2249TIP3    H228307   0.418   4.300   1.424
 2250TIP3   OH228308   2.487   0.288   7.660
 2250TIP3    H128309   2.506   0.370   7.705
 2250TIP3    H228310   2.470   0.314   7.569
 2251TIP3   OH228311   2.036   4.168   7.034
 2251TIP3    H128312   2.082   4.115   7.099
 2251TIP3    H228313   1.987   4.233   7.085
 2252TIP3   OH228314   5.765   5.441   6.992
 2252TIP3    H128315   5.778   5.503   6.920
 2252TIP3    H228316   5.747   5.358   6.949
 2253TIP3   OH228317   1.541   5.577   0.247
 2253TIP3    H128318   1.457   5.531   0.256
 2253TIP3    H228319   1.604   5.521   0.292
 2254TIP3   OH228320   0.307   0.068   1.676
 2254TIP3    H128321   0.299   0.124   1.599
 2254TIP3    H228322   0.351   6.814   1.645
 2255TIP3   OH228323   1.058   0.082   7.398
 2255TIP3    H128324   0.965   0.062   7.403
 2255TIP3    H228325   1.071   0.115   7.309
 2256TIP3   OH228326   0.826   1.663   2.268
 2256TIP3    H128327   0.732   1.664   2.249
 2256TIP3    H228328   0.846   1.751   2.298
 2257TIP3   OH228329   0.370   0.402   0.028
 2257TIP3    H128330   0.368   0.380   8.716
 2257TIP3    H228331   0.410   0.326   0.070
 2258TIP3   OH228332   4.237   5.422   6.602
 2258TIP3    H128333   4.156   5.415   6.553
 2258TIP3    H228334   4.266   5.332   6.614
 2259TIP3   OH228335   1.396   5.239   2.370
 2259TIP3    H128336   1.381   5.291   2.291
 2259TIP3    H228337   1.385   5.148   2.341
 2260TIP3   OH228338   5.931   4.626   6.488
 2260TIP3    H128339   5.852   4.577   6.510
 2260TIP3    H228340   5.913   4.664   6.402
 2261TIP3   OH228341   3.497   0.972   8.272
 2261TIP3    H128342   3.418   0.924   8.249
 2261TIP3    H228343   3.565   0.936   8.216
 2262TIP3   OH228344   5.884   1.568   8.376
 2262TIP3    H128345   5.979   1.575   8.384
 2262TIP3    H228346   5.854   1.557   8.466
 2263TIP3   OH228347   4.834   0.364   6.854
 2263TIP3    H128348   4.891   0.304   6.805
 2263TIP3    H228349   4.888   0.442   6.869
 2264TIP3   OH228350   1.550   2.959   7.432
 2264TIP3    H128351   1.599   2.989   7.509
 2264TIP3    H228352   1.615   2.913   7.379
 2265TIP3   OH228353   6.795   2.670   8.608
 2265TIP3    H128354   6.791   2.575   8.619
 2265TIP3    H228355   0.009   2.702   8.690
 2266TIP3   OH228356   1.135   2.592   2.043
 2266TIP3    H128357   1.087   2.659   2.091
 2266TIP3    H228358   1.143   2.519   2.105
 2267TIP3   OH228359   6.803   1.161   0.332
 2267TIP3    H128360   6.808   1.206   0.417
 2267TIP3    H228361   0.035   1.212   0.275
 2268TIP3   OH228362   2.757   5.785   0.283
 2268TIP3    H128363   2.763   5.836   0.202
 2268TIP3    H228364   2.666   5.794   0.311
 2269TIP3   OH228365   5.897   2.974   6.891
 2269TIP3    H128366   5.815   2.928   6.870
 2269TIP3    H228367   5.951   2.908   6.934
 2270TIP3   OH228368   0.294   3.798   2.316
 2270TIP3    H128369   0.362   3.858   2.346
 2270TIP3    H228370   0.298   3.803   2.220
 2271TIP3   OH228371   0.742   1.551   0.126
 2271TIP3    H128372   0.766   1.631   0.078
 2271TIP3    H228373   0.813   1.539   0.189
 2272TIP3   OH228374   5.078   3.457   8.305
 2272TIP3    H128375   5.072   3.471   8.400
 2272TIP3    H228376   5.167   3.485   8.283
 2273TIP3   OH228377   4.166   4.890   7.896
 2273TIP3    H128378   4.103   4.835   7.848
 2273TIP3    H228379   4.182   4.964   7.837
 2274TIP3   OH228380   3.835   5.709   1.689
 2274TIP3    H128381   3.869   5.798   1.676
 2274TIP3    H228382   3.741   5.722   1.706
 2275TIP3   OH228383   4.910   4.884   7.308
 2275TIP3    H128384   4.848   4.817   7.337
 2275TIP3    H228385   4.947   4.850   7.227
 2276TIP3   OH228386   2.458   4.788   8.611
 2276TIP3    H128387   2.512   4.866   8.624
 2276TIP3    H228388   2.422   4.769   8.698
 2277TIP3   OH228389   3.323   4.611   8.690
 2277TIP3    H128390   3.247   4.619   8.633
 2277TIP3    H228391   3.380   4.548   8.645
 2278TIP3   OH228392   3.467   6.763   0.527
 2278TIP3    H128393   3.491   0.014   0.475
 2278TIP3    H228394   3.511   6.776   0.611
 2279TIP3   OH228395   1.692   6.228   0.290
 2279TIP3    H128396   1.602   6.196   0.298
 2279TIP3    H228397   1.685   6.322   0.304
 2280TIP3   OH228398   2.837   0.362   0.793
 2280TIP3    H128399   2.880   0.277   0.788
 2280TIP3    H228400   2.744   0.341   0.805
 2281TIP3   OH228401   6.382   6.303   1.053
 2281TIP3    H128402   6.445   6.310   0.981
 2281TIP3    H228403   6.432   6.265   1.125
 2282TIP3   OH228404   1.096   0.026   6.428
 2282TIP3    H128405   1.168   0.006   6.368
 2282TIP3    H228406   1.048   6.768   6.435
 2283TIP3   OH228407   3.773   2.989   8.692
 2283TIP3    H128408   3.865   2.964   8.684
 2283TIP3    H228409   3.774   3.068   8.745
 2284TIP3   OH228410   0.573   5.960   2.384
 2284TIP3    H128411   0.556   5.881   2.333
 2284TIP3    H228412   0.661   5.988   2.356
 2285TIP3   OH228413   3.172   3.911   7.424
 2285TIP3    H128414   3.153   3.954   7.340
 2285TIP3    H228415   3.241   3.848   7.402
 2286TIP3   OH228416   2.166   3.418   1.010
 2286TIP3    H128417   2.256   3.391   0.991
 2286TIP3    H228418   2.135   3.354   1.075
 2287TIP3   OH228419   2.220   3.457   0.703
 2287TIP3    H128420   2.220   3.523   0.773
 2287TIP3    H228421   2.265   3.500   0.630
 2288TIP3   OH228422   3.315   2.819   0.583
 2288TIP3    H128423   3.250   2.751   0.600
 2288TIP3    H228424   3.267   2.886   0.533
 2289TIP3   OH228425   3.987   2.052   8.052
 2289TIP3    H128426   4.001   2.142   8.079
 2289TIP3    H228427   4.026   1.999   8.122
 2290TIP3   OH228428   5.996   4.040   1.620
 2290TIP3    H128429   5.951   4.116   1.657
 2290TIP3    H228430   6.003   3.979   1.693
 2291TIP3   OH228431   2.438   3.639   1.194
 2291TIP3    H128432   2.405   3.594   1.272
 2291TIP3    H228433   2.427   3.732   1.212
 2292TIP3   OH228434   1.490   2.603   7.377
 2292TIP3    H128435   1.577   2.582   7.411
 2292TIP3    H228436   1.505   2.629   7.286
 2293TIP3   OH228437   4.568   3.433   0.524
 2293TIP3    H128438   4.608   3.489   0.591
 2293TIP3    H228439   4.640   3.377   0.494
 2294TIP3   OH228440   5.184   6.589   6.209
 2294TIP3    H128441   5.118   6.560   6.146
 2294TIP3    H228442   5.249   6.635   6.156
 2295TIP3   OH228443   0.089   1.901   2.116
 2295TIP3    H128444   0.031   1.834   2.080
 2295TIP3    H228445   0.177   1.865   2.104
 2296TIP3   OH228446   4.901   5.161   7.178
 2296TIP3    H128447   4.862   5.248   7.189
 2296TIP3    H228448   4.935   5.139   7.265
 2297TIP3   OH228449   3.716   1.910   8.040
 2297TIP3    H128450   3.679   1.947   7.959
 2297TIP3    H228451   3.799   1.956   8.051
 2298TIP3   OH228452   5.226   6.508   6.829
 2298TIP3    H128453   5.264   6.454   6.898
 2298TIP3    H228454   5.291   6.506   6.759
 2299TIP3   OH228455   4.076   3.393   7.367
 2299TIP3    H128456   4.096   3.411   7.275
 2299TIP3    H228457   4.151   3.342   7.398
 2300TIP3   OH228458   3.306   5.793   1.760
 2300TIP3    H128459   3.223   5.832   1.789
 2300TIP3    H228460   3.283   5.745   1.680
 2301TIP3   OH228461   1.732   5.199   8.511
 2301TIP3    H128462   1.756   5.277   8.460
 2301TIP3    H228463   1.780   5.128   8.470
 2302TIP3   OH228464   3.400   2.162   8.677
 2302TIP3    H128465   3.413   2.104   8.751
 2302TIP3    H228466   3.424   2.249   8.710
 2303TIP3   OH228467   3.477   1.985   7.353
 2303TIP3    H128468   3.441   2.050   7.414
 2303TIP3    H228469   3.446   2.014   7.267
 2304TIP3   OH228470   4.772   2.264   1.005
 2304TIP3    H128471   4.712   2.335   1.029
 2304TIP3    H228472   4.835   2.306   0.946
 2305TIP3   OH228473   5.704   3.310   0.447
 2305TIP3    H128474   5.794   3.284   0.469
 2305TIP3    H228475   5.652   3.232   0.468
 2306TIP3   OH228476   3.735   3.682   0.373
 2306TIP3    H128477   3.663   3.619   0.384
 2306TIP3    H228478   3.708   3.737   0.300
 2307TIP3   OH228479   6.686   2.790   7.482
 2307TIP3    H128480   6.691   2.885   7.472
 2307TIP3    H228481   6.777   2.761   7.486
 2308TIP3   OH228482   0.407   2.321   1.468
 2308TIP3    H128483   0.397   2.227   1.480
 2308TIP3    H228484   0.368   2.339   1.382
 2309TIP3   OH228485   0.359   3.561   0.747
 2309TIP3    H128486   0.375   3.501   0.820
 2309TIP3    H228487   0.428   3.627   0.755
 2310TIP3   OH228488   3.207   0.994   8.685
 2310TIP3    H128489   3.206   1.087   8.661
 2310TIP3    H228490   3.117   0.965   8.670
 2311TIP3   OH228491   5.909   5.059   8.672
 2311TIP3    H128492   5.845   5.023   8.732
 2311TIP3    H228493   5.983   5.084   8.727
 2312TIP3   OH228494   3.530   4.354   7.796
 2312TIP3    H128495   3.625   4.339   7.793
 2312TIP3    H228496   3.513   4.376   7.888
 2313TIP3   OH228497   5.241   6.177   8.575
 2313TIP3    H128498   5.235   6.197   8.668
 2313TIP3    H228499   5.334   6.156   8.561
 2314TIP3   OH228500   2.074   5.126   0.973
 2314TIP3    H128501   1.991   5.149   1.015
 2314TIP3    H228502   2.080   5.031   0.982
 2315TIP3   OH228503   3.897   5.034   1.654
 2315TIP3    H128504   3.906   5.119   1.697
 2315TIP3    H228505   3.820   5.044   1.597
 2316TIP3   OH228506   0.037   0.126   7.205
 2316TIP3    H128507   6.816   0.194   7.254
 2316TIP3    H228508   0.012   0.044   7.249
 2317TIP3   OH228509   4.460   5.088   1.777
 2317TIP3    H128510   4.526   5.129   1.722
 2317TIP3    H228511   4.466   5.134   1.860
 2318TIP3   OH228512   5.042   0.520   1.407
 2318TIP3    H128513   5.035   0.615   1.414
 2318TIP3    H228514   4.979   0.496   1.339
 2319TIP3   OH228515   0.476   6.787   0.029
 2319TIP3    H128516   0.507   0.052   0.032
 2319TIP3    H228517   0.381   6.794   0.019
 2320TIP3   OH228518   5.430   5.949   0.289
 2320TIP3    H128519   5.438   5.939   0.194
 2320TIP3    H228520   5.410   5.861   0.320
 2321TIP3   OH228521   3.695   1.164   0.244
 2321TIP3    H128522   3.621   1.221   0.221
 2321TIP3    H228523   3.773   1.216   0.225
 2322TIP3   OH228524   2.807   0.095   1.061
 2322TIP3    H128525   2.841   0.096   0.972
 2322TIP3    H228526   2.854   0.165   1.106
 2323TIP3   OH228527   6.652   0.601   1.887
 2323TIP3    H128528   6.698   0.661   1.827
 2323TIP3    H228529   6.703   0.603   1.967
 2324TIP3   OH228530   4.565   2.275   1.644
 2324TIP3    H128531   4.480   2.287   1.602
 2324TIP3    H228532   4.565   2.339   1.716
 2325TIP3   OH228533   3.074   3.600   0.657
 2325TIP3    H128534   3.053   3.658   0.584
 2325TIP3    H228535   3.002   3.536   0.657
 2326TIP3   OH228536   2.559   1.234   8.019
 2326TIP3    H128537   2.539   1.186   7.939
 2326TIP3    H228538   2.493   1.205   8.082
 2327TIP3   OH228539   6.538   4.431   0.224
 2327TIP3    H128540   6.545   4.336   0.235
 2327TIP3    H228541   6.569   4.468   0.306
 2328TIP3   OH228542   2.455   3.798   8.223
 2328TIP3    H128543   2.521   3.729   8.226
 2328TIP3    H228544   2.505   3.879   8.217
 2329TIP3   OH228545   6.752   3.617   8.116
 2329TIP3    H128546   6.662   3.649   8.115
 2329TIP3    H228547   6.805   3.695   8.132
 2330TIP3   OH228548   2.008   6.629   1.093
 2330TIP3    H128549   1.966   6.714   1.082
 2330TIP3    H228550   2.014   6.594   1.004
 2331TIP3   OH228551   3.113   0.250   8.229
 2331TIP3    H128552   3.072   0.320   8.179
 2331TIP3    H228553   3.197   0.288   8.257
 2332TIP3   OH228554   3.484   0.870   7.524
 2332TIP3    H128555   3.532   0.943   7.564
 2332TIP3    H228556   3.427   0.839   7.594
 2333TIP3   OH228557   5.274   1.233   1.678
 2333TIP3    H128558   5.315   1.246   1.593
 2333TIP3    H228559   5.327   1.165   1.721
 2334TIP3   OH228560   3.229   0.347   0.886
 2334TIP3    H128561   3.246   0.344   0.792
 2334TIP3    H228562   3.226   0.255   0.912
 2335TIP3   OH228563   6.698   2.191   0.361
 2335TIP3    H128564   6.631   2.159   0.421
 2335TIP3    H228565   6.680   2.145   0.279
 2336TIP3   OH228566   6.191   3.284   0.130
 2336TIP3    H128567   6.115   3.226   0.135
 2336TIP3    H228568   6.219   3.294   0.221
 2337TIP3   OH228569   5.558   4.807   8.140
 2337TIP3    H128570   5.588   4.736   8.084
 2337TIP3    H228571   5.631   4.870   8.140
 2338TIP3   OH228572   2.394   0.930   8.431
 2338TIP3    H128573   2.441   0.887   8.502
 2338TIP3    H228574   2.311   0.959   8.471
 2339TIP3   OH228575   5.262   2.344   0.492
 2339TIP3    H128576   5.350   2.347   0.530
 2339TIP3    H228577   5.212   2.290   0.553
 2340TIP3   OH228578   6.600   3.601   0.520
 2340TIP3    H128579   6.564   3.546   0.451
 2340TIP3    H228580   6.692   3.578   0.524
 2341TIP3   OH228581   0.252   2.307   2.093
 2341TIP3    H128582   0.291   2.366   2.158
 2341TIP3    H228583   0.309   2.312   2.017
 2342TIP3   OH228584   6.069   5.046   1.553
 2342TIP3    H128585   5.977   5.050   1.581
 2342TIP3    H228586   6.075   4.965   1.504
 2343TIP3   OH228587   2.168   4.570   0.609
 2343TIP3    H128588   2.126   4.586   0.525
 2343TIP3    H228589   2.183   4.475   0.611
 2344TIP3   OH228590   1.511   0.304   1.333
 2344TIP3    H128591   1.518   0.384   1.281
 2344TIP3    H228592   1.542   0.329   1.420
 2345TIP3   OH228593   6.791   0.566   0.587
 2345TIP3    H128594   0.052   0.524   0.588
 2345TIP3    H228595   6.743   0.521   0.517
 2346TIP3   OH228596   1.469   4.912   7.396
 2346TIP3    H128597   1.534   4.887   7.330
 2346TIP3    H228598   1.409   4.970   7.349
 2347TIP3   OH228599   4.436   6.479   7.226
 2347TIP3    H128600   4.475   6.402   7.268
 2347TIP3    H228601   4.404   6.446   7.142
 2348TIP3   OH228602   6.614   6.665   6.980
 2348TIP3    H128603   6.646   6.655   7.069
 2348TIP3    H228604   6.689   6.643   6.925
 2349TIP3   OH228605   4.125   0.492   1.100
 2349TIP3    H128606   4.096   0.523   1.014
 2349TIP3    H228607   4.127   0.397   1.092
 2350TIP3   OH228608   3.494   4.995   8.379
 2350TIP3    H128609   3.575   4.972   8.426
 2350TIP3    H228610   3.436   4.921   8.395
 2351TIP3   OH228611   2.622   2.166   7.209
 2351TIP3    H128612   2.530   2.143   7.195
 2351TIP3    H228613   2.669   2.121   7.139
 2352TIP3   OH228614   4.962   4.762   7.026
 2352TIP3    H128615   5.056   4.753   7.009
 2352TIP3    H228616   4.927   4.673   7.014
 2353TIP3   OH228617   2.437   5.702   1.898
 2353TIP3    H128618   2.503   5.763   1.866
 2353TIP3    H228619   2.426   5.725   1.990
 2354TIP3   OH228620   2.618   4.246   7.158
 2354TIP3    H128621   2.694   4.207   7.200
 2354TIP3    H228622   2.544   4.219   7.213
 2355TIP3   OH228623   2.556   4.125   1.245
 2355TIP3    H128624   2.521   4.205   1.285
 2355TIP3    H228625   2.485   4.062   1.251
 2356TIP3   OH228626   5.347   0.832   0.449
 2356TIP3    H128627   5.344   0.768   0.520
 2356TIP3    H228628   5.307   0.788   0.375
 2357TIP3   OH228629   1.048   0.936   1.258
 2357TIP3    H128630   1.069   1.008   1.318
 2357TIP3    H228631   1.036   0.979   1.173
 2358TIP3   OH228632   3.418   5.448   0.513
 2358TIP3    H128633   3.400   5.373   0.456
 2358TIP3    H228634   3.431   5.410   0.600
 2359TIP3   OH228635   5.612   5.414   7.228
 2359TIP3    H128636   5.672   5.406   7.154
 2359TIP3    H228637   5.540   5.466   7.194
 2360TIP3   OH228638   3.026   5.068   7.329
 2360TIP3    H128639   3.108   5.019   7.332
 2360TIP3    H228640   3.054   5.160   7.326
 2361TIP3   OH228641   6.185   2.264   1.419
 2361TIP3    H128642   6.236   2.219   1.486
 2361TIP3    H228643   6.250   2.306   1.363
 2362TIP3   OH228644   0.402   5.617   8.225
 2362TIP3    H128645   0.340   5.568   8.279
 2362TIP3    H228646   0.382   5.590   8.135
 2363TIP3   OH228647   5.677   6.683   0.649
 2363TIP3    H128648   5.710   6.610   0.700
 2363TIP3    H228649   5.680   6.758   0.709
 2364TIP3   OH228650   4.158   0.012   8.644
 2364TIP3    H128651   4.151   0.081   8.711
 2364TIP3    H228652   4.069   6.802   8.636
 2365TIP3   OH228653   3.542   2.035   0.289
 2365TIP3    H128654   3.603   2.071   0.354
 2365TIP3    H228655   3.474   1.993   0.341
 2366TIP3   OH228656   6.171   1.284   2.244
 2366TIP3    H128657   6.257   1.275   2.285
 2366TIP3    H228658   6.159   1.203   2.195
 2367TIP3   OH228659   4.709   4.359   7.625
 2367TIP3    H128660   4.803   4.354   7.611
 2367TIP3    H228661   4.681   4.268   7.632
 2368TIP3   OH228662   1.182   5.289   1.201
 2368TIP3    H128663   1.196   5.341   1.122
 2368TIP3    H228664   1.088   5.276   1.206
 2369TIP3   OH228665   5.610   6.402   7.338
 2369TIP3    H128666   5.529   6.450   7.350
 2369TIP3    H228667   5.609   6.336   7.408
 2370TIP3   OH228668   5.441   3.010   1.893
 2370TIP3    H128669   5.496   2.966   1.829
 2370TIP3    H228670   5.362   3.034   1.845
 2371TIP3   OH228671   6.306   2.812   1.692
 2371TIP3    H128672   6.368   2.882   1.710
 2371TIP3    H228673   6.247   2.811   1.767
 2372TIP3   OH228674   5.703   0.586   8.389
 2372TIP3    H128675   5.794   0.587   8.359
 2372TIP3    H228676   5.683   0.493   8.401
 2373TIP3   OH228677   6.611   0.299   1.182
 2373TIP3    H128678   6.655   0.370   1.227
 2373TIP3    H228679   6.674   0.226   1.184
 2374TIP3   OH228680   2.748   4.350   8.498
 2374TIP3    H128681   2.780   4.261   8.512
 2374TIP3    H228682   2.698   4.345   8.416
 2375TIP3   OH228683   0.463   3.234   1.233
 2375TIP3    H128684   0.418   3.290   1.296
 2375TIP3    H228685   0.490   3.157   1.283
 2376TIP3   OH228686   0.134   3.833   6.399
 2376TIP3    H128687   0.189   3.758   6.380
 2376TIP3    H228688   0.096   3.814   6.485
 2377TIP3   OH228689   6.646   2.118   0.065
 2377TIP3    H128690   6.629   2.150   8.757
 2377TIP3    H228691   6.693   2.035   0.052
 2378TIP3   OH228692   1.889   0.274   1.267
 2378TIP3    H128693   1.817   0.213   1.274
 2378TIP3    H228694   1.898   0.312   1.354
 2379TIP3   OH228695   2.044   4.777   1.842
 2379TIP3    H128696   2.133   4.771   1.809
 2379TIP3    H228697   2.000   4.699   1.807
 2380TIP3   OH228698   0.099   1.694   0.918
 2380TIP3    H128699   0.036   1.753   0.959
 2380TIP3    H228700   0.136   1.644   0.990
 2381TIP3   OH228701   5.945   2.419   1.446
 2381TIP3    H128702   6.028   2.375   1.461
 2381TIP3    H228703   5.919   2.452   1.532
 2382TIP3   OH228704   3.154   5.428   6.396
 2382TIP3    H128705   3.120   5.512   6.425
 2382TIP3    H228706   3.089   5.396   6.334
 2383TIP3   OH228707   6.347   6.378   8.001
 2383TIP3    H128708   6.367   6.308   8.063
 2383TIP3    H228709   6.301   6.333   7.930
 2384TIP3   OH228710   0.310   2.575   2.245
 2384TIP3    H128711   0.252   2.522   2.300
 2384TIP3    H228712   0.398   2.557   2.278
 2385TIP3   OH228713   2.164   5.125   7.857
 2385TIP3    H128714   2.081   5.157   7.823
 2385TIP3    H228715   2.139   5.063   7.926
 2386TIP3   OH228716   1.310   5.870   7.596
 2386TIP3    H128717   1.337   5.841   7.684
 2386TIP3    H228718   1.391   5.898   7.554
 2387TIP3   OH228719   3.995   1.250   1.747
 2387TIP3    H128720   3.990   1.195   1.669
 2387TIP3    H228721   3.997   1.339   1.713
 2388TIP3   OH228722   5.531   5.719   1.599
 2388TIP3    H128723   5.496   5.807   1.589
 2388TIP3    H228724   5.613   5.720   1.551
 2389TIP3   OH228725   1.822   0.149   0.533
 2389TIP3    H128726   1.817   0.162   0.438
 2389TIP3    H228727   1.754   0.206   0.569
 2390TIP3   OH228728   6.139   4.348   1.563
 2390TIP3    H128729   6.161   4.441   1.569
 2390TIP3    H228730   6.109   4.336   1.473
 2391TIP3   OH228731   6.302   5.930   0.774
 2391TIP3    H128732   6.364   5.996   0.805
 2391TIP3    H228733   6.325   5.850   0.821
 2392TIP3   OH228734   0.372   1.130   7.051
 2392TIP3    H128735   0.365   1.185   7.129
 2392TIP3    H228736   0.288   1.083   7.047
 2393TIP3   OH228737   4.466   3.129   7.946
 2393TIP3    H128738   4.435   3.152   8.033
 2393TIP3    H228739   4.512   3.046   7.957
 2394TIP3   OH228740   1.792   1.066   7.499
 2394TIP3    H128741   1.868   1.074   7.441
 2394TIP3    H228742   1.785   0.972   7.516
 2395TIP3   OH228743   1.161   6.713   7.159
 2395TIP3    H128744   1.236   6.699   7.101
 2395TIP3    H228745   1.144   6.807   7.154
 2396TIP3   OH228746   6.319   3.633   8.668
 2396TIP3    H128747   6.391   3.633   8.732
 2396TIP3    H228748   6.343   3.564   8.606
 2397TIP3   OH228749   0.829   3.430   8.394
 2397TIP3    H128750   0.836   3.414   8.489
 2397TIP3    H228751   0.895   3.497   8.376
 2398TIP3   OH228752   5.371   0.643   2.251
 2398TIP3    H128753   5.425   0.722   2.240
 2398TIP3    H228754   5.294   0.673   2.299
 2399TIP3   OH228755   4.723   4.049   7.654
 2399TIP3    H128756   4.648   4.021   7.602
 2399TIP3    H228757   4.792   4.068   7.590
 2400TIP3   OH228758   6.690   2.559   8.382
 2400TIP3    H128759   6.714   2.629   8.444
 2400TIP3    H228760   6.596   2.549   8.393
 2401TIP3   OH228761   1.094   2.657   0.383
 2401TIP3    H128762   1.168   2.616   0.338
 2401TIP3    H228763   1.130   2.739   0.417
 2402TIP3   OH228764   2.119   0.454   8.781
 2402TIP3    H128765   2.070   0.531   8.753
 2402TIP3    H228766   2.143   0.409   8.699
 2403TIP3   OH228767   5.969   5.713   8.087
 2403TIP3    H128768   6.013   5.632   8.063
 2403TIP3    H228769   6.010   5.739   8.169
 2404TIP3   OH228770   6.066   0.004   1.705
 2404TIP3    H128771   6.128   6.818   1.632
 2404TIP3    H228772   6.059   6.741   1.743
 2405TIP3   OH228773   2.381   3.582   1.692
 2405TIP3    H128774   2.338   3.564   1.608
 2405TIP3    H228775   2.351   3.669   1.716
 2406TIP3   OH228776   3.481   4.026   7.359
 2406TIP3    H128777   3.433   4.093   7.407
 2406TIP3    H228778   3.570   4.031   7.395
 2407TIP3   OH228779   2.736   4.898   0.192
 2407TIP3    H128780   2.764   4.812   0.159
 2407TIP3    H228781   2.806   4.957   0.166
 2408TIP3   OH228782   2.843   2.194   6.430
 2408TIP3    H128783   2.766   2.160   6.384
 2408TIP3    H228784   2.894   2.116   6.451
 2409TIP3   OH228785   2.441   1.318   1.020
 2409TIP3    H128786   2.514   1.296   0.962
 2409TIP3    H228787   2.396   1.234   1.035
 2410TIP3   OH228788   0.562   1.701   2.259
 2410TIP3    H128789   0.502   1.742   2.320
 2410TIP3    H228790   0.514   1.624   2.227
 2411TIP3   OH228791   6.349   4.562   1.769
 2411TIP3    H128792   6.400   4.605   1.838
 2411TIP3    H228793   6.349   4.470   1.793
 2412TIP3   OH228794   3.028   3.930   0.586
 2412TIP3    H128795   2.982   4.001   0.541
 2412TIP3    H228796   3.051   3.869   0.516
 2413TIP3   OH228797   6.791   1.649   0.314
 2413TIP3    H128798   6.746   1.581   0.364
 2413TIP3    H228799   6.820   1.712   0.380
 2414TIP3   OH228800   0.830   0.718   8.612
 2414TIP3    H128801   0.870   0.805   8.621
 2414TIP3    H228802   0.904   0.658   8.620
 2415TIP3   OH228803   4.189   5.532   0.871
 2415TIP3    H128804   4.169   5.438   0.878
 2415TIP3    H228805   4.276   5.535   0.833
 2416TIP3   OH228806   4.953   4.513   0.955
 2416TIP3    H128807   5.037   4.482   0.922
 2416TIP3    H228808   4.890   4.489   0.887
 2417TIP3   OH228809   4.544   5.135   2.365
 2417TIP3    H128810   4.464   5.184   2.386
 2417TIP3    H228811   4.516   5.044   2.366
 2418TIP3   OH228812   6.617   2.916   0.781
 2418TIP3    H128813   6.676   2.858   0.732
 2418TIP3    H228814   6.572   2.966   0.713
 2419TIP3   OH228815   2.102   2.629   8.499
 2419TIP3    H128816   2.027   2.599   8.550
 2419TIP3    H228817   2.105   2.724   8.515
 2420TIP3   OH228818   0.014   5.489   8.118
 2420TIP3    H128819   6.765   5.497   8.058
 2420TIP3    H228820   0.028   5.394   8.126
 2421TIP3   OH228821   1.840   5.898   2.387
 2421TIP3    H128822   1.831   5.967   2.452
 2421TIP3    H228823   1.812   5.938   2.305
 2422TIP3   OH228824   2.818   2.831   8.608
 2422TIP3    H128825   2.772   2.913   8.590
 2422TIP3    H228826   2.822   2.827   8.704
 2423TIP3   OH228827   5.322   2.356   6.738
 2423TIP3    H128828   5.332   2.352   6.643
 2423TIP3    H228829   5.273   2.437   6.753
 2424TIP3   OH228830   2.683   5.296   7.056
 2424TIP3    H128831   2.721   5.339   6.980
 2424TIP3    H228832   2.628   5.227   7.020
 2425TIP3   OH228833   5.693   4.002   1.850
 2425TIP3    H128834   5.780   4.038   1.865
 2425TIP3    H228835   5.709   3.911   1.825
 2426TIP3   OH228836   4.283   0.625   0.545
 2426TIP3    H128837   4.371   0.629   0.509
 2426TIP3    H228838   4.227   0.609   0.469
 2427TIP3   OH228839   5.575   6.045   1.390
 2427TIP3    H128840   5.641   5.977   1.395
 2427TIP3    H228841   5.495   5.999   1.364
 2428TIP3   OH228842   0.851   5.640   1.498
 2428TIP3    H128843   0.826   5.627   1.407
 2428TIP3    H228844   0.796   5.712   1.529
 2429TIP3   OH228845   0.668   6.684   6.239
 2429TIP3    H128846   0.581   6.644   6.251
 2429TIP3    H228847   0.652   6.777   6.252
 2430TIP3   OH228848   6.335   3.784   7.533
 2430TIP3    H128849   6.268   3.762   7.468
 2430TIP3    H228850   6.295   3.854   7.585
 2431TIP3   OH228851   3.167   1.978   2.226
 2431TIP3    H128852   3.129   1.907   2.174
 2431TIP3    H228853   3.125   1.970   2.312
 2432TIP3   OH228854   2.787   2.354   6.981
 2432TIP3    H128855   2.733   2.420   6.937
 2432TIP3    H228856   2.853   2.404   7.029
 2433TIP3   OH228857   2.110   6.695   2.849
 2433TIP3    H128858   2.128   6.775   2.898
 2433TIP3    H228859   2.196   6.665   2.819
 2434TIP3   OH228860   2.935   3.904   8.595
 2434TIP3    H128861   3.022   3.944   8.606
 2434TIP3    H228862   2.949   3.836   8.530
 2435TIP3   OH228863   2.607   5.563   2.430
 2435TIP3    H128864   2.658   5.535   2.354
 2435TIP3    H228865   2.662   5.630   2.471
 2436TIP3   OH228866   0.893   3.548   8.002
 2436TIP3    H128867   0.907   3.580   7.913
 2436TIP3    H228868   0.812   3.497   7.996
 2437TIP3   OH228869   2.722   2.286   0.849
 2437TIP3    H128870   2.704   2.201   0.809
 2437TIP3    H228871   2.639   2.310   0.892
 2438TIP3   OH228872   4.960   6.771   0.924
 2438TIP3    H128873   4.889   6.709   0.943
 2438TIP3    H228874   5.015   6.769   1.003
 2439TIP3   OH228875   2.349   0.960   8.052
 2439TIP3    H128876   2.259   0.932   8.069
 2439TIP3    H228877   2.365   0.932   7.961
 2440TIP3   OH228878   5.994   4.473   1.304
 2440TIP3    H128879   5.960   4.516   1.383
 2440TIP3    H228880   5.915   4.443   1.258
 2441TIP3   OH228881   5.337   0.800   8.317
 2441TIP3    H128882   5.413   0.803   8.375
 2441TIP3    H228883   5.305   0.710   8.323
 2442TIP3   OH228884   3.133   5.869   8.475
 2442TIP3    H128885   3.054   5.847   8.525
 2442TIP3    H228886   3.177   5.785   8.462
 2443TIP3   OH228887   0.325   1.207   7.293
 2443TIP3    H128888   0.302   1.154   7.370
 2443TIP3    H228889   0.306   1.297   7.319
 2444TIP3   OH228890   0.396   4.406   8.366
 2444TIP3    H128891   0.485   4.368   8.365
 2444TIP3    H228892   0.374   4.411   8.459
 2445TIP3   OH228893   3.730   4.625   7.811
 2445TIP3    H128894   3.643   4.640   7.847
 2445TIP3    H228895   3.716   4.617   7.717
 2446TIP3   OH228896   1.159   6.234   2.116
 2446TIP3    H128897   1.115   6.154   2.144
 2446TIP3    H228898   1.102   6.270   2.048
 2447TIP3   OH228899   0.742   2.656   7.994
 2447TIP3    H128900   0.704   2.719   7.932
 2447TIP3    H228901   0.741   2.702   8.078
 2448TIP3   OH228902   3.015   3.934   8.041
 2448TIP3    H128903   3.039   3.979   8.122
 2448TIP3    H228904   2.950   3.991   8.001
 2449TIP3   OH228905   5.819   2.955   1.850
 2449TIP3    H128906   5.762   3.031   1.834
 2449TIP3    H228907   5.848   2.965   1.941
 2450TIP3   OH228908   4.481   2.758   6.858
 2450TIP3    H128909   4.403   2.705   6.874
 2450TIP3    H228910   4.463   2.803   6.776
 2451TIP3   OH228911   2.743   2.808   7.492
 2451TIP3    H128912   2.814   2.820   7.555
 2451TIP3    H228913   2.706   2.722   7.514
 2452TIP3   OH228914   4.217   6.006   8.250
 2452TIP3    H128915   4.148   5.956   8.295
 2452TIP3    H228916   4.223   5.965   8.163
 2453TIP3   OH228917   0.444   0.637   1.234
 2453TIP3    H128918   0.483   0.724   1.241
 2453TIP3    H228919   0.511   0.584   1.189
 2454TIP3   OH228920   6.739   4.064   2.411
 2454TIP3    H128921   6.708   4.094   2.497
 2454TIP3    H228922   6.791   3.987   2.430
 2455TIP3   OH228923   1.634   2.873   0.978
 2455TIP3    H128924   1.688   2.940   1.020
 2455TIP3    H228925   1.555   2.870   1.031
 2456TIP3   OH228926   5.266   1.429   1.925
 2456TIP3    H128927   5.296   1.372   1.855
 2456TIP3    H228928   5.176   1.401   1.942
 2457TIP3   OH228929   3.113   0.201   6.660
 2457TIP3    H128930   3.167   0.232   6.733
 2457TIP3    H228931   3.150   0.244   6.583
 2458TIP3   OH228932   3.797   1.844   1.787
 2458TIP3    H128933   3.818   1.926   1.742
 2458TIP3    H228934   3.810   1.776   1.720
 2459TIP3   OH228935   1.959   1.448   0.635
 2459TIP3    H128936   1.915   1.500   0.568
 2459TIP3    H228937   1.917   1.473   0.717
 2460TIP3   OH228938   2.241   6.053   0.619
 2460TIP3    H128939   2.302   6.099   0.561
 2460TIP3    H228940   2.205   6.122   0.676
 2461TIP3   OH228941   0.669   5.652   7.057
 2461TIP3    H128942   0.647   5.741   7.086
 2461TIP3    H228943   0.598   5.598   7.091
 2462TIP3   OH228944   6.217   0.320   2.047
 2462TIP3    H128945   6.203   0.279   2.132
 2462TIP3    H228946   6.286   0.268   2.006
 2463TIP3   OH228947   1.530   2.993   8.142
 2463TIP3    H128948   1.540   2.949   8.058
 2463TIP3    H228949   1.584   2.942   8.203
 2464TIP3   OH228950   5.807   5.449   0.803
 2464TIP3    H128951   5.719   5.473   0.829
 2464TIP3    H228952   5.818   5.359   0.833
 2465TIP3   OH228953   2.214   1.378   1.782
 2465TIP3    H128954   2.180   1.386   1.871
 2465TIP3    H228955   2.309   1.388   1.792
 2466TIP3   OH228956   4.654   0.978   7.770
 2466TIP3    H128957   4.571   1.004   7.730
 2466TIP3    H228958   4.641   0.887   7.797
 2467TIP3   OH228959   5.326   3.806   7.185
 2467TIP3    H128960   5.243   3.830   7.146
 2467TIP3    H228961   5.349   3.723   7.143
 2468TIP3   OH228962   5.503   5.646   7.039
 2468TIP3    H128963   5.517   5.573   6.979
 2468TIP3    H228964   5.431   5.696   7.000
 2469TIP3   OH228965   1.981   5.208   1.919
 2469TIP3    H128966   2.045   5.138   1.908
 2469TIP3    H228967   1.989   5.234   2.011
 2470TIP3   OH228968   4.560   4.875   2.082
 2470TIP3    H128969   4.529   4.869   2.172
 2470TIP3    H228970   4.619   4.800   2.072
 2471TIP3   OH228971   2.048   4.629   1.107
 2471TIP3    H128972   2.057   4.568   1.034
 2471TIP3    H228973   2.104   4.591   1.176
 2472TIP3   OH228974   1.732   1.470   8.764
 2472TIP3    H128975   1.676   1.412   0.036
 2472TIP3    H228976   1.818   1.429   8.766
 2473TIP3   OH228977   1.928   1.123   0.505
 2473TIP3    H128978   1.944   1.031   0.487
 2473TIP3    H228979   1.960   1.169   0.428
 2474TIP3   OH228980   3.894   5.309   7.570
 2474TIP3    H128981   3.896   5.222   7.610
 2474TIP3    H228982   3.914   5.293   7.478
 2475TIP3   OH228983   0.227   5.485   1.910
 2475TIP3    H128984   0.244   5.409   1.854
 2475TIP3    H228985   0.299   5.486   1.972
 2476TIP3   OH228986   0.055   4.043   7.621
 2476TIP3    H128987   0.006   4.003   7.549
 2476TIP3    H228988   0.026   3.996   7.699
 2477TIP3   OH228989   0.546   6.104   8.304
 2477TIP3    H128990   0.543   6.036   8.237
 2477TIP3    H228991   0.591   6.062   8.378
 2478TIP3   OH228992   6.195   0.548   6.873
 2478TIP3    H128993   6.209   0.632   6.917
 2478TIP3    H228994   6.121   0.508   6.919
 2479TIP3   OH228995   1.841   4.967   1.961
 2479TIP3    H128996   1.877   5.055   1.946
 2479TIP3    H228997   1.883   4.912   1.895
 2480TIP3   OH228998   6.454   2.066   1.798
 2480TIP3    H128999   6.402   2.065   1.879
 2480TIP3    H229000   6.541   2.038   1.826
 2481TIP3   OH229001   2.834   2.002   2.258
 2481TIP3    H129002   2.750   2.048   2.257
 2481TIP3    H229003   2.841   1.966   2.346
 2482TIP3   OH229004   1.717   3.350   0.412
 2482TIP3    H129005   1.760   3.290   0.351
 2482TIP3    H229006   1.638   3.378   0.365
 2483TIP3   OH229007   5.757   6.051   6.465
 2483TIP3    H129008   5.696   6.070   6.393
 2483TIP3    H229009   5.792   5.964   6.445
 2484TIP3   OH229010   1.598   5.014   1.656
 2484TIP3    H129011   1.557   5.064   1.586
 2484TIP3    H229012   1.635   4.937   1.612
 2485TIP3   OH229013   4.828   4.616   1.454
 2485TIP3    H129014   4.835   4.695   1.508
 2485TIP3    H229015   4.849   4.645   1.366
 2486TIP3   OH229016   0.391   3.934   0.146
 2486TIP3    H129017   0.461   3.870   0.150
 2486TIP3    H229018   0.414   3.990   0.072
 2487TIP3   OH229019   3.203   2.929   7.477
 2487TIP3    H129020   3.269   2.992   7.506
 2487TIP3    H229021   3.151   2.911   7.555
 2488TIP3   OH229022   2.273   1.743   6.532
 2488TIP3    H129023   2.246   1.716   6.620
 2488TIP3    H229024   2.311   1.665   6.493
 2489TIP3   OH229025   4.317   2.115   8.681
 2489TIP3    H129026   4.359   2.054   8.741
 2489TIP3    H229027   4.284   2.186   8.736
 2490TIP3   OH229028   4.750   0.809   8.108
 2490TIP3    H129029   4.819   0.758   8.151
 2490TIP3    H229030   4.779   0.899   8.115
 2491TIP3   OH229031   3.866   1.779   0.656
 2491TIP3    H129032   3.876   1.816   0.744
 2491TIP3    H229033   3.792   1.720   0.663
 2492TIP3   OH229034   0.328   5.481   0.667
 2492TIP3    H129035   0.411   5.511   0.630
 2492TIP3    H229036   0.347   5.464   0.760
 2493TIP3   OH229037   5.733   0.655   0.788
 2493TIP3    H129038   5.726   0.705   0.869
 2493TIP3    H229039   5.828   0.641   0.778
 2494TIP3   OH229040   0.315   5.382   1.226
 2494TIP3    H129041   0.236   5.328   1.225
 2494TIP3    H229042   0.314   5.427   1.141
 2495TIP3   OH229043   3.344   1.558   1.215
 2495TIP3    H129044   3.324   1.640   1.258
 2495TIP3    H229045   3.264   1.506   1.223
 2496TIP3   OH229046   0.681   4.939   2.375
 2496TIP3    H129047   0.666   4.958   2.468
 2496TIP3    H229048   0.695   5.025   2.335
 2497TIP3   OH229049   0.533   2.568   0.722
 2497TIP3    H129050   0.614   2.607   0.755
 2497TIP3    H229051   0.538   2.581   0.627
 2498TIP3   OH229052   4.415   2.037   0.393
 2498TIP3    H129053   4.360   1.961   0.374
 2498TIP3    H229054   4.365   2.087   0.459
 2499TIP3   OH229055   5.041   3.914   7.250
 2499TIP3    H129056   5.065   4.005   7.234
 2499TIP3    H229057   4.986   3.889   7.176
 2500TIP3   OH229058   0.441   5.776   8.445
 2500TIP3    H129059   0.454   5.700   8.388
 2500TIP3    H229060   0.358   5.813   8.416
 2501TIP3   OH229061   6.740   1.388   7.528
 2501TIP3    H129062   6.714   1.480   7.519
 2501TIP3    H229063   6.662   1.339   7.501
 2502TIP3   OH229064   2.802   5.790   1.425
 2502TIP3    H129065   2.745   5.832   1.361
 2502TIP3    H229066   2.836   5.713   1.380
 2503TIP3   OH229067   4.241   4.287   1.200
 2503TIP3    H129068   4.288   4.218   1.154
 2503TIP3    H229069   4.306   4.325   1.259
 2504TIP3   OH229070   0.316   1.156   1.356
 2504TIP3    H129071   0.342   1.125   1.442
 2504TIP3    H229072   0.395   1.149   1.302
 2505TIP3   OH229073   0.544   4.135   7.630
 2505TIP3    H129074   0.460   4.093   7.607
 2505TIP3    H229075   0.603   4.110   7.558
 2506TIP3   OH229076   1.250   3.855   0.372
 2506TIP3    H129077   1.214   3.870   0.285
 2506TIP3    H229078   1.190   3.792   0.412
 2507TIP3   OH229079   3.333   4.884   6.940
 2507TIP3    H129080   3.399   4.952   6.949
 2507TIP3    H229081   3.260   4.914   6.993
 2508TIP3   OH229082   3.836   1.813   1.334
 2508TIP3    H129083   3.757   1.864   1.322
 2508TIP3    H229084   3.824   1.736   1.278
 2509TIP3   OH229085   5.148   4.164   7.208
 2509TIP3    H129086   5.201   4.220   7.264
 2509TIP3    H229087   5.088   4.224   7.164
 2510TIP3   OH229088   0.203   5.216   0.530
 2510TIP3    H129089   0.216   5.144   0.468
 2510TIP3    H229090   0.289   5.233   0.567
 2511TIP3   OH229091   5.223   0.964   1.477
 2511TIP3    H129092   5.216   1.052   1.439
 2511TIP3    H229093   5.201   0.905   1.405
 2512TIP3   OH229094   2.597   1.216   0.781
 2512TIP3    H129095   2.558   1.186   0.699
 2512TIP3    H229096   2.688   1.186   0.777
 2513TIP3   OH229097   3.292   3.343   0.875
 2513TIP3    H129098   3.235   3.307   0.808
 2513TIP3    H229099   3.360   3.390   0.826
 2514TIP3   OH229100   5.608   4.509   1.485
 2514TIP3    H129101   5.604   4.553   1.570
 2514TIP3    H229102   5.614   4.580   1.421
 2515TIP3   OH229103   1.817   2.880   0.384
 2515TIP3    H129104   1.903   2.918   0.364
 2515TIP3    H229105   1.830   2.835   0.467
 2516TIP3   OH229106   6.268   0.816   1.392
 2516TIP3    H129107   6.216   0.776   1.323
 2516TIP3    H229108   6.292   0.902   1.358
 2517TIP3   OH229109   5.725   3.933   7.228
 2517TIP3    H129110   5.815   3.968   7.226
 2517TIP3    H229111   5.683   3.971   7.151
 2518TIP3   OH229112   5.859   4.871   0.708
 2518TIP3    H129113   5.899   4.831   0.785
 2518TIP3    H229114   5.801   4.804   0.672
 2519TIP3   OH229115   6.558   1.271   1.901
 2519TIP3    H129116   6.510   1.238   1.977
 2519TIP3    H229117   6.625   1.329   1.940
 2520TIP3   OH229118   3.779   6.159   2.261
 2520TIP3    H129119   3.800   6.252   2.253
 2520TIP3    H229120   3.736   6.151   2.346
 2521TIP3   OH229121   0.487   1.281   0.453
 2521TIP3    H129122   0.506   1.208   0.513
 2521TIP3    H229123   0.448   1.240   0.376
 2522TIP3   OH229124   5.968   6.069   1.899
 2522TIP3    H129125   5.921   5.997   1.855
 2522TIP3    H229126   5.905   6.140   1.904
 2523TIP3   OH229127   1.605   0.589   1.652
 2523TIP3    H129128   1.645   0.595   1.739
 2523TIP3    H229129   1.673   0.621   1.593
 2524TIP3   OH229130   3.880   4.984   8.042
 2524TIP3    H129131   3.863   4.937   8.124
 2524TIP3    H229132   3.813   4.952   7.982
 2525TIP3   OH229133   5.531   3.327   8.036
 2525TIP3    H129134   5.480   3.402   8.006
 2525TIP3    H229135   5.621   3.348   8.014
 2526TIP3   OH229136   5.901   0.245   7.912
 2526TIP3    H129137   5.835   0.306   7.945
 2526TIP3    H229138   5.851   0.181   7.861
 2527TIP3   OH229139   2.946   6.044   0.056
 2527TIP3    H129140   2.955   6.064   0.149
 2527TIP3    H229141   3.005   6.106   0.012
 2528TIP3   OH229142   0.189   5.486   7.744
 2528TIP3    H129143   0.131   5.500   7.669
 2528TIP3    H229144   0.181   5.565   7.797
 2529TIP3   OH229145   2.431   1.020   6.837
 2529TIP3    H129146   2.468   1.019   6.748
 2529TIP3    H229147   2.499   1.061   6.890
 2530TIP3   OH229148   4.014   5.845   8.353
 2530TIP3    H129149   3.934   5.873   8.398
 2530TIP3    H229150   4.005   5.750   8.346
 2531TIP3   OH229151   0.367   1.754   0.336
 2531TIP3    H129152   0.436   1.726   0.396
 2531TIP3    H229153   0.377   1.696   0.260
 2532TIP3   OH229154   0.440   4.618   1.876
 2532TIP3    H129155   0.365   4.603   1.818
 2532TIP3    H229156   0.505   4.659   1.819
 2533TIP3   OH229157   4.873   2.773   0.762
 2533TIP3    H129158   4.902   2.789   0.673
 2533TIP3    H229159   4.808   2.841   0.779
 2534TIP3   OH229160   5.687   6.567   8.570
 2534TIP3    H129161   5.764   6.510   8.578
 2534TIP3    H229162   5.630   6.539   8.642
 2535TIP3   OH229163   6.770   5.293   1.461
 2535TIP3    H129164   6.796   5.295   1.553
 2535TIP3    H229165   6.679   5.264   1.462
 2536TIP3   OH229166   2.159   1.145   8.717
 2536TIP3    H129167   2.126   1.112   0.019
 2536TIP3    H229168   2.081   1.162   8.665
 2537TIP3   OH229169   0.503   1.684   0.710
 2537TIP3    H129170   0.568   1.750   0.687
 2537TIP3    H229171   0.536   1.603   0.671
 2538TIP3   OH229172   2.842   0.529   1.449
 2538TIP3    H129173   2.811   0.597   1.509
 2538TIP3    H229174   2.766   0.512   1.393
 2539TIP3   OH229175   4.152   2.622   7.346
 2539TIP3    H129176   4.105   2.614   7.429
 2539TIP3    H229177   4.141   2.714   7.321
 2540TIP3   OH229178   5.845   0.695   1.344
 2540TIP3    H129179   5.807   0.686   1.431
 2540TIP3    H229180   5.770   0.708   1.286
 2541TIP3   OH229181   6.140   2.794   8.194
 2541TIP3    H129182   6.048   2.797   8.168
 2541TIP3    H229183   6.141   2.740   8.274
 2542TIP3   OH229184   6.637   1.878   0.895
 2542TIP3    H129185   6.611   1.970   0.888
 2542TIP3    H229186   6.678   1.871   0.981
 2543TIP3   OH229187   6.173   1.606   7.635
 2543TIP3    H129188   6.233   1.535   7.611
 2543TIP3    H229189   6.184   1.616   7.729
 2544TIP3   OH229190   1.489   6.694   8.656
 2544TIP3    H129191   1.442   6.769   8.621
 2544TIP3    H229192   1.552   6.733   8.718
 2545TIP3   OH229193   1.787   3.524   1.938
 2545TIP3    H129194   1.813   3.491   2.025
 2545TIP3    H229195   1.870   3.542   1.894
 2546TIP3   OH229196   6.160   4.926   8.255
 2546TIP3    H129197   6.169   4.839   8.294
 2546TIP3    H229198   6.096   4.971   8.311
 2547TIP3   OH229199   0.526   1.365   1.673
 2547TIP3    H129200   0.586   1.376   1.600
 2547TIP3    H229201   0.580   1.375   1.751
 2548TIP3   OH229202   1.715   6.346   8.140
 2548TIP3    H129203   1.626   6.316   8.154
 2548TIP3    H229204   1.758   6.272   8.095
 2549TIP3   OH229205   1.364   6.346   0.106
 2549TIP3    H129206   1.446   6.353   0.057
 2549TIP3    H229207   1.384   6.287   0.178
 2550TIP3   OH229208   5.865   2.758   0.173
 2550TIP3    H129209   5.774   2.788   0.172
 2550TIP3    H229210   5.874   2.711   0.256
 2551TIP3   OH229211   4.858   1.114   7.029
 2551TIP3    H129212   4.864   1.109   6.933
 2551TIP3    H229213   4.908   1.038   7.060
 2552TIP3   OH229214   3.565   5.580   8.567
 2552TIP3    H129215   3.555   5.488   8.588
 2552TIP3    H229216   3.477   5.617   8.580
 2553TIP3   OH229217   1.823   0.528   7.802
 2553TIP3    H129218   1.837   0.558   7.712
 2553TIP3    H229219   1.872   0.446   7.807
 2554TIP3   OH229220   6.116   2.655   8.438
 2554TIP3    H129221   6.082   2.683   8.523
 2554TIP3    H229222   6.057   2.584   8.411
 2555TIP3   OH229223   2.129   6.716   8.105
 2555TIP3    H129224   2.133   6.700   8.200
 2555TIP3    H229225   2.071   6.648   8.072
 2556TIP3   OH229226   5.664   4.764   7.612
 2556TIP3    H129227   5.599   4.812   7.561
 2556TIP3    H229228   5.715   4.832   7.656
 2557TIP3   OH229229   4.827   0.366   0.111
 2557TIP3    H129230   4.824   0.452   0.152
 2557TIP3    H229231   4.889   0.317   0.165
 2558TIP3   OH229232   2.924   0.312   7.621
 2558TIP3    H129233   2.862   0.272   7.682
 2558TIP3    H229234   2.961   0.239   7.572
 2559TIP3   OH229235   5.185   3.258   8.074
 2559TIP3    H129236   5.173   3.259   8.169
 2559TIP3    H229237   5.136   3.334   8.043
 2560TIP3   OH229238   4.969   6.157   0.424
 2560TIP3    H129239   5.050   6.186   0.382
 2560TIP3    H229240   4.996   6.127   0.511
 2561TIP3   OH229241   0.538   1.567   7.049
 2561TIP3    H129242   0.492   1.488   7.022
 2561TIP3    H229243   0.475   1.638   7.035
 2562TIP3   OH229244   5.542   3.119   0.588
 2562TIP3    H129245   5.479   3.059   0.548
 2562TIP3    H229246   5.487   3.180   0.638
 2563TIP3   OH229247   2.607   0.589   0.344
 2563TIP3    H129248   2.630   0.638   0.265
 2563TIP3    H229249   2.646   0.640   0.415
 2564TIP3   OH229250   3.448   1.649   8.096
 2564TIP3    H129251   3.541   1.631   8.084
 2564TIP3    H229252   3.414   1.657   8.007
 2565TIP3   OH229253   3.129   5.166   0.021
 2565TIP3    H129254   3.157   5.199   0.106
 2565TIP3    H229255   3.157   5.233   8.739
 2566TIP3   OH229256   0.811   3.896   7.134
 2566TIP3    H129257   0.837   3.855   7.052
 2566TIP3    H229258   0.832   3.832   7.202
 2567TIP3   OH229259   5.093   3.498   6.312
 2567TIP3    H129260   5.091   3.466   6.221
 2567TIP3    H229261   5.021   3.561   6.317
 2568TIP3   OH229262   4.079   3.705   2.507
 2568TIP3    H129263   4.116   3.705   2.419
 2568TIP3    H229264   4.137   3.763   2.557
 2569TIP3   OH229265   5.657   3.434   0.178
 2569TIP3    H129266   5.575   3.476   0.204
 2569TIP3    H229267   5.686   3.387   0.256
 2570TIP3   OH229268   5.877   4.895   8.132
 2570TIP3    H129269   5.915   4.962   8.075
 2570TIP3    H229270   5.865   4.938   8.216
 2571TIP3   OH229271   0.565   6.446   7.296
 2571TIP3    H129272   0.592   6.524   7.345
 2571TIP3    H229273   0.510   6.397   7.357
 2572TIP3   OH229274   1.097   6.632   8.445
 2572TIP3    H129275   1.120   6.716   8.405
 2572TIP3    H229276   1.134   6.637   8.533
 2573TIP3   OH229277   0.517   5.559   7.675
 2573TIP3    H129278   0.479   5.481   7.634
 2573TIP3    H229279   0.458   5.630   7.652
 2574TIP3   OH229280   0.080   4.278   0.058
 2574TIP3    H129281   0.026   4.256   8.764
 2574TIP3    H229282   0.055   4.214   0.125
 2575TIP3   OH229283   6.617   4.516   6.893
 2575TIP3    H129284   6.570   4.598   6.879
 2575TIP3    H229285   6.583   4.457   6.825
 2576TIP3   OH229286   2.696   4.855   1.082
 2576TIP3    H129287   2.681   4.950   1.073
 2576TIP3    H229288   2.608   4.818   1.088
 2577TIP3   OH229289   1.519   1.721   1.437
 2577TIP3    H129290   1.502   1.773   1.515
 2577TIP3    H229291   1.537   1.633   1.469
 2578TIP3   OH229292   3.764   2.362   7.964
 2578TIP3    H129293   3.796   2.451   7.944
 2578TIP3    H229294   3.679   2.376   8.006
 2579TIP3   OH229295   4.877   0.306   1.527
 2579TIP3    H129296   4.794   0.354   1.522
 2579TIP3    H229297   4.943   0.374   1.539
 2580TIP3   OH229298   3.819   6.031   0.871
 2580TIP3    H129299   3.791   5.940   0.861
 2580TIP3    H229300   3.740   6.083   0.858
 2581TIP3   OH229301   6.327   4.070   8.688
 2581TIP3    H129302   6.284   4.155   8.687
 2581TIP3    H229303   6.393   4.077   8.756
 2582TIP3   OH229304   1.481   2.674   7.737
 2582TIP3    H129305   1.517   2.760   7.759
 2582TIP3    H229306   1.549   2.632   7.685
 2583TIP3   OH229307   4.431   1.266   0.018
 2583TIP3    H129308   4.352   1.317   0.034
 2583TIP3    H229309   4.426   1.194   0.081
 2584TIP3   OH229310   4.656   4.674   7.396
 2584TIP3    H129311   4.668   4.646   7.305
 2584TIP3    H229312   4.604   4.605   7.436
 2585TIP3   OH229313   3.300   2.190   2.114
 2585TIP3    H129314   3.248   2.112   2.134
 2585TIP3    H229315   3.312   2.234   2.198
 2586TIP3   OH229316   1.485   3.832   7.440
 2586TIP3    H129317   1.428   3.860   7.512
 2586TIP3    H229318   1.509   3.912   7.394
 2587TIP3   OH229319   6.539   1.829   7.036
 2587TIP3    H129320   6.583   1.753   6.998
 2587TIP3    H229321   6.602   1.864   7.099
 2588TIP3   OH229322   2.975   5.513   8.194
 2588TIP3    H129323   3.063   5.492   8.163
 2588TIP3    H229324   2.931   5.428   8.202
 2589TIP3   OH229325   4.557   3.909   7.911
 2589TIP3    H129326   4.540   3.956   7.829
 2589TIP3    H229327   4.497   3.947   7.974
 2590TIP3   OH229328   4.145   1.728   0.045
 2590TIP3    H129329   4.160   1.633   0.039
 2590TIP3    H229330   4.197   1.765   8.755
 2591TIP3   OH229331   4.853   2.007   1.491
 2591TIP3    H129332   4.921   2.002   1.424
 2591TIP3    H229333   4.794   2.076   1.460
 2592TIP3   OH229334   3.829   2.646   8.083
 2592TIP3    H129335   3.752   2.675   8.133
 2592TIP3    H229336   3.889   2.720   8.087
 2593TIP3   OH229337   6.469   6.198   2.498
 2593TIP3    H129338   6.385   6.240   2.519
 2593TIP3    H229339   6.530   6.234   2.563
 2594TIP3   OH229340   4.648   6.792   8.548
 2594TIP3    H129341   4.730   6.746   8.563
 2594TIP3    H229342   4.660   0.011   8.464
 2595TIP3   OH229343   3.592   6.059   2.460
 2595TIP3    H129344   3.505   6.064   2.423
 2595TIP3    H229345   3.602   6.141   2.510
 2596TIP3   OH229346   1.662   6.442   6.926
 2596TIP3    H129347   1.743   6.431   6.877
 2596TIP3    H229348   1.600   6.381   6.885
 2597TIP3   OH229349   5.700   0.110   2.153
 2597TIP3    H129350   5.784   0.155   2.163
 2597TIP3    H229351   5.642   0.176   2.115
 2598TIP3   OH229352   1.176   1.526   0.380
 2598TIP3    H129353   1.167   1.551   0.472
 2598TIP3    H229354   1.254   1.573   0.350
 2599TIP3   OH229355   1.075   4.228   0.902
 2599TIP3    H129356   1.123   4.154   0.867
 2599TIP3    H229357   1.018   4.257   0.830
 2600TIP3   OH229358   3.588   5.929   7.143
 2600TIP3    H129359   3.569   5.894   7.230
 2600TIP3    H229360   3.551   5.865   7.082
 2601TIP3   OH229361   2.368   0.347   8.572
 2601TIP3    H129362   2.299   0.285   8.551
 2601TIP3    H229363   2.441   0.322   8.515
 2602TIP3   OH229364   4.502   3.998   0.127
 2602TIP3    H129365   4.584   4.008   0.176
 2602TIP3    H229366   4.495   4.079   0.076
 2603TIP3   OH229367   4.535   6.225   7.184
 2603TIP3    H129368   4.498   6.160   7.124
 2603TIP3    H229369   4.585   6.284   7.128
 2604TIP3   OH229370   1.268   5.391   8.150
 2604TIP3    H129371   1.301   5.363   8.064
 2604TIP3    H229372   1.241   5.310   8.193
 2605TIP3   OH229373   4.518   2.960   1.878
 2605TIP3    H129374   4.438   2.909   1.865
 2605TIP3    H229375   4.526   2.968   1.973
 2606TIP3   OH229376   6.060   2.452   8.669
 2606TIP3    H129377   6.079   2.420   8.757
 2606TIP3    H229378   6.134   2.422   8.616
 2607TIP3   OH229379   0.851   3.245   0.805
 2607TIP3    H129380   0.792   3.320   0.814
 2607TIP3    H229381   0.918   3.275   0.745
 2608TIP3   OH229382   3.715   4.522   1.389
 2608TIP3    H129383   3.764   4.445   1.359
 2608TIP3    H229384   3.759   4.546   1.471
 2609TIP3   OH229385   0.548   4.858   7.065
 2609TIP3    H129386   0.456   4.867   7.038
 2609TIP3    H229387   0.588   4.805   6.997
 2610TIP3   OH229388   5.683   0.692   6.912
 2610TIP3    H129389   5.597   0.656   6.891
 2610TIP3    H229390   5.687   0.689   7.008
 2611TIP3   OH229391   4.066   3.290   1.859
 2611TIP3    H129392   4.083   3.303   1.952
 2611TIP3    H229393   3.975   3.316   1.847
 2612TIP3   OH229394   5.934   5.679   1.198
 2612TIP3    H129395   6.027   5.702   1.190
 2612TIP3    H229396   5.933   5.604   1.257
 2613TIP3   OH229397   3.016   6.705   0.451
 2613TIP3    H129398   3.010   6.719   0.545
 2613TIP3    H229399   3.105   6.672   0.437
 2614TIP3   OH229400   0.279   4.096   2.451
 2614TIP3    H129401   0.252   4.172   2.400
 2614TIP3    H229402   0.363   4.070   2.414
 2615TIP3   OH229403   0.532   1.099   7.668
 2615TIP3    H129404   0.620   1.107   7.705
 2615TIP3    H229405   0.527   1.170   7.604
 2616TIP3   OH229406   3.208   4.364   8.290
 2616TIP3    H129407   3.249   4.311   8.221
 2616TIP3    H229408   3.120   4.381   8.258
 2617TIP3   OH229409   1.578   6.475   8.501
 2617TIP3    H129410   1.565   6.410   8.570
 2617TIP3    H229411   1.571   6.559   8.546
 2618TIP3   OH229412   4.807   3.296   7.615
 2618TIP3    H129413   4.770   3.244   7.543
 2618TIP3    H229414   4.808   3.237   7.690
 2619TIP3   OH229415   2.916   3.683   2.200
 2619TIP3    H129416   2.847   3.643   2.147
 2619TIP3    H229417   2.903   3.647   2.288
 2620TIP3   OH229418   5.650   5.489   7.522
 2620TIP3    H129419   5.633   5.422   7.456
 2620TIP3    H229420   5.678   5.566   7.471
 2621TIP3   OH229421   0.718   0.989   2.065
 2621TIP3    H129422   0.792   0.976   2.126
 2621TIP3    H229423   0.737   1.073   2.023
 2622TIP3   OH229424   1.389   3.125   6.404
 2622TIP3    H129425   1.451   3.107   6.475
 2622TIP3    H229426   1.312   3.073   6.425
 2623TIP3   OH229427   0.490   4.433   7.982
 2623TIP3    H129428   0.400   4.404   7.998
 2623TIP3    H229429   0.523   4.374   7.915
 2624TIP3   OH229430   6.728   0.889   8.287
 2624TIP3    H129431   6.743   0.963   8.346
 2624TIP3    H229432   6.811   0.880   8.239
 2625TIP3   OH229433   6.289   3.511   7.737
 2625TIP3    H129434   6.381   3.500   7.763
 2625TIP3    H229435   6.256   3.422   7.726
 2626TIP3   OH229436   5.307   5.567   8.413
 2626TIP3    H129437   5.287   5.661   8.418
 2626TIP3    H229438   5.379   5.561   8.350
 2627TIP3   OH229439   3.250   0.850   2.777
 2627TIP3    H129440   3.243   0.766   2.732
 2627TIP3    H229441   3.344   0.864   2.787
 2628TIP3   OH229442   2.649   2.799   1.712
 2628TIP3    H129443   2.708   2.741   1.760
 2628TIP3    H229444   2.671   2.784   1.620
 2629TIP3   OH229445   4.554   0.430   8.536
 2629TIP3    H129446   4.623   0.490   8.564
 2629TIP3    H229447   4.485   0.440   8.601
 2630TIP3   OH229448   6.583   5.312   6.736
 2630TIP3    H129449   6.570   5.373   6.809
 2630TIP3    H229450   6.619   5.232   6.778
 2631TIP3   OH229451   3.415   6.369   2.413
 2631TIP3    H129452   3.501   6.385   2.375
 2631TIP3    H229453   3.364   6.331   2.341
 2632TIP3   OH229454   6.388   5.065   8.136
 2632TIP3    H129455   6.328   4.996   8.167
 2632TIP3    H229456   6.428   5.028   8.057
 2633TIP3   OH229457   1.338   1.838   1.209
 2633TIP3    H129458   1.409   1.900   1.196
 2633TIP3    H229459   1.374   1.772   1.269
 2634TIP3   OH229460   4.667   0.765   7.019
 2634TIP3    H129461   4.636   0.843   7.064
 2634TIP3    H229462   4.740   0.733   7.072
 2635TIP3   OH229463   5.050   1.881   7.916
 2635TIP3    H129464   5.134   1.873   7.963
 2635TIP3    H229465   5.073   1.875   7.824
 2636TIP3   OH229466   1.798   1.597   0.464
 2636TIP3    H129467   1.851   1.677   0.453
 2636TIP3    H229468   1.714   1.619   0.422
 2637TIP3   OH229469   4.313   0.826   7.061
 2637TIP3    H129470   4.366   0.751   7.086
 2637TIP3    H229471   4.344   0.848   6.973
 2638TIP3   OH229472   1.364   3.635   1.431
 2638TIP3    H129473   1.297   3.689   1.473
 2638TIP3    H229474   1.356   3.655   1.338
 2639TIP3   OH229475   1.714   1.974   7.400
 2639TIP3    H129476   1.644   2.038   7.392
 2639TIP3    H229477   1.793   2.021   7.373
 2640TIP3   OH229478   3.038   1.754   2.128
 2640TIP3    H129479   2.964   1.725   2.180
 2640TIP3    H229480   3.012   1.737   2.037
 2641TIP3   OH229481   3.855   0.568   8.681
 2641TIP3    H129482   3.893   0.649   8.716
 2641TIP3    H229483   3.842   0.586   8.588
 2642TIP3   OH229484   1.363   3.267   7.691
 2642TIP3    H129485   1.457   3.255   7.680
 2642TIP3    H229486   1.335   3.192   7.743
 2643TIP3   OH229487   4.406   5.323   0.208
 2643TIP3    H129488   4.480   5.273   0.174
 2643TIP3    H229489   4.417   5.411   0.172
 2644TIP3   OH229490   3.209   0.773   1.543
 2644TIP3    H129491   3.220   0.865   1.520
 2644TIP3    H229492   3.157   0.736   1.471
 2645TIP3   OH229493   2.580   6.036   1.001
 2645TIP3    H129494   2.594   6.125   1.033
 2645TIP3    H229495   2.623   6.033   0.916
 2646TIP3   OH229496   2.323   0.575   0.403
 2646TIP3    H129497   2.319   0.490   0.448
 2646TIP3    H229498   2.413   0.581   0.371
 2647TIP3   OH229499   4.709   1.548   0.485
 2647TIP3    H129500   4.802   1.570   0.482
 2647TIP3    H229501   4.706   1.453   0.469
 2648TIP3   OH229502   6.209   3.256   2.418
 2648TIP3    H129503   6.114   3.244   2.414
 2648TIP3    H229504   6.227   3.321   2.350
 2649TIP3   OH229505   4.217   4.524   1.614
 2649TIP3    H129506   4.293   4.472   1.637
 2649TIP3    H229507   4.201   4.579   1.691
 2650TIP3   OH229508   3.901   5.495   1.041
 2650TIP3    H129509   3.842   5.449   0.982
 2650TIP3    H229510   3.901   5.586   1.010
 2651TIP3   OH229511   0.718   1.147   0.908
 2651TIP3    H129512   0.765   1.085   0.852
 2651TIP3    H229513   0.651   1.185   0.851
 2652TIP3   OH229514   2.045   2.904   0.070
 2652TIP3    H129515   1.957   2.938   0.082
 2652TIP3    H229516   2.034   2.833   0.007
 2653TIP3   OH229517   2.995   1.354   1.684
 2653TIP3    H129518   2.901   1.344   1.670
 2653TIP3    H229519   3.003   1.388   1.773
 2654TIP3   OH229520   2.131   0.501   1.407
 2654TIP3    H129521   2.193   0.571   1.387
 2654TIP3    H229522   2.158   0.429   1.351
 2655TIP3   OH229523   3.391   0.363   2.531
 2655TIP3    H129524   3.343   0.280   2.537
 2655TIP3    H229525   3.476   0.339   2.495
 2656TIP3   OH229526   4.700   3.594   0.706
 2656TIP3    H129527   4.740   3.675   0.738
 2656TIP3    H229528   4.642   3.566   0.776
 2657TIP3   OH229529   1.075   0.595   8.543
 2657TIP3    H129530   1.090   0.514   8.494
 2657TIP3    H229531   1.131   0.660   8.500
 2658TIP3   OH229532   1.521   3.638   6.412
 2658TIP3    H129533   1.577   3.564   6.388
 2658TIP3    H229534   1.577   3.715   6.401
 2659TIP3   OH229535   5.345   1.828   7.950
 2659TIP3    H129536   5.423   1.804   7.999
 2659TIP3    H229537   5.355   1.923   7.935
 2660TIP3   OH229538   1.084   4.542   1.490
 2660TIP3    H129539   1.118   4.474   1.548
 2660TIP3    H229540   1.149   4.612   1.495
 2661TIP3   OH229541   5.109   1.038   1.935
 2661TIP3    H129542   5.093   0.955   1.890
 2661TIP3    H229543   5.022   1.071   1.956
 2662TIP3   OH229544   2.310   6.131   1.219
 2662TIP3    H129545   2.266   6.138   1.134
 2662TIP3    H229546   2.299   6.039   1.244
 2663TIP3   OH229547   6.804   5.122   7.622
 2663TIP3    H129548   6.720   5.100   7.582
 2663TIP3    H229549   6.810   5.064   7.698
 2664TIP3   OH229550   5.007   5.619   2.124
 2664TIP3    H129551   5.085   5.564   2.123
 2664TIP3    H229552   5.019   5.680   2.050
 2665TIP3   OH229553   2.852   0.132   2.025
 2665TIP3    H129554   2.784   0.163   2.086
 2665TIP3    H229555   2.807   0.127   1.941
 2666TIP3   OH229556   2.458   2.812   8.549
 2666TIP3    H129557   2.486   2.797   8.640
 2666TIP3    H229558   2.512   2.752   8.498
 2667TIP3   OH229559   4.504   2.727   0.614
 2667TIP3    H129560   4.452   2.748   0.692
 2667TIP3    H229561   4.546   2.809   0.591
 2668TIP3   OH229562   0.928   6.377   7.777
 2668TIP3    H129563   0.987   6.431   7.831
 2668TIP3    H229564   0.944   6.407   7.688
 2669TIP3   OH229565   4.935   5.086   7.476
 2669TIP3    H129566   4.992   5.056   7.546
 2669TIP3    H229567   4.912   5.007   7.428
 2670TIP3   OH229568   1.900   3.563   7.098
 2670TIP3    H129569   1.877   3.628   7.164
 2670TIP3    H229570   1.898   3.610   7.015
 2671TIP3   OH229571   5.248   4.873   1.117
 2671TIP3    H129572   5.323   4.914   1.074
 2671TIP3    H229573   5.253   4.904   1.207
 2672TIP3   OH229574   4.019   1.443   1.310
 2672TIP3    H129575   3.970   1.367   1.339
 2672TIP3    H229576   3.953   1.510   1.292
 2673TIP3   OH229577   2.682   3.494   7.638
 2673TIP3    H129578   2.632   3.510   7.557
 2673TIP3    H229579   2.734   3.573   7.650
 2674TIP3   OH229580   6.345   3.151   7.277
 2674TIP3    H129581   6.404   3.104   7.217
 2674TIP3    H229582   6.370   3.120   7.364
 2675TIP3   OH229583   0.013   2.517   1.617
 2675TIP3    H129584   6.806   2.561   1.538
 2675TIP3    H229585   0.071   2.449   1.585
 2676TIP3   OH229586   3.538   6.014   0.159
 2676TIP3    H129587   3.591   6.030   0.238
 2676TIP3    H229588   3.589   6.053   0.088
 2677TIP3   OH229589   3.289   5.671   1.438
 2677TIP3    H129590   3.332   5.757   1.436
 2677TIP3    H229591   3.282   5.646   1.346
 2678TIP3   OH229592   6.280   0.157   8.355
 2678TIP3    H129593   6.323   0.071   8.357
 2678TIP3    H229594   6.194   0.141   8.393
 2679TIP3   OH229595   5.893   6.061   7.782
 2679TIP3    H129596   5.839   5.993   7.742
 2679TIP3    H229597   5.836   6.102   7.847
 2680TIP3   OH229598   0.483   5.164   0.571
 2680TIP3    H129599   0.489   5.178   0.665
 2680TIP3    H229600   0.442   5.078   0.562
 2681TIP3   OH229601   3.252   3.507   7.618
 2681TIP3    H129602   3.265   3.498   7.524
 2681TIP3    H229603   3.312   3.577   7.644
 2682TIP3   OH229604   4.450   3.515   8.412
 2682TIP3    H129605   4.503   3.504   8.491
 2682TIP3    H229606   4.395   3.436   8.408
 2683TIP3   OH229607   6.142   6.635   7.800
 2683TIP3    H129608   6.096   6.630   7.884
 2683TIP3    H229609   6.074   6.617   7.735
 2684TIP3   OH229610   3.979   4.719   6.588
 2684TIP3    H129611   4.035   4.667   6.645
 2684TIP3    H229612   3.942   4.787   6.645
 2685TIP3   OH229613   2.468   6.503   2.361
 2685TIP3    H129614   2.430   6.420   2.386
 2685TIP3    H229615   2.491   6.493   2.268
 2686TIP3   OH229616   6.785   0.351   1.579
 2686TIP3    H129617   0.017   0.321   1.650
 2686TIP3    H229618   6.797   0.446   1.578
 2687TIP3   OH229619   0.189   6.414   0.761
 2687TIP3    H129620   0.099   6.383   0.772
 2687TIP3    H229621   0.243   6.342   0.792
 2688TIP3   OH229622   4.243   5.809   7.693
 2688TIP3    H129623   4.208   5.722   7.713
 2688TIP3    H229624   4.337   5.800   7.704
 2689TIP3   OH229625   3.646   2.435   2.354
 2689TIP3    H129626   3.562   2.460   2.391
 2689TIP3    H229627   3.625   2.402   2.266
 2690TIP3   OH229628   1.105   1.571   8.176
 2690TIP3    H129629   1.094   1.657   8.136
 2690TIP3    H229630   1.116   1.590   8.269
 2691TIP3   OH229631   4.864   5.457   7.721
 2691TIP3    H129632   4.797   5.490   7.661
 2691TIP3    H229633   4.887   5.532   7.775
 2692TIP3   OH229634   1.492   4.622   6.820
 2692TIP3    H129635   1.536   4.620   6.735
 2692TIP3    H229636   1.474   4.530   6.840
 2693TIP3   OH229637   3.130   2.196   2.514
 2693TIP3    H129638   3.073   2.269   2.536
 2693TIP3    H229639   3.207   2.237   2.474
 2694TIP3   OH229640   3.040   5.652   6.497
 2694TIP3    H129641   3.007   5.740   6.478
 2694TIP3    H229642   3.006   5.632   6.584
 2695TIP3   OH229643   1.552   5.118   1.169
 2695TIP3    H129644   1.498   5.144   1.244
 2695TIP3    H229645   1.585   5.032   1.192
 2696TIP3   OH229646   4.863   1.725   2.552
 2696TIP3    H129647   4.921   1.795   2.520
 2696TIP3    H229648   4.834   1.756   2.637
 2697TIP3   OH229649   3.856   1.775   8.753
 2697TIP3    H129650   3.944   1.775   0.010
 2697TIP3    H229651   3.866   1.820   8.669
 2698TIP3   OH229652   4.709   6.684   7.944
 2698TIP3    H129653   4.801   6.687   7.919
 2698TIP3    H229654   4.686   6.591   7.939
 2699TIP3   OH229655   3.368   3.436   7.367
 2699TIP3    H129656   3.449   3.412   7.412
 2699TIP3    H229657   3.388   3.424   7.274
 2700TIP3   OH229658   0.782   0.049   7.326
 2700TIP3    H129659   0.819   0.083   7.244
 2700TIP3    H229660   0.699   0.094   7.335
 2701TIP3   OH229661   6.052   5.008   0.990
 2701TIP3    H129662   6.011   4.923   0.975
 2701TIP3    H229663   6.111   4.994   1.064
 2702TIP3   OH229664   4.863   6.662   6.157
 2702TIP3    H129665   4.806   6.689   6.085
 2702TIP3    H229666   4.894   6.575   6.131
 2703TIP3   OH229667   3.500   2.954   7.778
 2703TIP3    H129668   3.561   2.881   7.772
 2703TIP3    H229669   3.530   3.004   7.853
 2704TIP3   OH229670   1.793   4.224   8.236
 2704TIP3    H129671   1.805   4.284   8.163
 2704TIP3    H229672   1.846   4.148   8.213
 2705TIP3   OH229673   2.479   3.266   1.382
 2705TIP3    H129674   2.423   3.266   1.459
 2705TIP3    H229675   2.438   3.204   1.321
 2706TIP3   OH229676   1.586   4.148   8.400
 2706TIP3    H129677   1.648   4.197   8.345
 2706TIP3    H229678   1.595   4.057   8.371
 2707TIP3   OH229679   2.975   0.934   8.274
 2707TIP3    H129680   2.886   0.966   8.289
 2707TIP3    H229681   2.967   0.839   8.275
 2708TIP3   OH229682   5.531   6.135   7.170
 2708TIP3    H129683   5.600   6.191   7.136
 2708TIP3    H229684   5.575   6.082   7.237
 2709TIP3   OH229685   3.197   0.534   8.270
 2709TIP3    H129686   3.281   0.488   8.272
 2709TIP3    H229687   3.215   0.618   8.312
 2710TIP3   OH229688   4.081   6.153   7.806
 2710TIP3    H129689   4.056   6.210   7.879
 2710TIP3    H229690   4.129   6.210   7.746
 2711TIP3   OH229691   3.669   4.415   2.205
 2711TIP3    H129692   3.699   4.336   2.249
 2711TIP3    H229693   3.581   4.393   2.173
 2712TIP3   OH229694   5.415   5.991   1.692
 2712TIP3    H129695   5.324   5.961   1.696
 2712TIP3    H229696   5.453   5.964   1.775
 2713TIP3   OH229697   5.280   3.269   1.611
 2713TIP3    H129698   5.256   3.188   1.656
 2713TIP3    H229699   5.335   3.240   1.538
 2714TIP3   OH229700   0.296   2.686   0.840
 2714TIP3    H129701   0.263   2.614   0.893
 2714TIP3    H229702   0.346   2.645   0.770
 2715TIP3   OH229703   4.768   0.394   7.236
 2715TIP3    H129704   4.743   0.409   7.327
 2715TIP3    H229705   4.706   0.329   7.204
 2716TIP3   OH229706   6.238   5.692   0.967
 2716TIP3    H129707   6.174   5.668   0.900
 2716TIP3    H229708   6.202   5.770   1.009
 2717TIP3   OH229709   5.000   5.902   8.287
 2717TIP3    H129710   4.942   5.845   8.336
 2717TIP3    H229711   4.962   5.990   8.297
 2718TIP3   OH229712   2.153   6.527   6.807
 2718TIP3    H129713   2.104   6.447   6.790
 2718TIP3    H229714   2.101   6.596   6.765
 2719TIP3   OH229715   2.587   5.528   8.371
 2719TIP3    H129716   2.571   5.437   8.347
 2719TIP3    H229717   2.672   5.526   8.415
 2720TIP3   OH229718   2.710   3.910   0.388
 2720TIP3    H129719   2.697   3.815   0.396
 2720TIP3    H229720   2.676   3.931   0.301
 2721TIP3   OH229721   4.828   1.445   7.777
 2721TIP3    H129722   4.862   1.534   7.781
 2721TIP3    H229723   4.905   1.391   7.758
 2722TIP3   OH229724   5.087   0.393   0.759
 2722TIP3    H129725   5.124   0.383   0.671
 2722TIP3    H229726   5.131   0.325   0.811
 2723TIP3   OH229727   2.463   0.399   1.402
 2723TIP3    H129728   2.441   0.488   1.429
 2723TIP3    H229729   2.550   0.407   1.362
 2724TIP3   OH229730   2.146   6.394   8.177
 2724TIP3    H129731   2.056   6.419   8.155
 2724TIP3    H229732   2.189   6.476   8.201
 2725TIP3   OH229733   1.908   1.172   1.737
 2725TIP3    H129734   1.891   1.261   1.706
 2725TIP3    H229735   1.959   1.184   1.817
 2726TIP3   OH229736   4.924   2.900   2.485
 2726TIP3    H129737   4.946   2.853   2.565
 2726TIP3    H229738   4.841   2.861   2.457
 2727TIP3   OH229739   2.571   2.867   6.998
 2727TIP3    H129740   2.586   2.961   6.990
 2727TIP3    H229741   2.491   2.851   6.948
 2728TIP3   OH229742   0.216   1.561   0.164
 2728TIP3    H129743   0.136   1.598   0.200
 2728TIP3    H229744   0.212   1.580   0.070
 2729TIP3   OH229745   4.220   1.933   2.233
 2729TIP3    H129746   4.133   1.896   2.221
 2729TIP3    H229747   4.275   1.857   2.254
 2730TIP3   OH229748   4.855   0.162   7.842
 2730TIP3    H129749   4.883   0.081   7.800
 2730TIP3    H229750   4.760   0.164   7.830
 2731TIP3   OH229751   5.586   0.297   8.384
 2731TIP3    H129752   5.529   0.258   8.318
 2731TIP3    H229753   5.539   0.287   8.466
 2732TIP3   OH229754   1.029   3.142   8.354
 2732TIP3    H129755   1.008   3.235   8.341
 2732TIP3    H229756   1.082   3.118   8.278
 2733TIP3   OH229757   4.393   4.350   2.675
 2733TIP3    H129758   4.333   4.318   2.607
 2733TIP3    H229759   4.480   4.320   2.646
 2734TIP3   OH229760   5.171   6.272   8.324
 2734TIP3    H129761   5.255   6.303   8.290
 2734TIP3    H229762   5.193   6.228   8.406
 2735TIP3   OH229763   2.509   0.528   1.737
 2735TIP3    H129764   2.493   0.592   1.667
 2735TIP3    H229765   2.477   0.571   1.816
 2736TIP3   OH229766   1.768   5.919   8.031
 2736TIP3    H129767   1.820   5.987   8.074
 2736TIP3    H229768   1.711   5.886   8.101
 2737TIP3   OH229769   6.024   1.711   7.180
 2737TIP3    H129770   5.942   1.662   7.171
 2737TIP3    H229771   6.004   1.778   7.246
 2738TIP3   OH229772   1.524   0.186   0.596
 2738TIP3    H129773   1.468   0.133   0.653
 2738TIP3    H229774   1.509   0.276   0.626
 2739TIP3   OH229775   0.600   5.578   0.657
 2739TIP3    H129776   0.578   5.670   0.668
 2739TIP3    H229777   0.686   5.568   0.697
 2740TIP3   OH229778   3.291   2.873   7.950
 2740TIP3    H129779   3.334   2.808   8.006
 2740TIP3    H229780   3.351   2.884   7.876
 2741TIP3   OH229781   3.255   6.586   8.063
 2741TIP3    H129782   3.184   6.547   8.012
 2741TIP3    H229783   3.229   6.677   8.075
 2742TIP3   OH229784   3.440   6.753   7.163
 2742TIP3    H129785   3.520   6.767   7.213
 2742TIP3    H229786   3.426   6.658   7.167
 2743TIP3   OH229787   5.680   3.805   0.112
 2743TIP3    H129788   5.686   3.897   0.086
 2743TIP3    H229789   5.749   3.762   0.063
 2744TIP3   OH229790   2.467   5.351   1.796
 2744TIP3    H129791   2.396   5.328   1.856
 2744TIP3    H229792   2.488   5.269   1.752
 2745TIP3   OH229793   2.277   0.072   1.836
 2745TIP3    H129794   2.328   0.151   1.821
 2745TIP3    H229795   2.189   0.104   1.857
 2746TIP3   OH229796   2.711   4.761   6.572
 2746TIP3    H129797   2.784   4.794   6.625
 2746TIP3    H229798   2.724   4.666   6.570
 2747TIP3   OH229799   5.266   5.909   2.166
 2747TIP3    H129800   5.318   5.947   2.237
 2747TIP3    H229801   5.175   5.927   2.190
 2748TIP3   OH229802   2.478   5.705   7.773
 2748TIP3    H129803   2.564   5.746   7.783
 2748TIP3    H229804   2.423   5.773   7.734
 2749TIP3   OH229805   4.428   4.793   8.434
 2749TIP3    H129806   4.336   4.767   8.438
 2749TIP3    H229807   4.469   4.729   8.376
 2750TIP3   OH229808   3.846   0.606   1.629
 2750TIP3    H129809   3.849   0.651   1.544
 2750TIP3    H229810   3.765   0.636   1.669
 2751TIP3   OH229811   0.024   2.159   2.195
 2751TIP3    H129812   0.041   2.073   2.158
 2751TIP3    H229813   0.109   2.203   2.195
 2752TIP3   OH229814   1.148   0.284   7.547
 2752TIP3    H129815   1.097   0.214   7.506
 2752TIP3    H229816   1.086   0.355   7.561
 2753TIP3   OH229817   2.556   5.049   8.762
 2753TIP3    H129818   2.510   5.123   8.724
 2753TIP3    H229819   2.648   5.066   8.745
 2754TIP3   OH229820   6.107   6.752   2.601
 2754TIP3    H129821   6.153   6.708   2.529
 2754TIP3    H229822   6.084   0.013   2.565
 2755TIP3   OH229823   4.353   3.846   2.065
 2755TIP3    H129824   4.386   3.904   2.134
 2755TIP3    H229825   4.286   3.793   2.107
 2756TIP3   OH229826   0.691   0.011   1.141
 2756TIP3    H129827   0.753   0.083   1.144
 2756TIP3    H229828   0.727   6.776   1.075
 2757TIP3   OH229829   4.821   2.117   8.407
 2757TIP3    H129830   4.785   2.155   8.327
 2757TIP3    H229831   4.756   2.051   8.434
 2758TIP3   OH229832   3.949   2.054   6.719
 2758TIP3    H129833   4.031   2.099   6.742
 2758TIP3    H229834   3.975   1.962   6.709
 2759TIP3   OH229835   2.233   0.808   0.554
 2759TIP3    H129836   2.257   0.738   0.493
 2759TIP3    H229837   2.196   0.763   0.629
 2760TIP3   OH229838   3.115   0.385   1.505
 2760TIP3    H129839   3.066   0.345   1.577
 2760TIP3    H229840   3.121   0.478   1.529
 2761TIP3   OH229841   1.175   4.055   0.712
 2761TIP3    H129842   1.166   3.966   0.745
 2761TIP3    H229843   1.104   4.064   0.647
 2762TIP3   OH229844   6.778   4.614   8.430
 2762TIP3    H129845   0.013   4.687   8.436
 2762TIP3    H229846   6.811   4.562   8.356
 2763TIP3   OH229847   4.049   6.105   8.727
 2763TIP3    H129848   4.131   6.092   8.679
 2763TIP3    H229849   4.056   6.048   0.022
 2764TIP3   OH229850   6.134   6.388   1.486
 2764TIP3    H129851   6.215   6.399   1.535
 2764TIP3    H229852   6.066   6.377   1.553
 2765TIP3   OH229853   1.967   6.687   2.557
 2765TIP3    H129854   2.018   6.702   2.637
 2765TIP3    H229855   1.877   6.707   2.582
 2766TIP3   OH229856   3.296   0.795   7.729
 2766TIP3    H129857   3.217   0.764   7.773
 2766TIP3    H229858   3.319   0.876   7.774
 2767TIP3   OH229859   5.550   2.121   1.815
 2767TIP3    H129860   5.625   2.176   1.793
 2767TIP3    H229861   5.478   2.183   1.830
 2768TIP3   OH229862   2.365   3.985   7.887
 2768TIP3    H129863   2.442   4.029   7.849
 2768TIP3    H229864   2.337   4.043   7.958
 2769TIP3   OH229865   0.320   1.366   8.172
 2769TIP3    H129866   0.345   1.406   8.255
 2769TIP3    H229867   0.404   1.352   8.126
 2770TIP3   OH229868   1.916   0.523   7.088
 2770TIP3    H129869   2.004   0.508   7.054
 2770TIP3    H229870   1.881   0.596   7.035
 2771TIP3   OH229871   4.608   2.342   7.601
 2771TIP3    H129872   4.559   2.265   7.630
 2771TIP3    H229873   4.550   2.416   7.621
 2772TIP3   OH229874   1.927   4.575   1.711
 2772TIP3    H129875   1.851   4.617   1.671
 2772TIP3    H229876   1.960   4.515   1.644
 2773TIP3   OH229877   5.814   5.408   2.067
 2773TIP3    H129878   5.736   5.368   2.105
 2773TIP3    H229879   5.838   5.350   1.994
 2774TIP3   OH229880   0.944   1.842   7.516
 2774TIP3    H129881   0.853   1.872   7.512
 2774TIP3    H229882   0.982   1.893   7.587
 2775TIP3   OH229883   3.756   0.565   7.732
 2775TIP3    H129884   3.784   0.650   7.766
 2775TIP3    H229885   3.674   0.547   7.777
 2776TIP3   OH229886   5.184   3.004   1.758
 2776TIP3    H129887   5.164   3.004   1.851
 2776TIP3    H229888   5.152   2.919   1.727
 2777TIP3   OH229889   1.114   4.687   0.485
 2777TIP3    H129890   1.164   4.623   0.435
 2777TIP3    H229891   1.181   4.744   0.523
 2778TIP3   OH229892   2.295   0.822   0.979
 2778TIP3    H129893   2.240   0.758   0.934
 2778TIP3    H229894   2.356   0.852   0.912
 2779TIP3   OH229895   5.968   1.859   6.818
 2779TIP3    H129896   5.917   1.920   6.766
 2779TIP3    H229897   5.974   1.780   6.764
 2780TIP3   OH229898   4.589   1.755   1.030
 2780TIP3    H129899   4.558   1.670   1.060
 2780TIP3    H229900   4.524   1.817   1.065
 2781TIP3   OH229901   1.648   4.564   0.487
 2781TIP3    H129902   1.656   4.639   0.547
 2781TIP3    H229903   1.638   4.604   0.400
 2782TIP3   OH229904   5.805   0.603   1.608
 2782TIP3    H129905   5.822   0.673   1.671
 2782TIP3    H229906   5.751   0.540   1.656
 2783TIP3   OH229907   2.922   0.819   0.804
 2783TIP3    H129908   2.949   0.889   0.743
 2783TIP3    H229909   2.889   0.750   0.747
 2784TIP3   OH229910   0.655   2.399   8.452
 2784TIP3    H129911   0.649   2.422   8.359
 2784TIP3    H229912   0.569   2.420   8.487
 2785TIP3   OH229913   2.973   6.159   0.334
 2785TIP3    H129914   3.014   6.241   0.360
 2785TIP3    H229915   3.035   6.091   0.363
 2786TIP3   OH229916   4.381   0.535   6.790
 2786TIP3    H129917   4.423   0.610   6.832
 2786TIP3    H229918   4.436   0.460   6.814
 2787TIP3   OH229919   4.004   6.603   8.119
 2787TIP3    H129920   4.048   6.677   8.075
 2787TIP3    H229921   3.998   6.630   8.211
 2788TIP3   OH229922   1.443   0.818   1.664
 2788TIP3    H129923   1.521   0.781   1.623
 2788TIP3    H229924   1.430   0.765   1.743
 2789TIP3   OH229925   0.747   5.164   1.765
 2789TIP3    H129926   0.690   5.088   1.774
 2789TIP3    H229927   0.728   5.199   1.677
 2790TIP3   OH229928   3.281   0.643   2.061
 2790TIP3    H129929   3.238   0.711   2.113
 2790TIP3    H229930   3.300   0.574   2.124
 2791TIP3   OH229931   2.226   3.799   0.645
 2791TIP3    H129932   2.148   3.822   0.696
 2791TIP3    H229933   2.299   3.810   0.706
 2792TIP3   OH229934   2.605   2.981   1.396
 2792TIP3    H129935   2.575   3.003   1.308
 2792TIP3    H229936   2.582   3.057   1.449
 2793TIP3   OH229937   4.223   5.275   8.323
 2793TIP3    H129938   4.186   5.221   8.252
 2793TIP3    H229939   4.292   5.325   8.280
 2794TIP3   OH229940   1.036   3.666   7.774
 2794TIP3    H129941   1.073   3.715   7.701
 2794TIP3    H229942   1.107   3.608   7.802
 2795TIP3   OH229943   5.002   6.348   0.035
 2795TIP3    H129944   4.960   6.413   0.091
 2795TIP3    H229945   4.941   6.275   0.032
 2796TIP3   OH229946   1.639   1.921   0.144
 2796TIP3    H129947   1.728   1.930   0.178
 2796TIP3    H229948   1.645   1.947   0.052
 2797TIP3   OH229949   5.139   3.736   2.072
 2797TIP3    H129950   5.193   3.805   2.111
 2797TIP3    H229951   5.069   3.783   2.027
 2798TIP3   OH229952   6.618   0.688   0.030
 2798TIP3    H129953   6.563   0.689   0.108
 2798TIP3    H229954   6.708   0.697   0.063
 2799TIP3   OH229955   3.416   3.095   7.565
 2799TIP3    H129956   3.458   3.084   7.650
 2799TIP3    H229957   3.342   3.154   7.582
 2800TIP3   OH229958   2.958   3.714   0.385
 2800TIP3    H129959   2.881   3.658   0.396
 2800TIP3    H229960   2.937   3.768   0.308
 2801TIP3   OH229961   6.692   2.404   7.380
 2801TIP3    H129962   6.652   2.480   7.338
 2801TIP3    H229963   6.619   2.362   7.426
 2802TIP3   OH229964   0.864   5.365   6.845
 2802TIP3    H129965   0.856   5.279   6.804
 2802TIP3    H229966   0.932   5.354   6.911
 2803TIP3   OH229967   1.135   0.839   8.408
 2803TIP3    H129968   1.221   0.878   8.398
 2803TIP3    H229969   1.096   0.844   8.320
 2804TIP3   OH229970   3.742   1.613   8.072
 2804TIP3    H129971   3.761   1.705   8.050
 2804TIP3    H229972   3.748   1.566   7.989
 2805TIP3   OH229973   4.679   6.716   0.607
 2805TIP3    H129974   4.589   6.705   0.576
 2805TIP3    H229975   4.692   6.646   0.671
 2806TIP3   OH229976   4.976   3.412   0.204
 2806TIP3    H129977   5.040   3.469   0.161
 2806TIP3    H229978   4.956   3.457   0.286
 2807TIP3   OH229979   3.398   3.978   0.129
 2807TIP3    H129980   3.476   4.031   0.112
 2807TIP3    H229981   3.425   3.889   0.109
 2808TIP3   OH229982   3.273   1.520   0.281
 2808TIP3    H129983   3.294   1.442   0.332
 2808TIP3    H229984   3.358   1.556   0.256
 2809TIP3   OH229985   4.006   2.614   7.815
 2809TIP3    H129986   4.039   2.645   7.731
 2809TIP3    H229987   3.967   2.529   7.795
 2810TIP3   OH229988   0.817   4.856   0.832
 2810TIP3    H129989   0.851   4.935   0.789
 2810TIP3    H229990   0.888   4.792   0.824
 2811TIP3   OH229991   1.371   1.378   8.240
 2811TIP3    H129992   1.382   1.370   8.146
 2811TIP3    H229993   1.459   1.398   8.274
 2812TIP3   OH229994   6.103   5.323   8.514
 2812TIP3    H129995   6.029   5.332   8.454
 2812TIP3    H229996   6.179   5.312   8.458
 2813TIP3   OH229997   0.191   3.214   1.597
 2813TIP3    H129998   0.230   3.268   1.528
 2813TIP3    H229999   0.246   3.135   1.600
 2814TIP3   OH230000   4.063   0.821   2.130
 2814TIP3    H130001   4.026   0.823   2.218
 2814TIP3    H230002   4.079   0.913   2.108
 2815TIP3   OH230003   6.237   0.850   0.812
 2815TIP3    H130004   6.152   0.805   0.818
 2815TIP3    H230005   6.300   0.787   0.847
 2816TIP3   OH230006   3.973   0.540   8.140
 2816TIP3    H130007   3.929   0.570   8.220
 2816TIP3    H230008   4.060   0.579   8.145
 2817TIP3   OH230009   6.372   5.533   1.129
 2817TIP3    H130010   6.308   5.567   1.067
 2817TIP3    H230011   6.420   5.466   1.081
 2818TIP3   OH230012   2.134   2.970   7.015
 2818TIP3    H130013   2.057   3.014   6.978
 2818TIP3    H230014   2.206   3.030   6.997
 2819TIP3   OH230015   1.463   4.025   1.281
 2819TIP3    H130016   1.481   4.106   1.234
 2819TIP3    H230017   1.454   4.052   1.373
 2820TIP3   OH230018   1.672   0.924   0.160
 2820TIP3    H130019   1.581   0.916   0.188
 2820TIP3    H230020   1.703   0.834   0.153
 2821TIP3   OH230021   3.626   0.601   0.478
 2821TIP3    H130022   3.632   0.655   0.399
 2821TIP3    H230023   3.607   0.663   0.549
 2822TIP3   OH230024   6.019   3.911   1.052
 2822TIP3    H130025   6.058   3.843   0.997
 2822TIP3    H230026   6.048   3.993   1.013
 2823TIP3   OH230027   5.640   1.840   0.418
 2823TIP3    H130028   5.658   1.931   0.440
 2823TIP3    H230029   5.572   1.814   0.480
 2824TIP3   OH230030   1.955   0.561   6.767
 2824TIP3    H130031   2.018   0.538   6.699
 2824TIP3    H230032   2.009   0.589   6.841
 2825TIP3   OH230033   5.927   1.742   1.690
 2825TIP3    H130034   5.960   1.654   1.709
 2825TIP3    H230035   5.835   1.739   1.714
 2826TIP3   OH230036   4.417   0.970   1.652
 2826TIP3    H130037   4.509   0.943   1.652
 2826TIP3    H230038   4.398   0.986   1.559
 2827TIP3   OH230039   3.974   4.660   7.043
 2827TIP3    H130040   3.921   4.651   6.963
 2827TIP3    H230041   4.052   4.607   7.025
 2828TIP3   OH230042   1.248   2.127   8.019
 2828TIP3    H130043   1.296   2.187   8.076
 2828TIP3    H230044   1.260   2.163   7.931
 2829TIP3   OH230045   0.223   2.773   1.663
 2829TIP3    H130046   0.275   2.853   1.656
 2829TIP3    H230047   0.223   2.737   1.575
 2830TIP3   OH230048   5.396   0.304   8.639
 2830TIP3    H130049   5.311   0.314   8.683
 2830TIP3    H230050   5.447   0.249   8.699
 2831TIP3   OH230051   1.901   1.699   0.099
 2831TIP3    H130052   1.853   1.619   0.077
 2831TIP3    H230053   1.985   1.668   0.132
 2832TIP3   OH230054   5.515   5.200   7.775
 2832TIP3    H130055   5.425   5.175   7.794
 2832TIP3    H230056   5.546   5.134   7.714
 2833TIP3   OH230057   4.295   6.645   6.890
 2833TIP3    H130058   4.373   6.691   6.859
 2833TIP3    H230059   4.234   6.649   6.817
 2834TIP3   OH230060   6.823   2.465   0.712
 2834TIP3    H130061   0.080   2.480   0.665
 2834TIP3    H230062   6.814   2.370   0.716
 2835TIP3   OH230063   2.232   0.111   8.537
 2835TIP3    H130064   2.222   0.047   8.607
 2835TIP3    H230065   2.309   0.082   8.488
 2836TIP3   OH230066   2.063   6.724   1.381
 2836TIP3    H130067   2.127   6.736   1.310
 2836TIP3    H230068   1.988   6.684   1.338
 2837TIP3   OH230069   2.867   2.619   7.673
 2837TIP3    H130070   2.887   2.565   7.597
 2837TIP3    H230071   2.951   2.629   7.718
 2838TIP3   OH230072   1.433   0.363   8.497
 2838TIP3    H130073   1.427   0.420   8.574
 2838TIP3    H230074   1.497   0.405   8.440
 2839TIP3   OH230075   4.664   3.847   1.163
 2839TIP3    H130076   4.708   3.901   1.229
 2839TIP3    H230077   4.612   3.785   1.213
 2840TIP3   OH230078   2.531   6.482   1.993
 2840TIP3    H130079   2.538   6.408   2.055
 2840TIP3    H230080   2.541   6.442   1.907
 2841TIP3   OH230081   0.492   4.062   0.408
 2841TIP3    H130082   0.483   4.027   0.320
 2841TIP3    H230083   0.405   4.095   0.430
 2842TIP3   OH230084   1.516   4.349   6.858
 2842TIP3    H130085   1.589   4.300   6.820
 2842TIP3    H230086   1.493   4.299   6.937
 2843TIP3   OH230087   0.442   4.688   0.678
 2843TIP3    H130088   0.503   4.675   0.750
 2843TIP3    H230089   0.465   4.620   0.614
 2844TIP3   OH230090   6.181   2.768   2.305
 2844TIP3    H130091   6.109   2.722   2.347
 2844TIP3    H230092   6.252   2.704   2.304
 2845TIP3   OH230093   6.341   4.623   0.979
 2845TIP3    H130094   6.395   4.544   0.978
 2845TIP3    H230095   6.253   4.592   1.000
 2846TIP3   OH230096   3.899   1.123   8.304
 2846TIP3    H130097   3.890   1.042   8.354
 2846TIP3    H230098   3.864   1.191   8.362
 2847TIP3   OH230099   3.744   6.156   8.131
 2847TIP3    H130100   3.776   6.069   8.106
 2847TIP3    H230101   3.780   6.170   8.219
 2848TIP3   OH230102   2.412   2.578   7.323
 2848TIP3    H130103   2.488   2.526   7.350
 2848TIP3    H230104   2.448   2.664   7.302
 2849TIP3   OH230105   5.180   3.902   0.067
 2849TIP3    H130106   5.262   3.894   0.117
 2849TIP3    H230107   5.194   3.848   8.770
 2850TIP3   OH230108   1.015   6.124   1.584
 2850TIP3    H130109   0.975   6.211   1.579
 2850TIP3    H230110   1.098   6.139   1.630
 2851TIP3   OH230111   6.107   5.987   6.776
 2851TIP3    H130112   6.192   5.979   6.820
 2851TIP3    H230113   6.119   5.944   6.692
 2852TIP3   OH230114   6.260   5.191   1.419
 2852TIP3    H130115   6.205   5.146   1.482
 2852TIP3    H230116   6.240   5.284   1.432
 2853TIP3   OH230117   3.590   1.195   8.528
 2853TIP3    H130118   3.507   1.243   8.523
 2853TIP3    H230119   3.564   1.104   8.537
 2854TIP3   OH230120   1.345   5.476   2.480
 2854TIP3    H130121   1.361   5.397   2.429
 2854TIP3    H230122   1.431   5.518   2.486
 2855TIP3   OH230123   5.763   4.030   1.302
 2855TIP3    H130124   5.800   3.965   1.362
 2855TIP3    H230125   5.725   4.097   1.359
 2856TIP3   OH230126   6.220   4.630   7.042
 2856TIP3    H130127   6.221   4.709   6.987
 2856TIP3    H230128   6.158   4.572   6.999
 2857TIP3   OH230129   3.719   2.266   7.144
 2857TIP3    H130130   3.760   2.236   7.063
 2857TIP3    H230131   3.625   2.267   7.125
 2858TIP3   OH230132   6.743   6.397   7.737
 2858TIP3    H130133   6.662   6.382   7.786
 2858TIP3    H230134   6.796   6.320   7.757
 2859TIP3   OH230135   6.573   5.016   8.477
 2859TIP3    H130136   6.599   5.046   8.565
 2859TIP3    H230137   6.651   5.030   8.423
 2860TIP3   OH230138   2.723   4.837   1.782
 2860TIP3    H130139   2.769   4.785   1.847
 2860TIP3    H230140   2.784   4.843   1.708
 2861TIP3   OH230141   4.066   4.682   0.097
 2861TIP3    H130142   4.149   4.729   0.104
 2861TIP3    H230143   4.076   4.606   0.155
 2862TIP3   OH230144   4.139   0.261   7.495
 2862TIP3    H130145   4.178   0.256   7.582
 2862TIP3    H230146   4.188   0.198   7.442
 2863TIP3   OH230147   6.215   5.009   2.459
 2863TIP3    H130148   6.154   5.071   2.499
 2863TIP3    H230149   6.161   4.955   2.401
 2864TIP3   OH230150   1.482   5.822   2.375
 2864TIP3    H130151   1.520   5.745   2.418
 2864TIP3    H230152   1.478   5.799   2.282
 2865TIP3   OH230153   5.302   4.409   2.045
 2865TIP3    H130154   5.370   4.466   2.081
 2865TIP3    H230155   5.224   4.430   2.097
 2866TIP3   OH230156   4.443   5.038   8.206
 2866TIP3    H130157   4.354   5.070   8.189
 2866TIP3    H230158   4.450   5.038   8.301
 2867TIP3   OH230159   1.351   6.103   1.318
 2867TIP3    H130160   1.391   6.042   1.381
 2867TIP3    H230161   1.425   6.152   1.283
 2868TIP3   OH230162   5.703   0.038   0.846
 2868TIP3    H130163   5.757   0.104   0.890
 2868TIP3    H230164   5.681   6.800   0.916
 2869TIP3   OH230165   1.625   3.891   8.323
 2869TIP3    H130166   1.530   3.880   8.315
 2869TIP3    H230167   1.658   3.876   8.234
 2870TIP3   OH230168   1.934   0.099   6.980
 2870TIP3    H130169   1.904   0.159   7.048
 2870TIP3    H230170   1.999   0.149   6.931
 2871TIP3   OH230171   1.258   5.839   0.594
 2871TIP3    H130172   1.250   5.931   0.569
 2871TIP3    H230173   1.312   5.840   0.673
 2872TIP3   OH230174   3.952   1.369   0.776
 2872TIP3    H130175   3.984   1.429   0.842
 2872TIP3    H230176   3.959   1.417   0.694
 2873TIP3   OH230177   3.883   6.496   7.718
 2873TIP3    H130178   3.847   6.416   7.680
 2873TIP3    H230179   3.826   6.515   7.792
 2874TIP3   OH230180   2.239   0.610   7.785
 2874TIP3    H130181   2.324   0.573   7.762
 2874TIP3    H230182   2.235   0.603   7.881
 2875TIP3   OH230183   6.359   5.954   6.930
 2875TIP3    H130184   6.402   5.869   6.924
 2875TIP3    H230185   6.356   5.973   7.024
 2876TIP3   OH230186   6.672   4.548   0.021
 2876TIP3    H130187   6.630   4.631   0.044
 2876TIP3    H230188   6.647   4.489   0.092
 2877TIP3   OH230189   4.991   2.169   0.080
 2877TIP3    H130190   5.016   2.177   8.769
 2877TIP3    H230191   4.942   2.249   0.099
 2878TIP3   OH230192   5.079   6.126   6.213
 2878TIP3    H130193   5.113   6.168   6.292
 2878TIP3    H230194   5.005   6.073   6.244
 2879TIP3   OH230195   3.107   3.011   0.146
 2879TIP3    H130196   3.158   3.088   0.121
 2879TIP3    H230197   3.033   3.010   0.086
 2880TIP3   OH230198   1.520   2.049   1.210
 2880TIP3    H130199   1.582   1.976   1.199
 2880TIP3    H230200   1.560   2.122   1.162
 2881TIP3   OH230201   3.729   2.613   8.568
 2881TIP3    H130202   3.697   2.676   8.633
 2881TIP3    H230203   3.769   2.666   8.500
 2882TIP3   OH230204   2.502   2.641   0.439
 2882TIP3    H130205   2.518   2.557   0.396
 2882TIP3    H230206   2.407   2.649   0.441
 2883TIP3   OH230207   6.803   0.519   0.920
 2883TIP3    H130208   0.073   0.529   0.908
 2883TIP3    H230209   6.765   0.560   0.842
 2884TIP3   OH230210   2.053   1.760   8.172
 2884TIP3    H130211   2.015   1.831   8.224
 2884TIP3    H230212   2.046   1.790   8.082
 2885TIP3   OH230213   1.035   5.425   2.466
 2885TIP3    H130214   0.977   5.436   2.542
 2885TIP3    H230215   1.119   5.398   2.504
 2886TIP3   OH230216   1.230   2.051   8.753
 2886TIP3    H130217   1.165   2.118   8.773
 2886TIP3    H230218   1.302   2.068   0.033
 2887TIP3   OH230219   4.622   1.956   7.562
 2887TIP3    H130220   4.620   1.882   7.623
 2887TIP3    H230221   4.706   1.998   7.580
 2888TIP3   OH230222   3.719   2.569   1.836
 2888TIP3    H130223   3.658   2.636   1.867
 2888TIP3    H230224   3.664   2.506   1.789
 2889TIP3   OH230225   1.785   1.574   8.179
 2889TIP3    H130226   1.823   1.650   8.135
 2889TIP3    H230227   1.769   1.603   8.269
 2890TIP3   OH230228   1.246   3.989   7.950
 2890TIP3    H130229   1.154   3.964   7.951
 2890TIP3    H230230   1.258   4.040   8.030
 2891TIP3   OH230231   6.511   3.077   0.585
 2891TIP3    H130232   6.554   3.105   0.504
 2891TIP3    H230233   6.419   3.098   0.571
 2892TIP3   OH230234   2.848   1.770   8.288
 2892TIP3    H130235   2.754   1.770   8.307
 2892TIP3    H230236   2.853   1.756   8.193
 2893TIP3   OH230237   2.969   6.692   8.090
 2893TIP3    H130238   2.996   6.778   8.061
 2893TIP3    H230239   2.988   6.691   8.184
 2894TIP3   OH230240   3.527   5.092   7.384
 2894TIP3    H130241   3.612   5.056   7.360
 2894TIP3    H230242   3.512   5.162   7.320
 2895TIP3   OH230243   5.454   2.701   0.892
 2895TIP3    H130244   5.427   2.782   0.848
 2895TIP3    H230245   5.385   2.638   0.872
 2896TIP3   OH230246   0.423   2.639   7.701
 2896TIP3    H130247   0.452   2.648   7.610
 2896TIP3    H230248   0.469   2.562   7.733
 2897TIP3   OH230249   4.663   1.831   1.581
 2897TIP3    H130250   4.631   1.778   1.508
 2897TIP3    H230251   4.727   1.890   1.541
 2898TIP3   OH230252   6.215   4.845   7.454
 2898TIP3    H130253   6.201   4.774   7.392
 2898TIP3    H230254   6.129   4.887   7.462
 2899TIP3   OH230255   3.310   0.473   0.277
 2899TIP3    H130256   3.285   0.381   0.279
 2899TIP3    H230257   3.373   0.480   0.205
 2900TIP3   OH230258   2.804   6.300   2.331
 2900TIP3    H130259   2.851   6.226   2.292
 2900TIP3    H230260   2.812   6.370   2.266
 2901TIP3   OH230261   6.319   0.817   8.073
 2901TIP3    H130262   6.280   0.867   8.001
 2901TIP3    H230263   6.291   0.727   8.057
 2902TIP3   OH230264   1.605   5.941   6.614
 2902TIP3    H130265   1.581   5.992   6.538
 2902TIP3    H230266   1.638   5.858   6.579
 2903TIP3   OH230267   0.391   3.077   0.116
 2903TIP3    H130268   0.376   3.028   0.197
 2903TIP3    H230269   0.333   3.035   0.052
 2904TIP3   OH230270   3.084   5.277   1.320
 2904TIP3    H130271   3.006   5.271   1.375
 2904TIP3    H230272   3.146   5.216   1.360
 2905TIP3   OH230273   0.087   5.225   1.219
 2905TIP3    H130274   0.031   5.245   1.294
 2905TIP3    H230275   0.096   5.130   1.220
 2906TIP3   OH230276   5.381   2.695   1.878
 2906TIP3    H130277   5.351   2.630   1.813
 2906TIP3    H230278   5.339   2.669   1.959
 2907TIP3   OH230279   4.150   2.958   6.755
 2907TIP3    H130280   4.229   2.914   6.724
 2907TIP3    H230281   4.080   2.921   6.702
 2908TIP3   OH230282   2.860   0.851   0.391
 2908TIP3    H130283   2.925   0.784   0.371
 2908TIP3    H230284   2.800   0.848   0.316
 2909TIP3   OH230285   0.965   1.551   7.498
 2909TIP3    H130286   1.045   1.497   7.495
 2909TIP3    H230287   0.997   1.641   7.489
 2910TIP3   OH230288   2.751   6.552   1.130
 2910TIP3    H130289   2.823   6.611   1.155
 2910TIP3    H230290   2.691   6.607   1.080
 2911TIP3   OH230291   5.806   2.366   0.559
 2911TIP3    H130292   5.811   2.317   0.641
 2911TIP3    H230293   5.893   2.357   0.521
 2912TIP3   OH230294   5.484   6.355   0.744
 2912TIP3    H130295   5.553   6.376   0.681
 2912TIP3    H230296   5.451   6.441   0.773
 2913TIP3   OH230297   1.524   6.207   7.357
 2913TIP3    H130298   1.575   6.138   7.399
 2913TIP3    H230299   1.459   6.160   7.305
 2914TIP3   OH230300   6.515   6.121   1.571
 2914TIP3    H130301   6.558   6.077   1.498
 2914TIP3    H230302   6.439   6.065   1.591
 2915TIP3   OH230303   1.585   5.224   1.797
 2915TIP3    H130304   1.632   5.230   1.881
 2915TIP3    H230305   1.614   5.142   1.759
 2916TIP3   OH230306   4.599   3.212   1.527
 2916TIP3    H130307   4.571   3.127   1.492
 2916TIP3    H230308   4.542   3.225   1.603
 2917TIP3   OH230309   1.700   1.182   1.009
 2917TIP3    H130310   1.639   1.256   1.007
 2917TIP3    H230311   1.732   1.174   0.920
 2918TIP3   OH230312   6.512   5.186   0.492
 2918TIP3    H130313   6.589   5.209   0.543
 2918TIP3    H230314   6.546   5.137   0.417
 2919TIP3   OH230315   6.766   1.964   6.665
 2919TIP3    H130316   0.013   1.992   6.609
 2919TIP3    H230317   6.687   1.987   6.614
 2920TIP3   OH230318   5.874   6.557   0.388
 2920TIP3    H130319   5.847   6.566   0.296
 2920TIP3    H230320   5.854   6.466   0.409
 2921TIP3   OH230321   5.442   1.060   6.580
 2921TIP3    H130322   5.380   1.033   6.648
 2921TIP3    H230323   5.513   1.103   6.628
 2922TIP3   OH230324   1.840   6.077   0.470
 2922TIP3    H130325   1.840   6.106   0.561
 2922TIP3    H230326   1.775   6.133   0.427
 2923TIP3   OH230327   4.143   0.595   2.425
 2923TIP3    H130328   4.199   0.528   2.465
 2923TIP3    H230329   4.200   0.638   2.361
 2924TIP3   OH230330   2.218   1.892   8.614
 2924TIP3    H130331   2.127   1.912   8.590
 2924TIP3    H230332   2.270   1.933   8.546
 2925TIP3   OH230333   3.149   0.738   7.946
 2925TIP3    H130334   3.062   0.773   7.963
 2925TIP3    H230335   3.135   0.644   7.936
 2926TIP3   OH230336   1.423   6.569   0.691
 2926TIP3    H130337   1.496   6.617   0.650
 2926TIP3    H230338   1.348   6.628   0.683
 2927TIP3   OH230339   0.222   1.634   7.279
 2927TIP3    H130340   0.192   1.555   7.323
 2927TIP3    H230341   0.155   1.653   7.214
 2928TIP3   OH230342   3.867   6.056   0.339
 2928TIP3    H130343   3.960   6.035   0.328
 2928TIP3    H230344   3.864   6.152   0.340
 2929TIP3   OH230345   3.174   2.414   0.754
 2929TIP3    H130346   3.199   2.324   0.732
 2929TIP3    H230347   3.080   2.417   0.741
 2930TIP3   OH230348   1.103   4.468   0.220
 2930TIP3    H130349   1.109   4.384   0.265
 2930TIP3    H230350   1.050   4.450   0.142
 2931TIP3   OH230351   3.868   2.989   7.271
 2931TIP3    H130352   3.789   2.994   7.325
 2931TIP3    H230353   3.910   2.907   7.299
 2932TIP3   OH230354   0.860   5.857   1.259
 2932TIP3    H130355   0.848   5.843   1.166
 2932TIP3    H230356   0.935   5.916   1.265
 2933TIP3   OH230357   4.477   5.538   7.441
 2933TIP3    H130358   4.460   5.617   7.391
 2933TIP3    H230359   4.572   5.535   7.450
 2934TIP3   OH230360   4.098   6.721   6.674
 2934TIP3    H130361   4.036   6.652   6.651
 2934TIP3    H230362   4.154   6.728   6.596
 2935TIP3   OH230363   5.901   5.201   6.673
 2935TIP3    H130364   5.961   5.134   6.706
 2935TIP3    H230365   5.885   5.177   6.582
 2936TIP3   OH230366   1.676   1.219   0.156
 2936TIP3    H130367   1.679   1.123   0.164
 2936TIP3    H230368   1.666   1.235   0.063
 2937TIP3   OH230369   3.019   0.632   0.264
 2937TIP3    H130370   3.085   0.571   0.298
 2937TIP3    H230371   2.959   0.577   0.213
 2938TIP3   OH230372   1.445   3.843   6.640
 2938TIP3    H130373   1.512   3.824   6.575
 2938TIP3    H230374   1.491   3.887   6.711
 2939TIP3   OH230375   4.083   4.788   0.669
 2939TIP3    H130376   4.025   4.828   0.733
 2939TIP3    H230377   4.064   4.833   0.587
 2940TIP3   OH230378   5.400   3.674   2.369
 2940TIP3    H130379   5.419   3.611   2.439
 2940TIP3    H230380   5.393   3.758   2.414
 2941TIP3   OH230381   5.704   6.389   6.858
 2941TIP3    H130382   5.677   6.317   6.800
 2941TIP3    H230383   5.776   6.431   6.812
 2942TIP3   OH230384   5.618   0.351   1.322
 2942TIP3    H130385   5.583   0.328   1.408
 2942TIP3    H230386   5.704   0.390   1.342
 2943TIP3   OH230387   0.563   2.294   7.365
 2943TIP3    H130388   0.525   2.256   7.444
 2943TIP3    H230389   0.495   2.286   7.299
 2944TIP3   OH230390   1.941   4.252   0.841
 2944TIP3    H130391   1.897   4.302   0.772
 2944TIP3    H230392   1.981   4.178   0.795
 2945TIP3   OH230393   0.302   3.110   0.617
 2945TIP3    H130394   0.299   3.015   0.624
 2945TIP3    H230395   0.258   3.142   0.696
 2946TIP3   OH230396   4.611   1.295   0.956
 2946TIP3    H130397   4.688   1.320   0.905
 2946TIP3    H230398   4.636   1.215   1.001
 2947TIP3   OH230399   6.202   0.571   7.242
 2947TIP3    H130400   6.120   0.619   7.232
 2947TIP3    H230401   6.185   0.506   7.309
 2948TIP3   OH230402   1.614   4.486   2.083
 2948TIP3    H130403   1.581   4.561   2.033
 2948TIP3    H230404   1.553   4.415   2.062
 2949TIP3   OH230405   1.316   0.869   7.397
 2949TIP3    H130406   1.316   0.780   7.362
 2949TIP3    H230407   1.255   0.866   7.471
 2950TIP3   OH230408   2.960   6.296   0.657
 2950TIP3    H130409   3.005   6.213   0.675
 2950TIP3    H230410   3.000   6.327   0.576
 2951TIP3   OH230411   3.394   3.757   8.049
 2951TIP3    H130412   3.479   3.798   8.062
 2951TIP3    H230413   3.373   3.718   8.134
 2952TIP3   OH230414   2.630   1.085   0.228
 2952TIP3    H130415   2.541   1.081   0.191
 2952TIP3    H230416   2.680   1.022   0.177
 2953TIP3   OH230417   2.629   1.994   7.905
 2953TIP3    H130418   2.623   2.033   7.818
 2953TIP3    H230419   2.696   2.045   7.950
 2954TIP3   OH230420   2.228   3.679   0.934
 2954TIP3    H130421   2.230   3.670   1.029
 2954TIP3    H230422   2.304   3.733   0.913
 2955TIP3   OH230423   2.557   6.445   0.132
 2955TIP3    H130424   2.499   6.491   0.192
 2955TIP3    H230425   2.615   6.395   0.188
 2956TIP3   OH230426   2.874   3.440   7.144
 2956TIP3    H130427   2.838   3.464   7.058
 2956TIP3    H230428   2.969   3.448   7.133
 2957TIP3   OH230429   6.394   5.538   7.796
 2957TIP3    H130430   6.377   5.628   7.824
 2957TIP3    H230431   6.308   5.505   7.770
 2958TIP3   OH230432   2.267   2.849   8.275
 2958TIP3    H130433   2.311   2.884   8.353
 2958TIP3    H230434   2.320   2.879   8.202
 2959TIP3   OH230435   1.536   2.123   7.633
 2959TIP3    H130436   1.627   2.148   7.650
 2959TIP3    H230437   1.518   2.157   7.546
 2960TIP3   OH230438   1.039   4.197   6.407
 2960TIP3    H130439   1.030   4.253   6.330
 2960TIP3    H230440   1.015   4.253   6.480
 2961TIP3   OH230441   1.197   3.524   8.638
 2961TIP3    H130442   1.241   3.565   8.713
 2961TIP3    H230443   1.249   3.446   8.619
 2962TIP3   OH230444   3.641   6.673   7.788
 2962TIP3    H130445   3.549   6.684   7.814
 2962TIP3    H230446   3.689   6.665   7.871
 2963TIP3   OH230447   2.551   4.383   8.295
 2963TIP3    H130448   2.482   4.319   8.279
 2963TIP3    H230449   2.517   4.465   8.260
 2964TIP3   OH230450   4.646   5.375   0.068
 2964TIP3    H130451   4.711   5.443   0.081
 2964TIP3    H230452   4.681   5.299   0.115
 2965TIP3   OH230453   0.507   2.787   7.448
 2965TIP3    H130454   0.473   2.874   7.467
 2965TIP3    H230455   0.530   2.789   7.355
 2966TIP3   OH230456   3.897   5.239   8.570
 2966TIP3    H130457   3.980   5.236   8.617
 2966TIP3    H230458   3.830   5.226   8.637
 2967TIP3   OH230459   4.724   6.556   1.158
 2967TIP3    H130460   4.812   6.544   1.193
 2967TIP3    H230461   4.666   6.528   1.229
 2968TIP3   OH230462   4.118   6.299   1.950
 2968TIP3    H130463   4.139   6.337   2.035
 2968TIP3    H230464   4.036   6.340   1.924
 2969TIP3   OH230465   4.146   2.262   0.057
 2969TIP3    H130466   4.065   2.234   0.100
 2969TIP3    H230467   4.199   2.299   0.128
 2970TIP3   OH230468   3.643   4.440   0.491
 2970TIP3    H130469   3.578   4.404   0.552
 2970TIP3    H230470   3.718   4.381   0.500
 2971TIP3   OH230471   1.526   2.989   8.518
 2971TIP3    H130472   1.508   3.050   8.446
 2971TIP3    H230473   1.487   3.031   8.595
 2972TIP3   OH230474   0.408   6.205   1.778
 2972TIP3    H130475   0.480   6.147   1.754
 2972TIP3    H230476   0.345   6.148   1.823
 2973TIP3   OH230477   2.076   0.853   7.961
 2973TIP3    H130478   2.001   0.839   8.019
 2973TIP3    H230479   2.124   0.770   7.964
 2974TIP3   OH230480   5.804   5.025   1.608
 2974TIP3    H130481   5.809   4.944   1.557
 2974TIP3    H230482   5.765   4.998   1.691
 2975TIP3   OH230483   6.628   5.512   7.966
 2975TIP3    H130484   6.652   5.432   7.919
 2975TIP3    H230485   6.535   5.524   7.946
 2976TIP3   OH230486   1.231   2.547   0.888
 2976TIP3    H130487   1.153   2.533   0.834
 2976TIP3    H230488   1.198   2.588   0.967
 2977TIP3   OH230489   1.467   4.734   1.704
 2977TIP3    H130490   1.552   4.720   1.662
 2977TIP3    H230491   1.436   4.646   1.727
 2978TIP3   OH230492   3.280   0.082   0.915
 2978TIP3    H130493   3.307   6.816   0.929
 2978TIP3    H230494   3.362   0.129   0.898
 2979TIP3   OH230495   2.075   5.460   0.929
 2979TIP3    H130496   2.069   5.544   0.884
 2979TIP3    H230497   2.057   5.395   0.862
 2980TIP3   OH230498   1.226   3.719   7.385
 2980TIP3    H130499   1.292   3.788   7.375
 2980TIP3    H230500   1.271   3.649   7.432
 2981TIP3   OH230501   2.404   1.787   0.379
 2981TIP3    H130502   2.372   1.782   0.289
 2981TIP3    H230503   2.334   1.832   0.427
 2982TIP3   OH230504   3.117   4.257   1.211
 2982TIP3    H130505   3.053   4.264   1.140
 2982TIP3    H230506   3.140   4.348   1.230
 2983TIP3   OH230507   2.497   1.630   1.516
 2983TIP3    H130508   2.493   1.547   1.467
 2983TIP3    H230509   2.425   1.624   1.578
 2984TIP3   OH230510   0.316   3.429   8.465
 2984TIP3    H130511   0.297   3.424   8.559
 2984TIP3    H230512   0.408   3.457   8.461
 2985TIP3   OH230513   2.811   5.896   8.490
 2985TIP3    H130514   2.858   5.941   8.419
 2985TIP3    H230515   2.737   5.854   8.447
 2986TIP3   OH230516   3.697   5.258   1.153
 2986TIP3    H130517   3.634   5.193   1.184
 2986TIP3    H230518   3.662   5.342   1.183
 2987TIP3   OH230519   6.545   1.487   7.792
 2987TIP3    H130520   6.477   1.548   7.819
 2987TIP3    H230521   6.627   1.533   7.810
 2988TIP3   OH230522   3.893   4.597   0.927
 2988TIP3    H130523   3.843   4.534   0.979
 2988TIP3    H230524   3.984   4.571   0.940
 2989TIP3   OH230525   3.087   3.369   8.410
 2989TIP3    H130526   3.094   3.299   8.475
 2989TIP3    H230527   3.023   3.430   8.447
 2990TIP3   OH230528   4.448   4.692   8.694
 2990TIP3    H130529   4.427   4.763   8.755
 2990TIP3    H230530   4.474   4.737   8.614
 2991TIP3   OH230531   1.178   6.371   8.360
 2991TIP3    H130532   1.146   6.449   8.407
 2991TIP3    H230533   1.189   6.305   8.429
 2992TIP3   OH230534   4.991   6.395   6.739
 2992TIP3    H130535   4.993   6.396   6.644
 2992TIP3    H230536   5.076   6.430   6.766
 2993TIP3   OH230537   6.054   1.020   0.676
 2993TIP3    H130538   5.983   0.956   0.666
 2993TIP3    H230539   6.114   0.978   0.738
 2994TIP3   OH230540   5.698   1.093   7.621
 2994TIP3    H130541   5.683   1.010   7.575
 2994TIP3    H230542   5.774   1.131   7.579
 2995TIP3   OH230543   1.453   4.788   0.205
 2995TIP3    H130544   1.451   4.871   0.157
 2995TIP3    H230545   1.362   4.761   0.211
 2996TIP3   OH230546   3.003   4.474   7.698
 2996TIP3    H130547   3.041   4.401   7.747
 2996TIP3    H230548   2.974   4.434   7.615
 2997TIP3   OH230549   6.541   0.282   1.685
 2997TIP3    H130550   6.472   0.320   1.631
 2997TIP3    H230551   6.621   0.324   1.654
 2998TIP3   OH230552   4.162   6.539   7.120
 2998TIP3    H130553   4.196   6.592   7.048
 2998TIP3    H230554   4.212   6.569   7.196
 2999TIP3   OH230555   5.594   2.072   0.991
 2999TIP3    H130556   5.664   2.060   1.055
 2999TIP3    H230557   5.640   2.081   0.907
 3000TIP3   OH230558   5.883   3.147   1.495
 3000TIP3    H130559   5.966   3.100   1.499
 3000TIP3    H230560   5.830   3.097   1.434
 3001TIP3   OH230561   4.254   0.053   8.372
 3001TIP3    H130562   4.208   0.065   8.455
 3001TIP3    H230563   4.286   6.788   8.376
 3002TIP3   OH230564   4.556   5.496   1.082
 3002TIP3    H130565   4.493   5.568   1.081
 3002TIP3    H230566   4.515   5.427   1.029
 3003TIP3   OH230567   0.174   3.270   7.491
 3003TIP3    H130568   0.107   3.277   7.423
 3003TIP3    H230569   0.130   3.298   7.571
 3004TIP3   OH230570   5.780   4.255   8.657
 3004TIP3    H130571   5.753   4.339   8.692
 3004TIP3    H230572   5.717   4.235   8.588
 3005TIP3   OH230573   6.417   3.475   8.469
 3005TIP3    H130574   6.463   3.559   8.466
 3005TIP3    H230575   6.475   3.414   8.424
 3006TIP3   OH230576   1.374   4.495   1.788
 3006TIP3    H130577   1.401   4.431   1.855
 3006TIP3    H230578   1.283   4.472   1.769
 3007TIP3   OH230579   6.125   2.223   2.077
 3007TIP3    H130580   6.118   2.225   1.981
 3007TIP3    H230581   6.158   2.310   2.100
 3008TIP3   OH230582   0.144   5.702   0.489
 3008TIP3    H130583   0.181   5.787   0.466
 3008TIP3    H230584   0.201   5.669   0.559
 3009TIP3   OH230585   5.343   1.424   0.534
 3009TIP3    H130586   5.417   1.411   0.594
 3009TIP3    H230587   5.287   1.348   0.549
 3010TIP3   OH230588   5.735   0.108   8.197
 3010TIP3    H130589   5.679   0.041   8.237
 3010TIP3    H230590   5.824   0.084   8.223
 3011TIP3   OH230591   3.389   2.149   7.562
 3011TIP3    H130592   3.452   2.205   7.607
 3011TIP3    H230593   3.305   2.169   7.604
 3012TIP3   OH230594   5.292   0.143   0.641
 3012TIP3    H130595   5.241   0.149   0.722
 3012TIP3    H230596   5.346   0.222   0.641
 3013TIP3   OH230597   1.470   1.582   8.034
 3013TIP3    H130598   1.375   1.572   8.034
 3013TIP3    H230599   1.493   1.605   8.124
 3014TIP3   OH230600   0.327   5.708   1.394
 3014TIP3    H130601   0.311   5.728   1.486
 3014TIP3    H230602   0.264   5.639   1.373
 3015TIP3   OH230603   4.011   2.101   2.316
 3015TIP3    H130604   3.976   2.058   2.394
 3015TIP3    H230605   4.026   2.030   2.254
 3016TIP3   OH230606   0.064   4.695   7.791
 3016TIP3    H130607   0.058   4.787   7.818
 3016TIP3    H230608   0.121   4.697   7.714
 3017TIP3   OH230609   0.252   4.482   2.063
 3017TIP3    H130610   0.243   4.418   1.992
 3017TIP3    H230611   0.334   4.527   2.044
 3018TIP3   OH230612   4.015   0.525   1.369
 3018TIP3    H130613   3.956   0.598   1.349
 3018TIP3    H230614   4.039   0.490   1.283
 3019TIP3   OH230615   0.137   4.808   8.435
 3019TIP3    H130616   0.148   4.866   8.510
 3019TIP3    H230617   0.160   4.861   8.359
 3020TIP3   OH230618   0.292   2.648   1.967
 3020TIP3    H130619   0.267   2.617   2.054
 3020TIP3    H230620   0.357   2.716   1.984
 3021TIP3   OH230621   5.690   0.467   0.589
 3021TIP3    H130622   5.696   0.541   0.648
 3021TIP3    H230623   5.664   0.505   0.505
 3022TIP3   OH230624   6.256   5.183   2.167
 3022TIP3    H130625   6.334   5.180   2.223
 3022TIP3    H230626   6.252   5.096   2.127
 3023TIP3   OH230627   5.508   1.096   8.297
 3023TIP3    H130628   5.490   1.012   8.340
 3023TIP3    H230629   5.575   1.137   8.352
 3024TIP3   OH230630   4.879   0.616   7.119
 3024TIP3    H130631   4.841   0.535   7.152
 3024TIP3    H230632   4.931   0.590   7.043
 3025TIP3   OH230633   5.951   4.757   0.955
 3025TIP3    H130634   5.998   4.681   0.919
 3025TIP3    H230635   5.896   4.720   1.024
 3026TIP3   OH230636   5.186   5.723   0.890
 3026TIP3    H130637   5.254   5.679   0.839
 3026TIP3    H230638   5.212   5.815   0.891
 3027TIP3   OH230639   3.528   3.244   1.643
 3027TIP3    H130640   3.562   3.275   1.559
 3027TIP3    H230641   3.602   3.247   1.702
 3028TIP3   OH230642   6.292   1.739   0.719
 3028TIP3    H130643   6.344   1.677   0.669
 3028TIP3    H230644   6.202   1.706   0.713
 3029TIP3   OH230645   3.182   1.584   1.521
 3029TIP3    H130646   3.115   1.527   1.561
 3029TIP3    H230647   3.216   1.636   1.593
 3030TIP3   OH230648   2.750   0.129   1.768
 3030TIP3    H130649   2.698   0.050   1.755
 3030TIP3    H230650   2.797   0.141   1.686
 3031TIP3   OH230651   4.598   5.735   6.896
 3031TIP3    H130652   4.644   5.768   6.819
 3031TIP3    H230653   4.506   5.732   6.869
 3032TIP3   OH230654   2.241   6.373   1.713
 3032TIP3    H130655   2.319   6.335   1.754
 3032TIP3    H230656   2.274   6.453   1.671
 3033TIP3   OH230657   2.528   0.256   8.370
 3033TIP3    H130658   2.581   0.336   8.377
 3033TIP3    H230659   2.547   0.223   8.282
 3034TIP3   OH230660   6.346   4.334   8.007
 3034TIP3    H130661   6.291   4.410   8.024
 3034TIP3    H230662   6.377   4.347   7.917
 3035TIP3   OH230663   5.831   6.468   0.770
 3035TIP3    H130664   5.835   6.464   0.866
 3035TIP3    H230665   5.916   6.504   0.744
 3036TIP3   OH230666   5.435   5.691   0.374
 3036TIP3    H130667   5.446   5.651   0.288
 3036TIP3    H230668   5.511   5.662   0.424
 3037TIP3   OH230669   6.517   5.178   1.504
 3037TIP3    H130670   6.435   5.166   1.457
 3037TIP3    H230671   6.557   5.091   1.506
 3038TIP3   OH230672   4.327   4.379   7.911
 3038TIP3    H130673   4.415   4.360   7.942
 3038TIP3    H230674   4.273   4.384   7.990
 3039TIP3   OH230675   2.629   0.913   1.837
 3039TIP3    H130676   2.712   0.961   1.827
 3039TIP3    H230677   2.575   0.969   1.893
 3040TIP3   OH230678   3.829   5.650   8.632
 3040TIP3    H130679   3.837   5.698   8.715
 3040TIP3    H230680   3.744   5.607   8.637
 3041TIP3   OH230681   4.057   1.568   1.950
 3041TIP3    H130682   4.034   1.519   1.871
 3041TIP3    H230683   4.153   1.564   1.953
 3042TIP3   OH230684   1.585   6.603   8.047
 3042TIP3    H130685   1.653   6.662   8.083
 3042TIP3    H230686   1.618   6.515   8.065
 3043TIP3   OH230687   5.509   0.894   1.526
 3043TIP3    H130688   5.491   0.810   1.567
 3043TIP3    H230689   5.423   0.930   1.505
 3044TIP3   OH230690   1.959   2.425   1.782
 3044TIP3    H130691   1.979   2.433   1.875
 3044TIP3    H230692   1.864   2.421   1.777
 3045TIP3   OH230693   0.451   2.565   0.430
 3045TIP3    H130694   0.542   2.581   0.407
 3045TIP3    H230695   0.420   2.503   0.364
 3046TIP3   OH230696   6.345   5.508   1.757
 3046TIP3    H130697   6.314   5.487   1.845
 3046TIP3    H230698   6.440   5.503   1.763
 3047TIP3   OH230699   4.746   5.865   7.101
 3047TIP3    H130700   4.698   5.798   7.052
 3047TIP3    H230701   4.763   5.934   7.038
 3048TIP3   OH230702   0.446   3.242   8.340
 3048TIP3    H130703   0.386   3.180   8.299
 3048TIP3    H230704   0.389   3.314   8.369
 3049TIP3   OH230705   4.063   5.037   8.459
 3049TIP3    H130706   4.136   5.068   8.406
 3049TIP3    H230707   3.996   5.105   8.451
 3050TIP3   OH230708   5.165   6.741   1.107
 3050TIP3    H130709   5.191   0.005   1.130
 3050TIP3    H230710   5.247   6.695   1.091
 3051TIP3   OH230711   3.227   5.066   1.419
 3051TIP3    H130712   3.152   5.011   1.442
 3051TIP3    H230713   3.283   5.063   1.496
 3052TIP3   OH230714   3.303   5.580   7.674
 3052TIP3    H130715   3.272   5.650   7.731
 3052TIP3    H230716   3.385   5.614   7.638
 3053TIP3   OH230717   0.600   2.534   6.604
 3053TIP3    H130718   0.656   2.458   6.586
 3053TIP3    H230719   0.542   2.540   6.529
 3054TIP3   OH230720   0.900   6.291   0.299
 3054TIP3    H130721   0.871   6.349   0.370
 3054TIP3    H230722   0.835   6.304   0.230
 3055TIP3   OH230723   0.448   6.292   7.535
 3055TIP3    H130724   0.458   6.314   7.628
 3055TIP3    H230725   0.537   6.288   7.502
 3056TIP3   OH230726   6.542   5.514   0.192
 3056TIP3    H130727   6.561   5.604   0.167
 3056TIP3    H230728   6.486   5.522   0.269
 3057TIP3   OH230729   1.758   5.447   7.769
 3057TIP3    H130730   1.701   5.416   7.839
 3057TIP3    H230731   1.797   5.527   7.803
 3058TIP3   OH230732   0.771   0.851   2.368
 3058TIP3    H130733   0.687   0.846   2.321
 3058TIP3    H230734   0.773   0.771   2.420
 3059TIP3   OH230735   2.783   1.389   0.990
 3059TIP3    H130736   2.766   1.300   1.020
 3059TIP3    H230737   2.787   1.441   1.070
 3060TIP3   OH230738   2.877   3.380   0.672
 3060TIP3    H130739   2.797   3.381   0.620
 3060TIP3    H230740   2.856   3.325   0.747
 3061TIP3   OH230741   1.067   6.595   0.442
 3061TIP3    H130742   1.004   6.533   0.477
 3061TIP3    H230743   1.035   6.615   0.354
 3062TIP3   OH230744   1.740   5.704   7.124
 3062TIP3    H130745   1.744   5.611   7.102
 3062TIP3    H230746   1.831   5.732   7.125
 3063TIP3   OH230747   1.507   3.192   0.572
 3063TIP3    H130748   1.559   3.227   0.645
 3063TIP3    H230749   1.526   3.251   0.499
 3064TIP3   OH230750   3.148   4.086   1.839
 3064TIP3    H130751   3.068   4.106   1.887
 3064TIP3    H230752   3.187   4.012   1.886
 3065TIP3   OH230753   1.324   4.837   0.539
 3065TIP3    H130754   1.385   4.823   0.612
 3065TIP3    H230755   1.376   4.883   0.473
 3066TIP3   OH230756   5.076   1.105   7.806
 3066TIP3    H130757   5.060   1.200   7.813
 3066TIP3    H230758   5.155   1.098   7.754
 3067TIP3   OH230759   0.855   4.748   1.614
 3067TIP3    H130760   0.889   4.805   1.544
 3067TIP3    H230761   0.911   4.765   1.689
 3068TIP3   OH230762   3.292   5.038   6.510
 3068TIP3    H130763   3.360   4.999   6.454
 3068TIP3    H230764   3.256   5.110   6.457
 3069TIP3   OH230765   3.888   1.877   0.920
 3069TIP3    H130766   3.957   1.883   0.986
 3069TIP3    H230767   3.835   1.802   0.948
 3070TIP3   OH230768   5.241   2.524   1.697
 3070TIP3    H130769   5.237   2.449   1.757
 3070TIP3    H230770   5.294   2.493   1.624
 3071TIP3   OH230771   5.840   5.204   0.930
 3071TIP3    H130772   5.771   5.139   0.921
 3071TIP3    H230773   5.918   5.153   0.953
 3072TIP3   OH230774   5.422   5.084   0.283
 3072TIP3    H130775   5.333   5.066   0.312
 3072TIP3    H230776   5.457   5.144   0.350
 3073TIP3   OH230777   0.524   6.002   2.003
 3073TIP3    H130778   0.483   6.070   2.056
 3073TIP3    H230779   0.614   6.032   1.991
 3074TIP3   OH230780   2.453   3.083   0.622
 3074TIP3    H130781   2.522   3.040   0.673
 3074TIP3    H230782   2.440   3.167   0.666
 3075TIP3   OH230783   2.498   0.774   8.634
 3075TIP3    H130784   2.559   0.729   8.576
 3075TIP3    H230785   2.503   0.726   8.717
 3076TIP3   OH230786   5.089   5.496   6.984
 3076TIP3    H130787   5.141   5.576   6.991
 3076TIP3    H230788   5.153   5.428   6.962
 3077TIP3   OH230789   5.046   2.977   8.738
 3077TIP3    H130790   5.107   2.969   0.031
 3077TIP3    H230791   4.995   2.896   8.742
 3078TIP3   OH230792   5.035   3.428   2.451
 3078TIP3    H130793   5.013   3.341   2.417
 3078TIP3    H230794   5.086   3.468   2.381
 3079TIP3   OH230795   0.197   5.005   0.305
 3079TIP3    H130796   0.253   4.969   0.373
 3079TIP3    H230797   0.252   5.068   0.259
 3080TIP3   OH230798   0.731   4.841   7.575
 3080TIP3    H130799   0.761   4.868   7.488
 3080TIP3    H230800   0.791   4.885   7.636
 3081TIP3   OH230801   2.289   0.715   8.287
 3081TIP3    H130802   2.369   0.695   8.238
 3081TIP3    H230803   2.312   0.792   8.339
 3082TIP3   OH230804   2.222   0.573   8.050
 3082TIP3    H130805   2.185   0.488   8.076
 3082TIP3    H230806   2.247   0.615   8.133
 3083TIP3   OH230807   4.104   1.737   6.946
 3083TIP3    H130808   4.130   1.673   6.880
 3083TIP3    H230809   4.149   1.709   7.025
 3084TIP3   OH230810   4.818   4.134   8.178
 3084TIP3    H130811   4.819   4.134   8.083
 3084TIP3    H230812   4.751   4.070   8.202
 3085TIP3   OH230813   1.998   1.390   8.740
 3085TIP3    H130814   2.053   1.434   0.024
 3085TIP3    H230815   2.032   1.420   8.656
 3086TIP3   OH230816   2.773   2.754   2.890
 3086TIP3    H130817   2.720   2.726   2.816
 3086TIP3    H230818   2.768   2.682   2.952
 3087TIP3   OH230819   6.415   1.173   0.455
 3087TIP3    H130820   6.334   1.219   0.432
 3087TIP3    H230821   6.445   1.216   0.535
 3088TIP3   OH230822   0.343   3.629   1.452
 3088TIP3    H130823   0.418   3.616   1.510
 3088TIP3    H230824   0.369   3.700   1.394
 3089TIP3   OH230825   1.604   2.375   8.465
 3089TIP3    H130826   1.595   2.459   8.419
 3089TIP3    H230827   1.561   2.312   8.407
 3090TIP3   OH230828   1.844   2.116   0.521
 3090TIP3    H130829   1.794   2.149   0.596
 3090TIP3    H230830   1.799   2.152   0.445
 3091TIP3   OH230831   5.896   4.291   1.668
 3091TIP3    H130832   5.845   4.346   1.609
 3091TIP3    H230833   5.985   4.325   1.662
 3092TIP3   OH230834   1.482   1.489   1.262
 3092TIP3    H130835   1.478   1.585   1.264
 3092TIP3    H230836   1.547   1.466   1.328
 3093TIP3   OH230837   5.452   2.757   7.894
 3093TIP3    H130838   5.372   2.725   7.935
 3093TIP3    H230839   5.429   2.844   7.861
 3094TIP3   OH230840   4.915   1.849   0.859
 3094TIP3    H130841   4.942   1.879   0.772
 3094TIP3    H230842   4.937   1.921   0.918
 3095TIP3   OH230843   1.805   4.187   8.711
 3095TIP3    H130844   1.882   4.162   8.661
 3095TIP3    H230845   1.758   4.104   8.726
 3096TIP3   OH230846   1.822   4.751   7.061
 3096TIP3    H130847   1.861   4.704   7.135
 3096TIP3    H230848   1.888   4.814   7.033
 3097TIP3   OH230849   0.094   2.675   0.389
 3097TIP3    H130850   0.080   2.714   0.303
 3097TIP3    H230851   0.157   2.604   0.374
 3098TIP3   OH230852   5.867   3.125   2.231
 3098TIP3    H130853   5.773   3.106   2.221
 3098TIP3    H230854   5.871   3.220   2.241
 3099TIP3   OH230855   5.866   6.234   0.259
 3099TIP3    H130856   5.861   6.224   0.354
 3099TIP3    H230857   5.958   6.215   0.238
 3100TIP3   OH230858   4.768   3.554   6.068
 3100TIP3    H130859   4.761   3.497   6.144
 3100TIP3    H230860   4.689   3.608   6.070
 3101TIP3   OH230861   3.978   3.438   1.249
 3101TIP3    H130862   4.011   3.528   1.249
 3101TIP3    H230863   3.961   3.419   1.342
 3102TIP3   OH230864   3.068   3.476   6.424
 3102TIP3    H130865   3.129   3.543   6.392
 3102TIP3    H230866   2.982   3.509   6.398
 3103TIP3   OH230867   4.448   0.852   7.339
 3103TIP3    H130868   4.359   0.868   7.305
 3103TIP3    H230869   4.506   0.879   7.268
 3104TIP3   OH230870   3.715   6.331   7.919
 3104TIP3    H130871   3.737   6.287   8.002
 3104TIP3    H230872   3.625   6.363   7.932
 3105TIP3   OH230873   2.933   4.276   1.018
 3105TIP3    H130874   2.904   4.229   0.940
 3105TIP3    H230875   2.924   4.368   0.995
 3106TIP3   OH230876   6.399   0.033   7.367
 3106TIP3    H130877   6.318   0.035   7.419
 3106TIP3    H230878   6.395   0.111   7.312
 3107TIP3   OH230879   1.680   4.636   0.199
 3107TIP3    H130880   1.745   4.705   0.210
 3107TIP3    H230881   1.595   4.680   0.210
 3108TIP3   OH230882   0.259   3.791   2.011
 3108TIP3    H130883   0.172   3.750   2.015
 3108TIP3    H230884   0.243   3.882   2.034
 3109TIP3   OH230885   5.267   4.744   7.615
 3109TIP3    H130886   5.253   4.699   7.699
 3109TIP3    H230887   5.192   4.718   7.561
 3110TIP3   OH230888   5.498   1.484   8.159
 3110TIP3    H130889   5.517   1.549   8.227
 3110TIP3    H230890   5.506   1.532   8.077
 3111TIP3   OH230891   2.074   5.740   8.099
 3111TIP3    H130892   2.015   5.812   8.125
 3111TIP3    H230893   2.154   5.784   8.071
 3112TIP3   OH230894   4.360   2.345   1.463
 3112TIP3    H130895   4.277   2.356   1.511
 3112TIP3    H230896   4.354   2.407   1.391
 3113TIP3   OH230897   2.954   3.019   0.708
 3113TIP3    H130898   2.878   3.037   0.763
 3113TIP3    H230899   2.924   2.952   0.647
 3114TIP3   OH230900   4.047   5.337   1.224
 3114TIP3    H130901   4.007   5.395   1.159
 3114TIP3    H230902   4.007   5.363   1.307
 3115TIP3   OH230903   1.504   3.169   1.762
 3115TIP3    H130904   1.463   3.182   1.848
 3115TIP3    H230905   1.433   3.139   1.706
 3116TIP3   OH230906   4.268   2.719   1.092
 3116TIP3    H130907   4.287   2.761   1.175
 3116TIP3    H230908   4.195   2.769   1.056
 3117TIP3   OH230909   4.887   1.206   7.614
 3117TIP3    H130910   4.810   1.262   7.608
 3117TIP3    H230911   4.912   1.188   7.524
 3118TIP3   OH230912   1.501   0.140   7.642
 3118TIP3    H130913   1.429   0.079   7.627
 3118TIP3    H230914   1.469   0.198   7.711
 3119TIP3   OH230915   4.903   1.743   1.876
 3119TIP3    H130916   4.821   1.754   1.925
 3119TIP3    H230917   4.938   1.660   1.907
 3120TIP3   OH230918   4.621   4.548   7.825
 3120TIP3    H130919   4.593   4.504   7.906
 3120TIP3    H230920   4.665   4.480   7.775
 3121TIP3   OH230921   2.986   2.253   0.476
 3121TIP3    H130922   2.963   2.277   0.567
 3121TIP3    H230923   3.012   2.336   0.436
 3122TIP3   OH230924   6.693   6.779   0.183
 3122TIP3    H130925   6.785   6.803   0.193
 3122TIP3    H230926   6.687   6.690   0.217
 3123TIP3   OH230927   6.605   5.834   7.536
 3123TIP3    H130928   6.676   5.806   7.478
 3123TIP3    H230929   6.648   5.852   7.620
 3124TIP3   OH230930   2.734   1.114   8.303
 3124TIP3    H130931   2.661   1.176   8.309
 3124TIP3    H230932   2.782   1.142   8.225
 3125TIP3   OH230933   0.416   3.362   8.062
 3125TIP3    H130934   0.479   3.391   7.996
 3125TIP3    H230935   0.470   3.323   8.131
 3126TIP3   OH230936   4.846   6.086   2.067
 3126TIP3    H130937   4.832   6.025   1.995
 3126TIP3    H230938   4.760   6.095   2.109
 3127TIP3   OH230939   3.537   3.752   0.067
 3127TIP3    H130940   3.579   3.706   8.776
 3127TIP3    H230941   3.609   3.795   0.114
 3128TIP3   OH230942   0.657   5.972   7.004
 3128TIP3    H130943   0.579   6.017   7.038
 3128TIP3    H230944   0.636   5.953   6.913
 3129TIP3   OH230945   3.759   1.635   0.969
 3129TIP3    H130946   3.664   1.625   0.968
 3129TIP3    H230947   3.788   1.587   0.891
 3130TIP3   OH230948   5.527   1.833   6.883
 3130TIP3    H130949   5.604   1.834   6.940
 3130TIP3    H230950   5.481   1.914   6.904
 3131TIP3   OH230951   1.282   5.080   1.326
 3131TIP3    H130952   1.255   5.005   1.274
 3131TIP3    H230953   1.243   5.155   1.281
 3132TIP3   OH230954   6.716   4.320   2.290
 3132TIP3    H130955   6.729   4.232   2.323
 3132TIP3    H230956   6.699   4.308   2.196
 3133TIP3   OH230957   1.176   2.939   0.390
 3133TIP3    H130958   1.204   3.030   0.381
 3133TIP3    H230959   1.172   2.924   0.484
 3134TIP3   OH230960   4.209   1.098   8.386
 3134TIP3    H130961   4.138   1.034   8.377
 3134TIP3    H230962   4.207   1.147   8.304
 3135TIP3   OH230963   1.561   1.331   1.533
 3135TIP3    H130964   1.626   1.288   1.477
 3135TIP3    H230965   1.577   1.297   1.621
 3136TIP3   OH230966   2.248   5.049   1.499
 3136TIP3    H130967   2.157   5.070   1.520
 3136TIP3    H230968   2.290   5.135   1.487
 3137TIP3   OH230969   3.299   3.457   6.625
 3137TIP3    H130970   3.259   3.525   6.570
 3137TIP3    H230971   3.248   3.379   6.608
 3138TIP3   OH230972   0.776   5.040   8.700
 3138TIP3    H130973   0.779   4.972   8.632
 3138TIP3    H230974   0.696   5.089   8.681
 3139TIP3   OH230975   4.662   5.039   1.450
 3139TIP3    H130976   4.697   4.951   1.463
 3139TIP3    H230977   4.598   5.029   1.380
 3140TIP3   OH230978   5.651   6.160   1.648
 3140TIP3    H130979   5.639   6.072   1.683
 3140TIP3    H230980   5.636   6.151   1.554
 3141TIP3   OH230981   2.486   4.887   6.447
 3141TIP3    H130982   2.469   4.964   6.502
 3141TIP3    H230983   2.566   4.848   6.484
 3142TIP3   OH230984   4.894   1.502   8.511
 3142TIP3    H130985   4.970   1.519   8.456
 3142TIP3    H230986   4.928   1.448   8.583
 3143TIP3   OH230987   1.226   0.631   1.470
 3143TIP3    H130988   1.304   0.623   1.415
 3143TIP3    H230989   1.248   0.582   1.549
 3144TIP3   OH230990   4.075   5.118   1.988
 3144TIP3    H130991   4.037   5.044   1.940
 3144TIP3    H230992   4.169   5.098   1.993
 3145TIP3   OH230993   5.057   5.657   7.424
 3145TIP3    H130994   5.093   5.580   7.469
 3145TIP3    H230995   5.122   5.678   7.357
 3146TIP3   OH230996   2.967   5.751   0.457
 3146TIP3    H130997   2.943   5.810   0.528
 3146TIP3    H230998   2.892   5.752   0.399
 3147TIP3   OH230999   2.181   5.036   1.974
 3147TIP3    H131000   2.252   5.019   1.912
 3147TIP3    H231001   2.226   5.056   2.057
 3148TIP3   OH231002   6.135   1.039   1.082
 3148TIP3    H131003   6.162   1.127   1.111
 3148TIP3    H231004   6.192   1.021   1.007
 3149TIP3   OH231005   5.250   2.128   0.218
 3149TIP3    H131006   5.165   2.122   0.174
 3149TIP3    H231007   5.237   2.191   0.289
 3150TIP3   OH231008   4.900   0.379   8.635
 3150TIP3    H131009   4.863   0.375   8.723
 3150TIP3    H231010   4.869   0.462   8.599
 3151TIP3   OH231011   0.457   0.222   2.503
 3151TIP3    H131012   0.535   0.272   2.527
 3151TIP3    H231013   0.385   0.285   2.511
 3152TIP3   OH231014   5.135   1.558   8.357
 3152TIP3    H131015   5.137   1.475   8.310
 3152TIP3    H231016   5.217   1.561   8.405
 3153TIP3   OH231017   3.394   4.421   0.618
 3153TIP3    H131018   3.314   4.383   0.654
 3153TIP3    H231019   3.424   4.481   0.686
 3154TIP3   OH231020   5.551   2.115   0.452
 3154TIP3    H131021   5.596   2.122   0.536
 3154TIP3    H231022   5.561   2.202   0.413
 3155TIP3   OH231023   6.728   2.989   1.571
 3155TIP3    H131024   6.823   2.998   1.566
 3155TIP3    H231025   6.700   3.059   1.630
 3156TIP3   OH231026   3.076   1.389   1.941
 3156TIP3    H131027   3.044   1.323   2.003
 3156TIP3    H231028   3.159   1.353   1.909
 3157TIP3   OH231029   4.118   0.672   1.726
 3157TIP3    H131030   4.033   0.627   1.727
 3157TIP3    H231031   4.164   0.633   1.651
 3158TIP3   OH231032   5.746   4.305   0.170
 3158TIP3    H131033   5.715   4.395   0.183
 3158TIP3    H231034   5.840   4.310   0.189
 3159TIP3   OH231035   2.047   0.273   2.161
 3159TIP3    H131036   2.014   0.253   2.249
 3159TIP3    H231037   2.112   0.206   2.144
 3160TIP3   OH231038   3.880   2.983   7.933
 3160TIP3    H131039   3.848   2.984   7.842
 3160TIP3    H231040   3.925   3.067   7.943
 3161TIP3   OH231041   1.980   4.840   0.750
 3161TIP3    H131042   1.948   4.908   0.691
 3161TIP3    H231043   2.071   4.827   0.724
 3162TIP3   OH231044   5.819   4.368   7.260
 3162TIP3    H131045   5.726   4.351   7.249
 3162TIP3    H231046   5.824   4.437   7.327
 3163TIP3   OH231047   3.094   2.543   0.120
 3163TIP3    H131048   3.010   2.498   0.117
 3163TIP3    H231049   3.116   2.559   0.028
 3164TIP3   OH231050   3.013   0.634   0.612
 3164TIP3    H131051   3.050   0.677   0.535
 3164TIP3    H231052   3.030   0.540   0.598
 3165TIP3   OH231053   1.545   5.345   6.109
 3165TIP3    H131054   1.533   5.411   6.041
 3165TIP3    H231055   1.471   5.285   6.097
 3166TIP3   OH231056   2.253   2.144   7.750
 3166TIP3    H131057   2.235   2.051   7.763
 3166TIP3    H231058   2.203   2.188   7.818
 3167TIP3   OH231059   1.311   2.140   8.513
 3167TIP3    H131060   1.372   2.199   8.557
 3167TIP3    H231061   1.295   2.070   8.577
 3168TIP3   OH231062   6.111   6.155   1.655
 3168TIP3    H131063   6.168   6.226   1.684
 3168TIP3    H231064   6.069   6.123   1.735
 3169TIP3   OH231065   3.181   2.882   2.409
 3169TIP3    H131066   3.142   2.797   2.428
 3169TIP3    H231067   3.179   2.928   2.493
 3170TIP3   OH231068   5.546   3.466   2.013
 3170TIP3    H131069   5.557   3.558   2.039
 3170TIP3    H231070   5.529   3.421   2.096
 3171TIP3   OH231071   6.696   5.299   0.146
 3171TIP3    H131072   6.780   5.334   0.175
 3171TIP3    H231073   6.635   5.372   0.155
 3172TIP3   OH231074   4.750   1.843   0.602
 3172TIP3    H131075   4.783   1.792   0.529
 3172TIP3    H231076   4.727   1.928   0.563
 3173TIP3   OH231077   5.482   3.417   1.349
 3173TIP3    H131078   5.400   3.384   1.313
 3173TIP3    H231079   5.538   3.429   1.272
 3174TIP3   OH231080   6.001   2.172   8.411
 3174TIP3    H131081   6.064   2.175   8.483
 3174TIP3    H231082   6.052   2.143   8.335
 3175TIP3   OH231083   4.007   0.105   0.135
 3175TIP3    H131084   4.030   0.013   0.149
 3175TIP3    H231085   4.090   0.148   0.118
 3176TIP3   OH231086   1.142   2.671   7.502
 3176TIP3    H131087   1.174   2.634   7.420
 3176TIP3    H231088   1.175   2.762   7.501
 3177TIP3   OH231089   1.448   0.605   2.307
 3177TIP3    H131090   1.436   0.699   2.318
 3177TIP3    H231091   1.400   0.566   2.380
 3178TIP3   OH231092   3.987   0.936   8.081
 3178TIP3    H131093   3.986   0.959   8.174
 3178TIP3    H231094   4.075   0.903   8.065
 3179TIP3   OH231095   5.353   6.560   7.773
 3179TIP3    H131096   5.263   6.592   7.767
 3179TIP3    H231097   5.356   6.485   7.714
 3180TIP3   OH231098   6.686   0.787   0.668
 3180TIP3    H131099   6.619   0.828   0.613
 3180TIP3    H231100   6.711   0.707   0.620
 3181TIP3   OH231101   2.903   4.821   8.716
 3181TIP3    H131102   2.865   4.853   8.634
 3181TIP3    H231103   2.846   4.750   8.743
 3182TIP3   OH231104   5.175   1.551   0.003
 3182TIP3    H131105   5.107   1.606   8.744
 3182TIP3    H231106   5.126   1.482   0.048
 3183TIP3   OH231107   1.000   4.114   6.731
 3183TIP3    H131108   0.973   4.184   6.672
 3183TIP3    H231109   1.079   4.078   6.690
 3184TIP3   OH231110   4.018   1.100   7.157
 3184TIP3    H131111   3.980   1.114   7.070
 3184TIP3    H231112   3.962   1.151   7.216
 3185TIP3   OH231113   2.689   2.822   0.328
 3185TIP3    H131114   2.773   2.831   0.373
 3185TIP3    H231115   2.642   2.754   0.377
 3186TIP3   OH231116   1.381   3.906   8.580
 3186TIP3    H131117   1.424   3.884   8.497
 3186TIP3    H231118   1.453   3.919   8.642
 3187TIP3   OH231119   3.727   5.456   7.797
 3187TIP3    H131120   3.768   5.429   7.714
 3187TIP3    H231121   3.722   5.375   7.848
 3188TIP3   OH231122   5.411   4.373   1.792
 3188TIP3    H131123   5.504   4.348   1.795
 3188TIP3    H231124   5.386   4.382   1.884
 3189TIP3   OH231125   3.477   5.131   0.503
 3189TIP3    H131126   3.522   5.049   0.485
 3189TIP3    H231127   3.419   5.144   0.427
 3190TIP3   OH231128   2.711   3.087   7.447
 3190TIP3    H131129   2.687   3.103   7.538
 3190TIP3    H231130   2.699   2.993   7.435
 3191TIP3   OH231131   0.731   0.646   0.099
 3191TIP3    H131132   0.711   0.558   0.068
 3191TIP3    H231133   0.769   0.690   0.023
 3192TIP3   OH231134   5.374   1.930   7.192
 3192TIP3    H131135   5.320   1.893   7.122
 3192TIP3    H231136   5.312   1.966   7.254
 3193TIP3   OH231137   1.275   6.159   1.661
 3193TIP3    H131138   1.337   6.107   1.712
 3193TIP3    H231139   1.317   6.245   1.653
 3194TIP3   OH231140   1.307   0.113   6.669
 3194TIP3    H131141   1.257   0.054   6.612
 3194TIP3    H231142   1.244   0.181   6.694
 3195TIP3   OH231143   3.004   1.852   0.720
 3195TIP3    H131144   2.911   1.833   0.706
 3195TIP3    H231145   3.045   1.766   0.728
 3196TIP3   OH231146   4.625   5.144   6.817
 3196TIP3    H131147   4.603   5.194   6.738
 3196TIP3    H231148   4.583   5.059   6.804
 3197TIP3   OH231149   0.642   4.129   1.071
 3197TIP3    H131150   0.656   4.217   1.107
 3197TIP3    H231151   0.700   4.125   0.995
 3198TIP3   OH231152   1.802   0.705   1.492
 3198TIP3    H131153   1.771   0.661   1.412
 3198TIP3    H231154   1.872   0.763   1.461
 3199TIP3   OH231155   0.114   2.829   8.399
 3199TIP3    H131156   0.199   2.797   8.430
 3199TIP3    H231157   0.050   2.784   8.454
 3200TIP3   OH231158   5.924   1.888   0.954
 3200TIP3    H131159   5.880   1.958   1.001
 3200TIP3    H231160   5.976   1.932   0.887
 3201TIP3   OH231161   2.547   2.472   6.558
 3201TIP3    H131162   2.504   2.386   6.550
 3201TIP3    H231163   2.509   2.511   6.637
 3202TIP3   OH231164   0.291   5.561   7.371
 3202TIP3    H131165   0.324   5.650   7.374
 3202TIP3    H231166   0.215   5.561   7.429
 3203TIP3   OH231167   2.074   2.284   0.567
 3203TIP3    H131168   2.001   2.240   0.523
 3203TIP3    H231169   2.033   2.356   0.615
 3204TIP3   OH231170   2.642   5.110   7.952
 3204TIP3    H131171   2.551   5.106   7.982
 3204TIP3    H231172   2.649   5.040   7.887
 3205TIP3   OH231173   6.698   4.854   8.109
 3205TIP3    H131174   6.738   4.768   8.124
 3205TIP3    H231175   6.697   4.896   8.195
 3206TIP3   OH231176   2.735   0.614   0.600
 3206TIP3    H131177   2.721   0.555   0.673
 3206TIP3    H231178   2.831   0.619   0.591
 3207TIP3   OH231179   0.224   3.909   7.089
 3207TIP3    H131180   0.271   3.930   7.169
 3207TIP3    H231181   0.199   3.995   7.052
 3208TIP3   OH231182   4.284   0.413   8.393
 3208TIP3    H131183   4.229   0.396   8.469
 3208TIP3    H231184   4.372   0.426   8.428
 3209TIP3   OH231185   0.372   4.919   0.793
 3209TIP3    H131186   0.404   4.836   0.757
 3209TIP3    H231187   0.416   4.926   0.877
 3210TIP3   OH231188   3.481   5.610   8.186
 3210TIP3    H131189   3.454   5.542   8.125
 3210TIP3    H231190   3.538   5.566   8.248
 3211TIP3   OH231191   2.585   5.951   0.638
 3211TIP3    H131192   2.605   5.892   0.566
 3211TIP3    H231193   2.546   6.028   0.597
 3212TIP3   OH231194   4.432   6.764   1.746
 3212TIP3    H131195   4.516   6.724   1.720
 3212TIP3    H231196   4.369   6.731   1.681
 3213TIP3   OH231197   4.598   4.940   7.129
 3213TIP3    H131198   4.591   4.912   7.221
 3213TIP3    H231199   4.562   5.029   7.129
 3214TIP3   OH231200   3.438   3.208   1.068
 3214TIP3    H131201   3.365   3.235   1.013
 3214TIP3    H231202   3.501   3.170   1.007
 3215TIP3   OH231203   1.384   6.432   1.669
 3215TIP3    H131204   1.315   6.433   1.735
 3215TIP3    H231205   1.460   6.471   1.713
 3216TIP3   OH231206   4.207   1.643   7.167
 3216TIP3    H131207   4.298   1.619   7.150
 3216TIP3    H231208   4.208   1.684   7.254
 3217TIP3   OH231209   0.441   5.308   6.917
 3217TIP3    H131210   0.346   5.310   6.904
 3217TIP3    H231211   0.453   5.265   7.001
 3218TIP3   OH231212   6.230   1.166   8.027
 3218TIP3    H131213   6.225   1.232   7.959
 3218TIP3    H231214   6.142   1.130   8.033
 3219TIP3   OH231215   3.231   3.671   0.861
 3219TIP3    H131216   3.186   3.681   0.778
 3219TIP3    H231217   3.321   3.700   0.844
 3220TIP3   OH231218   2.836   5.724   1.130
 3220TIP3    H131219   2.865   5.635   1.110
 3220TIP3    H231220   2.751   5.732   1.087
 3221TIP3   OH231221   5.496   1.300   7.547
 3221TIP3    H131222   5.571   1.256   7.586
 3221TIP3    H231223   5.523   1.318   7.457
 3222TIP3   OH231224   3.791   1.518   2.035
 3222TIP3    H131225   3.753   1.582   2.094
 3222TIP3    H231226   3.869   1.560   2.000
 3223TIP3   OH231227   6.385   4.986   1.019
 3223TIP3    H131228   6.330   5.063   1.013
 3223TIP3    H231229   6.353   4.939   1.096
 3224TIP3   OH231230   6.540   2.826   0.419
 3224TIP3    H131231   6.592   2.895   0.378
 3224TIP3    H231232   6.540   2.847   0.512
 3225TIP3   OH231233   6.817   3.867   8.403
 3225TIP3    H131234   6.824   3.962   8.404
 3225TIP3    H231235   0.077   3.837   8.373
 3226TIP3   OH231236   1.781   3.815   8.541
 3226TIP3    H131237   1.785   3.719   8.546
 3226TIP3    H231238   1.760   3.832   8.449
 3227TIP3   OH231239   6.823   6.244   8.332
 3227TIP3    H131240   6.768   6.179   8.289
 3227TIP3    H231241   0.086   6.206   8.329
 3228TIP3   OH231242   5.669   3.606   0.919
 3228TIP3    H131243   5.612   3.554   0.862
 3228TIP3    H231244   5.613   3.629   0.993
 3229TIP3   OH231245   2.065   3.323   6.485
 3229TIP3    H131246   2.084   3.411   6.452
 3229TIP3    H231247   2.129   3.309   6.555
 3230TIP3   OH231248   3.407   3.408   8.064
 3230TIP3    H131249   3.436   3.471   8.131
 3230TIP3    H231250   3.318   3.435   8.044
 3231TIP3   OH231251   5.956   4.069   7.277
 3231TIP3    H131252   5.912   4.140   7.323
 3231TIP3    H231253   6.041   4.106   7.251
 3232TIP3   OH231254   6.511   6.253   1.845
 3232TIP3    H131255   6.602   6.267   1.821
 3232TIP3    H231256   6.483   6.179   1.792
 3233TIP3   OH231257   2.984   5.604   0.116
 3233TIP3    H131258   3.067   5.635   0.152
 3233TIP3    H231259   2.921   5.620   0.186
 3234TIP3   OH231260   1.624   4.758   8.449
 3234TIP3    H131261   1.531   4.745   8.430
 3234TIP3    H231262   1.668   4.695   8.393
 3235TIP3   OH231263   4.115   6.061   1.793
 3235TIP3    H131264   4.203   6.029   1.775
 3235TIP3    H231265   4.127   6.135   1.852
 3236TIP3   OH231266   1.135   1.917   0.307
 3236TIP3    H131267   1.092   2.001   0.323
 3236TIP3    H231268   1.215   1.940   0.259
 3237TIP3   OH231269   1.258   2.656   6.893
 3237TIP3    H131270   1.213   2.717   6.834
 3237TIP3    H231271   1.256   2.699   6.978
 3238TIP3   OH231272   0.222   6.712   0.767
 3238TIP3    H131273   0.162   6.638   0.761
 3238TIP3    H231274   0.306   6.677   0.736
 3239TIP3   OH231275   5.124   1.111   2.523
 3239TIP3    H131276   5.113   1.021   2.491
 3239TIP3    H231277   5.046   1.157   2.494
 3240TIP3   OH231278   1.001   2.459   0.653
 3240TIP3    H131279   0.954   2.543   0.651
 3240TIP3    H231280   0.960   2.410   0.723
 3241TIP3   OH231281   3.915   0.851   8.774
 3241TIP3    H131282   3.862   0.916   8.728
 3241TIP3    H231283   4.005   0.884   8.766
 3242TIP3   OH231284   1.778   6.512   7.799
 3242TIP3    H131285   1.732   6.511   7.883
 3242TIP3    H231286   1.768   6.602   7.768
 3243TIP3   OH231287   5.454   1.043   8.636
 3243TIP3    H131288   5.442   0.948   8.649
 3243TIP3    H231289   5.427   1.081   8.720
 3244TIP3   OH231290   2.653   0.896   0.583
 3244TIP3    H131291   2.652   0.804   0.609
 3244TIP3    H231292   2.738   0.908   0.540
 3245TIP3   OH231293   2.325   1.327   0.040
 3245TIP3    H131294   2.266   1.290   8.755
 3245TIP3    H231295   2.326   1.263   0.111
 3246TIP3   OH231296   1.078   1.152   6.143
 3246TIP3    H131297   1.093   1.158   6.238
 3246TIP3    H231298   1.051   1.061   6.129
 3247TIP3   OH231299   4.414   6.253   7.565
 3247TIP3    H131300   4.370   6.182   7.613
 3247TIP3    H231301   4.464   6.300   7.632
 3248TIP3   OH231302   6.459   2.884   7.982
 3248TIP3    H131303   6.532   2.938   7.951
 3248TIP3    H231304   6.424   2.931   8.057
 3249TIP3   OH231305   2.973   0.766   1.101
 3249TIP3    H131306   2.955   0.827   1.030
 3249TIP3    H231307   3.014   0.691   1.059
 3250TIP3   OH231308   6.287   3.866   7.817
 3250TIP3    H131309   6.269   3.866   7.911
 3250TIP3    H231310   6.205   3.895   7.777
 3251TIP3   OH231311   1.039   2.794   7.935
 3251TIP3    H131312   0.957   2.746   7.921
 3251TIP3    H231313   1.107   2.736   7.901
 3252TIP3   OH231314   2.712   2.240   8.555
 3252TIP3    H131315   2.730   2.146   8.554
 3252TIP3    H231316   2.710   2.264   8.647
 3253TIP3   OH231317   0.862   1.667   0.752
 3253TIP3    H131318   0.935   1.690   0.694
 3253TIP3    H231319   0.899   1.672   0.840
 3254TIP3   OH231320   1.868   0.291   7.185
 3254TIP3    H131321   1.875   0.377   7.142
 3254TIP3    H231322   1.792   0.299   7.242
 3255TIP3   OH231323   5.386   0.805   7.037
 3255TIP3    H131324   5.411   0.719   7.072
 3255TIP3    H231325   5.301   0.789   6.995
 3256TIP3   OH231326   4.526   4.695   7.028
 3256TIP3    H131327   4.520   4.783   7.063
 3256TIP3    H231328   4.578   4.703   6.948
 3257TIP3   OH231329   5.406   4.222   8.201
 3257TIP3    H131330   5.448   4.261   8.277
 3257TIP3    H231331   5.477   4.202   8.140
 3258TIP3   OH231332   0.496   1.616   1.353
 3258TIP3    H131333   0.440   1.616   1.431
 3258TIP3    H231334   0.517   1.523   1.340
 3259TIP3   OH231335   3.601   1.877   8.745
 3259TIP3    H131336   3.615   1.964   0.003
 3259TIP3    H231337   3.688   1.836   8.747
 3260TIP3   OH231338   6.799   3.885   6.186
 3260TIP3    H131339   0.038   3.924   6.127
 3260TIP3    H231340   0.017   3.885   6.272
 3261TIP3   OH231341   5.374   0.474   8.081
 3261TIP3    H131342   5.296   0.472   8.026
 3261TIP3    H231343   5.380   0.386   8.119
 3262TIP3   OH231344   4.775   1.474   6.845
 3262TIP3    H131345   4.724   1.554   6.838
 3262TIP3    H231346   4.715   1.405   6.816
 3263TIP3   OH231347   5.196   0.560   1.763
 3263TIP3    H131348   5.173   0.648   1.731
 3263TIP3    H231349   5.225   0.575   1.853
 3264TIP3   OH231350   2.491   5.903   1.535
 3264TIP3    H131351   2.410   5.853   1.540
 3264TIP3    H231352   2.517   5.898   1.443
 3265TIP3   OH231353   4.852   1.637   1.205
 3265TIP3    H131354   4.854   1.620   1.300
 3265TIP3    H231355   4.772   1.688   1.192
 3266TIP3   OH231356   2.832   5.303   1.448
 3266TIP3    H131357   2.827   5.398   1.449
 3266TIP3    H231358   2.828   5.277   1.540
 3267TIP3   OH231359   5.404   3.865   0.206
 3267TIP3    H131360   5.375   3.798   0.268
 3267TIP3    H231361   5.497   3.845   0.191
 3268TIP3   OH231362   4.533   1.770   7.371
 3268TIP3    H131363   4.585   1.705   7.325
 3268TIP3    H231364   4.595   1.814   7.430
 3269TIP3   OH231365   6.575   0.578   7.566
 3269TIP3    H131366   6.523   0.546   7.640
 3269TIP3    H231367   6.513   0.628   7.514
 3270TIP3   OH231368   6.063   2.302   6.754
 3270TIP3    H131369   6.076   2.228   6.812
 3270TIP3    H231370   5.994   2.354   6.796
 3271TIP3   OH231371   2.045   3.536   0.422
 3271TIP3    H131372   2.122   3.480   0.411
 3271TIP3    H231373   1.991   3.516   0.345
 3272TIP3   OH231374   2.372   1.933   1.488
 3272TIP3    H131375   2.423   1.860   1.455
 3272TIP3    H231376   2.313   1.895   1.553
 3273TIP3   OH231377   4.404   2.334   0.517
 3273TIP3    H131378   4.372   2.346   0.427
 3273TIP3    H231379   4.325   2.312   0.567
 3274TIP3   OH231380   3.449   5.966   8.356
 3274TIP3    H131381   3.473   6.056   8.335
 3274TIP3    H231382   3.463   5.958   8.450
 3275TIP3   OH231383   6.225   2.232   6.493
 3275TIP3    H131384   6.230   2.291   6.417
 3275TIP3    H231385   6.148   2.261   6.541
 3276TIP3   OH231386   1.605   6.518   1.783
 3276TIP3    H131387   1.657   6.582   1.734
 3276TIP3    H231388   1.664   6.489   1.854
 3277TIP3   OH231389   4.413   3.820   2.555
 3277TIP3    H131390   4.341   3.864   2.600
 3277TIP3    H231391   4.487   3.879   2.564
 3278TIP3   OH231392   2.845   5.287   8.182
 3278TIP3    H131393   2.756   5.318   8.165
 3278TIP3    H231394   2.854   5.209   8.127
 3279TIP3   OH231395   0.556   0.659   8.496
 3279TIP3    H131396   0.643   0.673   8.532
 3279TIP3    H231397   0.527   0.747   8.470
 3280TIP3   OH231398   1.805   4.887   0.974
 3280TIP3    H131399   1.849   4.870   0.891
 3280TIP3    H231400   1.742   4.957   0.954
 3281TIP3   OH231401   1.223   0.573   1.072
 3281TIP3    H131402   1.296   0.566   1.133
 3281TIP3    H231403   1.182   0.486   1.073
 3282TIP3   OH231404   0.979   5.921   0.957
 3282TIP3    H131405   1.007   5.930   0.866
 3282TIP3    H231406   0.948   5.831   0.964
 3283TIP3   OH231407   5.579   3.877   6.634
 3283TIP3    H131408   5.643   3.841   6.572
 3283TIP3    H231409   5.567   3.968   6.606
 3284TIP3   OH231410   4.184   6.273   0.201
 3284TIP3    H131411   4.250   6.223   0.153
 3284TIP3    H231412   4.226   6.358   0.216
 3285TIP3   OH231413   3.547   1.497   1.835
 3285TIP3    H131414   3.628   1.481   1.884
 3285TIP3    H231415   3.577   1.529   1.749
 3286TIP3   OH231416   4.647   1.597   0.765
 3286TIP3    H131417   4.635   1.594   0.670
 3286TIP3    H231418   4.717   1.534   0.782
 3287TIP3   OH231419   0.216   4.404   7.432
 3287TIP3    H131420   0.159   4.417   7.356
 3287TIP3    H231421   0.265   4.324   7.412
 3288TIP3   OH231422   0.624   2.097   1.682
 3288TIP3    H131423   0.715   2.115   1.706
 3288TIP3    H231424   0.573   2.154   1.739
 3289TIP3   OH231425   2.882   4.059   6.693
 3289TIP3    H131426   2.792   4.034   6.715
 3289TIP3    H231427   2.874   4.151   6.664
 3290TIP3   OH231428   6.125   1.515   1.653
 3290TIP3    H131429   6.181   1.560   1.590
 3290TIP3    H231430   6.171   1.434   1.674
 3291TIP3   OH231431   0.820   5.725   6.747
 3291TIP3    H131432   0.853   5.754   6.662
 3291TIP3    H231433   0.773   5.802   6.781
 3292TIP3   OH231434   3.232   6.131   1.702
 3292TIP3    H131435   3.304   6.080   1.740
 3292TIP3    H231436   3.275   6.194   1.644
 3293TIP3   OH231437   0.985   4.387   8.014
 3293TIP3    H131438   1.006   4.405   8.105
 3293TIP3    H231439   1.034   4.452   7.964
 3294TIP3   OH231440   1.043   3.819   0.834
 3294TIP3    H131441   1.072   3.831   0.925
 3294TIP3    H231442   0.947   3.820   0.839
 3295TIP3   OH231443   1.534   5.419   8.371
 3295TIP3    H131444   1.468   5.383   8.312
 3295TIP3    H231445   1.503   5.397   8.459
 3296TIP3   OH231446   5.135   0.368   2.674
 3296TIP3    H131447   5.228   0.370   2.651
 3296TIP3    H231448   5.092   0.336   2.595
 3297TIP3   OH231449   6.597   1.881   0.315
 3297TIP3    H131450   6.651   1.864   0.238
 3297TIP3    H231451   6.534   1.809   0.317
 3298TIP3   OH231452   6.076   4.266   8.244
 3298TIP3    H131453   6.166   4.235   8.234
 3298TIP3    H231454   6.072   4.300   8.333
 3299TIP3   OH231455   2.897   3.115   7.239
 3299TIP3    H131456   2.861   3.084   7.321
 3299TIP3    H231457   2.867   3.206   7.232
 3300TIP3   OH231458   5.048   1.663   6.779
 3300TIP3    H131459   4.963   1.627   6.754
 3300TIP3    H231460   5.044   1.755   6.751
 3301TIP3   OH231461   5.573   3.732   1.483
 3301TIP3    H131462   5.604   3.718   1.573
 3301TIP3    H231463   5.638   3.790   1.444
 3302TIP3   OH231464   1.223   1.975   6.789
 3302TIP3    H131465   1.201   1.940   6.876
 3302TIP3    H231466   1.140   1.970   6.740
 3303TIP3   OH231467   1.960   1.029   0.167
 3303TIP3    H131468   1.997   0.977   0.239
 3303TIP3    H231469   1.876   0.987   0.148
 3304TIP3   OH231470   4.349   4.515   1.960
 3304TIP3    H131471   4.356   4.610   1.970
 3304TIP3    H231472   4.434   4.481   1.987
 3305TIP3   OH231473   2.257   5.240   1.175
 3305TIP3    H131474   2.228   5.323   1.139
 3305TIP3    H231475   2.256   5.180   1.100
 3306TIP3   OH231476   6.268   0.544   2.213
 3306TIP3    H131477   6.256   0.463   2.163
 3306TIP3    H231478   6.335   0.522   2.278
 3307TIP3   OH231479   3.468   0.819   1.923
 3307TIP3    H131480   3.425   0.878   1.986
 3307TIP3    H231481   3.406   0.748   1.909
 3308TIP3   OH231482   1.101   1.345   8.369
 3308TIP3    H131483   1.178   1.389   8.331
 3308TIP3    H231484   1.127   1.328   8.460
 3309TIP3   OH231485   0.542   1.362   8.372
 3309TIP3    H131486   0.551   1.438   8.430
 3309TIP3    H231487   0.577   1.289   8.423
 3310TIP3   OH231488   5.178   3.364   0.912
 3310TIP3    H131489   5.157   3.280   0.951
 3310TIP3    H231490   5.093   3.403   0.891
 3311TIP3   OH231491   2.256   1.474   7.521
 3311TIP3    H131492   2.235   1.567   7.511
 3311TIP3    H231493   2.331   1.460   7.464
 3312TIP3   OH231494   6.381   5.054   0.097
 3312TIP3    H131495   6.424   5.090   0.019
 3312TIP3    H231496   6.331   4.979   0.063
 3313TIP3   OH231497   0.068   1.499   8.198
 3313TIP3    H131498   0.102   1.560   8.133
 3313TIP3    H231499   0.130   1.426   8.197
 3314TIP3   OH231500   3.557   2.288   1.366
 3314TIP3    H131501   3.628   2.330   1.415
 3314TIP3    H231502   3.602   2.230   1.304
 3315TIP3   OH231503   6.012   2.921   2.130
 3315TIP3    H131504   6.072   2.872   2.186
 3315TIP3    H231505   5.990   2.999   2.181
 3316TIP3   OH231506   5.225   1.817   0.170
 3316TIP3    H131507   5.154   1.837   0.231
 3316TIP3    H231508   5.284   1.892   0.176
 3317TIP3   OH231509   2.338   3.911   1.235
 3317TIP3    H131510   2.257   3.961   1.241
 3317TIP3    H231511   2.371   3.906   1.325
 3318TIP3   OH231512   3.143   2.967   0.916
 3318TIP3    H131513   3.091   3.007   0.847
 3318TIP3    H231514   3.105   2.880   0.928
 3319TIP3   OH231515   2.706   3.959   6.998
 3319TIP3    H131516   2.682   3.985   6.909
 3319TIP3    H231517   2.624   3.963   7.047
 3320TIP3   OH231518   0.124   0.828   7.698
 3320TIP3    H131519   0.042   0.872   7.720
 3320TIP3    H231520   0.193   0.888   7.726
 3321TIP3   OH231521   1.798   6.330   1.427
 3321TIP3    H131522   1.839   6.356   1.510
 3321TIP3    H231523   1.855   6.365   1.359
 3322TIP3   OH231524   3.355   3.923   6.501
 3322TIP3    H131525   3.387   4.013   6.501
 3322TIP3    H231526   3.273   3.926   6.550
 3323TIP3   OH231527   2.735   3.132   2.641
 3323TIP3    H131528   2.702   3.100   2.726
 3323TIP3    H231529   2.752   3.052   2.591
 3324TIP3   OH231530   2.547   3.052   8.291
 3324TIP3    H131531   2.590   2.967   8.276
 3324TIP3    H231532   2.584   3.109   8.223
 3325TIP3   OH231533   4.910   1.221   7.303
 3325TIP3    H131534   4.871   1.306   7.286
 3325TIP3    H231535   4.881   1.166   7.231
 3326TIP3   OH231536   6.180   4.257   6.771
 3326TIP3    H131537   6.271   4.267   6.742
 3326TIP3    H231538   6.180   4.177   6.823
 3327TIP3   OH231539   5.174   2.311   8.338
 3327TIP3    H131540   5.195   2.333   8.429
 3327TIP3    H231541   5.211   2.383   8.287
 3328TIP3   OH231542   3.022   4.775   0.835
 3328TIP3    H131543   2.926   4.774   0.825
 3328TIP3    H231544   3.036   4.777   0.929
 3329TIP3   OH231545   4.652   2.523   0.517
 3329TIP3    H131546   4.595   2.594   0.547
 3329TIP3    H231547   4.593   2.448   0.507
 3330TIP3   OH231548   0.766   1.485   7.187
 3330TIP3    H131549   0.696   1.482   7.122
 3330TIP3    H231550   0.786   1.578   7.197
 3331TIP3   OH231551   0.530   3.235   0.708
 3331TIP3    H131552   0.589   3.190   0.648
 3331TIP3    H231553   0.443   3.216   0.674
 3332TIP3   OH231554   2.714   3.296   7.823
 3332TIP3    H131555   2.702   3.213   7.776
 3332TIP3    H231556   2.741   3.359   7.756
 3333TIP3   OH231557   2.319   4.201   6.957
 3333TIP3    H131558   2.367   4.281   6.940
 3333TIP3    H231559   2.231   4.218   6.925
 3334TIP3   OH231560   6.571   0.903   0.417
 3334TIP3    H131561   6.666   0.910   0.430
 3334TIP3    H231562   6.538   0.992   0.431
 3335TIP3   OH231563   4.553   1.187   7.316
 3335TIP3    H131564   4.612   1.260   7.336
 3335TIP3    H231565   4.467   1.218   7.346
 3336TIP3   OH231566   3.151   3.311   6.976
 3336TIP3    H131567   3.153   3.392   7.027
 3336TIP3    H231568   3.077   3.322   6.917
 3337TIP3   OH231569   3.628   4.956   7.857
 3337TIP3    H131570   3.615   4.874   7.904
 3337TIP3    H231571   3.562   4.955   7.788
 3338TIP3   OH231572   1.111   1.752   0.527
 3338TIP3    H131573   1.116   1.818   0.458
 3338TIP3    H231574   1.202   1.730   0.546
 3339TIP3   OH231575   5.782   2.026   1.173
 3339TIP3    H131576   5.746   2.004   1.259
 3339TIP3    H231577   5.858   2.081   1.192
 3340TIP3   OH231578   1.771   5.828   1.240
 3340TIP3    H131579   1.789   5.918   1.212
 3340TIP3    H231580   1.805   5.773   1.169
 3341TIP3   OH231581   1.019   3.030   0.833
 3341TIP3    H131582   0.965   3.107   0.847
 3341TIP3    H231583   1.043   3.001   0.921
 3342TIP3   OH231584   2.151   6.704   8.736
 3342TIP3    H131585   2.238   6.664   8.732
 3342TIP3    H231586   2.138   6.725   0.048
 3343TIP3   OH231587   2.796   1.324   2.246
 3343TIP3    H131588   2.805   1.339   2.340
 3343TIP3    H231589   2.883   1.296   2.218
 3344TIP3   OH231590   3.009   2.798   2.761
 3344TIP3    H131591   2.993   2.737   2.689
 3344TIP3    H231592   2.930   2.793   2.815
 3345TIP3   OH231593   5.805   0.109   1.850
 3345TIP3    H131594   5.754   0.188   1.830
 3345TIP3    H231595   5.894   0.141   1.863
 3346TIP3   OH231596   6.777   1.820   8.149
 3346TIP3    H131597   6.798   1.904   8.191
 3346TIP3    H231598   0.032   1.795   8.103
 3347TIP3   OH231599   4.203   3.196   1.625
 3347TIP3    H131600   4.271   3.169   1.686
 3347TIP3    H231601   4.127   3.217   1.680
 3348TIP3   OH231602   3.057   2.509   1.553
 3348TIP3    H131603   3.040   2.576   1.620
 3348TIP3    H231604   3.021   2.547   1.473
 3349TIP3   OH231605   4.796   0.666   0.502
 3349TIP3    H131606   4.706   0.686   0.474
 3349TIP3    H231607   4.791   0.663   0.598
 3350TIP3   OH231608   3.156   4.900   0.047
 3350TIP3    H131609   3.070   4.860   0.032
 3350TIP3    H231610   3.147   4.989   0.016
 3351TIP3   OH231611   6.240   3.405   0.672
 3351TIP3    H131612   6.334   3.413   0.686
 3351TIP3    H231613   6.203   3.410   0.761
 3352TIP3   OH231614   3.424   0.318   7.680
 3352TIP3    H131615   3.440   0.407   7.713
 3352TIP3    H231616   3.493   0.266   7.720
 3353TIP3   OH231617   5.308   0.790   1.952
 3353TIP3    H131618   5.361   0.806   2.030
 3353TIP3    H231619   5.219   0.778   1.985
 3354TIP3   OH231620   5.414   4.410   0.567
 3354TIP3    H131621   5.357   4.344   0.608
 3354TIP3    H231622   5.459   4.452   0.641
 3355TIP3   OH231623   2.769   1.545   1.799
 3355TIP3    H131624   2.734   1.494   1.872
 3355TIP3    H231625   2.763   1.487   1.724
 3356TIP3   OH231626   5.532   4.319   7.214
 3356TIP3    H131627   5.480   4.244   7.188
 3356TIP3    H231628   5.517   4.328   7.308
 3357TIP3   OH231629   1.591   4.641   7.944
 3357TIP3    H131630   1.567   4.551   7.920
 3357TIP3    H231631   1.627   4.633   8.032
 3358TIP3   OH231632   6.484   0.102   6.889
 3358TIP3    H131633   6.484   0.010   6.915
 3358TIP3    H231634   6.434   0.104   6.807
 3359TIP3   OH231635   2.340   3.462   1.996
 3359TIP3    H131636   2.407   3.506   2.049
 3359TIP3    H231637   2.339   3.511   1.913
 3360TIP3   OH231638   0.535   4.153   8.143
 3360TIP3    H131639   0.597   4.163   8.071
 3360TIP3    H231640   0.458   4.113   8.103
 3361TIP3   OH231641   3.985   2.865   1.369
 3361TIP3    H131642   3.946   2.779   1.353
 3361TIP3    H231643   4.051   2.850   1.436
 3362TIP3   OH231644   3.306   4.649   7.375
 3362TIP3    H131645   3.369   4.662   7.447
 3362TIP3    H231646   3.280   4.557   7.384
 3363TIP3   OH231647   5.872   1.203   8.320
 3363TIP3    H131648   5.906   1.255   8.248
 3363TIP3    H231649   5.800   1.256   8.356
 3364TIP3   OH231650   1.388   2.742   8.517
 3364TIP3    H131651   1.395   2.722   8.611
 3364TIP3    H231652   1.440   2.821   8.506
 3365TIP3   OH231653   5.414   4.093   7.129
 3365TIP3    H131654   5.376   4.094   7.041
 3365TIP3    H231655   5.351   4.045   7.182
 3366TIP3   OH231656   4.580   0.516   0.144
 3366TIP3    H131657   4.635   0.439   0.129
 3366TIP3    H231658   4.499   0.497   0.097
 3367TIP3   OH231659   5.481   3.697   8.717
 3367TIP3    H131660   5.524   3.658   8.641
 3367TIP3    H231661   5.554   3.729   8.771
 3368TIP3   OH231662   3.660   4.824   6.222
 3368TIP3    H131663   3.644   4.746   6.168
 3368TIP3    H231664   3.743   4.806   6.267
 3369TIP3   OH231665   1.241   1.728   6.554
 3369TIP3    H131666   1.264   1.678   6.476
 3369TIP3    H231667   1.148   1.711   6.567
 3370TIP3   OH231668   5.310   3.308   0.647
 3370TIP3    H131669   5.289   3.385   0.699
 3370TIP3    H231670   5.266   3.323   0.563
 3371TIP3   OH231671   3.439   6.708   6.361
 3371TIP3    H131672   3.419   6.672   6.447
 3371TIP3    H231673   3.364   6.764   6.340
 3372TIP3   OH231674   3.783   0.384   7.130
 3372TIP3    H131675   3.794   0.432   7.212
 3372TIP3    H231676   3.766   0.452   7.065
 3373TIP3   OH231677   2.067   0.326   8.117
 3373TIP3    H131678   2.126   0.288   8.052
 3373TIP3    H231679   2.050   0.255   8.179
 3374TIP3   OH231680   0.308   0.724   8.021
 3374TIP3    H131681   0.216   0.703   8.002
 3374TIP3    H231682   0.355   0.705   7.940
 3375TIP3   OH231683   5.465   3.481   2.595
 3375TIP3    H131684   5.461   3.386   2.584
 3375TIP3    H231685   5.507   3.494   2.680
 3376TIP3   OH231686   4.035   0.013   0.612
 3376TIP3    H131687   3.981   0.052   0.544
 3376TIP3    H231688   4.104   0.077   0.628
 3377TIP3   OH231689   0.662   4.655   6.907
 3377TIP3    H131690   0.720   4.579   6.911
 3377TIP3    H231691   0.630   4.656   6.817
 3378TIP3   OH231692   4.928   1.663   1.518
 3378TIP3    H131693   4.866   1.713   1.571
 3378TIP3    H231694   4.981   1.616   1.582
 3379TIP3   OH231695   2.477   4.411   1.260
 3379TIP3    H131696   2.572   4.423   1.250
 3379TIP3    H231697   2.453   4.473   1.329
 3380TIP3   OH231698   3.405   6.348   6.917
 3380TIP3    H131699   3.453   6.293   6.978
 3380TIP3    H231700   3.321   6.365   6.960
 3381TIP3   OH231701   0.203   5.253   2.153
 3381TIP3    H131702   0.277   5.230   2.097
 3381TIP3    H231703   0.201   5.184   2.220
 3382TIP3   OH231704   0.047   0.235   0.977
 3382TIP3    H131705   6.814   0.297   1.020
 3382TIP3    H231706   0.006   0.150   0.991
 3383TIP3   OH231707   5.766   1.852   0.002
 3383TIP3    H131708   5.677   1.853   8.749
 3383TIP3    H231709   5.757   1.830   0.094
 3384TIP3   OH231710   6.455   6.548   6.739
 3384TIP3    H131711   6.414   6.621   6.693
 3384TIP3    H231712   6.548   6.552   6.715
 3385TIP3   OH231713   6.499   0.330   8.293
 3385TIP3    H131714   6.422   0.272   8.294
 3385TIP3    H231715   6.574   0.270   8.296
 3386TIP3   OH231716   2.232   5.947   6.556
 3386TIP3    H131717   2.306   6.008   6.548
 3386TIP3    H231718   2.221   5.934   6.650
 3387TIP3   OH231719   5.470   0.715   1.723
 3387TIP3    H131720   5.556   0.673   1.733
 3387TIP3    H231721   5.450   0.750   1.810
 3388TIP3   OH231722   0.227   4.064   0.680
 3388TIP3    H131723   0.164   4.073   0.752
 3388TIP3    H231724   0.308   4.102   0.715
 3389TIP3   OH231725   6.629   4.920   1.403
 3389TIP3    H131726   6.616   4.872   1.484
 3389TIP3    H231727   6.555   4.895   1.348
 3390TIP3   OH231728   0.366   5.327   8.523
 3390TIP3    H131729   0.307   5.402   8.509
 3390TIP3    H231730   0.451   5.367   8.543
 3391TIP3   OH231731   4.055   3.987   0.450
 3391TIP3    H131732   4.070   4.069   0.403
 3391TIP3    H231733   3.964   3.993   0.480
 3392TIP3   OH231734   2.651   4.277   8.001
 3392TIP3    H131735   2.632   4.349   8.061
 3392TIP3    H231736   2.629   4.310   7.915
 3393TIP3   OH231737   0.734   4.140   0.510
 3393TIP3    H131738   0.744   4.196   0.433
 3393TIP3    H231739   0.662   4.081   0.487
 3394TIP3   OH231740   6.620   3.242   7.681
 3394TIP3    H131741   6.712   3.222   7.698
 3394TIP3    H231742   6.609   3.231   7.587
 3395TIP3   OH231743   3.459   0.563   7.789
 3395TIP3    H131744   3.441   0.654   7.766
 3395TIP3    H231745   3.438   0.557   7.882
 3396TIP3   OH231746   5.090   6.494   2.762
 3396TIP3    H131747   5.005   6.466   2.725
 3396TIP3    H231748   5.153   6.431   2.726
 3397TIP3   OH231749   3.564   5.664   7.054
 3397TIP3    H131750   3.571   5.683   6.961
 3397TIP3    H231751   3.652   5.679   7.089
 3398TIP3   OH231752   4.830   5.419   7.114
 3398TIP3    H131753   4.780   5.456   7.041
 3398TIP3    H231754   4.921   5.439   7.093
 3399TIP3   OH231755   5.773   1.667   7.453
 3399TIP3    H131756   5.729   1.625   7.527
 3399TIP3    H231757   5.860   1.627   7.451
 3400TIP3   OH231758   1.389   3.189   7.356
 3400TIP3    H131759   1.377   3.103   7.395
 3400TIP3    H231760   1.406   3.172   7.264
 3401TIP3   OH231761   6.395   5.914   1.157
 3401TIP3    H131762   6.404   5.864   1.076
 3401TIP3    H231763   6.313   5.883   1.196
 3402TIP3   OH231764   0.872   6.703   1.757
 3402TIP3    H131765   0.873   6.766   1.829
 3402TIP3    H231766   0.785   6.662   1.761
 3403TIP3   OH231767   2.126   2.610   1.380
 3403TIP3    H131768   2.189   2.561   1.433
 3403TIP3    H231769   2.162   2.606   1.291
 3404TIP3   OH231770   3.429   5.942   0.877
 3404TIP3    H131771   3.412   5.848   0.884
 3404TIP3    H231772   3.408   5.964   0.786
 3405TIP3   OH231773   2.337   6.438   7.536
 3405TIP3    H131774   2.314   6.465   7.624
 3405TIP3    H231775   2.258   6.451   7.484
 3406TIP3   OH231776   5.906   2.861   8.085
 3406TIP3    H131777   5.860   2.930   8.132
 3406TIP3    H231778   5.849   2.840   8.012
 3407TIP3   OH231779   4.587   3.164   6.462
 3407TIP3    H131780   4.675   3.200   6.459
 3407TIP3    H231781   4.529   3.240   6.456
 3408TIP3   OH231782   6.762   3.302   1.363
 3408TIP3    H131783   6.733   3.269   1.447
 3408TIP3    H231784   6.749   3.397   1.368
 3409TIP3   OH231785   5.435   0.418   7.500
 3409TIP3    H131786   5.379   0.492   7.475
 3409TIP3    H231787   5.418   0.351   7.433
 3410TIP3   OH231788   4.785   3.918   1.442
 3410TIP3    H131789   4.696   3.951   1.457
 3410TIP3    H231790   4.795   3.848   1.507
 3411TIP3   OH231791   4.888   3.081   1.815
 3411TIP3    H131792   4.852   3.151   1.869
 3411TIP3    H231793   4.942   3.030   1.875
 3412TIP3   OH231794   2.651   0.913   8.173
 3412TIP3    H131795   2.561   0.943   8.160
 3412TIP3    H231796   2.690   0.978   8.231
 3413TIP3   OH231797   3.792   1.487   8.716
 3413TIP3    H131798   3.833   1.428   8.779
 3413TIP3    H231799   3.826   1.573   8.738
 3414TIP3   OH231800   6.359   2.975   8.211
 3414TIP3    H131801   6.297   2.933   8.272
 3414TIP3    H231802   6.391   3.051   8.259
 3415TIP3   OH231803   2.629   3.503   1.655
 3415TIP3    H131804   2.535   3.518   1.669
 3415TIP3    H231805   2.657   3.456   1.733
 3416TIP3   OH231806   6.774   5.153   0.650
 3416TIP3    H131807   6.757   5.226   0.710
 3416TIP3    H231808   0.037   5.169   0.617
 3417TIP3   OH231809   4.410   6.138   0.134
 3417TIP3    H131810   4.424   6.053   0.090
 3417TIP3    H231811   4.421   6.202   0.064
 3418TIP3   OH231812   4.336   5.974   0.777
 3418TIP3    H131813   4.249   6.011   0.763
 3418TIP3    H231814   4.333   5.889   0.733
 3419TIP3   OH231815   1.290   3.443   1.701
 3419TIP3    H131816   1.238   3.374   1.743
 3419TIP3    H231817   1.306   3.507   1.770
 3420TIP3   OH231818   1.729   3.680   0.987
 3420TIP3    H131819   1.812   3.659   0.944
 3420TIP3    H231820   1.701   3.597   1.027
 3421TIP3   OH231821   1.401   0.053   1.217
 3421TIP3    H131822   1.442   0.120   1.271
 3421TIP3    H231823   1.438   6.796   1.248
 3422TIP3   OH231824   2.053   0.787   7.689
 3422TIP3    H131825   2.113   0.713   7.692
 3422TIP3    H231826   2.060   0.827   7.775
 3423TIP3   OH231827   2.700   6.803   7.404
 3423TIP3    H131828   2.639   6.732   7.420
 3423TIP3    H231829   2.695   6.819   7.310
 3424TIP3   OH231830   1.009   2.917   2.411
 3424TIP3    H131831   0.983   3.003   2.446
 3424TIP3    H231832   0.985   2.855   2.480
 3425TIP3   OH231833   1.420   0.708   7.165
 3425TIP3    H131834   1.360   0.782   7.153
 3425TIP3    H231835   1.369   0.643   7.212
 3426TIP3   OH231836   6.056   5.744   0.276
 3426TIP3    H131837   6.063   5.683   0.203
 3426TIP3    H231838   6.094   5.697   0.350
 3427TIP3   OH231839   0.270   6.527   7.232
 3427TIP3    H131840   0.259   6.562   7.143
 3427TIP3    H231841   0.313   6.598   7.280
 3428TIP3   OH231842   5.726   0.585   8.745
 3428TIP3    H131843   5.785   0.646   8.699
 3428TIP3    H231844   5.687   0.638   0.033
 3429TIP3   OH231845   4.961   0.465   2.883
 3429TIP3    H131846   4.990   0.552   2.854
 3429TIP3    H231847   5.034   0.407   2.859
 3430TIP3   OH231848   5.804   1.538   7.144
 3430TIP3    H131849   5.720   1.534   7.098
 3430TIP3    H231850   5.821   1.447   7.170
 3431TIP3   OH231851   6.216   0.815   0.153
 3431TIP3    H131852   6.177   0.887   0.201
 3431TIP3    H231853   6.202   0.837   0.061
 3432TIP3   OH231854   3.228   0.887   1.173
 3432TIP3    H131855   3.186   0.812   1.130
 3432TIP3    H231856   3.247   0.948   1.101
 3433TIP3   OH231857   2.437   4.801   0.123
 3433TIP3    H131858   2.518   4.770   0.163
 3433TIP3    H231859   2.460   4.886   0.084
 3434TIP3   OH231860   1.321   1.021   1.535
 3434TIP3    H131861   1.385   0.959   1.570
 3434TIP3    H231862   1.367   1.063   1.462
 3435TIP3   OH231863   4.145   0.033   7.116
 3435TIP3    H131864   4.129   0.127   7.107
 3435TIP3    H231865   4.071   6.817   7.070
 3436TIP3   OH231866   2.172   6.104   8.143
 3436TIP3    H131867   2.171   6.199   8.136
 3436TIP3    H231868   2.243   6.076   8.084
 3437TIP3   OH231869   2.695   4.176   6.322
 3437TIP3    H131870   2.642   4.255   6.332
 3437TIP3    H231871   2.786   4.206   6.332
 3438TIP3   OH231872   6.370   1.678   0.951
 3438TIP3    H131873   6.287   1.688   0.997
 3438TIP3    H231874   6.350   1.702   0.860
 3439TIP3   OH231875   2.299   5.026   7.638
 3439TIP3    H131876   2.274   5.053   7.726
 3439TIP3    H231877   2.219   4.991   7.600
 3440TIP3   OH231878   0.125   3.771   6.671
 3440TIP3    H131879   0.064   3.698   6.663
 3440TIP3    H231880   0.176   3.752   6.750
 3441TIP3   OH231881   1.396   0.195   0.040
 3441TIP3    H131882   1.337   0.143   0.094
 3441TIP3    H231883   1.474   0.140   0.029
 3442TIP3   OH231884   6.012   6.354   7.974
 3442TIP3    H131885   6.088   6.347   7.915
 3442TIP3    H231886   6.017   6.443   8.009
 3443TIP3   OH231887   5.182   2.143   7.234
 3443TIP3    H131888   5.225   2.224   7.259
 3443TIP3    H231889   5.173   2.148   7.139
 3444TIP3   OH231890   3.706   1.558   7.423
 3444TIP3    H131891   3.660   1.545   7.340
 3444TIP3    H231892   3.798   1.565   7.398
 3445TIP3   OH231893   0.178   4.835   7.592
 3445TIP3    H131894   0.130   4.828   7.510
 3445TIP3    H231895   0.270   4.824   7.567
 3446TIP3   OH231896   2.235   2.440   1.103
 3446TIP3    H131897   2.306   2.501   1.085
 3446TIP3    H231898   2.160   2.477   1.055
 3447TIP3   OH231899   5.101   2.467   7.292
 3447TIP3    H131900   5.169   2.415   7.335
 3447TIP3    H231901   5.019   2.438   7.330
 3448TIP3   OH231902   1.472   1.545   7.762
 3448TIP3    H131903   1.380   1.572   7.765
 3448TIP3    H231904   1.499   1.540   7.854
 3449TIP3   OH231905   5.469   0.283   2.059
 3449TIP3    H131906   5.408   0.356   2.049
 3449TIP3    H231907   5.422   0.221   2.116
 3450TIP3   OH231908   5.743   2.352   1.825
 3450TIP3    H131909   5.728   2.446   1.825
 3450TIP3    H231910   5.729   2.325   1.916
 3451TIP3   OH231911   5.871   4.633   8.206
 3451TIP3    H131912   5.868   4.715   8.155
 3451TIP3    H231913   5.954   4.639   8.254
 3452TIP3   OH231914   4.370   0.234   1.207
 3452TIP3    H131915   4.422   0.287   1.146
 3452TIP3    H231916   4.319   0.176   1.151
 3453TIP3   OH231917   4.962   3.797   6.103
 3453TIP3    H131918   4.975   3.742   6.180
 3453TIP3    H231919   4.890   3.856   6.126
 3454TIP3   OH231920   4.932   0.803   7.851
 3454TIP3    H131921   4.980   0.787   7.932
 3454TIP3    H231922   4.929   0.718   7.807
 3455TIP3   OH231923   0.428   6.740   1.477
 3455TIP3    H131924   0.491   6.698   1.418
 3455TIP3    H231925   0.397   6.817   1.429
 3456TIP3   OH231926   5.530   4.702   7.340
 3456TIP3    H131927   5.473   4.686   7.264
 3456TIP3    H231928   5.480   4.764   7.394
 3457TIP3   OH231929   4.375   3.026   7.618
 3457TIP3    H131930   4.429   2.962   7.663
 3457TIP3    H231931   4.286   2.993   7.625
 3458TIP3   OH231932   2.567   3.693   0.600
 3458TIP3    H131933   2.539   3.625   0.538
 3458TIP3    H231934   2.615   3.645   0.667
 3459TIP3   OH231935   3.438   5.163   1.575
 3459TIP3    H131936   3.382   5.167   1.652
 3459TIP3    H231937   3.439   5.253   1.541
 3460TIP3   OH231938   4.848   0.792   0.786
 3460TIP3    H131939   4.939   0.795   0.815
 3460TIP3    H231940   4.816   0.707   0.815
 3461TIP3   OH231941   4.512   4.342   6.930
 3461TIP3    H131942   4.519   4.261   6.880
 3461TIP3    H231943   4.422   4.370   6.919
 3462TIP3   OH231944   4.468   6.518   1.510
 3462TIP3    H131945   4.390   6.510   1.565
 3462TIP3    H231946   4.436   6.558   1.429
 3463TIP3   OH231947   3.194   0.193   1.980
 3463TIP3    H131948   3.165   0.169   2.068
 3463TIP3    H231949   3.282   0.157   1.973
 3464TIP3   OH231950   1.458   4.694   1.311
 3464TIP3    H131951   1.423   4.606   1.294
 3464TIP3    H231952   1.548   4.678   1.340
 3465TIP3   OH231953   3.593   6.747   8.716
 3465TIP3    H131954   3.562   0.013   8.719
 3465TIP3    H231955   3.542   6.707   8.646
 3466TIP3   OH231956   1.247   5.255   0.182
 3466TIP3    H131957   1.287   5.305   0.254
 3466TIP3    H231958   1.321   5.223   0.131
 3467TIP3   OH231959   6.784   5.209   0.976
 3467TIP3    H131960   6.820   5.214   1.065
 3467TIP3    H231961   6.805   5.121   0.946
 3468TIP3   OH231962   2.259   0.344   0.726
 3468TIP3    H131963   2.248   0.301   0.641
 3468TIP3    H231964   2.191   0.412   0.728
 3469TIP3   OH231965   6.150   5.940   1.487
 3469TIP3    H131966   6.068   5.893   1.507
 3469TIP3    H231967   6.165   5.994   1.565
 3470TIP3   OH231968   4.677   4.674   0.391
 3470TIP3    H131969   4.629   4.617   0.452
 3470TIP3    H231970   4.641   4.652   0.305
 3471TIP3   OH231971   6.687   1.195   7.319
 3471TIP3    H131972   6.669   1.172   7.228
 3471TIP3    H231973   6.735   1.278   7.313
 3472TIP3   OH231974   0.698   2.526   7.344
 3472TIP3    H131975   0.710   2.434   7.364
 3472TIP3    H231976   0.605   2.536   7.326
 3473TIP3   OH231977   1.234   4.653   0.970
 3473TIP3    H131978   1.312   4.688   1.014
 3473TIP3    H231979   1.256   4.562   0.950
 3474TIP3   OH231980   0.877   6.106   6.738
 3474TIP3    H131981   0.843   6.122   6.826
 3474TIP3    H231982   0.807   6.058   6.693
 3475TIP3   OH231983   4.459   0.982   2.283
 3475TIP3    H131984   4.386   1.000   2.342
 3475TIP3    H231985   4.496   1.068   2.263
 3476TIP3   OH231986   6.184   2.696   1.481
 3476TIP3    H131987   6.258   2.681   1.423
 3476TIP3    H231988   6.221   2.747   1.554
 3477TIP3   OH231989   1.169   4.579   7.763
 3477TIP3    H131990   1.228   4.654   7.768
 3477TIP3    H231991   1.142   4.577   7.671
 3478TIP3   OH231992   3.768   4.171   2.327
 3478TIP3    H131993   3.821   4.122   2.264
 3478TIP3    H231994   3.728   4.104   2.383
 3479TIP3   OH231995   4.151   6.081   0.466
 3479TIP3    H131996   4.234   6.125   0.449
 3479TIP3    H231997   4.138   6.089   0.560
 3480TIP3   OH231998   6.758   4.884   0.424
 3480TIP3    H131999   6.696   4.926   0.365
 3480TIP3    H232000   0.017   4.923   0.403
 3481TIP3   OH232001   5.622   4.057   8.492
 3481TIP3    H132002   5.574   4.025   8.416
 3481TIP3    H232003   5.714   4.045   8.469
 3482TIP3   OH232004   6.774   1.012   8.532
 3482TIP3    H132005   6.719   1.086   8.557
 3482TIP3    H232006   0.030   1.024   8.582
 3483TIP3   OH232007   1.245   6.555   8.680
 3483TIP3    H132008   1.266   6.480   8.736
 3483TIP3    H232009   1.330   6.589   8.653
 3484TIP3   OH232010   0.368   6.176   2.159
 3484TIP3    H132011   0.400   6.229   2.233
 3484TIP3    H232012   0.286   6.217   2.134
 3485TIP3   OH232013   4.499   4.922   6.210
 3485TIP3    H132014   4.421   4.945   6.261
 3485TIP3    H232015   4.570   4.917   6.274
 3486TIP3   OH232016   2.217   4.218   1.374
 3486TIP3    H132017   2.305   4.222   1.410
 3486TIP3    H232018   2.159   4.232   1.449
 3487TIP3   OH232019   1.740   1.739   7.829
 3487TIP3    H132020   1.690   1.738   7.910
 3487TIP3    H232021   1.674   1.756   7.761
 3488TIP3   OH232022   4.563   4.036   8.286
 3488TIP3    H132023   4.488   4.028   8.228
 3488TIP3    H232024   4.539   3.987   8.365
 3489TIP3   OH232025   3.057   6.327   8.069
 3489TIP3    H132026   3.016   6.247   8.100
 3489TIP3    H232027   3.115   6.354   8.141
 3490TIP3   OH232028   3.872   4.252   0.429
 3490TIP3    H132029   3.847   4.301   0.351
 3490TIP3    H232030   3.911   4.318   0.487
 3491TIP3   OH232031   2.079   5.208   0.712
 3491TIP3    H132032   2.108   5.191   0.802
 3491TIP3    H232033   2.135   5.151   0.658
 3492TIP3   OH232034   4.318   5.954   1.071
 3492TIP3    H132035   4.289   5.863   1.069
 3492TIP3    H232036   4.311   5.983   0.980
 3493TIP3   OH232037   4.205   5.964   7.963
 3493TIP3    H132038   4.174   5.878   7.937
 3493TIP3    H232039   4.167   6.024   7.899
 3494TIP3   OH232040   2.607   2.830   0.744
 3494TIP3    H132041   2.515   2.807   0.735
 3494TIP3    H232042   2.644   2.762   0.800
 3495TIP3   OH232043   2.417   5.229   8.632
 3495TIP3    H132044   2.374   5.211   8.547
 3495TIP3    H232045   2.414   5.324   8.640
 3496TIP3   OH232046   1.800   0.599   8.315
 3496TIP3    H132047   1.783   0.573   8.225
 3496TIP3    H232048   1.814   0.517   8.362
 3497TIP3   OH232049   1.487   6.177   8.482
 3497TIP3    H132050   1.516   6.253   8.431
 3497TIP3    H232051   1.408   6.147   8.437
 3498TIP3   OH232052   3.260   2.784   1.308
 3498TIP3    H132053   3.269   2.861   1.252
 3498TIP3    H232054   3.285   2.710   1.252
 3499TIP3   OH232055   3.110   3.582   7.052
 3499TIP3    H132056   3.197   3.621   7.049
 3499TIP3    H232057   3.051   3.653   7.026
 3500TIP3   OH232058   2.802   5.902   7.904
 3500TIP3    H132059   2.816   5.824   7.850
 3500TIP3    H232060   2.762   5.965   7.845
 3501TIP3   OH232061   2.635   1.966   8.567
 3501TIP3    H132062   2.628   1.879   8.606
 3501TIP3    H232063   2.650   1.949   8.474
 3502TIP3   OH232064   4.822   3.379   8.187
 3502TIP3    H132065   4.896   3.404   8.242
 3502TIP3    H232066   4.801   3.290   8.213
 3503TIP3   OH232067   1.728   1.331   0.498
 3503TIP3    H132068   1.805   1.278   0.479
 3503TIP3    H232069   1.755   1.421   0.477
 3504TIP3   OH232070   1.571   4.905   6.416
 3504TIP3    H132071   1.596   4.997   6.411
 3504TIP3    H232072   1.478   4.904   6.394
 3505TIP3   OH232073   5.036   5.531   8.405
 3505TIP3    H132074   5.021   5.437   8.397
 3505TIP3    H232075   5.124   5.545   8.371
 3506TIP3   OH232076   1.982   1.881   7.942
 3506TIP3    H132077   1.932   1.951   7.982
 3506TIP3    H232078   1.918   1.810   7.930
 3507TIP3   OH232079   3.433   3.580   1.594
 3507TIP3    H132080   3.445   3.675   1.600
 3507TIP3    H232081   3.522   3.545   1.596
 3508TIP3   OH232082   0.423   1.001   8.018
 3508TIP3    H132083   0.401   1.021   7.927
 3508TIP3    H232084   0.453   0.910   8.016
 3509TIP3   OH232085   2.298   2.252   1.272
 3509TIP3    H132086   2.392   2.238   1.287
 3509TIP3    H232087   2.294   2.325   1.211
 3510TIP3   OH232088   5.370   2.940   0.489
 3510TIP3    H132089   5.288   2.921   0.442
 3510TIP3    H232090   5.423   2.861   0.477
 3511TIP3   OH232091   2.991   2.682   1.357
 3511TIP3    H132092   3.076   2.725   1.367
 3511TIP3    H232093   2.929   2.743   1.396
 3512TIP3   OH232094   5.157   3.569   7.032
 3512TIP3    H132095   5.216   3.515   7.086
 3512TIP3    H232096   5.077   3.518   7.027
 3513TIP3   OH232097   0.545   0.511   7.495
 3513TIP3    H132098   0.566   0.594   7.539
 3513TIP3    H232099   0.449   0.511   7.490
 3514TIP3   OH232100   4.929   0.095   1.707
 3514TIP3    H132101   4.882   0.168   1.667
 3514TIP3    H232102   4.955   0.127   1.794
 3515TIP3   OH232103   4.754   6.322   2.396
 3515TIP3    H132104   4.739   6.416   2.388
 3515TIP3    H232105   4.850   6.313   2.398
 3516TIP3   OH232106   3.841   1.848   8.468
 3516TIP3    H132107   3.837   1.759   8.434
 3516TIP3    H232108   3.757   1.888   8.442
 3517TIP3   OH232109   5.182   5.517   8.120
 3517TIP3    H132110   5.162   5.426   8.145
 3517TIP3    H232111   5.105   5.545   8.070
 3518TIP3   OH232112   2.081   1.031   8.418
 3518TIP3    H132113   2.011   1.056   8.479
 3518TIP3    H232114   2.048   1.057   8.332
 3519TIP3   OH232115   1.198   0.264   8.648
 3519TIP3    H132116   1.274   0.236   8.699
 3519TIP3    H232117   1.232   0.331   8.589
 3520TIP3   OH232118   4.069   1.817   7.902
 3520TIP3    H132119   4.048   1.891   7.959
 3520TIP3    H232120   4.107   1.751   7.961
 3521TIP3   OH232121   4.799   1.790   0.291
 3521TIP3    H132122   4.726   1.729   0.285
 3521TIP3    H232123   4.790   1.845   0.214
 3522TIP3   OH232124   1.000   3.473   2.183
 3522TIP3    H132125   1.075   3.416   2.202
 3522TIP3    H232126   0.925   3.428   2.224
 3523TIP3   OH232127   4.183   0.291   7.942
 3523TIP3    H132128   4.192   0.275   8.036
 3523TIP3    H232129   4.095   0.328   7.933
 3524TIP3   OH232130   4.271   3.975   6.681
 3524TIP3    H132131   4.307   3.955   6.767
 3524TIP3    H232132   4.347   3.985   6.624
 3525TIP3   OH232133   4.259   4.548   1.343
 3525TIP3    H132134   4.243   4.532   1.436
 3525TIP3    H232135   4.304   4.632   1.340
 3526TIP3   OH232136   6.199   6.244   7.037
 3526TIP3    H132137   6.222   6.268   6.947
 3526TIP3    H232138   6.283   6.221   7.078
 3527TIP3   OH232139   6.767   4.716   7.139
 3527TIP3    H132140   6.693   4.698   7.196
 3527TIP3    H232141   6.731   4.770   7.069
 3528TIP3   OH232142   6.290   4.990   8.507
 3528TIP3    H132143   6.249   5.070   8.473
 3528TIP3    H232144   6.380   4.995   8.476
 3529TIP3   OH232145   5.158   3.109   7.844
 3529TIP3    H132146   5.168   3.162   7.923
 3529TIP3    H232147   5.065   3.119   7.821
 3530TIP3   OH232148   4.470   6.051   7.001
 3530TIP3    H132149   4.515   6.056   6.917
 3530TIP3    H232150   4.427   5.965   7.002
 3531TIP3   OH232151   4.084   2.770   8.261
 3531TIP3    H132152   4.139   2.708   8.212
 3531TIP3    H232153   4.096   2.746   8.353
 3532TIP3   OH232154   3.381   3.155   2.310
 3532TIP3    H132155   3.312   3.219   2.326
 3532TIP3    H232156   3.460   3.194   2.349
 3533TIP3   OH232157   5.397   4.383   6.988
 3533TIP3    H132158   5.435   4.359   7.073
 3533TIP3    H232159   5.368   4.300   6.951
 3534TIP3   OH232160   2.757   3.756   1.717
 3534TIP3    H132161   2.734   3.811   1.791
 3534TIP3    H232162   2.700   3.679   1.725
 3535TIP3   OH232163   4.680   5.076   8.736
 3535TIP3    H132164   4.724   5.023   0.022
 3535TIP3    H232165   4.733   5.155   8.729
 3536TIP3   OH232166   3.579   1.977   7.768
 3536TIP3    H132167   3.542   1.976   7.680
 3536TIP3    H232168   3.674   1.973   7.754
 3537TIP3   OH232169   3.351   6.098   7.628
 3537TIP3    H132170   3.344   6.188   7.595
 3537TIP3    H232171   3.302   6.099   7.710
 3538TIP3   OH232172   2.881   6.316   7.796
 3538TIP3    H132173   2.867   6.405   7.764
 3538TIP3    H232174   2.796   6.287   7.828
 3539TIP3   OH232175   3.675   2.312   2.613
 3539TIP3    H132176   3.589   2.271   2.604
 3539TIP3    H232177   3.694   2.347   2.526
 3540TIP3   OH232178   0.666   1.983   0.906
 3540TIP3    H132179   0.716   1.989   0.825
 3540TIP3    H232180   0.724   1.938   0.967
 3541TIP3   OH232181   3.841   2.812   1.759
 3541TIP3    H132182   3.770   2.751   1.782
 3541TIP3    H232183   3.921   2.759   1.765
 3542TIP3   OH232184   4.520   2.282   0.755
 3542TIP3    H132185   4.480   2.253   0.674
 3542TIP3    H232186   4.570   2.360   0.731
 3543TIP3   OH232187   3.859   3.224   0.068
 3543TIP3    H132188   3.803   3.280   0.015
 3543TIP3    H232189   3.888   3.279   0.140
 3544TIP3   OH232190   0.868   5.054   2.119
 3544TIP3    H132191   0.802   5.119   2.096
 3544TIP3    H232192   0.824   4.970   2.111
 3545TIP3   OH232193   6.823   3.944   7.355
 3545TIP3    H132194   6.754   3.887   7.388
 3545TIP3    H232195   6.816   3.937   7.259
 3546TIP3   OH232196   6.215   5.506   2.347
 3546TIP3    H132197   6.186   5.596   2.334
 3546TIP3    H232198   6.140   5.453   2.322
 3547TIP3   OH232199   5.096   1.987   1.338
 3547TIP3    H132200   5.116   1.900   1.305
 3547TIP3    H232201   5.106   2.044   1.261
 3548TIP3   OH232202   2.879   2.136   7.363
 3548TIP3    H132203   2.788   2.148   7.334
 3548TIP3    H232204   2.878   2.051   7.408
 3549TIP3   OH232205   2.226   5.018   8.727
 3549TIP3    H132206   2.188   5.041   8.642
 3549TIP3    H232207   2.317   5.048   8.721
 3550TIP3   OH232208   0.527   6.377   1.312
 3550TIP3    H132209   0.602   6.319   1.318
 3550TIP3    H232210   0.503   6.377   1.219
 3551TIP3   OH232211   0.410   5.434   0.924
 3551TIP3    H132212   0.473   5.484   0.975
 3551TIP3    H232213   0.455   5.352   0.903
 3552TIP3   OH232214   6.714   6.468   0.675
 3552TIP3    H132215   6.742   6.544   0.624
 3552TIP3    H232216   6.738   6.392   0.622
 3553TIP3   OH232217   1.947   5.554   8.313
 3553TIP3    H132218   2.010   5.591   8.252
 3553TIP3    H232219   1.903   5.630   8.352
 3554TIP3   OH232220   3.987   4.031   1.409
 3554TIP3    H132221   4.026   4.093   1.470
 3554TIP3    H232222   4.025   3.947   1.431
 3555TIP3   OH232223   4.969   5.725   1.136
 3555TIP3    H132224   5.057   5.690   1.152
 3555TIP3    H232225   4.934   5.741   1.224
 3556TIP3   OH232226   6.106   6.097   1.248
 3556TIP3    H132227   6.130   6.055   1.330
 3556TIP3    H232228   6.097   6.025   1.186
 3557TIP3   OH232229   6.549   0.840   8.576
 3557TIP3    H132230   6.632   0.875   8.541
 3557TIP3    H232231   6.566   0.827   8.669
 3558TIP3   OH232232   3.238   4.699   1.209
 3558TIP3    H132233   3.201   4.779   1.172
 3558TIP3    H232234   3.301   4.669   1.143
 3559TIP3   OH232235   0.643   6.526   1.650
 3559TIP3    H132236   0.573   6.469   1.683
 3559TIP3    H232237   0.596   6.602   1.615
 3560TIP3   OH232238   2.809   5.194   0.036
 3560TIP3    H132239   2.790   5.284   0.061
 3560TIP3    H232240   2.903   5.193   0.018
 3561TIP3   OH232241   6.709   4.290   1.981
 3561TIP3    H132242   6.707   4.199   2.009
 3561TIP3    H232243   6.703   4.286   1.886
 3562TIP3   OH232244   0.892   6.106   7.656
 3562TIP3    H132245   0.958   6.037   7.649
 3562TIP3    H232246   0.905   6.143   7.743
 3563TIP3   OH232247   3.915   4.050   6.397
 3563TIP3    H132248   3.977   3.990   6.439
 3563TIP3    H232249   3.970   4.117   6.358
 3564TIP3   OH232250   6.671   3.430   8.349
 3564TIP3    H132251   6.684   3.479   8.267
 3564TIP3    H232252   6.673   3.497   8.417
 3565TIP3   OH232253   0.562   0.215   7.358
 3565TIP3    H132254   0.549   0.307   7.335
 3565TIP3    H232255   0.531   0.208   7.448
 3566TIP3   OH232256   5.545   2.824   2.065
 3566TIP3    H132257   5.535   2.919   2.061
 3566TIP3    H232258   5.498   2.791   1.988
 3567TIP3   OH232259   6.804   3.753   1.058
 3567TIP3    H132260   0.042   3.746   0.986
 3567TIP3    H232261   6.743   3.821   1.029
 3568TIP3   OH232262   5.712   1.535   0.548
 3568TIP3    H132263   5.766   1.484   0.609
 3568TIP3    H232264   5.702   1.620   0.589
 3569TIP3   OH232265   0.260   3.992   7.379
 3569TIP3    H132266   0.274   3.965   7.470
 3569TIP3    H232267   0.166   3.982   7.366
 3570TIP3   OH232268   1.927   2.918   1.497
 3570TIP3    H132269   1.839   2.946   1.522
 3570TIP3    H232270   1.928   2.824   1.517
 3571TIP3   OH232271   1.414   5.059   7.600
 3571TIP3    H132272   1.444   4.989   7.541
 3571TIP3    H232273   1.386   5.014   7.679
 3572TIP3   OH232274   3.143   4.506   1.362
 3572TIP3    H132275   3.167   4.578   1.304
 3572TIP3    H232276   3.142   4.545   1.450
 3573TIP3   OH232277   6.373   0.634   0.856
 3573TIP3    H132278   6.411   0.599   0.775
 3573TIP3    H232279   6.444   0.627   0.921
 3574TIP3   OH232280   2.672   2.072   7.617
 3574TIP3    H132281   2.606   2.006   7.594
 3574TIP3    H232282   2.751   2.044   7.572
 3575TIP3   OH232283   4.037   5.744   7.929
 3575TIP3    H132284   4.035   5.655   7.963
 3575TIP3    H232285   3.986   5.795   7.991
 3576TIP3   OH232286   1.142   3.731   7.024
 3576TIP3    H132287   1.100   3.740   6.938
 3576TIP3    H232288   1.234   3.751   7.009
 3577TIP3   OH232289   5.812   4.136   0.962
 3577TIP3    H132290   5.758   4.176   0.893
 3577TIP3    H232291   5.902   4.160   0.938
 3578TIP3   OH232292   6.443   3.379   1.334
 3578TIP3    H132293   6.490   3.339   1.261
 3578TIP3    H232294   6.458   3.319   1.407
 3579TIP3   OH232295   2.283   3.758   2.040
 3579TIP3    H132296   2.317   3.840   2.006
 3579TIP3    H232297   2.361   3.706   2.060
 3580TIP3   OH232298   6.459   0.700   0.248
 3580TIP3    H132299   6.490   0.761   0.315
 3580TIP3    H232300   6.369   0.726   0.232
 3581TIP3   OH232301   3.524   3.812   8.405
 3581TIP3    H132302   3.567   3.863   8.337
 3581TIP3    H232303   3.556   3.723   8.393
 3582TIP3   OH232304   2.820   3.146   0.378
 3582TIP3    H132305   2.865   3.072   0.420
 3582TIP3    H232306   2.879   3.172   0.307
 3583TIP3   OH232307   4.574   2.464   1.099
 3583TIP3    H132308   4.505   2.493   1.158
 3583TIP3    H232309   4.585   2.536   1.037
 3584TIP3   OH232310   1.217   2.937   0.641
 3584TIP3    H132311   1.305   2.945   0.677
 3584TIP3    H232312   1.159   2.972   0.709
 3585TIP3   OH232313   3.569   4.036   0.398
 3585TIP3    H132314   3.520   4.097   0.343
 3585TIP3    H232315   3.536   4.051   0.486
 3586TIP3   OH232316   4.885   4.195   1.136
 3586TIP3    H132317   4.880   4.237   1.222
 3586TIP3    H232318   4.796   4.201   1.100
 3587TIP3   OH232319   0.492   4.769   7.517
 3587TIP3    H132320   0.585   4.782   7.497
 3587TIP3    H232321   0.453   4.745   7.433
 3588TIP3   OH232322   4.779   0.875   7.545
 3588TIP3    H132323   4.779   0.780   7.532
 3588TIP3    H232324   4.688   0.897   7.559
 3589TIP3   OH232325   4.341   2.551   0.861
 3589TIP3    H132326   4.433   2.553   0.838
 3589TIP3    H232327   4.331   2.620   0.926
 3590TIP3   OH232328   4.558   1.804   2.540
 3590TIP3    H132329   4.583   1.896   2.528
 3590TIP3    H232330   4.637   1.762   2.573
 3591TIP3   OH232331   4.968   2.292   1.637
 3591TIP3    H132332   4.906   2.312   1.707
 3591TIP3    H232333   4.918   2.239   1.575
 3592TIP3   OH232334   4.047   0.744   6.283
 3592TIP3    H132335   4.134   0.706   6.293
 3592TIP3    H232336   4.062   0.838   6.273
 3593TIP3   OH232337   6.343   5.562   8.164
 3593TIP3    H132338   6.373   5.596   8.080
 3593TIP3    H232339   6.380   5.621   8.229
 3594TIP3   OH232340   6.263   5.495   1.470
 3594TIP3    H132341   6.324   5.554   1.427
 3594TIP3    H232342   6.293   5.492   1.561
 3595TIP3   OH232343   2.459   1.133   7.185
 3595TIP3    H132344   2.373   1.163   7.154
 3595TIP3    H232345   2.515   1.138   7.107
 3596TIP3   OH232346   4.481   2.949   2.167
 3596TIP3    H132347   4.568   2.953   2.207
 3596TIP3    H232348   4.431   2.893   2.226
 3597TIP3   OH232349   6.486   4.497   8.254
 3597TIP3    H132350   6.524   4.584   8.242
 3597TIP3    H232351   6.528   4.443   8.187
 3598TIP3   OH232352   5.768   2.669   2.069
 3598TIP3    H132353   5.753   2.601   2.135
 3598TIP3    H232354   5.696   2.731   2.081
 3599TIP3   OH232355   3.368   2.399   8.383
 3599TIP3    H132356   3.417   2.437   8.310
 3599TIP3    H232357   3.380   2.304   8.372
 3600TIP3   OH232358   4.824   6.102   6.977
 3600TIP3    H132359   4.899   6.056   6.939
 3600TIP3    H232360   4.860   6.186   7.004
 3601TIP3   OH232361   0.339   3.550   0.300
 3601TIP3    H132362   0.295   3.557   0.385
 3601TIP3    H232363   0.272   3.574   0.236
 3602TIP3   OH232364   0.431   2.296   7.615
 3602TIP3    H132365   0.458   2.347   7.691
 3602TIP3    H232366   0.336   2.308   7.611
 3603TIP3   OH232367   4.209   5.681   6.651
 3603TIP3    H132368   4.115   5.682   6.633
 3603TIP3    H232369   4.233   5.589   6.650
 3604TIP3   OH232370   6.623   1.024   7.516
 3604TIP3    H132371   6.654   1.068   7.437
 3604TIP3    H232372   6.547   1.074   7.543
 3605TIP3   OH232373   4.513   3.862   6.607
 3605TIP3    H132374   4.516   3.788   6.667
 3605TIP3    H232375   4.577   3.840   6.539
 3606TIP3   OH232376   4.857   2.832   8.506
 3606TIP3    H132377   4.836   2.860   8.595
 3606TIP3    H232378   4.778   2.851   8.455
 3607TIP3   OH232379   1.730   4.254   6.738
 3607TIP3    H132380   1.777   4.174   6.761
 3607TIP3    H232381   1.791   4.324   6.757
 3608TIP3   OH232382   2.169   3.991   7.228
 3608TIP3    H132383   2.165   4.006   7.322
 3608TIP3    H232384   2.159   3.896   7.219
 3609TIP3   OH232385   0.268   1.507   0.777
 3609TIP3    H132386   0.253   1.601   0.789
 3609TIP3    H232387   0.297   1.499   0.686
 3610TIP3   OH232388   2.647   1.914   0.489
 3610TIP3    H132389   2.622   1.862   0.412
 3610TIP3    H232390   2.586   1.988   0.489
 3611TIP3   OH232391   5.971   5.971   7.321
 3611TIP3    H132392   6.020   5.892   7.342
 3611TIP3    H232393   6.011   6.003   7.241
 3612TIP3   OH232394   3.150   5.094   7.042
 3612TIP3    H132395   3.156   5.147   7.122
 3612TIP3    H232396   3.220   5.126   6.986
 3613TIP3   OH232397   6.653   0.350   0.126
 3613TIP3    H132398   6.735   0.398   0.108
 3613TIP3    H232399   6.677   0.285   0.192
 3614TIP3   OH232400   1.069   5.203   1.510
 3614TIP3    H132401   0.980   5.237   1.514
 3614TIP3    H232402   1.124   5.274   1.542
 3615TIP3   OH232403   3.049   1.097   1.314
 3615TIP3    H132404   3.047   1.124   1.222
 3615TIP3    H232405   3.130   1.047   1.322
 3616TIP3   OH232406   5.996   6.436   7.081
 3616TIP3    H132407   6.067   6.372   7.087
 3616TIP3    H232408   6.014   6.484   7.000
 3617TIP3   OH232409   5.027   4.435   2.144
 3617TIP3    H132410   5.036   4.525   2.173
 3617TIP3    H232411   5.012   4.385   2.225
 3618TIP3   OH232412   6.390   5.369   2.512
 3618TIP3    H132413   6.327   5.419   2.460
 3618TIP3    H232414   6.469   5.423   2.512
 3619TIP3   OH232415   1.418   1.766   6.799
 3619TIP3    H132416   1.415   1.751   6.893
 3619TIP3    H232417   1.406   1.680   6.760
 3620TIP3   OH232418   0.917   0.387   0.863
 3620TIP3    H132419   0.931   0.451   0.932
 3620TIP3    H232420   0.982   0.409   0.796
 3621TIP3   OH232421   6.389   2.092   7.334
 3621TIP3    H132422   6.354   2.129   7.415
 3621TIP3    H232423   6.313   2.052   7.291
 3622TIP3   OH232424   2.786   3.713   7.258
 3622TIP3    H132425   2.838   3.728   7.337
 3622TIP3    H232426   2.833   3.644   7.211
 3623TIP3   OH232427   6.382   2.126   1.539
 3623TIP3    H132428   6.406   2.059   1.475
 3623TIP3    H232429   6.390   2.081   1.624
 3624TIP3   OH232430   1.490   0.132   0.333
 3624TIP3    H132431   1.442   0.052   0.310
 3624TIP3    H232432   1.475   0.143   0.427
 3625TIP3   OH232433   1.807   3.258   6.516
 3625TIP3    H132434   1.902   3.272   6.511
 3625TIP3    H232435   1.796   3.166   6.490
 3626TIP3   OH232436   5.549   2.797   1.257
 3626TIP3    H132437   5.635   2.828   1.286
 3626TIP3    H232438   5.499   2.784   1.338
 3627TIP3   OH232439   0.856   3.368   0.139
 3627TIP3    H132440   0.772   3.348   0.180
 3627TIP3    H232441   0.866   3.462   0.150
 3628TIP3   OH232442   5.580   6.720   7.798
 3628TIP3    H132443   5.632   6.713   7.719
 3628TIP3    H232444   5.516   6.650   7.792
 3629TIP3   OH232445   4.460   0.823   6.830
 3629TIP3    H132446   4.536   0.801   6.885
 3629TIP3    H232447   4.491   0.895   6.775
 3630TIP3   OH232448   6.611   6.748   8.020
 3630TIP3    H132449   6.662   6.713   7.947
 3630TIP3    H232450   6.527   6.773   7.981
 3631TIP3   OH232451   2.609   2.562   7.127
 3631TIP3    H132452   2.665   2.539   7.201
 3631TIP3    H232453   2.624   2.655   7.114
 3632TIP3   OH232454   4.848   3.513   7.291
 3632TIP3    H132455   4.883   3.428   7.264
 3632TIP3    H232456   4.784   3.535   7.224
 3633TIP3   OH232457   3.387   4.359   1.398
 3633TIP3    H132458   3.337   4.419   1.342
 3633TIP3    H232459   3.460   4.330   1.343
 3634TIP3   OH232460   5.072   0.232   7.593
 3634TIP3    H132461   5.156   0.238   7.639
 3634TIP3    H232462   5.023   0.165   7.641
 3635TIP3   OH232463   0.609   5.829   0.784
 3635TIP3    H132464   0.625   5.777   0.863
 3635TIP3    H232465   0.695   5.865   0.761
 3636TIP3   OH232466   1.624   6.010   1.964
 3636TIP3    H132467   1.621   5.914   1.962
 3636TIP3    H232468   1.549   6.038   1.911
 3637TIP3   OH232469   0.982   4.921   0.463
 3637TIP3    H132470   1.053   4.980   0.437
 3637TIP3    H232471   1.023   4.835   0.471
 3638TIP3   OH232472   1.651   4.915   0.467
 3638TIP3    H132473   1.615   4.891   0.552
 3638TIP3    H232474   1.744   4.928   0.482
 3639TIP3   OH232475   0.241   4.980   8.653
 3639TIP3    H132476   0.257   5.072   8.677
 3639TIP3    H232477   0.264   4.930   8.731
 3640TIP3   OH232478   6.639   4.417   8.046
 3640TIP3    H132479   6.631   4.463   7.962
 3640TIP3    H232480   6.717   4.361   8.036
 3641TIP3   OH232481   5.722   2.848   0.986
 3641TIP3    H132482   5.753   2.759   0.969
 3641TIP3    H232483   5.777   2.879   1.058
 3642TIP3   OH232484   1.885   5.863   8.322
 3642TIP3    H132485   1.957   5.845   8.381
 3642TIP3    H232486   1.825   5.918   8.373
 3643TIP3   OH232487   4.960   5.068   0.050
 3643TIP3    H132488   5.013   5.098   8.757
 3643TIP3    H232489   4.917   5.147   0.082
 3644TIP3   OH232490   2.087   4.907   7.502
 3644TIP3    H132491   2.075   4.960   7.424
 3644TIP3    H232492   2.125   4.825   7.470
 3645TIP3   OH232493   5.838   2.836   1.401
 3645TIP3    H132494   5.878   2.812   1.485
 3645TIP3    H232495   5.842   2.757   1.348
 3646TIP3   OH232496   2.032   5.263   0.213
 3646TIP3    H132497   1.970   5.278   0.142
 3646TIP3    H232498   2.063   5.173   0.200
 3647TIP3   OH232499   3.611   4.919   0.845
 3647TIP3    H132500   3.522   4.887   0.859
 3647TIP3    H232501   3.667   4.857   0.892
 3648TIP3   OH232502   4.440   3.650   2.318
 3648TIP3    H132503   4.457   3.697   2.399
 3648TIP3    H232504   4.354   3.681   2.289
 3649TIP3   OH232505   4.316   2.661   0.277
 3649TIP3    H132506   4.295   2.746   0.237
 3649TIP3    H232507   4.256   2.655   0.352
 3650TIP3   OH232508   2.091   3.709   0.046
 3650TIP3    H132509   2.077   3.772   8.756
 3650TIP3    H232510   2.109   3.626   0.002
 3651TIP3   OH232511   0.382   6.519   6.689
 3651TIP3    H132512   0.377   6.599   6.636
 3651TIP3    H232513   0.296   6.478   6.678
 3652TIP3   OH232514   6.442   4.064   7.711
 3652TIP3    H132515   6.396   3.983   7.732
 3652TIP3    H232516   6.530   4.050   7.745
 3653TIP3   OH232517   3.368   1.703   0.526
 3653TIP3    H132518   3.421   1.629   0.497
 3653TIP3    H232519   3.332   1.676   0.610
 3654TIP3   OH232520   5.304   0.342   1.655
 3654TIP3    H132521   5.248   0.275   1.694
 3654TIP3    H232522   5.277   0.423   1.699
 3655TIP3   OH232523   3.311   2.648   1.074
 3655TIP3    H132524   3.221   2.674   1.052
 3655TIP3    H232525   3.347   2.617   0.991
 3656TIP3   OH232526   2.428   0.026   1.565
 3656TIP3    H132527   2.441   0.109   1.612
 3656TIP3    H232528   2.363   0.046   1.498
 3657TIP3   OH232529   3.895   5.754   0.477
 3657TIP3    H132530   3.835   5.826   0.494
 3657TIP3    H232531   3.889   5.698   0.555
 3658TIP3   OH232532   3.200   4.644   0.140
 3658TIP3    H132533   3.270   4.614   0.082
 3658TIP3    H232534   3.195   4.738   0.126
 3659TIP3   OH232535   4.336   3.159   2.053
 3659TIP3    H132536   4.397   3.090   2.080
 3659TIP3    H232537   4.255   3.139   2.100
 3660TIP3   OH232538   2.385   6.598   7.840
 3660TIP3    H132539   2.438   6.649   7.778
 3660TIP3    H232540   2.295   6.623   7.820
 3661TIP3   OH232541   3.502   3.352   8.431
 3661TIP3    H132542   3.591   3.364   8.465
 3661TIP3    H232543   3.504   3.268   8.385
 3662TIP3   OH232544   3.025   3.555   8.609
 3662TIP3    H132545   3.103   3.587   8.564
 3662TIP3    H232546   3.040   3.574   8.701
 3663TIP3   OH232547   4.375   0.120   6.362
 3663TIP3    H132548   4.441   0.079   6.306
 3663TIP3    H232549   4.382   0.074   6.446
 3664TIP3   OH232550   2.179   2.983   0.612
 3664TIP3    H132551   2.145   3.063   0.652
 3664TIP3    H232552   2.272   3.002   0.596
 3665TIP3   OH232553   3.048   2.394   1.232
 3665TIP3    H132554   3.034   2.489   1.231
 3665TIP3    H232555   3.137   2.383   1.265
 3666TIP3   OH232556   3.986   5.983   7.567
 3666TIP3    H132557   4.006   5.978   7.660
 3666TIP3    H232558   4.032   6.062   7.537
 3667TIP3   OH232559   2.391   4.655   6.325
 3667TIP3    H132560   2.300   4.628   6.322
 3667TIP3    H232561   2.389   4.741   6.367
 3668TIP3   OH232562   2.628   1.175   2.514
 3668TIP3    H132563   2.600   1.190   2.604
 3668TIP3    H232564   2.683   1.250   2.493
 3669TIP3   OH232565   0.730   4.392   8.637
 3669TIP3    H132566   0.666   4.450   8.679
 3669TIP3    H232567   0.685   4.361   8.559
 3670TIP3   OH232568   3.739   1.636   1.564
 3670TIP3    H132569   3.757   1.687   1.484
 3670TIP3    H232570   3.644   1.622   1.562
 3671TIP3   OH232571   3.318   5.426   1.764
 3671TIP3    H132572   3.410   5.404   1.777
 3671TIP3    H232573   3.270   5.349   1.795
 3672TIP3   OH232574   0.244   0.975   0.461
 3672TIP3    H132575   0.185   0.923   0.515
 3672TIP3    H232576   0.190   1.046   0.427
 3673TIP3   OH232577   1.743   4.187   7.831
 3673TIP3    H132578   1.669   4.145   7.876
 3673TIP3    H232579   1.742   4.150   7.743
 3674TIP3   OH232580   2.478   0.517   7.283
 3674TIP3    H132581   2.527   0.521   7.364
 3674TIP3    H232582   2.471   0.423   7.263
 3675TIP3   OH232583   3.640   0.188   8.038
 3675TIP3    H132584   3.695   0.222   8.108
 3675TIP3    H232585   3.697   0.189   7.961
 3676TIP3   OH232586   4.316   5.748   0.578
 3676TIP3    H132587   4.358   5.687   0.638
 3676TIP3    H232588   4.271   5.693   0.514
 3677TIP3   OH232589   2.569   4.098   7.717
 3677TIP3    H132590   2.568   4.194   7.718
 3677TIP3    H232591   2.654   4.076   7.680
 3678TIP3   OH232592   1.769   3.079   1.062
 3678TIP3    H132593   1.789   3.155   1.008
 3678TIP3    H232594   1.781   3.110   1.152
 3679TIP3   OH232595   0.947   2.451   1.533
 3679TIP3    H132596   0.946   2.483   1.442
 3679TIP3    H232597   1.023   2.493   1.572
 3680TIP3   OH232598   2.874   1.057   1.804
 3680TIP3    H132599   2.940   0.993   1.778
 3680TIP3    H232600   2.897   1.137   1.757
 3681TIP3   OH232601   3.200   0.070   7.277
 3681TIP3    H132602   3.143   0.038   7.208
 3681TIP3    H232603   3.287   0.038   7.253
 3682TIP3   OH232604   0.845   0.084   1.941
 3682TIP3    H132605   0.825   0.085   2.035
 3682TIP3    H232606   0.886   0.169   1.925
 3683TIP3   OH232607   1.603   6.115   1.466
 3683TIP3    H132608   1.684   6.141   1.422
 3683TIP3    H232609   1.623   6.120   1.559
 3684TIP3   OH232610   0.911   5.029   8.420
 3684TIP3    H132611   0.816   5.020   8.429
 3684TIP3    H232612   0.929   5.004   8.329
 3685TIP3   OH232613   3.645   1.100   8.024
 3685TIP3    H132614   3.623   1.170   8.085
 3685TIP3    H232615   3.681   1.030   8.079
 3686TIP3   OH232616   0.357   2.875   0.321
 3686TIP3    H132617   0.426   2.836   0.268
 3686TIP3    H232618   0.351   2.818   0.398
 3687TIP3   OH232619   2.925   0.904   7.788
 3687TIP3    H132620   2.847   0.958   7.778
 3687TIP3    H232621   2.991   0.965   7.824
 3688TIP3   OH232622   3.945   3.059   0.440
 3688TIP3    H132623   4.001   2.989   0.408
 3688TIP3    H232624   3.857   3.020   0.441
 3689TIP3   OH232625   4.679   6.645   5.945
 3689TIP3    H132626   4.624   6.671   5.872
 3689TIP3    H232627   4.657   6.553   5.960
 3690TIP3   OH232628   5.717   1.467   7.686
 3690TIP3    H132629   5.626   1.496   7.693
 3690TIP3    H232630   5.731   1.413   7.764
 3691TIP3   OH232631   2.710   3.413   1.411
 3691TIP3    H132632   2.656   3.335   1.400
 3691TIP3    H232633   2.691   3.444   1.499
 3692TIP3   OH232634   0.034   0.143   1.431
 3692TIP3    H132635   0.008   0.228   1.466
 3692TIP3    H232636   0.127   0.151   1.414
 3693TIP3   OH232637   3.944   1.518   7.272
 3693TIP3    H132638   4.012   1.535   7.206
 3693TIP3    H232639   3.992   1.486   7.348
 3694TIP3   OH232640   4.888   3.473   6.962
 3694TIP3    H132641   4.817   3.506   7.017
 3694TIP3    H232642   4.851   3.399   6.915
 3695TIP3   OH232643   3.738   2.141   1.192
 3695TIP3    H132644   3.724   2.153   1.098
 3695TIP3    H232645   3.829   2.112   1.199
 3696TIP3   OH232646   6.190   2.801   7.404
 3696TIP3    H132647   6.227   2.820   7.490
 3696TIP3    H232648   6.266   2.778   7.350
 3697TIP3   OH232649   5.254   3.336   1.223
 3697TIP3    H132650   5.183   3.363   1.280
 3697TIP3    H232651   5.228   3.368   1.136
 3698TIP3   OH232652   6.325   1.448   1.907
 3698TIP3    H132653   6.362   1.466   1.993
 3698TIP3    H232654   6.388   1.388   1.866
 3699TIP3   OH232655   3.385   4.127   1.656
 3699TIP3    H132656   3.370   4.196   1.591
 3699TIP3    H232657   3.306   4.128   1.709
 3700TIP3   OH232658   0.926   1.428   7.845
 3700TIP3    H132659   0.875   1.465   7.772
 3700TIP3    H232660   0.976   1.356   7.805
 3701TIP3   OH232661   1.914   6.065   6.663
 3701TIP3    H132662   1.982   6.014   6.618
 3701TIP3    H232663   1.857   6.097   6.593
 3702TIP3   OH232664   0.301   0.608   8.311
 3702TIP3    H132665   0.334   0.629   8.224
 3702TIP3    H232666   0.277   0.693   8.349
 3703TIP3   OH232667   3.229   5.712   0.154
 3703TIP3    H132668   3.308   5.675   0.194
 3703TIP3    H232669   3.260   5.754   0.073
 3704TIP3   OH232670   5.637   5.459   7.818
 3704TIP3    H132671   5.622   5.497   7.732
 3704TIP3    H232672   5.597   5.372   7.814
 3705TIP3   OH232673   5.323   2.126   7.593
 3705TIP3    H132674   5.281   2.173   7.665
 3705TIP3    H232675   5.266   2.052   7.576
 3706TIP3   OH232676   6.212   3.575   7.370
 3706TIP3    H132677   6.290   3.570   7.426
 3706TIP3    H232678   6.213   3.494   7.320
 3707TIP3   OH232679   5.436   6.632   1.192
 3707TIP3    H132680   5.370   6.667   1.251
 3707TIP3    H232681   5.451   6.542   1.222
 3708TIP3   OH232682   6.157   1.092   8.441
 3708TIP3    H132683   6.138   1.037   8.365
 3708TIP3    H232684   6.076   1.140   8.458
 3709TIP3   OH232685   4.397   4.104   1.062
 3709TIP3    H132686   4.364   4.016   1.041
 3709TIP3    H232687   4.485   4.106   1.024
 3710TIP3   OH232688   1.862   0.592   7.344
 3710TIP3    H132689   1.887   0.564   7.256
 3710TIP3    H232690   1.766   0.595   7.341
 3711TIP3   OH232691   1.417   1.486   0.094
 3711TIP3    H132692   1.417   1.463   0.001
 3711TIP3    H232693   1.394   1.405   0.140
 3712TIP3   OH232694   5.343   6.265   7.332
 3712TIP3    H132695   5.273   6.222   7.283
 3712TIP3    H232696   5.423   6.238   7.287
 3713TIP3   OH232697   4.975   0.424   7.445
 3713TIP3    H132698   5.011   0.359   7.505
 3713TIP3    H232699   4.880   0.411   7.450
 3714TIP3   OH232700   6.293   2.578   0.524
 3714TIP3    H132701   6.277   2.485   0.540
 3714TIP3    H232702   6.307   2.616   0.611
 3715TIP3   OH232703   4.265   3.807   8.012
 3715TIP3    H132704   4.228   3.827   7.926
 3715TIP3    H232705   4.251   3.713   8.023
 3716TIP3   OH232706   5.957   2.476   2.265
 3716TIP3    H132707   6.021   2.492   2.196
 3716TIP3    H232708   5.976   2.542   2.332
 3717TIP3   OH232709   3.790   0.513   0.178
 3717TIP3    H132710   3.848   0.581   0.211
 3717TIP3    H232711   3.797   0.520   0.083
 3718TIP3   OH232712   0.072   0.444   0.111
 3718TIP3    H132713   0.088   0.536   0.090
 3718TIP3    H232714   0.142   0.421   0.172
 3719TIP3   OH232715   3.968   3.670   0.868
 3719TIP3    H132716   4.012   3.646   0.787
 3719TIP3    H232717   3.958   3.765   0.862
 3720TIP3   OH232718   0.093   6.458   1.972
 3720TIP3    H132719   0.178   6.450   2.016
 3720TIP3    H232720   0.107   6.524   1.904
 3721TIP3   OH232721   3.611   5.223   2.351
 3721TIP3    H132722   3.536   5.252   2.300
 3721TIP3    H232723   3.676   5.293   2.340
 3722TIP3   OH232724   3.077   2.636   8.630
 3722TIP3    H132725   3.116   2.723   8.626
 3722TIP3    H232726   3.120   2.587   8.560
 3723TIP3   OH232727   0.646   1.831   6.972
 3723TIP3    H132728   0.728   1.784   6.980
 3723TIP3    H232729   0.610   1.802   6.888
 3724TIP3   OH232730   6.164   0.285   1.741
 3724TIP3    H132731   6.253   0.277   1.708
 3724TIP3    H232732   6.127   0.197   1.731
 3725TIP3   OH232733   0.028   5.806   1.581
 3725TIP3    H132734   0.049   5.773   1.493
 3725TIP3    H232735   0.054   5.736   1.640
 3726TIP3   OH232736   0.916   5.591   8.102
 3726TIP3    H132737   0.838   5.620   8.056
 3726TIP3    H232738   0.901   5.499   8.121
 3727TIP3   OH232739   0.310   4.057   8.413
 3727TIP3    H132740   0.259   4.056   8.332
 3727TIP3    H232741   0.400   4.040   8.386
 3728TIP3   OH232742   5.584   1.869   2.481
 3728TIP3    H132743   5.515   1.906   2.536
 3728TIP3    H232744   5.629   1.807   2.538
 3729TIP3   OH232745   4.321   2.627   8.141
 3729TIP3    H132746   4.278   2.552   8.099
 3729TIP3    H232747   4.372   2.588   8.212
 3730TIP3   OH232748   6.314   1.308   8.571
 3730TIP3    H132749   6.367   1.242   8.616
 3730TIP3    H232750   6.266   1.258   8.504
 3731TIP3   OH232751   5.078   5.423   1.766
 3731TIP3    H132752   5.086   5.328   1.770
 3731TIP3    H232753   5.166   5.454   1.750
 3732TIP3   OH232754   0.486   3.623   7.255
 3732TIP3    H132755   0.521   3.554   7.312
 3732TIP3    H232756   0.392   3.604   7.251
 3733TIP3   OH232757   5.168   1.704   0.753
 3733TIP3    H132758   5.185   1.678   0.844
 3733TIP3    H232759   5.255   1.712   0.714
 3734TIP3   OH232760   5.438   4.073   8.711
 3734TIP3    H132761   5.483   4.070   8.627
 3734TIP3    H232762   5.489   4.016   8.768
 3735TIP3   OH232763   5.256   1.931   1.636
 3735TIP3    H132764   5.322   1.914   1.704
 3735TIP3    H232765   5.174   1.940   1.684
 3736TIP3   OH232766   2.883   1.103   0.915
 3736TIP3    H132767   2.825   1.034   0.947
 3736TIP3    H232768   2.892   1.086   0.821
 3737TIP3   OH232769   0.577   4.735   1.675
 3737TIP3    H132770   0.672   4.742   1.662
 3737TIP3    H232771   0.539   4.765   1.592
 3738TIP3   OH232772   1.013   5.241   0.432
 3738TIP3    H132773   1.012   5.171   0.367
 3738TIP3    H232774   1.078   5.214   0.496
 3739TIP3   OH232775   0.251   5.144   7.556
 3739TIP3    H132776   0.167   5.160   7.598
 3739TIP3    H232777   0.294   5.079   7.611
 3740TIP3   OH232778   1.251   0.606   7.366
 3740TIP3    H132779   1.179   0.581   7.307
 3740TIP3    H232780   1.298   0.524   7.381
 3741TIP3   OH232781   1.088   0.726   7.091
 3741TIP3    H132782   1.001   0.687   7.079
 3741TIP3    H232783   1.077   0.818   7.067
 3742TIP3   OH232784   1.501   2.350   0.843
 3742TIP3    H132785   1.486   2.443   0.862
 3742TIP3    H232786   1.431   2.304   0.890
 3743TIP3   OH232787   1.652   6.054   2.241
 3743TIP3    H132788   1.678   6.146   2.239
 3743TIP3    H232789   1.627   6.034   2.150
 3744TIP3   OH232790   5.251   5.097   7.825
 3744TIP3    H132791   5.157   5.111   7.820
 3744TIP3    H232792   5.261   5.014   7.871
 3745TIP3   OH232793   4.391   3.373   1.281
 3745TIP3    H132794   4.324   3.323   1.328
 3745TIP3    H232795   4.422   3.315   1.212
 3746TIP3   OH232796   2.894   5.096   2.044
 3746TIP3    H132797   2.902   5.080   2.138
 3746TIP3    H232798   2.974   5.143   2.020
 3747TIP3   OH232799   2.703   1.750   1.228
 3747TIP3    H132800   2.668   1.729   1.141
 3747TIP3    H232801   2.627   1.747   1.286
 3748TIP3   OH232802   6.095   0.766   7.531
 3748TIP3    H132803   6.040   0.707   7.582
 3748TIP3    H232804   6.060   0.762   7.442
 3749TIP3   OH232805   1.237   3.463   0.850
 3749TIP3    H132806   1.212   3.439   0.939
 3749TIP3    H232807   1.316   3.413   0.832
 3750TIP3   OH232808   0.778   4.583   0.599
 3750TIP3    H132809   0.747   4.504   0.643
 3750TIP3    H232810   0.828   4.629   0.666
 3751TIP3   OH232811   1.625   1.331   8.420
 3751TIP3    H132812   1.683   1.381   8.363
 3751TIP3    H232813   1.629   1.242   8.386
 3752TIP3   OH232814   0.910   3.813   0.417
 3752TIP3    H132815   0.947   3.870   0.485
 3752TIP3    H232816   0.819   3.802   0.442
 3753TIP3   OH232817   4.422   0.874   6.514
 3753TIP3    H132818   4.467   0.943   6.562
 3753TIP3    H232819   4.481   0.799   6.517
 3754TIP3   OH232820   4.238   6.405   8.476
 3754TIP3    H132821   4.186   6.362   8.408
 3754TIP3    H232822   4.181   6.408   8.552
 3755TIP3   OH232823   2.071   1.574   8.511
 3755TIP3    H132824   2.004   1.641   8.527
 3755TIP3    H232825   2.054   1.544   8.422
 3756TIP3   OH232826   5.474   1.270   1.467
 3756TIP3    H132827   5.567   1.293   1.476
 3756TIP3    H232828   5.461   1.256   1.373
 3757TIP3   OH232829   4.485   5.511   8.330
 3757TIP3    H132830   4.527   5.445   8.386
 3757TIP3    H232831   4.396   5.518   8.363
 3758TIP3   OH232832   2.477   3.005   0.339
 3758TIP3    H132833   2.555   2.949   0.338
 3758TIP3    H232834   2.489   3.061   0.416
 3759TIP3   OH232835   0.445   4.991   0.068
 3759TIP3    H132836   0.522   4.941   0.094
 3759TIP3    H232837   0.479   5.075   0.036
 3760TIP3   OH232838   5.171   4.188   8.664
 3760TIP3    H132839   5.110   4.124   8.701
 3760TIP3    H232840   5.256   4.143   8.665
 3761TIP3   OH232841   3.585   0.636   1.218
 3761TIP3    H132842   3.624   0.619   1.132
 3761TIP3    H232843   3.578   0.731   1.223
 3762TIP3   OH232844   3.847   6.387   0.667
 3762TIP3    H132845   3.934   6.354   0.642
 3762TIP3    H232846   3.837   6.468   0.617
 3763TIP3   OH232847   6.203   3.274   8.398
 3763TIP3    H132848   6.277   3.252   8.341
 3763TIP3    H232849   6.242   3.325   8.470
 3764TIP3   OH232850   1.098   2.110   0.796
 3764TIP3    H132851   1.110   2.184   0.856
 3764TIP3    H232852   1.145   2.038   0.838
 3765TIP3   OH232853   6.397   3.152   1.522
 3765TIP3    H132854   6.307   3.130   1.499
 3765TIP3    H232855   6.442   3.068   1.529
 3766TIP3   OH232856   3.438   0.616   8.061
 3766TIP3    H132857   3.453   0.636   8.153
 3766TIP3    H232858   3.356   0.660   8.039
 3767TIP3   OH232859   1.418   6.248   8.187
 3767TIP3    H132860   1.410   6.227   8.094
 3767TIP3    H232861   1.384   6.337   8.194
 3768TIP3   OH232862   2.843   3.681   1.462
 3768TIP3    H132863   2.808   3.689   1.551
 3768TIP3    H232864   2.839   3.588   1.443
 3769TIP3   OH232865   6.617   5.542   1.543
 3769TIP3    H132866   6.604   5.455   1.581
 3769TIP3    H232867   6.699   5.535   1.495
 3770TIP3   OH232868   2.441   1.450   1.273
 3770TIP3    H132869   2.455   1.404   1.190
 3770TIP3    H232870   2.405   1.383   1.331
 3771TIP3   OH232871   2.415   2.661   0.053
 3771TIP3    H132872   2.400   2.596   8.765
 3771TIP3    H232873   2.402   2.612   0.135
 3772TIP3   OH232874   6.235   3.414   7.011
 3772TIP3    H132875   6.330   3.427   7.005
 3772TIP3    H232876   6.198   3.487   6.961
 3773TIP3   OH232877   6.423   5.565   0.420
 3773TIP3    H132878   6.422   5.652   0.461
 3773TIP3    H232879   6.463   5.508   0.486
 3774TIP3   OH232880   3.701   4.407   6.330
 3774TIP3    H132881   3.786   4.391   6.290
 3774TIP3    H232882   3.667   4.485   6.285
 3775TIP3   OH232883   5.164   0.162   0.874
 3775TIP3    H132884   5.096   0.102   0.906
 3775TIP3    H232885   5.239   0.146   0.931
 3776TIP3   OH232886   4.416   5.303   0.511
 3776TIP3    H132887   4.511   5.308   0.497
 3776TIP3    H232888   4.379   5.310   0.423
 3777TIP3   OH232889   2.268   6.186   6.818
 3777TIP3    H132890   2.263   6.129   6.895
 3777TIP3    H232891   2.354   6.167   6.780
 3778TIP3   OH232892   5.169   0.354   2.202
 3778TIP3    H132893   5.126   0.348   2.288
 3778TIP3    H232894   5.223   0.275   2.198
 3779TIP3   OH232895   4.483   6.734   7.363
 3779TIP3    H132896   4.506   6.708   7.452
 3779TIP3    H232897   4.470   6.652   7.316
 3780TIP3   OH232898   4.482   0.005   0.936
 3780TIP3    H132899   4.490   0.086   0.886
 3780TIP3    H232900   4.463   6.763   0.870
 3781TIP3   OH232901   4.250   3.615   7.418
 3781TIP3    H132902   4.286   3.692   7.463
 3781TIP3    H232903   4.213   3.650   7.337
 3782TIP3   OH232904   3.808   4.138   1.053
 3782TIP3    H132905   3.827   4.050   1.085
 3782TIP3    H232906   3.773   4.125   0.965
 3783TIP3   OH232907   0.352   4.281   0.029
 3783TIP3    H132908   0.365   4.192   8.776
 3783TIP3    H232909   0.258   4.288   0.040
 3784TIP3   OH232910   0.269   4.552   8.584
 3784TIP3    H132911   0.196   4.509   8.629
 3784TIP3    H232912   0.227   4.615   8.526
 3785TIP3   OH232913   0.259   2.186   1.757
 3785TIP3    H132914   0.333   2.243   1.776
 3785TIP3    H232915   0.293   2.097   1.770
 3786TIP3   OH232916   3.386   0.284   7.174
 3786TIP3    H132917   3.435   0.293   7.256
 3786TIP3    H232918   3.295   0.296   7.199
 3787TIP3   OH232919   6.703   3.643   2.032
 3787TIP3    H132920   6.654   3.565   2.058
 3787TIP3    H232921   6.737   3.679   2.114
 3788TIP3   OH232922   2.295   1.632   8.152
 3788TIP3    H132923   2.343   1.703   8.109
 3788TIP3    H232924   2.212   1.670   8.178
 3789TIP3   OH232925   3.768   1.529   1.230
 3789TIP3    H132926   3.768   1.526   1.134
 3789TIP3    H232927   3.680   1.498   1.254
 3790TIP3   OH232928   5.546   5.999   7.843
 3790TIP3    H132929   5.624   6.006   7.898
 3790TIP3    H232930   5.566   6.053   7.767
 3791TIP3   OH232931   5.075   3.343   7.229
 3791TIP3    H132932   5.085   3.355   7.324
 3791TIP3    H232933   5.160   3.367   7.193
 3792TIP3   OH232934   3.417   1.672   7.811
 3792TIP3    H132935   3.405   1.619   7.732
 3792TIP3    H232936   3.512   1.684   7.817
 3793TIP3   OH232937   3.249   4.004   0.732
 3793TIP3    H132938   3.299   3.933   0.771
 3793TIP3    H232939   3.183   3.960   0.677
 3794TIP3   OH232940   1.397   3.160   2.098
 3794TIP3    H132941   1.425   3.069   2.092
 3794TIP3    H232942   1.469   3.210   2.059
 3795TIP3   OH232943   6.276   2.159   1.059
 3795TIP3    H132944   6.222   2.101   1.005
 3795TIP3    H232945   6.356   2.172   1.008
 3796TIP3   OH232946   3.975   4.735   1.411
 3796TIP3    H132947   3.960   4.662   1.471
 3796TIP3    H232948   3.961   4.697   1.324
 3797TIP3   OH232949   3.444   3.837   1.652
 3797TIP3    H132950   3.398   3.920   1.657
 3797TIP3    H232951   3.483   3.826   1.739
 3798TIP3   OH232952   3.337   4.502   8.005
 3798TIP3    H132953   3.340   4.532   7.915
 3798TIP3    H232954   3.251   4.530   8.037
 3799TIP3   OH232955   1.844   6.192   6.947
 3799TIP3    H132956   1.802   6.181   6.862
 3799TIP3    H232957   1.773   6.215   7.006
 3800TIP3   OH232958   3.510   3.030   0.571
 3800TIP3    H132959   3.569   2.958   0.547
 3800TIP3    H232960   3.425   2.989   0.582
 3801TIP3   OH232961   3.711   5.155   8.254
 3801TIP3    H132962   3.742   5.067   8.233
 3801TIP3    H232963   3.617   5.145   8.269
 3802TIP3   OH232964   6.098   3.068   1.684
 3802TIP3    H132965   6.028   3.114   1.730
 3802TIP3    H232966   6.106   2.984   1.730
 3803TIP3   OH232967   1.689   6.593   6.286
 3803TIP3    H132968   1.744   6.670   6.270
 3803TIP3    H232969   1.633   6.618   6.359
 3804TIP3   OH232970   2.493   6.192   0.504
 3804TIP3    H132971   2.447   6.276   0.507
 3804TIP3    H232972   2.549   6.198   0.426
 3805TIP3   OH232973   1.574   5.988   7.562
 3805TIP3    H132974   1.645   5.924   7.561
 3805TIP3    H232975   1.554   5.999   7.655
 3806TIP3   OH232976   2.668   1.823   1.787
 3806TIP3    H132977   2.730   1.860   1.850
 3806TIP3    H232978   2.695   1.731   1.779
 3807TIP3   OH232979   6.118   5.974   7.104
 3807TIP3    H132980   6.165   6.053   7.077
 3807TIP3    H232981   6.031   5.983   7.065
 3808TIP3   OH232982   0.943   0.478   7.556
 3808TIP3    H132983   0.910   0.466   7.645
 3808TIP3    H232984   0.907   0.563   7.528
 3809TIP3   OH232985   2.403   5.931   2.341
 3809TIP3    H132986   2.409   5.915   2.435
 3809TIP3    H232987   2.442   6.018   2.329
 3810TIP3   OH232988   3.620   1.280   8.264
 3810TIP3    H132989   3.670   1.354   8.299
 3810TIP3    H232990   3.585   1.236   8.341
 3811TIP3   OH232991   4.349   1.958   1.985
 3811TIP3    H132992   4.302   1.944   2.067
 3811TIP3    H232993   4.358   1.870   1.947
 3812TIP3   OH232994   3.421   6.347   6.652
 3812TIP3    H132995   3.424   6.361   6.747
 3812TIP3    H232996   3.490   6.282   6.636
 3813TIP3   OH232997   0.899   2.415   8.570
 3813TIP3    H132998   0.898   2.490   8.511
 3813TIP3    H232999   0.818   2.367   8.550
 3814TIP3   OH233000   0.533   1.151   2.213
 3814TIP3    H133001   0.578   1.068   2.229
 3814TIP3    H233002   0.582   1.215   2.265
 3815TIP3   OH233003   3.784   0.951   8.551
 3815TIP3    H133004   3.691   0.938   8.567
 3815TIP3    H233005   3.812   0.871   8.506
 3816TIP3   OH233006   2.014   1.078   7.100
 3816TIP3    H133007   1.924   1.049   7.082
 3816TIP3    H233008   2.058   1.000   7.134
 3817TIP3   OH233009   3.104   0.877   1.897
 3817TIP3    H133010   3.019   0.854   1.935
 3817TIP3    H233011   3.131   0.797   1.852
 3818TIP3   OH233012   1.078   0.831   0.445
 3818TIP3    H133013   1.030   0.816   0.526
 3818TIP3    H233014   1.033   0.777   0.380
 3819TIP3   OH233015   5.904   6.252   1.394
 3819TIP3    H133016   5.991   6.292   1.393
 3819TIP3    H233017   5.921   6.159   1.407
 3820TIP3   OH233018   4.990   0.540   8.139
 3820TIP3    H133019   5.064   0.554   8.079
 3820TIP3    H233020   4.990   0.446   8.155
 3821TIP3   OH233021   2.401   4.914   1.851
 3821TIP3    H133022   2.366   4.853   1.786
 3821TIP3    H233023   2.434   4.859   1.921
 3822TIP3   OH233024   0.947   4.137   1.596
 3822TIP3    H133025   0.968   4.045   1.607
 3822TIP3    H233026   0.872   4.152   1.652
 3823TIP3   OH233027   3.784   5.539   1.935
 3823TIP3    H133028   3.836   5.585   2.000
 3823TIP3    H233029   3.791   5.593   1.856
 3824TIP3   OH233030   1.464   4.181   8.705
 3824TIP3    H133031   1.455   4.205   8.613
 3824TIP3    H233032   1.542   4.125   8.708
 3825TIP3   OH233033   2.201   0.495   1.053
 3825TIP3    H133034   2.205   0.556   1.127
 3825TIP3    H233035   2.180   0.550   0.978
 3826TIP3   OH233036   5.706   3.533   7.739
 3826TIP3    H133037   5.714   3.607   7.678
 3826TIP3    H233038   5.611   3.517   7.743
 3827TIP3   OH233039   2.717   5.628   8.067
 3827TIP3    H133040   2.800   5.591   8.098
 3827TIP3    H233041   2.727   5.723   8.080
 3828TIP3   OH233042   6.551   2.316   1.377
 3828TIP3    H133043   6.596   2.383   1.327
 3828TIP3    H233044   6.464   2.310   1.336
 3829TIP3   OH233045   4.314   3.909   0.722
 3829TIP3    H133046   4.353   3.997   0.724
 3829TIP3    H233047   4.310   3.883   0.814
 3830TIP3   OH233048   6.317   6.597   6.988
 3830TIP3    H133049   6.239   6.602   6.933
 3830TIP3    H233050   6.388   6.577   6.927
 3831TIP3   OH233051   4.643   0.674   7.405
 3831TIP3    H133052   4.582   0.746   7.394
 3831TIP3    H233053   4.589   0.595   7.397
 3832TIP3   OH233054   6.501   3.988   0.706
 3832TIP3    H133055   6.418   4.035   0.714
 3832TIP3    H233056   6.524   3.965   0.796
 3833TIP3   OH233057   4.343   2.675   8.745
 3833TIP3    H133058   4.310   2.759   8.776
 3833TIP3    H233059   4.327   2.615   0.037
 3834TIP3   OH233060   5.818   2.085   8.230
 3834TIP3    H133061   5.863   2.085   8.146
 3834TIP3    H233062   5.872   2.139   8.287
 3835TIP3   OH233063   2.420   3.242   1.666
 3835TIP3    H133064   2.343   3.296   1.684
 3835TIP3    H233065   2.448   3.211   1.752
 3836TIP3   OH233066   5.006   2.626   0.297
 3836TIP3    H133067   5.021   2.711   0.257
 3836TIP3    H233068   5.009   2.642   0.392
 3837TIP3   OH233069   3.951   5.259   8.141
 3837TIP3    H133070   4.006   5.183   8.160
 3837TIP3    H233071   3.862   5.230   8.160
 3838TIP3   OH233072   0.529   0.848   1.884
 3838TIP3    H133073   0.471   0.796   1.940
 3838TIP3    H233074   0.584   0.896   1.946
 3839TIP3   OH233075   3.876   2.287   0.158
 3839TIP3    H133076   3.915   2.293   0.245
 3839TIP3    H233077   3.838   2.373   0.142
 3840TIP3   OH233078   5.716   3.995   6.280
 3840TIP3    H133079   5.686   3.904   6.291
 3840TIP3    H233080   5.636   4.047   6.281
 3841TIP3   OH233081   4.085   0.381   1.666
 3841TIP3    H133082   4.145   0.330   1.612
 3841TIP3    H233083   4.099   0.349   1.755
 3842TIP3   OH233084   0.503   0.930   6.514
 3842TIP3    H133085   0.410   0.909   6.517
 3842TIP3    H233086   0.509   1.003   6.452
 3843TIP3   OH233087   2.276   6.564   1.166
 3843TIP3    H133088   2.324   6.646   1.178
 3843TIP3    H233089   2.190   6.591   1.134
 3844TIP3   OH233090   6.706   3.822   1.520
 3844TIP3    H133091   6.637   3.775   1.567
 3844TIP3    H233092   6.788   3.784   1.552
 3845TIP3   OH233093   2.546   2.294   8.326
 3845TIP3    H133094   2.626   2.247   8.300
 3845TIP3    H233095   2.555   2.305   8.421
 3846TIP3   OH233096   4.242   6.069   8.532
 3846TIP3    H133097   4.335   6.054   8.544
 3846TIP3    H233098   4.232   6.078   8.437
 3847TIP3   OH233099   6.413   6.746   8.353
 3847TIP3    H133100   6.352   6.674   8.369
 3847TIP3    H233101   6.494   6.702   8.327
 3848TIP3   OH233102   6.275   4.009   1.889
 3848TIP3    H133103   6.190   3.983   1.924
 3848TIP3    H233104   6.331   4.020   1.966
 3849TIP3   OH233105   5.593   1.456   2.691
 3849TIP3    H133106   5.509   1.411   2.689
 3849TIP3    H233107   5.652   1.400   2.641
 3850TIP3   OH233108   4.126   5.078   2.341
 3850TIP3    H133109   4.132   4.986   2.365
 3850TIP3    H233110   4.207   5.096   2.292
 3851TIP3   OH233111   0.319   1.412   6.979
 3851TIP3    H133112   0.264   1.486   7.003
 3851TIP3    H233113   0.259   1.339   6.970
 3852TIP3   OH233114   1.117   2.095   1.150
 3852TIP3    H133115   1.098   2.002   1.165
 3852TIP3    H233116   1.034   2.139   1.168
 3853TIP3   OH233117   3.932   6.100   1.119
 3853TIP3    H133118   3.943   6.088   1.025
 3853TIP3    H233119   3.997   6.042   1.159
 3854TIP3   OH233120   3.463   3.558   1.896
 3854TIP3    H133121   3.488   3.650   1.901
 3854TIP3    H233122   3.449   3.542   1.803
 3855TIP3   OH233123   2.632   3.982   1.567
 3855TIP3    H133124   2.706   3.937   1.609
 3855TIP3    H233125   2.585   3.912   1.522
 3856TIP3   OH233126   2.601   6.824   7.936
 3856TIP3    H133127   2.661   6.753   7.912
 3856TIP3    H233128   2.555   0.020   7.855
 3857TIP3   OH233129   0.709   3.979   8.531
 3857TIP3    H133130   0.695   3.899   8.479
 3857TIP3    H233131   0.749   4.041   8.470
 3858TIP3   OH233132   5.557   1.814   1.133
 3858TIP3    H133133   5.636   1.765   1.108
 3858TIP3    H233134   5.569   1.900   1.094
 3859TIP3   OH233135   3.576   3.345   7.756
 3859TIP3    H133136   3.582   3.264   7.808
 3859TIP3    H233137   3.496   3.387   7.787
 3860TIP3   OH233138   3.079   1.431   8.271
 3860TIP3    H133139   3.144   1.361   8.267
 3860TIP3    H233140   3.100   1.480   8.350
 3861TIP3   OH233141   0.079   2.877   6.770
 3861TIP3    H133142   0.150   2.912   6.715
 3861TIP3    H233143   0.047   2.801   6.721
 3862TIP3   OH233144   3.157   1.875   7.996
 3862TIP3    H133145   3.224   1.941   8.008
 3862TIP3    H233146   3.096   1.914   7.933
 3863TIP3   OH233147   2.023   3.928   6.239
 3863TIP3    H133148   2.011   3.839   6.272
 3863TIP3    H233149   2.029   3.982   6.318
 3864TIP3   OH233150   3.879   0.053   0.841
 3864TIP3    H133151   3.961   0.042   0.791
 3864TIP3    H233152   3.879   6.806   0.903
 3865TIP3   OH233153   3.849   6.663   2.764
 3865TIP3    H133154   3.785   6.723   2.804
 3865TIP3    H233155   3.809   6.638   2.681
 3866TIP3   OH233156   3.731   2.156   0.451
 3866TIP3    H133157   3.757   2.158   0.543
 3866TIP3    H233158   3.783   2.225   0.409
 3867TIP3   OH233159   2.526   2.825   1.994
 3867TIP3    H133160   2.518   2.843   1.900
 3867TIP3    H233161   2.620   2.812   2.007
 3868TIP3   OH233162   4.856   2.700   1.534
 3868TIP3    H133163   4.784   2.705   1.471
 3868TIP3    H233164   4.812   2.692   1.619
 3869TIP3   OH233165   3.066   6.700   8.362
 3869TIP3    H133166   2.973   6.679   8.375
 3869TIP3    H233167   3.112   6.620   8.389
 3870TIP3   OH233168   3.466   1.129   2.142
 3870TIP3    H133169   3.507   1.104   2.226
 3870TIP3    H233170   3.372   1.124   2.159
 3871TIP3   OH233171   6.043   4.026   0.207
 3871TIP3    H133172   6.114   3.961   0.207
 3871TIP3    H233173   6.035   4.053   0.116
 3872TIP3   OH233174   3.227   1.737   1.761
 3872TIP3    H133175   3.322   1.744   1.771
 3872TIP3    H233176   3.197   1.828   1.757
 3873TIP3   OH233177   5.180   4.273   7.698
 3873TIP3    H133178   5.148   4.335   7.765
 3873TIP3    H233179   5.256   4.232   7.737
 3874TIP3   OH233180   3.151   5.545   0.703
 3874TIP3    H133181   3.128   5.638   0.704
 3874TIP3    H233182   3.118   5.511   0.785
 3875TIP3   OH233183   5.069   2.385   7.630
 3875TIP3    H133184   5.114   2.463   7.665
 3875TIP3    H233185   5.043   2.410   7.542
 3876TIP3   OH233186   2.454   3.739   8.719
 3876TIP3    H133187   2.543   3.761   8.689
 3876TIP3    H233188   2.404   3.730   8.638
 3877TIP3   OH233189   2.333   6.404   0.448
 3877TIP3    H133190   2.297   6.425   0.534
 3877TIP3    H233191   2.333   6.488   0.401
 3878TIP3   OH233192   4.749   4.444   8.186
 3878TIP3    H133193   4.800   4.377   8.233
 3878TIP3    H233194   4.728   4.509   8.252
 3879TIP3   OH233195   6.560   5.916   0.364
 3879TIP3    H133196   6.602   5.861   0.431
 3879TIP3    H233197   6.612   5.902   0.285
 3880TIP3   OH233198   5.662   4.228   1.448
 3880TIP3    H133199   5.613   4.197   1.524
 3880TIP3    H233200   5.623   4.313   1.428
 3881TIP3   OH233201   5.164   3.907   1.513
 3881TIP3    H133202   5.248   3.877   1.546
 3881TIP3    H233203   5.100   3.873   1.575
 3882TIP3   OH233204   2.948   5.948   6.509
 3882TIP3    H133205   2.925   6.023   6.564
 3882TIP3    H233206   3.018   5.981   6.453
 3883TIP3   OH233207   1.566   1.236   7.465
 3883TIP3    H133208   1.553   1.156   7.414
 3883TIP3    H233209   1.650   1.222   7.509
 3884TIP3   OH233210   4.743   3.825   2.253
 3884TIP3    H133211   4.729   3.895   2.317
 3884TIP3    H233212   4.748   3.745   2.306
 3885TIP3   OH233213   1.446   6.621   7.761
 3885TIP3    H133214   1.440   6.598   7.854
 3885TIP3    H233215   1.518   6.685   7.756
 3886TIP3   OH233216   0.524   5.266   7.982
 3886TIP3    H133217   0.580   5.193   7.955
 3886TIP3    H233218   0.557   5.291   8.068
 3887TIP3   OH233219   6.517   1.148   2.155
 3887TIP3    H133220   6.432   1.105   2.153
 3887TIP3    H233221   6.517   1.198   2.236
 3888TIP3   OH233222   4.196   0.912   2.509
 3888TIP3    H133223   4.174   0.971   2.582
 3888TIP3    H233224   4.111   0.882   2.476
 3889TIP3   OH233225   5.525   5.641   0.130
 3889TIP3    H133226   5.597   5.701   0.110
 3889TIP3    H233227   5.485   5.623   0.044
 3890TIP3   OH233228   4.079   5.437   0.204
 3890TIP3    H133229   4.086   5.515   0.258
 3890TIP3    H233230   4.170   5.414   0.182
 3891TIP3   OH233231   1.375   0.878   2.288
 3891TIP3    H133232   1.442   0.945   2.303
 3891TIP3    H233233   1.293   0.927   2.279
 3892TIP3   OH233234   0.592   0.008   2.361
 3892TIP3    H133235   0.560   0.085   2.408
 3892TIP3    H233236   0.513   6.787   2.334
 3893TIP3   OH233237   3.233   3.685   6.451
 3893TIP3    H133238   3.169   3.736   6.401
 3893TIP3    H233239   3.259   3.743   6.522
 3894TIP3   OH233240   1.117   6.378   1.510
 3894TIP3    H133241   1.204   6.395   1.546
 3894TIP3    H233242   1.133   6.360   1.417
 3895TIP3   OH233243   4.563   2.129   0.188
 3895TIP3    H133244   4.489   2.119   0.247
 3895TIP3    H233245   4.556   2.220   0.156
 3896TIP3   OH233246   4.162   2.833   7.856
 3896TIP3    H133247   4.112   2.763   7.897
 3896TIP3    H233248   4.151   2.908   7.914
 3897TIP3   OH233249   4.988   3.766   1.696
 3897TIP3    H133250   4.905   3.729   1.665
 3897TIP3    H233251   5.010   3.714   1.773
 3898TIP3   OH233252   4.554   2.509   8.348
 3898TIP3    H133253   4.525   2.595   8.378
 3898TIP3    H233254   4.622   2.527   8.283
 3899TIP3   OH233255   1.684   5.148   7.955
 3899TIP3    H133256   1.693   5.114   7.866
 3899TIP3    H233257   1.628   5.226   7.945
 3900TIP3   OH233258   1.226   0.102   7.912
 3900TIP3    H133259   1.291   0.060   7.969
 3900TIP3    H233260   1.186   0.029   7.864
 3901TIP3   OH233261   3.488   2.614   7.099
 3901TIP3    H133262   3.438   2.575   7.171
 3901TIP3    H233263   3.464   2.561   7.022
 3902TIP3   OH233264   4.742   0.284   1.228
 3902TIP3    H133265   4.748   0.189   1.233
 3902TIP3    H233266   4.691   0.309   1.305
 3903TIP3   OH233267   2.597   1.736   8.763
 3903TIP3    H133268   2.573   1.648   0.012
 3903TIP3    H233269   2.679   1.755   0.027
 3904TIP3   OH233270   5.324   1.114   7.127
 3904TIP3    H133271   5.303   1.207   7.117
 3904TIP3    H233272   5.240   1.069   7.111
 3905TIP3   OH233273   5.210   1.596   0.338
 3905TIP3    H133274   5.216   1.662   0.269
 3905TIP3    H233275   5.300   1.584   0.368
 3906TIP3   OH233276   4.006   0.730   7.871
 3906TIP3    H133277   3.926   0.782   7.873
 3906TIP3    H233278   4.004   0.678   7.952
 3907TIP3   OH233279   6.041   2.715   8.715
 3907TIP3    H133280   6.057   2.621   8.713
 3907TIP3    H233281   5.982   2.728   0.009
 3908TIP3   OH233282   4.228   4.192   2.505
 3908TIP3    H133283   4.237   4.104   2.469
 3908TIP3    H233284   4.152   4.229   2.460
 3909TIP3   OH233285   1.928   3.128   8.444
 3909TIP3    H133286   1.846   3.157   8.484
 3909TIP3    H233287   1.914   3.140   8.350
 3910TIP3   OH233288   2.431   5.509   7.069
 3910TIP3    H133289   2.451   5.430   7.018
 3910TIP3    H233290   2.456   5.486   7.158
 3911TIP3   OH233291   4.484   1.913   0.035
 3911TIP3    H133292   4.554   1.955   8.766
 3911TIP3    H233293   4.483   1.958   0.119
 3912TIP3   OH233294   3.004   3.914   2.065
 3912TIP3    H133295   2.964   3.835   2.101
 3912TIP3    H233296   3.098   3.899   2.073
 3913TIP3   OH233297   0.044   2.548   7.723
 3913TIP3    H133298   0.095   2.584   7.650
 3913TIP3    H233299   6.797   2.610   7.734
 3914TIP3   OH233300   6.461   5.712   1.401
 3914TIP3    H133301   6.517   5.781   1.364
 3914TIP3    H233302   6.522   5.652   1.443
 3915TIP3   OH233303   4.706   2.213   1.400
 3915TIP3    H133304   4.666   2.268   1.467
 3915TIP3    H233305   4.759   2.274   1.348
 3916TIP3   OH233306   5.466   5.396   6.892
 3916TIP3    H133307   5.389   5.369   6.842
 3916TIP3    H233308   5.524   5.320   6.892
 3917TIP3   OH233309   4.181   4.134   7.326
 3917TIP3    H133310   4.158   4.076   7.253
 3917TIP3    H233311   4.100   4.179   7.348
 3918TIP3   OH233312   0.965   0.537   6.337
 3918TIP3    H133313   1.007   0.548   6.423
 3918TIP3    H233314   0.994   0.451   6.308
 3919TIP3   OH233315   5.247   6.616   1.414
 3919TIP3    H133316   5.280   6.554   1.479
 3919TIP3    H233317   5.226   6.695   1.464
 3920TIP3   OH233318   2.634   0.057   0.581
 3920TIP3    H133319   2.658   6.792   0.604
 3920TIP3    H233320   2.631   0.057   0.485
 3921TIP3   OH233321   1.883   3.198   0.244
 3921TIP3    H133322   1.943   3.151   0.302
 3921TIP3    H233323   1.939   3.263   0.200
 3922TIP3   OH233324   0.537   2.296   0.354
 3922TIP3    H133325   0.479   2.257   0.419
 3922TIP3    H233326   0.625   2.272   0.383
 3923TIP3   OH233327   5.189   3.195   6.808
 3923TIP3    H133328   5.214   3.117   6.858
 3923TIP3    H233329   5.115   3.232   6.856
 3924TIP3   OH233330   5.721   6.230   1.201
 3924TIP3    H133331   5.780   6.248   1.274
 3924TIP3    H233332   5.709   6.135   1.203
 3925TIP3   OH233333   4.214   2.030   8.460
 3925TIP3    H133334   4.125   2.057   8.482
 3925TIP3    H233335   4.268   2.068   8.529
 3926TIP3   OH233336   6.471   4.203   0.350
 3926TIP3    H133337   6.397   4.248   0.391
 3926TIP3    H233338   6.521   4.167   0.424
 3927TIP3   OH233339   6.660   3.964   7.846
 3927TIP3    H133340   6.623   3.883   7.810
 3927TIP3    H233341   6.715   3.935   7.918
 3928TIP3   OH233342   6.154   2.989   7.968
 3928TIP3    H133343   6.071   2.944   7.979
 3928TIP3    H233344   6.212   2.948   8.033
 3929TIP3   OH233345   6.328   3.661   6.843
 3929TIP3    H133346   6.363   3.583   6.800
 3929TIP3    H233347   6.233   3.655   6.830
 3930TIP3   OH233348   2.633   2.054   0.044
 3930TIP3    H133349   2.590   2.053   8.739
 3930TIP3    H233350   2.726   2.043   0.025
 3931TIP3   OH233351   3.895   2.613   1.370
 3931TIP3    H133352   3.811   2.571   1.385
 3931TIP3    H233353   3.955   2.569   1.431
 3932TIP3   OH233354   0.781   0.400   8.775
 3932TIP3    H133355   0.798   0.410   8.682
 3932TIP3    H233356   0.868   0.396   0.034
 3933TIP3   OH233357   5.215   0.549   0.498
 3933TIP3    H133358   5.257   0.511   0.575
 3933TIP3    H233359   5.260   0.509   0.424
 3934TIP3   OH233360   1.579   4.744   7.191
 3934TIP3    H133361   1.508   4.765   7.131
 3934TIP3    H233362   1.659   4.758   7.140
 3935TIP3   OH233363   5.627   0.017   0.275
 3935TIP3    H133364   5.590   6.763   0.315
 3935TIP3    H233365   5.693   6.809   0.214
 3936TIP3   OH233366   5.254   0.167   1.137
 3936TIP3    H133367   5.349   0.163   1.131
 3936TIP3    H233368   5.237   0.201   1.225
 3937TIP3   OH233369   3.398   2.518   0.849
 3937TIP3    H133370   3.442   2.435   0.831
 3937TIP3    H233371   3.313   2.510   0.805
 3938TIP3   OH233372   0.107   3.206   0.449
 3938TIP3    H133373   0.179   3.165   0.495
 3938TIP3    H233374   0.135   3.209   0.358
 3939TIP3   OH233375   4.490   2.514   1.758
 3939TIP3    H133376   4.467   2.464   1.837
 3939TIP3    H233377   4.408   2.558   1.734
 3940TIP3   OH233378   5.804   4.601   7.435
 3940TIP3    H133379   5.886   4.649   7.446
 3940TIP3    H233380   5.737   4.659   7.470
 3941TIP3   OH233381   2.143   3.783   0.385
 3941TIP3    H133382   2.167   3.797   0.476
 3941TIP3    H233383   2.104   3.695   0.384
 3942TIP3   OH233384   0.148   1.962   0.086
 3942TIP3    H133385   0.112   1.889   0.136
 3942TIP3    H233386   0.221   1.924   0.037
 3943TIP3   OH233387   0.966   5.524   7.713
 3943TIP3    H133388   0.876   5.529   7.743
 3943TIP3    H233389   0.969   5.447   7.657
 3944TIP3   OH233390   3.801   5.028   2.236
 3944TIP3    H133391   3.779   4.940   2.267
 3944TIP3    H233392   3.725   5.081   2.261
 3945TIP3   OH233393   6.668   1.059   1.751
 3945TIP3    H133394   6.631   1.125   1.808
 3945TIP3    H233395   6.593   1.026   1.700
 3946TIP3   OH233396   0.925   1.031   8.765
 3946TIP3    H133397   0.866   1.022   0.059
 3946TIP3    H233398   1.011   1.011   0.019
 3947TIP3   OH233399   0.340   3.408   1.019
 3947TIP3    H133400   0.315   3.493   1.054
 3947TIP3    H233401   0.361   3.355   1.097
 3948TIP3   OH233402   0.134   2.506   1.039
 3948TIP3    H133403   0.039   2.508   1.053
 3948TIP3    H233404   0.155   2.414   1.027
 3949TIP3   OH233405   4.238   1.796   7.379
 3949TIP3    H133406   4.208   1.825   7.465
 3949TIP3    H233407   4.333   1.789   7.388
 3950TIP3   OH233408   2.131   2.656   7.399
 3950TIP3    H133409   2.124   2.737   7.347
 3950TIP3    H233410   2.221   2.627   7.385
 3951TIP3   OH233411   4.681   4.064   1.000
 3951TIP3    H133412   4.762   4.071   0.949
 3951TIP3    H233413   4.682   3.975   1.035
 3952TIP3   OH233414   2.464   1.063   8.781
 3952TIP3    H133415   2.375   1.081   8.751
 3952TIP3    H233416   2.478   0.971   8.762
 3953TIP3   OH233417   3.030   2.051   7.821
 3953TIP3    H133418   2.989   2.113   7.881
 3953TIP3    H233419   3.023   2.092   7.735
 3954TIP3   OH233420   1.595   1.654   0.247
 3954TIP3    H133421   1.541   1.595   0.194
 3954TIP3    H233422   1.619   1.725   0.187
 3955TIP3   OH233423   5.567   1.080   0.796
 3955TIP3    H133424   5.473   1.061   0.795
 3955TIP3    H233425   5.573   1.170   0.764
 3956TIP3   OH233426   4.568   2.607   1.473
 3956TIP3    H133427   4.477   2.634   1.477
 3956TIP3    H233428   4.577   2.540   1.541
 3957TIP3   OH233429   0.134   3.686   1.618
 3957TIP3    H133430   0.139   3.617   1.684
 3957TIP3    H233431   0.192   3.658   1.548
 3958TIP3   OH233432   4.859   5.322   2.466
 3958TIP3    H133433   4.919   5.380   2.513
 3958TIP3    H233434   4.914   5.248   2.439
 3959TIP3   OH233435   2.211   3.455   8.729
 3959TIP3    H133436   2.155   3.378   8.738
 3959TIP3    H233437   2.299   3.420   8.719
 3960TIP3   OH233438   1.811   6.121   6.404
 3960TIP3    H133439   1.881   6.064   6.372
 3960TIP3    H233440   1.734   6.093   6.356
 3961TIP3   OH233441   5.420   6.731   7.159
 3961TIP3    H133442   5.446   6.646   7.123
 3961TIP3    H233443   5.367   6.771   7.091
 3962TIP3   OH233444   2.522   5.534   0.271
 3962TIP3    H133445   2.480   5.596   0.212
 3962TIP3    H233446   2.453   5.471   0.293
 3963TIP3   OH233447   3.029   2.097   8.476
 3963TIP3    H133448   3.084   2.137   8.544
 3963TIP3    H233449   3.092   2.066   8.410
 3964TIP3   OH233450   0.857   5.418   0.560
 3964TIP3    H133451   0.805   5.473   0.501
 3964TIP3    H233452   0.900   5.356   0.502
 3965TIP3   OH233453   0.981   4.109   7.025
 3965TIP3    H133454   0.966   4.068   6.940
 3965TIP3    H233455   0.941   4.049   7.088
 3966TIP3   OH233456   3.499   0.686   7.239
 3966TIP3    H133457   3.417   0.640   7.220
 3966TIP3    H233458   3.559   0.656   7.171
 3967TIP3   OH233459   5.854   6.415   1.041
 3967TIP3    H133460   5.935   6.371   1.068
 3967TIP3    H233461   5.784   6.354   1.065
 3968TIP3   OH233462   4.645   3.026   2.504
 3968TIP3    H133463   4.605   3.099   2.551
 3968TIP3    H233464   4.706   3.068   2.443
 3969TIP3   OH233465   1.335   0.314   7.788
 3969TIP3    H133466   1.291   0.345   7.709
 3969TIP3    H233467   1.284   0.238   7.816
 3970TIP3   OH233468   3.987   5.010   1.384
 3970TIP3    H133469   4.004   5.051   1.469
 3970TIP3    H233470   3.986   4.916   1.403
 3971TIP3   OH233471   1.115   2.818   8.466
 3971TIP3    H133472   1.095   2.816   8.372
 3971TIP3    H233473   1.209   2.835   8.470
 3972TIP3   OH233474   5.754   4.910   1.867
 3972TIP3    H133475   5.759   4.864   1.951
 3972TIP3    H233476   5.662   4.936   1.860
 3973TIP3   OH233477   2.575   5.979   2.076
 3973TIP3    H133478   2.630   5.913   2.119
 3973TIP3    H233479   2.623   6.001   1.996
 3974TIP3   OH233480   5.838   1.399   8.106
 3974TIP3    H133481   5.825   1.479   8.158
 3974TIP3    H233482   5.760   1.394   8.050
 3975TIP3   OH233483   4.996   6.057   8.657
 3975TIP3    H133484   5.086   6.081   8.639
 3975TIP3    H233485   4.992   6.050   8.753
 3976TIP3   OH233486   0.133   4.035   0.210
 3976TIP3    H133487   0.221   4.007   0.184
 3976TIP3    H233488   0.146   4.087   0.289
 3977TIP3   OH233489   6.649   2.037   1.291
 3977TIP3    H133490   6.628   2.116   1.242
 3977TIP3    H233491   6.565   1.991   1.299
 3978TIP3   OH233492   2.479   1.799   8.053
 3978TIP3    H133493   2.536   1.731   8.020
 3978TIP3    H233494   2.505   1.878   8.006
 3979TIP3   OH233495   6.165   4.060   7.613
 3979TIP3    H133496   6.221   4.109   7.553
 3979TIP3    H233497   6.201   4.077   7.700
 3980TIP3   OH233498   5.365   4.623   6.856
 3980TIP3    H133499   5.381   4.543   6.906
 3980TIP3    H233500   5.428   4.619   6.784
 3981TIP3   OH233501   5.332   0.098   8.486
 3981TIP3    H133502   5.410   0.075   8.435
 3981TIP3    H233503   5.346   0.188   8.513
 3982TIP3   OH233504   5.557   6.404   8.740
 3982TIP3    H133505   5.525   6.358   0.036
 3982TIP3    H233506   5.555   6.338   8.670
 3983TIP3   OH233507   0.623   0.450   1.095
 3983TIP3    H133508   0.604   0.382   1.030
 3983TIP3    H233509   0.705   0.489   1.065
 3984TIP3   OH233510   6.499   4.760   1.609
 3984TIP3    H133511   6.502   4.664   1.610
 3984TIP3    H233512   6.406   4.781   1.618
 3985TIP3   OH233513   4.181   5.267   7.891
 3985TIP3    H133514   4.131   5.341   7.857
 3985TIP3    H233515   4.218   5.225   7.813
 3986TIP3   OH233516   2.279   1.887   6.896
 3986TIP3    H133517   2.373   1.881   6.912
 3986TIP3    H233518   2.258   1.809   6.845
 3987TIP3   OH233519   1.369   4.226   0.678
 3987TIP3    H133520   1.318   4.149   0.703
 3987TIP3    H233521   1.387   4.213   0.585
 3988TIP3   OH233522   3.765   3.192   6.816
 3988TIP3    H133523   3.722   3.274   6.843
 3988TIP3    H233524   3.853   3.200   6.851
 3989TIP3   OH233525   1.654   3.402   1.324
 3989TIP3    H133526   1.589   3.385   1.392
 3989TIP3    H233527   1.727   3.344   1.344
 3990TIP3   OH233528   2.166   4.339   2.390
 3990TIP3    H133529   2.144   4.433   2.393
 3990TIP3    H233530   2.252   4.333   2.431
 3991TIP3   OH233531   6.665   2.764   1.153
 3991TIP3    H133532   6.733   2.771   1.086
 3991TIP3    H233533   6.651   2.854   1.183
 3992TIP3   OH233534   3.783   4.883   8.264
 3992TIP3    H133535   3.803   4.884   8.358
 3992TIP3    H233536   3.741   4.799   8.250
 3993TIP3   OH233537   1.197   1.406   1.184
 3993TIP3    H133538   1.162   1.466   1.249
 3993TIP3    H233539   1.292   1.414   1.193
 3994TIP3   OH233540   2.017   5.311   8.424
 3994TIP3    H133541   1.988   5.372   8.357
 3994TIP3    H233542   2.112   5.322   8.427
 3995TIP3   OH233543   2.805   2.145   1.833
 3995TIP3    H133544   2.835   2.067   1.881
 3995TIP3    H233545   2.869   2.213   1.854
 3996TIP3   OH233546   4.123   4.643   1.100
 3996TIP3    H133547   4.158   4.598   1.176
 3996TIP3    H233548   4.167   4.728   1.100
 3997TIP3   OH233549   1.283   1.247   0.139
 3997TIP3    H133550   1.197   1.291   0.139
 3997TIP3    H233551   1.262   1.154   0.141
 3998TIP3   OH233552   6.060   1.909   0.215
 3998TIP3    H133553   6.004   1.936   0.287
 3998TIP3    H233554   6.104   1.990   0.187
 3999TIP3   OH233555   3.359   1.102   7.406
 3999TIP3    H133556   3.378   1.189   7.372
 3999TIP3    H233557   3.328   1.117   7.496
 4000TIP3   OH233558   3.685   2.817   0.578
 4000TIP3    H133559   3.685   2.807   0.673
 4000TIP3    H233560   3.735   2.742   0.545
 4001TIP3   OH233561   4.263   4.763   6.938
 4001TIP3    H133562   4.224   4.704   6.874
 4001TIP3    H233563   4.353   4.730   6.949
 4002TIP3   OH233564   6.496   2.323   7.567
 4002TIP3    H133565   6.410   2.289   7.543
 4002TIP3    H233566   6.480   2.373   7.647
 4003TIP3   OH233567   1.307   4.421   8.772
 4003TIP3    H133568   1.265   4.433   0.076
 4003TIP3    H233569   1.383   4.366   0.009
 4004TIP3   OH233570   0.020   4.297   7.890
 4004TIP3    H133571   6.789   4.346   7.830
 4004TIP3    H233572   0.083   4.253   7.834
 4005TIP3   OH233573   5.330   6.725   1.859
 4005TIP3    H133574   5.420   6.755   1.864
 4005TIP3    H233575   5.277   6.804   1.873
 4006TIP3   OH233576   0.030   3.310   8.638
 4006TIP3    H133577   0.028   3.277   8.548
 4006TIP3    H233578   0.123   3.309   8.662
 4007TIP3   OH233579   4.940   3.028   1.539
 4007TIP3    H133580   4.940   3.040   1.634
 4007TIP3    H233581   5.031   3.006   1.518
 4008TIP3   OH233582   5.889   6.365   8.562
 4008TIP3    H133583   5.898   6.314   8.642
 4008TIP3    H233584   5.903   6.301   8.492
 4009TIP3   OH233585   5.517   2.422   0.582
 4009TIP3    H133586   5.602   2.441   0.543
 4009TIP3    H233587   5.537   2.390   0.670
 4010TIP3   OH233588   3.959   4.968   0.859
 4010TIP3    H133589   3.913   4.976   0.943
 4010TIP3    H233590   3.904   5.015   0.796
 4011TIP3   OH233591   1.781   0.367   1.505
 4011TIP3    H133592   1.728   0.414   1.569
 4011TIP3    H233593   1.759   0.275   1.518
 4012TIP3   OH233594   2.250   6.277   0.199
 4012TIP3    H133595   2.194   6.217   0.249
 4012TIP3    H233596   2.282   6.338   0.265
 4013TIP3   OH233597   2.483   4.504   2.014
 4013TIP3    H133598   2.465   4.411   2.032
 4013TIP3    H233599   2.568   4.503   1.970
 4014TIP3   OH233600   2.819   1.619   2.258
 4014TIP3    H133601   2.733   1.654   2.282
 4014TIP3    H233602   2.801   1.533   2.222
 4015TIP3   OH233603   4.377   6.622   0.788
 4015TIP3    H133604   4.389   6.658   0.699
 4015TIP3    H233605   4.378   6.527   0.775
 4016TIP3   OH233606   5.310   1.417   6.465
 4016TIP3    H133607   5.216   1.416   6.484
 4016TIP3    H233608   5.317   1.379   6.378
 4017TIP3   OH233609   2.594   5.920   1.242
 4017TIP3    H133610   2.513   5.870   1.235
 4017TIP3    H233611   2.602   5.964   1.157
 4018TIP3   OH233612   4.308   6.610   8.736
 4018TIP3    H133613   4.383   6.669   8.735
 4018TIP3    H233614   4.232   6.667   8.745
 4019TIP3   OH233615   0.893   3.158   2.101
 4019TIP3    H133616   0.976   3.170   2.147
 4019TIP3    H233617   0.830   3.140   2.171
 4020TIP3   OH233618   2.399   5.009   8.048
 4020TIP3    H133619   2.325   5.064   8.075
 4020TIP3    H233620   2.365   4.919   8.051
 4021TIP3   OH233621   0.758   1.059   8.553
 4021TIP3    H133622   0.802   1.128   8.503
 4021TIP3    H233623   0.809   1.050   8.633
 4022TIP3   OH233624   2.368   1.725   1.284
 4022TIP3    H133625   2.385   1.630   1.286
 4022TIP3    H233626   2.405   1.753   1.200
 4023TIP3   OH233627   4.306   4.150   8.412
 4023TIP3    H133628   4.395   4.171   8.387
 4023TIP3    H233629   4.254   4.165   8.333
 4024TIP3   OH233630   1.755   1.380   2.052
 4024TIP3    H133631   1.836   1.329   2.041
 4024TIP3    H233632   1.712   1.340   2.127
 4025TIP3   OH233633   6.536   0.776   7.812
 4025TIP3    H133634   6.562   0.711   7.877
 4025TIP3    H233635   6.466   0.734   7.762
 4026TIP3   OH233636   6.780   0.804   1.775
 4026TIP3    H133637   6.749   0.886   1.736
 4026TIP3    H233638   0.051   0.814   1.777
 4027TIP3   OH233639   3.732   0.805   1.835
 4027TIP3    H133640   3.649   0.814   1.883
 4027TIP3    H233641   3.765   0.895   1.829
 4028TIP3   OH233642   3.927   6.153   2.556
 4028TIP3    H133643   3.985   6.187   2.488
 4028TIP3    H233644   3.986   6.126   2.626
 4029TIP3   OH233645   0.569   0.566   1.539
 4029TIP3    H133646   0.601   0.525   1.459
 4029TIP3    H233647   0.613   0.517   1.609
 4030TIP3   OH233648   0.226   1.958   1.117
 4030TIP3    H133649   0.321   1.947   1.115
 4030TIP3    H233650   0.200   1.966   1.025
 4031TIP3   OH233651   5.760   3.297   7.176
 4031TIP3    H133652   5.819   3.328   7.245
 4031TIP3    H233653   5.819   3.279   7.102
 4032TIP3   OH233654   0.673   1.912   7.463
 4032TIP3    H133655   0.640   1.975   7.398
 4032TIP3    H233656   0.605   1.909   7.530
 4033TIP3   OH233657   2.898   4.286   0.704
 4033TIP3    H133658   2.950   4.365   0.689
 4033TIP3    H233659   2.905   4.236   0.623
 4034TIP3   OH233660   5.834   2.598   0.951
 4034TIP3    H133661   5.839   2.503   0.940
 4034TIP3    H233662   5.844   2.612   1.045
 4035TIP3   OH233663   1.064   5.970   7.393
 4035TIP3    H133664   1.037   5.909   7.462
 4035TIP3    H233665   0.999   6.041   7.397
 4036TIP3   OH233666   1.982   1.523   7.283
 4036TIP3    H133667   2.066   1.494   7.248
 4036TIP3    H233668   1.917   1.479   7.229
 4037TIP3   OH233669   4.687   6.803   1.628
 4037TIP3    H133670   4.650   6.819   1.541
 4037TIP3    H233671   4.781   6.808   1.615
 4038TIP3   OH233672   2.732   4.415   1.211
 4038TIP3    H133673   2.705   4.444   1.124
 4038TIP3    H233674   2.827   4.423   1.210
 4039TIP3   OH233675   3.716   6.649   8.041
 4039TIP3    H133676   3.803   6.620   8.070
 4039TIP3    H233677   3.699   6.728   8.093
 4040TIP3   OH233678   1.242   6.471   1.889
 4040TIP3    H133679   1.248   6.520   1.971
 4040TIP3    H233680   1.149   6.446   1.882
 4041TIP3   OH233681   2.072   3.598   1.964
 4041TIP3    H133682   2.142   3.635   2.017
 4041TIP3    H233683   2.060   3.509   1.996
 4042TIP3   OH233684   4.669   2.040   2.489
 4042TIP3    H133685   4.631   2.087   2.563
 4042TIP3    H233686   4.758   2.076   2.481
 4043TIP3   OH233687   0.701   5.284   6.132
 4043TIP3    H133688   0.727   5.376   6.128
 4043TIP3    H233689   0.700   5.263   6.225
 4044TIP3   OH233690   4.810   3.826   7.889
 4044TIP3    H133691   4.874   3.895   7.871
 4044TIP3    H233692   4.728   3.873   7.905
 4045TIP3   OH233693   2.370   6.675   2.046
 4045TIP3    H133694   2.377   6.743   1.978
 4045TIP3    H233695   2.433   6.608   2.019
 4046TIP3   OH233696   0.959   1.692   6.575
 4046TIP3    H133697   0.897   1.643   6.521
 4046TIP3    H233698   0.904   1.749   6.629
 4047TIP3   OH233699   1.853   3.477   0.646
 4047TIP3    H133700   1.808   3.433   0.574
 4047TIP3    H233701   1.917   3.535   0.604
 4048TIP3   OH233702   4.985   2.497   6.934
 4048TIP3    H133703   4.999   2.491   6.839
 4048TIP3    H233704   5.059   2.549   6.965
 4049TIP3   OH233705   6.506   2.422   7.846
 4049TIP3    H133706   6.476   2.338   7.881
 4049TIP3    H233707   6.446   2.486   7.885
 4050TIP3   OH233708   6.740   3.887   8.124
 4050TIP3    H133709   6.747   3.973   8.167
 4050TIP3    H233710   6.655   3.854   8.153
 4051TIP3   OH233711   4.441   0.010   7.942
 4051TIP3    H133712   4.508   6.768   7.933
 4051TIP3    H233713   4.454   0.046   8.030
 4052TIP3   OH233714   1.103   0.426   0.659
 4052TIP3    H133715   1.089   0.412   0.565
 4052TIP3    H233716   1.088   0.519   0.672
 4053TIP3   OH233717   4.421   6.340   8.695
 4053TIP3    H133718   4.367   6.312   8.621
 4053TIP3    H233719   4.379   6.421   8.726
 4054TIP3   OH233720   4.458   5.476   7.069
 4054TIP3    H133721   4.523   5.506   7.006
 4054TIP3    H233722   4.416   5.556   7.100
 4055TIP3   OH233723   1.578   3.483   7.119
 4055TIP3    H133724   1.579   3.509   7.026
 4055TIP3    H233725   1.488   3.454   7.134
 4056TIP3   OH233726   2.468   1.798   1.046
 4056TIP3    H133727   2.399   1.735   1.028
 4056TIP3    H233728   2.458   1.864   0.977
 4057TIP3   OH233729   4.641   4.165   2.221
 4057TIP3    H133730   4.604   4.077   2.229
 4057TIP3    H233731   4.732   4.150   2.195
 4058TIP3   OH233732   3.058   2.213   7.596
 4058TIP3    H133733   3.084   2.304   7.605
 4058TIP3    H233734   3.012   2.209   7.512
 4059TIP3   OH233735   3.249   0.993   0.594
 4059TIP3    H133736   3.339   1.007   0.622
 4059TIP3    H233737   3.250   0.908   0.550
 4060TIP3   OH233738   4.670   2.770   2.528
 4060TIP3    H133739   4.650   2.864   2.531
 4060TIP3    H233740   4.599   2.733   2.475
 4061TIP3   OH233741   3.810   0.769   7.481
 4061TIP3    H133742   3.862   0.837   7.525
 4061TIP3    H233743   3.776   0.812   7.402
 4062TIP3   OH233744   1.150   4.228   7.456
 4062TIP3    H133745   1.161   4.256   7.366
 4062TIP3    H233746   1.070   4.272   7.486
 4063TIP3   OH233747   4.751   3.257   6.856
 4063TIP3    H133748   4.818   3.233   6.919
 4063TIP3    H233749   4.688   3.185   6.859
 4064TIP3   OH233750   2.799   1.114   8.568
 4064TIP3    H133751   2.740   1.128   8.494
 4064TIP3    H233752   2.780   1.187   8.627
 4065TIP3   OH233753   2.277   1.073   0.578
 4065TIP3    H133754   2.292   0.981   0.555
 4065TIP3    H233755   2.361   1.116   0.560
 4066TIP3   OH233756   3.705   0.551   6.753
 4066TIP3    H133757   3.612   0.546   6.731
 4066TIP3    H233758   3.748   0.489   6.694
 4067TIP3   OH233759   1.523   0.148   2.182
 4067TIP3    H133760   1.518   0.055   2.203
 4067TIP3    H233761   1.594   0.155   2.119
 4068TIP3   OH233762   4.730   1.212   8.776
 4068TIP3    H133763   4.729   1.171   8.690
 4068TIP3    H233764   4.638   1.232   0.014
 4069TIP3   OH233765   0.099   0.874   1.345
 4069TIP3    H133766   0.176   0.840   1.390
 4069TIP3    H233767   0.127   0.885   1.254
 4070TIP3   OH233768   5.546   1.700   6.655
 4070TIP3    H133769   5.534   1.748   6.737
 4070TIP3    H233770   5.640   1.703   6.639
 4071TIP3   OH233771   0.604   3.762   0.125
 4071TIP3    H133772   0.689   3.731   0.095
 4071TIP3    H233773   0.605   3.748   0.220
 4072TIP3   OH233774   2.952   3.742   8.369
 4072TIP3    H133775   2.905   3.787   8.298
 4072TIP3    H233776   3.044   3.768   8.357
 4073TIP3   OH233777   5.194   5.186   1.459
 4073TIP3    H133778   5.207   5.248   1.387
 4073TIP3    H233779   5.247   5.219   1.531
 4074TIP3   OH233780   0.223   5.993   6.884
 4074TIP3    H133781   0.171   6.069   6.858
 4074TIP3    H233782   0.288   5.983   6.814
 4075TIP3   OH233783   1.702   6.739   7.017
 4075TIP3    H133784   1.660   6.796   6.952
 4075TIP3    H233785   1.785   6.782   7.036
 4076TIP3   OH233786   1.938   3.743   7.729
 4076TIP3    H133787   1.978   3.798   7.796
 4076TIP3    H233788   1.881   3.684   7.778
 4077TIP3   OH233789   0.820   2.427   7.863
 4077TIP3    H133790   0.784   2.507   7.902
 4077TIP3    H233791   0.744   2.382   7.826
 4078TIP3   OH233792   3.206   5.798   7.435
 4078TIP3    H133793   3.154   5.861   7.385
 4078TIP3    H233794   3.294   5.836   7.438
 4079TIP3   OH233795   4.740   0.777   8.464
 4079TIP3    H133796   4.682   0.753   8.536
 4079TIP3    H233797   4.687   0.763   8.385
 4080TIP3   OH233798   2.152   6.718   7.691
 4080TIP3    H133799   2.100   6.761   7.759
 4080TIP3    H233800   2.095   6.720   7.613
 4081TIP3   OH233801   1.201   5.341   8.603
 4081TIP3    H133802   1.168   5.263   8.647
 4081TIP3    H233803   1.140   5.355   8.530
 4082TIP3   OH233804   1.226   3.911   1.712
 4082TIP3    H133805   1.131   3.921   1.721
 4082TIP3    H233806   1.261   3.998   1.731
 4083TIP3   OH233807   2.639   3.605   8.128
 4083TIP3    H133808   2.584   3.606   8.049
 4083TIP3    H233809   2.703   3.675   8.113
 4084TIP3   OH233810   4.798   1.234   0.551
 4084TIP3    H133811   4.799   1.146   0.589
 4084TIP3    H233812   4.733   1.229   0.482
 4085TIP3   OH233813   5.892   6.423   7.354
 4085TIP3    H133814   5.801   6.435   7.327
 4085TIP3    H233815   5.940   6.411   7.272
 4086TIP3   OH233816   4.474   3.425   7.207
 4086TIP3    H133817   4.380   3.442   7.207
 4086TIP3    H233818   4.481   3.331   7.225
 4087TIP3   OH233819   4.734   4.098   8.756
 4087TIP3    H133820   4.750   4.187   0.007
 4087TIP3    H233821   4.723   4.108   8.662
 4088TIP3   OH233822   0.332   4.563   1.051
 4088TIP3    H133823   0.371   4.541   0.966
 4088TIP3    H233824   0.251   4.512   1.054
 4089TIP3   OH233825   5.114   5.188   0.803
 4089TIP3    H133826   5.196   5.164   0.761
 4089TIP3    H233827   5.046   5.147   0.749
 4090TIP3   OH233828   0.666   3.882   1.458
 4090TIP3    H133829   0.590   3.865   1.404
 4090TIP3    H233830   0.738   3.892   1.396
 4091TIP3   OH233831   4.728   5.729   7.884
 4091TIP3    H133832   4.674   5.683   7.949
 4091TIP3    H233833   4.706   5.821   7.896
 4092TIP3   OH233834   2.824   0.457   2.124
 4092TIP3    H133835   2.755   0.433   2.062
 4092TIP3    H233836   2.843   0.549   2.105
 4093TIP3   OH233837   0.246   2.173   8.725
 4093TIP3    H133838   0.333   2.184   8.764
 4093TIP3    H233839   0.204   2.106   8.778
 4094TIP3   OH233840   2.460   3.364   8.688
 4094TIP3    H133841   2.470   3.282   8.737
 4094TIP3    H233842   2.465   3.338   8.596
 4095TIP3   OH233843   1.206   3.437   7.828
 4095TIP3    H133844   1.256   3.367   7.786
 4095TIP3    H233845   1.134   3.391   7.873
 4096TIP3   OH233846   3.498   2.706   7.400
 4096TIP3    H133847   3.440   2.692   7.475
 4096TIP3    H233848   3.439   2.715   7.325
 4097TIP3   OH233849   5.276   4.547   0.378
 4097TIP3    H133850   5.342   4.609   0.349
 4097TIP3    H233851   5.325   4.482   0.429
 4098TIP3   OH233852   0.513   4.732   1.200
 4098TIP3    H133853   0.597   4.686   1.203
 4098TIP3    H233854   0.460   4.679   1.140
 4099TIP3   OH233855   0.130   6.094   8.729
 4099TIP3    H133856   0.219   6.087   8.695
 4099TIP3    H233857   0.100   6.003   8.738
 4100TIP3   OH233858   0.185   4.007   8.168
 4100TIP3    H133859   0.123   3.936   8.151
 4100TIP3    H233860   0.223   4.027   8.083
 4101TIP3   OH233861   0.857   1.848   8.207
 4101TIP3    H133862   0.928   1.821   8.149
 4101TIP3    H233863   0.900   1.875   8.288
 4102TIP3   OH233864   3.676   6.188   1.790
 4102TIP3    H133865   3.602   6.229   1.835
 4102TIP3    H233866   3.730   6.154   1.861
 4103TIP3   OH233867   4.307   5.171   7.282
 4103TIP3    H133868   4.393   5.190   7.245
 4103TIP3    H233869   4.289   5.245   7.340
 4104TIP3   OH233870   5.176   2.910   1.423
 4104TIP3    H133871   5.187   2.912   1.328
 4104TIP3    H233872   5.148   2.821   1.443
 4105TIP3   OH233873   3.589   0.657   1.616
 4105TIP3    H133874   3.540   0.695   1.543
 4105TIP3    H233875   3.575   0.718   1.689
 4106TIP3   OH233876   0.585   5.396   0.459
 4106TIP3    H133877   0.537   5.315   0.478
 4106TIP3    H233878   0.582   5.445   0.542
 4107TIP3   OH233879   3.683   4.865   0.143
 4107TIP3    H133880   3.739   4.810   0.197
 4107TIP3    H233881   3.626   4.909   0.207
 4108TIP3   OH233882   3.005   6.265   7.165
 4108TIP3    H133883   2.924   6.222   7.137
 4108TIP3    H233884   2.977   6.352   7.193
 4109TIP3   OH233885   4.033   4.557   8.624
 4109TIP3    H133886   4.099   4.491   8.646
 4109TIP3    H233887   4.019   4.605   8.705
 4110TIP3   OH233888   4.660   3.197   7.151
 4110TIP3    H133889   4.647   3.104   7.138
 4110TIP3    H233890   4.619   3.239   7.075
 4111TIP3   OH233891   4.806   3.666   8.645
 4111TIP3    H133892   4.823   3.735   8.581
 4111TIP3    H233893   4.793   3.713   8.728
 4112TIP3   OH233894   2.462   0.680   1.526
 4112TIP3    H133895   2.509   0.744   1.472
 4112TIP3    H233896   2.383   0.726   1.554
 4113TIP3   OH233897   1.537   1.510   1.898
 4113TIP3    H133898   1.613   1.459   1.927
 4113TIP3    H233899   1.462   1.461   1.932
 4114TIP3   OH233900   1.521   4.902   0.749
 4114TIP3    H133901   1.553   4.985   0.786
 4114TIP3    H233902   1.598   4.845   0.748
 4115TIP3   OH233903   3.057   5.369   7.835
 4115TIP3    H133904   2.965   5.347   7.827
 4115TIP3    H233905   3.058   5.465   7.841
 4116TIP3   OH233906   6.195   3.575   8.249
 4116TIP3    H133907   6.255   3.520   8.299
 4116TIP3    H233908   6.195   3.659   8.296
 4117TIP3   OH233909   1.599   6.519   0.347
 4117TIP3    H133910   1.687   6.547   0.319
 4117TIP3    H233911   1.547   6.599   0.343
 4118TIP3   OH233912   1.325   5.747   0.857
 4118TIP3    H133913   1.252   5.773   0.914
 4118TIP3    H233914   1.403   5.767   0.908
 4119TIP3   OH233915   4.961   5.429   0.098
 4119TIP3    H133916   4.964   5.524   0.109
 4119TIP3    H233917   5.016   5.395   0.168
 4120TIP3   OH233918   0.999   0.751   6.734
 4120TIP3    H133919   1.034   0.679   6.681
 4120TIP3    H233920   0.914   0.771   6.694
 4121TIP3   OH233921   0.621   2.804   7.797
 4121TIP3    H133922   0.533   2.777   7.770
 4121TIP3    H233923   0.617   2.899   7.800
 4122TIP3   OH233924   1.146   4.275   0.423
 4122TIP3    H133925   1.136   4.350   0.482
 4122TIP3    H233926   1.237   4.247   0.436
 4123TIP3   OH233927   0.992   4.077   0.500
 4123TIP3    H133928   1.039   4.152   0.465
 4123TIP3    H233929   0.900   4.102   0.495
 4124TIP3   OH233930   1.754   0.472   0.719
 4124TIP3    H133931   1.763   0.431   0.805
 4124TIP3    H233932   1.662   0.460   0.697
 4125TIP3   OH233933   2.509   6.344   7.843
 4125TIP3    H133934   2.478   6.434   7.838
 4125TIP3    H233935   2.580   6.340   7.779
 4126TIP3   OH233936   0.621   4.851   0.351
 4126TIP3    H133937   0.681   4.924   0.367
 4126TIP3    H233938   0.659   4.807   0.274
 4127TIP3   OH233939   2.425   6.221   7.139
 4127TIP3    H133940   2.386   6.298   7.097
 4127TIP3    H233941   2.491   6.190   7.078
 4128TIP3   OH233942   5.423   2.748   1.510
 4128TIP3    H133943   5.385   2.824   1.554
 4128TIP3    H233944   5.361   2.677   1.526
 4129TIP3   OH233945   2.382   3.287   8.263
 4129TIP3    H133946   2.469   3.328   8.265
 4129TIP3    H233947   2.400   3.194   8.278
 4130TIP3   OH233948   1.801   3.007   7.589
 4130TIP3    H133949   1.887   3.031   7.625
 4130TIP3    H233950   1.820   2.971   7.503
 4131TIP3   OH233951   3.042   5.577   7.380
 4131TIP3    H133952   3.111   5.640   7.402
 4131TIP3    H233953   2.968   5.632   7.353
 4132TIP3   OH233954   3.792   6.604   1.346
 4132TIP3    H133955   3.721   6.567   1.294
 4132TIP3    H233956   3.810   6.689   1.305
 4133TIP3   OH233957   0.265   6.028   7.868
 4133TIP3    H133958   0.295   6.042   7.778
 4133TIP3    H233959   0.276   6.114   7.910
 4134TIP3   OH233960   4.316   3.320   0.201
 4134TIP3    H133961   4.332   3.388   0.266
 4134TIP3    H233962   4.228   3.288   0.223
 4135TIP3   OH233963   2.513   3.496   7.870
 4135TIP3    H133964   2.569   3.425   7.902
 4135TIP3    H233965   2.550   3.519   7.785
 4136TIP3   OH233966   6.430   5.125   2.374
 4136TIP3    H133967   6.430   5.196   2.439
 4136TIP3    H233968   6.365   5.062   2.407
 4137TIP3   OH233969   5.867   1.154   2.294
 4137TIP3    H133970   5.928   1.144   2.221
 4137TIP3    H233971   5.801   1.087   2.280
 4138TIP3   OH233972   4.183   0.743   1.206
 4138TIP3    H133973   4.210   0.792   1.128
 4138TIP3    H233974   4.170   0.653   1.175
 4139TIP3   OH233975   6.737   5.308   6.520
 4139TIP3    H133976   6.789   5.382   6.550
 4139TIP3    H233977   6.658   5.310   6.573
 4140TIP3   OH233978   2.823   6.051   7.457
 4140TIP3    H133979   2.906   6.041   7.410
 4140TIP3    H233980   2.768   6.103   7.398
 4141TIP3   OH233981   1.961   0.900   0.845
 4141TIP3    H133982   2.025   0.852   0.792
 4141TIP3    H233983   1.876   0.871   0.812
 4142TIP3   OH233984   4.176   0.239   8.198
 4142TIP3    H133985   4.193   0.156   8.245
 4142TIP3    H233986   4.187   0.306   8.265
 4143TIP3   OH233987   5.396   1.921   6.560
 4143TIP3    H133988   5.422   1.841   6.606
 4143TIP3    H233989   5.423   1.992   6.619
 4144TIP3   OH233990   2.685   6.173   1.332
 4144TIP3    H133991   2.745   6.190   1.259
 4144TIP3    H233992   2.635   6.096   1.304
 4145TIP3   OH233993   5.893   5.657   1.975
 4145TIP3    H133994   5.876   5.571   2.014
 4145TIP3    H233995   5.812   5.677   1.927
 4146TIP3   OH233996   0.165   2.589   8.076
 4146TIP3    H133997   0.151   2.581   8.171
 4146TIP3    H233998   0.080   2.572   8.037
 4147TIP3   OH233999   4.881   5.286   8.659
 4147TIP3    H134000   4.927   5.308   8.578
 4147TIP3    H234001   4.927   5.337   8.727
 4148TIP3   OH234002   0.856   2.199   2.640
 4148TIP3    H134003   0.793   2.260   2.603
 4148TIP3    H234004   0.925   2.193   2.574
 4149TIP3   OH234005   5.631   1.314   7.901
 4149TIP3    H134006   5.541   1.348   7.904
 4149TIP3    H234007   5.622   1.221   7.919
 4150TIP3   OH234008   6.379   2.334   8.259
 4150TIP3    H134009   6.460   2.294   8.226
 4150TIP3    H234010   6.408   2.419   8.295
 4151TIP3   OH234011   0.727   5.521   7.850
 4151TIP3    H134012   0.699   5.568   7.929
 4151TIP3    H234013   0.652   5.526   7.791
 4152TIP3   OH234014   4.705   0.642   8.736
 4152TIP3    H134015   4.679   0.603   0.038
 4152TIP3    H234016   4.797   0.664   8.747
 4153TIP3   OH234017   6.005   3.812   7.127
 4153TIP3    H134018   5.961   3.822   7.043
 4153TIP3    H234019   6.049   3.896   7.141
 4154TIP3   OH234020   3.789   5.013   7.406
 4154TIP3    H134021   3.822   4.930   7.371
 4154TIP3    H234022   3.811   5.009   7.499
 4155TIP3   OH234023   3.557   2.107   0.932
 4155TIP3    H134024   3.517   2.178   0.981
 4155TIP3    H234025   3.508   2.029   0.959
 4156TIP3   OH234026   3.451   5.492   1.043
 4156TIP3    H134027   3.512   5.510   1.115
 4156TIP3    H234028   3.481   5.548   0.972
 4157TIP3   OH234029   5.013   2.856   7.588
 4157TIP3    H134030   5.023   2.804   7.668
 4157TIP3    H234031   5.100   2.894   7.574
 4158TIP3   OH234032   3.932   3.872   8.777
 4158TIP3    H134033   3.965   3.870   0.086
 4158TIP3    H234034   3.996   3.923   8.729
 4159TIP3   OH234035   5.281   0.997   6.800
 4159TIP3    H134036   5.246   0.915   6.837
 4159TIP3    H234037   5.205   1.054   6.791
 4160TIP3   OH234038   0.156   3.659   0.110
 4160TIP3    H134039   0.122   3.703   0.188
 4160TIP3    H234040   0.078   3.628   0.063
 4161TIP3   OH234041   0.241   0.876   6.532
 4161TIP3    H134042   0.151   0.873   6.501
 4161TIP3    H234043   0.238   0.923   6.615
 4162TIP3   OH234044   3.597   3.394   0.784
 4162TIP3    H134045   3.677   3.429   0.745
 4162TIP3    H234046   3.526   3.430   0.732
 4163TIP3   OH234047   5.122   0.930   7.116
 4163TIP3    H134048   5.140   0.870   7.044
 4163TIP3    H234049   5.084   0.874   7.184
 4164TIP3   OH234050   0.079   4.189   1.704
 4164TIP3    H134051   6.810   4.180   1.720
 4164TIP3    H234052   0.118   4.114   1.750
 4165TIP3   OH234053   6.264   4.713   8.394
 4165TIP3    H134054   6.338   4.769   8.416
 4165TIP3    H234055   6.302   4.640   8.345
 4166TIP3   OH234056   2.543   0.046   8.541
 4166TIP3    H134057   2.532   0.078   8.630
 4166TIP3    H234058   2.564   0.125   8.490
 4167TIP3   OH234059   2.031   6.611   0.482
 4167TIP3    H134060   1.990   6.527   0.503
 4167TIP3    H234061   1.962   6.676   0.496
 4168TIP3   OH234062   0.239   2.489   0.591
 4168TIP3    H134063   0.313   2.537   0.554
 4168TIP3    H234064   0.209   2.432   0.520
 4169TIP3   OH234065   5.482   3.566   0.584
 4169TIP3    H134066   5.469   3.487   0.637
 4169TIP3    H234067   5.576   3.581   0.586
 4170TIP3   OH234068   3.969   0.656   2.653
 4170TIP3    H134069   3.914   0.579   2.667
 4170TIP3    H234070   3.995   0.650   2.561
 4171TIP3   OH234071   6.743   3.103   7.024
 4171TIP3    H134072   6.726   3.164   6.952
 4171TIP3    H234073   6.820   3.054   6.997
 4172TIP3   OH234074   4.957   4.947   1.087
 4172TIP3    H134075   4.979   4.931   0.995
 4172TIP3    H234076   5.038   4.979   1.125
 4173TIP3   OH234077   4.850   6.143   7.602
 4173TIP3    H134078   4.789   6.070   7.601
 4173TIP3    H234079   4.910   6.124   7.674
 4174TIP3   OH234080   1.124   2.374   1.278
 4174TIP3    H134081   1.219   2.384   1.270
 4174TIP3    H234082   1.104   2.294   1.229
 4175TIP3   OH234083   4.591   3.637   1.330
 4175TIP3    H134084   4.538   3.557   1.333
 4175TIP3    H234085   4.595   3.667   1.421
 4176TIP3   OH234086   3.323   1.784   8.756
 4176TIP3    H134087   3.415   1.798   8.735
 4176TIP3    H234088   3.281   1.768   8.671
 4177TIP3   OH234089   0.925   0.046   8.305
 4177TIP3    H134090   0.853   0.102   8.275
 4177TIP3    H234091   0.911   6.787   8.261
 4178TIP3   OH234092   5.510   1.747   1.631
 4178TIP3    H134093   5.547   1.705   1.708
 4178TIP3    H234094   5.500   1.839   1.656
 4179TIP3   OH234095   6.196   5.748   1.265
 4179TIP3    H134096   6.227   5.797   1.341
 4179TIP3    H234097   6.269   5.692   1.241
 4180TIP3   OH234098   4.771   4.150   7.893
 4180TIP3    H134099   4.762   4.105   7.809
 4180TIP3    H234100   4.850   4.202   7.884
 4181TIP3   OH234101   5.705   5.214   6.878
 4181TIP3    H134102   5.714   5.196   6.785
 4181TIP3    H234103   5.787   5.183   6.917
 4182TIP3   OH234104   2.028   5.696   0.438
 4182TIP3    H134105   2.108   5.720   0.391
 4182TIP3    H234106   2.050   5.614   0.482
 4183TIP3   OH234107   3.556   0.823   0.831
 4183TIP3    H134108   3.495   0.825   0.757
 4183TIP3    H234109   3.526   0.749   0.884
 4184TIP3   OH234110   0.784   0.371   0.311
 4184TIP3    H134111   0.869   0.407   0.338
 4184TIP3    H234112   0.805   0.313   0.238
 4185TIP3   OH234113   2.781   2.199   8.036
 4185TIP3    H134114   2.855   2.257   8.022
 4185TIP3    H234115   2.795   2.162   8.123
 4186TIP3   OH234116   2.689   3.337   2.852
 4186TIP3    H134117   2.777   3.363   2.826
 4186TIP3    H234118   2.679   3.248   2.817
 4187TIP3   OH234119   2.774   5.146   1.230
 4187TIP3    H134120   2.799   5.218   1.288
 4187TIP3    H234121   2.708   5.183   1.172
 4188TIP3   OH234122   6.695   0.201   8.092
 4188TIP3    H134123   6.606   0.237   8.096
 4188TIP3    H234124   6.682   0.109   8.070
 4189TIP3   OH234125   5.505   3.192   0.196
 4189TIP3    H134126   5.444   3.232   0.257
 4189TIP3    H234127   5.543   3.265   0.148
 4190TIP3   OH234128   2.016   5.493   7.052
 4190TIP3    H134129   1.958   5.489   7.129
 4190TIP3    H234130   1.963   5.456   6.981
 4191TIP3   OH234131   6.563   3.458   7.022
 4191TIP3    H134132   6.521   3.464   6.936
 4191TIP3    H234133   6.656   3.476   7.005
 4192TIP3   OH234134   6.170   1.302   7.795
 4192TIP3    H134135   6.141   1.247   7.722
 4192TIP3    H234136   6.102   1.370   7.801
 4193TIP3   OH234137   1.119   5.630   7.908
 4193TIP3    H134138   1.058   5.597   7.842
 4193TIP3    H234139   1.067   5.637   7.988
 4194TIP3   OH234140   0.047   3.081   0.055
 4194TIP3    H134141   0.043   3.036   8.751
 4194TIP3    H234142   0.020   3.170   0.037
 4195TIP3   OH234143   2.731   0.719   8.367
 4195TIP3    H134144   2.735   0.763   8.283
 4195TIP3    H234145   2.699   0.631   8.347
 4196TIP3   OH234146   4.218   6.698   1.560
 4196TIP3    H134147   4.163   6.683   1.484
 4196TIP3    H234148   4.262   6.782   1.543
 4197TIP3   OH234149   4.959   1.824   7.073
 4197TIP3    H134150   4.942   1.730   7.074
 4197TIP3    H234151   4.873   1.864   7.064
 4198TIP3   OH234152   4.221   2.348   7.358
 4198TIP3    H134153   4.143   2.319   7.310
 4198TIP3    H234154   4.234   2.438   7.329
 4199TIP3   OH234155   4.166   1.189   7.527
 4199TIP3    H134156   4.087   1.139   7.545
 4199TIP3    H234157   4.224   1.170   7.601
 4200TIP3   OH234158   3.145   3.727   0.014
 4200TIP3    H134159   3.224   3.694   0.058
 4200TIP3    H234160   3.169   3.816   8.768
 4201TIP3   OH234161   5.056   2.790   8.140
 4201TIP3    H134162   5.021   2.730   8.207
 4201TIP3    H234163   5.075   2.870   8.188
 4202TIP3   OH234164   6.160   1.820   7.411
 4202TIP3    H134165   6.137   1.762   7.483
 4202TIP3    H234166   6.077   1.863   7.388
 4203TIP3   OH234167   0.140   2.768   7.489
 4203TIP3    H134168   0.191   2.765   7.407
 4203TIP3    H234169   0.182   2.836   7.541
 4204TIP3   OH234170   0.182   6.779   0.304
 4204TIP3    H134171   0.269   6.753   0.334
 4204TIP3    H234172   0.174   0.045   0.330
 4205TIP3   OH234173   0.115   3.458   2.047
 4205TIP3    H134174   0.097   3.402   2.123
 4205TIP3    H234175   0.040   3.517   2.042
 4206TIP3   OH234176   0.716   6.292   2.056
 4206TIP3    H134177   0.741   6.285   2.148
 4206TIP3    H234178   0.638   6.347   2.057
 4207TIP3   OH234179   4.354   0.603   7.605
 4207TIP3    H134180   4.343   0.682   7.658
 4207TIP3    H234181   4.383   0.536   7.667
 4208TIP3   OH234182   4.246   2.917   8.464
 4208TIP3    H134183   4.169   2.945   8.513
 4208TIP3    H234184   4.296   2.997   8.450
 4209TIP3   OH234185   6.618   3.212   1.679
 4209TIP3    H134186   6.649   3.283   1.735
 4209TIP3    H234187   6.542   3.247   1.634
 4210TIP3   OH234188   6.431   6.188   0.589
 4210TIP3    H134189   6.388   6.142   0.517
 4210TIP3    H234190   6.445   6.121   0.656
 4211TIP3   OH234191   5.777   6.194   8.354
 4211TIP3    H134192   5.812   6.106   8.371
 4211TIP3    H234193   5.741   6.190   8.266
 4212TIP3   OH234194   2.504   5.714   2.191
 4212TIP3    H134195   2.599   5.709   2.191
 4212TIP3    H234196   2.484   5.798   2.233
 4213TIP3   OH234197   2.785   6.700   8.353
 4213TIP3    H134198   2.743   6.786   8.360
 4213TIP3    H234199   2.722   6.639   8.390
 4214TIP3   OH234200   4.345   6.422   0.588
 4214TIP3    H134201   4.334   6.365   0.512
 4214TIP3    H234202   4.438   6.414   0.610
 4215TIP3   OH234203   4.888   3.872   8.450
 4215TIP3    H134204   4.975   3.888   8.486
 4215TIP3    H234205   4.905   3.826   8.367
 4216TIP3   OH234206   0.209   3.564   6.324
 4216TIP3    H134207   0.178   3.509   6.396
 4216TIP3    H234208   0.253   3.503   6.265
 4217TIP3   OH234209   4.486   0.420   1.004
 4217TIP3    H134210   4.442   0.464   0.931
 4217TIP3    H234211   4.525   0.342   0.965
 4218TIP3   OH234212   0.112   6.396   2.464
 4218TIP3    H134213   0.036   6.443   2.500
 4218TIP3    H234214   0.183   6.461   2.465
 4219TIP3   OH234215   4.461   1.723   0.452
 4219TIP3    H134216   4.379   1.672   0.453
 4219TIP3    H234217   4.530   1.657   0.442
 4220TIP3   OH234218   2.142   4.398   8.039
 4220TIP3    H134219   2.097   4.472   8.079
 4220TIP3    H234220   2.075   4.357   7.983
 4221TIP3   OH234221   0.177   2.087   6.527
 4221TIP3    H134222   0.182   2.140   6.607
 4221TIP3    H234223   0.259   2.105   6.481
 4222TIP3   OH234224   3.075   0.518   7.728
 4222TIP3    H134225   3.023   0.451   7.684
 4222TIP3    H234226   3.165   0.501   7.701
 4223TIP3   OH234227   0.769   0.703   0.636
 4223TIP3    H134228   0.830   0.732   0.704
 4223TIP3    H234229   0.824   0.657   0.573
 4224TIP3   OH234230   0.145   0.279   2.011
 4224TIP3    H134231   0.149   0.201   2.067
 4224TIP3    H234232   0.085   0.338   2.057
 4225TIP3   OH234233   4.169   3.652   8.309
 4225TIP3    H134234   4.234   3.714   8.342
 4225TIP3    H234235   4.085   3.695   8.326
 4226TIP3   OH234236   4.534   3.505   7.471
 4226TIP3    H134237   4.547   3.470   7.384
 4226TIP3    H234238   4.504   3.595   7.456
 4227TIP3   OH234239   3.194   1.272   1.503
 4227TIP3    H134240   3.158   1.259   1.415
 4227TIP3    H234241   3.117   1.283   1.559
 4228TIP3   OH234242   6.215   4.243   1.279
 4228TIP3    H134243   6.174   4.157   1.287
 4228TIP3    H234244   6.209   4.264   1.186
 4229TIP3   OH234245   3.968   0.679   0.612
 4229TIP3    H134246   4.063   0.686   0.620
 4229TIP3    H234247   3.936   0.678   0.702
 4230TIP3   OH234248   3.349   3.717   7.328
 4230TIP3    H134249   3.343   3.623   7.348
 4230TIP3    H234250   3.396   3.721   7.245
 4231TIP3   OH234251   3.769   0.222   0.151
 4231TIP3    H134252   3.833   0.167   0.108
 4231TIP3    H234253   3.813   0.306   0.163
 4232TIP3   OH234254   0.048   5.079   1.888
 4232TIP3    H134255   6.822   5.120   1.957
 4232TIP3    H234256   0.069   4.992   1.922
 4233TIP3   OH234257   2.843   1.157   8.040
 4233TIP3    H134258   2.859   1.250   8.020
 4233TIP3    H234259   2.751   1.143   8.017
 4234TIP3   OH234260   3.892   3.086   1.675
 4234TIP3    H134261   3.832   3.154   1.707
 4234TIP3    H234262   3.848   3.004   1.696
 4235TIP3   OH234263   0.981   0.850   6.428
 4235TIP3    H134264   0.986   0.787   6.356
 4235TIP3    H234265   0.898   0.831   6.471
 4236TIP3   OH234266   2.863   0.841   7.001
 4236TIP3    H134267   2.863   0.923   7.051
 4236TIP3    H234268   2.789   0.791   7.036
 4237TIP3   OH234269   3.110   3.566   1.401
 4237TIP3    H134270   3.126   3.654   1.436
 4237TIP3    H234271   3.128   3.575   1.307
 4238TIP3   OH234272   2.654   2.807   8.278
 4238TIP3    H134273   2.598   2.729   8.274
 4238TIP3    H234274   2.728   2.786   8.220
 4239TIP3   OH234275   1.024   0.377   0.066
 4239TIP3    H134276   1.075   0.356   8.768
 4239TIP3    H234277   1.081   0.437   0.116
 4240TIP3   OH234278   5.563   1.340   0.695
 4240TIP3    H134279   5.578   1.354   0.788
 4240TIP3    H234280   5.626   1.397   0.651
 4241TIP3   OH234281   1.253   4.763   1.493
 4241TIP3    H134282   1.295   4.747   1.408
 4241TIP3    H234283   1.323   4.800   1.547
 4242TIP3   OH234284   3.034   0.833   6.528
 4242TIP3    H134285   3.049   0.869   6.615
 4242TIP3    H234286   3.121   0.804   6.500
 4243TIP3   OH234287   2.996   4.530   0.647
 4243TIP3    H134288   3.024   4.596   0.711
 4243TIP3    H234289   2.946   4.579   0.582
 4244TIP3   OH234290   4.859   0.013   0.421
 4244TIP3    H134291   4.820   6.791   0.494
 4244TIP3    H234292   4.936   6.786   0.397
 4245TIP3   OH234293   0.973   3.240   0.498
 4245TIP3    H134294   1.056   3.195   0.516
 4245TIP3    H234295   0.997   3.333   0.495
 4246TIP3   OH234296   6.571   5.771   1.711
 4246TIP3    H134297   6.569   5.680   1.684
 4246TIP3    H234298   6.662   5.787   1.738
 4247TIP3   OH234299   3.766   5.396   0.800
 4247TIP3    H134300   3.676   5.420   0.824
 4247TIP3    H234301   3.758   5.310   0.761
 4248TIP3   OH234302   4.055   4.945   0.455
 4248TIP3    H134303   4.129   4.981   0.504
 4248TIP3    H234304   4.079   4.959   0.363
 4249TIP3   OH234305   0.978   2.845   1.505
 4249TIP3    H134306   0.989   2.925   1.454
 4249TIP3    H234307   0.978   2.874   1.596
 4250TIP3   OH234308   1.689   4.096   7.571
 4250TIP3    H134309   1.599   4.117   7.596
 4250TIP3    H234310   1.711   4.159   7.502
 4251TIP3   OH234311   6.373   0.282   1.314
 4251TIP3    H134312   6.454   0.298   1.265
 4251TIP3    H234313   6.321   0.225   1.257
 4252TIP3   OH234314   2.346   3.151   7.860
 4252TIP3    H134315   2.292   3.206   7.916
 4252TIP3    H234316   2.361   3.203   7.781
 4253TIP3   OH234317   1.322   2.848   7.550
 4253TIP3    H134318   1.389   2.901   7.507
 4253TIP3    H234319   1.371   2.791   7.609
 4254TIP3   OH234320   0.219   4.399   1.804
 4254TIP3    H134321   0.232   4.475   1.748
 4254TIP3    H234322   0.168   4.338   1.751
 4255TIP3   OH234323   2.583   1.809   8.338
 4255TIP3    H134324   2.529   1.761   8.401
 4255TIP3    H234325   2.526   1.821   8.262
 4256TIP3   OH234326   5.870   1.359   0.701
 4256TIP3    H134327   5.818   1.325   0.774
 4256TIP3    H234328   5.961   1.346   0.728
 4257TIP3   OH234329   6.148   0.318   7.706
 4257TIP3    H134330   6.053   0.329   7.717
 4257TIP3    H234331   6.166   0.229   7.738
 4258TIP3   OH234332   4.518   4.233   1.937
 4258TIP3    H134333   4.598   4.195   1.972
 4258TIP3    H234334   4.484   4.287   2.008
 4259TIP3   OH234335   6.377   2.504   0.857
 4259TIP3    H134336   6.355   2.432   0.798
 4259TIP3    H234337   6.303   2.510   0.917
 4260TIP3   OH234338   3.819   3.634   7.150
 4260TIP3    H134339   3.879   3.686   7.097
 4260TIP3    H234340   3.873   3.601   7.222
 4261TIP3   OH234341   0.003   0.124   8.678
 4261TIP3    H134342   0.033   0.070   8.605
 4261TIP3    H234343   6.746   0.162   8.648
 4262TIP3   OH234344   5.239   1.561   7.974
 4262TIP3    H134345   5.155   1.540   8.015
 4262TIP3    H234346   5.242   1.657   7.973
 4263TIP3   OH234347   2.341   0.720   7.183
 4263TIP3    H134348   2.290   0.730   7.103
 4263TIP3    H234349   2.390   0.639   7.171
 4264TIP3   OH234350   0.080   6.707   1.839
 4264TIP3    H134351   0.047   6.735   1.753
 4264TIP3    H234352   0.057   6.778   1.898
 4265TIP3   OH234353   0.243   3.952   1.472
 4265TIP3    H134354   0.245   3.891   1.546
 4265TIP3    H234355   0.302   4.023   1.499
 4266TIP3   OH234356   5.009   1.937   6.750
 4266TIP3    H134357   4.965   1.928   6.835
 4266TIP3    H234358   5.016   2.032   6.738
 4267TIP3   OH234359   2.400   2.272   8.759
 4267TIP3    H134360   2.393   2.312   0.065
 4267TIP3    H234361   2.378   2.343   8.698
 4268TIP3   OH234362   4.667   5.269   2.642
 4268TIP3    H134363   4.741   5.302   2.591
 4268TIP3    H234364   4.614   5.346   2.660
 4269TIP3   OH234365   0.909   4.207   7.787
 4269TIP3    H134366   0.894   4.256   7.706
 4269TIP3    H234367   0.935   4.274   7.851
 4270TIP3   OH234368   2.399   0.375   0.066
 4270TIP3    H134369   2.399   0.350   8.754
 4270TIP3    H234370   2.313   0.413   0.081
 4271TIP3   OH234371   2.283   4.300   8.233
 4271TIP3    H134372   2.244   4.313   8.147
 4271TIP3    H234373   2.225   4.348   8.293
 4272TIP3   OH234374   1.489   4.163   0.185
 4272TIP3    H134375   1.542   4.238   0.212
 4272TIP3    H234376   1.489   4.166   0.090
 4273TIP3   OH234377   6.772   3.078   0.947
 4273TIP3    H134378   6.747   2.986   0.955
 4273TIP3    H234379   0.038   3.076   0.920
 4274TIP3   OH234380   5.886   5.969   6.949
 4274TIP3    H134381   5.812   6.030   6.959
 4274TIP3    H234382   5.935   6.004   6.875
 4275TIP3   OH234383   0.694   1.447   0.802
 4275TIP3    H134384   0.740   1.530   0.786
 4275TIP3    H234385   0.729   1.417   0.886
 4276TIP3   OH234386   5.479   4.620   2.180
 4276TIP3    H134387   5.389   4.629   2.212
 4276TIP3    H234388   5.521   4.703   2.203
 4277TIP3   OH234389   1.282   5.323   6.999
 4277TIP3    H134390   1.276   5.357   6.910
 4277TIP3    H234391   1.321   5.395   7.049
 4278TIP3   OH234392   0.845   5.301   8.125
 4278TIP3    H134393   0.761   5.289   8.171
 4278TIP3    H234394   0.825   5.281   8.034
 4279TIP3   OH234395   5.172   2.223   0.721
 4279TIP3    H134396   5.239   2.200   0.785
 4279TIP3    H234397   5.131   2.140   0.698
 4280TIP3   OH234398   0.839   6.307   8.636
 4280TIP3    H134399   0.907   6.333   8.698
 4280TIP3    H234400   0.831   6.381   8.576
 4281TIP3   OH234401   4.480   4.323   1.384
 4281TIP3    H134402   4.545   4.368   1.438
 4281TIP3    H234403   4.396   4.350   1.421
 4282TIP3   OH234404   2.465   1.106   1.972
 4282TIP3    H134405   2.377   1.072   1.962
 4282TIP3    H234406   2.454   1.185   2.026
 4283TIP3   OH234407   2.996   3.430   7.683
 4283TIP3    H134408   2.955   3.417   7.598
 4283TIP3    H234409   3.056   3.503   7.671
 4284TIP3   OH234410   5.888   0.505   1.049
 4284TIP3    H134411   5.959   0.548   1.001
 4284TIP3    H234412   5.922   0.494   1.137
 4285TIP3   OH234413   3.152   4.022   0.001
 4285TIP3    H134414   3.221   4.029   0.067
 4285TIP3    H234415   3.111   4.109   8.780
 4286TIP3   OH234416   6.467   5.141   1.780
 4286TIP3    H134417   6.468   5.127   1.686
 4286TIP3    H234418   6.377   5.164   1.800
 4287TIP3   OH234419   5.591   6.780   2.353
 4287TIP3    H134420   5.503   6.809   2.380
 4287TIP3    H234421   5.618   0.018   2.287
 4288TIP3   OH234422   1.936   1.202   8.220
 4288TIP3    H134423   1.966   1.289   8.247
 4288TIP3    H234424   1.994   1.178   8.147
 4289TIP3   OH234425   4.270   2.863   0.123
 4289TIP3    H134426   4.343   2.917   0.154
 4289TIP3    H234427   4.199   2.926   0.107
 4290TIP3   OH234428   3.087   2.637   0.571
 4290TIP3    H134429   3.078   2.584   0.649
 4290TIP3    H234430   3.125   2.578   0.506
 4291TIP3   OH234431   0.170   2.763   1.368
 4291TIP3    H134432   0.232   2.832   1.343
 4291TIP3    H234433   0.186   2.693   1.304
 4292TIP3   OH234434   5.323   4.861   8.461
 4292TIP3    H134435   5.244   4.870   8.515
 4292TIP3    H234436   5.393   4.896   8.516
 4293TIP3   OH234437   0.687   5.223   2.024
 4293TIP3    H134438   0.711   5.202   1.934
 4293TIP3    H234439   0.624   5.294   2.016
 4294TIP3   OH234440   4.549   1.080   2.017
 4294TIP3    H134441   4.530   1.153   2.076
 4294TIP3    H234442   4.609   1.024   2.066
 4295TIP3   OH234443   5.775   2.579   0.358
 4295TIP3    H134444   5.757   2.506   0.298
 4295TIP3    H234445   5.816   2.538   0.434
 4296TIP3   OH234446   6.550   3.477   7.819
 4296TIP3    H134447   6.569   3.406   7.758
 4296TIP3    H234448   6.598   3.455   7.898
 4297TIP3   OH234449   5.153   5.803   7.729
 4297TIP3    H134450   5.206   5.754   7.667
 4297TIP3    H234451   5.089   5.739   7.761
 4298TIP3   OH234452   3.854   6.226   1.568
 4298TIP3    H134453   3.799   6.224   1.646
 4298TIP3    H234454   3.797   6.257   1.498
 4299TIP3   OH234455   1.071   5.087   0.876
 4299TIP3    H134456   1.159   5.100   0.911
 4299TIP3    H234457   1.079   5.107   0.783
 4300TIP3   OH234458   1.471   0.426   0.313
 4300TIP3    H134459   1.535   0.436   0.383
 4300TIP3    H234460   1.451   0.332   0.312
 4301TIP3   OH234461   5.081   4.957   0.571
 4301TIP3    H134462   5.119   4.993   0.491
 4301TIP3    H234463   5.155   4.949   0.631
 4302TIP3   OH234464   2.038   5.724   7.631
 4302TIP3    H134465   2.016   5.633   7.614
 4302TIP3    H234466   2.064   5.759   7.546
 4303TIP3   OH234467   1.462   3.495   7.925
 4303TIP3    H134468   1.394   3.454   7.872
 4303TIP3    H234469   1.428   3.583   7.943
 4304TIP3   OH234470   4.555   4.238   0.494
 4304TIP3    H134471   4.571   4.190   0.413
 4304TIP3    H234472   4.633   4.292   0.506
 4305TIP3   OH234473   3.037   5.958   1.174
 4305TIP3    H134474   2.959   5.903   1.170
 4305TIP3    H234475   3.033   5.998   1.261
 4306TIP3   OH234476   2.584   5.380   8.121
 4306TIP3    H134477   2.565   5.471   8.098
 4306TIP3    H234478   2.527   5.329   8.065
 4307TIP3   OH234479   5.101   1.546   1.690
 4307TIP3    H134480   5.095   1.468   1.746
 4307TIP3    H234481   5.166   1.524   1.624
 4308TIP3   OH234482   0.404   6.019   7.624
 4308TIP3    H134483   0.466   5.950   7.648
 4308TIP3    H234484   0.449   6.069   7.556
 4309TIP3   OH234485   6.549   0.600   1.486
 4309TIP3    H134486   6.617   0.533   1.494
 4309TIP3    H234487   6.467   0.552   1.492
 4310TIP3   OH234488   2.556   5.889   7.047
 4310TIP3    H134489   2.569   5.944   6.969
 4310TIP3    H234490   2.574   5.800   7.016
 4311TIP3   OH234491   2.742   2.660   6.869
 4311TIP3    H134492   2.779   2.715   6.800
 4311TIP3    H234493   2.698   2.722   6.927
 4312TIP3   OH234494   1.429   5.351   6.371
 4312TIP3    H134495   1.479   5.338   6.290
 4312TIP3    H234496   1.380   5.270   6.382
 4313TIP3   OH234497   4.210   4.844   1.538
 4313TIP3    H134498   4.130   4.800   1.509
 4313TIP3    H234499   4.267   4.842   1.461
 4314TIP3   OH234500   4.306   0.754   2.247
 4314TIP3    H134501   4.242   0.751   2.176
 4314TIP3    H234502   4.356   0.834   2.231
 4315TIP3   OH234503   2.756   3.120   0.875
 4315TIP3    H134504   2.672   3.077   0.891
 4315TIP3    H234505   2.744   3.210   0.905
 4316TIP3   OH234506   4.621   2.735   1.248
 4316TIP3    H134507   4.684   2.801   1.276
 4316TIP3    H234508   4.612   2.676   1.323
 4317TIP3   OH234509   3.745   3.672   7.702
 4317TIP3    H134510   3.653   3.648   7.689
 4317TIP3    H234511   3.789   3.640   7.623
 4318TIP3   OH234512   3.576   1.928   1.349
 4318TIP3    H134513   3.535   1.960   1.429
 4318TIP3    H234514   3.610   2.007   1.306
 4319TIP3   OH234515   6.717   0.964   7.768
 4319TIP3    H134516   6.659   0.902   7.812
 4319TIP3    H234517   6.682   0.970   7.679
 4320TIP3   OH234518   5.187   3.807   0.644
 4320TIP3    H134519   5.216   3.894   0.670
 4320TIP3    H234520   5.267   3.754   0.646
 4321TIP3   OH234521   4.125   4.056   8.711
 4321TIP3    H134522   4.184   4.017   8.776
 4321TIP3    H234523   4.148   4.149   8.710
 4322TIP3   OH234524   3.239   5.764   0.513
 4322TIP3    H134525   3.280   5.678   0.500
 4322TIP3    H234526   3.153   5.756   0.472
 4323TIP3   OH234527   3.235   4.710   7.726
 4323TIP3    H134528   3.198   4.714   7.815
 4323TIP3    H234529   3.162   4.735   7.669
 4324TIP3   OH234530   4.961   4.291   7.547
 4324TIP3    H134531   4.961   4.365   7.487
 4324TIP3    H234532   5.046   4.294   7.591
 4325TIP3   OH234533   5.898   3.588   7.232
 4325TIP3    H134534   5.969   3.527   7.215
 4325TIP3    H234535   5.931   3.673   7.201
 4326TIP3   OH234536   5.188   3.121   1.030
 4326TIP3    H134537   5.277   3.141   1.000
 4326TIP3    H234538   5.198   3.042   1.083
 4327TIP3   OH234539   5.863   4.740   8.622
 4327TIP3    H134540   5.798   4.788   8.570
 4327TIP3    H234541   5.811   4.676   8.672
 4328TIP3   OH234542   1.215   6.770   0.618
 4328TIP3    H134543   1.137   6.749   0.668
 4328TIP3    H234544   1.186   6.770   0.526
 4329TIP3   OH234545   0.275   4.221   7.107
 4329TIP3    H134546   0.357   4.269   7.098
 4329TIP3    H234547   0.215   4.284   7.148
 4330TIP3   OH234548   6.108   3.505   7.979
 4330TIP3    H134549   6.124   3.411   7.977
 4330TIP3    H234550   6.105   3.526   8.073
 4331TIP3   OH234551   5.586   5.912   0.627
 4331TIP3    H134552   5.660   5.972   0.630
 4331TIP3    H234553   5.561   5.909   0.535
 4332TIP3   OH234554   5.067   2.614   0.567
 4332TIP3    H134555   5.151   2.621   0.522
 4332TIP3    H234556   5.029   2.532   0.535
 4333TIP3   OH234557   1.626   5.512   1.266
 4333TIP3    H134558   1.660   5.429   1.300
 4333TIP3    H234559   1.690   5.539   1.201
 4334TIP3   OH234560   4.311   5.121   8.701
 4334TIP3    H134561   4.243   5.188   8.708
 4334TIP3    H234562   4.306   5.091   8.611
 4335TIP3   OH234563   1.132   2.821   8.189
 4335TIP3    H134564   1.168   2.906   8.213
 4335TIP3    H234565   1.094   2.834   8.102
 4336TIP3   OH234566   3.775   3.509   8.383
 4336TIP3    H134567   3.822   3.592   8.383
 4336TIP3    H234568   3.810   3.461   8.308
 4337TIP3   OH234569   0.147   3.149   8.455
 4337TIP3    H134570   0.180   3.065   8.423
 4337TIP3    H234571   0.175   3.212   8.389
 4338TIP3   OH234572   4.155   1.622   8.076
 4338TIP3    H134573   4.235   1.674   8.090
 4338TIP3    H234574   4.155   1.558   8.146
 4339TIP3   OH234575   6.586   2.428   8.713
 4339TIP3    H134576   6.527   2.503   8.702
 4339TIP3    H234577   6.577   2.379   8.631
 4340TIP3   OH234578   3.493   5.413   7.150
 4340TIP3    H134579   3.509   5.496   7.106
 4340TIP3    H234580   3.510   5.432   7.243
 4341TIP3   OH234581   0.019   5.529   6.628
 4341TIP3    H134582   0.068   5.611   6.629
 4341TIP3    H234583   6.753   5.555   6.639
 4342TIP3   OH234584   6.669   1.424   0.487
 4342TIP3    H134585   6.761   1.399   0.490
 4342TIP3    H234586   6.630   1.384   0.565
 4343TIP3   OH234587   3.997   5.705   2.410
 4343TIP3    H134588   4.074   5.721   2.464
 4343TIP3    H234589   3.943   5.782   2.421
 4344TIP3   OH234590   3.097   1.972   0.977
 4344TIP3    H134591   3.093   1.890   0.928
 4344TIP3    H234592   3.007   1.989   1.002
 4345TIP3   OH234593   4.135   4.279   0.702
 4345TIP3    H134594   4.071   4.263   0.772
 4345TIP3    H234595   4.218   4.291   0.748
 4346TIP3   OH234596   1.675   5.040   0.192
 4346TIP3    H134597   1.635   5.007   0.273
 4346TIP3    H234598   1.711   4.962   0.150
 4347TIP3   OH234599   4.077   3.044   0.062
 4347TIP3    H134600   4.023   2.971   0.093
 4347TIP3    H234601   4.020   3.120   0.070
 4348TIP3   OH234602   0.649   2.187   7.800
 4348TIP3    H134603   0.591   2.162   7.728
 4348TIP3    H234604   0.656   2.108   7.854
 4349TIP3   OH234605   6.174   3.700   0.866
 4349TIP3    H134606   6.204   3.609   0.870
 4349TIP3    H234607   6.210   3.733   0.783
 4350TIP3   OH234608   3.227   0.278   0.609
 4350TIP3    H134609   3.281   0.261   0.532
 4350TIP3    H234610   3.143   0.308   0.572
 4351TIP3   OH234611   1.002   3.478   0.687
 4351TIP3    H134612   0.944   3.554   0.689
 4351TIP3    H234613   1.063   3.492   0.759
 4352TIP3   OH234614   0.883   6.040   8.573
 4352TIP3    H134615   0.854   6.130   8.591
 4352TIP3    H234616   0.830   5.986   8.632
 4353TIP3   OH234617   3.521   2.541   6.142
 4353TIP3    H134618   3.562   2.576   6.221
 4353TIP3    H234619   3.546   2.449   6.141
 4354TIP3   OH234620   3.800   4.504   7.246
 4354TIP3    H134621   3.882   4.517   7.199
 4354TIP3    H234622   3.741   4.468   7.180
 4355TIP3   OH234623   5.368   3.545   1.655
 4355TIP3    H134624   5.306   3.476   1.679
 4355TIP3    H234625   5.376   3.599   1.733
 4356TIP3   OH234626   6.437   1.802   7.345
 4356TIP3    H134627   6.343   1.797   7.362
 4356TIP3    H234628   6.452   1.893   7.319
 4357TIP3   OH234629   4.788   1.986   1.087
 4357TIP3    H134630   4.706   1.970   1.134
 4357TIP3    H234631   4.779   2.074   1.051
 4358TIP3   OH234632   5.492   5.258   6.495
 4358TIP3    H134633   5.522   5.254   6.585
 4358TIP3    H234634   5.398   5.275   6.501
 4359TIP3   OH234635   5.467   3.922   0.533
 4359TIP3    H134636   5.442   3.971   0.455
 4359TIP3    H234637   5.495   3.837   0.499
 4360TIP3   OH234638   2.524   2.291   7.943
 4360TIP3    H134639   2.592   2.225   7.957
 4360TIP3    H234640   2.550   2.336   7.863
 4361TIP3   OH234641   6.076   2.525   7.464
 4361TIP3    H134642   6.015   2.506   7.393
 4361TIP3    H234643   6.088   2.620   7.460
 4362TIP3   OH234644   1.527   2.455   7.146
 4362TIP3    H134645   1.616   2.419   7.147
 4362TIP3    H234646   1.529   2.521   7.077
 4363TIP3   OH234647   3.407   3.871   7.615
 4363TIP3    H134648   3.499   3.892   7.596
 4363TIP3    H234649   3.384   3.807   7.547
 4364TIP3   OH234650   0.068   4.622   8.113
 4364TIP3    H134651   0.061   4.531   8.143
 4364TIP3    H234652   0.109   4.615   8.027
 4365TIP3   OH234653   5.359   5.335   1.157
 4365TIP3    H134654   5.292   5.274   1.126
 4365TIP3    H234655   5.416   5.282   1.213
 4366TIP3   OH234656   1.106   3.573   1.517
 4366TIP3    H134657   1.161   3.550   1.592
 4366TIP3    H234658   1.046   3.499   1.509
 4367TIP3   OH234659   0.130   5.792   6.608
 4367TIP3    H134660   0.085   5.853   6.550
 4367TIP3    H234661   0.223   5.816   6.601
 4368TIP3   OH234662   4.210   3.437   7.117
 4368TIP3    H134663   4.246   3.524   7.100
 4368TIP3    H234664   4.148   3.422   7.046
 4369TIP3   OH234665   4.632   3.357   7.882
 4369TIP3    H134666   4.615   3.264   7.873
 4369TIP3    H234667   4.572   3.387   7.951
 4370TIP3   OH234668   5.567   5.351   8.272
 4370TIP3    H134669   5.622   5.407   8.217
 4370TIP3    H234670   5.539   5.280   8.214
 4371TIP3   OH234671   4.412   2.239   1.026
 4371TIP3    H134672   4.436   2.238   0.933
 4371TIP3    H234673   4.460   2.314   1.061
 4372TIP3   OH234674   4.106   3.752   8.573
 4372TIP3    H134675   4.059   3.782   8.651
 4372TIP3    H234676   4.125   3.660   8.591
 4373TIP3   OH234677   4.853   3.353   2.710
 4373TIP3    H134678   4.833   3.396   2.793
 4373TIP3    H234679   4.904   3.417   2.661
 4374TIP3   OH234680   5.854   1.543   8.639
 4374TIP3    H134681   5.906   1.580   8.711
 4374TIP3    H234682   5.779   1.502   8.683
 4375TIP3   OH234683   0.451   1.382   0.946
 4375TIP3    H134684   0.372   1.405   0.898
 4375TIP3    H234685   0.523   1.401   0.886
 4376TIP3   OH234686   6.686   6.107   8.125
 4376TIP3    H134687   6.727   6.153   8.052
 4376TIP3    H234688   6.665   6.020   8.090
 4377TIP3   OH234689   4.726   4.682   6.502
 4377TIP3    H134690   4.665   4.618   6.465
 4377TIP3    H234691   4.681   4.766   6.492
 4378TIP3   OH234692   1.534   1.770   7.617
 4378TIP3    H134693   1.493   1.845   7.660
 4378TIP3    H234694   1.500   1.693   7.663
 4379TIP3   OH234695   6.657   1.462   7.257
 4379TIP3    H134696   6.688   1.499   7.175
 4379TIP3    H234697   6.661   1.535   7.319
 4380TIP3   OH234698   3.691   2.602   7.592
 4380TIP3    H134699   3.684   2.508   7.612
 4380TIP3    H234700   3.604   2.626   7.560
 4381TIP3   OH234701   6.744   2.296   7.670
 4381TIP3    H134702   6.795   2.377   7.676
 4381TIP3    H234703   6.656   2.324   7.646
 4382TIP3   OH234704   0.924   4.370   7.562
 4382TIP3    H134705   0.838   4.404   7.536
 4382TIP3    H234706   0.983   4.445   7.552
 4383TIP3   OH234707   5.054   0.762   7.330
 4383TIP3    H134708   4.974   0.721   7.298
 4383TIP3    H234709   5.107   0.688   7.361
 4384TIP3   OH234710   0.767   0.545   6.591
 4384TIP3    H134711   0.793   0.543   6.499
 4384TIP3    H234712   0.755   0.453   6.615
 4385TIP3   OH234713   5.875   0.289   7.617
 4385TIP3    H134714   5.816   0.251   7.683
 4385TIP3    H234715   5.820   0.303   7.541
 4386TIP3   OH234716   2.081   3.219   0.723
 4386TIP3    H134717   2.136   3.193   0.798
 4386TIP3    H234718   2.134   3.284   0.677
 4387TIP3   OH234719   1.092   2.420   7.620
 4387TIP3    H134720   1.088   2.510   7.588
 4387TIP3    H234721   1.024   2.375   7.570
 4388TIP3   OH234722   0.609   2.515   8.195
 4388TIP3    H134723   0.652   2.528   8.111
 4388TIP3    H234724   0.522   2.480   8.173
 4389TIP3   OH234725   5.410   3.078   1.447
 4389TIP3    H134726   5.457   3.099   1.367
 4389TIP3    H234727   5.327   3.040   1.417
 4390TIP3   OH234728   6.688   5.259   8.192
 4390TIP3    H134729   6.608   5.221   8.155
 4390TIP3    H234730   6.658   5.327   8.253
 4391TIP3   OH234731   3.101   3.939   6.601
 4391TIP3    H134732   3.013   3.973   6.613
 4391TIP3    H234733   3.121   3.895   6.684
 4392TIP3   OH234734   1.665   4.359   0.273
 4392TIP3    H134735   1.684   4.438   0.222
 4392TIP3    H234736   1.691   4.382   0.362
 4393TIP3   OH234737   5.374   1.689   2.406
 4393TIP3    H134738   5.459   1.733   2.411
 4393TIP3    H234739   5.311   1.759   2.394
 4394TIP3   OH234740   3.871   4.393   0.155
 4394TIP3    H134741   3.960   4.359   0.164
 4394TIP3    H234742   3.837   4.352   0.075
 4395TIP3   OH234743   2.243   1.239   1.415
 4395TIP3    H134744   2.206   1.319   1.451
 4395TIP3    H234745   2.234   1.174   1.484
 4396TIP3   OH234746   6.213   6.385   8.598
 4396TIP3    H134747   6.295   6.353   8.560
 4396TIP3    H234748   6.233   6.473   8.628
 4397TIP3   OH234749   2.542   1.271   7.603
 4397TIP3    H134750   2.495   1.283   7.520
 4397TIP3    H234751   2.569   1.359   7.628
 4398TIP3   OH234752   1.505   0.431   8.772
 4398TIP3    H134753   1.597   0.437   0.019
 4398TIP3    H234754   1.477   0.344   0.019
 4399TIP3   OH234755   4.876   4.649   8.081
 4399TIP3    H134756   4.824   4.575   8.112
 4399TIP3    H234757   4.891   4.702   8.159
 4400TIP3   OH234758   2.926   3.798   1.220
 4400TIP3    H134759   2.884   3.751   1.292
 4400TIP3    H234760   2.883   3.884   1.219
 4401TIP3   OH234761   3.221   3.755   6.775
 4401TIP3    H134762   3.301   3.712   6.807
 4401TIP3    H234763   3.160   3.684   6.758
 4402TIP3   OH234764   1.723   2.200   0.751
 4402TIP3    H134765   1.776   2.241   0.819
 4402TIP3    H234766   1.642   2.250   0.751
 4403TIP3   OH234767   6.208   4.662   6.536
 4403TIP3    H134768   6.114   4.655   6.516
 4403TIP3    H234769   6.222   4.756   6.550
 4404TIP3   OH234770   3.107   6.401   2.352
 4404TIP3    H134771   3.110   6.427   2.444
 4404TIP3    H234772   3.015   6.410   2.327
 4405TIP3   OH234773   4.075   6.207   7.456
 4405TIP3    H134774   4.161   6.246   7.469
 4405TIP3    H234775   4.051   6.231   7.367
 4406TIP3   OH234776   0.658   5.216   2.296
 4406TIP3    H134777   0.622   5.303   2.308
 4406TIP3    H234778   0.653   5.201   2.202
 4407TIP3   OH234779   4.008   4.298   2.347
 4407TIP3    H134780   3.984   4.389   2.333
 4407TIP3    H234781   3.924   4.251   2.351
 4408TIP3   OH234782   4.304   5.649   8.497
 4408TIP3    H134783   4.239   5.676   8.561
 4408TIP3    H234784   4.255   5.643   8.414
 4409TIP3   OH234785   3.550   4.732   7.999
 4409TIP3    H134786   3.606   4.687   8.062
 4409TIP3    H234787   3.483   4.775   8.053
 4410TIP3   OH234788   2.005   0.627   1.905
 4410TIP3    H134789   2.057   0.706   1.919
 4410TIP3    H234790   2.005   0.614   1.811
 4411TIP3   OH234791   6.655   6.795   7.351
 4411TIP3    H134792   6.668   6.732   7.422
 4411TIP3    H234793   6.560   6.796   7.337
 4412TIP3   OH234794   2.177   3.105   0.979
 4412TIP3    H134795   2.184   3.009   0.983
 4412TIP3    H234796   2.142   3.129   1.065
 4413TIP3   OH234797   4.736   0.991   0.638
 4413TIP3    H134798   4.780   0.914   0.673
 4413TIP3    H234799   4.642   0.972   0.647
 4414TIP3   OH234800   3.881   6.801   7.439
 4414TIP3    H134801   3.910   6.710   7.435
 4414TIP3    H234802   3.895   0.010   7.351
 4415TIP3   OH234803   3.177   3.735   7.921
 4415TIP3    H134804   3.129   3.808   7.959
 4415TIP3    H234805   3.261   3.735   7.968
 4416TIP3   OH234806   2.302   3.192   7.600
 4416TIP3    H134807   2.280   3.279   7.566
 4416TIP3    H234808   2.325   3.141   7.522
 4417TIP3   OH234809   2.975   1.729   1.860
 4417TIP3    H134810   2.907   1.667   1.833
 4417TIP3    H234811   3.055   1.693   1.823
 4418TIP3   OH234812   2.214   6.440   0.691
 4418TIP3    H134813   2.166   6.523   0.685
 4418TIP3    H234814   2.251   6.440   0.779
 4419TIP3   OH234815   5.503   5.039   6.668
 4419TIP3    H134816   5.416   5.043   6.707
 4419TIP3    H234817   5.496   5.090   6.588
 4420TIP3   OH234818   2.424   5.713   6.770
 4420TIP3    H134819   2.484   5.670   6.832
 4420TIP3    H234820   2.430   5.660   6.691
 4421TIP3   OH234821   4.664   1.130   1.775
 4421TIP3    H134822   4.704   1.043   1.770
 4421TIP3    H234823   4.636   1.138   1.866
 4422TIP3   OH234824   2.764   6.455   2.539
 4422TIP3    H134825   2.855   6.473   2.561
 4422TIP3    H234826   2.768   6.390   2.469
 4423TIP3   OH234827   5.979   1.144   1.680
 4423TIP3    H134828   6.074   1.136   1.684
 4423TIP3    H234829   5.953   1.179   1.765
 4424TIP3   OH234830   3.579   1.152   6.861
 4424TIP3    H134831   3.609   1.234   6.899
 4424TIP3    H234832   3.602   1.159   6.768
 4425TIP3   OH234833   4.384   4.838   0.378
 4425TIP3    H134834   4.437   4.827   0.457
 4425TIP3    H234835   4.343   4.924   0.389
 4426TIP3   OH234836   0.989   0.490   7.287
 4426TIP3    H134837   0.987   0.465   7.380
 4426TIP3    H234838   0.908   0.454   7.251
 4427TIP3   OH234839   3.856   0.312   7.437
 4427TIP3    H134840   3.810   0.239   7.396
 4427TIP3    H234841   3.944   0.278   7.453
 4428TIP3   OH234842   1.919   3.901   1.025
 4428TIP3    H134843   1.833   3.858   1.019
 4428TIP3    H234844   1.964   3.877   0.944
 4429TIP3   OH234845   6.193   4.616   7.317
 4429TIP3    H134846   6.206   4.534   7.365
 4429TIP3    H234847   6.209   4.593   7.225
 4430TIP3   OH234848   5.531   6.405   1.318
 4430TIP3    H134849   5.566   6.409   1.407
 4430TIP3    H234850   5.597   6.356   1.268
 4431TIP3   OH234851   2.449   1.789   7.711
 4431TIP3    H134852   2.361   1.827   7.710
 4431TIP3    H234853   2.436   1.701   7.748
 4432TIP3   OH234854   3.319   1.305   1.775
 4432TIP3    H134855   3.259   1.237   1.808
 4432TIP3    H234856   3.314   1.298   1.680
 4433TIP3   OH234857   5.524   5.147   8.066
 4433TIP3    H134858   5.598   5.150   8.006
 4433TIP3    H234859   5.450   5.117   8.013
 4434TIP3   OH234860   1.365   0.522   1.765
 4434TIP3    H134861   1.394   0.536   1.855
 4434TIP3    H234862   1.437   0.555   1.711
 4435TIP3   OH234863   3.897   1.403   6.899
 4435TIP3    H134864   3.906   1.313   6.869
 4435TIP3    H234865   3.814   1.405   6.946
 4436TIP3   OH234866   3.853   2.844   8.417
 4436TIP3    H134867   3.907   2.831   8.339
 4436TIP3    H234868   3.888   2.924   8.457
 4437TIP3   OH234869   5.711   4.023   7.781
 4437TIP3    H134870   5.798   4.016   7.741
 4437TIP3    H234871   5.678   4.108   7.752
 4438TIP3   OH234872   6.682   4.437   1.729
 4438TIP3    H134873   6.686   4.392   1.645
 4438TIP3    H234874   6.765   4.485   1.734
 4439TIP3   OH234875   3.691   4.609   6.947
 4439TIP3    H134876   3.622   4.544   6.958
 4439TIP3    H234877   3.670   4.678   7.010
 4440TIP3   OH234878   6.017   0.464   8.657
 4440TIP3    H134879   5.984   0.553   8.670
 4440TIP3    H234880   6.093   0.475   8.600
 4441TIP3   OH234881   1.171   2.398   8.625
 4441TIP3    H134882   1.225   2.430   8.554
 4441TIP3    H234883   1.081   2.422   8.600
 4442TIP3   OH234884   6.002   5.318   2.264
 4442TIP3    H134885   5.974   5.319   2.172
 4442TIP3    H234886   6.058   5.240   2.271
 4443TIP3   OH234887   3.210   4.287   0.004
 4443TIP3    H134888   3.256   4.307   8.703
 4443TIP3    H234889   3.273   4.309   0.073
 4444TIP3   OH234890   0.587   1.898   8.280
 4444TIP3    H134891   0.600   1.969   8.343
 4444TIP3    H234892   0.675   1.878   8.247
 4445TIP3   OH234893   1.590   3.919   0.863
 4445TIP3    H134894   1.539   3.893   0.787
 4445TIP3    H234895   1.660   3.855   0.869
 4446TIP3   OH234896   4.914   4.832   0.827
 4446TIP3    H134897   4.990   4.799   0.779
 4446TIP3    H234898   4.849   4.762   0.820
 4447TIP3   OH234899   3.542   3.129   0.843
 4447TIP3    H134900   3.552   3.088   0.757
 4447TIP3    H234901   3.560   3.222   0.828
 4448TIP3   OH234902   1.081   4.625   7.505
 4448TIP3    H134903   1.112   4.715   7.498
 4448TIP3    H234904   1.104   4.585   7.421
 4449TIP3   OH234905   6.568   1.289   0.706
 4449TIP3    H134906   6.525   1.211   0.741
 4449TIP3    H234907   6.551   1.357   0.771
 4450TIP3   OH234908   2.399   5.072   0.754
 4450TIP3    H134909   2.357   4.986   0.758
 4450TIP3    H234910   2.437   5.076   0.667
 4451TIP3   OH234911   1.448   0.915   7.928
 4451TIP3    H134912   1.451   1.010   7.944
 4451TIP3    H234913   1.539   0.890   7.916
 4452TIP3   OH234914   1.579   0.590   7.412
 4452TIP3    H134915   1.516   0.606   7.342
 4452TIP3    H234916   1.545   0.640   7.487
 4453TIP3   OH234917   2.417   0.047   7.738
 4453TIP3    H134918   2.360   0.038   7.661
 4453TIP3    H234919   2.453   0.135   7.730
 4454TIP3   OH234920   3.803   4.877   6.819
 4454TIP3    H134921   3.726   4.822   6.830
 4454TIP3    H234922   3.829   4.900   6.908
 4455TIP3   OH234923   5.315   4.853   7.987
 4455TIP3    H134924   5.293   4.763   7.963
 4455TIP3    H234925   5.396   4.845   8.037
 4456TIP3   OH234926   0.055   4.838   7.338
 4456TIP3    H134927   6.792   4.873   7.353
 4456TIP3    H234928   0.044   4.776   7.266
 4457TIP3   OH234929   5.870   0.912   7.846
 4457TIP3    H134930   5.896   0.820   7.841
 4457TIP3    H234931   5.775   0.911   7.833
 4458TIP3   OH234932   0.194   4.632   0.445
 4458TIP3    H134933   0.158   4.586   0.370
 4458TIP3    H234934   0.288   4.641   0.426
 4459TIP3   OH234935   3.051   0.522   0.975
 4459TIP3    H134936   2.973   0.524   0.920
 4459TIP3    H234937   3.102   0.447   0.943
 4460TIP3   OH234938   0.717   1.158   7.022
 4460TIP3    H134939   0.753   1.219   6.958
 4460TIP3    H234940   0.660   1.100   6.971
 4461TIP3   OH234941   0.211   1.008   1.132
 4461TIP3    H134942   0.292   1.034   1.089
 4461TIP3    H234943   0.208   1.060   1.212
 4462TIP3   OH234944   2.316   5.818   8.014
 4462TIP3    H134945   2.345   5.784   7.929
 4462TIP3    H234946   2.390   5.867   8.047
 4463TIP3   OH234947   3.185   2.689   8.243
 4463TIP3    H134948   3.258   2.716   8.298
 4463TIP3    H234949   3.123   2.761   8.248
 4464TIP3   OH234950   1.721   1.434   7.702
 4464TIP3    H134951   1.736   1.398   7.789
 4464TIP3    H234952   1.632   1.468   7.706
 4465TIP3   OH234953   6.170   4.234   7.165
 4465TIP3    H134954   6.256   4.202   7.135
 4465TIP3    H234955   6.128   4.266   7.086
 4466TIP3   OH234956   2.343   5.298   0.163
 4466TIP3    H134957   2.338   5.301   0.067
 4466TIP3    H234958   2.253   5.282   0.191
 4467TIP3   OH234959   0.577   2.333   2.184
 4467TIP3    H134960   0.544   2.325   2.095
 4467TIP3    H234961   0.592   2.427   2.195
 4468TIP3   OH234962   4.034   4.986   0.176
 4468TIP3    H134963   4.028   4.950   0.088
 4468TIP3    H234964   3.976   5.063   0.175
 4469TIP3   OH234965   4.264   1.663   6.699
 4469TIP3    H134966   4.238   1.573   6.680
 4469TIP3    H234967   4.345   1.676   6.649
 4470TIP3   OH234968   4.329   3.203   7.397
 4470TIP3    H134969   4.333   3.159   7.311
 4470TIP3    H234970   4.361   3.137   7.458
 4471TIP3   OH234971   6.803   6.266   1.818
 4471TIP3    H134972   0.033   6.327   1.867
 4471TIP3    H234973   6.822   6.285   1.726
 4472TIP3   OH234974   0.018   0.469   8.177
 4472TIP3    H134975   0.045   0.381   8.203
 4472TIP3    H234976   0.060   0.527   8.241
 4473TIP3   OH234977   0.215   4.789   0.118
 4473TIP3    H134978   0.214   4.868   0.173
 4473TIP3    H234979   0.301   4.788   0.078
 4474TIP3   OH234980   6.118   2.019   8.666
 4474TIP3    H134981   6.144   2.012   8.758
 4474TIP3    H234982   6.196   2.051   8.622
 4475TIP3   OH234983   0.703   3.249   8.231
 4475TIP3    H134984   0.629   3.206   8.274
 4475TIP3    H234985   0.741   3.305   8.299
 4476TIP3   OH234986   0.435   5.342   7.493
 4476TIP3    H134987   0.379   5.271   7.524
 4476TIP3    H234988   0.375   5.405   7.454
 4477TIP3   OH234989   4.586   4.297   7.976
 4477TIP3    H134990   4.605   4.317   8.067
 4477TIP3    H234991   4.651   4.232   7.951
 4478TIP3   OH234992   0.379   6.561   8.434
 4478TIP3    H134993   0.323   6.537   8.507
 4478TIP3    H234994   0.406   6.478   8.396
 4479TIP3   OH234995   0.692   5.441   1.023
 4479TIP3    H134996   0.675   5.369   1.084
 4479TIP3    H234997   0.763   5.409   0.968
 4480TIP3   OH234998   0.099   4.400   1.146
 4480TIP3    H134999   0.023   4.344   1.157
 4480TIP3    H235000   0.158   4.349   1.090
 4481TIP3   OH235001   5.776   3.149   0.714
 4481TIP3    H135002   5.684   3.134   0.694
 4481TIP3    H235003   5.775   3.211   0.786
 4482TIP3   OH235004   0.217   5.742   0.821
 4482TIP3    H135005   0.137   5.727   0.872
 4482TIP3    H235006   0.277   5.673   0.851
 4483TIP3   OH235007   6.047   2.989   0.764
 4483TIP3    H135008   6.028   2.895   0.777
 4483TIP3    H235009   5.962   3.027   0.741
 4484TIP3   OH235010   1.745   0.846   0.684
 4484TIP3    H135011   1.737   0.801   0.600
 4484TIP3    H235012   1.698   0.928   0.672
 4485TIP3   OH235013   6.449   0.502   7.089
 4485TIP3    H135014   6.402   0.519   7.007
 4485TIP3    H235015   6.393   0.540   7.156
 4486TIP3   OH235016   0.039   5.589   1.407
 4486TIP3    H135017   0.037   5.541   1.325
 4486TIP3    H235018   0.113   5.551   1.455
 4487TIP3   OH235019   4.737   6.774   8.211
 4487TIP3    H135020   4.683   6.717   8.266
 4487TIP3    H235021   4.711   6.752   8.122
 4488TIP3   OH235022   2.483   2.570   6.807
 4488TIP3    H135023   2.566   2.599   6.846
 4488TIP3    H235024   2.441   2.651   6.776
 4489TIP3   OH235025   4.174   5.094   8.110
 4489TIP3    H135026   4.157   5.165   8.047
 4489TIP3    H235027   4.154   5.014   8.061
 4490TIP3   OH235028   1.924   0.029   0.970
 4490TIP3    H135029   1.884   0.015   0.884
 4490TIP3    H235030   1.931   0.124   0.979
 4491TIP3   OH235031   1.049   4.119   1.152
 4491TIP3    H135032   1.081   4.036   1.118
 4491TIP3    H235033   1.063   4.181   1.081
 4492TIP3   OH235034   1.983   4.434   8.416
 4492TIP3    H135035   1.933   4.478   8.485
 4492TIP3    H235036   1.990   4.343   8.446
 4493TIP3   OH235037   1.601   4.470   7.234
 4493TIP3    H135038   1.510   4.442   7.242
 4493TIP3    H235039   1.596   4.566   7.229
 4494TIP3   OH235040   5.461   6.018   2.363
 4494TIP3    H135041   5.507   5.935   2.356
 4494TIP3    H235042   5.515   6.080   2.313
 4495TIP3   OH235043   5.559   1.038   8.031
 4495TIP3    H135044   5.563   1.057   8.124
 4495TIP3    H235045   5.554   0.942   8.026
 4496TIP3   OH235046   3.190   6.099   8.335
 4496TIP3    H135047   3.224   6.015   8.366
 4496TIP3    H235048   3.127   6.075   8.266
 4497TIP3   OH235049   5.791   6.229   7.068
 4497TIP3    H135050   5.752   6.266   6.988
 4497TIP3    H235051   5.850   6.296   7.100
 4498TIP3   OH235052   6.028   2.047   1.818
 4498TIP3    H135053   6.043   2.013   1.730
 4498TIP3    H235054   6.061   2.137   1.815
 4499TIP3   OH235055   6.749   2.100   1.888
 4499TIP3    H135056   6.768   2.006   1.892
 4499TIP3    H235057   6.785   2.135   1.969
 4500TIP3   OH235058   0.825   3.893   0.943
 4500TIP3    H135059   0.776   3.812   0.956
 4500TIP3    H235060   0.845   3.924   1.031
 4501TIP3   OH235061   1.258   6.808   7.596
 4501TIP3    H135062   1.191   6.766   7.650
 4501TIP3    H235063   1.210   0.014   7.519
 4502TIP3   OH235064   0.142   0.920   8.152
 4502TIP3    H135065   0.192   0.978   8.209
 4502TIP3    H235066   0.208   0.870   8.105
 4503TIP3   OH235067   1.602   3.381   8.150
 4503TIP3    H135068   1.555   3.392   8.067
 4503TIP3    H235069   1.690   3.354   8.124
 4504TIP3   OH235070   3.735   6.446   8.422
 4504TIP3    H135071   3.756   6.367   8.372
 4504TIP3    H235072   3.673   6.494   8.366
 4505TIP3   OH235073   3.607   5.405   8.303
 4505TIP3    H135074   3.667   5.476   8.324
 4505TIP3    H235075   3.662   5.326   8.303
 4506TIP3   OH235076   0.550   3.075   7.795
 4506TIP3    H135077   0.518   3.063   7.884
 4506TIP3    H235078   0.520   3.162   7.770
 4507TIP3   OH235079   6.041   0.035   8.035
 4507TIP3    H135080   6.000   0.110   7.991
 4507TIP3    H235081   6.125   0.069   8.067
 4508TIP3   OH235082   2.093   0.162   7.331
 4508TIP3    H135083   2.155   0.211   7.277
 4508TIP3    H235084   2.010   0.207   7.319
 4509TIP3   OH235085   3.237   1.738   8.499
 4509TIP3    H135086   3.177   1.667   8.478
 4509TIP3    H235087   3.215   1.807   8.436
 4510TIP3   OH235088   3.415   5.830   8.016
 4510TIP3    H135089   3.473   5.810   8.089
 4510TIP3    H235090   3.337   5.868   8.056
 4511TIP3   OH235091   6.181   5.150   7.127
 4511TIP3    H135092   6.273   5.138   7.103
 4511TIP3    H235093   6.184   5.173   7.220
 4512TIP3   OH235094   1.635   0.003   5.962
 4512TIP3    H135095   1.587   0.016   6.044
 4512TIP3    H235096   1.585   6.761   5.915
 4513TIP3   OH235097   2.481   2.275   1.078
 4513TIP3    H135098   2.523   2.207   1.131
 4513TIP3    H235099   2.463   2.232   0.994
 4514TIP3   OH235100   5.053   2.651   1.335
 4514TIP3    H135101   4.992   2.671   1.264
 4514TIP3    H235102   4.997   2.643   1.412
 4515TIP3   OH235103   6.449   4.691   7.504
 4515TIP3    H135104   6.455   4.603   7.466
 4515TIP3    H235105   6.358   4.717   7.488
 4516TIP3   OH235106   1.645   4.266   1.251
 4516TIP3    H135107   1.707   4.249   1.181
 4516TIP3    H235108   1.690   4.331   1.307
 4517TIP3   OH235109   1.118   1.617   1.383
 4517TIP3    H135110   1.106   1.712   1.393
 4517TIP3    H235111   1.081   1.580   1.463
 4518TIP3   OH235112   5.241   4.419   8.109
 4518TIP3    H135113   5.291   4.339   8.097
 4518TIP3    H235114   5.292   4.470   8.172
 4519TIP3   OH235115   2.461   0.924   0.781
 4519TIP3    H135116   2.538   0.918   0.725
 4519TIP3    H235117   2.430   1.014   0.771
 4520TIP3   OH235118   3.984   4.357   8.403
 4520TIP3    H135119   4.047   4.336   8.334
 4520TIP3    H235120   4.036   4.404   8.468
 4521TIP3   OH235121   2.118   4.934   2.320
 4521TIP3    H135122   2.167   5.002   2.273
 4521TIP3    H235123   2.073   4.885   2.251
 4522TIP3   OH235124   3.616   1.968   8.306
 4522TIP3    H135125   3.673   1.913   8.253
 4522TIP3    H235126   3.553   1.908   8.345
 4523TIP3   OH235127   0.713   6.109   6.372
 4523TIP3    H135128   0.732   6.016   6.385
 4523TIP3    H235129   0.779   6.139   6.310
 4524TIP3   OH235130   6.204   1.984   0.857
 4524TIP3    H135131   6.196   2.054   0.792
 4524TIP3    H235132   6.259   1.918   0.815
 4525TIP3   OH235133   4.098   4.592   2.201
 4525TIP3    H135134   4.119   4.680   2.231
 4525TIP3    H235135   4.005   4.581   2.222
 4526TIP3   OH235136   0.864   6.471   1.300
 4526TIP3    H135137   0.828   6.382   1.305
 4526TIP3    H235138   0.958   6.460   1.307
 4527TIP3   OH235139   1.908   1.838   0.463
 4527TIP3    H135140   1.897   1.882   0.378
 4527TIP3    H235141   1.872   1.901   0.526
 4528TIP3   OH235142   1.938   1.341   7.889
 4528TIP3    H135143   2.019   1.334   7.940
 4528TIP3    H235144   1.942   1.269   7.827
 4529TIP3   OH235145   0.907   0.138   1.273
 4529TIP3    H135146   0.948   0.208   1.323
 4529TIP3    H235147   0.979   0.097   1.225
 4530TIP3   OH235148   6.020   4.305   0.244
 4530TIP3    H135149   6.039   4.212   0.254
 4530TIP3    H235150   6.097   4.342   0.202
 4531TIP3   OH235151   1.710   4.697   0.745
 4531TIP3    H135152   1.702   4.688   0.840
 4531TIP3    H235153   1.788   4.646   0.722
 4532TIP3   OH235154   6.627   5.111   8.726
 4532TIP3    H135155   6.663   5.180   0.001
 4532TIP3    H235156   6.683   5.035   8.742
 4533TIP3   OH235157   1.995   0.672   8.674
 4533TIP3    H135158   1.911   0.711   8.653
 4533TIP3    H235159   2.034   0.650   8.589
 4534TIP3   OH235160   0.600   5.957   8.545
 4534TIP3    H135161   0.543   5.883   8.522
 4534TIP3    H235162   0.631   5.936   8.634
 4535TIP3   OH235163   2.788   3.188   8.066
 4535TIP3    H135164   2.778   3.253   7.997
 4535TIP3    H235165   2.845   3.121   8.028
 4536TIP3   OH235166   3.691   2.233   8.574
 4536TIP3    H135167   3.682   2.159   8.634
 4536TIP3    H235168   3.612   2.285   8.589
 4537TIP3   OH235169   2.404   3.906   0.329
 4537TIP3    H135170   2.441   3.987   0.364
 4537TIP3    H235171   2.367   3.862   0.406
 4538TIP3   OH235172   0.186   0.529   1.152
 4538TIP3    H135173   0.252   0.597   1.161
 4538TIP3    H235174   0.236   0.449   1.135
 4539TIP3   OH235175   3.530   3.253   0.092
 4539TIP3    H135176   3.522   3.239   0.186
 4539TIP3    H235177   3.607   3.201   0.067
 4540TIP3   OH235178   3.664   2.734   7.843
 4540TIP3    H135179   3.666   2.683   7.762
 4540TIP3    H235180   3.752   2.725   7.879
 4541TIP3   OH235181   3.508   0.895   8.536
 4541TIP3    H135182   3.418   0.865   8.553
 4541TIP3    H235183   3.504   0.930   8.447
 4542TIP3   OH235184   1.208   1.274   0.486
 4542TIP3    H135185   1.214   1.369   0.491
 4542TIP3    H235186   1.292   1.246   0.451
 4543TIP3   OH235187   1.585   4.581   8.716
 4543TIP3    H135188   1.508   4.633   8.694
 4543TIP3    H235189   1.614   4.616   0.020
 4544TIP3   OH235190   6.457   4.345   7.769
 4544TIP3    H135191   6.437   4.260   7.729
 4544TIP3    H235192   6.550   4.357   7.755
 4545TIP3   OH235193   1.940   4.989   1.603
 4545TIP3    H135194   1.875   4.976   1.534
 4545TIP3    H235195   1.916   4.926   1.671
 4546TIP3   OH235196   3.110   4.263   7.907
 4546TIP3    H135197   3.195   4.244   7.946
 4546TIP3    H235198   3.055   4.288   7.982
 4547TIP3   OH235199   1.141   3.969   2.340
 4547TIP3    H135200   1.105   3.880   2.341
 4547TIP3    H235201   1.236   3.957   2.343
 4548TIP3   OH235202   1.015   5.782   7.608
 4548TIP3    H135203   1.109   5.796   7.621
 4548TIP3    H235204   0.996   5.700   7.653
 4549TIP3   OH235205   2.662   1.500   7.256
 4549TIP3    H135206   2.715   1.477   7.179
 4549TIP3    H235207   2.725   1.508   7.327
 4550TIP3   OH235208   3.462   4.332   6.401
 4550TIP3    H135209   3.556   4.342   6.390
 4550TIP3    H235210   3.452   4.289   6.486
 4551TIP3   OH235211   4.219   4.311   8.628
 4551TIP3    H135212   4.300   4.341   8.670
 4551TIP3    H235213   4.248   4.246   8.564
 4552TIP3   OH235214   6.624   1.229   6.456
 4552TIP3    H135215   6.560   1.198   6.392
 4552TIP3    H235216   6.571   1.261   6.529
 4553TIP3   OH235217   3.830   2.579   0.047
 4553TIP3    H135218   3.802   2.543   8.744
 4553TIP3    H235219   3.760   2.640   0.072
 4554TIP3   OH235220   4.519   6.787   6.168
 4554TIP3    H135221   4.580   6.787   6.094
 4554TIP3    H235222   4.530   6.700   6.207
 4555TIP3   OH235223   6.201   4.118   7.887
 4555TIP3    H135224   6.137   4.187   7.902
 4555TIP3    H235225   6.275   4.140   7.944
 4556TIP3   OH235226   0.348   0.435   1.587
 4556TIP3    H135227   0.426   0.489   1.600
 4556TIP3    H235228   0.296   0.449   1.666
 4557TIP3   OH235229   6.800   3.298   7.316
 4557TIP3    H135230   6.726   3.359   7.309
 4557TIP3    H235231   0.001   3.283   7.225
 4558TIP3   OH235232   2.828   6.437   1.399
 4558TIP3    H135233   2.775   6.357   1.401
 4558TIP3    H235234   2.835   6.459   1.306
 4559TIP3   OH235235   1.871   0.473   2.082
 4559TIP3    H135236   1.931   0.405   2.113
 4559TIP3    H235237   1.923   0.525   2.020
 4560TIP3   OH235238   6.025   5.012   0.532
 4560TIP3    H135239   6.104   5.013   0.586
 4560TIP3    H235240   5.957   4.976   0.590
 4561TIP3   OH235241   1.273   0.186   0.741
 4561TIP3    H135242   1.201   0.238   0.706
 4561TIP3    H235243   1.264   0.100   0.699
 4562TIP3   OH235244   5.686   3.197   1.937
 4562TIP3    H135245   5.608   3.185   1.883
 4562TIP3    H235246   5.659   3.170   2.025
 4563TIP3   OH235247   2.348   1.563   0.954
 4563TIP3    H135248   2.267   1.513   0.964
 4563TIP3    H235249   2.418   1.498   0.965
 4564TIP3   OH235250   1.385   3.130   8.715
 4564TIP3    H135251   1.350   3.080   0.007
 4564TIP3    H235252   1.315   3.191   8.691
 4565TIP3   OH235253   0.936   5.587   0.810
 4565TIP3    H135254   0.934   5.491   0.809
 4565TIP3    H235255   0.956   5.611   0.720
 4566TIP3   OH235256   0.058   2.135   7.953
 4566TIP3    H135257   0.057   2.135   8.049
 4566TIP3    H235258   0.014   2.217   7.929
 4567TIP3   OH235259   3.104   3.104   6.682
 4567TIP3    H135260   3.053   3.181   6.709
 4567TIP3    H235261   3.095   3.102   6.587
 4568TIP3   OH235262   0.311   4.632   6.574
 4568TIP3    H135263   0.295   4.544   6.540
 4568TIP3    H235264   0.392   4.661   6.530
 4569TIP3   OH235265   4.239   5.773   2.515
 4569TIP3    H135266   4.292   5.809   2.586
 4569TIP3    H235267   4.300   5.720   2.464
 4570TIP3   OH235268   1.620   6.041   7.836
 4570TIP3    H135269   1.664   5.993   7.906
 4570TIP3    H235270   1.688   6.095   7.797
 4571TIP3   OH235271   0.946   6.183   6.225
 4571TIP3    H135272   1.009   6.254   6.242
 4571TIP3    H235273   0.988   6.105   6.260
 4572TIP3   OH235274   3.292   4.632   6.160
 4572TIP3    H135275   3.234   4.650   6.235
 4572TIP3    H235276   3.327   4.545   6.177
 4573TIP3   OH235277   4.775   2.433   1.287
 4573TIP3    H135278   4.688   2.425   1.249
 4573TIP3    H235279   4.813   2.510   1.244
 4574TIP3   OH235280   1.366   2.702   0.011
 4574TIP3    H135281   1.319   2.777   0.048
 4574TIP3    H235282   1.318   2.626   0.044
 4575TIP3   OH235283   5.306   0.530   1.442
 4575TIP3    H135284   5.313   0.483   1.525
 4575TIP3    H235285   5.219   0.568   1.443
 4576TIP3   OH235286   5.735   5.280   1.538
 4576TIP3    H135287   5.679   5.298   1.614
 4576TIP3    H235288   5.754   5.187   1.544
 4577TIP3   OH235289   4.694   3.673   8.270
 4577TIP3    H135290   4.773   3.708   8.229
 4577TIP3    H235291   4.624   3.732   8.242
 4578TIP3   OH235292   5.439   3.047   8.691
 4578TIP3    H135293   5.527   3.016   8.714
 4578TIP3    H235294   5.437   3.138   8.719
 4579TIP3   OH235295   1.452   0.995   8.666
 4579TIP3    H135296   1.493   0.918   8.704
 4579TIP3    H235297   1.487   1.000   8.577
 4580TIP3   OH235298   0.964   1.101   1.047
 4580TIP3    H135299   0.896   1.149   1.000
 4580TIP3    H235300   1.045   1.143   1.020
 4581TIP3   OH235301   1.426   6.238   7.894
 4581TIP3    H135302   1.479   6.163   7.866
 4581TIP3    H235303   1.345   6.229   7.843
 4582TIP3   OH235304   4.790   0.097   6.899
 4582TIP3    H135305   4.814   0.188   6.883
 4582TIP3    H235306   4.868   0.047   6.876
 4583TIP3   OH235307   5.569   6.603   0.369
 4583TIP3    H135308   5.637   6.603   0.436
 4583TIP3    H235309   5.487   6.614   0.418
 4584TIP3   OH235310   5.940   0.816   6.928
 4584TIP3    H135311   5.862   0.768   6.900
 4584TIP3    H235312   5.906   0.886   6.984
 4585TIP3   OH235313   4.395   4.758   6.612
 4585TIP3    H135314   4.331   4.704   6.566
 4585TIP3    H235315   4.419   4.826   6.550
 4586TIP3   OH235316   1.641   0.023   0.023
 4586TIP3    H135317   1.712   0.039   8.742
 4586TIP3    H235318   1.683   0.022   0.109
 4587TIP3   OH235319   0.572   0.214   0.061
 4587TIP3    H135320   0.625   0.156   0.115
 4587TIP3    H235321   0.635   0.276   0.025
 4588TIP3   OH235322   6.119   4.343   7.420
 4588TIP3    H135323   6.142   4.295   7.340
 4588TIP3    H235324   6.030   4.315   7.439
 4589TIP3   OH235325   5.818   6.394   6.485
 4589TIP3    H135326   5.851   6.444   6.560
 4589TIP3    H235327   5.848   6.305   6.501
 4590TIP3   OH235328   3.216   0.037   8.072
 4590TIP3    H135329   3.169   0.102   8.125
 4590TIP3    H235330   3.225   0.079   7.986
 4591TIP3   OH235331   3.987   4.568   7.613
 4591TIP3    H135332   4.052   4.500   7.596
 4591TIP3    H235333   3.909   4.540   7.565
 4592TIP3   OH235334   1.407   6.333   6.850
 4592TIP3    H135335   1.388   6.392   6.776
 4592TIP3    H235336   1.373   6.379   6.926
 4593TIP3   OH235337   6.472   5.363   7.124
 4593TIP3    H135338   6.486   5.430   7.057
 4593TIP3    H235339   6.439   5.287   7.076
 4594TIP3   OH235340   2.608   6.295   1.015
 4594TIP3    H135341   2.632   6.305   0.923
 4594TIP3    H235342   2.674   6.345   1.063
 4595TIP3   OH235343   3.031   6.311   6.375
 4595TIP3    H135344   2.961   6.263   6.332
 4595TIP3    H235345   2.986   6.379   6.426
 4596TIP3   OH235346   1.339   0.589   0.820
 4596TIP3    H135347   1.265   0.565   0.876
 4596TIP3    H235348   1.370   0.673   0.856
 4597TIP3   OH235349   0.736   4.303   0.261
 4597TIP3    H135350   0.645   4.313   0.235
 4597TIP3    H235351   0.769   4.392   0.268
 4598TIP3   OH235352   1.916   3.326   8.753
 4598TIP3    H135353   1.973   3.287   8.686
 4598TIP3    H235354   1.836   3.275   8.749
 4599TIP3   OH235355   6.298   6.494   8.287
 4599TIP3    H135356   6.292   6.507   8.193
 4599TIP3    H235357   6.213   6.521   8.321
 4600TIP3   OH235358   5.901   0.736   1.992
 4600TIP3    H135359   5.977   0.780   2.029
 4600TIP3    H235360   5.875   0.791   1.918
 4601TIP3   OH235361   3.545   0.125   0.340
 4601TIP3    H135362   3.536   0.216   0.368
 4601TIP3    H235363   3.615   0.126   0.275
 4602TIP3   OH235364   6.084   4.802   1.400
 4602TIP3    H135365   6.032   4.726   1.375
 4602TIP3    H235366   6.159   4.766   1.447
 4603TIP3   OH235367   2.562   4.639   0.492
 4603TIP3    H135368   2.477   4.626   0.449
 4603TIP3    H235369   2.579   4.557   0.537
 4604TIP3   OH235370   6.013   1.570   1.406
 4604TIP3    H135371   5.959   1.648   1.401
 4604TIP3    H235372   6.023   1.553   1.500
 4605TIP3   OH235373   0.871   2.182   7.619
 4605TIP3    H135374   0.854   2.233   7.698
 4605TIP3    H235375   0.809   2.109   7.624
 4606TIP3   OH235376   4.365   4.521   1.009
 4606TIP3    H135377   4.353   4.579   0.933
 4606TIP3    H235378   4.277   4.508   1.044
 4607TIP3   OH235379   4.247   0.593   2.779
 4607TIP3    H135380   4.158   0.624   2.794
 4607TIP3    H235381   4.294   0.668   2.742
 4608TIP3   OH235382   5.736   2.481   7.932
 4608TIP3    H135383   5.714   2.408   7.991
 4608TIP3    H235384   5.710   2.450   7.845
 4609TIP3   OH235385   0.424   6.629   6.335
 4609TIP3    H135386   0.363   6.555   6.337
 4609TIP3    H235387   0.411   6.672   6.420
 4610TIP3   OH235388   0.993   2.144   1.524
 4610TIP3    H135389   0.939   2.147   1.603
 4610TIP3    H235390   0.992   2.234   1.491
 4611TIP3   OH235391   0.480   6.362   8.288
 4611TIP3    H135392   0.490   6.267   8.287
 4611TIP3    H235393   0.566   6.396   8.266
 4612TIP3   OH235394   0.490   4.547   0.435
 4612TIP3    H135395   0.498   4.475   0.372
 4612TIP3    H235396   0.576   4.588   0.435
 4613TIP3   OH235397   5.867   2.036   6.654
 4613TIP3    H135398   5.875   2.131   6.661
 4613TIP3    H235399   5.812   2.022   6.576
 4614TIP3   OH235400   6.565   0.275   2.205
 4614TIP3    H135401   6.537   0.260   2.115
 4614TIP3    H235402   6.645   0.327   2.196
 4615TIP3   OH235403   4.947   0.449   1.151
 4615TIP3    H135404   4.890   0.380   1.184
 4615TIP3    H235405   4.907   0.475   1.068
 4616TIP3   OH235406   4.262   6.244   6.813
 4616TIP3    H135407   4.292   6.168   6.863
 4616TIP3    H235408   4.228   6.207   6.731
 4617TIP3   OH235409   5.968   2.441   8.352
 4617TIP3    H135410   5.891   2.498   8.366
 4617TIP3    H235411   5.941   2.357   8.389
 4618TIP3   OH235412   1.075   6.297   7.067
 4618TIP3    H135413   0.999   6.239   7.061
 4618TIP3    H235414   1.100   6.314   6.976
 4619TIP3   OH235415   3.722   5.129   0.035
 4619TIP3    H135416   3.768   5.161   0.112
 4619TIP3    H235417   3.727   5.033   0.043
 4620TIP3   OH235418   4.875   4.032   7.429
 4620TIP3    H135419   4.919   3.975   7.367
 4620TIP3    H235420   4.923   4.114   7.426
 4621TIP3   OH235421   1.238   2.554   7.270
 4621TIP3    H135422   1.324   2.566   7.310
 4621TIP3    H235423   1.241   2.606   7.190
 4622TIP3   OH235424   1.139   3.400   8.345
 4622TIP3    H135425   1.193   3.355   8.410
 4622TIP3    H235426   1.099   3.472   8.394
 4623TIP3   OH235427   0.741   3.183   1.588
 4623TIP3    H135428   0.700   3.123   1.650
 4623TIP3    H235429   0.719   3.149   1.502
 4624TIP3   OH235430   5.095   2.623   8.743
 4624TIP3    H135431   5.170   2.659   8.695
 4624TIP3    H235432   5.134   2.566   0.029
 4625TIP3   OH235433   1.199   5.162   0.633
 4625TIP3    H135434   1.252   5.240   0.617
 4625TIP3    H235435   1.247   5.113   0.698
 4626TIP3   OH235436   6.185   1.798   6.981
 4626TIP3    H135437   6.121   1.828   6.916
 4626TIP3    H235438   6.132   1.752   7.046
 4627TIP3   OH235439   3.818   2.492   1.072
 4627TIP3    H135440   3.892   2.479   1.131
 4627TIP3    H235441   3.751   2.535   1.127
 4628TIP3   OH235442   2.461   4.733   1.115
 4628TIP3    H135443   2.409   4.727   1.195
 4628TIP3    H235444   2.436   4.656   1.064
 4629TIP3   OH235445   0.683   4.781   6.647
 4629TIP3    H135446   0.724   4.699   6.620
 4629TIP3    H235447   0.757   4.836   6.674
 4630TIP3   OH235448   5.969   6.822   8.331
 4630TIP3    H135449   5.979   0.071   8.391
 4630TIP3    H235450   6.020   6.751   8.371
 4631TIP3   OH235451   1.223   1.771   8.670
 4631TIP3    H135452   1.198   1.860   8.695
 4631TIP3    H235453   1.169   1.715   8.726
 4632TIP3   OH235454   5.429   4.934   8.772
 4632TIP3    H135455   5.404   5.019   0.026
 4632TIP3    H235456   5.523   4.941   8.757
 4633TIP3   OH235457   5.796   6.074   8.645
 4633TIP3    H135458   5.859   6.021   8.596
 4633TIP3    H235459   5.849   6.119   8.711
 4634TIP3   OH235460   0.492   1.972   7.670
 4634TIP3    H135461   0.448   2.018   7.742
 4634TIP3    H235462   0.535   1.897   7.712
 4635TIP3   OH235463   2.009   1.250   1.980
 4635TIP3    H135464   2.051   1.164   1.983
 4635TIP3    H235465   2.076   1.311   2.011
 4636TIP3   OH235466   4.653   6.369   8.305
 4636TIP3    H135467   4.613   6.453   8.283
 4636TIP3    H235468   4.746   6.388   8.315
 4637TIP3   OH235469   6.346   5.933   1.694
 4637TIP3    H135470   6.324   5.904   1.606
 4637TIP3    H235471   6.429   5.889   1.714
 4638TIP3   OH235472   1.391   4.777   7.776
 4638TIP3    H135473   1.459   4.732   7.827
 4638TIP3    H235474   1.380   4.861   7.821
 4639TIP3   OH235475   1.131   0.689   0.025
 4639TIP3    H135476   1.152   0.782   0.023
 4639TIP3    H235477   1.133   0.662   8.713
 4640TIP3   OH235478   1.588   3.733   1.525
 4640TIP3    H135479   1.521   3.675   1.488
 4640TIP3    H235480   1.583   3.718   1.619
 4641TIP3   OH235481   5.327   2.134   0.909
 4641TIP3    H135482   5.281   2.072   0.965
 4641TIP3    H235483   5.417   2.134   0.941
 4642TIP3   OH235484   6.317   2.919   7.730
 4642TIP3    H135485   6.341   2.947   7.818
 4642TIP3    H235486   6.226   2.890   7.738
 4643TIP3   OH235487   5.592   2.068   7.118
 4643TIP3    H135488   5.525   2.004   7.144
 4643TIP3    H235489   5.654   2.017   7.065
 4644TIP3   OH235490   1.661   3.298   7.484
 4644TIP3    H135491   1.684   3.297   7.577
 4644TIP3    H235492   1.584   3.241   7.478
 4645TIP3   OH235493   0.519   1.171   8.577
 4645TIP3    H135494   0.603   1.126   8.571
 4645TIP3    H235495   0.461   1.107   8.618
 4646TIP3   OH235496   4.317   2.632   1.589
 4646TIP3    H135497   4.277   2.717   1.607
 4646TIP3    H235498   4.244   2.576   1.563
 4647TIP3   OH235499   4.298   1.887   1.431
 4647TIP3    H135500   4.378   1.939   1.420
 4647TIP3    H235501   4.233   1.949   1.463
 4648TIP3   OH235502   1.583   5.822   8.429
 4648TIP3    H135503   1.638   5.859   8.498
 4648TIP3    H235504   1.596   5.727   8.436
 4649TIP3   OH235505   5.758   4.765   2.125
 4649TIP3    H135506   5.823   4.836   2.122
 4649TIP3    H235507   5.792   4.704   2.190
 4650TIP3   OH235508   4.516   4.523   0.549
 4650TIP3    H135509   4.426   4.543   0.523
 4650TIP3    H235510   4.529   4.432   0.522
 4651TIP3   OH235511   4.107   2.905   7.608
 4651TIP3    H135512   4.019   2.940   7.619
 4651TIP3    H235513   4.128   2.865   7.693
 4652TIP3   OH235514   0.801   3.126   2.494
 4652TIP3    H135515   0.728   3.112   2.554
 4652TIP3    H235516   0.771   3.088   2.411
 4653TIP3   OH235517   0.307   2.994   7.531
 4653TIP3    H135518   0.264   3.010   7.446
 4653TIP3    H235519   0.312   3.081   7.571
 4654TIP3   OH235520   6.621   3.875   0.275
 4654TIP3    H135521   6.586   3.822   0.203
 4654TIP3    H235522   6.685   3.818   0.318
 4655TIP3   OH235523   6.563   4.752   0.177
 4655TIP3    H135524   6.569   4.755   0.273
 4655TIP3    H235525   6.469   4.744   0.159
 4656TIP3   OH235526   2.231   0.080   7.011
 4656TIP3    H135527   2.290   0.029   6.954
 4656TIP3    H235528   2.204   0.018   7.078
 4657TIP3   OH235529   4.519   4.335   8.419
 4657TIP3    H135530   4.593   4.315   8.476
 4657TIP3    H235531   4.462   4.391   8.473
 4658TIP3   OH235532   3.626   6.044   7.600
 4658TIP3    H135533   3.536   6.053   7.631
 4658TIP3    H235534   3.670   5.993   7.667
 4659TIP3   OH235535   0.173   5.373   6.828
 4659TIP3    H135536   0.125   5.441   6.781
 4659TIP3    H235537   0.196   5.308   6.761
 4660TIP3   OH235538   4.098   0.265   2.402
 4660TIP3    H135539   4.100   0.252   2.496
 4660TIP3    H235540   4.006   0.280   2.381
 4661TIP3   OH235541   1.582   5.659   6.844
 4661TIP3    H135542   1.529   5.653   6.764
 4661TIP3    H235543   1.642   5.731   6.828
 4662TIP3   OH235544   1.890   3.288   0.941
 4662TIP3    H135545   1.907   3.269   0.849
 4662TIP3    H235546   1.967   3.337   0.970
 4663TIP3   OH235547   2.350   3.399   7.180
 4663TIP3    H135548   2.363   3.494   7.190
 4663TIP3    H235549   2.432   3.361   7.212
 4664TIP3   OH235550   6.622   4.460   2.543
 4664TIP3    H135551   6.678   4.538   2.543
 4664TIP3    H235552   6.643   4.416   2.461
 4665TIP3   OH235553   1.113   0.571   6.562
 4665TIP3    H135554   1.184   0.610   6.511
 4665TIP3    H235555   1.152   0.492   6.599
 4666TIP3   OH235556   6.133   4.787   8.000
 4666TIP3    H135557   6.096   4.848   8.063
 4666TIP3    H235558   6.222   4.819   7.984
 4667TIP3   OH235559   5.276   2.884   0.067
 4667TIP3    H135560   5.317   2.953   0.015
 4667TIP3    H235561   5.278   2.807   0.011
 4668TIP3   OH235562   5.074   2.756   1.674
 4668TIP3    H135563   5.009   2.714   1.617
 4668TIP3    H235564   5.139   2.688   1.689
 4669TIP3   OH235565   5.605   2.917   1.673
 4669TIP3    H135566   5.601   2.882   1.585
 4669TIP3    H235567   5.693   2.895   1.704
 4670TIP3   OH235568   6.067   3.359   8.670
 4670TIP3    H135569   6.087   3.292   8.604
 4670TIP3    H235570   6.092   3.319   8.753
 4671TIP3   OH235571   1.132   1.304   8.641
 4671TIP3    H135572   1.167   1.359   8.711
 4671TIP3    H235573   1.096   1.228   8.687
 4672TIP3   OH235574   5.672   0.739   7.176
 4672TIP3    H135575   5.601   0.690   7.218
 4672TIP3    H235576   5.645   0.830   7.183
 4673TIP3   OH235577   6.401   4.273   6.996
 4673TIP3    H135578   6.479   4.325   6.976
 4673TIP3    H235579   6.385   4.222   6.917
 4674TIP3   OH235580   3.087   2.410   8.458
 4674TIP3    H135581   3.165   2.384   8.410
 4674TIP3    H235582   3.089   2.357   8.538
 4675TIP3   OH235583   4.348   4.060   8.104
 4675TIP3    H135584   4.347   4.115   8.025
 4675TIP3    H235585   4.281   3.994   8.087
 4676TIP3   OH235586   0.682   5.400   0.033
 4676TIP3    H135587   0.714   5.336   0.096
 4676TIP3    H235588   0.702   5.485   0.074
 4677TIP3   OH235589   2.240   0.317   7.155
 4677TIP3    H135590   2.200   0.275   7.079
 4677TIP3    H235591   2.236   0.410   7.136
 4678TIP3   OH235592   0.963   6.610   7.409
 4678TIP3    H135593   1.025   6.683   7.404
 4678TIP3    H235594   0.877   6.652   7.410
 4679TIP3   OH235595   5.301   1.260   2.675
 4679TIP3    H135596   5.229   1.212   2.634
 4679TIP3    H235597   5.359   1.192   2.709
 4680TIP3   OH235598   1.946   0.096   2.331
 4680TIP3    H135599   2.018   0.057   2.380
 4680TIP3    H235600   1.918   0.028   2.269
 4681TIP3   OH235601   0.740   5.025   6.060
 4681TIP3    H135602   0.726   5.117   6.083
 4681TIP3    H235603   0.806   4.994   6.122
 4682TIP3   OH235604   2.221   4.091   8.394
 4682TIP3    H135605   2.241   4.159   8.330
 4682TIP3    H235606   2.304   4.045   8.407
 4683TIP3   OH235607   1.051   4.904   7.495
 4683TIP3    H135608   1.052   4.903   7.591
 4683TIP3    H235609   1.064   4.996   7.472
 4684TIP3   OH235610   2.700   4.692   8.121
 4684TIP3    H135611   2.608   4.676   8.140
 4684TIP3    H235612   2.704   4.784   8.095
 4685TIP3   OH235613   5.990   4.624   0.407
 4685TIP3    H135614   6.078   4.617   0.444
 4685TIP3    H235615   5.935   4.574   0.468
 4686TIP3   OH235616   6.499   3.706   8.112
 4686TIP3    H135617   6.431   3.770   8.092
 4686TIP3    H235618   6.472   3.627   8.065
 4687TIP3   OH235619   3.373   3.498   8.636
 4687TIP3    H135620   3.387   3.465   8.725
 4687TIP3    H235621   3.406   3.429   8.579
 4688TIP3   OH235622   3.915   5.965   1.637
 4688TIP3    H135623   3.966   6.002   1.709
 4688TIP3    H235624   3.912   6.034   1.571
 4689TIP3   OH235625   3.808   0.464   1.082
 4689TIP3    H135626   3.863   0.413   1.022
 4689TIP3    H235627   3.838   0.554   1.071
 4690TIP3   OH235628   2.951   3.803   6.946
 4690TIP3    H135629   3.002   3.869   6.899
 4690TIP3    H235630   2.903   3.853   7.012
 4691TIP3   OH235631   0.698   4.670   8.319
 4691TIP3    H135632   0.611   4.701   8.296
 4691TIP3    H235633   0.703   4.581   8.284
 4692TIP3   OH235634   1.827   5.465   1.073
 4692TIP3    H135635   1.912   5.481   1.032
 4692TIP3    H235636   1.770   5.441   1.000
 4693TIP3   OH235637   1.179   0.128   0.331
 4693TIP3    H135638   1.196   0.109   0.238
 4693TIP3    H235639   1.104   0.074   0.353
 4694TIP3   OH235640   4.206   1.993   0.589
 4694TIP3    H135641   4.172   1.917   0.543
 4694TIP3    H235642   4.141   2.010   0.658
 4695TIP3   OH235643   5.866   4.800   7.856
 4695TIP3    H135644   5.940   4.774   7.802
 4695TIP3    H235645   5.905   4.830   7.938
 4696TIP3   OH235646   2.096   5.809   8.482
 4696TIP3    H135647   2.089   5.735   8.542
 4696TIP3    H235648   2.186   5.806   8.450
 4697TIP3   OH235649   2.619   5.456   1.261
 4697TIP3    H135650   2.700   5.454   1.208
 4697TIP3    H235651   2.549   5.471   1.197
 4698TIP3   OH235652   2.360   6.415   0.945
 4698TIP3    H135653   2.455   6.421   0.951
 4698TIP3    H235654   2.328   6.452   1.027
 4699TIP3   OH235655   0.038   6.245   7.099
 4699TIP3    H135656   6.807   6.175   7.133
 4699TIP3    H235657   0.119   6.236   7.150
 4700TIP3   OH235658   5.110   0.721   0.888
 4700TIP3    H135659   5.192   0.755   0.852
 4700TIP3    H235660   5.115   0.627   0.871
 4701TIP3   OH235661   4.496   2.065   1.393
 4701TIP3    H135662   4.447   2.147   1.398
 4701TIP3    H235663   4.587   2.091   1.408
 4702TIP3   OH235664   4.507   0.072   8.760
 4702TIP3    H135665   4.583   0.082   0.037
 4702TIP3    H235666   4.544   0.053   8.674
 4703TIP3   OH235667   4.334   3.426   8.700
 4703TIP3    H135668   4.426   3.452   8.708
 4703TIP3    H235669   4.293   3.461   8.779
 4704TIP3   OH235670   4.458   4.207   7.361
 4704TIP3    H135671   4.371   4.179   7.333
 4704TIP3    H235672   4.489   4.138   7.420
 4705TIP3   OH235673   4.317   6.686   1.964
 4705TIP3    H135674   4.360   6.726   1.889
 4705TIP3    H235675   4.330   6.748   2.036
 4706TIP3   OH235676   2.972   6.092   6.893
 4706TIP3    H135677   2.911   6.087   6.819
 4706TIP3    H235678   2.938   6.030   6.957
 4707TIP3   OH235679   1.330   5.358   1.827
 4707TIP3    H135680   1.369   5.436   1.866
 4707TIP3    H235681   1.404   5.307   1.796
 4708TIP3   OH235682   6.736   1.673   1.613
 4708TIP3    H135683   6.795   1.666   1.538
 4708TIP3    H235684   6.781   1.734   1.672
 4709TIP3   OH235685   1.259   3.067   8.208
 4709TIP3    H135686   1.271   3.159   8.233
 4709TIP3    H235687   1.333   3.047   8.150
 4710TIP3   OH235688   0.422   3.613   7.582
 4710TIP3    H135689   0.455   3.543   7.526
 4710TIP3    H235690   0.483   3.686   7.566
 4711TIP3   OH235691   5.842   5.531   8.765
 4711TIP3    H135692   5.908   5.468   0.013
 4711TIP3    H235693   5.765   5.509   0.036
 4712TIP3   OH235694   3.596   3.463   0.404
 4712TIP3    H135695   3.544   3.386   0.382
 4712TIP3    H235696   3.651   3.435   0.478
 4713TIP3   OH235697   4.536   2.925   7.066
 4713TIP3    H135698   4.563   2.878   6.988
 4713TIP3    H235699   4.529   2.857   7.134
 4714TIP3   OH235700   2.726   5.597   0.659
 4714TIP3    H135701   2.634   5.586   0.638
 4714TIP3    H235702   2.773   5.555   0.586
 4715TIP3   OH235703   4.478   0.594   1.985
 4715TIP3    H135704   4.427   0.672   2.007
 4715TIP3    H235705   4.451   0.572   1.896
 4716TIP3   OH235706   1.412   3.655   0.733
 4716TIP3    H135707   1.383   3.594   0.665
 4716TIP3    H235708   1.344   3.649   0.801
 4717TIP3   OH235709   3.501   4.255   7.509
 4717TIP3    H135710   3.405   4.255   7.519
 4717TIP3    H235711   3.534   4.266   7.598
 4718TIP3   OH235712   4.679   3.443   0.128
 4718TIP3    H135713   4.761   3.420   0.173
 4718TIP3    H235714   4.660   3.532   0.157
 4719TIP3   OH235715   6.032   2.158   1.207
 4719TIP3    H135716   6.047   2.208   1.287
 4719TIP3    H235717   6.119   2.150   1.167
 4720TIP3   OH235718   3.679   2.863   1.347
 4720TIP3    H135719   3.744   2.797   1.371
 4720TIP3    H235720   3.644   2.832   1.263
 4721TIP3   OH235721   3.748   1.026   0.561
 4721TIP3    H135722   3.742   1.110   0.515
 4721TIP3    H235723   3.819   1.040   0.625
 4722TIP3   OH235724   2.088   5.239   2.173
 4722TIP3    H135725   2.182   5.239   2.153
 4722TIP3    H235726   2.079   5.302   2.244
 4723TIP3   OH235727   3.684   6.431   7.253
 4723TIP3    H135728   3.668   6.337   7.262
 4723TIP3    H235729   3.663   6.468   7.339
 4724TIP3   OH235730   1.286   2.251   0.981
 4724TIP3    H135731   1.282   2.172   1.035
 4724TIP3    H235732   1.249   2.320   1.037
 4725TIP3   OH235733   1.856   0.815   7.506
 4725TIP3    H135734   1.871   0.728   7.471
 4725TIP3    H235735   1.907   0.818   7.587
 4726TIP3   OH235736   0.573   5.372   1.602
 4726TIP3    H135737   0.486   5.349   1.571
 4726TIP3    H235738   0.560   5.446   1.661
 4727TIP3   OH235739   1.621   0.704   0.473
 4727TIP3    H135740   1.528   0.725   0.482
 4727TIP3    H235741   1.623   0.633   0.409
 4728TIP3   OH235742   6.479   5.555   2.245
 4728TIP3    H135743   6.403   5.503   2.270
 4728TIP3    H235744   6.527   5.568   2.327
 4729TIP3   OH235745   4.071   0.393   8.612
 4729TIP3    H135746   4.148   0.395   8.669
 4729TIP3    H235747   4.012   0.458   8.649
 4730TIP3   OH235748   4.175   4.754   8.494
 4730TIP3    H135749   4.135   4.699   8.561
 4730TIP3    H235750   4.147   4.843   8.516
 4731TIP3   OH235751   6.755   1.411   1.377
 4731TIP3    H135752   0.020   1.408   1.346
 4731TIP3    H235753   6.705   1.444   1.302
 4732TIP3   OH235754   1.385   4.993   2.221
 4732TIP3    H135755   1.467   4.982   2.175
 4732TIP3    H235756   1.331   4.919   2.194
 4733TIP3   OH235757   3.913   1.047   7.841
 4733TIP3    H135758   3.846   1.112   7.860
 4733TIP3    H235759   3.964   1.039   7.922
 4734TIP3   OH235760   0.215   3.556   7.222
 4734TIP3    H135761   0.133   3.605   7.215
 4734TIP3    H235762   0.190   3.466   7.202
 4735TIP3   OH235763   1.868   2.720   7.871
 4735TIP3    H135764   1.926   2.707   7.946
 4735TIP3    H235765   1.824   2.637   7.859
 4736TIP3   OH235766   2.833   2.750   1.145
 4736TIP3    H135767   2.800   2.835   1.175
 4736TIP3    H235768   2.853   2.702   1.225
 4737TIP3   OH235769   5.673   4.438   6.897
 4737TIP3    H135770   5.582   4.418   6.918
 4737TIP3    H235771   5.668   4.499   6.824
 4738TIP3   OH235772   3.840   3.889   1.186
 4738TIP3    H135773   3.782   3.843   1.246
 4738TIP3    H235774   3.890   3.948   1.242
 4739TIP3   OH235775   6.758   2.794   6.982
 4739TIP3    H135776   6.799   2.831   6.903
 4739TIP3    H235777   6.665   2.810   6.970
 4740TIP3   OH235778   2.334   3.759   8.469
 4740TIP3    H135779   2.268   3.693   8.448
 4740TIP3    H235780   2.371   3.784   8.384
 4741TIP3   OH235781   2.938   3.932   1.656
 4741TIP3    H135782   2.880   3.858   1.677
 4741TIP3    H235783   3.019   3.890   1.627
 4742TIP3   OH235784   3.633   1.357   7.626
 4742TIP3    H135785   3.634   1.439   7.577
 4742TIP3    H235786   3.684   1.375   7.705
 4743TIP3   OH235787   3.348   6.500   7.215
 4743TIP3    H135788   3.379   6.410   7.223
 4743TIP3    H235789   3.290   6.513   7.291
 4744TIP3   OH235790   1.671   3.635   7.496
 4744TIP3    H135791   1.584   3.662   7.467
 4744TIP3    H235792   1.727   3.710   7.477
 4745TIP3   OH235793   1.247   6.018   8.159
 4745TIP3    H135794   1.254   5.936   8.208
 4745TIP3    H235795   1.288   6.083   8.215
 4746TIP3   OH235796   1.351   0.990   8.250
 4746TIP3    H135797   1.373   0.989   8.157
 4746TIP3    H235798   1.270   1.042   8.254
 4747TIP3   OH235799   1.609   6.767   0.778
 4747TIP3    H135800   1.618   0.032   0.807
 4747TIP3    H235801   1.571   6.721   0.852
 4748TIP3   OH235802   0.051   0.650   7.923
 4748TIP3    H135803   0.073   0.684   7.837
 4748TIP3    H235804   0.018   0.562   7.906
 4749TIP3   OH235805   4.859   4.823   1.619
 4749TIP3    H135806   4.838   4.821   1.713
 4749TIP3    H235807   4.891   4.911   1.603
 4750TIP3   OH235808   0.918   0.116   7.812
 4750TIP3    H135809   0.999   0.095   7.857
 4750TIP3    H235810   0.910   0.050   7.743
 4751TIP3   OH235811   5.508   1.865   8.726
 4751TIP3    H135812   5.436   1.805   8.745
 4751TIP3    H235813   5.495   1.938   0.006
 4752TIP3   OH235814   2.507   1.156   1.686
 4752TIP3    H135815   2.512   1.111   1.770
 4752TIP3    H235816   2.419   1.138   1.654
 4753TIP3   OH235817   0.861   4.905   1.099
 4753TIP3    H135818   0.890   4.818   1.127
 4753TIP3    H235819   0.873   4.905   1.004
 4754TIP3   OH235820   0.698   3.013   2.268
 4754TIP3    H135821   0.720   2.938   2.214
 4754TIP3    H235822   0.627   3.057   2.221
 4755TIP3   OH235823   4.287   1.720   1.149
 4755TIP3    H135824   4.296   1.782   1.221
 4755TIP3    H235825   4.318   1.637   1.185
 4756TIP3   OH235826   4.056   3.561   0.054
 4756TIP3    H135827   3.996   3.571   0.128
 4756TIP3    H235828   4.143   3.568   0.092
 4757TIP3   OH235829   2.418   5.843   7.305
 4757TIP3    H135830   2.451   5.762   7.342
 4757TIP3    H235831   2.461   5.850   7.219
 4758TIP3   OH235832   5.986   5.402   2.893
 4758TIP3    H135833   5.976   5.307   2.896
 4758TIP3    H235834   6.071   5.419   2.934
 4759TIP3   OH235835   0.333   5.017   7.929
 4759TIP3    H135836   0.393   4.980   7.865
 4759TIP3    H235837   0.343   5.112   7.920
 4760TIP3   OH235838   3.667   3.583   6.728
 4760TIP3    H135839   3.624   3.578   6.642
 4760TIP3    H235840   3.670   3.677   6.747
 4761TIP3   OH235841   0.005   2.796   0.937
 4761TIP3    H135842   0.101   2.790   0.935
 4761TIP3    H235843   6.803   2.780   0.847
 4762TIP3   OH235844   3.120   1.870   8.279
 4762TIP3    H135845   3.159   1.847   8.195
 4762TIP3    H235846   3.027   1.850   8.269
 4763TIP3   OH235847   1.565   1.687   8.683
 4763TIP3    H135848   1.478   1.687   8.723
 4763TIP3    H235849   1.606   1.607   8.716
 4764TIP3   OH235850   3.439   5.271   1.290
 4764TIP3    H135851   3.467   5.360   1.272
 4764TIP3    H235852   3.376   5.280   1.362
 4765TIP3   OH235853   1.594   1.700   0.970
 4765TIP3    H135854   1.590   1.771   0.906
 4765TIP3    H235855   1.654   1.732   1.038
 4766TIP3   OH235856   1.282   6.098   6.302
 4766TIP3    H135857   1.228   6.036   6.351
 4766TIP3    H235858   1.227   6.175   6.292
 4767TIP3   OH235859   4.280   0.083   7.353
 4767TIP3    H135860   4.258   0.079   7.260
 4767TIP3    H235861   4.358   0.028   7.361
 4768TIP3   OH235862   3.823   3.434   0.610
 4768TIP3    H135863   3.871   3.352   0.619
 4768TIP3    H235864   3.886   3.493   0.567
 4769TIP3   OH235865   3.862   0.213   8.215
 4769TIP3    H135866   3.885   0.136   8.265
 4769TIP3    H235867   3.945   0.250   8.186
 4770TIP3   OH235868   4.739   4.671   6.834
 4770TIP3    H135869   4.780   4.600   6.883
 4770TIP3    H235870   4.763   4.654   6.743
 4771TIP3   OH235871   6.408   2.539   8.454
 4771TIP3    H135872   6.358   2.603   8.403
 4771TIP3    H235873   6.343   2.500   8.513
 4772TIP3   OH235874   3.271   0.843   7.163
 4772TIP3    H135875   3.176   0.840   7.151
 4772TIP3    H235876   3.306   0.817   7.077
 4773TIP3   OH235877   2.796   1.221   0.400
 4773TIP3    H135878   2.768   1.311   0.381
 4773TIP3    H235879   2.738   1.166   0.348
 4774TIP3   OH235880   5.043   0.962   8.756
 4774TIP3    H135881   5.109   1.017   0.017
 4774TIP3    H235882   5.071   0.957   8.664
 4775TIP3   OH235883   0.192   6.344   0.476
 4775TIP3    H135884   0.109   6.358   0.431
 4775TIP3    H235885   0.175   6.368   0.566
 4776TIP3   OH235886   0.784   2.988   8.409
 4776TIP3    H135887   0.718   3.037   8.457
 4776TIP3    H235888   0.864   3.042   8.417
 4777TIP3   OH235889   1.324   5.052   7.870
 4777TIP3    H135890   1.378   5.107   7.927
 4777TIP3    H235891   1.234   5.073   7.895
 4778TIP3   OH235892   0.550   0.908   8.367
 4778TIP3    H135893   0.634   0.955   8.364
 4778TIP3    H235894   0.488   0.968   8.324
 4779TIP3   OH235895   4.335   3.863   8.449
 4779TIP3    H135896   4.332   3.954   8.479
 4779TIP3    H235897   4.273   3.817   8.505
 4780TIP3   OH235898   6.286   0.134   8.063
 4780TIP3    H135899   6.341   0.210   8.041
 4780TIP3    H235900   6.282   0.135   8.158
 4781TIP3   OH235901   1.378   3.102   7.088
 4781TIP3    H135902   1.465   3.073   7.060
 4781TIP3    H235903   1.318   3.062   7.024
 4782TIP3   OH235904   0.619   5.610   1.803
 4782TIP3    H135905   0.667   5.688   1.774
 4782TIP3    H235906   0.583   5.634   1.888
 4783TIP3   OH235907   6.695   1.535   6.544
 4783TIP3    H135908   6.766   1.489   6.499
 4783TIP3    H235909   6.679   1.484   6.623
 4784TIP3   OH235910   1.970   0.776   7.034
 4784TIP3    H135911   2.053   0.757   6.990
 4784TIP3    H235912   1.986   0.753   7.125
 4785TIP3   OH235913   2.391   0.281   8.044
 4785TIP3    H135914   2.387   0.198   8.092
 4785TIP3    H235915   2.337   0.267   7.967
 4786TIP3   OH235916   0.166   3.798   0.836
 4786TIP3    H135917   0.245   3.749   0.858
 4786TIP3    H235918   0.190   3.890   0.846
 4787TIP3   OH235919   4.437   6.380   6.948
 4787TIP3    H135920   4.355   6.347   6.909
 4787TIP3    H235921   4.464   6.451   6.890
 4788TIP3   OH235922   4.971   6.772   7.749
 4788TIP3    H135923   5.003   6.712   7.815
 4788TIP3    H235924   5.047   6.790   7.693
 4789TIP3   OH235925   5.690   1.421   2.041
 4789TIP3    H135926   5.607   1.468   2.045
 4789TIP3    H235927   5.670   1.334   2.075
 4790TIP3   OH235928   0.806   2.301   0.510
 4790TIP3    H135929   0.823   2.367   0.578
 4790TIP3    H235930   0.875   2.315   0.445
 4791TIP3   OH235931   5.058   1.394   0.221
 4791TIP3    H135932   4.976   1.444   0.228
 4791TIP3    H235933   5.127   1.459   0.238
 4792TIP3   OH235934   2.478   3.053   6.770
 4792TIP3    H135935   2.404   3.112   6.783
 4792TIP3    H235936   2.555   3.109   6.778
 4793TIP3   OH235937   4.219   1.849   7.650
 4793TIP3    H135938   4.198   1.795   7.726
 4793TIP3    H235939   4.298   1.896   7.675
 4794TIP3   OH235940   3.113   2.071   6.951
 4794TIP3    H135941   3.098   2.163   6.930
 4794TIP3    H235942   3.048   2.024   6.900
 4795TIP3   OH235943   4.206   0.866   0.036
 4795TIP3    H135944   4.215   0.958   0.011
 4795TIP3    H235945   4.296   0.836   0.049
 4796TIP3   OH235946   2.555   5.166   7.651
 4796TIP3    H135947   2.529   5.241   7.704
 4796TIP3    H235948   2.509   5.091   7.690
 4797TIP3   OH235949   1.612   1.122   2.180
 4797TIP3    H135950   1.570   1.111   2.095
 4797TIP3    H235951   1.685   1.059   2.180
 4798TIP3   OH235952   6.788   4.085   1.435
 4798TIP3    H135953   0.048   4.094   1.478
 4798TIP3    H235954   6.763   3.994   1.452
 4799TIP3   OH235955   2.177   3.272   8.080
 4799TIP3    H135956   2.233   3.288   8.156
 4799TIP3    H235957   2.160   3.358   8.044
 4800TIP3   OH235958   2.994   4.076   8.262
 4800TIP3    H135959   3.057   4.078   8.334
 4800TIP3    H235960   2.983   4.168   8.237
 4801TIP3   OH235961   5.674   0.172   7.764
 4801TIP3    H135962   5.600   0.231   7.782
 4801TIP3    H235963   5.642   0.086   7.791
 4802TIP3   OH235964   0.202   4.103   6.371
 4802TIP3    H135965   0.171   4.018   6.402
 4802TIP3    H235966   0.195   4.098   6.275
 4803TIP3   OH235967   0.044   4.116   0.875
 4803TIP3    H135968   0.033   4.089   0.966
 4803TIP3    H235969   6.781   4.143   0.848
 4804TIP3   OH235970   3.840   6.405   6.326
 4804TIP3    H135971   3.884   6.482   6.291
 4804TIP3    H235972   3.904   6.365   6.384
 4805TIP3   OH235973   6.052   1.142   7.604
 4805TIP3    H135974   6.036   1.051   7.631
 4805TIP3    H235975   5.988   1.157   7.534
 4806TIP3   OH235976   4.461   3.767   8.198
 4806TIP3    H135977   4.387   3.778   8.138
 4806TIP3    H235978   4.423   3.783   8.285
 4807TIP3   OH235979   1.014   6.646   8.107
 4807TIP3    H135980   0.991   6.646   8.014
 4807TIP3    H235981   1.041   6.556   8.125
 4808TIP3   OH235982   2.589   0.925   1.464
 4808TIP3    H135983   2.614   0.953   1.552
 4808TIP3    H235984   2.665   0.878   1.431
 4809TIP3   OH235985   1.143   3.227   8.648
 4809TIP3    H135986   1.112   3.217   8.738
 4809TIP3    H235987   1.100   3.156   8.600
 4810TIP3   OH235988   1.641   1.994   8.649
 4810TIP3    H135989   1.596   2.074   8.621
 4810TIP3    H235990   1.577   1.924   8.632
 4811TIP3   OH235991   4.869   0.395   1.857
 4811TIP3    H135992   4.955   0.407   1.897
 4811TIP3    H235993   4.858   0.471   1.799
 4812TIP3   OH235994   0.779   1.961   7.923
 4812TIP3    H135995   0.756   1.934   8.011
 4812TIP3    H235996   0.841   2.033   7.935
 4813TIP3   OH235997   0.048   0.801   0.083
 4813TIP3    H135998   0.089   0.791   0.168
 4813TIP3    H235999   0.117   0.777   0.020
 4814TIP3   OH236000   3.435   5.635   0.302
 4814TIP3    H136001   3.423   5.574   0.375
 4814TIP3    H236002   3.528   5.628   0.280
 4815TIP3   OH236003   6.482   4.740   6.841
 4815TIP3    H136004   6.399   4.787   6.847
 4815TIP3    H236005   6.547   4.805   6.868
 4816TIP3   OH236006   5.639   4.199   8.051
 4816TIP3    H136007   5.700   4.125   8.043
 4816TIP3    H236008   5.692   4.270   8.087
 4817TIP3   OH236009   2.400   4.170   7.283
 4817TIP3    H136010   2.371   4.258   7.309
 4817TIP3    H236011   2.349   4.149   7.205
 4818TIP3   OH236012   2.052   0.198   6.739
 4818TIP3    H136013   2.134   0.164   6.775
 4818TIP3    H236014   2.066   0.200   6.645
 4819TIP3   OH236015   5.916   0.879   0.213
 4819TIP3    H136016   5.975   0.910   0.282
 4819TIP3    H236017   5.838   0.848   0.260
 4820TIP3   OH236018   4.012   5.544   6.994
 4820TIP3    H136019   4.004   5.539   7.089
 4820TIP3    H236020   4.084   5.606   6.979
 4821TIP3   OH236021   3.579   0.210   6.986
 4821TIP3    H136022   3.501   0.206   7.042
 4821TIP3    H236023   3.643   0.259   7.037
 4822TIP3   OH236024   6.173   4.335   8.709
 4822TIP3    H136025   6.207   4.386   8.636
 4822TIP3    H236026   6.192   4.388   0.006
 4823TIP3   OH236027   0.047   5.524   7.499
 4823TIP3    H136028   6.789   5.504   7.542
 4823TIP3    H236029   0.034   5.612   7.462
 4824TIP3   OH236030   4.843   0.593   1.681
 4824TIP3    H136031   4.849   0.684   1.708
 4824TIP3    H236032   4.781   0.594   1.608
 4825TIP3   OH236033   1.514   5.299   7.242
 4825TIP3    H136034   1.446   5.233   7.226
 4825TIP3    H236035   1.521   5.346   7.159
 4826TIP3   OH236036   2.142   3.255   8.530
 4826TIP3    H136037   2.065   3.211   8.493
 4826TIP3    H236038   2.207   3.186   8.540
 4827TIP3   OH236039   4.479   5.071   0.833
 4827TIP3    H136040   4.549   5.089   0.770
 4827TIP3    H236041   4.524   5.057   0.916
 4828TIP3   OH236042   5.333   3.958   7.580
 4828TIP3    H136043   5.408   3.929   7.528
 4828TIP3    H236044   5.371   4.015   7.647
 4829TIP3   OH236045   0.683   1.844   6.364
 4829TIP3    H136046   0.702   1.863   6.456
 4829TIP3    H236047   0.671   1.749   6.362
 4830TIP3   OH236048   5.731   1.112   8.679
 4830TIP3    H136049   5.687   1.189   8.714
 4830TIP3    H236050   5.662   1.046   8.670
 4831TIP3   OH236051   4.161   3.337   1.087
 4831TIP3    H136052   4.137   3.349   1.179
 4831TIP3    H236053   4.082   3.357   1.038
 4832TIP3   OH236054   4.680   6.816   1.093
 4832TIP3    H136055   4.593   6.814   1.053
 4832TIP3    H236056   4.710   6.725   1.092
 4833TIP3   OH236057   1.083   4.018   7.647
 4833TIP3    H136058   1.112   4.083   7.583
 4833TIP3    H236059   1.031   4.068   7.710
 4834TIP3   OH236060   2.574   6.062   7.328
 4834TIP3    H136061   2.537   5.979   7.357
 4834TIP3    H236062   2.501   6.107   7.285
 4835TIP3   OH236063   4.392   4.807   1.353
 4835TIP3    H136064   4.448   4.866   1.302
 4835TIP3    H236065   4.454   4.753   1.402
 4836TIP3   OH236066   3.320   6.230   7.242
 4836TIP3    H136067   3.398   6.180   7.267
 4836TIP3    H236068   3.272   6.172   7.183
 4837TIP3   OH236069   3.283   2.473   7.249
 4837TIP3    H136070   3.198   2.429   7.249
 4837TIP3    H236071   3.267   2.556   7.293
 4838TIP3   OH236072   3.234   6.022   7.920
 4838TIP3    H136073   3.324   6.052   7.918
 4838TIP3    H236074   3.231   5.950   7.857
 4839TIP3   OH236075   6.538   0.068   0.772
 4839TIP3    H136076   6.575   0.068   0.683
 4839TIP3    H236077   6.585   0.138   0.817
 4840TIP3   OH236078   4.868   2.802   0.043
 4840TIP3    H136079   4.912   2.719   0.027
 4840TIP3    H236080   4.775   2.782   0.039
 4841TIP3   OH236081   5.198   1.902   6.997
 4841TIP3    H136082   5.108   1.887   7.024
 4841TIP3    H236083   5.207   1.997   6.994
 4842TIP3   OH236084   1.612   5.905   0.265
 4842TIP3    H136085   1.648   5.928   0.351
 4842TIP3    H236086   1.525   5.944   0.263
 4843TIP3   OH236087   1.948   0.244   7.694
 4843TIP3    H136088   1.891   0.183   7.647
 4843TIP3    H236089   1.959   0.318   7.634
 4844TIP3   OH236090   6.551   6.808   2.055
 4844TIP3    H136091   6.501   6.808   2.136
 4844TIP3    H236092   6.558   6.716   2.030
 4845TIP3   OH236093   0.532   6.296   6.453
 4845TIP3    H136094   0.466   6.314   6.387
 4845TIP3    H236095   0.579   6.219   6.420
 4846TIP3   OH236096   5.523   0.119   1.210
 4846TIP3    H136097   5.577   0.042   1.228
 4846TIP3    H236098   5.574   0.192   1.246
 4847TIP3   OH236099   3.870   4.556   2.339
 4847TIP3    H136100   3.781   4.525   2.321
 4847TIP3    H236101   3.864   4.601   2.423
 4848TIP3   OH236102   2.421   6.155   7.591
 4848TIP3    H136103   2.439   6.241   7.629
 4848TIP3    H236104   2.406   6.173   7.498
 4849TIP3   OH236105   6.685   3.306   8.044
 4849TIP3    H136106   6.762   3.338   8.091
 4849TIP3    H236107   6.668   3.220   8.083
 4850TIP3   OH236108   0.731   3.458   0.476
 4850TIP3    H136109   0.696   3.372   0.499
 4850TIP3    H236110   0.817   3.461   0.518
 4851TIP3   OH236111   3.244   2.734   7.292
 4851TIP3    H136112   3.213   2.803   7.350
 4851TIP3    H236113   3.169   2.714   7.236
 4852TIP3   OH236114   4.047   4.680   8.246
 4852TIP3    H136115   4.142   4.676   8.244
 4852TIP3    H236116   4.026   4.714   8.333
 4853TIP3   OH236117   6.494   3.452   0.708
 4853TIP3    H136118   6.532   3.517   0.649
 4853TIP3    H236119   6.568   3.396   0.733
 4854TIP3   OH236120   1.585   0.452   0.947
 4854TIP3    H136121   1.530   0.528   0.928
 4854TIP3    H236122   1.522   0.380   0.955
 4855TIP3   OH236123   0.858   5.094   6.831
 4855TIP3    H136124   0.831   5.094   6.923
 4855TIP3    H236125   0.905   5.011   6.819
 4856TIP3   OH236126   2.782   3.851   8.171
 4856TIP3    H136127   2.852   3.894   8.123
 4856TIP3    H236128   2.713   3.917   8.178
 4857TIP3   OH236129   6.141   0.298   1.162
 4857TIP3    H136130   6.180   0.373   1.117
 4857TIP3    H236131   6.080   0.336   1.225
 4858TIP3   OH236132   2.691   6.268   8.062
 4858TIP3    H136133   2.745   6.345   8.077
 4858TIP3    H236134   2.639   6.289   7.984
 4859TIP3   OH236135   3.275   1.127   7.668
 4859TIP3    H136136   3.238   1.210   7.696
 4859TIP3    H236137   3.310   1.089   7.749
 4860TIP3   OH236138   6.628   1.665   7.467
 4860TIP3    H136139   6.594   1.703   7.548
 4860TIP3    H236140   6.567   1.696   7.399
 4861TIP3   OH236141   5.935   3.149   0.181
 4861TIP3    H136142   5.941   3.101   0.264
 4861TIP3    H236143   5.844   3.142   0.155
 4862TIP3   OH236144   3.618   4.918   0.480
 4862TIP3    H136145   3.582   4.839   0.441
 4862TIP3    H236146   3.671   4.886   0.554
 4863TIP3   OH236147   1.300   5.493   6.784
 4863TIP3    H136148   1.332   5.517   6.697
 4863TIP3    H236149   1.215   5.538   6.791
 4864TIP3   OH236150   1.197   0.090   8.312
 4864TIP3    H136151   1.238   0.052   8.234
 4864TIP3    H236152   1.103   0.078   8.298
 4865TIP3   OH236153   5.900   3.462   1.231
 4865TIP3    H136154   5.928   3.496   1.145
 4865TIP3    H236155   5.973   3.409   1.261
 4866TIP3   OH236156   1.187   3.738   6.729
 4866TIP3    H136157   1.152   3.678   6.663
 4866TIP3    H236158   1.254   3.788   6.682
 4867TIP3   OH236159   3.341   3.077   1.773
 4867TIP3    H136160   3.405   3.143   1.747
 4867TIP3    H236161   3.307   3.043   1.691
 4868TIP3   OH236162   2.252   0.213   1.426
 4868TIP3    H136163   2.323   0.277   1.417
 4868TIP3    H236164   2.238   0.179   1.338
 4869TIP3   OH236165   0.620   0.241   0.860
 4869TIP3    H136166   0.590   0.166   0.912
 4869TIP3    H236167   0.691   0.207   0.807
 4870TIP3   OH236168   5.682   4.579   7.931
 4870TIP3    H136169   5.729   4.662   7.928
 4870TIP3    H236170   5.719   4.528   7.859
 4871TIP3   OH236171   3.546   1.425   1.331
 4871TIP3    H136172   3.478   1.485   1.301
 4871TIP3    H236173   3.543   1.432   1.427
 4872TIP3   OH236174   1.410   1.456   8.602
 4872TIP3    H136175   1.316   1.459   8.584
 4872TIP3    H236176   1.447   1.408   8.529
 4873TIP3   OH236177   2.353   4.833   7.165
 4873TIP3    H136178   2.360   4.845   7.071
 4873TIP3    H236179   2.443   4.840   7.197
 4874TIP3   OH236180   0.837   2.229   7.302
 4874TIP3    H136181   0.741   2.230   7.299
 4874TIP3    H236182   0.861   2.146   7.262
 4875TIP3   OH236183   0.256   4.326   6.533
 4875TIP3    H136184   0.188   4.340   6.599
 4875TIP3    H236185   0.214   4.274   6.465
 4876TIP3   OH236186   5.119   0.287   8.217
 4876TIP3    H136187   5.056   0.251   8.279
 4876TIP3    H236188   5.104   0.237   8.136
 4877TIP3   OH236189   0.238   3.306   0.216
 4877TIP3    H136190   0.273   3.224   0.182
 4877TIP3    H236191   0.315   3.361   0.230
 4878TIP3   OH236192   6.629   0.285   7.696
 4878TIP3    H136193   6.658   0.367   7.657
 4878TIP3    H236194   6.678   0.217   7.650
 4879TIP3   OH236195   3.318   4.174   8.106
 4879TIP3    H136196   3.407   4.174   8.143
 4879TIP3    H236197   3.323   4.116   8.030
 4880TIP3   OH236198   1.355   2.646   1.443
 4880TIP3    H136199   1.385   2.715   1.502
 4880TIP3    H236200   1.431   2.589   1.432
 4881TIP3   OH236201   5.090   3.383   0.470
 4881TIP3    H136202   5.035   3.305   0.478
 4881TIP3    H236203   5.029   3.456   0.471
 4882TIP3   OH236204   1.221   2.413   0.503
 4882TIP3    H136205   1.256   2.502   0.501
 4882TIP3    H236206   1.142   2.419   0.558
 4883TIP3   OH236207   3.638   0.676   7.003
 4883TIP3    H136208   3.680   0.762   6.993
 4883TIP3    H236209   3.677   0.623   6.933
 4884TIP3   OH236210   5.121   1.789   7.674
 4884TIP3    H136211   5.214   1.767   7.682
 4884TIP3    H236212   5.113   1.827   7.586
 4885TIP3   OH236213   4.469   0.783   8.768
 4885TIP3    H136214   4.419   0.703   8.749
 4885TIP3    H236215   4.559   0.760   8.748
 4886TIP3   OH236216   0.706   1.978   1.443
 4886TIP3    H136217   0.667   2.004   1.526
 4886TIP3    H236218   0.715   1.883   1.449
 4887TIP3   OH236219   0.590   4.150   1.500
 4887TIP3    H136220   0.656   4.158   1.568
 4887TIP3    H236221   0.592   4.058   1.474
 4888TIP3   OH236222   2.798   5.469   8.534
 4888TIP3    H136223   2.770   5.519   8.611
 4888TIP3    H236224   2.877   5.513   8.505
 4889TIP3   OH236225   0.228   0.334   0.752
 4889TIP3    H136226   0.260   0.258   0.704
 4889TIP3    H236227   0.156   0.300   0.806
 4890TIP3   OH236228   3.743   0.617   0.810
 4890TIP3    H136229   3.681   0.690   0.813
 4890TIP3    H236230   3.777   0.611   0.900
 4891TIP3   OH236231   3.486   3.792   0.813
 4891TIP3    H136232   3.563   3.757   0.767
 4891TIP3    H236233   3.506   3.778   0.906
 4892TIP3   OH236234   6.442   3.082   7.512
 4892TIP3    H136235   6.536   3.071   7.495
 4892TIP3    H236236   6.420   3.013   7.574
 4893TIP3   OH236237   3.858   0.020   1.219
 4893TIP3    H136238   3.788   0.076   1.184
 4893TIP3    H236239   3.878   6.784   1.148
 4894TIP3   OH236240   0.143   1.127   0.773
 4894TIP3    H136241   0.235   1.114   0.795
 4894TIP3    H236242   0.106   1.039   0.767
 4895TIP3   OH236243   1.077   1.150   1.483
 4895TIP3    H136244   1.073   1.156   1.579
 4895TIP3    H236245   1.169   1.138   1.463
 4896TIP3   OH236246   4.244   6.814   0.279
 4896TIP3    H136247   4.297   0.029   0.210
 4896TIP3    H236248   4.223   0.062   0.338
 4897TIP3   OH236249   5.595   5.764   0.932
 4897TIP3    H136250   5.545   5.691   0.896
 4897TIP3    H236251   5.570   5.767   1.024
 4898TIP3   OH236252   6.004   5.551   7.699
 4898TIP3    H136253   5.953   5.574   7.621
 4898TIP3    H236254   6.025   5.635   7.739
 4899TIP3   OH236255   2.171   6.350   1.312
 4899TIP3    H136256   2.246   6.409   1.302
 4899TIP3    H236257   2.195   6.271   1.264
 4900TIP3   OH236258   4.796   2.793   7.050
 4900TIP3    H136259   4.868   2.857   7.044
 4900TIP3    H236260   4.776   2.788   7.143
 4901TIP3   OH236261   3.929   4.029   2.133
 4901TIP3    H136262   3.874   4.007   2.058
 4901TIP3    H236263   3.981   3.951   2.150
 4902TIP3   OH236264   3.105   0.105   1.175
 4902TIP3    H136265   3.117   0.124   1.081
 4902TIP3    H236266   3.174   0.154   1.218
 4903TIP3   OH236267   2.587   3.214   8.503
 4903TIP3    H136268   2.552   3.145   8.446
 4903TIP3    H236269   2.615   3.283   8.443
 4904TIP3   OH236270   4.695   4.665   0.791
 4904TIP3    H136271   4.674   4.643   0.882
 4904TIP3    H236272   4.616   4.642   0.742
 4905TIP3   OH236273   0.587   2.211   8.104
 4905TIP3    H136274   0.671   2.233   8.143
 4905TIP3    H236275   0.530   2.191   8.179
 4906TIP3   OH236276   5.645   0.852   7.466
 4906TIP3    H136277   5.703   0.776   7.466
 4906TIP3    H236278   5.557   0.815   7.455
 4907TIP3   OH236279   6.744   1.781   0.067
 4907TIP3    H136280   6.796   1.747   8.776
 4907TIP3    H236281   6.772   1.730   0.143
 4908TIP3   OH236282   3.876   0.140   7.858
 4908TIP3    H136283   3.903   0.064   7.805
 4908TIP3    H236284   3.942   0.207   7.839
 4909TIP3   OH236285   5.835   1.062   1.951
 4909TIP3    H136286   5.921   1.083   1.987
 4909TIP3    H236287   5.790   1.016   2.022
 4910TIP3   OH236288   0.161   3.125   1.229
 4910TIP3    H136289   0.187   3.194   1.290
 4910TIP3    H236290   0.084   3.160   1.185
 4911TIP3   OH236291   4.514   0.592   8.207
 4911TIP3    H136292   4.426   0.563   8.182
 4911TIP3    H236293   4.500   0.676   8.249
 4912TIP3   OH236294   0.657   2.800   6.717
 4912TIP3    H136295   0.588   2.750   6.674
 4912TIP3    H236296   0.656   2.885   6.673
 4913TIP3   OH236297   3.897   5.910   8.095
 4913TIP3    H136298   3.823   5.852   8.114
 4913TIP3    H236299   3.955   5.899   8.170
 4914TIP3   OH236300   3.311   0.023   8.382
 4914TIP3    H136301   3.314   0.118   8.372
 4914TIP3    H236302   3.226   6.823   8.346
 4915TIP3   OH236303   1.323   5.063   7.229
 4915TIP3    H136304   1.305   5.004   7.156
 4915TIP3    H236305   1.236   5.079   7.267
 4916TIP3   OH236306   5.616   2.008   7.577
 4916TIP3    H136307   5.539   2.058   7.604
 4916TIP3    H236308   5.626   2.028   7.484
 4917TIP3   OH236309   2.766   2.658   6.479
 4917TIP3    H136310   2.685   2.609   6.493
 4917TIP3    H236311   2.813   2.608   6.412
 4918TIP3   OH236312   2.095   1.760   7.120
 4918TIP3    H136313   2.110   1.697   7.050
 4918TIP3    H236314   2.162   1.740   7.185
 4919TIP3   OH236315   2.117   1.858   1.179
 4919TIP3    H136316   2.120   1.950   1.156
 4919TIP3    H236317   2.208   1.835   1.198
 4920TIP3   OH236318   6.471   4.183   1.171
 4920TIP3    H136319   6.451   4.160   1.261
 4920TIP3    H236320   6.423   4.120   1.118
 4921TIP3   OH236321   4.083   4.354   0.962
 4921TIP3    H136322   4.143   4.319   1.027
 4921TIP3    H236323   3.997   4.323   0.989
 4922TIP3   OH236324   0.661   6.109   1.636
 4922TIP3    H136325   0.708   6.193   1.641
 4922TIP3    H236326   0.718   6.053   1.584
 4923TIP3   OH236327   0.730   2.635   0.438
 4923TIP3    H136328   0.777   2.563   0.396
 4923TIP3    H236329   0.770   2.714   0.402
 4924TIP3   OH236330   3.751   4.795   1.092
 4924TIP3    H136331   3.789   4.883   1.099
 4924TIP3    H236332   3.819   4.744   1.047
 4925TIP3   OH236333   1.822   4.425   1.399
 4925TIP3    H136334   1.889   4.413   1.466
 4925TIP3    H236335   1.788   4.513   1.415
 4926TIP3   OH236336   1.467   3.466   0.373
 4926TIP3    H136337   1.412   3.514   0.435
 4926TIP3    H236338   1.525   3.533   0.336
 4927TIP3   OH236339   6.746   5.875   7.800
 4927TIP3    H136340   6.699   5.886   7.883
 4927TIP3    H236341   6.799   5.796   7.812
 4928TIP3   OH236342   2.391   0.565   2.276
 4928TIP3    H136343   2.419   0.486   2.321
 4928TIP3    H236344   2.335   0.610   2.340
 4929TIP3   OH236345   5.900   0.007   1.172
 4929TIP3    H136346   5.905   6.755   1.116
 4929TIP3    H236347   5.846   6.805   1.246
 4930TIP3   OH236348   4.284   5.951   1.493
 4930TIP3    H136349   4.353   5.894   1.459
 4930TIP3    H236350   4.326   6.001   1.563
 4931TIP3   OH236351   4.782   3.201   8.519
 4931TIP3    H136352   4.758   3.127   8.575
 4931TIP3    H236353   4.876   3.212   8.533
 4932TIP3   OH236354   6.302   4.287   1.775
 4932TIP3    H136355   6.317   4.192   1.772
 4932TIP3    H236356   6.247   4.304   1.698
 4933TIP3   OH236357   5.783   6.459   0.127
 4933TIP3    H136358   5.820   6.384   0.173
 4933TIP3    H236359   5.707   6.424   0.081
 4934TIP3   OH236360   2.199   6.188   8.445
 4934TIP3    H136361   2.200   6.271   8.494
 4934TIP3    H236362   2.199   6.214   8.353
 4935TIP3   OH236363   6.510   5.326   0.958
 4935TIP3    H136364   6.587   5.270   0.964
 4935TIP3    H236365   6.441   5.277   1.001
 4936TIP3   OH236366   0.074   4.641   1.299
 4936TIP3    H136367   0.090   4.558   1.253
 4936TIP3    H236368   0.156   4.658   1.346
 4937TIP3   OH236369   4.359   3.546   1.690
 4937TIP3    H136370   4.421   3.605   1.733
 4937TIP3    H236371   4.367   3.463   1.738
 4938TIP3   OH236372   0.343   2.034   1.406
 4938TIP3    H136373   0.383   1.982   1.336
 4938TIP3    H236374   0.249   2.022   1.394
 4939TIP3   OH236375   5.484   5.767   1.180
 4939TIP3    H136376   5.429   5.809   1.246
 4939TIP3    H236377   5.528   5.696   1.227
 4940TIP3   OH236378   1.218   2.962   1.909
 4940TIP3    H136379   1.176   2.950   1.994
 4940TIP3    H236380   1.268   2.881   1.895
 4941TIP3   OH236381   6.326   6.799   1.541
 4941TIP3    H136382   6.379   6.741   1.597
 4941TIP3    H236383   6.389   0.019   1.486
 4942TIP3   OH236384   6.807   4.727   1.761
 4942TIP3    H136385   6.714   4.745   1.745
 4942TIP3    H236386   6.824   4.764   1.847
 4943TIP3   OH236387   5.164   5.989   7.410
 4943TIP3    H136388   5.221   5.983   7.333
 4943TIP3    H236389   5.075   5.983   7.375
 4944TIP3   OH236390   0.237   1.947   8.491
 4944TIP3    H136391   0.153   1.985   8.464
 4944TIP3    H236392   0.254   1.986   8.576
 4945TIP3   OH236393   5.775   6.718   0.072
 4945TIP3    H136394   5.763   6.626   0.094
 4945TIP3    H236395   5.736   6.727   8.765
 4946TIP3   OH236396   5.637   5.658   7.996
 4946TIP3    H136397   5.542   5.663   7.995
 4946TIP3    H236398   5.658   5.583   7.940
 4947TIP3   OH236399   5.957   5.292   8.293
 4947TIP3    H136400   6.012   5.340   8.231
 4947TIP3    H236401   5.880   5.349   8.304
 4948TIP3   OH236402   4.036   2.765   0.775
 4948TIP3    H136403   3.977   2.820   0.827
 4948TIP3    H236404   4.116   2.760   0.828
 4949TIP3   OH236405   0.218   4.327   2.304
 4949TIP3    H136406   0.227   4.384   2.228
 4949TIP3    H236407   0.123   4.324   2.320
 4950TIP3   OH236408   0.010   4.345   0.532
 4950TIP3    H136409   6.805   4.409   0.467
 4950TIP3    H236410   6.787   4.265   0.511
 4951TIP3   OH236411   5.973   4.203   2.054
 4951TIP3    H136412   6.022   4.144   1.997
 4951TIP3    H236413   6.034   4.224   2.125
 4952TIP3   OH236414   1.636   5.871   0.882
 4952TIP3    H136415   1.718   5.840   0.921
 4952TIP3    H236416   1.619   5.954   0.926
 4953TIP3   OH236417   5.178   4.816   6.755
 4953TIP3    H136418   5.219   4.901   6.735
 4953TIP3    H236419   5.244   4.769   6.806
 4954TIP3   OH236420   1.386   5.285   0.871
 4954TIP3    H136421   1.340   5.314   0.949
 4954TIP3    H236422   1.377   5.189   0.872
 4955TIP3   OH236423   3.368   1.119   0.177
 4955TIP3    H136424   3.431   1.190   0.158
 4955TIP3    H236425   3.329   1.099   0.092
 4956TIP3   OH236426   0.417   2.148   6.386
 4956TIP3    H136427   0.365   2.211   6.337
 4956TIP3    H236428   0.496   2.137   6.333
 4957TIP3   OH236429   4.412   1.747   2.304
 4957TIP3    H136430   4.467   1.793   2.367
 4957TIP3    H236431   4.446   1.658   2.301
 4958TIP3   OH236432   1.803   6.234   7.702
 4958TIP3    H136433   1.765   6.316   7.669
 4958TIP3    H236434   1.866   6.208   7.635
 4959TIP3   OH236435   6.066   2.419   0.170
 4959TIP3    H136436   6.109   2.504   0.177
 4959TIP3    H236437   6.080   2.379   0.256
 4960TIP3   OH236438   6.068   3.073   7.686
 4960TIP3    H136439   6.101   3.034   7.767
 4960TIP3    H236440   5.992   3.019   7.664
 4961TIP3   OH236441   1.711   1.081   8.200
 4961TIP3    H136442   1.785   1.143   8.202
 4961TIP3    H236443   1.703   1.057   8.108
 4962TIP3   OH236444   4.462   1.617   7.098
 4962TIP3    H136445   4.539   1.593   7.149
 4962TIP3    H236446   4.483   1.703   7.062
 4963TIP3   OH236447   3.037   1.660   7.562
 4963TIP3    H136448   3.100   1.606   7.514
 4963TIP3    H236449   3.090   1.728   7.603
 4964TIP3   OH236450   5.639   4.491   0.380
 4964TIP3    H136451   5.595   4.406   0.392
 4964TIP3    H236452   5.570   4.556   0.392
 4965TIP3   OH236453   2.197   3.040   1.542
 4965TIP3    H136454   2.129   2.987   1.502
 4965TIP3    H236455   2.278   2.992   1.526
 4966TIP3   OH236456   1.389   2.405   7.579
 4966TIP3    H136457   1.301   2.442   7.585
 4966TIP3    H236458   1.438   2.469   7.528
 4967TIP3   OH236459   5.389   6.176   0.930
 4967TIP3    H136460   5.415   6.248   0.873
 4967TIP3    H236461   5.346   6.218   1.005
 4968TIP3   OH236462   1.991   0.020   7.881
 4968TIP3    H136463   2.062   0.080   7.903
 4968TIP3    H236464   1.961   6.812   7.966
 4969TIP3   OH236465   1.962   2.614   7.608
 4969TIP3    H136466   1.934   2.697   7.648
 4969TIP3    H236467   2.015   2.641   7.533
 4970TIP3   OH236468   6.095   1.436   1.032
 4970TIP3    H136469   6.079   1.402   0.944
 4970TIP3    H236470   6.113   1.529   1.019
 4971TIP3   OH236471   2.933   1.998   6.743
 4971TIP3    H136472   2.928   1.906   6.771
 4971TIP3    H236473   2.980   1.995   6.660
 4972TIP3   OH236474   1.910   5.055   8.384
 4972TIP3    H136475   1.964   5.133   8.392
 4972TIP3    H236476   1.944   5.010   8.306
 4973TIP3   OH236477   5.717   4.925   7.354
 4973TIP3    H136478   5.671   5.005   7.376
 4973TIP3    H236479   5.652   4.856   7.365
 4974TIP3   OH236480   3.258   3.288   0.059
 4974TIP3    H136481   3.275   3.375   0.093
 4974TIP3    H236482   3.345   3.252   0.042
 4975TIP3   OH236483   1.200   4.050   6.558
 4975TIP3    H136484   1.124   4.080   6.508
 4975TIP3    H236485   1.275   4.089   6.513
 4976TIP3   OH236486   5.788   4.057   0.594
 4976TIP3    H136487   5.803   4.001   0.670
 4976TIP3    H236488   5.734   4.004   0.536
 4977TIP3   OH236489   1.342   4.163   7.103
 4977TIP3    H136490   1.299   4.108   7.038
 4977TIP3    H236491   1.280   4.234   7.120
 4978TIP3   OH236492   6.317   0.443   1.530
 4978TIP3    H136493   6.226   0.474   1.532
 4978TIP3    H236494   6.323   0.391   1.450
 4979TIP3   OH236495   1.527   4.594   1.008
 4979TIP3    H136496   1.497   4.528   1.071
 4979TIP3    H236497   1.608   4.559   0.972
 4980TIP3   OH236498   4.285   1.764   2.585
 4980TIP3    H136499   4.257   1.833   2.524
 4980TIP3    H236500   4.381   1.771   2.586
 4981TIP3   OH236501   0.655   0.561   7.837
 4981TIP3    H136502   0.673   0.531   7.926
 4981TIP3    H236503   0.690   0.491   7.781
 4982TIP3   OH236504   5.898   6.378   1.649
 4982TIP3    H136505   5.877   6.353   1.559
 4982TIP3    H236506   5.828   6.337   1.701
 4983TIP3   OH236507   5.420   0.883   1.099
 4983TIP3    H136508   5.381   0.802   1.132
 4983TIP3    H236509   5.350   0.948   1.105
 4984TIP3   OH236510   1.874   6.767   0.708
 4984TIP3    H136511   1.882   0.018   0.651
 4984TIP3    H236512   1.780   6.747   0.709
 4985TIP3   OH236513   6.300   5.299   6.695
 4985TIP3    H136514   6.275   5.209   6.718
 4985TIP3    H236515   6.395   5.298   6.692
 4986TIP3   OH236516   4.667   3.572   7.098
 4986TIP3    H136517   4.604   3.514   7.141
 4986TIP3    H236518   4.615   3.648   7.073
 4987TIP3   OH236519   6.665   1.566   0.820
 4987TIP3    H136520   6.758   1.577   0.802
 4987TIP3    H236521   6.631   1.655   0.829
 4988TIP3   OH236522   2.322   2.096   0.903
 4988TIP3    H136523   2.328   2.005   0.872
 4988TIP3    H236524   2.319   2.149   0.824
 4989TIP3   OH236525   4.273   6.722   7.609
 4989TIP3    H136526   4.206   6.716   7.677
 4989TIP3    H236527   4.242   6.789   7.549
 4990TIP3   OH236528   5.895   4.875   0.276
 4990TIP3    H136529   5.890   4.822   0.196
 4990TIP3    H236530   5.950   4.825   0.335
 4991TIP3   OH236531   5.076   5.162   1.817
 4991TIP3    H136532   5.017   5.089   1.836
 4991TIP3    H236533   5.164   5.126   1.831
 4992TIP3   OH236534   2.867   2.805   8.088
 4992TIP3    H136535   2.935   2.866   8.058
 4992TIP3    H236536   2.902   2.718   8.069
 4993TIP3   OH236537   2.904   6.510   7.291
 4993TIP3    H136538   2.849   6.497   7.368
 4993TIP3    H236539   2.986   6.545   7.325
 4994TIP3   OH236540   2.893   0.554   8.732
 4994TIP3    H136541   2.921   0.581   8.645
 4994TIP3    H236542   2.972   0.519   8.773
 4995TIP3   OH236543   0.583   6.691   1.881
 4995TIP3    H136544   0.621   6.652   1.960
 4995TIP3    H236545   0.526   6.622   1.846
 4996TIP3   OH236546   3.008   2.883   7.665
 4996TIP3    H136547   2.987   2.938   7.741
 4996TIP3    H236548   3.038   2.800   7.703
 4997TIP3   OH236549   4.129   3.960   7.104
 4997TIP3    H136550   4.197   3.916   7.052
 4997TIP3    H236551   4.055   3.969   7.044
 4998TIP3   OH236552   2.371   2.145   7.469
 4998TIP3    H136553   2.324   2.196   7.403
 4998TIP3    H236554   2.372   2.201   7.547
 4999TIP3   OH236555   4.478   2.987   0.249
 4999TIP3    H136556   4.555   2.930   0.250
 4999TIP3    H236557   4.505   3.062   0.197
 5000TIP3   OH236558   5.481   2.313   0.178
 5000TIP3    H136559   5.561   2.355   0.148
 5000TIP3    H236560   5.489   2.222   0.148
 5001TIP3   OH236561   3.518   4.613   0.793
 5001TIP3    H136562   3.463   4.668   0.849
 5001TIP3    H236563   3.549   4.544   0.851
 5002TIP3   OH236564   3.878   5.993   8.550
 5002TIP3    H136565   3.949   6.018   8.609
 5002TIP3    H236566   3.822   5.936   8.603
 5003TIP3   OH236567   6.688   0.937   0.917
 5003TIP3    H136568   6.684   0.881   0.840
 5003TIP3    H236569   6.754   0.895   0.973
 5004TIP3   OH236570   5.333   2.522   8.275
 5004TIP3    H136571   5.411   2.566   8.309
 5004TIP3    H236572   5.364   2.436   8.247
 5005TIP3   OH236573   5.100   3.516   1.384
 5005TIP3    H136574   5.024   3.568   1.358
 5005TIP3    H236575   5.174   3.578   1.379
 5006TIP3   OH236576   5.082   4.455   1.322
 5006TIP3    H136577   5.011   4.407   1.365
 5006TIP3    H236578   5.039   4.506   1.253
 5007TIP3   OH236579   2.350   5.783   1.231
 5007TIP3    H136580   2.355   5.719   1.159
 5007TIP3    H236581   2.305   5.736   1.301
 5008TIP3   OH236582   3.911   1.974   1.989
 5008TIP3    H136583   3.956   1.911   2.046
 5008TIP3    H236584   3.872   1.921   1.920
 5009TIP3   OH236585   3.523   3.660   6.375
 5009TIP3    H136586   3.536   3.755   6.366
 5009TIP3    H236587   3.428   3.650   6.380
 5010TIP3   OH236588   3.995   5.407   6.414
 5010TIP3    H136589   4.031   5.327   6.376
 5010TIP3    H236590   3.901   5.393   6.415
 5011TIP3   OH236591   0.750   0.068   0.201
 5011TIP3    H136592   0.789   0.026   0.124
 5011TIP3    H236593   0.711   6.821   0.250
 5012TIP3   OH236594   0.612   5.656   1.342
 5012TIP3    H136595   0.594   5.676   1.250
 5012TIP3    H236596   0.525   5.645   1.382
 5013TIP3   OH236597   2.425   3.304   0.784
 5013TIP3    H136598   2.340   3.342   0.760
 5013TIP3    H236599   2.445   3.342   0.870
 5014TIP3   OH236600   4.447   0.479   1.308
 5014TIP3    H136601   4.396   0.415   1.259
 5014TIP3    H236602   4.492   0.428   1.376
 5015TIP3   OH236603   3.986   3.340   6.979
 5015TIP3    H136604   3.939   3.292   7.046
 5015TIP3    H236605   3.925   3.408   6.951
 5016TIP3   OH236606   6.475   4.396   1.009
 5016TIP3    H136607   6.413   4.354   0.949
 5016TIP3    H236608   6.495   4.330   1.075
 5017TIP3   OH236609   0.065   4.965   1.341
 5017TIP3    H136610   0.085   4.874   1.319
 5017TIP3    H236611   6.805   4.961   1.385
 5018TIP3   OH236612   4.351   3.146   8.209
 5018TIP3    H136613   4.305   3.223   8.241
 5018TIP3    H236614   4.283   3.093   8.168
 5019TIP3   OH236615   2.008   1.633   1.861
 5019TIP3    H136616   1.922   1.611   1.825
 5019TIP3    H236617   2.019   1.573   1.935
 5020TIP3   OH236618   3.960   4.773   7.794
 5020TIP3    H136619   3.870   4.756   7.822
 5020TIP3    H236620   3.983   4.699   7.737
 5021TIP3   OH236621   0.651   6.670   6.996
 5021TIP3    H136622   0.595   6.592   6.993
 5021TIP3    H236623   0.734   6.639   7.032
 5022TIP3   OH236624   2.198   5.617   1.379
 5022TIP3    H136625   2.132   5.554   1.349
 5022TIP3    H236626   2.197   5.608   1.474
 5023TIP3   OH236627   5.547   1.996   2.135
 5023TIP3    H136628   5.606   2.045   2.078
 5023TIP3    H236629   5.603   1.927   2.173
 5024TIP3   OH236630   6.313   5.239   8.347
 5024TIP3    H136631   6.353   5.203   8.269
 5024TIP3    H236632   6.359   5.322   8.361
 5025TIP3   OH236633   0.812   2.562   1.177
 5025TIP3    H136634   0.851   2.650   1.180
 5025TIP3    H236635   0.718   2.577   1.184
 5026TIP3   OH236636   1.099   5.673   0.257
 5026TIP3    H136637   1.133   5.583   0.261
 5026TIP3    H236638   1.025   5.668   0.197
 5027TIP3   OH236639   4.364   3.416   1.956
 5027TIP3    H136640   4.434   3.453   2.011
 5027TIP3    H236641   4.339   3.335   2.000
 5028TIP3   OH236642   6.502   1.043   8.072
 5028TIP3    H136643   6.408   1.058   8.066
 5028TIP3    H236644   6.541   1.110   8.016
 5029TIP3   OH236645   5.633   2.950   0.274
 5029TIP3    H136646   5.584   2.898   0.337
 5029TIP3    H236647   5.580   3.028   0.260
 5030TIP3   OH236648   0.810   6.415   0.531
 5030TIP3    H136649   0.733   6.365   0.559
 5030TIP3    H236650   0.811   6.492   0.587
 5031TIP3   OH236651   5.446   6.402   2.194
 5031TIP3    H136652   5.363   6.440   2.164
 5031TIP3    H236653   5.470   6.339   2.126
 5032TIP3   OH236654   4.980   1.152   1.694
 5032TIP3    H136655   5.049   1.217   1.701
 5032TIP3    H236656   4.941   1.148   1.782
 5033TIP3   OH236657   2.889   3.987   7.202
 5033TIP3    H136658   2.861   3.900   7.229
 5033TIP3    H236659   2.815   4.022   7.152
 5034TIP3   OH236660   3.020   4.859   0.568
 5034TIP3    H136661   3.048   4.842   0.658
 5034TIP3    H236662   2.935   4.816   0.562
 5035TIP3   OH236663   4.484   1.342   1.360
 5035TIP3    H136664   4.534   1.277   1.411
 5035TIP3    H236665   4.408   1.361   1.414
 5036TIP3   OH236666   5.158   4.151   1.337
 5036TIP3    H136667   5.148   4.076   1.396
 5036TIP3    H236668   5.197   4.219   1.392
 5037TIP3   OH236669   2.907   2.018   0.341
 5037TIP3    H136670   2.846   1.979   0.403
 5037TIP3    H236671   2.947   2.090   0.390
 5038TIP3   OH236672   1.072   2.483   7.896
 5038TIP3    H136673   0.976   2.479   7.900
 5038TIP3    H236674   1.093   2.450   7.808
 5039TIP3   OH236675   0.071   4.822   2.012
 5039TIP3    H136676   0.025   4.743   2.041
 5039TIP3    H236677   0.059   4.884   2.084
 5040TIP3   OH236678   0.973   1.721   7.024
 5040TIP3    H136679   0.924   1.734   7.105
 5040TIP3    H236680   0.915   1.668   6.969
 5041TIP3   OH236681   2.706   4.979   1.421
 5041TIP3    H136682   2.728   5.019   1.337
 5041TIP3    H236683   2.667   5.050   1.472
 5042TIP3   OH236684   5.399   4.079   7.816
 5042TIP3    H136685   5.428   4.013   7.879
 5042TIP3    H236686   5.465   4.149   7.823
 5043TIP3   OH236687   5.410   0.223   7.299
 5043TIP3    H136688   5.317   0.215   7.323
 5043TIP3    H236689   5.411   0.210   7.205
 5044TIP3   OH236690   4.393   6.459   0.291
 5044TIP3    H136691   4.413   6.499   0.206
 5044TIP3    H236692   4.473   6.410   0.313
 5045TIP3   OH236693   6.777   6.514   8.757
 5045TIP3    H136694   6.742   6.442   8.706
 5045TIP3    H236695   6.707   6.536   0.038
 5046TIP3   OH236696   6.307   0.068   1.002
 5046TIP3    H136697   6.315   0.001   0.934
 5046TIP3    H236698   6.377   0.131   0.983
 5047TIP3   OH236699   4.341   3.644   0.144
 5047TIP3    H136700   4.336   3.610   0.233
 5047TIP3    H236701   4.430   3.678   0.136
 5048TIP3   OH236702   3.534   6.398   0.365
 5048TIP3    H136703   3.585   6.477   0.385
 5048TIP3    H236704   3.558   6.376   0.275
 5049TIP3   OH236705   2.381   2.511   8.616
 5049TIP3    H136706   2.467   2.517   8.574
 5049TIP3    H236707   2.321   2.551   8.552
 5050TIP3   OH236708   3.281   2.356   2.367
 5050TIP3    H136709   3.205   2.409   2.341
 5050TIP3    H236710   3.338   2.418   2.413
 5051TIP3   OH236711   2.334   6.812   0.504
 5051TIP3    H136712   2.243   6.782   0.510
 5051TIP3    H236713   2.341   0.055   0.571
 5052TIP3   OH236714   4.343   6.221   8.036
 5052TIP3    H136715   4.284   6.148   8.055
 5052TIP3    H236716   4.422   6.202   8.086
 5053TIP3   OH236717   2.978   5.764   0.805
 5053TIP3    H136718   3.021   5.758   0.890
 5053TIP3    H236719   2.902   5.707   0.813
 5054TIP3   OH236720   0.307   1.871   8.187
 5054TIP3    H136721   0.376   1.925   8.226
 5054TIP3    H236722   0.225   1.916   8.210
 5055TIP3   OH236723   3.743   1.749   0.234
 5055TIP3    H136724   3.774   1.759   0.144
 5055TIP3    H236725   3.791   1.816   0.284
 5056TIP3   OH236726   0.462   3.905   1.756
 5056TIP3    H136727   0.534   3.891   1.817
 5056TIP3    H236728   0.457   4.001   1.747
 5057TIP3   OH236729   6.058   2.516   7.932
 5057TIP3    H136730   6.112   2.479   8.001
 5057TIP3    H236731   5.968   2.507   7.964
 5058TIP3   OH236732   1.378   4.447   8.272
 5058TIP3    H136733   1.364   4.541   8.282
 5058TIP3    H236734   1.455   4.428   8.325
 5059TIP3   OH236735   6.778   4.328   6.737
 5059TIP3    H136736   0.008   4.372   6.802
 5059TIP3    H236737   6.775   4.389   6.663
 5060TIP3   OH236738   3.464   2.610   8.010
 5060TIP3    H136739   3.522   2.659   7.952
 5060TIP3    H236740   3.509   2.610   8.095
 5061TIP3   OH236741   1.143   3.853   1.079
 5061TIP3    H136742   1.232   3.845   1.045
 5061TIP3    H236743   1.154   3.862   1.174
 5062TIP3   OH236744   4.656   3.356   2.500
 5062TIP3    H136745   4.722   3.356   2.569
 5062TIP3    H236746   4.572   3.351   2.545
 5063TIP3   OH236747   2.038   0.130   8.323
 5063TIP3    H136748   2.022   0.036   8.327
 5063TIP3    H236749   2.116   0.144   8.376
 5064TIP3   OH236750   1.767   6.605   1.435
 5064TIP3    H136751   1.713   6.655   1.374
 5064TIP3    H236752   1.743   6.514   1.420
 5065TIP3   OH236753   6.261   2.803   1.177
 5065TIP3    H136754   6.329   2.807   1.244
 5065TIP3    H236755   6.309   2.815   1.095
 5066TIP3   OH236756   3.040   2.981   7.975
 5066TIP3    H136757   3.051   3.068   7.935
 5066TIP3    H236758   3.127   2.942   7.972
 5067TIP3   OH236759   4.210   3.501   7.979
 5067TIP3    H136760   4.219   3.496   7.884
 5067TIP3    H236761   4.122   3.469   7.996
 5068TIP3   OH236762   4.905   0.202   8.424
 5068TIP3    H136763   4.811   0.205   8.406
 5068TIP3    H236764   4.915   0.252   8.505
 5069TIP3   OH236765   0.334   5.959   0.917
 5069TIP3    H136766   0.285   5.887   0.877
 5069TIP3    H236767   0.267   6.019   0.950
 5070TIP3   OH236768   2.080   5.746   1.932
 5070TIP3    H136769   2.160   5.772   1.977
 5070TIP3    H236770   2.073   5.652   1.949
 5071TIP3   OH236771   0.832   5.356   1.458
 5071TIP3    H136772   0.747   5.336   1.497
 5071TIP3    H236773   0.844   5.450   1.475
 5072TIP3   OH236774   0.873   0.855   0.973
 5072TIP3    H136775   0.844   0.871   0.883
 5072TIP3    H236776   0.912   0.938   1.001
 5073TIP3   OH236777   3.610   1.153   1.198
 5073TIP3    H136778   3.576   1.226   1.250
 5073TIP3    H236779   3.623   1.189   1.111
 5074TIP3   OH236780   2.202   6.482   8.499
 5074TIP3    H136781   2.258   6.558   8.484
 5074TIP3    H236782   2.249   6.430   8.564
 5075TIP3   OH236783   1.895   3.609   6.584
 5075TIP3    H136784   1.983   3.631   6.554
 5075TIP3    H236785   1.845   3.594   6.504
 5076TIP3   OH236786   4.245   4.211   0.421
 5076TIP3    H136787   4.333   4.243   0.442
 5076TIP3    H236788   4.201   4.204   0.506
 5077TIP3   OH236789   3.231   2.400   7.789
 5077TIP3    H136790   3.309   2.346   7.781
 5077TIP3    H236791   3.231   2.429   7.880
 5078TIP3   OH236792   3.402   4.064   8.594
 5078TIP3    H136793   3.418   3.971   8.578
 5078TIP3    H236794   3.362   4.066   8.681
 5079TIP3   OH236795   0.381   4.575   7.295
 5079TIP3    H136796   0.326   4.522   7.351
 5079TIP3    H236797   0.470   4.562   7.328
 5080TIP3   OH236798   6.419   1.566   0.583
 5080TIP3    H136799   6.396   1.506   0.511
 5080TIP3    H236800   6.514   1.558   0.590
 5081TIP3   OH236801   1.050   6.195   8.161
 5081TIP3    H136802   1.123   6.138   8.136
 5081TIP3    H236803   1.084   6.248   8.233
 5082TIP3   OH236804   4.966   4.311   8.361
 5082TIP3    H136805   4.924   4.250   8.299
 5082TIP3    H236806   5.055   4.278   8.370
 5083TIP3   OH236807   5.369   0.258   2.572
 5083TIP3    H136808   5.355   0.165   2.553
 5083TIP3    H236809   5.433   0.286   2.506
 5084TIP3   OH236810   4.056   5.627   1.257
 5084TIP3    H136811   4.061   5.701   1.318
 5084TIP3    H236812   3.963   5.613   1.243
 5085TIP3   OH236813   1.986   1.599   7.826
 5085TIP3    H136814   1.900   1.636   7.806
 5085TIP3    H236815   1.970   1.505   7.835
 5086TIP3   OH236816   3.140   3.477   0.288
 5086TIP3    H136817   3.069   3.542   0.291
 5086TIP3    H236818   3.215   3.526   0.254
 5087TIP3   OH236819   4.943   3.385   7.942
 5087TIP3    H136820   4.917   3.398   8.033
 5087TIP3    H236821   4.911   3.463   7.896
 5088TIP3   OH236822   5.322   1.939   1.894
 5088TIP3    H136823   5.259   2.010   1.905
 5088TIP3    H236824   5.408   1.981   1.905
 5089TIP3   OH236825   4.212   1.092   8.656
 5089TIP3    H136826   4.231   1.090   8.562
 5089TIP3    H236827   4.227   1.183   8.682
 5090TIP3   OH236828   4.521   1.544   1.692
 5090TIP3    H136829   4.522   1.449   1.694
 5090TIP3    H236830   4.475   1.566   1.611
 5091TIP3   OH236831   0.592   6.240   6.727
 5091TIP3    H136832   0.597   6.145   6.716
 5091TIP3    H236833   0.548   6.271   6.648
 5092TIP3   OH236834   4.895   2.181   0.364
 5092TIP3    H136835   4.932   2.096   0.343
 5092TIP3    H236836   4.884   2.224   0.280
 5093TIP3   OH236837   3.605   6.387   0.102
 5093TIP3    H136838   3.666   6.461   0.105
 5093TIP3    H236839   3.540   6.412   0.036
 5094TIP3   OH236840   3.515   0.204   0.880
 5094TIP3    H136841   3.563   0.278   0.842
 5094TIP3    H236842   3.496   0.231   0.969
 5095TIP3   OH236843   2.036   5.149   1.329
 5095TIP3    H136844   2.108   5.189   1.280
 5095TIP3    H236845   2.034   5.058   1.299
 5096TIP3   OH236846   3.606   5.419   1.759
 5096TIP3    H136847   3.591   5.329   1.789
 5096TIP3    H236848   3.662   5.459   1.826
 5097TIP3   OH236849   3.745   4.209   7.158
 5097TIP3    H136850   3.799   4.155   7.100
 5097TIP3    H236851   3.793   4.212   7.241
 5098TIP3   OH236852   6.608   5.786   7.193
 5098TIP3    H136853   6.513   5.788   7.208
 5098TIP3    H236854   6.618   5.738   7.111
 5099TIP3   OH236855   3.410   0.338   1.557
 5099TIP3    H136856   3.432   0.398   1.486
 5099TIP3    H236857   3.315   0.344   1.566
 5100TIP3   OH236858   0.510   6.599   2.648
 5100TIP3    H136859   0.599   6.611   2.613
 5100TIP3    H236860   0.483   6.513   2.616
 5101TIP3   OH236861   4.854   6.152   1.523
 5101TIP3    H136862   4.903   6.126   1.600
 5101TIP3    H236863   4.917   6.199   1.468
 5102TIP3   OH236864   2.471   2.477   0.693
 5102TIP3    H136865   2.413   2.517   0.758
 5102TIP3    H236866   2.506   2.551   0.643
 5103TIP3   OH236867   4.905   1.557   7.069
 5103TIP3    H136868   4.864   1.518   6.992
 5103TIP3    H236869   4.836   1.557   7.136
 5104TIP3   OH236870   4.887   4.460   7.335
 5104TIP3    H136871   4.929   4.420   7.259
 5104TIP3    H236872   4.814   4.510   7.298
 5105TIP3   OH236873   2.136   2.935   7.300
 5105TIP3    H136874   2.138   2.949   7.205
 5105TIP3    H236875   2.224   2.954   7.329
 5106TIP3   OH236876   3.927   4.913   8.692
 5106TIP3    H136877   3.895   4.947   8.608
 5106TIP3    H236878   3.903   4.820   8.691
 5107TIP3   OH236879   1.039   0.070   8.582
 5107TIP3    H136880   1.092   0.149   8.569
 5107TIP3    H236881   0.982   0.067   8.506
 5108TIP3   OH236882   6.523   2.548   7.214
 5108TIP3    H136883   6.509   2.538   7.120
 5108TIP3    H236884   6.463   2.618   7.240
 5109TIP3   OH236885   2.578   2.290   1.377
 5109TIP3    H136886   2.665   2.299   1.339
 5109TIP3    H236887   2.589   2.228   1.449
 5110TIP3   OH236888   0.160   1.609   8.672
 5110TIP3    H136889   0.187   1.519   8.655
 5110TIP3    H236890   0.125   1.640   8.588
 5111TIP3   OH236891   5.870   5.531   1.496
 5111TIP3    H136892   5.840   5.440   1.496
 5111TIP3    H236893   5.929   5.537   1.571
 5112TIP3   OH236894   3.586   2.652   6.384
 5112TIP3    H136895   3.665   2.650   6.439
 5112TIP3    H236896   3.536   2.727   6.416
 5113TIP3   OH236897   6.551   1.175   0.988
 5113TIP3    H136898   6.608   1.105   0.955
 5113TIP3    H236899   6.603   1.219   1.055
 5114TIP3   OH236900   5.316   3.575   8.239
 5114TIP3    H136901   5.331   3.550   8.148
 5114TIP3    H236902   5.309   3.671   8.237
 5115TIP3   OH236903   1.887   1.415   1.619
 5115TIP3    H136904   1.855   1.432   1.530
 5115TIP3    H236905   1.856   1.489   1.670
 5116TIP3   OH236906   5.580   3.808   7.667
 5116TIP3    H136907   5.609   3.885   7.716
 5116TIP3    H236908   5.499   3.781   7.712
 5117TIP3   OH236909   6.389   1.025   7.696
 5117TIP3    H136910   6.398   0.930   7.705
 5117TIP3    H236911   6.364   1.055   7.784
 5118TIP3   OH236912   5.653   6.203   2.331
 5118TIP3    H136913   5.653   6.282   2.277
 5118TIP3    H236914   5.731   6.155   2.305
 5119TIP3   OH236915   3.955   4.517   0.455
 5119TIP3    H136916   3.973   4.591   0.514
 5119TIP3    H236917   3.891   4.551   0.393
 5120TIP3   OH236918   4.251   5.392   7.423
 5120TIP3    H136919   4.342   5.420   7.426
 5120TIP3    H236920   4.212   5.427   7.503
 5121TIP3   OH236921   4.768   6.530   8.778
 5121TIP3    H136922   4.737   6.449   8.738
 5121TIP3    H236923   4.800   6.583   8.705
 5122TIP3   OH236924   4.670   4.960   6.501
 5122TIP3    H136925   4.675   5.054   6.479
 5122TIP3    H236926   4.635   4.958   6.590
 5123TIP3   OH236927   0.077   1.794   1.782
 5123TIP3    H136928   0.170   1.817   1.773
 5123TIP3    H236929   0.077   1.710   1.827
 5124TIP3   OH236930   5.461   3.167   8.255
 5124TIP3    H136931   5.455   3.240   8.193
 5124TIP3    H236932   5.551   3.136   8.248
 5125TIP3   OH236933   2.726   0.132   7.665
 5125TIP3    H136934   2.668   0.174   7.601
 5125TIP3    H236935   2.725   0.039   7.642
 5126TIP3   OH236936   5.938   5.154   1.918
 5126TIP3    H136937   5.956   5.117   2.003
 5126TIP3    H236938   5.903   5.082   1.866
 5127TIP3   OH236939   2.320   6.295   8.697
 5127TIP3    H136940   2.270   6.301   8.778
 5127TIP3    H236941   2.398   6.244   8.721
 5128TIP3   OH236942   1.747   4.376   7.460
 5128TIP3    H136943   1.698   4.418   7.390
 5128TIP3    H236944   1.722   4.424   7.539
 5129TIP3   OH236945   4.288   1.200   1.991
 5129TIP3    H136946   4.200   1.165   1.979
 5129TIP3    H236947   4.334   1.133   2.040
 5130TIP3   OH236948   2.409   0.023   8.115
 5130TIP3    H136949   2.353   6.791   8.063
 5130TIP3    H236950   2.493   0.024   8.068
 5131TIP3   OH236951   6.645   5.859   8.046
 5131TIP3    H136952   6.663   5.803   8.121
 5131TIP3    H236953   6.571   5.817   8.002
 5132TIP3   OH236954   6.662   1.419   0.214
 5132TIP3    H136955   6.711   1.350   0.170
 5132TIP3    H236956   6.646   1.385   0.302
 5133TIP3   OH236957   5.736   5.381   1.204
 5133TIP3    H136958   5.817   5.411   1.244
 5133TIP3    H236959   5.764   5.322   1.134
 5134TIP3   OH236960   3.837   1.314   8.487
 5134TIP3    H136961   3.879   1.356   8.561
 5134TIP3    H236962   3.750   1.290   8.518
 5135TIP3   OH236963   4.523   5.059   8.481
 5135TIP3    H136964   4.510   4.965   8.467
 5135TIP3    H236965   4.548   5.066   8.573
 5136TIP3   OH236966   4.883   1.128   1.036
 5136TIP3    H136967   4.873   1.175   0.954
 5136TIP3    H236968   4.959   1.071   1.023
 5137TIP3   OH236969   4.558   3.530   2.101
 5137TIP3    H136970   4.644   3.497   2.127
 5137TIP3    H236971   4.519   3.561   2.182
 5138TIP3   OH236972   4.706   5.198   7.739
 5138TIP3    H136973   4.717   5.285   7.778
 5138TIP3    H236974   4.684   5.141   7.812
 5139TIP3   OH236975   4.681   1.066   1.252
 5139TIP3    H136976   4.690   1.155   1.285
 5139TIP3    H236977   4.754   1.055   1.191
 5140TIP3   OH236978   2.767   0.157   8.102
 5140TIP3    H136979   2.713   0.097   8.051
 5140TIP3    H236980   2.857   0.136   8.076
 5141TIP3   OH236981   6.686   6.451   2.287
 5141TIP3    H136982   6.648   6.427   2.371
 5141TIP3    H236983   6.631   6.523   2.256
 5142TIP3   OH236984   4.865   5.675   8.616
 5142TIP3    H136985   4.927   5.670   8.544
 5142TIP3    H236986   4.794   5.616   8.591
 5143TIP3   OH236987   5.146   0.150   7.331
 5143TIP3    H136988   5.123   0.192   7.414
 5143TIP3    H236989   5.109   0.208   7.264
 5144TIP3   OH236990   1.615   3.420   8.742
 5144TIP3    H136991   1.658   3.473   8.675
 5144TIP3    H236992   1.610   3.476   0.038
 5145TIP3   OH236993   1.393   2.447   6.744
 5145TIP3    H136994   1.351   2.519   6.791
 5145TIP3    H236995   1.378   2.466   6.652
 5146TIP3   OH236996   6.193   0.907   8.644
 5146TIP3    H136997   6.116   0.934   8.693
 5146TIP3    H236998   6.179   0.941   8.556
 5147TIP3   OH236999   3.569   5.020   1.274
 5147TIP3    H137000   3.554   4.929   1.303
 5147TIP3    H237001   3.482   5.060   1.278
 5148TIP3   OH237002   1.907   5.038   0.533
 5148TIP3    H137003   2.001   5.025   0.529
 5148TIP3    H237004   1.894   5.132   0.522
 5149TIP3   OH237005   6.565   2.817   8.422
 5149TIP3    H137006   6.573   2.789   8.330
 5149TIP3    H237007   6.472   2.809   8.442
 5150TIP3   OH237008   2.807   6.423   1.880
 5150TIP3    H137009   2.724   6.376   1.869
 5150TIP3    H237010   2.781   6.512   1.901
 5151TIP3   OH237011   4.376   1.709   1.870
 5151TIP3    H137012   4.433   1.664   1.807
 5151TIP3    H237013   4.351   1.641   1.932
 5152TIP3   OH237014   1.002   2.811   2.137
 5152TIP3    H137015   1.000   2.849   2.225
 5152TIP3    H237016   0.919   2.836   2.098
 5153TIP3   OH237017   0.003   3.701   2.271
 5153TIP3    H137018   0.043   3.619   2.300
 5153TIP3    H237019   0.059   3.769   2.309
 5154TIP3   OH237020   3.317   6.547   0.479
 5154TIP3    H137021   3.359   6.626   0.512
 5154TIP3    H237022   3.380   6.510   0.416
 5155TIP3   OH237023   3.486   3.116   8.012
 5155TIP3    H137024   3.500   3.116   8.107
 5155TIP3    H237025   3.403   3.162   8.000
 5156TIP3   OH237026   5.532   4.396   8.403
 5156TIP3    H137027   5.462   4.461   8.394
 5156TIP3    H237028   5.613   4.447   8.391
 5157TIP3   OH237029   4.651   1.365   7.575
 5157TIP3    H137030   4.674   1.411   7.656
 5157TIP3    H237031   4.635   1.435   7.512
 5158TIP3   OH237032   1.287   1.282   1.655
 5158TIP3    H137033   1.319   1.194   1.677
 5158TIP3    H237034   1.365   1.331   1.631
 5159TIP3   OH237035   5.934   4.381   7.012
 5159TIP3    H137036   5.848   4.364   6.972
 5159TIP3    H237037   5.917   4.377   7.106
 5160TIP3   OH237038   0.830   5.090   0.637
 5160TIP3    H137039   0.855   5.021   0.577
 5160TIP3    H237040   0.801   5.162   0.581
 5161TIP3   OH237041   1.701   5.539   8.214
 5161TIP3    H137042   1.654   5.472   8.263
 5161TIP3    H237043   1.787   5.543   8.255
 5162TIP3   OH237044   2.586   0.293   0.736
 5162TIP3    H137045   2.528   0.269   0.809
 5162TIP3    H237046   2.604   0.211   0.691
 5163TIP3   OH237047   4.428   0.807   8.384
 5163TIP3    H137048   4.402   0.801   8.476
 5163TIP3    H237049   4.435   0.900   8.367
 5164TIP3   OH237050   4.982   1.590   0.566
 5164TIP3    H137051   5.046   1.588   0.495
 5164TIP3    H237052   5.030   1.625   0.641
 5165TIP3   OH237053   6.190   2.124   0.128
 5165TIP3    H137054   6.176   2.203   0.180
 5165TIP3    H237055   6.284   2.105   0.138
 5166TIP3   OH237056   2.210   4.513   1.296
 5166TIP3    H137057   2.262   4.576   1.346
 5166TIP3    H237058   2.270   4.440   1.279
 5167TIP3   OH237059   3.353   4.014   6.816
 5167TIP3    H137060   3.378   4.039   6.905
 5167TIP3    H237061   3.299   3.935   6.827
 5168TIP3   OH237062   5.713   3.203   7.761
 5168TIP3    H137063   5.638   3.232   7.708
 5168TIP3    H237064   5.724   3.273   7.825
 5169TIP3   OH237065   6.095   1.301   0.049
 5169TIP3    H137066   6.003   1.323   0.066
 5169TIP3    H237067   6.092   1.235   8.761
 5170TIP3   OH237068   4.412   4.163   0.706
 5170TIP3    H137069   4.476   4.184   0.775
 5170TIP3    H237070   4.448   4.202   0.627
 5171TIP3   OH237071   3.170   3.238   6.424
 5171TIP3    H137072   3.118   3.316   6.409
 5171TIP3    H237073   3.258   3.261   6.395
 5172TIP3   OH237074   1.991   5.432   1.304
 5172TIP3    H137075   1.986   5.337   1.317
 5172TIP3    H237076   1.938   5.448   1.226
 5173TIP3   OH237077   2.620   3.366   7.358
 5173TIP3    H137078   2.705   3.403   7.339
 5173TIP3    H237079   2.638   3.294   7.418
 5174TIP3   OH237080   5.247   6.313   1.179
 5174TIP3    H137081   5.209   6.233   1.217
 5174TIP3    H237082   5.236   6.379   1.246
 5175TIP3   OH237083   5.861   1.769   8.112
 5175TIP3    H137084   5.952   1.763   8.084
 5175TIP3    H237085   5.866   1.784   8.207
 5176TIP3   OH237086   6.574   1.994   6.443
 5176TIP3    H137087   6.649   1.971   6.388
 5176TIP3    H237088   6.554   2.084   6.419
 5177TIP3   OH237089   4.648   0.463   2.138
 5177TIP3    H137090   4.568   0.505   2.108
 5177TIP3    H237091   4.659   0.388   2.080
 5178TIP3   OH237092   5.896   1.900   7.350
 5178TIP3    H137093   5.845   1.981   7.348
 5178TIP3    H237094   5.842   1.839   7.400
 5179TIP3   OH237095   4.048   1.822   6.630
 5179TIP3    H137096   3.985   1.750   6.641
 5179TIP3    H237097   4.132   1.783   6.653
 5180TIP3   OH237098   3.830   2.014   7.504
 5180TIP3    H137099   3.864   2.034   7.591
 5180TIP3    H237100   3.903   1.973   7.457
 5181TIP3   OH237101   1.936   6.718   6.801
 5181TIP3    H137102   1.936   6.788   6.866
 5181TIP3    H237103   1.894   6.757   6.724
 5182TIP3   OH237104   3.370   6.481   8.774
 5182TIP3    H137105   3.368   6.403   8.718
 5182TIP3    H237106   3.288   6.527   8.754
 5183TIP3   OH237107   3.891   2.091   1.676
 5183TIP3    H137108   3.809   2.131   1.645
 5183TIP3    H237109   3.899   2.121   1.767
 5184TIP3   OH237110   3.400   5.364   2.240
 5184TIP3    H137111   3.312   5.398   2.251
 5184TIP3    H237112   3.389   5.280   2.195
 5185TIP3   OH237113   2.473   1.420   1.804
 5185TIP3    H137114   2.526   1.372   1.740
 5185TIP3    H237115   2.524   1.416   1.885
 5186TIP3   OH237116   5.376   1.551   8.535
 5186TIP3    H137117   5.380   1.595   8.620
 5186TIP3    H237118   5.458   1.575   8.492
 5187TIP3   OH237119   1.623   3.279   2.002
 5187TIP3    H137120   1.645   3.326   1.921
 5187TIP3    H237121   1.707   3.247   2.035
 5188TIP3   OH237122   6.458   2.062   8.021
 5188TIP3    H137123   6.516   2.132   8.051
 5188TIP3    H237124   6.516   1.986   8.008
 5189TIP3   OH237125   0.005   0.389   7.886
 5189TIP3    H137126   6.759   0.333   7.853
 5189TIP3    H237127   0.001   0.379   7.981
 5190TIP3   OH237128   5.232   2.596   7.699
 5190TIP3    H137129   5.226   2.581   7.793
 5190TIP3    H237130   5.233   2.692   7.690
 5191TIP3   OH237131   3.067   3.975   7.705
 5191TIP3    H137132   3.137   3.912   7.686
 5191TIP3    H237133   3.087   4.009   7.792
 5192TIP3   OH237134   6.113   1.714   1.067
 5192TIP3    H137135   6.136   1.768   1.143
 5192TIP3    H237136   6.061   1.772   1.011
 5193TIP3   OH237137   3.539   5.768   7.393
 5193TIP3    H137138   3.564   5.722   7.313
 5193TIP3    H237139   3.566   5.710   7.464
 5194TIP3   OH237140   0.653   4.740   8.589
 5194TIP3    H137141   0.586   4.673   8.575
 5194TIP3    H237142   0.703   4.742   8.508
 5195TIP3   OH237143   3.530   3.737   7.134
 5195TIP3    H137144   3.519   3.793   7.057
 5195TIP3    H237145   3.598   3.780   7.185
 5196TIP3   OH237146   1.036   1.212   0.688
 5196TIP3    H137147   1.066   1.237   0.776
 5196TIP3    H237148   1.111   1.231   0.631
 5197TIP3   OH237149   2.276   1.092   1.051
 5197TIP3    H137150   2.195   1.115   1.005
 5197TIP3    H237151   2.287   0.998   1.034
 5198TIP3   OH237152   0.335   5.914   2.507
 5198TIP3    H137153   0.407   5.934   2.447
 5198TIP3    H237154   0.338   5.985   2.572
 5199TIP3   OH237155   3.478   2.516   0.476
 5199TIP3    H137156   3.403   2.467   0.510
 5199TIP3    H237157   3.513   2.563   0.552
 5200TIP3   OH237158   3.594   4.182   1.214
 5200TIP3    H137159   3.505   4.149   1.201
 5200TIP3    H237160   3.647   4.136   1.149
 5201TIP3   OH237161   0.629   5.412   8.521
 5201TIP3    H137162   0.663   5.471   8.454
 5201TIP3    H237163   0.651   5.456   8.604
 5202TIP3   OH237164   0.005   0.384   7.356
 5202TIP3    H137165   6.772   0.434   7.298
 5202TIP3    H237166   6.812   0.419   7.443
 5203TIP3   OH237167   6.164   0.380   0.407
 5203TIP3    H137168   6.233   0.314   0.406
 5203TIP3    H237169   6.093   0.339   0.456
 5204TIP3   OH237170   1.063   5.110   8.645
 5204TIP3    H137171   0.976   5.119   8.683
 5204TIP3    H237172   1.046   5.089   8.553
 5205TIP3   OH237173   0.860   2.352   0.880
 5205TIP3    H137174   0.844   2.267   0.840
 5205TIP3    H237175   0.845   2.338   0.974
 5206TIP3   OH237176   3.065   2.948   7.101
 5206TIP3    H137177   3.021   3.008   7.162
 5206TIP3    H237178   3.005   2.940   7.027
 5207TIP3   OH237179   3.855   1.589   6.670
 5207TIP3    H137180   3.848   1.530   6.746
 5207TIP3    H237181   3.830   1.535   6.596
 5208TIP3   OH237182   1.864   2.130   8.020
 5208TIP3    H137183   1.919   2.082   8.081
 5208TIP3    H237184   1.910   2.213   8.007
 5209TIP3   OH237185   3.924   4.530   1.574
 5209TIP3    H137186   4.009   4.498   1.546
 5209TIP3    H237187   3.923   4.519   1.669
 5210TIP3   OH237188   1.524   0.511   8.176
 5210TIP3    H137189   1.522   0.419   8.148
 5210TIP3    H237190   1.478   0.558   8.105
 5211TIP3   OH237191   6.645   2.036   7.504
 5211TIP3    H137192   6.562   2.074   7.473
 5211TIP3    H237193   6.691   2.110   7.544
 5212TIP3   OH237194   3.394   2.928   0.014
 5212TIP3    H137195   3.310   2.894   8.763
 5212TIP3    H237196   3.379   2.948   0.106
 5213TIP3   OH237197   2.984   4.923   8.211
 5213TIP3    H137198   3.021   4.981   8.144
 5213TIP3    H237199   2.927   4.980   8.262
 5214TIP3   OH237200   2.096   6.267   7.868
 5214TIP3    H137201   2.187   6.250   7.893
 5214TIP3    H237202   2.082   6.213   7.790
 5215TIP3   OH237203   6.582   1.222   1.508
 5215TIP3    H137204   6.632   1.221   1.427
 5215TIP3    H237205   6.601   1.308   1.547
 5216TIP3   OH237206   2.774   3.558   8.444
 5216TIP3    H137207   2.847   3.603   8.400
 5216TIP3    H237208   2.752   3.486   8.385
 5217TIP3   OH237209   4.245   5.112   0.307
 5217TIP3    H137210   4.187   5.068   0.245
 5217TIP3    H237211   4.266   5.196   0.266
 5218TIP3   OH237212   0.795   6.682   0.626
 5218TIP3    H137213   0.710   6.717   0.599
 5218TIP3    H237214   0.858   6.724   0.569
 5219TIP3   OH237215   6.132   3.316   7.253
 5219TIP3    H137216   6.203   3.254   7.267
 5219TIP3    H237217   6.136   3.336   7.159
 5220TIP3   OH237218   1.071   6.291   6.789
 5220TIP3    H137219   1.015   6.216   6.770
 5220TIP3    H237220   1.118   6.307   6.707
 5221TIP3   OH237221   0.800   2.005   7.136
 5221TIP3    H137222   0.835   2.083   7.093
 5221TIP3    H237223   0.749   1.961   7.069
 5222TIP3   OH237224   5.862   6.315   7.602
 5222TIP3    H137225   5.915   6.245   7.640
 5222TIP3    H237226   5.909   6.341   7.523
 5223TIP3   OH237227   3.560   3.200   7.305
 5223TIP3    H137228   3.470   3.173   7.320
 5223TIP3    H237229   3.579   3.262   7.376
 5224TIP3   OH237230   0.285   0.507   0.266
 5224TIP3    H137231   0.320   0.486   0.180
 5224TIP3    H237232   0.355   0.484   0.327
 5225TIP3   OH237233   3.064   2.916   2.069
 5225TIP3    H137234   2.976   2.879   2.069
 5225TIP3    H237235   3.097   2.900   1.980
 5226TIP3   OH237236   6.721   3.960   7.060
 5226TIP3    H137237   6.658   3.908   7.010
 5226TIP3    H237238   6.772   4.007   6.994
 5227TIP3   OH237239   0.102   4.529   0.217
 5227TIP3    H137240   0.101   4.469   0.143
 5227TIP3    H237241   0.120   4.615   0.178
 5228TIP3   OH237242   0.487   6.160   0.066
 5228TIP3    H137243   0.561   6.204   0.108
 5228TIP3    H237244   0.410   6.199   0.107
 5229TIP3   OH237245   2.886   1.034   2.058
 5229TIP3    H137246   2.948   1.103   2.082
 5229TIP3    H237247   2.854   1.059   1.972
 5230TIP3   OH237248   1.930   6.561   7.042
 5230TIP3    H137249   1.840   6.528   7.033
 5230TIP3    H237250   1.944   6.614   6.964
 5231TIP3   OH237251   2.882   0.163   1.535
 5231TIP3    H137252   2.928   0.234   1.490
 5231TIP3    H237253   2.818   0.132   1.471
 5232TIP3   OH237254   1.457   5.535   6.572
 5232TIP3    H137255   1.431   5.474   6.502
 5232TIP3    H237256   1.535   5.579   6.537
 5233TIP3   OH237257   0.983   2.137   7.933
 5233TIP3    H137258   1.073   2.166   7.949
 5233TIP3    H237259   0.937   2.215   7.905
 5234TIP3   OH237260   1.852   2.052   1.202
 5234TIP3    H137261   1.924   2.104   1.166
 5234TIP3    H237262   1.888   2.014   1.282
 5235TIP3   OH237263   0.878   6.778   8.759
 5235TIP3    H137264   0.948   6.815   8.706
 5235TIP3    H237265   0.807   6.761   8.697
 5236TIP3   OH237266   6.780   3.711   8.670
 5236TIP3    H137267   6.728   3.631   8.676
 5236TIP3    H237268   6.715   3.781   8.660
 5237TIP3   OH237269   2.992   6.129   2.027
 5237TIP3    H137270   2.978   6.034   2.032
 5237TIP3    H237271   3.034   6.151   2.110
 5238TIP3   OH237272   4.954   4.551   0.389
 5238TIP3    H137273   5.024   4.575   0.450
 5238TIP3    H237274   4.877   4.599   0.421
 5239TIP3   OH237275   6.749   6.271   8.609
 5239TIP3    H137276   6.814   6.220   8.658
 5239TIP3    H237277   6.767   6.251   8.517
 5240TIP3   OH237278   5.336   0.898   7.346
 5240TIP3    H137279   5.352   0.954   7.270
 5240TIP3    H237280   5.241   0.906   7.362
 5241TIP3   OH237281   5.574   1.728   7.698
 5241TIP3    H137282   5.572   1.810   7.650
 5241TIP3    H237283   5.655   1.731   7.748
 5242TIP3   OH237284   4.785   5.912   0.778
 5242TIP3    H137285   4.828   5.954   0.703
 5242TIP3    H237286   4.829   5.828   0.788
 5243TIP3   OH237287   1.868   5.697   0.213
 5243TIP3    H137288   1.903   5.757   0.147
 5243TIP3    H237289   1.928   5.705   0.287
 5244TIP3   OH237290   2.665   4.839   7.123
 5244TIP3    H137291   2.647   4.807   7.034
 5244TIP3    H237292   2.727   4.912   7.110
 5245TIP3   OH237293   2.315   3.859   1.734
 5245TIP3    H137294   2.375   3.913   1.785
 5245TIP3    H237295   2.228   3.879   1.769
 5246TIP3   OH237296   5.302   5.572   1.603
 5246TIP3    H137297   5.376   5.633   1.603
 5246TIP3    H237298   5.236   5.614   1.548
 5247TIP3   OH237299   6.238   3.299   1.844
 5247TIP3    H137300   6.179   3.252   1.785
 5247TIP3    H237301   6.184   3.316   1.921
 5248TIP3   OH237302   4.951   1.582   0.934
 5248TIP3    H137303   4.903   1.590   1.016
 5248TIP3    H237304   4.929   1.662   0.886
 5249TIP3   OH237305   3.721   0.859   8.136
 5249TIP3    H137306   3.716   0.778   8.187
 5249TIP3    H237307   3.814   0.868   8.116
 5250TIP3   OH237308   6.110   2.965   8.604
 5250TIP3    H137309   6.033   3.021   8.593
 5250TIP3    H237310   6.079   2.892   8.658
 5251TIP3   OH237311   5.970   1.265   8.588
 5251TIP3    H137312   5.973   1.360   8.599
 5251TIP3    H237313   5.879   1.247   8.563
 5252TIP3   OH237314   5.823   3.099   8.585
 5252TIP3    H137315   5.782   3.031   8.639
 5252TIP3    H237316   5.803   3.181   8.631
 5253TIP3   OH237317   5.644   4.638   8.390
 5253TIP3    H137318   5.715   4.650   8.327
 5253TIP3    H237319   5.641   4.721   8.438
 5254TIP3   OH237320   1.714   0.707   6.727
 5254TIP3    H137321   1.774   0.635   6.742
 5254TIP3    H237322   1.763   0.786   6.751
 5255TIP3   OH237323   0.604   4.697   7.965
 5255TIP3    H137324   0.595   4.632   8.035
 5255TIP3    H237325   0.626   4.646   7.888
 5256TIP3   OH237326   6.245   3.033   0.544
 5256TIP3    H137327   6.207   3.041   0.631
 5256TIP3    H237328   6.214   2.948   0.512
 5257TIP3   OH237329   4.326   3.587   1.014
 5257TIP3    H137330   4.418   3.576   1.037
 5257TIP3    H237331   4.285   3.504   1.036
 5258TIP3   OH237332   2.054   5.273   1.582
 5258TIP3    H137333   2.040   5.245   1.491
 5258TIP3    H237334   2.016   5.202   1.635
 5259TIP3   OH237335   1.215   6.334   7.621
 5259TIP3    H137336   1.187   6.261   7.676
 5259TIP3    H237337   1.205   6.302   7.531
 5260TIP3   OH237338   4.009   4.899   1.862
 5260TIP3    H137339   4.057   4.817   1.848
 5260TIP3    H237340   3.973   4.921   1.776
 5261TIP3   OH237341   6.516   4.196   8.461
 5261TIP3    H137342   6.429   4.236   8.453
 5261TIP3    H237343   6.566   4.259   8.512
 5262TIP3   OH237344   0.988   0.468   7.881
 5262TIP3    H137345   1.049   0.437   7.948
 5262TIP3    H237346   0.901   0.445   7.916
 5263TIP3   OH237347   5.283   3.403   1.947
 5263TIP3    H137348   5.371   3.424   1.978
 5263TIP3    H237349   5.295   3.324   1.893
 5264TIP3   OH237350   5.047   2.793   7.852
 5264TIP3    H137351   5.083   2.875   7.816
 5264TIP3    H237352   5.067   2.797   7.945
 5265TIP3   OH237353   5.134   0.816   1.694
 5265TIP3    H137354   5.184   0.872   1.634
 5265TIP3    H237355   5.044   0.848   1.687
 5266TIP3   OH237356   3.252   5.060   8.215
 5266TIP3    H137357   3.267   4.979   8.166
 5266TIP3    H237358   3.340   5.098   8.226
 5267TIP3   OH237359   0.777   5.840   1.771
 5267TIP3    H137360   0.774   5.925   1.815
 5267TIP3    H237361   0.817   5.858   1.686
 5268TIP3   OH237362   3.851   1.229   2.608
 5268TIP3    H137363   3.828   1.203   2.518
 5268TIP3    H237364   3.785   1.293   2.633
 5269TIP3   OH237365   3.338   4.416   1.659
 5269TIP3    H137366   3.361   4.395   1.569
 5269TIP3    H237367   3.266   4.478   1.651
 5270TIP3   OH237368   5.691   2.144   8.481
 5270TIP3    H137369   5.735   2.097   8.552
 5270TIP3    H237370   5.735   2.113   8.401
 5271TIP3   OH237371   5.837   3.519   8.284
 5271TIP3    H137372   5.872   3.433   8.261
 5271TIP3    H237373   5.884   3.544   8.363
 5272TIP3   OH237374   6.195   6.771   1.310
 5272TIP3    H137375   6.216   6.758   1.403
 5272TIP3    H237376   6.202   6.684   1.271
 5273TIP3   OH237377   3.779   1.181   7.451
 5273TIP3    H137378   3.776   1.234   7.371
 5273TIP3    H237379   3.731   1.232   7.516
 5274TIP3   OH237380   5.915   4.601   1.547
 5274TIP3    H137381   5.840   4.652   1.517
 5274TIP3    H237382   5.935   4.635   1.634
 5275TIP3   OH237383   6.324   3.776   0.637
 5275TIP3    H137384   6.294   3.866   0.634
 5275TIP3    H237385   6.418   3.782   0.655
 5276TIP3   OH237386   1.367   0.829   2.015
 5276TIP3    H137387   1.355   0.736   2.000
 5276TIP3    H237388   1.371   0.838   2.110
 5277TIP3   OH237389   6.298   5.552   8.490
 5277TIP3    H137390   6.381   5.505   8.477
 5277TIP3    H237391   6.257   5.507   8.563
 5278TIP3   OH237392   2.784   5.842   8.754
 5278TIP3    H137393   2.806   5.818   8.663
 5278TIP3    H237394   2.838   5.919   8.772
 5279TIP3   OH237395   0.234   3.448   1.776
 5279TIP3    H137396   0.180   3.442   1.854
 5279TIP3    H237397   0.235   3.360   1.740
 5280TIP3   OH237398   2.221   4.739   8.382
 5280TIP3    H137399   2.262   4.693   8.456
 5280TIP3    H237400   2.144   4.782   8.420
 5281TIP3   OH237401   1.674   5.062   7.686
 5281TIP3    H137402   1.589   5.047   7.647
 5281TIP3    H237403   1.713   5.132   7.633
 5282TIP3   OH237404   3.627   0.572   7.461
 5282TIP3    H137405   3.645   0.624   7.540
 5282TIP3    H237406   3.585   0.633   7.401
 5283TIP3   OH237407   6.785   5.140   2.574
 5283TIP3    H137408   6.784   5.236   2.569
 5283TIP3    H237409   0.045   5.115   2.539
 5284TIP3   OH237410   6.395   3.983   8.327
 5284TIP3    H137411   6.424   4.006   8.239
 5284TIP3    H237412   6.450   4.036   8.385
 5285TIP3   OH237413   3.217   0.905   0.302
 5285TIP3    H137414   3.144   0.951   0.343
 5285TIP3    H237415   3.283   0.974   0.288
 5286TIP3   OH237416   4.952   3.585   2.203
 5286TIP3    H137417   5.000   3.666   2.220
 5286TIP3    H237418   4.893   3.577   2.278
 5287TIP3   OH237419   3.044   1.541   8.529
 5287TIP3    H137420   2.959   1.581   8.545
 5287TIP3    H237421   3.039   1.456   8.572
 5288TIP3   OH237422   6.188   0.437   8.434
 5288TIP3    H137423   6.206   0.347   8.410
 5288TIP3    H237424   6.271   0.470   8.470
 5289TIP3   OH237425   0.541   5.198   0.866
 5289TIP3    H137426   0.505   5.136   0.930
 5289TIP3    H237427   0.628   5.163   0.846
 5290TIP3   OH237428   5.134   5.382   2.246
 5290TIP3    H137429   5.224   5.369   2.216
 5290TIP3    H237430   5.118   5.309   2.306
 5291TIP3   OH237431   1.855   2.525   8.593
 5291TIP3    H137432   1.819   2.483   8.515
 5291TIP3    H237433   1.781   2.573   8.631
 5292TIP3   OH237434   3.940   5.594   6.600
 5292TIP3    H137435   3.937   5.661   6.531
 5292TIP3    H237436   3.949   5.511   6.552
 5293TIP3   OH237437   3.402   2.182   1.815
 5293TIP3    H137438   3.342   2.257   1.811
 5293TIP3    H237439   3.427   2.176   1.907
 5294TIP3   OH237440   6.794   2.196   0.738
 5294TIP3    H137441   0.009   2.152   0.813
 5294TIP3    H237442   6.754   2.126   0.687
 5295TIP3   OH237443   2.337   2.486   0.269
 5295TIP3    H137444   2.262   2.458   0.322
 5295TIP3    H237445   2.407   2.424   0.292
 5296TIP3   OH237446   0.146   3.295   7.080
 5296TIP3    H137447   0.125   3.207   7.048
 5296TIP3    H237448   0.103   3.354   7.018
 5297TIP3   OH237449   1.390   5.963   1.833
 5297TIP3    H137450   1.301   5.973   1.867
 5297TIP3    H237451   1.384   5.890   1.772
 5298TIP3   OH237452   6.491   4.515   0.730
 5298TIP3    H137453   6.522   4.565   0.805
 5298TIP3    H237454   6.397   4.508   0.743
 5299TIP3   OH237455   6.301   3.970   1.626
 5299TIP3    H137456   6.240   3.908   1.585
 5299TIP3    H237457   6.279   3.967   1.719
 5300TIP3   OH237458   6.415   0.955   8.369
 5300TIP3    H137459   6.458   0.912   8.443
 5300TIP3    H237460   6.336   0.993   8.406
 5301TIP3   OH237461   3.930   2.440   2.284
 5301TIP3    H137462   3.950   2.408   2.372
 5301TIP3    H237463   3.834   2.438   2.279
 5302TIP3   OH237464   5.662   6.346   7.812
 5302TIP3    H137465   5.706   6.302   7.739
 5302TIP3    H237466   5.569   6.333   7.796
 5303TIP3   OH237467   5.332   1.530   1.518
 5303TIP3    H137468   5.398   1.462   1.531
 5303TIP3    H237469   5.382   1.612   1.518
 5304TIP3   OH237470   3.727   0.296   1.669
 5304TIP3    H137471   3.636   0.325   1.680
 5304TIP3    H237472   3.724   0.202   1.683
 5305TIP3   OH237473   0.513   3.085   0.934
 5305TIP3    H137474   0.515   3.148   1.006
 5305TIP3    H237475   0.532   3.136   0.856
 5306TIP3   OH237476   4.324   2.017   8.207
 5306TIP3    H137477   4.283   2.002   8.292
 5306TIP3    H237478   4.353   2.109   8.210
 5307TIP3   OH237479   1.702   2.919   2.418
 5307TIP3    H137480   1.679   3.012   2.425
 5307TIP3    H237481   1.643   2.884   2.352
 5308TIP3   OH237482   1.473   3.336   1.505
 5308TIP3    H137483   1.398   3.382   1.544
 5308TIP3    H237484   1.494   3.267   1.568
 5309TIP3   OH237485   1.647   3.878   6.347
 5309TIP3    H137486   1.652   3.922   6.432
 5309TIP3    H237487   1.675   3.944   6.284
 5310TIP3   OH237488   5.797   2.354   0.200
 5310TIP3    H137489   5.867   2.371   0.137
 5310TIP3    H237490   5.820   2.271   0.240
 5311TIP3   OH237491   5.819   5.782   0.429
 5311TIP3    H137492   5.910   5.761   0.408
 5311TIP3    H237493   5.773   5.776   0.345
 5312TIP3   OH237494   1.599   1.072   0.602
 5312TIP3    H137495   1.530   1.029   0.552
 5312TIP3    H237496   1.618   1.152   0.553
 5313TIP3   OH237497   3.127   3.297   8.138
 5313TIP3    H137498   3.105   3.336   8.223
 5313TIP3    H237499   3.159   3.210   8.160
 5314TIP3   OH237500   3.062   1.561   2.751
 5314TIP3    H137501   3.045   1.563   2.657
 5314TIP3    H237502   3.069   1.467   2.772
 5315TIP3   OH237503   3.178   6.542   6.577
 5315TIP3    H137504   3.171   6.563   6.670
 5315TIP3    H237505   3.188   6.626   6.534
 5316TIP3   OH237506   6.349   6.108   0.344
 5316TIP3    H137507   6.415   6.041   0.360
 5316TIP3    H237508   6.277   6.061   0.302
 5317TIP3   OH237509   2.363   5.761   0.690
 5317TIP3    H137510   2.271   5.779   0.710
 5317TIP3    H237511   2.403   5.848   0.681
 5318TIP3   OH237512   0.097   5.900   1.269
 5318TIP3    H137513   0.091   5.965   1.198
 5318TIP3    H237514   0.176   5.926   1.317
 5319TIP3   OH237515   1.166   3.372   1.192
 5319TIP3    H137516   1.185   3.346   1.282
 5319TIP3    H237517   1.236   3.433   1.169
 5320TIP3   OH237518   5.598   6.685   8.134
 5320TIP3    H137519   5.681   6.642   8.155
 5320TIP3    H237520   5.618   6.736   8.055
 5321TIP3   OH237521   4.647   5.947   7.615
 5321TIP3    H137522   4.720   5.889   7.589
 5321TIP3    H237523   4.595   5.957   7.536
 5322TIP3   OH237524   2.166   3.594   8.140
 5322TIP3    H137525   2.191   3.612   8.230
 5322TIP3    H237526   2.249   3.575   8.095
 5323TIP3   OH237527   0.612   3.560   7.030
 5323TIP3    H137528   0.589   3.604   7.112
 5323TIP3    H237529   0.630   3.469   7.056
 5324TIP3   OH237530   1.854   0.481   6.451
 5324TIP3    H137531   1.840   0.388   6.435
 5324TIP3    H237532   1.945   0.488   6.480
 5325TIP3   OH237533   5.804   1.725   7.840
 5325TIP3    H137534   5.827   1.739   7.932
 5325TIP3    H237535   5.850   1.645   7.816
 5326TIP3   OH237536   0.244   3.737   8.353
 5326TIP3    H137537   0.220   3.648   8.327
 5326TIP3    H237538   0.244   3.736   8.449
 5327TIP3   OH237539   6.104   6.014   0.206
 5327TIP3    H137540   6.071   5.924   0.211
 5327TIP3    H237541   6.118   6.029   0.113
 5328TIP3   OH237542   2.219   0.254   6.391
 5328TIP3    H137543   2.138   0.204   6.405
 5328TIP3    H237544   2.282   0.215   6.451
 5329TIP3   OH237545   0.174   0.234   8.255
 5329TIP3    H137546   0.154   0.288   8.332
 5329TIP3    H237547   0.192   0.147   8.292
 5330TIP3   OH237548   4.334   0.420   2.595
 5330TIP3    H137549   4.284   0.476   2.654
 5330TIP3    H237550   4.398   0.478   2.555
 5331TIP3   OH237551   4.140   6.237   1.577
 5331TIP3    H137552   4.124   6.160   1.631
 5331TIP3    H237553   4.053   6.274   1.563
 5332TIP3   OH237554   2.711   0.069   7.118
 5332TIP3    H137555   2.798   0.068   7.077
 5332TIP3    H237556   2.652   0.041   7.048
 5333TIP3   OH237557   0.467   3.745   8.677
 5333TIP3    H137558   0.385   3.794   8.680
 5333TIP3    H237559   0.499   3.747   8.767
 5334TIP3   OH237560   5.908   0.723   8.578
 5334TIP3    H137561   5.945   0.706   8.491
 5334TIP3    H237562   5.924   0.816   8.593
 5335TIP3   OH237563   0.142   1.978   2.428
 5335TIP3    H137564   0.064   2.004   2.477
 5335TIP3    H237565   0.119   1.996   2.337
 5336TIP3   OH237566   5.590   5.670   6.667
 5336TIP3    H137567   5.518   5.727   6.691
 5336TIP3    H237568   5.553   5.610   6.603
 5337TIP3   OH237569   4.576   5.586   8.073
 5337TIP3    H137570   4.534   5.575   8.158
 5337TIP3    H237571   4.622   5.504   8.057
 5338TIP3   OH237572   0.294   6.358   6.344
 5338TIP3    H137573   0.291   6.295   6.416
 5338TIP3    H237574   0.204   6.362   6.311
 5339TIP3   OH237575   1.260   1.568   0.696
 5339TIP3    H137576   1.350   1.545   0.672
 5339TIP3    H237577   1.269   1.624   0.773
 5340TIP3   OH237578   6.734   4.129   8.249
 5340TIP3    H137579   6.683   4.172   8.180
 5340TIP3    H237580   6.695   4.159   8.330
 5341TIP3   OH237581   6.397   3.409   1.662
 5341TIP3    H137582   6.336   3.407   1.735
 5341TIP3    H237583   6.367   3.339   1.604
 5342TIP3   OH237584   5.476   3.650   1.147
 5342TIP3    H137585   5.406   3.619   1.205
 5342TIP3    H237586   5.527   3.710   1.201
 5343TIP3   OH237587   4.350   0.878   1.957
 5343TIP3    H137588   4.406   0.954   1.972
 5343TIP3    H237589   4.332   0.881   1.863
 5344TIP3   OH237590   1.038   0.283   6.277
 5344TIP3    H137591   1.080   0.245   6.200
 5344TIP3    H237592   1.048   0.216   6.345
 5345TIP3   OH237593   5.880   6.629   2.693
 5345TIP3    H137594   5.838   6.703   2.737
 5345TIP3    H237595   5.964   6.664   2.664
 5346TIP3   OH237596   0.647   0.164   1.759
 5346TIP3    H137597   0.692   0.111   1.826
 5346TIP3    H237598   0.660   0.116   1.678
 5347TIP3   OH237599   3.423   0.162   6.481
 5347TIP3    H137600   3.349   0.222   6.474
 5347TIP3    H237601   3.497   0.212   6.447
 5348TIP3   OH237602   6.480   1.661   0.226
 5348TIP3    H137603   6.560   1.621   0.192
 5348TIP3    H237604   6.410   1.600   0.201
 5349TIP3   OH237605   5.153   5.162   1.059
 5349TIP3    H137606   5.146   5.158   0.963
 5349TIP3    H237607   5.081   5.220   1.085
 5350TIP3   OH237608   2.796   5.310   7.853
 5350TIP3    H137609   2.736   5.256   7.904
 5350TIP3    H237610   2.738   5.368   7.803
 5351TIP3   OH237611   0.283   2.814   8.718
 5351TIP3    H137612   0.329   2.855   8.645
 5351TIP3    H237613   0.352   2.768   8.767
 5352TIP3   OH237614   3.230   5.402   7.489
 5352TIP3    H137615   3.261   5.460   7.559
 5352TIP3    H237616   3.155   5.448   7.452
 5353TIP3   OH237617   0.902   2.963   6.391
 5353TIP3    H137618   0.866   2.975   6.303
 5353TIP3    H237619   0.834   2.996   6.450
 5354TIP3   OH237620   4.175   4.711   1.804
 5354TIP3    H137621   4.204   4.743   1.889
 5354TIP3    H237622   4.242   4.742   1.743
 5355TIP3   OH237623   4.326   5.505   1.982
 5355TIP3    H137624   4.407   5.473   2.021
 5355TIP3    H237625   4.322   5.463   1.896
 5356TIP3   OH237626   0.670   0.484   7.257
 5356TIP3    H137627   0.648   0.494   7.350
 5356TIP3    H237628   0.677   0.574   7.225
 5357TIP3   OH237629   1.147   6.200   8.590
 5357TIP3    H137630   1.072   6.141   8.587
 5357TIP3    H237631   1.217   6.147   8.629
 5358TIP3   OH237632   5.198   4.663   2.266
 5358TIP3    H137633   5.104   4.672   2.284
 5358TIP3    H237634   5.233   4.752   2.274
 5359TIP3   OH237635   6.138   5.553   0.474
 5359TIP3    H137636   6.131   5.462   0.502
 5359TIP3    H237637   6.223   5.558   0.430
 5360TIP3   OH237638   0.396   5.766   7.088
 5360TIP3    H137639   0.439   5.850   7.074
 5360TIP3    H237640   0.339   5.756   7.012
 5361TIP3   OH237641   3.886   5.221   0.232
 5361TIP3    H137642   3.827   5.242   0.304
 5361TIP3    H237643   3.943   5.298   0.225
 5362TIP3   OH237644   3.678   6.430   2.321
 5362TIP3    H137645   3.652   6.426   2.229
 5362TIP3    H237646   3.774   6.425   2.319
 5363TIP3   OH237647   3.785   5.291   2.050
 5363TIP3    H137648   3.772   5.374   2.004
 5363TIP3    H237649   3.715   5.234   2.016
 5364TIP3   OH237650   4.098   5.472   7.674
 5364TIP3    H137651   4.038   5.403   7.647
 5364TIP3    H237652   4.043   5.551   7.677
 5365TIP3   OH237653   4.820   1.924   8.125
 5365TIP3    H137654   4.907   1.948   8.092
 5365TIP3    H237655   4.811   1.973   8.207
 5366TIP3   OH237656   5.610   0.549   0.331
 5366TIP3    H137657   5.609   0.608   0.256
 5366TIP3    H237658   5.634   0.463   0.294
 5367TIP3   OH237659   0.203   6.796   0.029
 5367TIP3    H137660   0.193   6.800   0.125
 5367TIP3    H237661   0.147   0.041   8.777
 5368TIP3   OH237662   4.127   1.479   7.479
 5368TIP3    H137663   4.120   1.391   7.516
 5368TIP3    H237664   4.220   1.500   7.484
 5369TIP3   OH237665   2.597   1.747   7.490
 5369TIP3    H137666   2.529   1.770   7.552
 5369TIP3    H237667   2.571   1.790   7.408
 5370TIP3   OH237668   2.473   2.790   6.657
 5370TIP3    H137669   2.453   2.865   6.713
 5370TIP3    H237670   2.514   2.828   6.579
 5371TIP3   OH237671   1.735   4.434   0.943
 5371TIP3    H137672   1.822   4.408   0.973
 5371TIP3    H237673   1.706   4.360   0.889
 5372TIP3   OH237674   2.644   1.363   2.018
 5372TIP3    H137675   2.564   1.333   2.060
 5372TIP3    H237676   2.711   1.357   2.086
 5373TIP3   OH237677   2.515   6.294   1.810
 5373TIP3    H137678   2.536   6.268   1.720
 5373TIP3    H237679   2.514   6.212   1.859
 5374TIP3   OH237680   4.153   4.338   0.173
 5374TIP3    H137681   4.187   4.303   0.256
 5374TIP3    H237682   4.213   4.305   0.107
 5375TIP3   OH237683   5.717   2.752   7.898
 5375TIP3    H137684   5.623   2.766   7.901
 5375TIP3    H237685   5.727   2.657   7.895
 5376TIP3   OH237686   6.737   0.319   0.690
 5376TIP3    H137687   6.774   0.343   0.774
 5376TIP3    H237688   6.664   0.380   0.677
 5377TIP3   OH237689   5.924   0.535   8.073
 5377TIP3    H137690   5.850   0.475   8.087
 5377TIP3    H237691   5.916   0.600   8.143
 5378TIP3   OH237692   0.803   3.625   1.727
 5378TIP3    H137693   0.855   3.630   1.808
 5378TIP3    H237694   0.844   3.555   1.676
 5379TIP3   OH237695   6.121   1.749   8.014
 5379TIP3    H137696   6.203   1.788   7.983
 5379TIP3    H237697   6.148   1.677   8.070
 5380TIP3   OH237698   6.699   5.510   1.168
 5380TIP3    H137699   6.617   5.517   1.217
 5380TIP3    H237700   6.676   5.454   1.094
 5381TIP3   OH237701   5.650   6.703   1.046
 5381TIP3    H137702   5.696   6.623   1.073
 5381TIP3    H237703   5.563   6.694   1.084
 5382TIP3   OH237704   6.644   6.299   0.940
 5382TIP3    H137705   6.686   6.359   1.002
 5382TIP3    H237706   6.676   6.326   0.854
 5383TIP3   OH237707   5.606   0.494   1.091
 5383TIP3    H137708   5.601   0.433   1.164
 5383TIP3    H237709   5.697   0.525   1.091
 5384TIP3   OH237710   3.752   0.766   6.263
 5384TIP3    H137711   3.847   0.760   6.254
 5384TIP3    H237712   3.723   0.674   6.266
 5385TIP3   OH237713   3.290   1.026   1.455
 5385TIP3    H137714   3.378   1.005   1.486
 5385TIP3    H237715   3.248   1.070   1.529
 5386TIP3   OH237716   1.720   2.529   7.546
 5386TIP3    H137717   1.779   2.528   7.621
 5386TIP3    H237718   1.764   2.584   7.481
 5387TIP3   OH237719   4.469   1.840   7.791
 5387TIP3    H137720   4.513   1.912   7.836
 5387TIP3    H237721   4.433   1.786   7.861
 5388TIP3   OH237722   0.232   2.263   0.989
 5388TIP3    H137723   0.253   2.267   0.896
 5388TIP3    H237724   0.302   2.210   1.027
 5389TIP3   OH237725   6.196   5.896   8.738
 5389TIP3    H137726   6.212   5.966   8.674
 5389TIP3    H237727   6.107   5.866   8.719
 5390TIP3   OH237728   5.703   6.007   7.341
 5390TIP3    H137729   5.798   6.014   7.330
 5390TIP3    H237730   5.689   5.918   7.373
 5391TIP3   OH237731   3.709   1.641   7.753
 5391TIP3    H137732   3.796   1.607   7.731
 5391TIP3    H237733   3.704   1.726   7.709
 5392TIP3   OH237734   5.384   0.380   0.682
 5392TIP3    H137735   5.375   0.426   0.766
 5392TIP3    H237736   5.471   0.406   0.651
 5393TIP3   OH237737   0.197   3.218   8.051
 5393TIP3    H137738   0.150   3.259   7.979
 5393TIP3    H237739   0.278   3.268   8.059
 5394TIP3   OH237740   1.568   5.750   6.204
 5394TIP3    H137741   1.634   5.692   6.166
 5394TIP3    H237742   1.490   5.736   6.150
 5395TIP3   OH237743   2.938   0.104   7.907
 5395TIP3    H137744   2.887   0.081   7.829
 5395TIP3    H237745   3.029   0.104   7.877
 5396TIP3   OH237746   1.910   2.269   0.956
 5396TIP3    H137747   1.977   2.213   0.996
 5396TIP3    H237748   1.957   2.346   0.926
 5397TIP3   OH237749   4.686   0.201   0.390
 5397TIP3    H137750   4.757   0.265   0.393
 5397TIP3    H237751   4.729   0.116   0.404
 5398TIP3   OH237752   4.947   6.095   7.839
 5398TIP3    H137753   4.858   6.059   7.845
 5398TIP3    H237754   4.954   6.154   7.914
 5399TIP3   OH237755   4.172   2.556   2.072
 5399TIP3    H137756   4.240   2.504   2.029
 5399TIP3    H237757   4.108   2.573   2.004
 5400TIP3   OH237758   2.842   2.884   1.484
 5400TIP3    H137759   2.846   2.902   1.578
 5400TIP3    H237760   2.760   2.924   1.455
 5401TIP3   OH237761   2.029   5.303   7.481
 5401TIP3    H137762   2.095   5.262   7.426
 5401TIP3    H237763   2.046   5.397   7.472
 5402TIP3   OH237764   0.116   3.466   8.273
 5402TIP3    H137765   0.027   3.436   8.294
 5402TIP3    H237766   0.167   3.442   8.350
 5403TIP3   OH237767   6.089   6.665   0.561
 5403TIP3    H137768   6.008   6.666   0.510
 5403TIP3    H237769   6.067   6.712   0.642
 5404TIP3   OH237770   0.721   6.537   8.179
 5404TIP3    H137771   0.766   6.556   8.261
 5404TIP3    H237772   0.756   6.452   8.151
 5405TIP3   OH237773   3.106   6.022   1.468
 5405TIP3    H137774   3.121   6.049   1.559
 5405TIP3    H237775   3.187   5.980   1.441
 5406TIP3   OH237776   3.397   5.319   6.481
 5406TIP3    H137777   3.433   5.290   6.398
 5406TIP3    H237778   3.313   5.359   6.459
 5407TIP3   OH237779   0.067   0.006   8.407
 5407TIP3    H137780   0.072   6.756   8.347
 5407TIP3    H237781   0.158   0.023   8.432
 5408TIP3   OH237782   5.085   0.031   1.471
 5408TIP3    H137783   5.045   0.054   1.555
 5408TIP3    H237784   5.125   0.113   1.441
 5409TIP3   OH237785   4.448   4.796   1.788
 5409TIP3    H137786   4.443   4.856   1.863
 5409TIP3    H237787   4.438   4.853   1.712
 5410TIP3   OH237788   5.195   2.818   0.318
 5410TIP3    H137789   5.235   2.834   0.233
 5410TIP3    H237790   5.226   2.731   0.343
 5411TIP3   OH237791   0.974   4.929   7.764
 5411TIP3    H137792   1.006   4.994   7.826
 5411TIP3    H237793   0.944   4.856   7.818
 5412TIP3   OH237794   1.810   1.743   7.199
 5412TIP3    H137795   1.813   1.813   7.134
 5412TIP3    H237796   1.902   1.728   7.222
 5413TIP3   OH237797   1.880   3.284   8.104
 5413TIP3    H137798   1.936   3.206   8.103
 5413TIP3    H237799   1.867   3.305   8.011
 5414TIP3   OH237800   2.128   0.341   1.729
 5414TIP3    H137801   2.080   0.415   1.765
 5414TIP3    H237802   2.066   0.297   1.672
 5415TIP3   OH237803   4.747   4.210   7.106
 5415TIP3    H137804   4.759   4.138   7.045
 5415TIP3    H237805   4.829   4.260   7.101
 5416TIP3   OH237806   2.480   6.446   8.153
 5416TIP3    H137807   2.421   6.444   8.077
 5416TIP3    H237808   2.565   6.470   8.117
 5417TIP3   OH237809   0.704   3.676   1.048
 5417TIP3    H137810   0.720   3.632   1.131
 5417TIP3    H237811   0.691   3.604   0.985
 5418TIP3   OH237812   5.641   3.445   1.764
 5418TIP3    H137813   5.591   3.476   1.840
 5418TIP3    H237814   5.702   3.381   1.799
 5419TIP3   OH237815   3.868   0.217   8.593
 5419TIP3    H137816   3.935   0.285   8.599
 5419TIP3    H237817   3.799   0.256   8.540
 5420TIP3   OH237818   4.354   1.176   0.940
 5420TIP3    H137819   4.445   1.202   0.926
 5420TIP3    H237820   4.313   1.254   0.978
 5421TIP3   OH237821   2.088   2.045   7.383
 5421TIP3    H137822   2.089   2.131   7.425
 5421TIP3    H237823   2.072   1.984   7.455
 5422TIP3   OH237824   3.897   5.281   7.041
 5422TIP3    H137825   3.935   5.369   7.035
 5422TIP3    H237826   3.850   5.270   6.959
 5423TIP3   OH237827   0.029   1.889   7.829
 5423TIP3    H137828   0.088   1.923   7.762
 5423TIP3    H237829   0.019   1.962   7.891
 5424TIP3   OH237830   5.107   1.367   7.823
 5424TIP3    H137831   5.149   1.376   7.738
 5424TIP3    H237832   5.146   1.438   7.876
 5425TIP3   OH237833   1.686   6.319   2.281
 5425TIP3    H137834   1.609   6.375   2.275
 5425TIP3    H237835   1.758   6.379   2.300
 5426TIP3   OH237836   3.555   2.054   2.020
 5426TIP3    H137837   3.481   2.102   2.059
 5426TIP3    H237838   3.621   2.051   2.089
 5427TIP3   OH237839   3.458   4.555   7.626
 5427TIP3    H137840   3.380   4.599   7.659
 5427TIP3    H237841   3.470   4.480   7.685
 5428TIP3   OH237842   0.847   4.053   1.331
 5428TIP3    H137843   0.865   4.104   1.410
 5428TIP3    H237844   0.876   4.109   1.259
 5429TIP3   OH237845   6.618   5.089   0.268
 5429TIP3    H137846   6.543   5.054   0.220
 5429TIP3    H237847   6.648   5.163   0.215
 5430TIP3   OH237848   0.373   3.012   1.633
 5430TIP3    H137849   0.379   3.011   1.729
 5430TIP3    H237850   0.460   2.985   1.604
 5431TIP3   OH237851   3.375   4.114   7.812
 5431TIP3    H137852   3.396   4.054   7.741
 5431TIP3    H237853   3.425   4.193   7.793
 5432TIP3   OH237854   4.897   2.668   1.113
 5432TIP3    H137855   4.825   2.685   1.053
 5432TIP3    H237856   4.975   2.697   1.065
 5433TIP3   OH237857   6.332   4.421   8.472
 5433TIP3    H137858   6.382   4.446   8.395
 5433TIP3    H237859   6.393   4.434   8.545
 5434TIP3   OH237860   5.969   0.732   7.242
 5434TIP3    H137861   5.879   0.756   7.220
 5434TIP3    H237862   6.013   0.816   7.256
 5435TIP3   OH237863   5.124   0.950   8.458
 5435TIP3    H137864   5.187   0.932   8.388
 5435TIP3    H237865   5.077   1.029   8.429
 5436TIP3   OH237866   0.783   1.874   6.669
 5436TIP3    H137867   0.735   1.799   6.706
 5436TIP3    H237868   0.791   1.935   6.743
 5437TIP3   OH237869   6.263   0.776   7.754
 5437TIP3    H137870   6.222   0.781   7.668
 5437TIP3    H237871   6.200   0.727   7.808
 5438TIP3   OH237872   1.649   5.076   8.216
 5438TIP3    H137873   1.653   5.074   8.121
 5438TIP3    H237874   1.740   5.079   8.245
 5439TIP3   OH237875   6.713   4.731   1.103
 5439TIP3    H137876   6.775   4.706   1.171
 5439TIP3    H237877   6.635   4.759   1.150
 5440TIP3   OH237878   5.015   2.156   8.165
 5440TIP3    H137879   5.040   2.227   8.224
 5440TIP3    H237880   5.048   2.182   8.080
 5441TIP3   OH237881   1.350   0.344   7.341
 5441TIP3    H137882   1.430   0.328   7.391
 5441TIP3    H237883   1.282   0.297   7.389
 5442TIP3   OH237884   4.290   4.424   2.297
 5442TIP3    H137885   4.243   4.343   2.277
 5442TIP3    H237886   4.242   4.492   2.251
 5443TIP3   OH237887   5.841   4.367   8.138
 5443TIP3    H137888   5.930   4.347   8.165
 5443TIP3    H237889   5.828   4.458   8.163
 5444TIP3   OH237890   0.306   4.879   6.937
 5444TIP3    H137891   0.345   4.922   6.861
 5444TIP3    H237892   0.223   4.925   6.950
 5445TIP3   OH237893   0.558   4.953   8.149
 5445TIP3    H137894   0.592   4.985   8.065
 5445TIP3    H237895   0.514   4.871   8.128
 5446TIP3   OH237896   5.347   2.932   0.790
 5446TIP3    H137897   5.259   2.916   0.827
 5446TIP3    H237898   5.330   2.976   0.707
 5447TIP3   OH237899   1.183   0.629   7.741
 5447TIP3    H137900   1.109   0.590   7.789
 5447TIP3    H237901   1.147   0.651   7.655
 5448TIP3   OH237902   1.934   6.429   0.867
 5448TIP3    H137903   1.975   6.428   0.781
 5448TIP3    H237904   1.951   6.341   0.903
 5449TIP3   OH237905   4.201   6.220   7.162
 5449TIP3    H137906   4.126   6.278   7.177
 5449TIP3    H237907   4.276   6.279   7.155
 5450TIP3   OH237908   6.091   3.165   0.999
 5450TIP3    H137909   6.076   3.106   0.925
 5450TIP3    H237910   6.031   3.133   1.067
 5451TIP3   OH237911   1.673   2.637   0.260
 5451TIP3    H137912   1.759   2.669   0.285
 5451TIP3    H237913   1.624   2.716   0.237
 5452TIP3   OH237914   0.280   3.449   8.733
 5452TIP3    H137915   0.305   3.542   8.734
 5452TIP3    H237916   0.225   3.438   0.030
 5453TIP3   OH237917   1.643   5.086   0.910
 5453TIP3    H137918   1.671   5.175   0.885
 5453TIP3    H237919   1.595   5.098   0.992
 5454TIP3   OH237920   3.364   3.597   0.217
 5454TIP3    H137921   3.447   3.623   0.178
 5454TIP3    H237922   3.367   3.630   0.307
 5455TIP3   OH237923   2.006   3.500   7.926
 5455TIP3    H137924   2.068   3.544   7.869
 5455TIP3    H237925   2.014   3.545   8.010
 5456TIP3   OH237926   0.398   0.660   6.426
 5456TIP3    H137927   0.323   0.719   6.434
 5456TIP3    H237928   0.474   0.718   6.427
 5457TIP3   OH237929   5.341   2.122   7.902
 5457TIP3    H137930   5.376   2.187   7.842
 5457TIP3    H237931   5.253   2.153   7.923
 5458TIP3   OH237932   5.976   1.431   2.405
 5458TIP3    H137933   6.042   1.497   2.424
 5458TIP3    H237934   6.025   1.359   2.364
 5459TIP3   OH237935   4.961   5.434   1.421
 5459TIP3    H137936   4.982   5.423   1.514
 5459TIP3    H237937   4.866   5.431   1.417
 5460TIP3   OH237938   0.044   2.102   7.167
 5460TIP3    H137939   0.065   2.192   7.193
 5460TIP3    H237940   0.016   2.109   7.076
 5461TIP3   OH237941   2.519   4.642   1.700
 5461TIP3    H137942   2.579   4.596   1.759
 5461TIP3    H237943   2.551   4.732   1.699
 5462TIP3   OH237944   4.608   5.309   1.548
 5462TIP3    H137945   4.624   5.217   1.529
 5462TIP3    H237946   4.677   5.333   1.609
 5463TIP3   OH237947   4.961   1.342   8.718
 5463TIP3    H137948   4.886   1.338   8.778
 5463TIP3    H237949   5.031   1.296   8.764
 5464TIP3   OH237950   5.629   2.381   0.831
 5464TIP3    H137951   5.683   2.373   0.910
 5464TIP3    H237952   5.598   2.293   0.814
 5465TIP3   OH237953   2.406   6.652   0.296
 5465TIP3    H137954   2.328   6.674   0.246
 5465TIP3    H237955   2.406   6.714   0.369
 5466TIP3   OH237956   5.727   5.724   8.505
 5466TIP3    H137957   5.688   5.763   8.427
 5466TIP3    H237958   5.708   5.630   8.497
 5467TIP3   OH237959   3.404   3.507   0.628
 5467TIP3    H137960   3.439   3.523   0.540
 5467TIP3    H237961   3.312   3.532   0.623
 5468TIP3   OH237962   1.159   4.340   1.303
 5468TIP3    H137963   1.106   4.411   1.339
 5468TIP3    H237964   1.095   4.280   1.265
 5469TIP3   OH237965   2.215   5.686   7.094
 5469TIP3    H137966   2.303   5.648   7.086
 5469TIP3    H237967   2.156   5.616   7.069
 5470TIP3   OH237968   4.944   6.055   1.759
 5470TIP3    H137969   5.014   6.059   1.824
 5470TIP3    H237970   4.889   5.982   1.787
 5471TIP3   OH237971   1.632   6.228   1.733
 5471TIP3    H137972   1.596   6.210   1.820
 5471TIP3    H237973   1.621   6.322   1.721
 5472TIP3   OH237974   5.644   4.111   6.932
 5472TIP3    H137975   5.568   4.115   6.991
 5472TIP3    H237976   5.625   4.174   6.863
 5473TIP3   OH237977   6.763   4.682   2.517
 5473TIP3    H137978   0.018   4.729   2.498
 5473TIP3    H237979   6.704   4.748   2.552
 5474TIP3   OH237980   4.836   4.387   1.960
 5474TIP3    H137981   4.752   4.421   1.991
 5474TIP3    H237982   4.902   4.435   2.011
 5475TIP3   OH237983   0.794   1.756   0.370
 5475TIP3    H137984   0.873   1.810   0.371
 5475TIP3    H237985   0.731   1.805   0.422
 5476TIP3   OH237986   0.818   6.093   0.516
 5476TIP3    H137987   0.731   6.124   0.543
 5476TIP3    H237988   0.847   6.157   0.451
 5477TIP3   OH237989   6.323   5.911   6.254
 5477TIP3    H137990   6.303   5.851   6.326
 5477TIP3    H237991   6.249   5.971   6.250
 5478TIP3   OH237992   2.533   5.436   7.778
 5478TIP3    H137993   2.518   5.530   7.772
 5478TIP3    H237994   2.463   5.405   7.836
 5479TIP3   OH237995   4.958   6.410   6.448
 5479TIP3    H137996   4.900   6.389   6.376
 5479TIP3    H237997   5.022   6.339   6.449
 5480TIP3   OH237998   6.497   0.626   8.324
 5480TIP3    H137999   6.507   0.532   8.310
 5480TIP3    H238000   6.454   0.633   8.410
 5481TIP3   OH238001   3.172   5.457   2.092
 5481TIP3    H138002   3.136   5.545   2.091
 5481TIP3    H238003   3.112   5.405   2.038
 5482TIP3   OH238004   3.562   1.217   1.901
 5482TIP3    H138005   3.499   1.274   1.858
 5482TIP3    H238006   3.513   1.176   1.973
 5483TIP3   OH238007   4.601   6.098   2.248
 5483TIP3    H138008   4.599   6.137   2.336
 5483TIP3    H238009   4.611   6.004   2.264
 5484TIP3   OH238010   0.264   5.327   8.233
 5484TIP3    H138011   0.312   5.265   8.287
 5484TIP3    H238012   0.221   5.386   8.295
 5485TIP3   OH238013   3.721   0.153   6.714
 5485TIP3    H138014   3.699   0.175   6.805
 5485TIP3    H238015   3.729   0.237   6.670
 5486TIP3   OH238016   2.106   6.529   7.404
 5486TIP3    H138017   2.053   6.457   7.369
 5486TIP3    H238018   2.042   6.596   7.429
 5487TIP3   OH238019   2.049   2.417   7.282
 5487TIP3    H138020   2.125   2.361   7.302
 5487TIP3    H238021   2.070   2.501   7.322
 5488TIP3   OH238022   6.034   0.649   0.417
 5488TIP3    H138023   6.080   0.571   0.447
 5488TIP3    H238024   6.090   0.685   0.348
 5489TIP3   OH238025   5.835   0.833   2.477
 5489TIP3    H138026   5.875   0.912   2.512
 5489TIP3    H238027   5.741   0.845   2.492
 5490TIP3   OH238028   3.773   2.206   1.909
 5490TIP3    H138029   3.768   2.267   1.983
 5490TIP3    H238030   3.804   2.124   1.948
 5491TIP3   OH238031   0.311   0.183   7.067
 5491TIP3    H138032   0.312   0.273   7.034
 5491TIP3    H238033   0.387   0.142   7.025
 5492TIP3   OH238034   0.582   0.881   1.290
 5492TIP3    H138035   0.676   0.872   1.307
 5492TIP3    H238036   0.544   0.893   1.377
 5493TIP3   OH238037   5.242   5.837   8.387
 5493TIP3    H138038   5.293   5.918   8.391
 5493TIP3    H238039   5.158   5.864   8.350
 5494TIP3   OH238040   0.190   0.564   6.714
 5494TIP3    H138041   0.141   0.579   6.633
 5494TIP3    H238042   0.180   0.645   6.764
 5495TIP3   OH238043   6.481   0.318   8.609
 5495TIP3    H138044   6.478   0.275   8.523
 5495TIP3    H238045   6.545   0.388   8.598
 5496TIP3   OH238046   5.345   1.686   7.541
 5496TIP3    H138047   5.346   1.638   7.458
 5496TIP3    H238048   5.431   1.668   7.580
 5497TIP3   OH238049   4.083   2.325   1.239
 5497TIP3    H138050   4.082   2.363   1.327
 5497TIP3    H238051   4.061   2.233   1.252
 5498TIP3   OH238052   1.270   6.032   2.578
 5498TIP3    H138053   1.200   6.001   2.636
 5498TIP3    H238054   1.324   5.955   2.561
 5499TIP3   OH238055   3.604   5.702   0.592
 5499TIP3    H138056   3.572   5.677   0.505
 5499TIP3    H238057   3.631   5.794   0.582
 5500TIP3   OH238058   1.513   2.229   8.674
 5500TIP3    H138059   1.519   2.271   8.760
 5500TIP3    H238060   1.546   2.294   8.613
 5501TIP3   OH238061   0.743   1.542   7.658
 5501TIP3    H138062   0.708   1.458   7.627
 5501TIP3    H238063   0.800   1.571   7.587
 5502TIP3   OH238064   2.051   4.400   1.546
 5502TIP3    H138065   2.131   4.404   1.598
 5502TIP3    H238066   2.071   4.453   1.468
 5503TIP3   OH238067   3.317   0.725   0.123
 5503TIP3    H138068   3.299   0.661   0.192
 5503TIP3    H238069   3.273   0.805   0.153
 5504TIP3   OH238070   2.735   3.203   8.716
 5504TIP3    H138071   2.677   3.174   8.646
 5504TIP3    H238072   2.713   3.296   8.729
 5505TIP3   OH238073   6.564   6.209   0.039
 5505TIP3    H138074   6.633   6.171   0.093
 5505TIP3    H238075   6.578   6.171   8.733
 5506TIP3   OH238076   2.454   3.108   0.048
 5506TIP3    H138077   2.487   3.018   0.046
 5506TIP3    H238078   2.513   3.154   0.109
 5507TIP3   OH238079   4.945   3.667   1.053
 5507TIP3    H138080   4.878   3.646   1.118
 5507TIP3    H238081   5.015   3.708   1.103
 5508TIP3   OH238082   4.760   2.260   8.185
 5508TIP3    H138083   4.774   2.349   8.152
 5508TIP3    H238084   4.831   2.209   8.146
 5509TIP3   OH238085   5.424   3.719   1.868
 5509TIP3    H138086   5.455   3.696   1.956
 5509TIP3    H238087   5.503   3.744   1.820
 5510TIP3   OH238088   6.558   4.967   1.957
 5510TIP3    H138089   6.545   5.028   1.884
 5510TIP3    H238090   6.635   4.999   2.002
 5511TIP3   OH238091   4.070   6.395   8.735
 5511TIP3    H138092   4.082   6.300   8.742
 5511TIP3    H238093   3.976   6.406   8.718
 5512TIP3   OH238094   6.215   4.042   0.683
 5512TIP3    H138095   6.176   4.065   0.599
 5512TIP3    H238096   6.160   4.086   0.748
 5513TIP3   OH238097   2.792   6.676   1.934
 5513TIP3    H138098   2.837   6.756   1.960
 5513TIP3    H238099   2.714   6.705   1.887
 5514TIP3   OH238100   1.585   4.983   2.031
 5514TIP3    H138101   1.679   4.991   2.013
 5514TIP3    H238102   1.554   5.073   2.041
 5515TIP3   OH238103   6.697   4.515   7.761
 5515TIP3    H138104   6.774   4.569   7.776
 5515TIP3    H238105   6.699   4.494   7.668
 5516TIP3   OH238106   2.657   2.874   7.918
 5516TIP3    H138107   2.741   2.877   7.964
 5516TIP3    H238108   2.597   2.831   7.980
 5517TIP3   OH238109   3.533   6.518   1.231
 5517TIP3    H138110   3.522   6.551   1.142
 5517TIP3    H238111   3.457   6.463   1.246
 5518TIP3   OH238112   5.652   0.590   7.560
 5518TIP3    H138113   5.565   0.557   7.537
 5518TIP3    H238114   5.638   0.638   7.641
 5519TIP3   OH238115   1.928   5.250   8.097
 5519TIP3    H138116   1.940   5.328   8.043
 5519TIP3    H238117   1.850   5.208   8.061
 5520TIP3   OH238118   6.034   3.542   0.543
 5520TIP3    H138119   6.092   3.484   0.594
 5520TIP3    H238120   6.094   3.593   0.489
 5521TIP3   OH238121   2.880   4.123   0.456
 5521TIP3    H138122   2.916   4.143   0.370
 5521TIP3    H238123   2.812   4.058   0.439
 5522TIP3   OH238124   2.514   5.099   1.679
 5522TIP3    H138125   2.487   5.026   1.735
 5522TIP3    H238126   2.450   5.099   1.608
 5523TIP3   OH238127   4.530   6.747   2.544
 5523TIP3    H138128   4.493   6.682   2.485
 5523TIP3    H238129   4.548   6.699   2.625
 5524TIP3   OH238130   3.613   3.878   6.659
 5524TIP3    H138131   3.517   3.872   6.652
 5524TIP3    H238132   3.641   3.914   6.575
 5525TIP3   OH238133   2.226   5.452   1.662
 5525TIP3    H138134   2.310   5.426   1.624
 5525TIP3    H238135   2.163   5.390   1.626
 5526TIP3   OH238136   5.048   3.376   7.492
 5526TIP3    H138137   4.966   3.335   7.519
 5526TIP3    H238138   5.041   3.467   7.521
 5527TIP3   OH238139   0.199   3.518   0.539
 5527TIP3    H138140   0.238   3.549   0.621
 5527TIP3    H238141   0.206   3.423   0.543
 5528TIP3   OH238142   4.114   1.865   1.745
 5528TIP3    H138143   4.083   1.802   1.810
 5528TIP3    H238144   4.208   1.871   1.760
 5529TIP3   OH238145   0.912   3.393   1.633
 5529TIP3    H138146   0.941   3.398   1.724
 5529TIP3    H238147   0.862   3.311   1.628
 5530TIP3   OH238148   6.193   5.006   1.214
 5530TIP3    H138149   6.174   4.934   1.274
 5530TIP3    H238150   6.236   5.072   1.269
 5531TIP3   OH238151   5.575   2.629   8.147
 5531TIP3    H138152   5.532   2.710   8.120
 5531TIP3    H238153   5.541   2.563   8.087
 5532TIP3   OH238154   0.255   1.580   1.116
 5532TIP3    H138155   0.256   1.503   1.172
 5532TIP3    H238156   0.298   1.648   1.168
 5533TIP3   OH238157   0.649   6.609   0.306
 5533TIP3    H138158   0.666   6.552   0.381
 5533TIP3    H238159   0.599   6.554   0.246
 5534TIP3   OH238160   1.659   5.362   0.826
 5534TIP3    H138161   1.570   5.336   0.851
 5534TIP3    H238162   1.655   5.457   0.816
 5535TIP3   OH238163   1.993   0.589   1.637
 5535TIP3    H138164   1.923   0.623   1.581
 5535TIP3    H238165   2.045   0.533   1.579
 5536TIP3   OH238166   5.373   5.639   2.038
 5536TIP3    H138167   5.359   5.560   2.089
 5536TIP3    H238168   5.390   5.707   2.103
 5537TIP3   OH238169   5.683   4.309   0.806
 5537TIP3    H138170   5.697   4.319   0.712
 5537TIP3    H238171   5.628   4.383   0.831
 5538TIP3   OH238172   6.074   0.477   0.696
 5538TIP3    H138173   6.021   0.400   0.675
 5538TIP3    H238174   6.164   0.446   0.693
 5539TIP3   OH238175   2.698   6.209   8.495
 5539TIP3    H138176   2.629   6.185   8.556
 5539TIP3    H238177   2.709   6.132   8.439
 5540TIP3   OH238178   4.570   4.644   1.509
 5540TIP3    H138179   4.648   4.596   1.481
 5540TIP3    H238180   4.567   4.631   1.604
 5541TIP3   OH238181   5.948   5.007   2.150
 5541TIP3    H138182   6.009   4.943   2.186
 5541TIP3    H238183   5.906   5.046   2.226
 5542TIP3   OH238184   1.857   2.485   0.651
 5542TIP3    H138185   1.810   2.499   0.732
 5542TIP3    H238186   1.790   2.458   0.588
 5543TIP3   OH238187   2.166   2.885   1.271
 5543TIP3    H138188   2.098   2.869   1.206
 5543TIP3    H238189   2.156   2.814   1.335
 5544TIP3   OH238190   6.398   2.936   0.986
 5544TIP3    H138191   6.405   3.011   1.045
 5544TIP3    H238192   6.485   2.929   0.945
 5545TIP3   OH238193   4.126   0.697   0.895
 5545TIP3    H138194   4.192   0.655   0.839
 5545TIP3    H238195   4.168   0.778   0.924
 5546TIP3   OH238196   6.509   6.364   1.447
 5546TIP3    H138197   6.513   6.295   1.513
 5546TIP3    H238198   6.499   6.318   1.364
 5547TIP3   OH238199   6.415   0.446   7.753
 5547TIP3    H138200   6.447   0.356   7.739
 5547TIP3    H238201   6.324   0.443   7.723
 5548TIP3   OH238202   0.439   4.458   7.026
 5548TIP3    H138203   0.414   4.501   7.107
 5548TIP3    H238204   0.419   4.522   6.958
 5549TIP3   OH238205   2.587   0.817   7.588
 5549TIP3    H138206   2.591   0.865   7.505
 5549TIP3    H238207   2.659   0.755   7.583
 5550TIP3   OH238208   1.123   3.156   7.282
 5550TIP3    H138209   1.182   3.198   7.219
 5550TIP3    H238210   1.141   3.200   7.365
 5551TIP3   OH238211   5.546   4.160   6.650
 5551TIP3    H138212   5.487   4.128   6.718
 5551TIP3    H238213   5.496   4.229   6.605
 5552TIP3   OH238214   6.012   2.792   7.057
 5552TIP3    H138215   6.103   2.767   7.044
 5552TIP3    H238216   5.967   2.710   7.074
 5553TIP3   OH238217   6.785   2.972   8.599
 5553TIP3    H138218   0.023   2.977   8.527
 5553TIP3    H238219   6.719   2.910   8.569
 5554TIP3   OH238220   5.293   6.125   0.650
 5554TIP3    H138221   5.354   6.195   0.673
 5554TIP3    H238222   5.328   6.047   0.695
 5555TIP3   OH238223   2.858   3.810   0.772
 5555TIP3    H138224   2.894   3.721   0.771
 5555TIP3    H238225   2.906   3.856   0.702
 5556TIP3   OH238226   2.436   5.515   8.628
 5556TIP3    H138227   2.469   5.565   8.703
 5556TIP3    H238228   2.494   5.539   8.556
 5557TIP3   OH238229   1.918   6.375   7.243
 5557TIP3    H138230   1.980   6.302   7.252
 5557TIP3    H238231   1.952   6.426   7.170
 5558TIP3   OH238232   1.568   6.158   2.525
 5558TIP3    H138233   1.551   6.247   2.555
 5558TIP3    H238234   1.663   6.149   2.532
 5559TIP3   OH238235   1.603   5.441   7.019
 5559TIP3    H138236   1.649   5.384   6.958
 5559TIP3    H238237   1.593   5.524   6.972
 5560TIP3   OH238238   2.080   3.033   8.204
 5560TIP3    H138239   2.134   2.964   8.240
 5560TIP3    H238240   2.141   3.092   8.160
 5561TIP3   OH238241   3.743   2.179   0.744
 5561TIP3    H138242   3.688   2.155   0.819
 5561TIP3    H238243   3.827   2.135   0.761
 5562TIP3   OH238244   4.556   0.330   6.833
 5562TIP3    H138245   4.531   0.316   6.925
 5562TIP3    H238246   4.650   0.350   6.837
 5563TIP3   OH238247   4.983   5.346   1.158
 5563TIP3    H138248   4.979   5.356   1.253
 5563TIP3    H238249   5.033   5.421   1.128
 5564TIP3   OH238250   4.398   3.741   0.525
 5564TIP3    H138251   4.476   3.772   0.479
 5564TIP3    H238252   4.384   3.806   0.594
 5565TIP3   OH238253   4.645   1.521   8.131
 5565TIP3    H138254   4.658   1.565   8.214
 5565TIP3    H238255   4.636   1.591   8.067
 5566TIP3   OH238256   1.150   0.747   8.148
 5566TIP3    H138257   1.132   0.796   8.068
 5566TIP3    H238258   1.243   0.728   8.145
 5567TIP3   OH238259   5.877   5.822   0.857
 5567TIP3    H138260   5.872   5.894   0.795
 5567TIP3    H238261   5.786   5.805   0.882
 5568TIP3   OH238262   0.674   6.660   1.377
 5568TIP3    H138263   0.746   6.603   1.350
 5568TIP3    H238264   0.683   6.738   1.323
 5569TIP3   OH238265   6.338   5.879   7.486
 5569TIP3    H138266   6.424   5.843   7.505
 5569TIP3    H238267   6.327   5.950   7.550
 5570TIP3   OH238268   0.642   6.032   1.145
 5570TIP3    H138269   0.590   5.952   1.143
 5570TIP3    H238270   0.652   6.058   1.054
 5571TIP3   OH238271   4.859   6.457   2.632
 5571TIP3    H138272   4.823   6.384   2.583
 5571TIP3    H238273   4.793   6.526   2.624
 5572TIP3   OH238274   3.187   3.610   2.366
 5572TIP3    H138275   3.174   3.675   2.297
 5572TIP3    H238276   3.100   3.595   2.402
 5573TIP3   OH238277   4.684   5.005   2.621
 5573TIP3    H138278   4.590   4.993   2.634
 5573TIP3    H238279   4.696   5.100   2.617
 5574TIP3   OH238280   2.995   4.953   1.476
 5574TIP3    H138281   3.000   4.892   1.549
 5574TIP3    H238282   2.901   4.965   1.461
 5575TIP3   OH238283   2.993   0.328   1.764
 5575TIP3    H138284   2.992   0.306   1.857
 5575TIP3    H238285   2.908   0.371   1.750
 5576TIP3   OH238286   5.375   4.590   8.301
 5576TIP3    H138287   5.444   4.641   8.259
 5576TIP3    H238288   5.322   4.654   8.348
 5577TIP3   OH238289   4.464   0.882   0.663
 5577TIP3    H138290   4.453   0.793   0.631
 5577TIP3    H238291   4.375   0.917   0.669
 5578TIP3   OH238292   3.875   0.935   1.574
 5578TIP3    H138293   3.816   0.959   1.645
 5578TIP3    H238294   3.962   0.934   1.614
 5579TIP3   OH238295   2.364   1.845   0.091
 5579TIP3    H138296   2.455   1.829   0.067
 5579TIP3    H238297   2.322   1.873   0.009
 5580TIP3   OH238298   6.004   0.078   0.811
 5580TIP3    H138299   5.979   0.166   0.784
 5580TIP3    H238300   5.932   0.049   0.867
 5581TIP3   OH238301   2.190   3.558   6.431
 5581TIP3    H138302   2.280   3.540   6.405
 5581TIP3    H238303   2.195   3.639   6.481
 5582TIP3   OH238304   4.316   6.284   0.917
 5582TIP3    H138305   4.374   6.225   0.869
 5582TIP3    H238306   4.375   6.334   0.974
 5583TIP3   OH238307   6.136   5.286   0.531
 5583TIP3    H138308   6.174   5.240   0.456
 5583TIP3    H238309   6.141   5.223   0.603
 5584TIP3   OH238310   6.454   0.993   1.572
 5584TIP3    H138311   6.493   0.917   1.530
 5584TIP3    H238312   6.494   1.068   1.528
 5585TIP3   OH238313   2.828   1.921   2.006
 5585TIP3    H138314   2.805   1.918   2.098
 5585TIP3    H238315   2.888   1.848   1.994
 5586TIP3   OH238316   2.771   0.266   8.622
 5586TIP3    H138317   2.842   0.234   8.565
 5586TIP3    H238318   2.807   0.346   8.661
 5587TIP3   OH238319   1.570   5.202   0.495
 5587TIP3    H138320   1.597   5.111   0.494
 5587TIP3    H238321   1.651   5.251   0.508
 5588TIP3   OH238322   1.432   5.758   7.226
 5588TIP3    H138323   1.419   5.683   7.284
 5588TIP3    H238324   1.523   5.752   7.197
 5589TIP3   OH238325   2.264   4.384   7.370
 5589TIP3    H138326   2.178   4.344   7.380
 5589TIP3    H238327   2.248   4.463   7.318
 5590TIP3   OH238328   2.970   3.535   7.956
 5590TIP3    H138329   2.980   3.534   8.051
 5590TIP3    H238330   3.049   3.579   7.924
 5591TIP3   OH238331   1.293   4.968   8.762
 5591TIP3    H138332   1.225   5.017   8.715
 5591TIP3    H238333   1.372   4.983   8.711
 5592TIP3   OH238334   2.766   6.614   0.336
 5592TIP3    H138335   2.714   6.689   0.307
 5592TIP3    H238336   2.847   6.652   0.371
 5593TIP3   OH238337   5.326   5.314   0.012
 5593TIP3    H138338   5.363   5.375   8.730
 5593TIP3    H238339   5.282   5.248   8.739
 5594TIP3   OH238340   4.762   3.371   1.128
 5594TIP3    H138341   4.773   3.327   1.213
 5594TIP3    H238342   4.851   3.374   1.091
 5595TIP3   OH238343   4.521   5.746   0.055
 5595TIP3    H138344   4.464   5.760   0.130
 5595TIP3    H238345   4.609   5.762   0.089
 5596TIP3   OH238346   1.886   3.511   7.600
 5596TIP3    H138347   1.793   3.529   7.583
 5596TIP3    H238348   1.927   3.597   7.602
 5597TIP3   OH238349   1.761   0.110   1.619
 5597TIP3    H138350   1.850   0.138   1.640
 5597TIP3    H238351   1.757   0.019   1.649
 5598TIP3   OH238352   0.033   6.197   7.936
 5598TIP3    H138353   0.116   6.218   7.980
 5598TIP3    H238354   0.055   6.127   7.875
 5599TIP3   OH238355   0.474   5.385   2.048
 5599TIP3    H138356   0.445   5.294   2.036
 5599TIP3    H238357   0.475   5.397   2.143
 5600TIP3   OH238358   2.039   0.110   1.567
 5600TIP3    H138359   2.109   0.157   1.523
 5600TIP3    H238360   2.030   0.028   1.518
 5601TIP3   OH238361   2.003   3.291   7.485
 5601TIP3    H138362   1.948   3.357   7.528
 5601TIP3    H238363   2.053   3.339   7.419
 5602TIP3   OH238364   0.657   0.830   0.359
 5602TIP3    H138365   0.682   0.802   0.271
 5602TIP3    H238366   0.711   0.907   0.376
 5603TIP3   OH238367   4.860   2.248   2.425
 5603TIP3    H138368   4.935   2.188   2.432
 5603TIP3    H238369   4.899   2.335   2.417
 5604TIP3   OH238370   4.001   2.590   1.809
 5604TIP3    H138371   3.915   2.550   1.816
 5604TIP3    H238372   4.046   2.539   1.742
 5605TIP3   OH238373   6.677   5.683   8.259
 5605TIP3    H138374   6.747   5.620   8.247
 5605TIP3    H238375   6.703   5.734   8.335
 5606TIP3   OH238376   2.931   1.290   0.021
 5606TIP3    H138377   2.841   1.324   0.023
 5606TIP3    H238378   2.956   1.284   0.113
 5607TIP3   OH238379   4.973   0.766   8.287
 5607TIP3    H138380   4.992   0.685   8.240
 5607TIP3    H238381   4.935   0.738   8.370
 5608TIP3   OH238382   3.151   6.399   6.993
 5608TIP3    H138383   3.147   6.479   7.045
 5608TIP3    H238384   3.118   6.331   7.052
 5609TIP3   OH238385   4.752   1.426   1.782
 5609TIP3    H138386   4.682   1.492   1.776
 5609TIP3    H238387   4.706   1.343   1.789
 5610TIP3   OH238388   3.853   4.367   0.678
 5610TIP3    H138389   3.944   4.371   0.648
 5610TIP3    H238390   3.839   4.451   0.722
 5611TIP3   OH238391   4.257   0.375   2.148
 5611TIP3    H138392   4.281   0.466   2.130
 5611TIP3    H238393   4.244   0.373   2.243
 5612TIP3   OH238394   5.531   6.382   1.737
 5612TIP3    H138395   5.559   6.303   1.691
 5612TIP3    H238396   5.536   6.359   1.830
 5613TIP3   OH238397   4.617   3.457   8.651
 5613TIP3    H138398   4.641   3.425   8.738
 5613TIP3    H238399   4.696   3.499   8.618
 5614TIP3   OH238400   3.968   1.600   7.675
 5614TIP3    H138401   4.033   1.576   7.608
 5614TIP3    H238402   4.002   1.680   7.713
 5615TIP3   OH238403   5.509   3.074   6.924
 5615TIP3    H138404   5.426   3.027   6.934
 5615TIP3    H238405   5.561   3.019   6.865
 5616TIP3   OH238406   5.750   6.584   7.620
 5616TIP3    H138407   5.832   6.586   7.571
 5616TIP3    H238408   5.750   6.499   7.664
 5617TIP3   OH238409   3.433   1.620   7.508
 5617TIP3    H138410   3.471   1.706   7.526
 5617TIP3    H238411   3.505   1.558   7.523
 5618TIP3   OH238412   1.027   0.517   1.294
 5618TIP3    H138413   0.973   0.476   1.362
 5618TIP3    H238414   1.086   0.575   1.343
 5619TIP3   OH238415   2.659   5.651   6.931
 5619TIP3    H138416   2.688   5.562   6.911
 5619TIP3    H238417   2.728   5.708   6.898
 5620TIP3   OH238418   3.937   1.131   8.683
 5620TIP3    H138419   3.888   1.075   8.623
 5620TIP3    H238420   4.028   1.103   8.672
 5621TIP3   OH238421   3.493   4.330   0.244
 5621TIP3    H138422   3.413   4.375   0.273
 5621TIP3    H238423   3.563   4.370   0.296
 5622TIP3   OH238424   6.502   3.433   1.047
 5622TIP3    H138425   6.515   3.526   1.063
 5622TIP3    H238426   6.481   3.428   0.953
 5623TIP3   OH238427   6.620   4.887   7.414
 5623TIP3    H138428   6.565   4.833   7.472
 5623TIP3    H238429   6.568   4.965   7.398
 5624TIP3   OH238430   4.244   2.267   2.568
 5624TIP3    H138431   4.165   2.322   2.578
 5624TIP3    H238432   4.316   2.330   2.561
 5625TIP3   OH238433   6.514   3.688   1.672
 5625TIP3    H138434   6.423   3.712   1.653
 5625TIP3    H238435   6.516   3.593   1.664
 5626TIP3   OH238436   2.140   1.228   7.487
 5626TIP3    H138437   2.064   1.240   7.430
 5626TIP3    H238438   2.178   1.315   7.497
 5627TIP3   OH238439   1.548   0.804   7.594
 5627TIP3    H138440   1.629   0.842   7.559
 5627TIP3    H238441   1.547   0.830   7.686
 5628TIP3   OH238442   2.081   3.388   7.200
 5628TIP3    H138443   2.078   3.467   7.147
 5628TIP3    H238444   2.173   3.380   7.225
 5629TIP3   OH238445   4.116   3.808   1.484
 5629TIP3    H138446   4.202   3.839   1.513
 5629TIP3    H238447   4.129   3.716   1.461
 5630TIP3   OH238448   3.954   6.553   7.445
 5630TIP3    H138449   3.962   6.493   7.519
 5630TIP3    H238450   3.991   6.505   7.370
 5631TIP3   OH238451   4.618   4.804   8.028
 5631TIP3    H138452   4.555   4.750   8.075
 5631TIP3    H238453   4.683   4.741   7.995
 5632TIP3   OH238454   4.385   5.325   0.948
 5632TIP3    H138455   4.296   5.298   0.924
 5632TIP3    H238456   4.441   5.256   0.914
 5633TIP3   OH238457   5.968   3.773   7.811
 5633TIP3    H138458   5.943   3.836   7.743
 5633TIP3    H238459   5.940   3.814   7.893
 5634TIP3   OH238460   0.696   1.350   7.454
 5634TIP3    H138461   0.672   1.417   7.390
 5634TIP3    H238462   0.724   1.276   7.401
 5635TIP3   OH238463   0.755   0.438   8.066
 5635TIP3    H138464   0.813   0.507   8.100
 5635TIP3    H238465   0.692   0.424   8.136
 5636TIP3   OH238466   1.564   4.502   7.643
 5636TIP3    H138467   1.485   4.497   7.589
 5636TIP3    H238468   1.557   4.428   7.703
 5637TIP3   OH238469   4.162   1.341   1.116
 5637TIP3    H138470   4.136   1.410   1.055
 5637TIP3    H238471   4.130   1.371   1.201
 5638TIP3   OH238472   6.554   6.057   0.816
 5638TIP3    H138473   6.580   6.133   0.868
 5638TIP3    H238474   6.623   5.993   0.832
 5639TIP3   OH238475   0.168   3.215   0.832
 5639TIP3    H138476   0.225   3.277   0.878
 5639TIP3    H238477   0.108   3.270   0.782
 5640TIP3   OH238478   4.716   5.650   1.737
 5640TIP3    H138479   4.663   5.703   1.677
 5640TIP3    H238480   4.657   5.580   1.765
 5641TIP3   OH238481   1.075   1.880   1.497
 5641TIP3    H138482   1.131   1.951   1.529
 5641TIP3    H238483   0.986   1.915   1.503
 5642TIP3   OH238484   3.524   4.323   7.232
 5642TIP3    H138485   3.595   4.267   7.201
 5642TIP3    H238486   3.522   4.310   7.327
 5643TIP3   OH238487   1.156   0.878   7.901
 5643TIP3    H138488   1.127   0.828   7.825
 5643TIP3    H238489   1.250   0.889   7.888
 5644TIP3   OH238490   3.026   4.837   1.104
 5644TIP3    H138491   2.935   4.857   1.124
 5644TIP3    H238492   3.063   4.919   1.072
 5645TIP3   OH238493   5.808   5.854   2.482
 5645TIP3    H138494   5.830   5.920   2.416
 5645TIP3    H238495   5.745   5.898   2.539
 5646TIP3   OH238496   0.887   3.635   0.197
 5646TIP3    H138497   0.894   3.671   0.285
 5646TIP3    H238498   0.903   3.711   0.140
 5647TIP3   OH238499   2.447   1.155   8.259
 5647TIP3    H138500   2.399   1.083   8.299
 5647TIP3    H238501   2.398   1.234   8.282
 5648TIP3   OH238502   5.571   4.504   7.630
 5648TIP3    H138503   5.573   4.599   7.641
 5648TIP3    H238504   5.518   4.490   7.552
 5649TIP3   OH238505   3.483   5.302   0.079
 5649TIP3    H138506   3.575   5.292   0.054
 5649TIP3    H238507   3.435   5.250   0.014
 5650TIP3   OH238508   1.204   5.446   7.365
 5650TIP3    H138509   1.153   5.527   7.359
 5650TIP3    H238510   1.295   5.475   7.367
 5651TIP3   OH238511   4.595   2.775   0.009
 5651TIP3    H138512   4.617   2.752   0.099
 5651TIP3    H238513   4.509   2.735   8.776
 5652TIP3   OH238514   4.098   0.214   6.594
 5652TIP3    H138515   4.192   0.208   6.614
 5652TIP3    H238516   4.077   0.130   6.554
 5653TIP3   OH238517   6.313   0.284   0.702
 5653TIP3    H138518   6.370   0.258   0.775
 5653TIP3    H238519   6.280   0.202   0.667
 5654TIP3   OH238520   0.955   4.375   0.006
 5654TIP3    H138521   0.864   4.387   8.762
 5654TIP3    H238522   1.004   4.385   8.705
 5655TIP3   OH238523   2.025   3.834   1.825
 5655TIP3    H138524   2.057   3.788   1.903
 5655TIP3    H238525   1.959   3.776   1.789
 5656TIP3   OH238526   2.135   1.120   0.809
 5656TIP3    H138527   2.166   1.094   0.723
 5656TIP3    H238528   2.064   1.059   0.829
 5657TIP3   OH238529   2.071   3.540   1.587
 5657TIP3    H138530   2.095   3.617   1.535
 5657TIP3    H238531   1.994   3.566   1.636
 5658TIP3   OH238532   0.357   3.940   7.658
 5658TIP3    H138533   0.315   3.867   7.703
 5658TIP3    H238534   0.451   3.924   7.669
 5659TIP3   OH238535   2.227   4.284   0.581
 5659TIP3    H138536   2.152   4.226   0.596
 5659TIP3    H238537   2.285   4.234   0.524
 5660TIP3   OH238538   6.288   4.954   1.993
 5660TIP3    H138539   6.257   5.030   1.944
 5660TIP3    H238540   6.380   4.946   1.970
 5661TIP3   OH238541   1.510   0.103   6.866
 5661TIP3    H138542   1.565   0.175   6.836
 5661TIP3    H238543   1.450   0.086   6.793
 5662TIP3   OH238544   2.129   2.125   1.093
 5662TIP3    H138545   2.184   2.156   1.165
 5662TIP3    H238546   2.189   2.118   1.018
 5663TIP3   OH238547   4.853   3.673   7.508
 5663TIP3    H138548   4.919   3.739   7.484
 5663TIP3    H238549   4.851   3.614   7.433
 5664TIP3   OH238550   0.622   1.323   1.354
 5664TIP3    H138551   0.717   1.314   1.349
 5664TIP3    H238552   0.589   1.269   1.282
 5665TIP3   OH238553   4.986   3.544   1.861
 5665TIP3    H138554   4.895   3.553   1.888
 5665TIP3    H238555   4.982   3.503   1.774
 5666TIP3   OH238556   4.150   3.690   1.745
 5666TIP3    H138557   4.132   3.716   1.654
 5666TIP3    H238558   4.230   3.638   1.738
 5667TIP3   OH238559   6.396   2.354   0.338
 5667TIP3    H138560   6.302   2.346   0.355
 5667TIP3    H238561   6.423   2.267   0.309
 5668TIP3   OH238562   3.885   0.124   0.404
 5668TIP3    H138563   3.912   0.126   0.312
 5668TIP3    H238564   3.878   0.216   0.428
 5669TIP3   OH238565   4.546   3.692   7.736
 5669TIP3    H138566   4.583   3.749   7.803
 5669TIP3    H238567   4.513   3.752   7.669
 5670TIP3   OH238568   1.061   1.434   1.604
 5670TIP3    H138569   0.981   1.411   1.651
 5670TIP3    H238570   1.125   1.369   1.632
 5671TIP3   OH238571   1.171   6.092   0.520
 5671TIP3    H138572   1.180   6.186   0.501
 5671TIP3    H238573   1.094   6.086   0.577
 5672TIP3   OH238574   4.719   5.793   8.347
 5672TIP3    H138575   4.698   5.732   8.276
 5672TIP3    H238576   4.702   5.743   8.427
 5673TIP3   OH238577   0.520   2.183   1.070
 5673TIP3    H138578   0.571   2.137   1.003
 5673TIP3    H238579   0.581   2.194   1.143
 5674TIP3   OH238580   0.888   6.547   2.068
 5674TIP3    H138581   0.798   6.525   2.094
 5674TIP3    H238582   0.916   6.472   2.016
 5675TIP3   OH238583   6.450   2.778   7.343
 5675TIP3    H138584   6.481   2.833   7.272
 5675TIP3    H238585   6.528   2.756   7.394
 5676TIP3   OH238586   5.456   0.584   7.200
 5676TIP3    H138587   5.385   0.560   7.260
 5676TIP3    H238588   5.465   0.508   7.142
 5677TIP3   OH238589   6.695   1.908   7.220
 5677TIP3    H138590   6.661   1.897   7.309
 5677TIP3    H238591   6.760   1.978   7.228
 5678TIP3   OH238592   6.355   1.131   0.810
 5678TIP3    H138593   6.432   1.136   0.866
 5678TIP3    H238594   6.340   1.038   0.797
 5679TIP3   OH238595   0.782   6.707   0.903
 5679TIP3    H138596   0.765   6.702   0.809
 5679TIP3    H238597   0.751   6.623   0.938
 5680TIP3   OH238598   2.515   1.077   7.794
 5680TIP3    H138599   2.546   1.120   7.714
 5680TIP3    H238600   2.479   0.994   7.765
 5681TIP3   OH238601   0.450   0.440   6.571
 5681TIP3    H138602   0.396   0.364   6.546
 5681TIP3    H238603   0.428   0.507   6.506
 5682TIP3   OH238604   3.916   2.464   8.371
 5682TIP3    H138605   3.961   2.522   8.433
 5682TIP3    H238606   3.823   2.477   8.389
 5683TIP3   OH238607   4.715   0.341   7.491
 5683TIP3    H138608   4.684   0.382   7.572
 5683TIP3    H238609   4.717   0.248   7.511
 5684TIP3   OH238610   3.674   5.877   7.843
 5684TIP3    H138611   3.580   5.876   7.822
 5684TIP3    H238612   3.686   5.803   7.902
 5685TIP3   OH238613   1.285   5.331   7.592
 5685TIP3    H138614   1.223   5.331   7.519
 5685TIP3    H238615   1.343   5.257   7.575
 5686TIP3   OH238616   2.166   6.660   6.537
 5686TIP3    H138617   2.123   6.725   6.592
 5686TIP3    H238618   2.226   6.710   6.482
 5687TIP3   OH238619   1.155   0.083   0.084
 5687TIP3    H138620   1.137   0.133   0.005
 5687TIP3    H238621   1.077   0.029   0.097
 5688TIP3   OH238622   1.204   0.945   0.032
 5688TIP3    H138623   1.214   0.952   0.127
 5688TIP3    H238624   1.293   0.957   8.779
 5689TIP3   OH238625   0.441   5.779   1.124
 5689TIP3    H138626   0.364   5.771   1.179
 5689TIP3    H238627   0.410   5.823   1.045
 5690TIP3   OH238628   2.319   3.272   0.316
 5690TIP3    H138629   2.261   3.274   0.239
 5690TIP3    H238630   2.340   3.179   0.327
 5691TIP3   OH238631   4.539   2.927   1.530
 5691TIP3    H138632   4.510   2.891   1.614
 5691TIP3    H238633   4.635   2.923   1.535
 5692TIP3   OH238634   6.010   3.630   7.523
 5692TIP3    H138635   5.920   3.648   7.495
 5692TIP3    H238636   6.059   3.621   7.441
 5693TIP3   OH238637   6.572   2.078   2.159
 5693TIP3    H138638   6.593   1.988   2.134
 5693TIP3    H238639   6.653   2.113   2.195
 5694TIP3   OH238640   3.083   0.734   6.862
 5694TIP3    H138641   3.004   0.783   6.888
 5694TIP3    H238642   3.148   0.802   6.844
 5695TIP3   OH238643   2.946   3.873   0.128
 5695TIP3    H138644   2.980   3.961   0.120
 5695TIP3    H238645   3.002   3.819   0.072
 5696TIP3   OH238646   5.930   3.585   8.569
 5696TIP3    H138647   5.981   3.510   8.600
 5696TIP3    H238648   5.905   3.631   8.649
 5697TIP3   OH238649   0.442   6.775   0.419
 5697TIP3    H138650   0.480   6.691   0.396
 5697TIP3    H238651   0.517   0.006   0.439
 5698TIP3   OH238652   6.355   0.459   0.167
 5698TIP3    H138653   6.411   0.521   0.213
 5698TIP3    H238654   6.266   0.489   0.185
 5699TIP3   OH238655   2.665   0.331   7.887
 5699TIP3    H138656   2.657   0.275   7.963
 5699TIP3    H238657   2.683   0.272   7.814
 5700TIP3   OH238658   1.482   6.432   7.497
 5700TIP3    H138659   1.459   6.352   7.450
 5700TIP3    H238660   1.558   6.408   7.551
 5701TIP3   OH238661   1.823   5.453   7.248
 5701TIP3    H138662   1.800   5.470   7.339
 5701TIP3    H238663   1.744   5.416   7.210
 5702TIP3   OH238664   3.868   2.618   0.586
 5702TIP3    H138665   3.924   2.659   0.651
 5702TIP3    H238666   3.845   2.533   0.624
 5703TIP3   OH238667   2.101   0.857   7.265
 5703TIP3    H138668   2.120   0.918   7.337
 5703TIP3    H238669   2.139   0.774   7.293
 5704TIP3   OH238670   0.813   3.087   6.150
 5704TIP3    H138671   0.793   3.159   6.209
 5704TIP3    H238672   0.892   3.114   6.104
 5705TIP3   OH238673   4.326   1.556   0.265
 5705TIP3    H138674   4.263   1.542   0.194
 5705TIP3    H238675   4.344   1.469   0.299
 5706TIP3   OH238676   0.459   2.538   7.040
 5706TIP3    H138677   0.413   2.459   7.068
 5706TIP3    H238678   0.398   2.582   6.981
 5707TIP3   OH238679   6.098   5.444   8.078
 5707TIP3    H138680   6.178   5.491   8.102
 5707TIP3    H238681   6.127   5.376   8.017
 5708TIP3   OH238682   3.829   6.495   8.677
 5708TIP3    H138683   3.850   6.588   8.669
 5708TIP3    H238684   3.795   6.471   8.591
 5709TIP3   OH238685   0.641   4.956   6.373
 5709TIP3    H138686   0.573   4.921   6.316
 5709TIP3    H238687   0.650   4.891   6.443
 5710TIP3   OH238688   5.007   5.387   7.524
 5710TIP3    H138689   5.004   5.404   7.618
 5710TIP3    H238690   4.967   5.301   7.514
 5711TIP3   OH238691   4.917   2.547   8.536
 5711TIP3    H138692   4.912   2.638   8.507
 5711TIP3    H238693   4.976   2.549   8.611
 5712TIP3   OH238694   5.932   3.212   6.971
 5712TIP3    H138695   5.963   3.261   6.894
 5712TIP3    H238696   5.935   3.120   6.944
 5713TIP3   OH238697   2.012   4.693   1.457
 5713TIP3    H138698   2.037   4.746   1.381
 5713TIP3    H238699   1.925   4.725   1.481
 5714TIP3   OH238700   5.866   0.863   1.742
 5714TIP3    H138701   5.849   0.957   1.752
 5714TIP3    H238702   5.902   0.855   1.653
 5715TIP3   OH238703   4.077   6.619   1.781
 5715TIP3    H138704   4.125   6.639   1.700
 5715TIP3    H238705   4.144   6.591   1.843
 5716TIP3   OH238706   4.458   1.913   0.685
 5716TIP3    H138707   4.484   1.868   0.605
 5716TIP3    H238708   4.369   1.943   0.668
 5717TIP3   OH238709   3.728   5.608   0.326
 5717TIP3    H138710   3.759   5.523   0.358
 5717TIP3    H238711   3.788   5.672   0.364
 5718TIP3   OH238712   0.322   1.998   7.145
 5718TIP3    H138713   0.349   1.907   7.152
 5718TIP3    H238714   0.234   2.001   7.182
 5719TIP3   OH238715   4.814   2.656   7.917
 5719TIP3    H138716   4.886   2.710   7.885
 5719TIP3    H238717   4.778   2.615   7.838
 5720TIP3   OH238718   5.847   5.694   7.476
 5720TIP3    H138719   5.930   5.738   7.462
 5720TIP3    H238720   5.794   5.719   7.400
 5721TIP3   OH238721   0.287   6.676   1.071
 5721TIP3    H138722   0.204   6.714   1.041
 5721TIP3    H238723   0.317   6.623   0.997
 5722TIP3   OH238724   3.459   3.108   8.293
 5722TIP3    H138725   3.366   3.099   8.315
 5722TIP3    H238726   3.506   3.076   8.370
 5723TIP3   OH238727   3.110   3.248   0.705
 5723TIP3    H138728   3.088   3.158   0.728
 5723TIP3    H238729   3.026   3.290   0.689
 5724TIP3   OH238730   4.193   1.023   0.675
 5724TIP3    H138731   4.242   1.074   0.740
 5724TIP3    H238732   4.136   1.087   0.632
 5725TIP3   OH238733   0.300   4.688   7.972
 5725TIP3    H138734   0.376   4.656   7.923
 5725TIP3    H238735   0.233   4.701   7.906
 5726TIP3   OH238736   6.299   5.424   8.769
 5726TIP3    H138737   6.294   5.509   0.031
 5726TIP3    H238738   6.211   5.387   8.778
 5727TIP3   OH238739   2.643   3.563   0.814
 5727TIP3    H138740   2.690   3.599   0.889
 5727TIP3    H238741   2.586   3.496   0.851
 5728TIP3   OH238742   5.920   5.801   8.718
 5728TIP3    H138743   5.861   5.828   8.648
 5728TIP3    H238744   5.911   5.706   8.723
 5729TIP3   OH238745   5.120   6.715   7.103
 5729TIP3    H138746   5.097   6.676   7.019
 5729TIP3    H238747   5.130   6.640   7.162
 5730TIP3   OH238748   0.036   4.997   7.917
 5730TIP3    H138749   0.125   5.028   7.935
 5730TIP3    H238750   0.013   4.945   7.995
 5731TIP3   OH238751   1.714   0.408   1.841
 5731TIP3    H138752   1.733   0.463   1.917
 5731TIP3    H238753   1.740   0.320   1.869
 5732TIP3   OH238754   2.225   1.239   7.774
 5732TIP3    H138755   2.237   1.300   7.701
 5732TIP3    H238756   2.300   1.179   7.768
 5733TIP3   OH238757   5.415   0.143   7.903
 5733TIP3    H138758   5.328   0.113   7.928
 5733TIP3    H238759   5.472   0.067   7.916
 5734TIP3   OH238760   2.611   1.415   0.397
 5734TIP3    H138761   2.528   1.464   0.400
 5734TIP3    H238762   2.662   1.458   0.328
 5735TIP3   OH238763   4.944   5.071   1.543
 5735TIP3    H138764   4.864   5.097   1.498
 5735TIP3    H238765   5.009   5.135   1.514
 5736TIP3   OH238766   5.943   1.504   0.386
 5736TIP3    H138767   5.871   1.525   0.445
 5736TIP3    H238768   5.901   1.485   0.302
 5737TIP3   OH238769   3.514   2.281   8.057
 5737TIP3    H138770   3.423   2.252   8.053
 5737TIP3    H238771   3.538   2.272   8.149
 5738TIP3   OH238772   2.395   6.134   7.956
 5738TIP3    H138773   2.460   6.067   7.978
 5738TIP3    H238774   2.446   6.204   7.914
 5739TIP3   OH238775   1.817   0.675   0.107
 5739TIP3    H138776   1.771   0.646   0.029
 5739TIP3    H238777   1.905   0.698   0.077
 5740TIP3   OH238778   3.944   5.320   1.519
 5740TIP3    H138779   3.889   5.398   1.511
 5740TIP3    H238780   3.887   5.248   1.493
 5741TIP3   OH238781   0.440   4.273   0.709
 5741TIP3    H138782   0.375   4.338   0.682
 5741TIP3    H238783   0.514   4.286   0.649
 5742TIP3   OH238784   4.057   2.074   0.310
 5742TIP3    H138785   3.999   2.003   0.337
 5742TIP3    H238786   4.142   2.033   0.298
 5743TIP3   OH238787   0.357   0.739   7.531
 5743TIP3    H138788   0.272   0.781   7.543
 5743TIP3    H238789   0.363   0.677   7.603
 5744TIP3   OH238790   0.069   1.990   1.433
 5744TIP3    H138791   0.065   2.048   1.509
 5744TIP3    H238792   6.814   2.012   1.384
 5745TIP3   OH238793   5.481   3.850   7.999
 5745TIP3    H138794   5.576   3.852   8.013
 5745TIP3    H238795   5.454   3.762   8.023
 5746TIP3   OH238796   5.282   4.331   7.409
 5746TIP3    H138797   5.232   4.410   7.426
 5746TIP3    H238798   5.320   4.308   7.494
 5747TIP3   OH238799   0.231   5.277   7.903
 5747TIP3    H138800   0.242   5.351   7.843
 5747TIP3    H238801   0.253   5.313   7.989
 5748TIP3   OH238802   0.426   1.655   7.903
 5748TIP3    H138803   0.507   1.694   7.868
 5748TIP3    H238804   0.407   1.582   7.844
 5749TIP3   OH238805   2.198   1.349   0.578
 5749TIP3    H138806   2.106   1.376   0.581
 5749TIP3    H238807   2.206   1.283   0.646
 5750TIP3   OH238808   4.697   5.349   8.022
 5750TIP3    H138809   4.694   5.254   8.005
 5750TIP3    H238810   4.742   5.357   8.106
 5751TIP3   OH238811   1.256   5.619   2.253
 5751TIP3    H138812   1.291   5.609   2.341
 5751TIP3    H238813   1.331   5.644   2.199
 5752TIP3   OH238814   3.172   4.613   7.039
 5752TIP3    H138815   3.147   4.522   7.056
 5752TIP3    H238816   3.264   4.617   7.065
 5753TIP3   OH238817   5.709   1.735   0.739
 5753TIP3    H138818   5.692   1.717   0.832
 5753TIP3    H238819   5.708   1.830   0.732
 5754TIP3   OH238820   0.155   1.059   7.468
 5754TIP3    H138821   0.119   1.092   7.550
 5754TIP3    H238822   0.086   1.001   7.433
 5755TIP3   OH238823   5.546   2.558   1.141
 5755TIP3    H138824   5.560   2.564   1.046
 5755TIP3    H238825   5.524   2.647   1.168
 5756TIP3   OH238826   0.433   6.479   1.815
 5756TIP3    H138827   0.392   6.512   1.895
 5756TIP3    H238828   0.401   6.390   1.807
 5757TIP3   OH238829   5.662   6.731   1.363
 5757TIP3    H138830   5.708   6.681   1.431
 5757TIP3    H238831   5.594   6.671   1.332
 5758TIP3   OH238832   3.065   1.938   2.495
 5758TIP3    H138833   3.115   2.016   2.518
 5758TIP3    H238834   2.974   1.963   2.508
 5759TIP3   OH238835   2.360   5.728   0.171
 5759TIP3    H138836   2.268   5.753   0.172
 5759TIP3    H238837   2.402   5.793   0.115
 5760TIP3   OH238838   3.243   0.090   8.641
 5760TIP3    H138839   3.250   0.070   8.548
 5760TIP3    H238840   3.334   0.089   8.673
 5761TIP3   OH238841   5.701   3.869   0.875
 5761TIP3    H138842   5.606   3.880   0.877
 5761TIP3    H238843   5.714   3.780   0.841
 5762TIP3   OH238844   4.164   6.058   1.266
 5762TIP3    H138845   4.207   6.039   1.183
 5762TIP3    H238846   4.202   5.996   1.328
 5763TIP3   OH238847   6.058   6.583   1.770
 5763TIP3    H138848   6.036   6.519   1.703
 5763TIP3    H238849   6.127   6.542   1.822
 5764TIP3   OH238850   3.735   1.264   2.132
 5764TIP3    H138851   3.760   1.349   2.096
 5764TIP3    H238852   3.661   1.236   2.078
 5765TIP3   OH238853   0.140   5.185   6.606
 5765TIP3    H138854   0.059   5.216   6.566
 5765TIP3    H238855   0.113   5.109   6.658
 5766TIP3   OH238856   0.667   4.321   1.268
 5766TIP3    H138857   0.645   4.230   1.290
 5766TIP3    H238858   0.668   4.366   1.352
 5767TIP3   OH238859   4.019   4.236   7.607
 5767TIP3    H138860   3.989   4.186   7.683
 5767TIP3    H238861   4.113   4.248   7.622
 5768TIP3   OH238862   3.301   1.937   0.390
 5768TIP3    H138863   3.220   1.967   0.431
 5768TIP3    H238864   3.311   1.847   0.419
 5769TIP3   OH238865   2.349   2.262   8.143
 5769TIP3    H138866   2.420   2.266   8.207
 5769TIP3    H238867   2.389   2.288   8.061
 5770TIP3   OH238868   2.504   5.849   0.387
 5770TIP3    H138869   2.430   5.793   0.365
 5770TIP3    H238870   2.484   5.933   0.346
 5771TIP3   OH238871   4.340   2.851   0.822
 5771TIP3    H138872   4.383   2.843   0.907
 5771TIP3    H238873   4.304   2.940   0.822
 5772TIP3   OH238874   4.050   2.947   1.923
 5772TIP3    H138875   4.031   2.980   2.011
 5772TIP3    H238876   4.026   3.020   1.865
 5773TIP3   OH238877   0.001   4.220   7.329
 5773TIP3    H138878   0.039   4.138   7.361
 5773TIP3    H238879   6.747   4.193   7.283
 5774TIP3   OH238880   3.935   5.701   7.641
 5774TIP3    H138881   3.931   5.732   7.731
 5774TIP3    H238882   3.975   5.773   7.593
 5775TIP3   OH238883   6.627   0.668   8.065
 5775TIP3    H138884   6.625   0.607   8.138
 5775TIP3    H238885   6.720   0.673   8.041
 5776TIP3   OH238886   2.586   2.060   1.187
 5776TIP3    H138887   2.589   2.056   1.283
 5776TIP3    H238888   2.605   1.970   1.159
 5777TIP3   OH238889   2.857   1.305   1.333
 5777TIP3    H138890   2.804   1.277   1.258
 5777TIP3    H238891   2.917   1.232   1.348
 5778TIP3   OH238892   2.831   4.014   7.594
 5778TIP3    H138893   2.885   4.001   7.672
 5778TIP3    H238894   2.848   3.937   7.540
 5779TIP3   OH238895   1.128   4.334   8.264
 5779TIP3    H138896   1.101   4.345   8.355
 5779TIP3    H238897   1.214   4.377   8.259
 5780TIP3   OH238898   6.025   5.573   1.735
 5780TIP3    H138899   6.121   5.575   1.740
 5780TIP3    H238900   5.996   5.579   1.825
 5781TIP3   OH238901   1.963   4.756   2.152
 5781TIP3    H138902   2.019   4.730   2.079
 5781TIP3    H238903   1.897   4.813   2.112
 5782TIP3   OH238904   2.219   6.674   1.621
 5782TIP3    H138905   2.199   6.741   1.686
 5782TIP3    H238906   2.155   6.689   1.551
 5783TIP3   OH238907   1.497   0.450   0.624
 5783TIP3    H138908   1.420   0.492   0.662
 5783TIP3    H238909   1.549   0.522   0.589
 5784TIP3   OH238910   5.237   2.591   7.986
 5784TIP3    H138911   5.290   2.553   8.056
 5784TIP3    H238912   5.150   2.601   8.024
 5785TIP3   OH238913   2.666   2.605   8.544
 5785TIP3    H138914   2.724   2.676   8.574
 5785TIP3    H238915   2.706   2.575   8.463
 5786TIP3   OH238916   0.012   2.416   1.939
 5786TIP3    H138917   6.797   2.340   1.897
 5786TIP3    H238918   0.062   2.379   2.012
 5787TIP3   OH238919   0.308   5.733   7.638
 5787TIP3    H138920   0.301   5.811   7.583
 5787TIP3    H238921   0.252   5.752   7.713
 5788TIP3   OH238922   0.118   0.027   7.802
 5788TIP3    H138923   0.099   0.090   7.733
 5788TIP3    H238924   0.059   6.779   7.784
 5789TIP3   OH238925   4.874   6.119   8.378
 5789TIP3    H138926   4.789   6.103   8.418
 5789TIP3    H238927   4.937   6.112   8.450
 5790TIP3   OH238928   3.901   4.694   6.289
 5790TIP3    H138929   3.917   4.692   6.383
 5790TIP3    H238930   3.968   4.637   6.252
 5791TIP3   OH238931   0.823   5.403   6.492
 5791TIP3    H138932   0.772   5.324   6.475
 5791TIP3    H238933   0.777   5.473   6.444
 5792TIP3   OH238934   5.074   0.000   8.501
 5792TIP3    H138935   5.165   0.030   8.501
 5792TIP3    H238936   5.024   0.076   8.471
 5793TIP3   OH238937   4.273   5.350   1.417
 5793TIP3    H138938   4.306   5.270   1.375
 5793TIP3    H238939   4.232   5.399   1.345
 5794TIP3   OH238940   5.219   2.244   1.566
 5794TIP3    H138941   5.133   2.281   1.587
 5794TIP3    H238942   5.267   2.317   1.527
 5795TIP3   OH238943   3.589   6.186   0.884
 5795TIP3    H138944   3.570   6.222   0.798
 5795TIP3    H238945   3.523   6.118   0.897
 5796TIP3   OH238946   3.327   4.918   0.662
 5796TIP3    H138947   3.265   4.897   0.593
 5796TIP3    H238948   3.360   5.005   0.639
 5797TIP3   OH238949   0.015   1.096   7.993
 5797TIP3    H138950   6.783   1.052   7.931
 5797TIP3    H238951   0.050   1.026   8.048
 5798TIP3   OH238952   6.186   3.672   1.727
 5798TIP3    H138953   6.170   3.644   1.637
 5798TIP3    H238954   6.114   3.733   1.746
 5799TIP3   OH238955   4.355   0.099   2.129
 5799TIP3    H138956   4.339   0.192   2.111
 5799TIP3    H238957   4.363   0.095   2.225
 5800TIP3   OH238958   5.425   3.593   7.486
 5800TIP3    H138959   5.465   3.680   7.489
 5800TIP3    H238960   5.331   3.609   7.492
 5801TIP3   OH238961   3.195   2.003   1.702
 5801TIP3    H138962   3.261   2.054   1.749
 5801TIP3    H238963   3.112   2.048   1.719
 5802TIP3   OH238964   2.893   4.627   0.220
 5802TIP3    H138965   2.985   4.606   0.201
 5802TIP3    H238966   2.843   4.574   0.159
 5803TIP3   OH238967   2.864   5.899   7.093
 5803TIP3    H138968   2.770   5.912   7.105
 5803TIP3    H238969   2.885   5.824   7.150
 5804TIP3   OH238970   5.332   5.937   1.376
 5804TIP3    H138971   5.263   5.876   1.401
 5804TIP3    H238972   5.286   6.007   1.330
 5805TIP3   OH238973   5.562   6.784   8.395
 5805TIP3    H138974   5.578   6.726   8.470
 5805TIP3    H238975   5.544   6.724   8.322
 5806TIP3   OH238976   0.634   4.266   8.384
 5806TIP3    H138977   0.725   4.240   8.370
 5806TIP3    H238978   0.585   4.221   8.316
 5807TIP3   OH238979   6.366   6.342   0.183
 5807TIP3    H138980   6.367   6.265   0.239
 5807TIP3    H238981   6.445   6.335   0.130
 5808TIP3   OH238982   6.030   0.634   7.820
 5808TIP3    H138983   5.984   0.603   7.742
 5808TIP3    H238984   5.978   0.599   7.893
 5809TIP3   OH238985   3.496   4.677   0.455
 5809TIP3    H138986   3.484   4.685   0.550
 5809TIP3    H238987   3.553   4.601   0.443
 5810TIP3   OH238988   5.923   0.561   7.584
 5810TIP3    H138989   5.934   0.466   7.589
 5810TIP3    H238990   5.832   0.573   7.557
 5811TIP3   OH238991   2.118   0.485   6.516
 5811TIP3    H138992   2.169   0.414   6.476
 5811TIP3    H238993   2.163   0.565   6.488
 5812TIP3   OH238994   0.081   2.426   8.283
 5812TIP3    H138995   0.085   2.340   8.325
 5812TIP3    H238996   0.010   2.472   8.328
 5813TIP3   OH238997   1.162   4.326   1.649
 5813TIP3    H138998   1.206   4.258   1.699
 5813TIP3    H238999   1.084   4.284   1.614
 5814TIP3   OH239000   1.970   4.374   0.375
 5814TIP3    H139001   1.933   4.358   0.462
 5814TIP3    H239002   2.029   4.301   0.360
 5815TIP3   OH239003   5.373   3.545   0.888
 5815TIP3    H139004   5.284   3.533   0.922
 5815TIP3    H239005   5.402   3.628   0.925
 5816TIP3   OH239006   0.509   1.010   0.588
 5816TIP3    H139007   0.574   0.957   0.543
 5816TIP3    H239008   0.425   0.981   0.551
 5817TIP3   OH239009   2.721   5.869   2.463
 5817TIP3    H139010   2.731   5.833   2.375
 5817TIP3    H239011   2.790   5.826   2.514
 5818TIP3   OH239012   4.932   1.691   8.738
 5818TIP3    H139013   4.898   1.780   8.743
 5818TIP3    H239014   4.905   1.660   8.651
 5819TIP3   OH239015   1.838   6.103   0.736
 5819TIP3    H139016   1.861   6.121   0.827
 5819TIP3    H239017   1.748   6.135   0.727
 5820TIP3   OH239018   0.825   6.578   8.410
 5820TIP3    H139019   0.917   6.600   8.421
 5820TIP3    H239020   0.779   6.643   8.463
 5821TIP3   OH239021   6.655   2.700   7.763
 5821TIP3    H139022   6.630   2.714   7.672
 5821TIP3    H239023   6.571   2.688   7.808
 5822TIP3   OH239024   2.404   5.366   7.467
 5822TIP3    H139025   2.482   5.334   7.422
 5822TIP3    H239026   2.428   5.367   7.559
 5823TIP3   OH239027   4.066   6.394   0.992
 5823TIP3    H139028   4.030   6.365   1.075
 5823TIP3    H239029   4.154   6.355   0.989
 5824TIP3   OH239030   3.355   0.565   0.676
 5824TIP3    H139031   3.340   0.607   0.591
 5824TIP3    H239032   3.373   0.473   0.654
 5825TIP3   OH239033   3.265   4.467   0.353
 5825TIP3    H139034   3.242   4.529   0.284
 5825TIP3    H239035   3.279   4.522   0.430
 5826TIP3   OH239036   1.888   6.345   0.023
 5826TIP3    H139037   1.855   6.273   0.076
 5826TIP3    H239038   1.922   6.304   8.724
 5827TIP3   OH239039   1.848   3.661   1.657
 5827TIP3    H139040   1.844   3.708   1.574
 5827TIP3    H239041   1.756   3.646   1.680
 5828TIP3   OH239042   6.313   4.797   8.692
 5828TIP3    H139043   6.282   4.875   8.646
 5828TIP3    H239044   6.297   4.726   8.630
 5829TIP3   OH239045   5.861   2.773   0.594
 5829TIP3    H139046   5.774   2.757   0.631
 5829TIP3    H239047   5.922   2.751   0.665
 5830TIP3   OH239048   1.391   2.649   0.503
 5830TIP3    H139049   1.461   2.637   0.568
 5830TIP3    H239050   1.393   2.743   0.484
 5831TIP3   OH239051   3.666   2.867   0.309
 5831TIP3    H139052   3.593   2.813   0.277
 5831TIP3    H239053   3.668   2.852   0.403
 5832TIP3   OH239054   6.333   1.057   7.419
 5832TIP3    H139055   6.314   1.029   7.509
 5832TIP3    H239056   6.390   0.988   7.384
 5833TIP3   OH239057   6.400   2.681   8.735
 5833TIP3    H139058   6.394   2.722   8.649
 5833TIP3    H239059   6.486   2.709   8.768
 5834TIP3   OH239060   0.522   2.651   1.317
 5834TIP3    H139061   0.478   2.734   1.296
 5834TIP3    H239062   0.451   2.587   1.325
 5835TIP3   OH239063   5.660   2.682   0.734
 5835TIP3    H139064   5.728   2.628   0.776
 5835TIP3    H239065   5.597   2.701   0.804
 5836TIP3   OH239066   1.869   4.591   6.789
 5836TIP3    H139067   1.806   4.586   6.717
 5836TIP3    H239068   1.835   4.660   6.846
 5837TIP3   OH239069   4.310   1.597   1.476
 5837TIP3    H139070   4.283   1.506   1.465
 5837TIP3    H239071   4.236   1.649   1.442
 5838TIP3   OH239072   3.314   5.434   6.714
 5838TIP3    H139073   3.226   5.466   6.694
 5838TIP3    H239074   3.350   5.408   6.629
 5839TIP3   OH239075   3.754   3.460   6.952
 5839TIP3    H139076   3.721   3.507   6.875
 5839TIP3    H239077   3.758   3.527   7.020
 5840TIP3   OH239078   1.757   3.365   7.819
 5840TIP3    H139079   1.828   3.407   7.769
 5840TIP3    H239080   1.716   3.438   7.866
 5841TIP3   OH239081   1.021   4.687   0.765
 5841TIP3    H139082   1.059   4.698   0.677
 5841TIP3    H239083   1.094   4.656   0.818
 5842TIP3   OH239084   0.492   2.395   7.858
 5842TIP3    H139085   0.472   2.436   7.942
 5842TIP3    H239086   0.540   2.316   7.880
 5843TIP3   OH239087   1.924   2.736   0.569
 5843TIP3    H139088   1.883   2.653   0.593
 5843TIP3    H239089   1.954   2.773   0.652
 5844TIP3   OH239090   3.351   5.205   6.880
 5844TIP3    H139091   3.431   5.185   6.831
 5844TIP3    H239092   3.311   5.278   6.833
 5845TIP3   OH239093   3.599   0.873   0.261
 5845TIP3    H139094   3.594   0.866   0.166
 5845TIP3    H239095   3.635   0.961   0.277
 5846TIP3   OH239096   0.295   0.282   1.086
 5846TIP3    H139097   0.367   0.224   1.107
 5846TIP3    H239098   0.221   0.224   1.067
 5847TIP3   OH239099   6.430   4.745   1.222
 5847TIP3    H139100   6.408   4.669   1.277
 5847TIP3    H239101   6.427   4.711   1.132
 5848TIP3   OH239102   4.148   0.579   7.102
 5848TIP3    H139103   4.132   0.664   7.143
 5848TIP3    H239104   4.237   0.586   7.067
 5849TIP3   OH239105   5.315   3.680   1.355
 5849TIP3    H139106   5.299   3.769   1.325
 5849TIP3    H239107   5.387   3.689   1.418
 5850TIP3   OH239108   4.432   2.683   7.344
 5850TIP3    H139109   4.363   2.747   7.325
 5850TIP3    H239110   4.404   2.642   7.426
 5851TIP3   OH239111   4.357   0.224   6.086
 5851TIP3    H139112   4.317   0.202   6.002
 5851TIP3    H239113   4.423   0.155   6.100
 5852TIP3   OH239114   4.613   1.234   7.892
 5852TIP3    H139115   4.667   1.314   7.894
 5852TIP3    H239116   4.667   1.170   7.845
 5853TIP3   OH239117   3.372   0.292   8.443
 5853TIP3    H139118   3.393   0.375   8.399
 5853TIP3    H239119   3.425   0.292   8.522
 5854TIP3   OH239120   4.856   2.070   7.841
 5854TIP3    H139121   4.866   2.093   7.749
 5854TIP3    H239122   4.918   1.999   7.855
 5855TIP3   OH239123   4.738   0.023   0.117
 5855TIP3    H139124   4.754   0.050   0.208
 5855TIP3    H239125   4.819   0.045   0.071
 5856TIP3   OH239126   5.405   6.349   8.225
 5856TIP3    H139127   5.359   6.399   8.158
 5856TIP3    H239128   5.496   6.344   8.194
 5857TIP3   OH239129   2.802   2.075   8.293
 5857TIP3    H139130   2.808   1.980   8.290
 5857TIP3    H239131   2.878   2.103   8.345
 5858TIP3   OH239132   2.638   4.879   7.782
 5858TIP3    H139133   2.543   4.873   7.772
 5858TIP3    H239134   2.670   4.905   7.696
 5859TIP3   OH239135   0.740   0.304   7.747
 5859TIP3    H139136   0.817   0.249   7.760
 5859TIP3    H239137   0.672   0.244   7.714
 5860TIP3   OH239138   3.043   1.459   0.467
 5860TIP3    H139139   3.049   1.461   0.563
 5860TIP3    H239140   3.120   1.509   0.438
 5861TIP3   OH239141   2.593   4.349   0.075
 5861TIP3    H139142   2.576   4.294   8.779
 5861TIP3    H239143   2.510   4.354   0.121
 5862TIP3   OH239144   4.592   0.880   0.230
 5862TIP3    H139145   4.558   0.844   0.148
 5862TIP3    H239146   4.675   0.921   0.205
 5863TIP3   OH239147   3.434   4.590   8.363
 5863TIP3    H139148   3.403   4.663   8.417
 5863TIP3    H239149   3.375   4.518   8.383
 5864TIP3   OH239150   1.838   4.044   6.859
 5864TIP3    H139151   1.912   4.000   6.819
 5864TIP3    H239152   1.874   4.086   6.938
 5865TIP3   OH239153   5.880   5.931   8.377
 5865TIP3    H139154   5.947   5.950   8.311
 5865TIP3    H239155   5.858   5.839   8.362
 5866TIP3   OH239156   4.951   0.715   8.771
 5866TIP3    H139157   4.981   0.804   0.008
 5866TIP3    H239158   4.983   0.696   8.683
 5867TIP3   OH239159   4.283   2.407   7.793
 5867TIP3    H139160   4.241   2.346   7.732
 5867TIP3    H239161   4.230   2.401   7.873
 5868TIP3   OH239162   0.775   1.681   1.455
 5868TIP3    H139163   0.707   1.631   1.411
 5868TIP3    H239164   0.780   1.642   1.543
 5869TIP3   OH239165   2.666   4.510   0.953
 5869TIP3    H139166   2.587   4.475   0.913
 5869TIP3    H239167   2.715   4.548   0.880
 5870TIP3   OH239168   1.836   0.582   0.973
 5870TIP3    H139169   1.885   0.609   0.895
 5870TIP3    H239170   1.746   0.571   0.943
 5871TIP3   OH239171   1.941   4.911   6.867
 5871TIP3    H139172   1.894   4.914   6.784
 5871TIP3    H239173   1.948   5.003   6.894
 5872TIP3   OH239174   3.708   0.799   7.864
 5872TIP3    H139175   3.700   0.822   7.956
 5872TIP3    H239176   3.711   0.884   7.818
 5873TIP3   OH239177   6.579   4.143   7.193
 5873TIP3    H139178   6.502   4.156   7.139
 5873TIP3    H239179   6.623   4.067   7.155
 5874TIP3   OH239180   4.018   3.977   8.419
 5874TIP3    H139181   4.067   3.911   8.468
 5874TIP3    H239182   4.010   4.051   8.479
 5875TIP3   OH239183   5.744   3.639   7.019
 5875TIP3    H139184   5.799   3.635   7.096
 5875TIP3    H239185   5.788   3.583   6.955
 5876TIP3   OH239186   2.632   5.834   1.759
 5876TIP3    H139187   2.695   5.895   1.799
 5876TIP3    H239188   2.612   5.872   1.674
 5877TIP3   OH239189   1.759   0.958   1.727
 5877TIP3    H139190   1.771   0.965   1.632
 5877TIP3    H239191   1.820   1.021   1.764
 5878TIP3   OH239192   5.027   6.041   2.282
 5878TIP3    H139193   4.956   6.068   2.224
 5878TIP3    H239194   4.993   5.964   2.327
 5879TIP3   OH239195   4.528   2.393   0.069
 5879TIP3    H139196   4.495   2.394   8.760
 5879TIP3    H239197   4.617   2.430   0.062
 5880TIP3   OH239198   5.725   6.601   6.323
 5880TIP3    H139199   5.749   6.529   6.381
 5880TIP3    H239200   5.705   6.559   6.239
 5881TIP3   OH239201   3.296   0.676   0.442
 5881TIP3    H139202   3.281   0.751   0.385
 5881TIP3    H239203   3.329   0.608   0.384
 5882TIP3   OH239204   5.596   5.171   7.403
 5882TIP3    H139205   5.605   5.241   7.339
 5882TIP3    H239206   5.501   5.163   7.417
 5883TIP3   OH239207   4.085   0.523   7.580
 5883TIP3    H139208   4.168   0.568   7.593
 5883TIP3    H239209   4.106   0.450   7.521
 5884TIP3   OH239210   4.366   0.887   1.384
 5884TIP3    H139211   4.340   0.798   1.410
 5884TIP3    H239212   4.399   0.877   1.295
 5885TIP3   OH239213   5.277   5.788   0.573
 5885TIP3    H139214   5.323   5.776   0.655
 5885TIP3    H239215   5.340   5.761   0.506
 5886TIP3   OH239216   1.019   4.062   0.017
 5886TIP3    H139217   0.942   4.101   0.060
 5886TIP3    H239218   1.035   4.118   8.722
 5887TIP3   OH239219   1.972   4.794   6.464
 5887TIP3    H139220   2.050   4.847   6.482
 5887TIP3    H239221   1.985   4.714   6.514
 5888TIP3   OH239222   1.623   1.215   8.680
 5888TIP3    H139223   1.627   1.282   8.612
 5888TIP3    H239224   1.556   1.153   8.649
 5889TIP3   OH239225   0.273   1.489   0.493
 5889TIP3    H139226   0.260   1.543   0.415
 5889TIP3    H239227   0.361   1.454   0.483
 5890TIP3   OH239228   1.353   6.627   6.740
 5890TIP3    H139229   1.444   6.604   6.723
 5890TIP3    H239230   1.325   6.676   6.663
 5891TIP3   OH239231   5.477   1.577   2.043
 5891TIP3    H139232   5.398   1.531   2.017
 5891TIP3    H239233   5.446   1.664   2.069
 5892TIP3   OH239234   4.716   5.470   1.350
 5892TIP3    H139235   4.664   5.472   1.270
 5892TIP3    H239236   4.661   5.424   1.414
 5893TIP3   OH239237   5.166   5.882   1.683
 5893TIP3    H139238   5.122   5.953   1.637
 5893TIP3    H239239   5.104   5.809   1.677
 5894TIP3   OH239240   2.488   6.655   7.449
 5894TIP3    H139241   2.441   6.734   7.473
 5894TIP3    H239242   2.425   6.584   7.464
 5895TIP3   OH239243   3.879   1.117   0.840
 5895TIP3    H139244   3.905   1.209   0.829
 5895TIP3    H239245   3.944   1.081   0.901
 5896TIP3   OH239246   4.781   2.522   7.661
 5896TIP3    H139247   4.718   2.455   7.634
 5896TIP3    H239248   4.866   2.487   7.634
 5897TIP3   OH239249   0.930   6.657   2.319
 5897TIP3    H139250   0.917   6.634   2.227
 5897TIP3    H239251   1.006   6.606   2.346
 5898TIP3   OH239252   4.132   2.466   8.017
 5898TIP3    H139253   4.082   2.417   8.082
 5898TIP3    H239254   4.069   2.527   7.979
 5899TIP3   OH239255   3.451   4.887   8.664
 5899TIP3    H139256   3.379   4.839   8.624
 5899TIP3    H239257   3.475   4.837   8.742
 5900TIP3   OH239258   2.804   2.749   7.159
 5900TIP3    H139259   2.847   2.834   7.170
 5900TIP3    H239260   2.876   2.686   7.151
 5901TIP3   OH239261   2.259   2.424   1.497
 5901TIP3    H139262   2.257   2.389   1.408
 5901TIP3    H239263   2.290   2.351   1.550
 5902TIP3   OH239264   6.183   2.012   7.160
 5902TIP3    H139265   6.189   1.969   7.074
 5902TIP3    H239266   6.114   2.077   7.149
 5903TIP3   OH239267   6.419   5.151   6.993
 5903TIP3    H139268   6.504   5.139   6.950
 5903TIP3    H239269   6.355   5.135   6.923
 5904TIP3   OH239270   5.239   6.198   7.931
 5904TIP3    H139271   5.316   6.196   7.874
 5904TIP3    H239272   5.166   6.182   7.872
 5905TIP3   OH239273   6.621   6.628   8.575
 5905TIP3    H139274   6.683   6.604   8.644
 5905TIP3    H239275   6.670   6.616   8.494
 5906TIP3   OH239276   2.130   3.783   1.451
 5906TIP3    H139277   2.104   3.809   1.363
 5906TIP3    H239278   2.182   3.856   1.484
 5907TIP3   OH239279   2.796   3.044   1.146
 5907TIP3    H139280   2.783   3.066   1.053
 5907TIP3    H239281   2.836   3.122   1.184
 5908TIP3   OH239282   3.931   5.064   7.655
 5908TIP3    H139283   3.943   4.984   7.706
 5908TIP3    H239284   4.019   5.085   7.622
 5909TIP3   OH239285   0.933   6.705   6.221
 5909TIP3    H139286   0.944   6.623   6.269
 5909TIP3    H239287   0.838   6.715   6.213
 5910TIP3   OH239288   0.685   0.736   7.132
 5910TIP3    H139289   0.616   0.800   7.151
 5910TIP3    H239290   0.761   0.769   7.180
 5911TIP3   OH239291   5.030   2.992   8.337
 5911TIP3    H139292   5.113   3.003   8.382
 5911TIP3    H239293   4.976   2.943   8.399
 5912TIP3   OH239294   2.390   0.155   0.289
 5912TIP3    H139295   2.397   0.241   0.329
 5912TIP3    H239296   2.348   0.100   0.355
 5913TIP3   OH239297   3.413   4.204   6.641
 5913TIP3    H139298   3.367   4.280   6.678
 5913TIP3    H239299   3.383   4.130   6.693
 5914TIP3   OH239300   2.196   3.801   6.957
 5914TIP3    H139301   2.177   3.774   7.046
 5914TIP3    H239302   2.112   3.828   6.921
 5915TIP3   OH239303   0.355   2.399   8.106
 5915TIP3    H139304   0.264   2.429   8.117
 5915TIP3    H239305   0.354   2.308   8.135
 5916TIP3   OH239306   0.299   5.055   1.482
 5916TIP3    H139307   0.216   5.042   1.437
 5916TIP3    H239308   0.356   4.986   1.447
 5917TIP3   OH239309   0.725   4.154   1.751
 5917TIP3    H139310   0.671   4.226   1.785
 5917TIP3    H239311   0.745   4.101   1.828
 5918TIP3   OH239312   2.818   2.001   7.026
 5918TIP3    H139313   2.736   1.953   7.028
 5918TIP3    H239314   2.882   1.942   7.065
 5919TIP3   OH239315   4.717   1.871   2.262
 5919TIP3    H139316   4.811   1.861   2.276
 5919TIP3    H239317   4.687   1.923   2.336
 5920TIP3   OH239318   0.558   6.218   7.974
 5920TIP3    H139319   0.563   6.230   7.879
 5920TIP3    H239320   0.624   6.279   8.008
 5921TIP3   OH239321   3.541   6.512   8.230
 5921TIP3    H139322   3.571   6.540   8.144
 5921TIP3    H239323   3.483   6.438   8.212
 5922TIP3   OH239324   2.530   0.865   7.316
 5922TIP3    H139325   2.477   0.803   7.267
 5922TIP3    H239326   2.513   0.950   7.274
 5923TIP3   OH239327   4.823   5.370   1.701
 5923TIP3    H139328   4.907   5.386   1.744
 5923TIP3    H239329   4.759   5.374   1.772
 5924TIP3   OH239330   0.426   2.982   1.912
 5924TIP3    H139331   0.446   3.056   1.969
 5924TIP3    H239332   0.456   2.905   1.961
 5925TIP3   OH239333   3.305   1.662   2.739
 5925TIP3    H139334   3.333   1.721   2.809
 5925TIP3    H239335   3.214   1.640   2.761
 5926TIP3   OH239336   5.295   2.269   2.675
 5926TIP3    H139337   5.277   2.335   2.607
 5926TIP3    H239338   5.229   2.285   2.742
 5927TIP3   OH239339   3.222   5.526   1.211
 5927TIP3    H139340   3.285   5.478   1.159
 5927TIP3    H239341   3.162   5.459   1.245
 5928TIP3   OH239342   4.321   2.477   1.221
 5928TIP3    H139343   4.251   2.414   1.203
 5928TIP3    H239344   4.294   2.556   1.175
 5929TIP3   OH239345   2.958   1.237   7.682
 5929TIP3    H139346   3.045   1.264   7.713
 5929TIP3    H239347   2.897   1.283   7.739
 5930TIP3   OH239348   4.272   5.710   0.186
 5930TIP3    H139349   4.243   5.711   0.277
 5930TIP3    H239350   4.216   5.774   0.142
 5931TIP3   OH239351   3.871   6.785   8.632
 5931TIP3    H139352   3.881   0.054   8.616
 5931TIP3    H239353   3.780   6.775   8.663
 5932TIP3   OH239354   1.977   3.605   0.875
 5932TIP3    H139355   2.061   3.582   0.916
 5932TIP3    H239356   1.959   3.533   0.814
 5933TIP3   OH239357   4.909   0.158   8.102
 5933TIP3    H139358   4.837   0.101   8.129
 5933TIP3    H239359   4.895   0.174   8.009
 5934TIP3   OH239360   1.453   2.771   1.674
 5934TIP3    H139361   1.376   2.770   1.731
 5934TIP3    H239362   1.503   2.693   1.700
 5935TIP3   OH239363   0.639   1.770   7.785
 5935TIP3    H139364   0.684   1.820   7.854
 5935TIP3    H239365   0.697   1.697   7.767
 5936TIP3   OH239366   4.419   4.913   7.352
 5936TIP3    H139367   4.353   4.980   7.333
 5936TIP3    H239368   4.484   4.959   7.406
 5937TIP3   OH239369   3.016   4.537   1.102
 5937TIP3    H139370   3.044   4.625   1.075
 5937TIP3    H239371   3.098   4.487   1.106
 5938TIP3   OH239372   0.583   3.131   0.458
 5938TIP3    H139373   0.496   3.093   0.469
 5938TIP3    H239374   0.642   3.056   0.460
 5939TIP3   OH239375   6.135   4.372   2.244
 5939TIP3    H139376   6.207   4.366   2.181
 5939TIP3    H239377   6.163   4.439   2.307
 5940TIP3   OH239378   5.736   4.985   0.476
 5940TIP3    H139379   5.803   4.947   0.419
 5940TIP3    H239380   5.750   4.943   0.560
 5941TIP3   OH239381   2.498   1.115   1.299
 5941TIP3    H139382   2.515   1.056   1.372
 5941TIP3    H239383   2.403   1.127   1.300
 5942TIP3   OH239384   3.854   6.646   0.527
 5942TIP3    H139385   3.778   6.704   0.529
 5942TIP3    H239386   3.928   6.702   0.550
 5943TIP3   OH239387   5.118   5.845   8.042
 5943TIP3    H139388   5.173   5.916   8.010
 5943TIP3    H239389   5.084   5.877   8.125
 5944TIP3   OH239390   5.159   0.755   2.350
 5944TIP3    H139391   5.100   0.827   2.326
 5944TIP3    H239392   5.115   0.711   2.423
 5945TIP3   OH239393   1.676   3.177   8.693
 5945TIP3    H139394   1.669   3.272   8.708
 5945TIP3    H239395   1.592   3.142   8.721
 5946TIP3   OH239396   4.195   0.565   0.281
 5946TIP3    H139397   4.231   0.531   0.199
 5946TIP3    H239398   4.115   0.610   0.254
 5947TIP3   OH239399   1.683   3.836   8.072
 5947TIP3    H139400   1.648   3.816   7.986
 5947TIP3    H239401   1.735   3.759   8.096
 5948TIP3   OH239402   5.683   2.683   8.620
 5948TIP3    H139403   5.707   2.676   8.527
 5948TIP3    H239404   5.723   2.607   8.661
 5949TIP3   OH239405   5.233   6.583   0.761
 5949TIP3    H139406   5.174   6.517   0.724
 5949TIP3    H239407   5.176   6.644   0.807
 5950TIP3   OH239408   4.508   4.775   7.719
 5950TIP3    H139409   4.540   4.692   7.754
 5950TIP3    H239410   4.429   4.793   7.771
 5951TIP3   OH239411   5.699   5.262   8.629
 5951TIP3    H139412   5.770   5.203   8.653
 5951TIP3    H239413   5.670   5.300   8.712
 5952TIP3   OH239414   3.733   6.586   7.014
 5952TIP3    H139415   3.659   6.632   6.973
 5952TIP3    H239416   3.703   6.567   7.103
 5953TIP3   OH239417   3.846   0.119   7.200
 5953TIP3    H139418   3.863   0.062   7.124
 5953TIP3    H239419   3.832   0.205   7.162
 5954TIP3   OH239420   5.458   4.908   7.526
 5954TIP3    H139421   5.398   4.980   7.508
 5954TIP3    H239422   5.404   4.842   7.570
 5955TIP3   OH239423   5.857   2.096   8.674
 5955TIP3    H139424   5.951   2.079   8.671
 5955TIP3    H239425   5.820   2.017   8.715
 5956TIP3   OH239426   0.093   6.490   8.333
 5956TIP3    H139427   0.154   6.490   8.407
 5956TIP3    H239428   0.064   6.399   8.326
 5957TIP3   OH239429   2.232   5.069   8.430
 5957TIP3    H139430   2.287   4.994   8.406
 5957TIP3    H239431   2.200   5.104   8.346
 5958TIP3   OH239432   6.283   0.067   0.467
 5958TIP3    H139433   6.217   0.003   0.495
 5958TIP3    H239434   6.366   0.022   0.482
 5959TIP3   OH239435   1.378   6.524   8.238
 5959TIP3    H139436   1.450   6.539   8.299
 5959TIP3    H239437   1.304   6.502   8.293
 5960TIP3   OH239438   3.734   5.773   0.877
 5960TIP3    H139439   3.648   5.783   0.835
 5960TIP3    H239440   3.781   5.712   0.820
 5961TIP3   OH239441   5.842   5.626   6.778
 5961TIP3    H139442   5.922   5.670   6.748
 5961TIP3    H239443   5.775   5.653   6.716
 5962TIP3   OH239444   5.400   5.328   1.900
 5962TIP3    H139445   5.375   5.380   1.976
 5962TIP3    H239446   5.405   5.238   1.933
 5963TIP3   OH239447   6.256   1.058   1.733
 5963TIP3    H139448   6.328   1.027   1.679
 5963TIP3    H239449   6.268   1.013   1.817
 5964TIP3   OH239450   5.829   3.161   6.674
 5964TIP3    H139451   5.906   3.218   6.674
 5964TIP3    H239452   5.842   3.103   6.749
 5965TIP3   OH239453   3.457   0.391   6.738
 5965TIP3    H139454   3.506   0.333   6.797
 5965TIP3    H239455   3.374   0.405   6.783
 5966TIP3   OH239456   0.823   5.442   7.251
 5966TIP3    H139457   0.771   5.499   7.195
 5966TIP3    H239458   0.888   5.403   7.192
 5967TIP3   OH239459   5.145   0.585   6.239
 5967TIP3    H139460   5.140   0.680   6.230
 5967TIP3    H239461   5.060   0.559   6.275
 5968TIP3   OH239462   1.493   1.979   7.918
 5968TIP3    H139463   1.438   2.028   7.979
 5968TIP3    H239464   1.489   2.029   7.836
 5969TIP3   OH239465   6.050   6.575   7.540
 5969TIP3    H139466   6.144   6.575   7.523
 5969TIP3    H239467   6.014   6.515   7.474
 5970TIP3   OH239468   2.139   5.548   8.584
 5970TIP3    H139469   2.165   5.509   8.501
 5970TIP3    H239470   2.207   5.522   8.646
 5971TIP3   OH239471   6.025   6.002   0.473
 5971TIP3    H139472   5.952   5.940   0.471
 5971TIP3    H239473   6.036   6.029   0.381
 5972TIP3   OH239474   5.625   0.760   7.784
 5972TIP3    H139475   5.616   0.729   7.874
 5972TIP3    H239476   5.539   0.798   7.763
 5973TIP3   OH239477   3.518   1.785   8.493
 5973TIP3    H139478   3.432   1.744   8.492
 5973TIP3    H239479   3.559   1.753   8.573
 5974TIP3   OH239480   2.273   5.721   1.659
 5974TIP3    H139481   2.307   5.732   1.748
 5974TIP3    H239482   2.234   5.633   1.660
 5975TIP3   OH239483   1.656   3.341   6.750
 5975TIP3    H139484   1.679   3.331   6.657
 5975TIP3    H239485   1.684   3.258   6.790
 5976TIP3   OH239486   2.533   1.499   0.070
 5976TIP3    H139487   2.577   1.415   0.071
 5976TIP3    H239488   2.441   1.479   0.087
 5977TIP3   OH239489   3.168   2.446   0.371
 5977TIP3    H139490   3.143   2.472   0.282
 5977TIP3    H239491   3.234   2.378   0.359
 5978TIP3   OH239492   0.729   5.663   6.404
 5978TIP3    H139493   0.654   5.709   6.442
 5978TIP3    H239494   0.805   5.700   6.448
 5979TIP3   OH239495   0.766   6.351   7.135
 5979TIP3    H139496   0.818   6.423   7.099
 5979TIP3    H239497   0.691   6.393   7.176
 5980TIP3   OH239498   0.766   1.580   1.709
 5980TIP3    H139499   0.831   1.526   1.755
 5980TIP3    H239500   0.731   1.638   1.777
 5981TIP3   OH239501   5.733   5.814   0.156
 5981TIP3    H139502   5.805   5.798   0.095
 5981TIP3    H239503   5.716   5.908   0.148
 5982TIP3   OH239504   6.453   1.788   8.697
 5982TIP3    H139505   6.503   1.759   8.774
 5982TIP3    H239506   6.435   1.707   8.649
 5983TIP3   OH239507   5.952   1.474   7.550
 5983TIP3    H139508   6.022   1.496   7.613
 5983TIP3    H239509   5.874   1.462   7.604
 5984TIP3   OH239510   2.690   4.607   0.025
 5984TIP3    H139511   2.713   4.598   8.714
 5984TIP3    H239512   2.660   4.520   0.051
 5985TIP3   OH239513   2.908   2.438   0.676
 5985TIP3    H139514   2.880   2.483   0.596
 5985TIP3    H239515   2.827   2.422   0.724
 5986TIP3   OH239516   4.104   4.409   1.908
 5986TIP3    H139517   4.079   4.362   1.987
 5986TIP3    H239518   4.182   4.459   1.933
 5987TIP3   OH239519   0.382   0.433   8.515
 5987TIP3    H139520   0.430   0.514   8.499
 5987TIP3    H239521   0.296   0.447   8.475
 5988TIP3   OH239522   0.563   0.367   7.011
 5988TIP3    H139523   0.618   0.382   7.089
 5988TIP3    H239524   0.552   0.271   7.008
 5989TIP3   OH239525   6.812   2.357   0.096
 5989TIP3    H139526   6.735   2.402   0.061
 5989TIP3    H239527   6.786   2.265   0.099
 5990TIP3   OH239528   5.315   0.117   2.219
 5990TIP3    H139529   5.306   0.093   2.312
 5990TIP3    H239530   5.239   0.077   2.177
 5991TIP3   OH239531   2.688   0.743   6.781
 5991TIP3    H139532   2.733   0.827   6.788
 5991TIP3    H239533   2.735   0.686   6.842
 5992TIP3   OH239534   6.003   4.296   7.882
 5992TIP3    H139535   5.935   4.288   7.949
 5992TIP3    H239536   6.048   4.378   7.903
 5993TIP3   OH239537   1.786   2.994   0.086
 5993TIP3    H139538   1.815   3.061   0.148
 5993TIP3    H239539   1.746   3.044   0.015
 5994TIP3   OH239540   0.608   0.702   6.800
 5994TIP3    H139541   0.662   0.749   6.736
 5994TIP3    H239542   0.608   0.612   6.769
 5995TIP3   OH239543   5.234   3.936   8.521
 5995TIP3    H139544   5.308   3.936   8.581
 5995TIP3    H239545   5.203   3.846   8.520
 5996TIP3   OH239546   6.157   4.515   7.910
 5996TIP3    H139547   6.166   4.607   7.936
 5996TIP3    H239548   6.166   4.516   7.815
 5997TIP3   OH239549   1.799   6.669   1.702
 5997TIP3    H139550   1.805   6.649   1.608
 5997TIP3    H239551   1.880   6.634   1.739
 5998TIP3   OH239552   3.653   2.252   7.556
 5998TIP3    H139553   3.745   2.247   7.530
 5998TIP3    H239554   3.609   2.187   7.501
 5999TIP3   OH239555   0.635   6.632   7.931
 5999TIP3    H139556   0.563   6.691   7.954
 5999TIP3    H239557   0.666   6.598   8.015
 6000TIP3   OH239558   0.599   2.014   0.196
 6000TIP3    H139559   0.544   2.063   0.257
 6000TIP3    H239560   0.642   2.082   0.144
 6001TIP3   OH239561   1.564   0.199   7.235
 6001TIP3    H139562   1.528   0.112   7.251
 6001TIP3    H239563   1.649   0.182   7.192
 6002TIP3   OH239564   6.351   0.654   8.572
 6002TIP3    H139565   6.434   0.661   8.620
 6002TIP3    H239566   6.288   0.703   8.625
 6003TIP3   OH239567   0.404   5.213   6.583
 6003TIP3    H139568   0.309   5.201   6.586
 6003TIP3    H239569   0.439   5.148   6.643
 6004TIP3   OH239570   0.262   6.164   8.373
 6004TIP3    H139571   0.327   6.200   8.312
 6004TIP3    H239572   0.307   6.159   8.457
 6005TIP3   OH239573   5.777   1.570   2.244
 6005TIP3    H139574   5.749   1.498   2.188
 6005TIP3    H239575   5.819   1.527   2.319
 6006TIP3   OH239576   4.921   4.793   0.044
 6006TIP3    H139577   4.956   4.790   0.133
 6006TIP3    H239578   4.922   4.886   0.020
 6007TIP3   OH239579   4.226   5.044   7.685
 6007TIP3    H139580   4.306   5.091   7.661
 6007TIP3    H239581   4.220   4.973   7.622
 6008TIP3   OH239582   3.937   5.608   2.151
 6008TIP3    H139583   3.929   5.641   2.240
 6008TIP3    H239584   4.009   5.545   2.154
 6009TIP3   OH239585   5.041   4.048   1.753
 6009TIP3    H139586   5.116   4.012   1.801
 6009TIP3    H239587   4.984   3.972   1.738
 6010TIP3   OH239588   0.574   3.516   8.458
 6010TIP3    H139589   0.653   3.481   8.418
 6010TIP3    H239590   0.574   3.481   8.547
 6011TIP3   OH239591   6.260   0.118   0.099
 6011TIP3    H139592   6.237   0.041   0.047
 6011TIP3    H239593   6.176   0.155   0.126
 6012TIP3   OH239594   3.433   1.280   0.706
 6012TIP3    H139595   3.497   1.215   0.737
 6012TIP3    H239596   3.396   1.317   0.787
 6013TIP3   OH239597   5.600   2.368   8.359
 6013TIP3    H139598   5.601   2.290   8.414
 6013TIP3    H239599   5.580   2.335   8.271
 6014TIP3   OH239600   1.026   3.603   7.254
 6014TIP3    H139601   1.102   3.624   7.308
 6014TIP3    H239602   1.051   3.631   7.166
 6015TIP3   OH239603   5.082   2.250   7.894
 6015TIP3    H139604   4.997   2.283   7.924
 6015TIP3    H239605   5.082   2.266   7.800
 6016TIP3   OH239606   1.861   5.609   0.726
 6016TIP3    H139607   1.766   5.605   0.738
 6016TIP3    H239608   1.882   5.702   0.730
 6017TIP3   OH239609   4.056   3.456   8.574
 6017TIP3    H139610   4.146   3.430   8.557
 6017TIP3    H239611   4.055   3.483   8.666
 6018TIP3   OH239612   1.427   6.158   0.296
 6018TIP3    H139613   1.389   6.214   0.363
 6018TIP3    H239614   1.363   6.088   0.282
 6019TIP3   OH239615   1.146   4.306   8.538
 6019TIP3    H139616   1.204   4.345   8.603
 6019TIP3    H239617   1.170   4.213   8.537
 6020TIP3   OH239618   5.055   6.191   0.768
 6020TIP3    H139619   5.137   6.181   0.719
 6020TIP3    H239620   5.075   6.159   0.855
 6021TIP3   OH239621   6.447   1.047   1.243
 6021TIP3    H139622   6.542   1.056   1.230
 6021TIP3    H239623   6.408   1.104   1.178
 6022TIP3   OH239624   0.232   3.389   1.356
 6022TIP3    H139625   0.136   3.385   1.363
 6022TIP3    H239626   0.255   3.476   1.389
 6023TIP3   OH239627   5.430   5.834   7.484
 6023TIP3    H139628   5.368   5.907   7.478
 6023TIP3    H239629   5.383   5.760   7.446
 6024TIP3   OH239630   4.292   2.262   1.767
 6024TIP3    H139631   4.220   2.296   1.714
 6024TIP3    H239632   4.302   2.326   1.838
 6025TIP3   OH239633   0.833   1.756   7.259
 6025TIP3    H139634   0.804   1.837   7.218
 6025TIP3    H239635   0.814   1.767   7.352
 6026TIP3   OH239636   6.756   3.180   6.736
 6026TIP3    H139637   6.734   3.250   6.674
 6026TIP3    H239638   0.015   3.146   6.704
 6027TIP3   OH239639   1.511   4.362   7.856
 6027TIP3    H139640   1.581   4.308   7.893
 6027TIP3    H239641   1.431   4.313   7.875
 6028TIP3   OH239642   5.225   4.218   1.608
 6028TIP3    H139643   5.258   4.274   1.679
 6028TIP3    H239644   5.157   4.165   1.649
 6029TIP3   OH239645   1.237   0.837   0.975
 6029TIP3    H139646   1.289   0.856   1.053
 6029TIP3    H239647   1.155   0.801   1.008
 6030TIP3   OH239648   5.210   3.843   8.152
 6030TIP3    H139649   5.228   3.904   8.223
 6030TIP3    H239650   5.172   3.897   8.083
 6031TIP3   OH239651   2.177   5.028   0.529
 6031TIP3    H139652   2.246   5.039   0.463
 6031TIP3    H239653   2.219   4.980   0.600
 6032TIP3   OH239654   4.325   2.371   0.259
 6032TIP3    H139655   4.275   2.453   0.250
 6032TIP3    H239656   4.396   2.379   0.194
 6033TIP3   OH239657   5.861   2.316   0.959
 6033TIP3    H139658   5.871   2.262   1.037
 6033TIP3    H239659   5.932   2.288   0.901
 6034TIP3   OH239660   1.951   4.897   8.157
 6034TIP3    H139661   1.972   4.805   8.170
 6034TIP3    H239662   1.889   4.897   8.083
 6035TIP3   OH239663   3.178   0.816   2.251
 6035TIP3    H139664   3.246   0.818   2.319
 6035TIP3    H239665   3.166   0.908   2.227
 6036TIP3   OH239666   3.686   4.624   8.244
 6036TIP3    H139667   3.596   4.615   8.276
 6036TIP3    H239668   3.740   4.600   8.319
 6037TIP3   OH239669   4.499   6.060   7.391
 6037TIP3    H139670   4.526   6.097   7.306
 6037TIP3    H239671   4.474   6.135   7.443
 6038TIP3   OH239672   1.877   3.663   8.195
 6038TIP3    H139673   1.897   3.580   8.238
 6038TIP3    H239674   1.924   3.729   8.246
 6039TIP3   OH239675   5.341   3.370   7.132
 6039TIP3    H139676   5.392   3.451   7.138
 6039TIP3    H239677   5.404   3.300   7.152
 6040TIP3   OH239678   0.669   2.588   1.552
 6040TIP3    H139679   0.621   2.594   1.470
 6040TIP3    H239680   0.611   2.625   1.618
 6041TIP3   OH239681   3.737   5.374   6.468
 6041TIP3    H139682   3.699   5.418   6.544
 6041TIP3    H239683   3.662   5.342   6.418
 6042TIP3   OH239684   2.957   0.432   7.959
 6042TIP3    H139685   2.874   0.388   7.939
 6042TIP3    H239686   2.984   0.470   7.876
 6043TIP3   OH239687   0.860   0.327   6.889
 6043TIP3    H139688   0.892   0.400   6.941
 6043TIP3    H239689   0.790   0.364   6.835
 6044TIP3   OH239690   0.098   1.335   0.997
 6044TIP3    H139691   0.063   1.268   0.938
 6044TIP3    H239692   0.178   1.365   0.955
 6045TIP3   OH239693   4.729   6.299   0.585
 6045TIP3    H139694   4.811   6.275   0.543
 6045TIP3    H239695   4.678   6.342   0.516
 6046TIP3   OH239696   1.649   6.500   7.285
 6046TIP3    H139697   1.605   6.441   7.346
 6046TIP3    H239698   1.735   6.460   7.271
 6047TIP3   OH239699   2.982   2.244   0.122
 6047TIP3    H139700   2.918   2.241   0.193
 6047TIP3    H239701   2.943   2.192   0.052
 6048TIP3   OH239702   0.474   1.455   0.063
 6048TIP3    H139703   0.405   1.484   0.123
 6048TIP3    H239704   0.555   1.487   0.102
 6049TIP3   OH239705   1.595   2.847   1.316
 6049TIP3    H139706   1.515   2.804   1.283
 6049TIP3    H239707   1.666   2.800   1.272
 6050TIP3   OH239708   4.357   3.316   0.668
 6050TIP3    H139709   4.322   3.405   0.660
 6050TIP3    H239710   4.441   3.320   0.623
 6051TIP3   OH239711   6.278   1.797   1.594
 6051TIP3    H139712   6.276   1.768   1.503
 6051TIP3    H239713   6.196   1.845   1.606
 6052TIP3   OH239714   4.268   3.868   1.028
 6052TIP3    H139715   4.296   3.777   1.021
 6052TIP3    H239716   4.174   3.863   1.047
 6053TIP3   OH239717   3.649   0.002   8.248
 6053TIP3    H139718   3.589   0.023   8.319
 6053TIP3    H239719   3.611   0.043   8.171
 6054TIP3   OH239720   0.865   0.761   1.351
 6054TIP3    H139721   0.897   0.673   1.329
 6054TIP3    H239722   0.924   0.820   1.304
 6055TIP3   OH239723   1.661   6.441   0.889
 6055TIP3    H139724   1.611   6.375   0.840
 6055TIP3    H239725   1.752   6.415   0.880
 6056TIP3   OH239726   5.884   3.983   8.121
 6056TIP3    H139727   5.948   4.042   8.081
 6056TIP3    H239728   5.916   3.972   8.211
 6057TIP3   OH239729   5.938   0.268   0.591
 6057TIP3    H139730   5.848   0.302   0.589
 6057TIP3    H239731   5.932   0.181   0.553
 6058TIP3   OH239732   5.094   0.800   1.292
 6058TIP3    H139733   5.012   0.830   1.252
 6058TIP3    H239734   5.146   0.767   1.218
 6059TIP3   OH239735   6.584   4.451   8.565
 6059TIP3    H139736   6.606   4.473   8.655
 6059TIP3    H239737   6.636   4.511   8.512
 6060TIP3   OH239738   6.314   2.385   1.217
 6060TIP3    H139739   6.317   2.302   1.169
 6060TIP3    H239740   6.391   2.432   1.187
 6061TIP3   OH239741   5.703   3.746   6.409
 6061TIP3    H139742   5.790   3.746   6.449
 6061TIP3    H239743   5.690   3.655   6.381
 6062TIP3   OH239744   1.024   0.240   6.690
 6062TIP3    H139745   0.967   0.277   6.757
 6062TIP3    H239746   0.971   0.175   6.645
 6063TIP3   OH239747   0.369   1.593   1.825
 6063TIP3    H139748   0.322   1.583   1.909
 6063TIP3    H239749   0.457   1.561   1.843
 6064TIP3   OH239750   5.700   1.325   0.956
 6064TIP3    H139751   5.648   1.257   0.999
 6064TIP3    H239752   5.725   1.385   1.027
 6065TIP3   OH239753   6.678   0.027   1.058
 6065TIP3    H139754   6.605   6.799   1.026
 6065TIP3    H239755   6.714   6.802   1.131
 6066TIP3   OH239756   6.753   5.999   1.893
 6066TIP3    H139757   0.004   5.960   1.850
 6066TIP3    H239758   6.743   6.084   1.852
 6067TIP3   OH239759   5.887   5.023   8.379
 6067TIP3    H139760   5.920   5.110   8.356
 6067TIP3    H239761   5.900   5.017   8.474
 6068TIP3   OH239762   2.940   6.273   8.351
 6068TIP3    H139763   2.884   6.264   8.428
 6068TIP3    H239764   2.993   6.351   8.369
 6069TIP3   OH239765   2.455   4.907   7.443
 6069TIP3    H139766   2.382   4.966   7.462
 6069TIP3    H239767   2.533   4.963   7.447
 6070TIP3   OH239768   0.539   0.085   6.972
 6070TIP3    H139769   0.578   6.823   6.979
 6070TIP3    H239770   0.514   0.092   6.880
 6071TIP3   OH239771   3.896   5.243   7.306
 6071TIP3    H139772   3.876   5.259   7.214
 6071TIP3    H239773   3.877   5.150   7.319
 6072TIP3   OH239774   4.836   1.748   7.434
 6072TIP3    H139775   4.804   1.659   7.419
 6072TIP3    H239776   4.924   1.749   7.396
 6073TIP3   OH239777   0.888   0.574   6.950
 6073TIP3    H139778   0.802   0.617   6.955
 6073TIP3    H239779   0.932   0.616   6.877
 6074TIP3   OH239780   4.742   4.311   6.667
 6074TIP3    H139781   4.675   4.244   6.682
 6074TIP3    H239782   4.694   4.384   6.626
 6075TIP3   OH239783   6.079   5.374   0.963
 6075TIP3    H139784   6.033   5.317   0.903
 6075TIP3    H239785   6.069   5.462   0.926
 6076TIP3   OH239786   1.906   6.589   8.626
 6076TIP3    H139787   1.900   6.496   8.608
 6076TIP3    H239788   1.998   6.604   8.648
 6077TIP3   OH239789   3.554   3.472   1.050
 6077TIP3    H139790   3.535   3.565   1.035
 6077TIP3    H239791   3.545   3.432   0.964
 6078TIP3   OH239792   4.081   3.749   7.804
 6078TIP3    H139793   4.048   3.706   7.725
 6078TIP3    H239794   4.012   3.735   7.869
 6079TIP3   OH239795   4.387   2.074   7.679
 6079TIP3    H139796   4.415   2.082   7.770
 6079TIP3    H239797   4.462   2.033   7.635
 6080TIP3   OH239798   5.244   3.472   2.244
 6080TIP3    H139799   5.277   3.555   2.279
 6080TIP3    H239800   5.323   3.421   2.226
 6081TIP3   OH239801   4.348   5.093   2.086
 6081TIP3    H139802   4.415   5.024   2.090
 6081TIP3    H239803   4.394   5.169   2.050
 6082TIP3   OH239804   1.680   1.841   8.086
 6082TIP3    H139805   1.629   1.910   8.043
 6082TIP3    H239806   1.615   1.792   8.137
 6083TIP3   OH239807   4.391   1.793   8.059
 6083TIP3    H139808   4.364   1.866   8.115
 6083TIP3    H239809   4.487   1.796   8.060
 6084TIP3   OH239810   0.248   2.755   7.245
 6084TIP3    H139811   0.335   2.719   7.226
 6084TIP3    H239812   0.188   2.700   7.194
 6085TIP3   OH239813   4.153   0.614   1.998
 6085TIP3    H139814   4.162   0.657   1.913
 6085TIP3    H239815   4.095   0.672   2.048
 6086TIP3   OH239816   1.866   6.407   8.353
 6086TIP3    H139817   1.830   6.363   8.276
 6086TIP3    H239818   1.792   6.455   8.391
 6087TIP3   OH239819   4.417   0.456   7.366
 6087TIP3    H139820   4.429   0.361   7.367
 6087TIP3    H239821   4.372   0.476   7.448
 6088TIP3   OH239822   5.007   1.058   0.391
 6088TIP3    H139823   4.936   1.022   0.338
 6088TIP3    H239824   5.037   0.986   0.446
 6089TIP3   OH239825   2.489   0.513   8.159
 6089TIP3    H139826   2.557   0.502   8.092
 6089TIP3    H239827   2.421   0.451   8.135
 6090TIP3   OH239828   1.075   3.907   8.284
 6090TIP3    H139829   1.040   3.975   8.226
 6090TIP3    H239830   1.025   3.829   8.261
 6091TIP3   OH239831   6.088   3.923   6.724
 6091TIP3    H139832   6.007   3.891   6.764
 6091TIP3    H239833   6.098   3.869   6.645
 6092TIP3   OH239834   2.365   6.625   2.660
 6092TIP3    H139835   2.271   6.607   2.667
 6092TIP3    H239836   2.370   6.713   2.622
 6093TIP3   OH239837   2.203   0.124   0.884
 6093TIP3    H139838   2.158   0.178   0.949
 6093TIP3    H239839   2.267   0.182   0.845
 6094TIP3   OH239840   0.413   2.914   8.468
 6094TIP3    H139841   0.482   2.968   8.505
 6094TIP3    H239842   0.399   2.949   8.380
 6095TIP3   OH239843   4.776   1.968   0.060
 6095TIP3    H139844   4.714   2.016   0.114
 6095TIP3    H239845   4.854   2.023   0.057
 6096TIP3   OH239846   1.104   3.750   2.074
 6096TIP3    H139847   1.079   3.690   2.143
 6096TIP3    H239848   1.021   3.773   2.031
 6097TIP3   OH239849   3.420   2.615   7.634
 6097TIP3    H139850   3.418   2.689   7.694
 6097TIP3    H239851   3.368   2.547   7.678
 6098TIP3   OH239852   0.960   1.642   1.047
 6098TIP3    H139853   0.973   1.727   1.090
 6098TIP3    H239854   1.010   1.581   1.100
 6099TIP3   OH239855   6.392   4.961   7.768
 6099TIP3    H139856   6.403   4.866   7.776
 6099TIP3    H239857   6.454   4.998   7.831
 6100TIP3   OH239858   3.174   3.833   1.106
 6100TIP3    H139859   3.084   3.843   1.139
 6100TIP3    H239860   3.165   3.786   1.024
 6101TIP3   OH239861   5.432   1.156   0.111
 6101TIP3    H139862   5.480   1.117   0.184
 6101TIP3    H239863   5.340   1.149   0.136
 6102TIP3   OH239864   1.872   4.168   1.100
 6102TIP3    H139865   1.920   4.182   1.019
 6102TIP3    H239866   1.857   4.073   1.103
 6103TIP3   OH239867   0.532   0.949   7.202
 6103TIP3    H139868   0.539   1.037   7.166
 6103TIP3    H239869   0.556   0.958   7.294
 6104TIP3   OH239870   2.524   0.558   7.787
 6104TIP3    H139871   2.599   0.507   7.816
 6104TIP3    H239872   2.536   0.644   7.827
 6105TIP3   OH239873   3.935   1.013   7.569
 6105TIP3    H139874   3.917   1.030   7.662
 6105TIP3    H239875   3.864   1.057   7.523
 6106TIP3   OH239876   0.176   6.762   8.081
 6106TIP3    H139877   0.132   0.013   8.119
 6106TIP3    H239878   0.132   6.748   7.997
 6107TIP3   OH239879   6.229   0.077   7.797
 6107TIP3    H139880   6.266   0.094   7.883
 6107TIP3    H239881   6.197   6.812   7.802
 6108TIP3   OH239882   5.749   5.254   0.399
 6108TIP3    H139883   5.741   5.159   0.395
 6108TIP3    H239884   5.842   5.269   0.415
 6109TIP3   OH239885   1.089   2.622   1.107
 6109TIP3    H139886   1.051   2.705   1.135
 6109TIP3    H239887   1.057   2.558   1.170
 6110TIP3   OH239888   4.798   5.964   1.235
 6110TIP3    H139889   4.808   5.879   1.277
 6110TIP3    H239890   4.732   5.950   1.167
 6111TIP3   OH239891   6.027   2.701   0.782
 6111TIP3    H139892   6.120   2.686   0.797
 6111TIP3    H239893   5.983   2.640   0.842
 6112TIP3   OH239894   0.366   5.825   7.348
 6112TIP3    H139895   0.456   5.855   7.361
 6112TIP3    H239896   0.365   5.789   7.259
 6113TIP3   OH239897   6.275   4.750   0.179
 6113TIP3    H139898   6.179   4.743   0.180
 6113TIP3    H239899   6.296   4.777   0.090
 6114TIP3   OH239900   0.181   5.551   8.387
 6114TIP3    H139901   0.158   5.643   8.384
 6114TIP3    H239902   0.099   5.506   8.406
 6115TIP3   OH239903   1.953   1.263   2.282
 6115TIP3    H139904   1.967   1.185   2.228
 6115TIP3    H239905   2.038   1.279   2.323
 6116TIP3   OH239906   4.837   5.036   8.470
 6116TIP3    H139907   4.827   5.035   8.565
 6116TIP3    H239908   4.748   5.028   8.436
 6117TIP3   OH239909   0.800   0.132   7.056
 6117TIP3    H139910   0.815   0.205   6.996
 6117TIP3    H239911   0.713   0.099   7.032
 6118TIP3   OH239912   5.623   5.482   8.500
 6118TIP3    H139913   5.661   5.404   8.542
 6118TIP3    H239914   5.593   5.450   8.415
 6119TIP3   OH239915   1.099   1.895   7.785
 6119TIP3    H139916   1.068   1.985   7.800
 6119TIP3    H239917   1.181   1.905   7.737
 6120TIP3   OH239918   3.679   3.700   0.640
 6120TIP3    H139919   3.698   3.723   0.549
 6120TIP3    H239920   3.763   3.674   0.676
 6121TIP3   OH239921   5.299   4.744   0.131
 6121TIP3    H139922   5.340   4.802   0.067
 6121TIP3    H239923   5.273   4.667   0.080
 6122TIP3   OH239924   2.372   0.842   7.753
 6122TIP3    H139925   2.434   0.818   7.685
 6122TIP3    H239926   2.315   0.766   7.762
 6123TIP3   OH239927   2.466   2.772   2.322
 6123TIP3    H139928   2.378   2.777   2.284
 6123TIP3    H239929   2.466   2.689   2.369
 6124TIP3   OH239930   1.236   4.320   6.800
 6124TIP3    H139931   1.322   4.359   6.817
 6124TIP3    H239932   1.254   4.226   6.796
 6125TIP3   OH239933   5.573   6.802   1.950
 6125TIP3    H139934   5.651   0.033   1.952
 6125TIP3    H239935   5.570   6.764   2.038
 6126TIP3   OH239936   2.947   3.313   1.249
 6126TIP3    H139937   3.030   3.336   1.291
 6126TIP3    H239938   2.881   3.361   1.298
 6127TIP3   OH239939   6.321   2.329   0.675
 6127TIP3    H139940   6.374   2.249   0.682
 6127TIP3    H239941   6.250   2.305   0.615
 6128TIP3   OH239942   4.913   1.994   2.033
 6128TIP3    H139943   4.913   1.923   1.970
 6128TIP3    H239944   4.925   1.951   2.118
 6129TIP3   OH239945   0.706   1.067   0.165
 6129TIP3    H139946   0.612   1.080   0.173
 6129TIP3    H239947   0.744   1.131   0.224
 6130TIP3   OH239948   0.452   4.985   1.055
 6130TIP3    H139949   0.506   4.908   1.072
 6130TIP3    H239950   0.451   5.032   1.138
 6131TIP3   OH239951   2.391   1.667   8.490
 6131TIP3    H139952   2.302   1.639   8.509
 6131TIP3    H239953   2.447   1.600   8.528
 6132TIP3   OH239954   0.829   5.113   7.201
 6132TIP3    H139955   0.864   5.177   7.263
 6132TIP3    H239956   0.904   5.086   7.149
 6133TIP3   OH239957   2.225   5.208   7.322
 6133TIP3    H139958   2.261   5.148   7.257
 6133TIP3    H239959   2.301   5.258   7.353
 6134TIP3   OH239960   2.269   3.448   7.494
 6134TIP3    H139961   2.268   3.493   7.578
 6134TIP3    H239962   2.323   3.504   7.438
 6135TIP3   OH239963   4.920   3.458   0.876
 6135TIP3    H139964   4.847   3.473   0.816
 6135TIP3    H239965   4.937   3.543   0.916
 6136TIP3   OH239966   2.296   2.773   6.945
 6136TIP3    H139967   2.235   2.826   6.996
 6136TIP3    H239968   2.243   2.701   6.911
 6137TIP3   OH239969   0.359   1.819   2.392
 6137TIP3    H139970   0.310   1.901   2.398
 6137TIP3    H239971   0.292   1.751   2.393
 6138TIP3   OH239972   0.402   1.049   0.838
 6138TIP3    H139973   0.473   1.016   0.894
 6138TIP3    H239974   0.440   1.050   0.750
 6139TIP3   OH239975   5.045   0.666   8.521
 6139TIP3    H139976   5.092   0.593   8.483
 6139TIP3    H239977   5.079   0.743   8.477
 6140TIP3   OH239978   4.377   2.931   2.441
 6140TIP3    H139979   4.415   2.845   2.460
 6140TIP3    H239980   4.451   2.991   2.447
 6141TIP3   OH239981   5.897   3.367   7.402
 6141TIP3    H139982   5.900   3.442   7.462
 6141TIP3    H239983   5.978   3.373   7.352
 6142TIP3   OH239984   0.842   2.294   8.241
 6142TIP3    H139985   0.842   2.390   8.245
 6142TIP3    H239986   0.934   2.270   8.257
 6143TIP3   OH239987   1.312   3.875   7.673
 6143TIP3    H139988   1.298   3.825   7.753
 6143TIP3    H239989   1.238   3.936   7.670
 6144TIP3   OH239990   3.835   3.689   7.982
 6144TIP3    H139991   3.790   3.763   8.024
 6144TIP3    H239992   3.788   3.677   7.900
 6145TIP3   OH239993   6.221   5.247   7.889
 6145TIP3    H139994   6.311   5.238   7.920
 6145TIP3    H239995   6.187   5.158   7.889
 6146TIP3   OH239996   2.144   0.519   8.490
 6146TIP3    H139997   2.139   0.569   8.409
 6146TIP3    H239998   2.238   0.514   8.510
 6147TIP3   OH239999   5.714   6.461   2.232
 6147TIP3    H140000   5.619   6.458   2.222
 6147TIP3    H240001   5.728   6.505   2.316
 6148TIP3   OH240002   0.426   0.086   1.964
 6148TIP3    H140003   0.383   0.074   1.879
 6148TIP3    H240004   0.467   0.002   1.982
 6149TIP3   OH240005   0.576   1.021   6.830
 6149TIP3    H140006   0.662   1.019   6.788
 6149TIP3    H240007   0.526   0.954   6.784
 6150TIP3   OH240008   4.769   2.932   7.497
 6150TIP3    H140009   4.812   3.007   7.456
 6150TIP3    H240010   4.839   2.886   7.543
 6151TIP3   OH240011   0.009   3.460   6.921
 6151TIP3    H140012   0.010   3.556   6.924
 6151TIP3    H240013   6.796   3.439   6.836
 6152TIP3   OH240014   0.304   0.210   1.428
 6152TIP3    H140015   0.335   0.233   1.340
 6152TIP3    H240016   0.300   0.294   1.474
 6153TIP3   OH240017   3.701   0.377   8.378
 6153TIP3    H140018   3.744   0.333   8.304
 6153TIP3    H240019   3.730   0.467   8.373
 6154TIP3   OH240020   5.977   3.521   0.215
 6154TIP3    H140021   6.024   3.438   0.222
 6154TIP3    H240022   5.934   3.531   0.300
 6155TIP3   OH240023   2.440   4.158   8.721
 6155TIP3    H140024   2.374   4.223   8.696
 6155TIP3    H240025   2.394   4.100   0.001
 6156TIP3   OH240026   5.341   3.867   0.936
 6156TIP3    H140027   5.411   3.891   0.997
 6156TIP3    H240028   5.263   3.910   0.971
 6157TIP3   OH240029   3.960   0.574   7.314
 6157TIP3    H140030   3.965   0.666   7.291
 6157TIP3    H240031   4.030   0.532   7.264
 6158TIP3   OH240032   1.207   1.040   0.327
 6158TIP3    H140033   1.181   1.119   0.373
 6158TIP3    H240034   1.169   0.968   0.379
 6159TIP3   OH240035   5.732   2.107   7.344
 6159TIP3    H140036   5.723   2.194   7.382
 6159TIP3    H240037   5.682   2.111   7.262
 6160TIP3   OH240038   5.573   2.128   1.458
 6160TIP3    H140039   5.543   2.210   1.419
 6160TIP3    H240040   5.649   2.153   1.510
 6161TIP3   OH240041   1.100   2.121   7.476
 6161TIP3    H140042   1.019   2.169   7.495
 6161TIP3    H240043   1.142   2.172   7.407
 6162TIP3   OH240044   6.407   1.893   1.343
 6162TIP3    H140045   6.455   1.845   1.410
 6162TIP3    H240046   6.373   1.826   1.284
 6163TIP3   OH240047   4.649   6.272   8.572
 6163TIP3    H140048   4.572   6.317   8.606
 6163TIP3    H240049   4.658   6.303   8.482
 6164TIP3   OH240050   5.744   5.916   8.048
 6164TIP3    H140051   5.833   5.881   8.043
 6164TIP3    H240052   5.688   5.838   8.048
 6165TIP3   OH240053   2.971   2.457   7.446
 6165TIP3    H140054   2.883   2.425   7.427
 6165TIP3    H240055   3.024   2.427   7.372
 6166TIP3   OH240056   2.008   4.639   0.374
 6166TIP3    H140057   1.960   4.702   0.319
 6166TIP3    H240058   1.959   4.557   0.363
 6167TIP3   OH240059   0.086   1.316   6.729
 6167TIP3    H140060   0.095   1.255   6.655
 6167TIP3    H240061   6.821   1.347   6.723
 6168TIP3   OH240062   2.874   4.087   1.882
 6168TIP3    H140063   2.874   4.031   1.805
 6168TIP3    H240064   2.886   4.027   1.955
 6169TIP3   OH240065   0.997   2.434   7.372
 6169TIP3    H140066   0.934   2.378   7.324
 6169TIP3    H240067   1.064   2.455   7.307
 6170TIP3   OH240068   4.824   3.179   0.187
 6170TIP3    H140069   4.880   3.256   0.186
 6170TIP3    H240070   4.877   3.110   0.147
 6171TIP3   OH240071   6.401   2.066   0.657
 6171TIP3    H140072   6.353   2.003   0.602
 6171TIP3    H240073   6.493   2.043   0.645
 6172TIP3   OH240074   4.471   2.374   8.579
 6172TIP3    H140075   4.383   2.374   8.542
 6172TIP3    H240076   4.524   2.424   8.516
 6173TIP3   OH240077   6.208   1.164   1.427
 6173TIP3    H140078   6.279   1.144   1.366
 6173TIP3    H240079   6.248   1.222   1.492
 6174TIP3   OH240080   1.235   3.209   0.496
 6174TIP3    H140081   1.325   3.179   0.509
 6174TIP3    H240082   1.239   3.304   0.507
 6175TIP3   OH240083   5.679   0.077   8.627
 6175TIP3    H140084   5.723   0.158   8.655
 6175TIP3    H240085   5.688   0.077   8.532
 6176TIP3   OH240086   2.561   4.017   0.649
 6176TIP3    H140087   2.563   3.922   0.644
 6176TIP3    H240088   2.653   4.044   0.645
 6177TIP3   OH240089   5.815   4.333   1.151
 6177TIP3    H140090   5.820   4.288   1.235
 6177TIP3    H240091   5.819   4.262   1.086
 6178TIP3   OH240092   0.635   4.954   7.333
 6178TIP3    H140093   0.709   4.985   7.280
 6178TIP3    H240094   0.570   4.924   7.269
 6179TIP3   OH240095   6.194   3.832   0.010
 6179TIP3    H140096   6.239   3.914   8.774
 6179TIP3    H240097   6.233   3.770   8.728
 6180TIP3   OH240098   2.426   4.511   8.534
 6180TIP3    H140099   2.463   4.595   8.561
 6180TIP3    H240100   2.493   4.474   8.476
 6181TIP3   OH240101   6.821   1.329   7.008
 6181TIP3    H140102   6.795   1.257   7.066
 6181TIP3    H240103   6.786   1.305   6.922
 6182TIP3   OH240104   6.472   1.091   8.685
 6182TIP3    H140105   6.403   1.026   8.679
 6182TIP3    H240106   6.461   1.130   8.772
 6183TIP3   OH240107   1.900   3.989   8.143
 6183TIP3    H140108   1.835   3.928   8.110
 6183TIP3    H240109   1.957   3.935   8.198
 6184TIP3   OH240110   5.088   6.206   7.189
 6184TIP3    H140111   5.024   6.250   7.133
 6184TIP3    H240112   5.038   6.137   7.233
 6185TIP3   OH240113   0.375   2.173   8.293
 6185TIP3    H140114   0.359   2.235   8.364
 6185TIP3    H240115   0.288   2.140   8.270
 6186TIP3   OH240116   0.255   4.480   0.728
 6186TIP3    H140117   0.285   4.560   0.685
 6186TIP3    H240118   0.162   4.495   0.743
 6187TIP3   OH240119   1.784   0.376   8.751
 6187TIP3    H140120   1.836   0.383   8.671
 6187TIP3    H240121   1.846   0.346   0.036
 6188TIP3   OH240122   5.813   3.740   1.219
 6188TIP3    H140123   5.854   3.775   1.298
 6188TIP3    H240124   5.817   3.645   1.229
 6189TIP3   OH240125   3.025   2.654   1.769
 6189TIP3    H140126   2.951   2.649   1.830
 6189TIP3    H240127   3.099   2.682   1.822
 6190TIP3   OH240128   6.176   5.345   7.610
 6190TIP3    H140129   6.206   5.298   7.687
 6190TIP3    H240130   6.115   5.410   7.644
 6191TIP3   OH240131   0.041   4.740   0.663
 6191TIP3    H140132   0.022   4.678   0.734
 6191TIP3    H240133   0.100   4.692   0.605
 6192TIP3   OH240134   3.083   5.917   1.818
 6192TIP3    H140135   3.069   6.012   1.817
 6192TIP3    H240136   3.033   5.886   1.893
 6193TIP3   OH240137   1.006   6.625   0.170
 6193TIP3    H140138   0.971   6.682   0.102
 6193TIP3    H240139   1.018   6.540   0.127
 6194TIP3   OH240140   6.794   6.207   0.686
 6194TIP3    H140141   6.824   6.124   0.649
 6194TIP3    H240142   6.704   6.189   0.715
 6195TIP3   OH240143   3.901   3.132   1.394
 6195TIP3    H140144   3.910   3.050   1.345
 6195TIP3    H240145   3.885   3.103   1.484
 6196TIP3   OH240146   5.630   0.656   1.947
 6196TIP3    H140147   5.575   0.703   2.010
 6196TIP3    H240148   5.719   0.687   1.965
 6197TIP3   OH240149   0.401   6.056   7.083
 6197TIP3    H140150   0.391   6.139   7.131
 6197TIP3    H240151   0.327   6.055   7.022
 6198TIP3   OH240152   1.281   2.241   7.272
 6198TIP3    H140153   1.243   2.329   7.271
 6198TIP3    H240154   1.269   2.209   7.182
 6199TIP3   OH240155   0.421   4.676   8.222
 6199TIP3    H140156   0.377   4.683   8.137
 6199TIP3    H240157   0.389   4.593   8.259
 6200TIP3   OH240158   0.024   5.643   1.813
 6200TIP3    H140159   6.772   5.592   1.834
 6200TIP3    H240160   0.095   5.603   1.862
 6201TIP3   OH240161   5.067   5.463   0.700
 6201TIP3    H140162   5.161   5.471   0.718
 6201TIP3    H240163   5.039   5.388   0.754
 6202TIP3   OH240164   6.078   0.782   1.220
 6202TIP3    H140165   5.992   0.762   1.258
 6202TIP3    H240166   6.059   0.843   1.149
 6203TIP3   OH240167   0.433   4.055   8.657
 6203TIP3    H140168   0.365   4.036   8.593
 6203TIP3    H240169   0.515   4.038   8.611
 6204TIP3   OH240170   0.028   5.422   0.743
 6204TIP3    H140171   0.014   5.345   0.798
 6204TIP3    H240172   0.123   5.432   0.741
 6205TIP3   OH240173   3.876   0.409   0.424
 6205TIP3    H140174   3.889   0.479   0.487
 6205TIP3    H240175   3.808   0.442   0.365
 6206TIP3   OH240176   5.321   2.707   8.630
 6206TIP3    H140177   5.360   2.757   8.558
 6206TIP3    H240178   5.372   2.627   8.634
 6207TIP3   OH240179   6.399   0.697   7.404
 6207TIP3    H140180   6.328   0.659   7.351
 6207TIP3    H240181   6.438   0.763   7.347
 6208TIP3   OH240182   5.893   4.487   2.584
 6208TIP3    H140183   5.942   4.568   2.575
 6208TIP3    H240184   5.925   4.448   2.665
 6209TIP3   OH240185   6.168   1.776   8.536
 6209TIP3    H140186   6.170   1.737   8.624
 6209TIP3    H240187   6.122   1.859   8.548
 6210TIP3   OH240188   5.290   0.076   6.979
 6210TIP3    H140189   5.237   0.155   6.969
 6210TIP3    H240190   5.236   0.017   7.032
 6211TIP3   OH240191   1.606   5.631   0.782
 6211TIP3    H140192   1.555   5.643   0.702
 6211TIP3    H240193   1.616   5.719   0.818
 6212TIP3   OH240194   2.655   0.344   1.912
 6212TIP3    H140195   2.624   0.410   1.850
 6212TIP3    H240196   2.671   0.267   1.858
 6213TIP3   OH240197   2.361   4.983   0.331
 6213TIP3    H140198   2.397   4.904   0.292
 6213TIP3    H240199   2.431   5.049   0.321
 6214TIP3   OH240200   2.154   6.660   7.146
 6214TIP3    H140201   2.170   6.629   7.235
 6214TIP3    H240202   2.060   6.647   7.133
 6215TIP3   OH240203   1.867   1.065   1.451
 6215TIP3    H140204   1.937   1.005   1.428
 6215TIP3    H240205   1.895   1.104   1.534
 6216TIP3   OH240206   6.617   0.423   0.418
 6216TIP3    H140207   6.564   0.346   0.401
 6216TIP3    H240208   6.633   0.461   0.332
 6217TIP3   OH240209   2.483   3.906   7.393
 6217TIP3    H140210   2.463   3.984   7.342
 6217TIP3    H240211   2.398   3.871   7.420
 6218TIP3   OH240212   0.879   0.989   0.701
 6218TIP3    H140213   0.821   1.043   0.647
 6218TIP3    H240214   0.967   1.019   0.679
 6219TIP3   OH240215   0.735   4.576   1.154
 6219TIP3    H140216   0.779   4.623   1.225
 6219TIP3    H240217   0.705   4.495   1.195
 6220TIP3   OH240218   5.566   0.098   7.498
 6220TIP3    H140219   5.506   0.126   7.429
 6220TIP3    H240220   5.569   0.171   7.559
 6221TIP3   OH240221   5.745   6.162   6.717
 6221TIP3    H140222   5.702   6.119   6.643
 6221TIP3    H240223   5.837   6.167   6.691
 6222TIP3   OH240224   2.365   2.140   8.528
 6222TIP3    H140225   2.445   2.093   8.504
 6222TIP3    H240226   2.373   2.153   8.622
 6223TIP3   OH240227   3.977   2.329   2.535
 6223TIP3    H140228   3.977   2.243   2.492
 6223TIP3    H240229   3.901   2.326   2.594
 6224TIP3   OH240230   2.798   0.890   0.099
 6224TIP3    H140231   2.753   0.809   0.078
 6224TIP3    H240232   2.849   0.910   0.021
 6225TIP3   OH240233   1.595   2.767   7.132
 6225TIP3    H140234   1.611   2.857   7.101
 6225TIP3    H240235   1.596   2.714   7.053
 6226TIP3   OH240236   0.077   0.207   1.766
 6226TIP3    H140237   0.130   0.228   1.843
 6226TIP3    H240238   0.138   0.161   1.708
 6227TIP3   OH240239   4.934   4.046   0.794
 6227TIP3    H140240   5.020   4.059   0.832
 6227TIP3    H240241   4.922   4.118   0.733
 6228TIP3   OH240242   0.364   6.766   7.326
 6228TIP3    H140243   0.347   0.035   7.317
 6228TIP3    H240244   0.458   6.759   7.343
 6229TIP3   OH240245   4.585   3.232   8.330
 6229TIP3    H140246   4.505   3.179   8.324
 6229TIP3    H240247   4.625   3.204   8.412
 6230TIP3   OH240248   1.743   0.257   2.467
 6230TIP3    H140249   1.744   0.348   2.437
 6230TIP3    H240250   1.830   0.223   2.445
 6231TIP3   OH240251   3.747   5.746   1.171
 6231TIP3    H140252   3.748   5.772   1.079
 6231TIP3    H240253   3.728   5.827   1.218
 6232TIP3   OH240254   2.554   0.666   1.051
 6232TIP3    H140255   2.544   0.621   0.967
 6232TIP3    H240256   2.466   0.694   1.074
 6233TIP3   OH240257   0.520   5.725   2.025
 6233TIP3    H140258   0.525   5.820   2.014
 6233TIP3    H240259   0.508   5.712   2.119
 6234TIP3   OH240260   6.597   3.645   0.120
 6234TIP3    H140261   6.532   3.582   0.153
 6234TIP3    H240262   6.682   3.607   0.145
 6235TIP3   OH240263   5.200   5.631   0.139
 6235TIP3    H140264   5.226   5.712   0.096
 6235TIP3    H240265   5.203   5.565   0.070
 6236TIP3   OH240266   4.065   6.633   0.183
 6236TIP3    H140267   4.141   6.681   0.217
 6236TIP3    H240268   4.104   6.565   0.128
 6237TIP3   OH240269   4.867   0.609   0.219
 6237TIP3    H140270   4.862   0.666   0.295
 6237TIP3    H240271   4.903   0.664   0.149
 6238TIP3   OH240272   5.349   2.306   1.875
 6238TIP3    H140273   5.391   2.346   1.951
 6238TIP3    H240274   5.257   2.296   1.901
 6239TIP3   OH240275   3.028   4.076   6.954
 6239TIP3    H140276   3.006   4.105   7.043
 6239TIP3    H240277   3.022   4.156   6.901
 6240TIP3   OH240278   0.260   2.515   1.285
 6240TIP3    H140279   0.207   2.438   1.305
 6240TIP3    H240280   0.266   2.517   1.190
 6241TIP3   OH240281   2.649   1.282   8.761
 6241TIP3    H140282   2.598   1.205   0.008
 6241TIP3    H240283   2.633   1.288   8.667
 6242TIP3   OH240284   4.485   0.341   0.523
 6242TIP3    H140285   4.485   0.435   0.504
 6242TIP3    H240286   4.560   0.306   0.475
 6243TIP3   OH240287   4.931   4.553   7.817
 6243TIP3    H140288   4.895   4.594   7.896
 6243TIP3    H240289   4.889   4.600   7.745
 6244TIP3   OH240290   4.222   3.254   7.805
 6244TIP3    H140291   4.250   3.310   7.734
 6244TIP3    H240292   4.302   3.211   7.836
 6245TIP3   OH240293   1.233   6.271   7.350
 6245TIP3    H140294   1.139   6.260   7.337
 6245TIP3    H240295   1.269   6.182   7.341
 6246TIP3   OH240296   0.409   1.898   0.862
 6246TIP3    H140297   0.499   1.908   0.891
 6246TIP3    H240298   0.409   1.817   0.811
 6247TIP3   OH240299   2.907   2.429   1.007
 6247TIP3    H140300   2.858   2.359   0.965
 6247TIP3    H240301   2.962   2.384   1.072
 6248TIP3   OH240302   5.716   4.053   0.077
 6248TIP3    H140303   5.710   4.149   0.079
 6248TIP3    H240304   5.810   4.036   0.077
 6249TIP3   OH240305   2.943   1.563   7.089
 6249TIP3    H140306   2.874   1.503   7.061
 6249TIP3    H240307   3.024   1.521   7.061
 6250TIP3   OH240308   2.140   6.724   0.230
 6250TIP3    H140309   2.107   6.674   0.305
 6250TIP3    H240310   2.114   6.814   0.248
 6251TIP3   OH240311   2.207   1.114   1.677
 6251TIP3    H140312   2.187   1.207   1.689
 6251TIP3    H240313   2.195   1.076   1.764
 6252TIP3   OH240314   4.039   2.894   1.098
 6252TIP3    H140315   3.948   2.881   1.072
 6252TIP3    H240316   4.035   2.908   1.193
 6253TIP3   OH240317   5.997   6.232   6.631
 6253TIP3    H140318   6.055   6.177   6.684
 6253TIP3    H240319   6.057   6.289   6.581
 6254TIP3   OH240320   5.500   4.082   1.620
 6254TIP3    H140321   5.422   4.078   1.675
 6254TIP3    H240322   5.573   4.075   1.681
 6255TIP3   OH240323   2.073   2.825   0.921
 6255TIP3    H140324   2.042   2.815   1.011
 6255TIP3    H240325   1.997   2.858   0.873
 6256TIP3   OH240326   3.445   4.235   2.271
 6256TIP3    H140327   3.377   4.207   2.332
 6256TIP3    H240328   3.507   4.162   2.267
 6257TIP3   OH240329   2.245   3.009   1.833
 6257TIP3    H140330   2.241   2.918   1.803
 6257TIP3    H240331   2.226   3.060   1.754
 6258TIP3   OH240332   5.149   5.734   1.449
 6258TIP3    H140333   5.165   5.706   1.359
 6258TIP3    H240334   5.057   5.712   1.465
 6259TIP3   OH240335   3.492   2.324   7.786
 6259TIP3    H140336   3.520   2.316   7.877
 6259TIP3    H240337   3.567   2.291   7.735
 6260TIP3   OH240338   4.212   0.261   0.719
 6260TIP3    H140339   4.188   0.306   0.639
 6260TIP3    H240340   4.306   0.250   0.713
 6261TIP3   OH240341   3.345   1.792   1.331
 6261TIP3    H140342   3.432   1.831   1.327
 6261TIP3    H240343   3.292   1.855   1.380
 6262TIP3   OH240344   2.772   2.495   0.222
 6262TIP3    H140345   2.788   2.470   0.131
 6262TIP3    H240346   2.772   2.590   0.222
 6263TIP3   OH240347   6.138   4.493   1.089
 6263TIP3    H140348   6.128   4.406   1.049
 6263TIP3    H240349   6.098   4.483   1.175
 6264TIP3   OH240350   4.837   2.384   7.928
 6264TIP3    H140351   4.854   2.478   7.926
 6264TIP3    H240352   4.748   2.375   7.894
 6265TIP3   OH240353   1.557   4.723   1.966
 6265TIP3    H140354   1.576   4.813   1.991
 6265TIP3    H240355   1.526   4.729   1.875
 6266TIP3   OH240356   3.187   1.221   6.802
 6266TIP3    H140357   3.112   1.221   6.743
 6266TIP3    H240358   3.178   1.301   6.853
 6267TIP3   OH240359   3.235   5.279   7.246
 6267TIP3    H140360   3.325   5.292   7.218
 6267TIP3    H240361   3.230   5.322   7.331
 6268TIP3   OH240362   0.320   2.032   7.880
 6268TIP3    H140363   0.245   2.084   7.909
 6268TIP3    H240364   0.336   1.971   7.952
 6269TIP3   OH240365   1.086   1.669   8.421
 6269TIP3    H140366   1.003   1.628   8.445
 6269TIP3    H240367   1.118   1.707   8.503
 6270TIP3   OH240368   2.044   0.491   7.552
 6270TIP3    H140369   2.112   0.558   7.557
 6270TIP3    H240370   2.005   0.503   7.465
 6271TIP3   OH240371   1.882   0.050   8.659
 6271TIP3    H140372   1.964   0.055   8.708
 6271TIP3    H240373   1.885   6.790   8.616
 6272TIP3   OH240374   4.891   5.827   7.580
 6272TIP3    H140375   4.956   5.878   7.628
 6272TIP3    H240376   4.941   5.779   7.514
 6273TIP3   OH240377   3.643   3.398   7.493
 6273TIP3    H140378   3.635   3.403   7.589
 6273TIP3    H240379   3.732   3.431   7.476
 6274TIP3   OH240380   0.688   2.869   0.240
 6274TIP3    H140381   0.767   2.921   0.223
 6274TIP3    H240382   0.687   2.857   0.335
 6275TIP3   OH240383   2.689   2.933   2.236
 6275TIP3    H140384   2.727   2.914   2.151
 6275TIP3    H240385   2.611   2.878   2.240
 6276TIP3   OH240386   2.113   5.953   1.677
 6276TIP3    H140387   2.135   5.861   1.692
 6276TIP3    H240388   2.198   5.995   1.661
 6277TIP3   OH240389   6.484   4.400   7.313
 6277TIP3    H140390   6.477   4.319   7.262
 6277TIP3    H240391   6.463   4.469   7.251
 6278TIP3   OH240392   2.215   3.507   8.445
 6278TIP3    H140393   2.200   3.414   8.461
 6278TIP3    H240394   2.209   3.548   8.531
 6279TIP3   OH240395   2.882   5.213   8.446
 6279TIP3    H140396   2.882   5.231   8.352
 6279TIP3    H240397   2.847   5.293   8.485
 6280TIP3   OH240398   4.372   4.877   0.106
 6280TIP3    H140399   4.381   4.860   0.200
 6280TIP3    H240400   4.387   4.971   0.098
 6281TIP3   OH240401   3.937   5.165   0.619
 6281TIP3    H140402   3.990   5.245   0.611
 6281TIP3    H240403   3.987   5.099   0.571
 6282TIP3   OH240404   6.073   6.345   0.542
 6282TIP3    H140405   6.082   6.429   0.585
 6282TIP3    H240406   6.071   6.281   0.613
 6283TIP3   OH240407   2.732   1.733   0.695
 6283TIP3    H140408   2.676   1.655   0.690
 6283TIP3    H240409   2.709   1.783   0.617
 6284TIP3   OH240410   5.492   2.146   6.824
 6284TIP3    H140411   5.430   2.210   6.789
 6284TIP3    H240412   5.528   2.187   6.902
 6285TIP3   OH240413   0.869   3.820   8.779
 6285TIP3    H140414   0.919   3.902   0.003
 6285TIP3    H240415   0.812   3.832   8.703
 6286TIP3   OH240416   0.163   6.251   6.853
 6286TIP3    H140417   0.176   6.331   6.801
 6286TIP3    H240418   0.123   6.282   6.934
 6287TIP3   OH240419   4.827   0.846   1.158
 6287TIP3    H140420   4.844   0.884   1.072
 6287TIP3    H240421   4.762   0.777   1.141
 6288TIP3   OH240422   1.236   3.908   0.095
 6288TIP3    H140423   1.151   3.947   0.075
 6288TIP3    H240424   1.293   3.934   0.023
 6289TIP3   OH240425   5.263   5.140   8.580
 6289TIP3    H140426   5.240   5.182   8.497
 6289TIP3    H240427   5.343   5.092   8.561
 6290TIP3   OH240428   2.262   1.223   0.293
 6290TIP3    H140429   2.203   1.214   0.368
 6290TIP3    H240430   2.326   1.288   0.320
 6291TIP3   OH240431   6.174   2.996   1.365
 6291TIP3    H140432   6.184   2.927   1.430
 6291TIP3    H240433   6.210   2.959   1.284
 6292TIP3   OH240434   5.101   2.760   0.929
 6292TIP3    H140435   5.136   2.672   0.917
 6292TIP3    H240436   5.035   2.770   0.861
 6293TIP3   OH240437   5.452   0.539   6.862
 6293TIP3    H140438   5.498   0.490   6.793
 6293TIP3    H240439   5.364   0.552   6.826
 6294TIP3   OH240440   4.708   0.406   8.195
 6294TIP3    H140441   4.797   0.439   8.182
 6294TIP3    H240442   4.654   0.486   8.201
 6295TIP3   OH240443   5.474   6.670   7.413
 6295TIP3    H140444   5.540   6.732   7.443
 6295TIP3    H240445   5.451   6.701   7.325
 6296TIP3   OH240446   0.925   4.703   1.323
 6296TIP3    H140447   0.973   4.625   1.351
 6296TIP3    H240448   0.959   4.774   1.378
 6297TIP3   OH240449   2.702   3.774   8.597
 6297TIP3    H140450   2.787   3.815   8.609
 6297TIP3    H240451   2.715   3.709   8.528
 6298TIP3   OH240452   0.529   2.728   0.079
 6298TIP3    H140453   0.585   2.791   0.126
 6298TIP3    H240454   0.585   2.693   0.010
 6299TIP3   OH240455   4.741   0.410   2.699
 6299TIP3    H140456   4.667   0.438   2.753
 6299TIP3    H240457   4.817   0.423   2.755
 6300TIP3   OH240458   6.116   3.296   1.300
 6300TIP3    H140459   6.206   3.315   1.273
 6300TIP3    H240460   6.123   3.217   1.353
 6301TIP3   OH240461   1.704   0.032   1.963
 6301TIP3    H140462   1.773   0.065   1.905
 6301TIP3    H240463   1.752   6.808   2.031
 6302TIP3   OH240464   3.596   4.406   0.950
 6302TIP3    H140465   3.587   4.316   0.918
 6302TIP3    H240466   3.650   4.398   1.029
 6303TIP3   OH240467   0.365   6.207   0.835
 6303TIP3    H140468   0.433   6.227   0.771
 6303TIP3    H240469   0.390   6.122   0.870
 6304TIP3   OH240470   1.511   0.452   6.801
 6304TIP3    H140471   1.553   0.452   6.887
 6304TIP3    H240472   1.420   0.427   6.819
 6305TIP3   OH240473   0.714   2.188   0.008
 6305TIP3    H140474   0.739   2.123   8.723
 6305TIP3    H240475   0.773   2.262   8.773
 6306TIP3   OH240476   1.935   1.911   1.398
 6306TIP3    H140477   1.981   1.947   1.474
 6306TIP3    H240478   2.002   1.860   1.351
 6307TIP3   OH240479   0.167   1.691   8.041
 6307TIP3    H140480   0.213   1.754   8.097
 6307TIP3    H240481   0.221   1.686   7.962
 6308TIP3   OH240482   4.613   4.628   1.065
 6308TIP3    H140483   4.521   4.600   1.070
 6308TIP3    H240484   4.663   4.553   1.097
 6309TIP3   OH240485   5.990   0.046   8.741
 6309TIP3    H140486   5.917   6.825   0.002
 6309TIP3    H240487   5.996   0.129   0.007
 6310TIP3   OH240488   1.276   5.733   1.724
 6310TIP3    H140489   1.210   5.674   1.687
 6310TIP3    H240490   1.306   5.690   1.803
 6311TIP3   OH240491   3.591   4.143   0.074
 6311TIP3    H140492   3.568   4.225   0.118
 6311TIP3    H240493   3.663   4.167   0.015
 6312TIP3   OH240494   3.952   6.761   6.958
 6312TIP3    H140495   3.880   6.706   6.991
 6312TIP3    H240496   3.968   6.729   6.870
 6313TIP3   OH240497   3.310   1.014   0.938
 6313TIP3    H140498   3.318   0.922   0.914
 6313TIP3    H240499   3.393   1.054   0.911
 6314TIP3   OH240500   6.325   0.309   6.837
 6314TIP3    H140501   6.417   0.331   6.823
 6314TIP3    H240502   6.282   0.394   6.851
 6315TIP3   OH240503   1.337   6.417   7.107
 6315TIP3    H140504   1.244   6.438   7.097
 6315TIP3    H240505   1.338   6.342   7.166
 6316TIP3   OH240506   3.272   0.902   8.144
 6316TIP3    H140507   3.194   0.886   8.090
 6316TIP3    H240508   3.253   0.984   8.189
 6317TIP3   OH240509   0.809   3.133   7.436
 6317TIP3    H140510   0.863   3.058   7.461
 6317TIP3    H240511   0.792   3.120   7.342
 6318TIP3   OH240512   5.146   0.397   8.741
 6318TIP3    H140513   5.111   0.406   0.049
 6318TIP3    H240514   5.071   0.409   8.683
 6319TIP3   OH240515   2.913   6.723   7.521
 6319TIP3    H140516   2.866   6.681   7.593
 6319TIP3    H240517   2.845   6.765   7.469
 6320TIP3   OH240518   0.410   6.357   1.070
 6320TIP3    H140519   0.404   6.284   1.009
 6320TIP3    H240520   0.320   6.370   1.100
 6321TIP3   OH240521   4.573   4.875   6.767
 6321TIP3    H140522   4.509   4.829   6.714
 6321TIP3    H240523   4.632   4.807   6.799
 6322TIP3   OH240524   4.966   0.553   7.728
 6322TIP3    H140525   5.012   0.522   7.650
 6322TIP3    H240526   4.880   0.511   7.724
 6323TIP3   OH240527   3.281   4.424   6.805
 6323TIP3    H140528   3.279   4.415   6.901
 6323TIP3    H240529   3.236   4.506   6.788
 6324TIP3   OH240530   4.005   2.070   0.785
 6324TIP3    H140531   4.051   2.109   0.860
 6324TIP3    H240532   3.960   1.994   0.822
 6325TIP3   OH240533   2.562   5.639   7.395
 6325TIP3    H140534   2.541   5.583   7.470
 6325TIP3    H240535   2.620   5.586   7.341
 6326TIP3   OH240536   1.865   2.899   7.345
 6326TIP3    H140537   1.850   2.805   7.334
 6326TIP3    H240538   1.955   2.913   7.315
 6327TIP3   OH240539   2.547   6.670   0.987
 6327TIP3    H140540   2.532   6.749   1.039
 6327TIP3    H240541   2.486   6.678   0.913
 6328TIP3   OH240542   4.649   6.183   1.240
 6328TIP3    H140543   4.697   6.255   1.279
 6328TIP3    H240544   4.704   6.106   1.255
 6329TIP3   OH240545   5.783   0.748   0.443
 6329TIP3    H140546   5.735   0.668   0.421
 6329TIP3    H240547   5.875   0.722   0.445
 6330TIP3   OH240548   1.776   5.861   6.828
 6330TIP3    H140549   1.839   5.794   6.803
 6330TIP3    H240550   1.785   5.929   6.762
 6331TIP3   OH240551   5.617   6.007   2.598
 6331TIP3    H140552   5.658   6.061   2.665
 6331TIP3    H240553   5.585   6.069   2.533
 6332TIP3   OH240554   1.736   0.710   8.595
 6332TIP3    H140555   1.723   0.661   8.514
 6332TIP3    H240556   1.648   0.738   8.621
 6333TIP3   OH240557   0.606   3.817   7.611
 6333TIP3    H140558   0.683   3.874   7.601
 6333TIP3    H240559   0.642   3.729   7.618
 6334TIP3   OH240560   5.668   6.074   0.153
 6334TIP3    H140561   5.742   6.131   0.173
 6334TIP3    H240562   5.594   6.115   0.198
 6335TIP3   OH240563   2.346   0.810   2.583
 6335TIP3    H140564   2.276   0.766   2.535
 6335TIP3    H240565   2.314   0.899   2.596
 6336TIP3   OH240566   1.547   2.904   0.356
 6336TIP3    H140567   1.519   2.895   0.447
 6336TIP3    H240568   1.641   2.921   0.361
 6337TIP3   OH240569   2.059   2.897   8.562
 6337TIP3    H140570   2.139   2.945   8.581
 6337TIP3    H240571   2.009   2.956   8.505
 6338TIP3   OH240572   4.262   5.399   2.397
 6338TIP3    H140573   4.320   5.475   2.397
 6338TIP3    H240574   4.299   5.341   2.463
 6339TIP3   OH240575   3.531   2.990   8.540
 6339TIP3    H140576   3.620   2.974   8.570
 6339TIP3    H240577   3.478   2.987   8.620
 6340TIP3   OH240578   1.977   2.038   8.294
 6340TIP3    H140579   1.937   2.037   8.381
 6340TIP3    H240580   2.048   2.102   8.301
 6341TIP3   OH240581   2.928   5.728   1.686
 6341TIP3    H140582   2.884   5.778   1.617
 6341TIP3    H240583   2.990   5.790   1.724
 6342TIP3   OH240584   1.006   3.871   7.960
 6342TIP3    H140585   0.917   3.843   7.979
 6342TIP3    H240586   1.043   3.801   7.907
 6343TIP3   OH240587   2.401   0.284   1.697
 6343TIP3    H140588   2.309   0.311   1.688
 6343TIP3    H240589   2.450   0.366   1.695
 6344TIP3   OH240590   6.300   2.638   0.202
 6344TIP3    H140591   6.259   2.725   0.200
 6344TIP3    H240592   6.338   2.628   0.115
 6345TIP3   OH240593   4.586   5.224   7.187
 6345TIP3    H140594   4.623   5.241   7.274
 6345TIP3    H240595   4.585   5.310   7.144
 6346TIP3   OH240596   2.300   5.578   8.206
 6346TIP3    H140597   2.395   5.572   8.211
 6346TIP3    H240598   2.281   5.670   8.222
 6347TIP3   OH240599   5.808   5.931   1.228
 6347TIP3    H140600   5.855   5.853   1.197
 6347TIP3    H240601   5.778   5.974   1.148
 6348TIP3   OH240602   2.898   2.759   0.125
 6348TIP3    H140603   2.976   2.703   0.123
 6348TIP3    H240604   2.931   2.846   0.145
 6349TIP3   OH240605   3.358   0.439   2.218
 6349TIP3    H140606   3.269   0.419   2.190
 6349TIP3    H240607   3.353   0.443   2.313
 6350TIP3   OH240608   2.664   3.898   0.085
 6350TIP3    H140609   2.679   3.867   8.777
 6350TIP3    H240610   2.752   3.911   0.121
 6351TIP3   OH240611   4.477   0.101   8.188
 6351TIP3    H140612   4.541   0.095   8.259
 6351TIP3    H240613   4.395   0.126   8.231
 6352TIP3   OH240614   5.910   5.805   1.492
 6352TIP3    H140615   5.890   5.712   1.501
 6352TIP3    H240616   5.895   5.824   1.400
 6353TIP3   OH240617   5.772   2.397   8.619
 6353TIP3    H140618   5.863   2.390   8.647
 6353TIP3    H240619   5.741   2.307   8.613
 6354TIP3   OH240620   6.109   0.908   8.260
 6354TIP3    H140621   6.183   0.903   8.200
 6354TIP3    H240622   6.040   0.952   8.210
 6355TIP3   OH240623   6.038   4.111   0.490
 6355TIP3    H140624   5.955   4.082   0.528
 6355TIP3    H240625   6.048   4.058   0.410
 6356TIP3   OH240626   1.451   3.880   0.528
 6356TIP3    H140627   1.394   3.860   0.454
 6356TIP3    H240628   1.411   3.834   0.602
 6357TIP3   OH240629   2.731   6.543   8.054
 6357TIP3    H140630   2.769   6.559   7.968
 6357TIP3    H240631   2.785   6.594   8.114
 6358TIP3   OH240632   0.752   3.001   1.887
 6358TIP3    H140633   0.755   2.991   1.982
 6358TIP3    H240634   0.671   2.955   1.862
 6359TIP3   OH240635   1.016   5.702   0.556
 6359TIP3    H140636   1.104   5.729   0.580
 6359TIP3    H240637   1.016   5.703   0.461
 6360TIP3   OH240638   0.113   1.617   7.614
 6360TIP3    H140639   0.175   1.689   7.614
 6360TIP3    H240640   0.039   1.648   7.562
 6361TIP3   OH240641   1.232   1.400   7.974
 6361TIP3    H140642   1.166   1.433   8.035
 6361TIP3    H240643   1.195   1.318   7.941
 6362TIP3   OH240644   2.870   6.200   1.117
 6362TIP3    H140645   2.942   6.142   1.095
 6362TIP3    H240646   2.910   6.287   1.122
 6363TIP3   OH240647   6.225   2.244   7.512
 6363TIP3    H140648   6.200   2.218   7.601
 6363TIP3    H240649   6.166   2.316   7.491
 6364TIP3   OH240650   5.039   1.119   6.776
 6364TIP3    H140651   5.039   1.212   6.800
 6364TIP3    H240652   4.946   1.099   6.763
 6365TIP3   OH240653   3.367   3.461   1.305
 6365TIP3    H140654   3.310   3.499   1.239
 6365TIP3    H240655   3.352   3.515   1.383
 6366TIP3   OH240656   0.644   5.230   6.424
 6366TIP3    H140657   0.559   5.236   6.467
 6366TIP3    H240658   0.657   5.136   6.409
 6367TIP3   OH240659   0.646   4.187   7.890
 6367TIP3    H140660   0.734   4.195   7.853
 6367TIP3    H240661   0.593   4.150   7.819
 6368TIP3   OH240662   3.276   6.081   6.505
 6368TIP3    H140663   3.296   6.031   6.584
 6368TIP3    H240664   3.299   6.022   6.433
 6369TIP3   OH240665   3.056   5.650   7.853
 6369TIP3    H140666   3.011   5.707   7.916
 6369TIP3    H240667   3.085   5.708   7.783
 6370TIP3   OH240668   6.770   4.885   0.007
 6370TIP3    H140669   6.709   4.828   0.054
 6370TIP3    H240670   0.032   4.851   0.029
 6371TIP3   OH240671   4.994   4.647   6.678
 6371TIP3    H140672   5.013   4.640   6.585
 6371TIP3    H240673   5.030   4.731   6.704
 6372TIP3   OH240674   4.400   6.692   6.521
 6372TIP3    H140675   4.429   6.609   6.559
 6372TIP3    H240676   4.339   6.666   6.452
 6373TIP3   OH240677   6.400   6.142   8.187
 6373TIP3    H140678   6.492   6.151   8.212
 6373TIP3    H240679   6.394   6.054   8.150
 6374TIP3   OH240680   5.242   6.025   2.504
 6374TIP3    H140681   5.178   5.970   2.458
 6374TIP3    H240682   5.325   6.007   2.459
 6375TIP3   OH240683   4.113   2.657   8.536
 6375TIP3    H140684   4.072   2.590   8.591
 6375TIP3    H240685   4.178   2.698   8.593
 6376TIP3   OH240686   5.368   1.836   1.357
 6376TIP3    H140687   5.295   1.779   1.334
 6376TIP3    H240688   5.442   1.804   1.304
 6377TIP3   OH240689   4.199   2.404   8.445
 6377TIP3    H140690   4.123   2.362   8.485
 6377TIP3    H240691   4.177   2.497   8.442
 6378TIP3   OH240692   5.535   3.719   2.111
 6378TIP3    H140693   5.481   3.706   2.189
 6378TIP3    H240694   5.564   3.810   2.116
 6379TIP3   OH240695   3.783   6.609   1.805
 6379TIP3    H140696   3.870   6.608   1.767
 6379TIP3    H240697   3.733   6.547   1.751
 6380TIP3   OH240698   4.867   0.888   1.693
 6380TIP3    H140699   4.771   0.881   1.691
 6380TIP3    H240700   4.888   0.951   1.623
 6381TIP3   OH240701   2.284   4.736   7.977
 6381TIP3    H140702   2.192   4.749   7.956
 6381TIP3    H240703   2.330   4.751   7.895
 6382TIP3   OH240704   6.134   5.239   2.594
 6382TIP3    H140705   6.193   5.307   2.561
 6382TIP3    H240706   6.145   5.242   2.689
 6383TIP3   OH240707   1.474   2.387   8.100
 6383TIP3    H140708   1.518   2.455   8.151
 6383TIP3    H240709   1.396   2.429   8.065
 6384TIP3   OH240710   2.135   5.000   0.188
 6384TIP3    H140711   2.206   4.982   0.250
 6384TIP3    H240712   2.177   4.994   0.102
 6385TIP3   OH240713   5.212   5.762   6.963
 6385TIP3    H140714   5.234   5.780   6.871
 6385TIP3    H240715   5.120   5.788   6.971
 6386TIP3   OH240716   4.116   4.845   7.532
 6386TIP3    H140717   4.091   4.765   7.578
 6386TIP3    H240718   4.157   4.815   7.451
 6387TIP3   OH240719   5.559   3.301   0.850
 6387TIP3    H140720   5.478   3.342   0.881
 6387TIP3    H240721   5.558   3.214   0.891
 6388TIP3   OH240722   6.547   3.887   8.593
 6388TIP3    H140723   6.571   3.979   8.587
 6388TIP3    H240724   6.460   3.888   8.633
 6389TIP3   OH240725   0.911   2.588   8.369
 6389TIP3    H140726   0.996   2.583   8.325
 6389TIP3    H240727   0.869   2.666   8.333
 6390TIP3   OH240728   6.288   2.301   8.530
 6390TIP3    H140729   6.347   2.238   8.573
 6390TIP3    H240730   6.299   2.283   8.437
 6391TIP3   OH240731   6.469   3.411   0.337
 6391TIP3    H140732   6.417   3.469   0.282
 6391TIP3    H240733   6.410   3.339   0.360
 6392TIP3   OH240734   5.717   4.658   0.621
 6392TIP3    H140735   5.691   4.614   0.540
 6392TIP3    H240736   5.649   4.634   0.684
 6393TIP3   OH240737   0.380   2.442   8.487
 6393TIP3    H140738   0.350   2.451   8.578
 6393TIP3    H240739   0.300   2.452   8.435
 6394TIP3   OH240740   0.747   2.727   8.581
 6394TIP3    H140741   0.816   2.680   8.533
 6394TIP3    H240742   0.763   2.819   8.560
 6395TIP3   OH240743   0.049   2.200   1.612
 6395TIP3    H140744   6.817   2.174   1.684
 6395TIP3    H240745   0.137   2.188   1.645
 6396TIP3   OH240746   4.099   3.924   1.866
 6396TIP3    H140747   4.081   3.895   1.955
 6396TIP3    H240748   4.126   3.845   1.819
 6397TIP3   OH240749   3.226   3.255   0.461
 6397TIP3    H140750   3.201   3.338   0.421
 6397TIP3    H240751   3.194   3.260   0.551
 6398TIP3   OH240752   2.819   4.062   1.177
 6398TIP3    H140753   2.734   4.102   1.192
 6398TIP3    H240754   2.874   4.132   1.143
 6399TIP3   OH240755   0.929   0.179   0.636
 6399TIP3    H140756   0.974   0.261   0.655
 6399TIP3    H240757   0.966   0.116   0.698
 6400TIP3   OH240758   6.584   5.070   7.945
 6400TIP3    H140759   6.632   5.003   7.993
 6400TIP3    H240760   6.652   5.127   7.908
 6401TIP3   OH240761   3.851   5.919   2.401
 6401TIP3    H140762   3.776   5.947   2.350
 6401TIP3    H240763   3.865   5.989   2.465
 6402TIP3   OH240764   6.118   1.657   0.528
 6402TIP3    H140765   6.079   1.741   0.553
 6402TIP3    H240766   6.061   1.624   0.458
 6403TIP3   OH240767   1.381   3.537   1.129
 6403TIP3    H140768   1.435   3.614   1.110
 6403TIP3    H240769   1.442   3.475   1.168
 6404TIP3   OH240770   4.831   0.005   1.357
 6404TIP3    H140771   4.845   6.778   1.278
 6404TIP3    H240772   4.920   0.027   1.387
 6405TIP3   OH240773   2.029   3.870   8.364
 6405TIP3    H140774   2.082   3.941   8.401
 6405TIP3    H240775   1.974   3.841   8.437
 6406TIP3   OH240776   5.184   2.343   8.617
 6406TIP3    H140777   5.157   2.421   8.666
 6406TIP3    H240778   5.280   2.343   8.623
 6407TIP3   OH240779   5.977   4.689   1.807
 6407TIP3    H140780   5.998   4.615   1.864
 6407TIP3    H240781   5.937   4.754   1.865
 6408TIP3   OH240782   4.027   2.318   0.411
 6408TIP3    H140783   4.048   2.319   0.505
 6408TIP3    H240784   4.045   2.228   0.384
 6409TIP3   OH240785   0.286   5.893   8.092
 6409TIP3    H140786   0.379   5.913   8.102
 6409TIP3    H240787   0.255   5.956   8.027
 6410TIP3   OH240788   2.312   5.444   2.048
 6410TIP3    H140789   2.313   5.499   2.127
 6410TIP3    H240790   2.300   5.506   1.976
 6411TIP3   OH240791   1.825   1.198   0.768
 6411TIP3    H140792   1.907   1.206   0.720
 6411TIP3    H240793   1.758   1.225   0.706
 6412TIP3   OH240794   2.297   3.026   8.580
 6412TIP3    H140795   2.317   3.071   8.662
 6412TIP3    H240796   2.362   2.956   8.575
 6413TIP3   OH240797   6.663   5.270   2.321
 6413TIP3    H140798   6.581   5.223   2.338
 6413TIP3    H240799   6.694   5.296   2.408
 6414TIP3   OH240800   6.342   3.962   1.068
 6414TIP3    H140801   6.282   4.024   1.027
 6414TIP3    H240802   6.286   3.900   1.114
 6415TIP3   OH240803   4.918   5.675   0.884
 6415TIP3    H140804   5.008   5.653   0.860
 6415TIP3    H240805   4.923   5.704   0.975
 6416TIP3   OH240806   3.527   5.133   6.655
 6416TIP3    H140807   3.452   5.080   6.628
 6416TIP3    H240808   3.518   5.214   6.605
 6417TIP3   OH240809   1.680   2.319   6.817
 6417TIP3    H140810   1.711   2.228   6.817
 6417TIP3    H240811   1.760   2.371   6.821
 6418TIP3   OH240812   5.336   3.679   0.384
 6418TIP3    H140813   5.317   3.610   0.320
 6418TIP3    H240814   5.350   3.631   0.467
 6419TIP3   OH240815   0.736   4.490   1.497
 6419TIP3    H140816   0.733   4.460   1.588
 6419TIP3    H240817   0.798   4.563   1.499
 6420TIP3   OH240818   2.412   3.519   1.427
 6420TIP3    H140819   2.361   3.459   1.374
 6420TIP3    H240820   2.492   3.471   1.449
 6421TIP3   OH240821   4.672   5.986   7.891
 6421TIP3    H140822   4.643   6.059   7.946
 6421TIP3    H240823   4.611   5.985   7.818
 6422TIP3   OH240824   1.312   3.496   7.155
 6422TIP3    H140825   1.300   3.506   7.249
 6422TIP3    H240826   1.269   3.573   7.117
 6423TIP3   OH240827   1.135   4.044   8.536
 6423TIP3    H140828   1.217   3.997   8.552
 6423TIP3    H240829   1.090   3.990   8.471
 6424TIP3   OH240830   4.307   0.677   6.319
 6424TIP3    H140831   4.312   0.766   6.354
 6424TIP3    H240832   4.391   0.637   6.344
 6425TIP3   OH240833   4.036   0.854   8.372
 6425TIP3    H140834   3.980   0.777   8.365
 6425TIP3    H240835   4.099   0.832   8.441
 6426TIP3   OH240836   0.008   0.668   8.464
 6426TIP3    H140837   0.089   0.719   8.463
 6426TIP3    H240838   6.769   0.725   8.423
 6427TIP3   OH240839   5.128   4.585   8.486
 6427TIP3    H140840   5.152   4.554   8.573
 6427TIP3    H240841   5.079   4.513   8.447
 6428TIP3   OH240842   0.246   2.660   6.865
 6428TIP3    H140843   0.199   2.578   6.855
 6428TIP3    H240844   0.178   2.727   6.870
 6429TIP3   OH240845   6.733   5.084   2.124
 6429TIP3    H140846   6.692   5.160   2.165
 6429TIP3    H240847   6.796   5.052   2.189
 6430TIP3   OH240848   3.367   1.914   1.037
 6430TIP3    H140849   3.361   1.917   1.132
 6430TIP3    H240850   3.289   1.960   1.006
 6431TIP3   OH240851   6.607   3.766   7.477
 6431TIP3    H140852   6.616   3.776   7.572
 6431TIP3    H240853   6.513   3.775   7.461
 6432TIP3   OH240854   6.615   2.905   0.018
 6432TIP3    H140855   6.674   2.980   0.014
 6432TIP3    H240856   6.527   2.944   0.019
 6433TIP3   OH240857   3.510   0.451   0.084
 6433TIP3    H140858   3.535   0.490   0.000
 6433TIP3    H240859   3.591   0.446   0.134
 6434TIP3   OH240860   2.020   2.650   1.634
 6434TIP3    H140861   1.999   2.563   1.668
 6434TIP3    H240862   2.049   2.635   1.545
 6435TIP3   OH240863   2.778   5.216   1.688
 6435TIP3    H140864   2.833   5.140   1.707
 6435TIP3    H240865   2.689   5.181   1.689
 6436TIP3   OH240866   4.105   2.977   2.516
 6436TIP3    H140867   4.086   3.064   2.481
 6436TIP3    H240868   4.201   2.971   2.517
 6437TIP3   OH240869   0.433   1.758   8.512
 6437TIP3    H140870   0.472   1.770   8.425
 6437TIP3    H240871   0.368   1.828   8.520
 6438TIP3   OH240872   4.799   0.685   2.008
 6438TIP3    H140873   4.757   0.600   2.022
 6438TIP3    H240874   4.892   0.664   1.998
 6439TIP3   OH240875   3.854   0.750   1.384
 6439TIP3    H140876   3.833   0.772   1.294
 6439TIP3    H240877   3.856   0.834   1.430
 6440TIP3   OH240878   6.028   4.509   2.014
 6440TIP3    H140879   6.037   4.547   2.102
 6440TIP3    H240880   6.038   4.415   2.027
 6441TIP3   OH240881   2.677   5.515   7.193
 6441TIP3    H140882   2.692   5.432   7.147
 6441TIP3    H240883   2.641   5.573   7.126
 6442TIP3   OH240884   4.587   5.886   1.087
 6442TIP3    H140885   4.602   5.905   0.995
 6442TIP3    H240886   4.499   5.918   1.105
 6443TIP3   OH240887   3.321   6.628   0.956
 6443TIP3    H140888   3.303   6.535   0.948
 6443TIP3    H240889   3.415   6.633   0.974
 6444TIP3   OH240890   0.845   2.086   0.690
 6444TIP3    H140891   0.938   2.086   0.712
 6444TIP3    H240892   0.836   2.154   0.623
 6445TIP3   OH240893   6.542   3.384   7.276
 6445TIP3    H140894   6.488   3.308   7.258
 6445TIP3    H240895   6.559   3.422   7.189
 6446TIP3   OH240896   4.413   5.173   1.248
 6446TIP3    H140897   4.344   5.163   1.183
 6446TIP3    H240898   4.486   5.213   1.200
 6447TIP3   OH240899   5.072   6.314   1.437
 6447TIP3    H140900   5.068   6.407   1.416
 6447TIP3    H240901   5.164   6.298   1.456
 6448TIP3   OH240902   2.927   2.893   8.377
 6448TIP3    H140903   2.934   2.866   8.469
 6448TIP3    H240904   2.839   2.867   8.351
 6449TIP3   OH240905   6.420   2.673   8.178
 6449TIP3    H140906   6.440   2.667   8.084
 6449TIP3    H240907   6.327   2.695   8.181
 6450TIP3   OH240908   3.425   3.561   6.833
 6450TIP3    H140909   3.388   3.494   6.775
 6450TIP3    H240910   3.520   3.553   6.821
 6451TIP3   OH240911   2.715   2.635   0.933
 6451TIP3    H140912   2.746   2.706   0.990
 6451TIP3    H240913   2.758   2.557   0.966
 6452TIP3   OH240914   1.685   3.418   1.071
 6452TIP3    H140915   1.740   3.343   1.047
 6452TIP3    H240916   1.662   3.403   1.163
 6453TIP3   OH240917   3.782   3.235   1.138
 6453TIP3    H140918   3.836   3.266   1.066
 6453TIP3    H240919   3.843   3.223   1.211
 6454TIP3   OH240920   3.550   2.820   1.116
 6454TIP3    H140921   3.491   2.750   1.142
 6454TIP3    H240922   3.516   2.849   1.031
 6455TIP3   OH240923   0.118   5.855   0.116
 6455TIP3    H140924   0.105   5.891   0.203
 6455TIP3    H240925   0.211   5.868   0.098
 6456TIP3   OH240926   1.877   6.489   2.357
 6456TIP3    H140927   1.968   6.481   2.330
 6456TIP3    H240928   1.882   6.509   2.451
 6457TIP3   OH240929   1.546   2.180   7.358
 6457TIP3    H140930   1.562   2.273   7.338
 6457TIP3    H240931   1.456   2.165   7.329
 6458TIP3   OH240932   2.955   0.118   0.827
 6458TIP3    H140933   2.937   0.028   0.799
 6458TIP3    H240934   3.051   0.124   0.827
 6459TIP3   OH240935   0.099   3.428   7.739
 6459TIP3    H140936   0.094   3.497   7.672
 6459TIP3    H240937   0.044   3.460   7.811
 6460TIP3   OH240938   6.276   1.272   1.158
 6460TIP3    H140939   6.195   1.318   1.137
 6460TIP3    H240940   6.346   1.334   1.134
 6461TIP3   OH240941   2.791   4.942   8.485
 6461TIP3    H140942   2.749   4.938   8.399
 6461TIP3    H240943   2.831   5.029   8.488
 6462TIP3   OH240944   0.160   1.334   7.940
 6462TIP3    H140945   0.118   1.252   7.965
 6462TIP3    H240946   0.230   1.345   8.005
 6463TIP3   OH240947   2.508   1.919   2.366
 6463TIP3    H140948   2.425   1.958   2.392
 6463TIP3    H240949   2.557   1.991   2.327
 6464TIP3   OH240950   3.150   3.751   1.677
 6464TIP3    H140951   3.230   3.728   1.630
 6464TIP3    H240952   3.174   3.741   1.770
 6465TIP3   OH240953   5.869   2.056   2.044
 6465TIP3    H140954   5.843   1.964   2.048
 6465TIP3    H240955   5.929   2.062   1.970
 6466TIP3   OH240956   0.248   5.953   1.753
 6466TIP3    H140957   0.173   5.911   1.710
 6466TIP3    H240958   0.323   5.931   1.698
 6467TIP3   OH240959   3.656   6.466   1.603
 6467TIP3    H140960   3.721   6.450   1.534
 6467TIP3    H240961   3.605   6.540   1.572
 6468TIP3   OH240962   6.490   1.518   1.624
 6468TIP3    H140963   6.575   1.560   1.638
 6468TIP3    H240964   6.441   1.580   1.569
 6469TIP3   OH240965   1.314   4.058   6.827
 6469TIP3    H140966   1.300   4.028   6.737
 6469TIP3    H240967   1.387   4.005   6.858
 6470TIP3   OH240968   4.990   4.934   7.732
 6470TIP3    H140969   4.914   4.885   7.702
 6470TIP3    H240970   4.987   4.927   7.828
 6471TIP3   OH240971   5.318   0.650   1.198
 6471TIP3    H140972   5.263   0.579   1.166
 6471TIP3    H240973   5.360   0.615   1.277
 6472TIP3   OH240974   3.294   4.791   8.131
 6472TIP3    H140975   3.340   4.714   8.164
 6472TIP3    H240976   3.215   4.757   8.090
 6473TIP3   OH240977   0.264   0.442   7.927
 6473TIP3    H140978   0.171   0.423   7.911
 6473TIP3    H240979   0.264   0.504   8.000
 6474TIP3   OH240980   2.835   1.500   0.264
 6474TIP3    H140981   2.876   1.572   0.217
 6474TIP3    H240982   2.899   1.475   0.330
 6475TIP3   OH240983   1.772   2.867   2.684
 6475TIP3    H140984   1.763   2.945   2.738
 6475TIP3    H240985   1.759   2.897   2.594
 6476TIP3   OH240986   4.689   1.223   1.507
 6476TIP3    H140987   4.660   1.169   1.580
 6476TIP3    H240988   4.778   1.251   1.532
 6477TIP3   OH240989   2.677   2.486   7.812
 6477TIP3    H140990   2.750   2.541   7.784
 6477TIP3    H240991   2.686   2.481   7.907
 6478TIP3   OH240992   3.418   3.493   7.117
 6478TIP3    H140993   3.411   3.467   7.025
 6478TIP3    H240994   3.480   3.566   7.117
 6479TIP3   OH240995   2.268   5.349   8.369
 6479TIP3    H140996   2.329   5.292   8.321
 6479TIP3    H240997   2.255   5.424   8.312
 6480TIP3   OH240998   2.463   2.710   7.668
 6480TIP3    H140999   2.461   2.614   7.663
 6480TIP3    H241000   2.539   2.730   7.723
 6481TIP3   OH241001   5.871   1.484   1.822
 6481TIP3    H141002   5.821   1.429   1.882
 6481TIP3    H241003   5.962   1.455   1.833
 6482TIP3   OH241004   4.702   3.226   0.424
 6482TIP3    H141005   4.727   3.217   0.332
 6482TIP3    H241006   4.770   3.179   0.472
 6483TIP3   OH241007   1.384   6.303   0.888
 6483TIP3    H141008   1.412   6.332   0.975
 6483TIP3    H241009   1.411   6.373   0.829
 6484TIP3   OH241010   0.565   1.315   1.975
 6484TIP3    H141011   0.515   1.237   1.998
 6484TIP3    H241012   0.653   1.283   1.956
 6485TIP3   OH241013   3.632   2.268   1.687
 6485TIP3    H141014   3.666   2.266   1.776
 6485TIP3    H241015   3.544   2.233   1.693
 6486TIP3   OH241016   5.307   2.588   0.396
 6486TIP3    H141017   5.293   2.495   0.411
 6486TIP3    H241018   5.395   2.605   0.429
 6487TIP3   OH241019   6.682   3.084   8.198
 6487TIP3    H141020   6.675   3.085   8.293
 6487TIP3    H241021   6.745   3.014   8.179
 6488TIP3   OH241022   4.286   4.792   8.124
 6488TIP3    H141023   4.322   4.878   8.145
 6488TIP3    H241024   4.251   4.802   8.035
 6489TIP3   OH241025   3.222   3.826   8.335
 6489TIP3    H141026   3.267   3.895   8.287
 6489TIP3    H241027   3.285   3.798   8.402
 6490TIP3   OH241028   3.710   6.556   2.556
 6490TIP3    H141029   3.693   6.511   2.473
 6490TIP3    H241030   3.651   6.513   2.618
 6491TIP3   OH241031   0.741   0.979   7.803
 6491TIP3    H141032   0.675   0.938   7.858
 6491TIP3    H241033   0.809   1.009   7.864
 6492TIP3   OH241034   6.291   6.082   6.502
 6492TIP3    H141035   6.235   6.125   6.438
 6492TIP3    H241036   6.259   5.992   6.506
 6493TIP3   OH241037   0.727   1.810   1.153
 6493TIP3    H141038   0.767   1.818   1.239
 6493TIP3    H241039   0.745   1.720   1.125
 6494TIP3   OH241040   1.579   5.687   0.510
 6494TIP3    H141041   1.652   5.648   0.462
 6494TIP3    H241042   1.502   5.664   0.458
 6495TIP3   OH241043   4.618   4.072   6.307
 6495TIP3    H141044   4.677   4.055   6.233
 6495TIP3    H241045   4.617   3.990   6.357
 6496TIP3   OH241046   4.547   6.754   6.802
 6496TIP3    H141047   4.623   6.800   6.838
 6496TIP3    H241048   4.584   6.687   6.744
 6497TIP3   OH241049   6.458   2.242   6.626
 6497TIP3    H141050   6.528   2.257   6.563
 6497TIP3    H241051   6.377   2.253   6.576
 6498TIP3   OH241052   4.401   1.513   7.450
 6498TIP3    H141053   4.453   1.523   7.530
 6498TIP3    H241054   4.467   1.503   7.381
 6499TIP3   OH241055   0.720   2.927   1.051
 6499TIP3    H141056   0.666   2.851   1.072
 6499TIP3    H241057   0.668   2.977   0.988
 6500TIP3   OH241058   3.460   6.644   0.202
 6500TIP3    H141059   3.459   6.579   0.132
 6500TIP3    H241060   3.523   6.709   0.172
 6501TIP3   OH241061   4.895   4.738   2.295
 6501TIP3    H141062   4.877   4.827   2.325
 6501TIP3    H241063   4.844   4.730   2.214
 6502TIP3   OH241064   2.155   3.341   1.744
 6502TIP3    H141065   2.129   3.431   1.724
 6502TIP3    H241066   2.162   3.339   1.839
 6503TIP3   OH241067   1.668   3.001   1.558
 6503TIP3    H141068   1.623   2.940   1.617
 6503TIP3    H241069   1.631   2.981   1.472
 6504TIP3   OH241070   1.030   5.406   0.160
 6504TIP3    H141071   1.011   5.355   0.239
 6504TIP3    H241072   1.098   5.355   0.115
 6505TIP3   OH241073   2.186   4.107   1.630
 6505TIP3    H141074   2.211   4.164   1.703
 6505TIP3    H241075   2.261   4.109   1.571
 6506TIP3   OH241076   3.257   0.152   0.332
 6506TIP3    H141077   3.352   0.144   0.328
 6506TIP3    H241078   3.225   0.065   0.309
 6507TIP3   OH241079   6.060   2.252   7.057
 6507TIP3    H141080   6.102   2.333   7.086
 6507TIP3    H241081   5.971   2.278   7.034
 6508TIP3   OH241082   0.461   1.485   7.307
 6508TIP3    H141083   0.455   1.522   7.219
 6508TIP3    H241084   0.391   1.527   7.357
 6509TIP3   OH241085   0.977   0.852   7.676
 6509TIP3    H141086   0.983   0.821   7.586
 6509TIP3    H241087   0.883   0.865   7.691
 6510TIP3   OH241088   4.549   5.942   0.551
 6510TIP3    H141089   4.603   5.941   0.630
 6510TIP3    H241090   4.481   5.877   0.568
 6511TIP3   OH241091   1.031   5.231   2.253
 6511TIP3    H141092   0.980   5.162   2.212
 6511TIP3    H241093   1.023   5.214   2.347
 6512TIP3   OH241094   1.149   2.556   8.195
 6512TIP3    H141095   1.154   2.650   8.178
 6512TIP3    H241096   1.138   2.516   8.109
 6513TIP3   OH241097   5.988   1.491   7.885
 6513TIP3    H141098   6.032   1.563   7.930
 6513TIP3    H241099   5.917   1.465   7.945
 6514TIP3   OH241100   3.523   0.347   0.515
 6514TIP3    H141101   3.543   0.436   0.484
 6514TIP3    H241102   3.570   0.340   0.598
 6515TIP3   OH241103   0.601   5.831   7.613
 6515TIP3    H141104   0.695   5.834   7.629
 6515TIP3    H241105   0.571   5.752   7.658
 6516TIP3   OH241106   4.360   0.131   2.398
 6516TIP3    H141107   4.339   0.044   2.433
 6516TIP3    H241108   4.279   0.181   2.407
 6517TIP3   OH241109   0.646   4.479   7.361
 6517TIP3    H141110   0.679   4.554   7.311
 6517TIP3    H241111   0.676   4.402   7.312
 6518TIP3   OH241112   6.634   4.326   1.489
 6518TIP3    H141113   6.723   4.291   1.486
 6518TIP3    H241114   6.578   4.250   1.477
 6519TIP3   OH241115   1.356   0.095   6.230
 6519TIP3    H141116   1.357   0.190   6.243
 6519TIP3    H241117   1.276   0.080   6.179
 6520TIP3   OH241118   1.407   3.847   1.065
 6520TIP3    H141119   1.482   3.854   1.006
 6520TIP3    H241120   1.436   3.888   1.146
 6521TIP3   OH241121   3.842   6.201   8.393
 6521TIP3    H141122   3.926   6.234   8.360
 6521TIP3    H241123   3.865   6.122   8.443
 6522TIP3   OH241124   1.480   6.373   1.159
 6522TIP3    H141125   1.415   6.443   1.157
 6522TIP3    H241126   1.516   6.377   1.248
 6523TIP3   OH241127   3.837   4.723   0.295
 6523TIP3    H141128   3.921   4.746   0.256
 6523TIP3    H241129   3.841   4.760   0.383
 6524TIP3   OH241130   5.477   0.419   2.338
 6524TIP3    H141131   5.500   0.397   2.248
 6524TIP3    H241132   5.421   0.497   2.330
 6525TIP3   OH241133   0.171   1.367   1.266
 6525TIP3    H141134   0.232   1.297   1.293
 6525TIP3    H241135   0.140   1.339   1.180
 6526TIP3   OH241136   2.978   6.670   1.214
 6526TIP3    H141137   3.043   6.664   1.285
 6526TIP3    H241138   2.987   6.759   1.180
 6527TIP3   OH241139   2.513   2.084   0.287
 6527TIP3    H141140   2.565   2.077   0.206
 6527TIP3    H241141   2.451   2.012   0.281
 6528TIP3   OH241142   3.033   6.100   7.681
 6528TIP3    H141143   2.969   6.158   7.722
 6528TIP3    H241144   3.067   6.151   7.607
 6529TIP3   OH241145   6.219   2.069   8.198
 6529TIP3    H141146   6.247   1.981   8.223
 6529TIP3    H241147   6.297   2.108   8.158
 6530TIP3   OH241148   4.739   6.049   0.296
 6530TIP3    H141149   4.783   6.116   0.348
 6530TIP3    H241150   4.670   6.015   0.353
 6531TIP3   OH241151   3.663   6.286   1.371
 6531TIP3    H141152   3.594   6.353   1.362
 6531TIP3    H241153   3.729   6.312   1.307
 6532TIP3   OH241154   4.485   1.986   1.128
 6532TIP3    H141155   4.488   2.078   1.103
 6532TIP3    H241156   4.475   1.987   1.223
 6533TIP3   OH241157   6.553   4.558   1.941
 6533TIP3    H141158   6.639   4.558   1.984
 6533TIP3    H241159   6.558   4.488   1.876
 6534TIP3   OH241160   4.705   4.124   0.285
 6534TIP3    H141161   4.714   4.205   0.235
 6534TIP3    H241162   4.795   4.094   0.299
 6535TIP3   OH241163   0.653   2.234   1.298
 6535TIP3    H141164   0.586   2.281   1.349
 6535TIP3    H241165   0.678   2.160   1.353
 6536TIP3   OH241166   5.727   3.765   8.053
 6536TIP3    H141167   5.729   3.707   8.130
 6536TIP3    H241168   5.786   3.837   8.076
 6537TIP3   OH241169   4.103   6.321   0.706
 6537TIP3    H141170   4.193   6.353   0.698
 6537TIP3    H241171   4.072   6.358   0.788
 6538TIP3   OH241172   1.913   5.860   0.681
 6538TIP3    H141173   1.882   5.951   0.677
 6538TIP3    H241174   1.927   5.835   0.590
 6539TIP3   OH241175   3.503   1.612   0.169
 6539TIP3    H141176   3.581   1.651   0.210
 6539TIP3    H241177   3.476   1.676   0.103
 6540TIP3   OH241178   2.611   5.783   8.295
 6540TIP3    H141179   2.606   5.689   8.279
 6540TIP3    H241180   2.525   5.806   8.332
 6541TIP3   OH241181   6.082   1.305   1.913
 6541TIP3    H141182   6.164   1.352   1.900
 6541TIP3    H241183   6.092   1.263   1.998
 6542TIP3   OH241184   1.567   3.663   1.783
 6542TIP3    H141185   1.477   3.657   1.814
 6542TIP3    H241186   1.617   3.608   1.844
 6543TIP3   OH241187   4.941   4.682   1.191
 6543TIP3    H141188   4.943   4.775   1.170
 6543TIP3    H241189   4.945   4.638   1.107
 6544TIP3   OH241190   4.079   6.583   1.368
 6544TIP3    H141191   4.113   6.514   1.310
 6544TIP3    H241192   3.985   6.567   1.370
 6545TIP3   OH241193   1.038   6.658   1.559
 6545TIP3    H141194   0.961   6.690   1.605
 6545TIP3    H241195   1.030   6.563   1.563
 6546TIP3   OH241196   3.293   1.366   0.932
 6546TIP3    H141197   3.226   1.302   0.957
 6546TIP3    H241198   3.329   1.397   1.016
 6547TIP3   OH241199   0.254   2.891   2.195
 6547TIP3    H141200   0.270   2.796   2.192
 6547TIP3    H241201   0.341   2.930   2.187
 6548TIP3   OH241202   3.889   4.583   1.861
 6548TIP3    H141203   3.980   4.552   1.860
 6548TIP3    H241204   3.881   4.632   1.943
 6549TIP3   OH241205   2.375   1.885   7.371
 6549TIP3    H141206   2.416   1.970   7.390
 6549TIP3    H241207   2.283   1.897   7.396
 6550TIP3   OH241208   3.787   6.361   6.858
 6550TIP3    H141209   3.778   6.446   6.901
 6550TIP3    H241210   3.712   6.310   6.889
 6551TIP3   OH241211   6.493   4.612   7.136
 6551TIP3    H141212   6.408   4.649   7.111
 6551TIP3    H241213   6.538   4.599   7.052
 6552TIP3   OH241214   5.018   0.037   0.017
 6552TIP3    H141215   5.108   0.020   0.044
 6552TIP3    H241216   5.007   6.814   8.716
 6553TIP3   OH241217   4.066   1.070   2.704
 6553TIP3    H141218   3.982   1.093   2.664
 6553TIP3    H241219   4.056   1.094   2.796
 6554TIP3   OH241220   0.104   4.342   8.280
 6554TIP3    H141221   0.085   4.267   8.224
 6554TIP3    H241222   0.198   4.335   8.298
 6555TIP3   OH241223   2.801   2.852   6.651
 6555TIP3    H141224   2.711   2.884   6.645
 6555TIP3    H241225   2.809   2.790   6.578
 6556TIP3   OH241226   0.832   1.257   8.334
 6556TIP3    H141227   0.882   1.204   8.272
 6556TIP3    H241228   0.891   1.329   8.357
 6557TIP3   OH241229   1.995   5.834   7.167
 6557TIP3    H141230   2.024   5.914   7.124
 6557TIP3    H241231   2.061   5.768   7.144
 6558TIP3   OH241232   2.928   0.337   1.179
 6558TIP3    H141233   3.004   0.292   1.216
 6558TIP3    H241234   2.964   0.392   1.109
 6559TIP3   OH241235   3.286   5.890   8.724
 6559TIP3    H141236   3.231   5.873   8.648
 6559TIP3    H241237   3.278   5.984   8.739
 6560TIP3   OH241238   6.494   6.689   7.588
 6560TIP3    H141239   6.465   6.651   7.671
 6560TIP3    H241240   6.450   6.774   7.585
 6561TIP3   OH241241   2.290   0.725   1.242
 6561TIP3    H141242   2.325   0.789   1.303
 6561TIP3    H241243   2.285   0.771   1.158
 6562TIP3   OH241244   0.623   4.718   0.091
 6562TIP3    H141245   0.644   4.755   0.004
 6562TIP3    H241246   0.587   4.632   0.072
 6563TIP3   OH241247   5.559   1.328   7.265
 6563TIP3    H141248   5.526   1.400   7.212
 6563TIP3    H241249   5.654   1.327   7.248
 6564TIP3   OH241250   3.601   4.171   8.230
 6564TIP3    H141251   3.659   4.233   8.187
 6564TIP3    H241252   3.615   4.088   8.183
 6565TIP3   OH241253   3.249   2.044   0.105
 6565TIP3    H141254   3.284   1.975   0.049
 6565TIP3    H241255   3.229   2.000   0.187
 6566TIP3   OH241256   4.575   6.270   2.032
 6566TIP3    H141257   4.527   6.344   2.068
 6566TIP3    H241258   4.594   6.215   2.109
 6567TIP3   OH241259   1.706   5.271   1.378
 6567TIP3    H141260   1.637   5.241   1.437
 6567TIP3    H241261   1.709   5.205   1.309
 6568TIP3   OH241262   2.185   2.227   8.346
 6568TIP3    H141263   2.232   2.180   8.416
 6568TIP3    H241264   2.238   2.212   8.268
 6569TIP3   OH241265   4.520   3.207   0.053
 6569TIP3    H141266   4.587   3.265   0.091
 6569TIP3    H241267   4.438   3.238   0.092
 6570TIP3   OH241268   6.391   2.005   8.542
 6570TIP3    H141269   6.433   1.944   8.603
 6570TIP3    H241270   6.370   1.951   8.465
 6571TIP3   OH241271   2.775   3.924   6.315
 6571TIP3    H141272   2.737   3.887   6.394
 6571TIP3    H241273   2.732   4.009   6.305
 6572TIP3   OH241274   1.597   0.744   0.890
 6572TIP3    H141275   1.641   0.768   0.809
 6572TIP3    H241276   1.630   0.805   0.955
 6573TIP3   OH241277   5.440   3.767   6.833
 6573TIP3    H141278   5.472   3.807   6.752
 6573TIP3    H241279   5.369   3.824   6.861
 6574TIP3   OH241280   3.304   6.124   1.095
 6574TIP3    H141281   3.385   6.095   1.054
 6574TIP3    H241282   3.247   6.047   1.092
 6575TIP3   OH241283   2.727   3.849   1.968
 6575TIP3    H141284   2.777   3.803   2.035
 6575TIP3    H241285   2.668   3.908   2.016
 6576TIP3   OH241286   2.182   5.866   6.835
 6576TIP3    H141287   2.266   5.824   6.819
 6576TIP3    H241288   2.156   5.835   6.922
 6577TIP3   OH241289   1.158   1.354   7.443
 6577TIP3    H141290   1.135   1.406   7.366
 6577TIP3    H241291   1.242   1.389   7.472
 6578TIP3   OH241292   0.356   4.161   1.186
 6578TIP3    H141293   0.451   4.156   1.176
 6578TIP3    H241294   0.329   4.218   1.114
 6579TIP3   OH241295   0.800   3.343   2.308
 6579TIP3    H141296   0.819   3.289   2.385
 6579TIP3    H241297   0.706   3.329   2.292
 6580TIP3   OH241298   4.673   2.287   6.379
 6580TIP3    H141299   4.755   2.301   6.426
 6580TIP3    H241300   4.616   2.358   6.409
 6581TIP3   OH241301   3.786   6.280   7.553
 6581TIP3    H141302   3.856   6.233   7.508
 6581TIP3    H241303   3.721   6.213   7.573
 6582TIP3   OH241304   1.068   1.824   8.041
 6582TIP3    H141305   1.139   1.871   8.085
 6582TIP3    H241306   1.089   1.831   7.948
 6583TIP3   OH241307   0.962   5.648   6.991
 6583TIP3    H141308   0.949   5.634   6.897
 6583TIP3    H241309   0.874   5.660   7.026
 6584TIP3   OH241310   1.455   5.371   8.682
 6584TIP3    H141311   1.361   5.367   8.665
 6584TIP3    H241312   1.482   5.279   8.689
 6585TIP3   OH241313   5.335   3.359   0.331
 6585TIP3    H141314   5.245   3.360   0.364
 6585TIP3    H241315   5.329   3.398   0.244
 6586TIP3   OH241316   2.016   2.255   1.477
 6586TIP3    H141317   2.064   2.331   1.512
 6586TIP3    H241318   2.058   2.180   1.518
 6587TIP3   OH241319   3.343   6.386   0.710
 6587TIP3    H141320   3.363   6.441   0.635
 6587TIP3    H241321   3.382   6.301   0.688
 6588TIP3   OH241322   4.783   2.832   1.794
 6588TIP3    H141323   4.812   2.921   1.772
 6588TIP3    H241324   4.696   2.844   1.831
 6589TIP3   OH241325   6.090   6.119   0.721
 6589TIP3    H141326   6.066   6.088   0.633
 6589TIP3    H241327   6.159   6.060   0.750
 6590TIP3   OH241328   3.022   3.563   6.694
 6590TIP3    H141329   3.024   3.546   6.600
 6590TIP3    H241330   3.015   3.477   6.734
 6591TIP3   OH241331   5.430   3.024   7.832
 6591TIP3    H141332   5.343   3.055   7.807
 6591TIP3    H241333   5.464   3.092   7.891
 6592TIP3   OH241334   1.433   4.848   1.090
 6592TIP3    H141335   1.458   4.778   1.030
 6592TIP3    H241336   1.445   4.811   1.177
 6593TIP3   OH241337   0.840   0.913   8.283
 6593TIP3    H141338   0.827   0.919   8.378
 6593TIP3    H241339   0.908   0.978   8.263
 6594TIP3   OH241340   2.076   2.972   0.365
 6594TIP3    H141341   2.114   2.957   0.451
 6594TIP3    H241342   2.132   2.924   0.304
 6595TIP3   OH241343   3.321   1.169   6.537
 6595TIP3    H141344   3.264   1.219   6.595
 6595TIP3    H241345   3.398   1.149   6.591
 6596TIP3   OH241346   1.003   1.239   7.656
 6596TIP3    H141347   0.944   1.181   7.607
 6596TIP3    H241348   1.066   1.269   7.591
 6597TIP3   OH241349   5.861   5.182   6.351
 6597TIP3    H141350   5.880   5.226   6.268
 6597TIP3    H241351   5.766   5.170   6.350
 6598TIP3   OH241352   2.971   6.651   0.748
 6598TIP3    H141353   3.016   6.575   0.785
 6598TIP3    H241354   2.879   6.639   0.772
 6599TIP3   OH241355   4.621   2.703   8.107
 6599TIP3    H141356   4.679   2.682   8.034
 6599TIP3    H241357   4.541   2.735   8.065
 6600TIP3   OH241358   4.962   4.785   8.318
 6600TIP3    H141359   4.952   4.874   8.352
 6600TIP3    H241360   5.041   4.752   8.360
 6601TIP3   OH241361   0.801   6.198   1.280
 6601TIP3    H141362   0.738   6.129   1.257
 6601TIP3    H241363   0.881   6.174   1.234
 6602TIP3   OH241364   1.887   2.024   8.555
 6602TIP3    H141365   1.792   2.014   8.559
 6602TIP3    H241366   1.908   2.092   8.619
 6603TIP3   OH241367   0.386   6.123   8.608
 6603TIP3    H141368   0.457   6.064   8.582
 6603TIP3    H241369   0.408   6.148   8.698
 6604TIP3   OH241370   2.319   1.411   8.342
 6604TIP3    H141371   2.238   1.415   8.392
 6604TIP3    H241372   2.316   1.487   8.284
 6605TIP3   OH241373   1.054   0.747   0.750
 6605TIP3    H141374   1.146   0.727   0.739
 6605TIP3    H241375   1.052   0.840   0.774
 6606TIP3   OH241376   5.419   5.552   8.676
 6606TIP3    H141377   5.353   5.561   8.608
 6606TIP3    H241378   5.502   5.569   8.632
 6607TIP3   OH241379   1.049   0.812   2.135
 6607TIP3    H141380   1.119   0.846   2.078
 6607TIP3    H241381   1.063   0.857   2.219
 6608TIP3   OH241382   1.992   4.316   6.784
 6608TIP3    H141383   2.001   4.258   6.859
 6608TIP3    H241384   2.004   4.404   6.820
 6609TIP3   OH241385   3.575   5.436   7.409
 6609TIP3    H141386   3.543   5.416   7.496
 6609TIP3    H241387   3.669   5.419   7.414
 6610TIP3   OH241388   0.665   0.310   6.648
 6610TIP3    H141389   0.601   0.377   6.623
 6610TIP3    H241390   0.612   0.241   6.688
 6611TIP3   OH241391   1.841   2.139   7.623
 6611TIP3    H141392   1.895   2.203   7.670
 6611TIP3    H241393   1.816   2.183   7.542
 6612TIP3   OH241394   3.242   2.397   1.907
 6612TIP3    H141395   3.229   2.347   1.988
 6612TIP3    H241396   3.265   2.485   1.937
 6613TIP3   OH241397   3.168   6.160   8.641
 6613TIP3    H141398   3.131   6.123   8.561
 6613TIP3    H241399   3.241   6.215   8.611
 6614TIP3   OH241400   6.710   2.699   1.429
 6614TIP3    H141401   6.771   2.751   1.481
 6614TIP3    H241402   6.738   2.712   1.339
 6615TIP3   OH241403   0.356   6.129   0.447
 6615TIP3    H141404   0.289   6.197   0.456
 6615TIP3    H241405   0.432   6.164   0.494
 6616TIP3   OH241406   5.048   5.915   0.672
 6616TIP3    H141407   5.095   5.930   0.754
 6616TIP3    H241408   5.116   5.889   0.610
 6617TIP3   OH241409   0.149   0.814   0.704
 6617TIP3    H141410   0.209   0.756   0.751
 6617TIP3    H241411   0.086   0.755   0.662
 6618TIP3   OH241412   1.643   3.596   6.848
 6618TIP3    H141413   1.723   3.632   6.887
 6618TIP3    H241414   1.670   3.510   6.816
 6619TIP3   OH241415   2.697   4.634   7.322
 6619TIP3    H141416   2.689   4.725   7.291
 6619TIP3    H241417   2.787   4.626   7.351
 6620TIP3   OH241418   1.090   6.028   1.321
 6620TIP3    H141419   1.075   6.051   1.412
 6620TIP3    H241420   1.181   6.052   1.305
 6621TIP3   OH241421   1.618   6.023   7.048
 6621TIP3    H141422   1.625   5.941   7.097
 6621TIP3    H241423   1.656   6.003   6.963
 6622TIP3   OH241424   6.557   6.506   1.976
 6622TIP3    H141425   6.630   6.467   2.023
 6622TIP3    H241426   6.504   6.432   1.947
 6623TIP3   OH241427   2.446   4.644   7.453
 6623TIP3    H141428   2.444   4.740   7.455
 6623TIP3    H241429   2.523   4.623   7.400
 6624TIP3   OH241430   3.939   4.039   7.766
 6624TIP3    H141431   3.854   4.078   7.786
 6624TIP3    H241432   3.962   3.989   7.844
 6625TIP3   OH241433   4.828   2.341   7.137
 6625TIP3    H141434   4.896   2.403   7.110
 6625TIP3    H241435   4.813   2.287   7.060
 6626TIP3   OH241436   2.786   2.896   2.486
 6626TIP3    H141437   2.747   2.918   2.401
 6626TIP3    H241438   2.843   2.822   2.468
 6627TIP3   OH241439   2.334   3.320   6.800
 6627TIP3    H141440   2.244   3.289   6.814
 6627TIP3    H241441   2.329   3.415   6.808
 6628TIP3   OH241442   3.860   6.348   1.181
 6628TIP3    H141443   3.817   6.370   1.098
 6628TIP3    H241444   3.886   6.256   1.171
 6629TIP3   OH241445   2.139   3.889   8.619
 6629TIP3    H141446   2.152   3.969   8.670
 6629TIP3    H241447   2.224   3.872   8.579
 6630TIP3   OH241448   3.629   5.787   2.078
 6630TIP3    H141449   3.598   5.701   2.051
 6630TIP3    H241450   3.554   5.826   2.123
 6631TIP3   OH241451   1.376   2.032   0.197
 6631TIP3    H141452   1.387   2.116   0.241
 6631TIP3    H241453   1.465   1.997   0.192
 6632TIP3   OH241454   0.977   6.324   1.877
 6632TIP3    H141455   0.966   6.321   1.782
 6632TIP3    H241456   0.895   6.290   1.911
 6633TIP3   OH241457   4.433   5.453   6.406
 6633TIP3    H141458   4.356   5.458   6.462
 6633TIP3    H241459   4.399   5.455   6.317
 6634TIP3   OH241460   0.690   3.122   1.312
 6634TIP3    H141461   0.777   3.154   1.290
 6634TIP3    H241462   0.699   3.027   1.312
 6635TIP3   OH241463   3.728   3.915   0.191
 6635TIP3    H141464   3.721   3.959   0.106
 6635TIP3    H241465   3.687   3.976   0.252
 6636TIP3   OH241466   2.070   5.465   0.593
 6636TIP3    H141467   2.017   5.519   0.652
 6636TIP3    H241468   2.066   5.377   0.630
 6637TIP3   OH241469   5.148   5.096   0.349
 6637TIP3    H141470   5.103   5.075   0.267
 6637TIP3    H241471   5.103   5.174   0.381
 6638TIP3   OH241472   4.028   5.343   1.826
 6638TIP3    H141473   3.977   5.400   1.885
 6638TIP3    H241474   4.067   5.278   1.884
 6639TIP3   OH241475   5.267   6.059   7.649
 6639TIP3    H141476   5.236   5.980   7.693
 6639TIP3    H241477   5.232   6.053   7.560
 6640TIP3   OH241478   6.704   6.042   7.241
 6640TIP3    H141479   6.796   6.035   7.268
 6640TIP3    H241480   6.671   5.952   7.247
 6641TIP3   OH241481   0.358   6.722   7.761
 6641TIP3    H141482   0.434   6.757   7.806
 6641TIP3    H241483   0.285   6.775   7.793
 6642TIP3   OH241484   6.626   1.823   1.994
 6642TIP3    H141485   6.661   1.743   2.032
 6642TIP3    H241486   6.552   1.795   1.941
 6643TIP3   OH241487   0.083   2.320   1.369
 6643TIP3    H141488   0.019   2.277   1.313
 6643TIP3    H241489   0.076   2.274   1.453
 6644TIP3   OH241490   4.807   2.959   1.316
 6644TIP3    H141491   4.820   3.052   1.297
 6644TIP3    H241492   4.849   2.946   1.401
 6645TIP3   OH241493   4.219   4.228   2.867
 6645TIP3    H141494   4.259   4.298   2.815
 6645TIP3    H241495   4.276   4.153   2.853
 6646TIP3   OH241496   0.895   0.946   7.042
 6646TIP3    H141497   0.866   0.911   6.958
 6646TIP3    H241498   0.842   1.025   7.054
 6647TIP3   OH241499   3.198   1.998   1.433
 6647TIP3    H141500   3.195   1.988   1.528
 6647TIP3    H241501   3.106   1.996   1.406
 6648TIP3   OH241502   2.902   2.066   8.698
 6648TIP3    H141503   2.921   1.982   8.741
 6648TIP3    H241504   2.933   2.053   8.608
 6649TIP3   OH241505   1.076   0.168   7.119
 6649TIP3    H141506   1.003   0.156   7.059
 6649TIP3    H241507   1.120   0.248   7.090
 6650TIP3   OH241508   1.269   5.922   0.260
 6650TIP3    H141509   1.201   5.862   0.230
 6650TIP3    H241510   1.251   5.934   0.353
 6651TIP3   OH241511   1.899   2.767   8.291
 6651TIP3    H141512   1.969   2.724   8.243
 6651TIP3    H241513   1.918   2.860   8.284
 6652TIP3   OH241514   6.483   3.287   0.038
 6652TIP3    H141515   6.485   3.195   0.063
 6652TIP3    H241516   6.403   3.321   0.078
 6653TIP3   OH241517   3.083   6.533   7.853
 6653TIP3    H141518   3.002   6.584   7.858
 6653TIP3    H241519   3.056   6.444   7.875
 6654TIP3   OH241520   3.234   3.940   0.354
 6654TIP3    H141521   3.185   4.021   0.338
 6654TIP3    H241522   3.303   3.940   0.288
 6655TIP3   OH241523   6.218   1.534   8.142
 6655TIP3    H141524   6.300   1.489   8.117
 6655TIP3    H241525   6.212   1.522   8.237
 6656TIP3   OH241526   2.966   0.896   8.613
 6656TIP3    H141527   2.895   0.959   8.600
 6656TIP3    H241528   2.934   0.816   8.571
 6657TIP3   OH241529   4.834   6.590   0.253
 6657TIP3    H141530   4.918   6.635   0.246
 6657TIP3    H241531   4.795   6.599   0.166
 6658TIP3   OH241532   3.413   3.229   6.982
 6658TIP3    H141533   3.318   3.236   6.976
 6658TIP3    H241534   3.433   3.241   7.075
 6659TIP3   OH241535   2.002   0.132   0.184
 6659TIP3    H141536   1.916   0.157   0.217
 6659TIP3    H241537   2.043   0.214   0.157
 6660TIP3   OH241538   3.121   0.343   7.285
 6660TIP3    H141539   3.026   0.335   7.273
 6660TIP3    H241540   3.152   0.253   7.289
 6661TIP3   OH241541   3.459   6.380   7.946
 6661TIP3    H141542   3.410   6.372   7.864
 6661TIP3    H241543   3.404   6.435   8.002
 6662TIP3   OH241544   6.749   6.664   7.767
 6662TIP3    H141545   6.706   6.670   7.682
 6662TIP3    H241546   6.769   6.571   7.778
 6663TIP3   OH241547   4.215   2.844   2.232
 6663TIP3    H141548   4.178   2.929   2.211
 6663TIP3    H241549   4.268   2.860   2.311
 6664TIP3   OH241550   2.041   6.657   8.350
 6664TIP3    H141551   2.099   6.637   8.424
 6664TIP3    H241552   1.985   6.580   8.342
 6665TIP3   OH241553   1.638   3.765   7.770
 6665TIP3    H141554   1.598   3.721   7.695
 6665TIP3    H241555   1.630   3.858   7.750
 6666TIP3   OH241556   5.015   4.032   7.677
 6666TIP3    H141557   5.056   4.118   7.690
 6666TIP3    H241558   5.008   4.024   7.582
 6667TIP3   OH241559   4.246   3.176   6.896
 6667TIP3    H141560   4.212   3.101   6.848
 6667TIP3    H241561   4.213   3.252   6.848
 6668TIP3   OH241562   5.080   4.198   0.523
 6668TIP3    H141563   5.124   4.191   0.438
 6668TIP3    H241564   5.145   4.235   0.582
 6669TIP3   OH241565   5.026   3.295   2.065
 6669TIP3    H141566   4.940   3.321   2.030
 6669TIP3    H241567   5.038   3.205   2.034
 6670TIP3   OH241568   1.289   5.374   1.564
 6670TIP3    H141569   1.317   5.378   1.655
 6670TIP3    H241570   1.227   5.446   1.555
 6671TIP3   OH241571   4.806   2.441   0.215
 6671TIP3    H141572   4.729   2.488   0.247
 6671TIP3    H241573   4.880   2.498   0.238
 6672TIP3   OH241574   4.737   3.039   2.215
 6672TIP3    H141575   4.820   3.003   2.183
 6672TIP3    H241576   4.744   3.133   2.202
 6673TIP3   OH241577   4.820   4.317   0.476
 6673TIP3    H141578   4.865   4.393   0.439
 6673TIP3    H241579   4.891   4.262   0.510
 6674TIP3   OH241580   4.258   5.549   8.011
 6674TIP3    H141581   4.301   5.466   8.029
 6674TIP3    H241582   4.272   5.564   7.918
 6675TIP3   OH241583   0.510   5.889   1.673
 6675TIP3    H141584   0.563   5.865   1.749
 6675TIP3    H241585   0.551   5.969   1.639
 6676TIP3   OH241586   5.242   0.718   0.208
 6676TIP3    H141587   5.158   0.735   0.251
 6676TIP3    H241588   5.252   0.623   0.210
 6677TIP3   OH241589   1.187   3.359   6.182
 6677TIP3    H141590   1.247   3.426   6.215
 6677TIP3    H241591   1.229   3.276   6.207
 6678TIP3   OH241592   4.286   4.266   7.643
 6678TIP3    H141593   4.298   4.313   7.725
 6678TIP3    H241594   4.336   4.185   7.654
 6679TIP3   OH241595   3.228   2.997   1.521
 6679TIP3    H141596   3.250   2.911   1.486
 6679TIP3    H241597   3.191   3.044   1.446
 6680TIP3   OH241598   0.598   3.671   0.382
 6680TIP3    H141599   0.641   3.589   0.408
 6680TIP3    H241600   0.508   3.645   0.362
 6681TIP3   OH241601   6.040   5.421   1.264
 6681TIP3    H141602   6.099   5.463   1.326
 6681TIP3    H241603   6.085   5.427   1.180
 6682TIP3   OH241604   3.427   4.924   6.309
 6682TIP3    H141605   3.511   4.896   6.274
 6682TIP3    H241606   3.362   4.874   6.259
 6683TIP3   OH241607   3.766   5.826   0.081
 6683TIP3    H141608   3.742   5.794   0.168
 6683TIP3    H241609   3.780   5.920   0.092
 6684TIP3   OH241610   2.567   3.784   7.625
 6684TIP3    H141611   2.536   3.711   7.572
 6684TIP3    H241612   2.615   3.840   7.564
 6685TIP3   OH241613   0.943   3.429   8.656
 6685TIP3    H141614   0.936   3.414   8.750
 6685TIP3    H241615   1.023   3.480   8.646
 6686TIP3   OH241616   4.409   1.930   1.699
 6686TIP3    H141617   4.347   1.920   1.627
 6686TIP3    H241618   4.480   1.869   1.677
 6687TIP3   OH241619   5.538   1.643   7.285
 6687TIP3    H141620   5.511   1.732   7.305
 6687TIP3    H241621   5.619   1.630   7.336
 6688TIP3   OH241622   0.537   3.672   1.636
 6688TIP3    H141623   0.520   3.763   1.613
 6688TIP3    H241624   0.631   3.669   1.655
 6689TIP3   OH241625   1.344   6.374   0.436
 6689TIP3    H141626   1.393   6.427   0.499
 6689TIP3    H241627   1.351   6.421   0.353
 6690TIP3   OH241628   1.363   5.391   0.406
 6690TIP3    H141629   1.320   5.433   0.481
 6690TIP3    H241630   1.437   5.344   0.445
 6691TIP3   OH241631   0.448   6.459   0.449
 6691TIP3    H141632   0.361   6.423   0.462
 6691TIP3    H241633   0.507   6.389   0.477
 6692TIP3   OH241634   0.918   1.996   8.667
 6692TIP3    H141635   0.912   2.006   8.572
 6692TIP3    H241636   1.011   2.008   8.687
 6693TIP3   OH241637   0.622   5.157   7.554
 6693TIP3    H141638   0.557   5.223   7.532
 6693TIP3    H241639   0.616   5.092   7.484
 6694TIP3   OH241640   6.645   5.904   1.406
 6694TIP3    H141641   6.731   5.913   1.364
 6694TIP3    H241642   6.665   5.867   1.492
 6695TIP3   OH241643   2.823   2.426   8.359
 6695TIP3    H141644   2.775   2.384   8.430
 6695TIP3    H241645   2.915   2.410   8.379
 6696TIP3   OH241646   0.216   2.441   8.696
 6696TIP3    H141647   0.125   2.446   8.725
 6696TIP3    H241648   0.232   2.348   8.681
 6697TIP3   OH241649   4.324   0.513   0.790
 6697TIP3    H141650   4.258   0.444   0.782
 6697TIP3    H241651   4.310   0.570   0.715
 6698TIP3   OH241652   0.120   5.724   6.927
 6698TIP3    H141653   0.026   5.709   6.919
 6698TIP3    H241654   0.131   5.818   6.911
 6699TIP3   OH241655   6.505   1.715   8.127
 6699TIP3    H141656   6.514   1.620   8.130
 6699TIP3    H241657   6.594   1.747   8.110
 6700TIP3   OH241658   3.226   2.942   6.875
 6700TIP3    H141659   3.206   3.017   6.820
 6700TIP3    H241660   3.165   2.949   6.949
 6701TIP3   OH241661   0.335   5.648   1.660
 6701TIP3    H141662   0.329   5.593   1.738
 6701TIP3    H241663   0.414   5.700   1.673
 6702TIP3   OH241664   0.718   4.463   8.107
 6702TIP3    H141665   0.793   4.425   8.061
 6702TIP3    H241666   0.642   4.418   8.070
 6703TIP3   OH241667   6.802   0.304   2.516
 6703TIP3    H141668   6.762   0.297   2.602
 6703TIP3    H241669   6.764   0.383   2.478
 6704TIP3   OH241670   4.864   3.125   7.898
 6704TIP3    H141671   4.858   3.096   7.989
 6704TIP3    H241672   4.855   3.220   7.902
 6705TIP3   OH241673   4.517   6.396   7.775
 6705TIP3    H141674   4.608   6.406   7.803
 6705TIP3    H241675   4.466   6.432   7.848
 6706TIP3   OH241676   3.799   2.454   0.803
 6706TIP3    H141677   3.808   2.482   0.894
 6706TIP3    H241678   3.773   2.362   0.809
 6707TIP3   OH241679   6.641   0.014   1.634
 6707TIP3    H141680   6.713   0.038   1.576
 6707TIP3    H241681   6.605   0.097   1.663
 6708TIP3   OH241682   2.831   5.807   6.762
 6708TIP3    H141683   2.835   5.902   6.756
 6708TIP3    H241684   2.796   5.779   6.677
 6709TIP3   OH241685   4.206   2.886   7.295
 6709TIP3    H141686   4.195   2.927   7.381
 6709TIP3    H241687   4.233   2.959   7.238
 6710TIP3   OH241688   1.630   2.558   8.241
 6710TIP3    H141689   1.606   2.650   8.241
 6710TIP3    H241690   1.725   2.557   8.247
 6711TIP3   OH241691   0.794   2.660   0.837
 6711TIP3    H141692   0.790   2.731   0.901
 6711TIP3    H241693   0.835   2.588   0.884
 6712TIP3   OH241694   2.041   2.516   0.896
 6712TIP3    H141695   2.092   2.543   0.819
 6712TIP3    H241696   1.958   2.563   0.887
 6713TIP3   OH241697   2.635   5.717   0.918
 6713TIP3    H141698   2.642   5.803   0.876
 6713TIP3    H241699   2.635   5.655   0.845
 6714TIP3   OH241700   6.464   0.772   1.181
 6714TIP3    H141701   6.473   0.724   1.264
 6714TIP3    H241702   6.475   0.864   1.206
 6715TIP3   OH241703   0.288   0.110   0.601
 6715TIP3    H141704   0.365   0.070   0.560
 6715TIP3    H241705   0.250   0.040   0.654
 6716TIP3   OH241706   3.848   5.488   8.409
 6716TIP3    H141707   3.862   5.547   8.483
 6716TIP3    H241708   3.846   5.401   8.448
 6717TIP3   OH241709   0.878   6.310   2.271
 6717TIP3    H141710   0.943   6.379   2.281
 6717TIP3    H241711   0.913   6.236   2.321
 6718TIP3   OH241712   6.546   2.979   7.164
 6718TIP3    H141713   6.623   3.036   7.166
 6718TIP3    H241714   6.543   2.946   7.075
 6719TIP3   OH241715   2.630   6.131   2.472
 6719TIP3    H141716   2.689   6.186   2.421
 6719TIP3    H241717   2.660   6.042   2.458
 6720TIP3   OH241718   2.349   5.333   7.945
 6720TIP3    H141719   2.285   5.375   8.003
 6720TIP3    H241720   2.299   5.264   7.901
 6721TIP3   OH241721   2.561   5.166   0.279
 6721TIP3    H141722   2.487   5.218   0.247
 6721TIP3    H241723   2.597   5.126   0.200
 6722TIP3   OH241724   4.948   3.833   0.510
 6722TIP3    H141725   4.932   3.900   0.577
 6722TIP3    H241726   5.042   3.816   0.515
 6723TIP3   OH241727   2.586   2.341   7.608
 6723TIP3    H141728   2.648   2.367   7.676
 6723TIP3    H241729   2.598   2.246   7.598
 6724TIP3   OH241730   2.534   6.261   1.547
 6724TIP3    H141731   2.574   6.244   1.462
 6724TIP3    H241732   2.502   6.351   1.541
 6725TIP3   OH241733   0.412   2.580   6.416
 6725TIP3    H141734   0.423   2.651   6.354
 6725TIP3    H241735   0.382   2.622   6.497
 6726TIP3   OH241736   5.466   1.631   0.894
 6726TIP3    H141737   5.377   1.620   0.928
 6726TIP3    H241738   5.523   1.613   0.969
 6727TIP3   OH241739   1.810   4.457   8.642
 6727TIP3    H141740   1.829   4.366   8.665
 6727TIP3    H241741   1.729   4.477   8.689
 6728TIP3   OH241742   6.613   3.689   8.406
 6728TIP3    H141743   6.546   3.756   8.422
 6728TIP3    H241744   6.696   3.736   8.417
 6729TIP3   OH241745   4.155   1.416   8.268
 6729TIP3    H141746   4.164   1.444   8.359
 6729TIP3    H241747   4.227   1.353   8.255
 6730TIP3   OH241748   6.613   4.079   1.710
 6730TIP3    H141749   6.607   4.015   1.781
 6730TIP3    H241750   6.533   4.067   1.660
 6731TIP3   OH241751   3.715   4.552   7.531
 6731TIP3    H141752   3.622   4.557   7.553
 6731TIP3    H241753   3.718   4.512   7.445
 6732TIP3   OH241754   0.118   3.408   2.331
 6732TIP3    H141755   0.187   3.344   2.313
 6732TIP3    H241756   0.051   3.359   2.379
 6733TIP3   OH241757   0.328   6.386   1.525
 6733TIP3    H141758   0.407   6.408   1.477
 6733TIP3    H241759   0.356   6.381   1.617
 6734TIP3   OH241760   4.905   4.259   1.415
 6734TIP3    H141761   4.977   4.197   1.405
 6734TIP3    H241762   4.902   4.278   1.509
 6735TIP3   OH241763   0.011   3.113   7.719
 6735TIP3    H141764   0.105   3.103   7.738
 6735TIP3    H241765   6.792   3.063   7.788
 6736TIP3   OH241766   0.059   2.765   0.095
 6736TIP3    H141767   0.045   2.855   0.122
 6736TIP3    H241768   0.139   2.767   0.043
 6737TIP3   OH241769   3.232   6.807   6.509
 6737TIP3    H141770   3.313   0.031   6.519
 6737TIP3    H241771   3.171   0.023   6.571
 6738TIP3   OH241772   1.669   4.672   6.604
 6738TIP3    H141773   1.684   4.765   6.618
 6738TIP3    H241774   1.649   4.665   6.511
 6739TIP3   OH241775   1.744   1.086   7.036
 6739TIP3    H141776   1.723   1.044   7.120
 6739TIP3    H241777   1.708   1.175   7.045
 6740TIP3   OH241778   1.819   4.964   7.292
 6740TIP3    H141779   1.756   4.897   7.317
 6740TIP3    H241780   1.888   4.917   7.245
 6741TIP3   OH241781   4.897   1.408   8.175
 6741TIP3    H141782   4.945   1.484   8.141
 6741TIP3    H241783   4.805   1.430   8.161
 6742TIP3   OH241784   6.016   6.675   0.985
 6742TIP3    H141785   6.089   6.684   0.923
 6742TIP3    H241786   6.030   6.589   1.026
 6743TIP3   OH241787   4.339   0.302   7.705
 6743TIP3    H141788   4.403   0.232   7.719
 6743TIP3    H241789   4.288   0.304   7.786
 6744TIP3   OH241790   3.312   6.479   2.633
 6744TIP3    H141791   3.378   6.546   2.651
 6744TIP3    H241792   3.355   6.420   2.570
 6745TIP3   OH241793   3.480   0.654   8.338
 6745TIP3    H141794   3.474   0.676   8.431
 6745TIP3    H241795   3.571   0.630   8.325
 6746TIP3   OH241796   2.974   0.165   8.456
 6746TIP3    H141797   2.984   0.071   8.473
 6746TIP3    H241798   3.052   0.189   8.406
 6747TIP3   OH241799   2.162   4.644   7.488
 6747TIP3    H141800   2.120   4.576   7.541
 6747TIP3    H241801   2.249   4.609   7.468
 6748TIP3   OH241802   4.820   2.391   7.421
 6748TIP3    H141803   4.807   2.398   7.326
 6748TIP3    H241804   4.735   2.412   7.458
 6749TIP3   OH241805   1.533   5.381   7.939
 6749TIP3    H141806   1.520   5.441   8.012
 6749TIP3    H241807   1.446   5.369   7.902
 6750TIP3   OH241808   4.476   0.633   2.421
 6750TIP3    H141809   4.572   0.644   2.424
 6750TIP3    H241810   4.449   0.674   2.339
 6751TIP3   OH241811   2.954   3.282   0.176
 6751TIP3    H141812   3.023   3.343   0.204
 6751TIP3    H241813   2.887   3.338   0.136
 6752TIP3   OH241814   2.485   3.063   0.922
 6752TIP3    H141815   2.414   3.115   0.960
 6752TIP3    H241816   2.443   2.981   0.896
 6753TIP3   OH241817   0.622   6.358   7.747
 6753TIP3    H141818   0.618   6.450   7.772
 6753TIP3    H241819   0.715   6.336   7.752
 6754TIP3   OH241820   5.040   3.486   8.581
 6754TIP3    H141821   5.041   3.394   8.608
 6754TIP3    H241822   4.952   3.516   8.602
 6755TIP3   OH241823   1.299   5.512   0.666
 6755TIP3    H141824   1.279   5.491   0.757
 6755TIP3    H241825   1.323   5.605   0.667
 6756TIP3   OH241826   1.895   5.868   0.961
 6756TIP3    H141827   1.890   5.885   0.867
 6756TIP3    H241828   1.974   5.815   0.972
 6757TIP3   OH241829   5.526   1.002   0.324
 6757TIP3    H141830   5.600   1.016   0.382
 6757TIP3    H241831   5.462   0.954   0.378
 6758TIP3   OH241832   4.269   5.686   1.104
 6758TIP3    H141833   4.241   5.641   1.025
 6758TIP3    H241834   4.198   5.672   1.167
 6759TIP3   OH241835   4.813   3.865   0.092
 6759TIP3    H141836   4.903   3.886   0.113
 6759TIP3    H241837   4.784   3.937   0.035
 6760TIP3   OH241838   2.910   6.465   2.136
 6760TIP3    H141839   2.896   6.559   2.126
 6760TIP3    H241840   2.874   6.428   2.055
 6761TIP3   OH241841   4.072   5.593   1.585
 6761TIP3    H141842   4.019   5.635   1.653
 6761TIP3    H241843   4.081   5.660   1.517
 6762TIP3   OH241844   2.444   0.288   2.275
 6762TIP3    H141845   2.400   0.299   2.191
 6762TIP3    H241846   2.436   0.194   2.294
 6763TIP3   OH241847   4.726   6.593   2.378
 6763TIP3    H141848   4.660   6.652   2.342
 6763TIP3    H241849   4.809   6.636   2.361
 6764TIP3   OH241850   1.655   2.448   0.459
 6764TIP3    H141851   1.689   2.388   0.393
 6764TIP3    H241852   1.639   2.530   0.411
 6765TIP3   OH241853   4.778   5.789   0.161
 6765TIP3    H141854   4.870   5.763   0.171
 6765TIP3    H241855   4.774   5.878   0.197
 6766TIP3   OH241856   3.934   0.195   1.424
 6766TIP3    H141857   3.914   0.145   1.345
 6766TIP3    H241858   3.995   0.140   1.473
 6767TIP3   OH241859   5.104   1.135   6.433
 6767TIP3    H141860   5.063   1.217   6.403
 6767TIP3    H241861   5.137   1.156   6.521
 6768TIP3   OH241862   4.133   0.399   0.495
 6768TIP3    H141863   4.050   0.404   0.447
 6768TIP3    H241864   4.199   0.430   0.433
 6769TIP3   OH241865   4.097   3.856   6.483
 6769TIP3    H141866   4.119   3.764   6.496
 6769TIP3    H241867   4.146   3.903   6.550
 6770TIP3   OH241868   3.880   2.435   7.281
 6770TIP3    H141869   3.957   2.384   7.255
 6770TIP3    H241870   3.806   2.387   7.246
 6771TIP3   OH241871   4.161   6.368   5.931
 6771TIP3    H141872   4.200   6.356   5.845
 6771TIP3    H241873   4.079   6.318   5.927
 6772TIP3   OH241874   6.523   4.108   0.098
 6772TIP3    H141875   6.595   4.046   0.095
 6772TIP3    H241876   6.516   4.133   0.191
 6773TIP3   OH241877   1.838   1.651   7.517
 6773TIP3    H141878   1.878   1.588   7.457
 6773TIP3    H241879   1.804   1.598   7.589
 6774TIP3   OH241880   5.338   5.909   0.012
 6774TIP3    H141881   5.414   5.916   8.737
 6774TIP3    H241882   5.273   5.863   8.740
 6775TIP3   OH241883   6.264   3.249   7.646
 6775TIP3    H141884   6.195   3.189   7.671
 6775TIP3    H241885   6.326   3.195   7.597
 6776TIP3   OH241886   5.656   5.603   0.582
 6776TIP3    H141887   5.717   5.667   0.546
 6776TIP3    H241888   5.712   5.535   0.621
 6777TIP3   OH241889   4.609   6.170   8.085
 6777TIP3    H141890   4.592   6.100   8.148
 6777TIP3    H241891   4.608   6.250   8.137
 6778TIP3   OH241892   5.159   1.161   0.162
 6778TIP3    H141893   5.127   1.111   0.237
 6778TIP3    H241894   5.139   1.252   0.184
 6779TIP3   OH241895   3.218   2.518   8.042
 6779TIP3    H141896   3.199   2.567   8.122
 6779TIP3    H241897   3.312   2.532   8.027
 6780TIP3   OH241898   4.680   2.093   0.532
 6780TIP3    H141899   4.599   2.103   0.482
 6780TIP3    H241900   4.749   2.122   0.473
 6781TIP3   OH241901   0.195   6.132   1.118
 6781TIP3    H141902   0.248   6.118   1.196
 6781TIP3    H241903   0.151   6.215   1.133
 6782TIP3   OH241904   3.241   0.769   8.505
 6782TIP3    H141905   3.239   0.689   8.559
 6782TIP3    H241906   3.217   0.839   8.566
 6783TIP3   OH241907   2.398   4.763   2.090
 6783TIP3    H141908   2.323   4.734   2.142
 6783TIP3    H241909   2.451   4.684   2.078
 6784TIP3   OH241910   5.986   3.280   8.237
 6784TIP3    H141911   6.062   3.273   8.295
 6784TIP3    H241912   6.015   3.239   8.155
 6785TIP3   OH241913   5.351   2.165   1.238
 6785TIP3    H141914   5.329   2.106   1.166
 6785TIP3    H241915   5.284   2.233   1.234
 6786TIP3   OH241916   2.013   6.506   7.969
 6786TIP3    H141917   1.967   6.543   7.893
 6786TIP3    H241918   2.043   6.421   7.939
 6787TIP3   OH241919   3.789   4.715   0.705
 6787TIP3    H141920   3.703   4.712   0.749
 6787TIP3    H241921   3.852   4.710   0.777
 6788TIP3   OH241922   2.150   1.702   7.437
 6788TIP3    H141923   2.095   1.779   7.453
 6788TIP3    H241924   2.094   1.642   7.389
 6789TIP3   OH241925   6.797   1.854   1.133
 6789TIP3    H141926   6.741   1.862   1.210
 6789TIP3    H241927   0.061   1.858   1.168
 6790TIP3   OH241928   6.241   4.319   0.490
 6790TIP3    H141929   6.159   4.275   0.465
 6790TIP3    H241930   6.217   4.372   0.566
 6791TIP3   OH241931   3.896   6.305   0.230
 6791TIP3    H141932   3.875   6.383   0.179
 6791TIP3    H241933   3.992   6.305   0.234
 6792TIP3   OH241934   2.313   4.809   1.590
 6792TIP3    H141935   2.249   4.754   1.545
 6792TIP3    H241936   2.285   4.899   1.571
 6793TIP3   OH241937   0.491   1.172   1.127
 6793TIP3    H141938   0.556   1.124   1.075
 6793TIP3    H241939   0.469   1.248   1.074
 6794TIP3   OH241940   0.241   4.328   6.831
 6794TIP3    H141941   0.260   4.421   6.845
 6794TIP3    H241942   0.240   4.291   6.920
 6795TIP3   OH241943   1.507   1.542   6.641
 6795TIP3    H141944   1.541   1.465   6.596
 6795TIP3    H241945   1.464   1.593   6.572
 6796TIP3   OH241946   0.835   3.736   8.195
 6796TIP3    H141947   0.753   3.755   8.241
 6796TIP3    H241948   0.811   3.671   8.129
 6797TIP3   OH241949   4.986   6.406   6.127
 6797TIP3    H141950   5.045   6.331   6.125
 6797TIP3    H241951   4.901   6.370   6.153
 6798TIP3   OH241952   2.084   1.422   0.933
 6798TIP3    H141953   2.079   1.327   0.943
 6798TIP3    H241954   1.994   1.449   0.919
 6799TIP3   OH241955   3.585   6.656   2.000
 6799TIP3    H141956   3.575   6.568   2.038
 6799TIP3    H241957   3.662   6.649   1.943
 6800TIP3   OH241958   2.882   0.229   6.941
 6800TIP3    H141959   2.801   0.279   6.926
 6800TIP3    H241960   2.952   0.293   6.928
 6801TIP3   OH241961   3.800   6.051   1.997
 6801TIP3    H141962   3.803   6.094   2.083
 6801TIP3    H241963   3.766   5.963   2.015
 6802TIP3   OH241964   0.458   4.959   6.693
 6802TIP3    H141965   0.540   4.911   6.682
 6802TIP3    H241966   0.401   4.923   6.624
 6803TIP3   OH241967   4.783   0.928   2.657
 6803TIP3    H141968   4.790   0.968   2.570
 6803TIP3    H241969   4.700   0.960   2.692
 6804TIP3   OH241970   1.316   2.710   1.895
 6804TIP3    H141971   1.408   2.685   1.903
 6804TIP3    H241972   1.270   2.654   1.958
 6805TIP3   OH241973   3.188   3.321   2.411
 6805TIP3    H141974   3.157   3.409   2.436
 6805TIP3    H241975   3.127   3.261   2.454
 6806TIP3   OH241976   6.458   3.228   7.911
 6806TIP3    H141977   6.539   3.237   7.961
 6806TIP3    H241978   6.487   3.200   7.824
 6807TIP3   OH241979   3.874   1.906   0.416
 6807TIP3    H141980   3.815   1.976   0.442
 6807TIP3    H241981   3.880   1.850   0.493
 6808TIP3   OH241982   6.774   1.610   7.862
 6808TIP3    H141983   0.013   1.610   7.791
 6808TIP3    H241984   6.821   1.650   7.936
 6809TIP3   OH241985   5.888   2.067   0.367
 6809TIP3    H141986   5.962   2.127   0.374
 6809TIP3    H241987   5.846   2.070   0.453
 6810TIP3   OH241988   6.779   0.120   7.553
 6810TIP3    H141989   6.722   0.094   7.481
 6810TIP3    H241990   0.032   0.066   7.543
 6811TIP3   OH241991   2.643   0.582   7.043
 6811TIP3    H141992   2.666   0.506   6.990
 6811TIP3    H241993   2.610   0.545   7.124
 6812TIP3   OH241994   1.021   5.336   8.382
 6812TIP3    H141995   0.952   5.360   8.321
 6812TIP3    H241996   1.071   5.268   8.336
 6813TIP3   OH241997   1.376   3.457   7.432
 6813TIP3    H141998   1.359   3.365   7.410
 6813TIP3    H241999   1.469   3.459   7.452
 6814TIP3   OH242000   2.179   1.492   1.490
 6814TIP3    H142001   2.124   1.472   1.566
 6814TIP3    H242002   2.185   1.587   1.488
 6815TIP3   OH242003   4.415   5.494   0.707
 6815TIP3    H142004   4.422   5.413   0.657
 6815TIP3    H242005   4.505   5.517   0.728
 6816TIP3   OH242006   0.563   5.643   0.086
 6816TIP3    H142007   0.504   5.652   0.161
 6816TIP3    H242008   0.553   5.551   0.059
 6817TIP3   OH242009   3.600   6.174   8.527
 6817TIP3    H142010   3.676   6.185   8.470
 6817TIP3    H242011   3.613   6.088   8.568
 6818TIP3   OH242012   4.975   5.694   1.691
 6818TIP3    H142013   4.883   5.693   1.716
 6818TIP3    H242014   5.007   5.606   1.714
 6819TIP3   OH242015   5.520   1.520   7.040
 6819TIP3    H142016   5.508   1.579   7.115
 6819TIP3    H242017   5.446   1.539   6.983
 6820TIP3   OH242018   2.235   0.683   7.472
 6820TIP3    H142019   2.245   0.777   7.491
 6820TIP3    H242020   2.313   0.662   7.420
 6821TIP3   OH242021   4.121   2.088   1.497
 6821TIP3    H142022   4.149   2.177   1.520
 6821TIP3    H242023   4.060   2.063   1.567
 6822TIP3   OH242024   6.267   3.631   1.344
 6822TIP3    H142025   6.341   3.689   1.329
 6822TIP3    H242026   6.306   3.544   1.352
 6823TIP3   OH242027   5.317   4.051   0.721
 6823TIP3    H142028   5.346   3.998   0.796
 6823TIP3    H242029   5.386   4.039   0.656
 6824TIP3   OH242030   3.728   3.722   8.641
 6824TIP3    H142031   3.737   3.712   8.547
 6824TIP3    H242032   3.811   3.758   8.670
 6825TIP3   OH242033   5.645   0.780   0.168
 6825TIP3    H142034   5.587   0.837   0.118
 6825TIP3    H242035   5.661   0.827   0.250
 6826TIP3   OH242036   2.701   4.971   8.206
 6826TIP3    H142037   2.705   5.034   8.134
 6826TIP3    H242038   2.608   4.965   8.228
 6827TIP3   OH242039   3.188   2.993   0.428
 6827TIP3    H142040   3.205   3.086   0.443
 6827TIP3    H242041   3.152   2.989   0.340
 6828TIP3   OH242042   0.451   5.613   0.336
 6828TIP3    H142043   0.486   5.688   0.385
 6828TIP3    H242044   0.450   5.541   0.399
 6829TIP3   OH242045   2.367   0.112   6.603
 6829TIP3    H142046   2.431   0.150   6.663
 6829TIP3    H242047   2.420   0.063   6.540
 6830TIP3   OH242048   5.492   4.211   1.050
 6830TIP3    H142049   5.562   4.263   1.011
 6830TIP3    H242050   5.441   4.273   1.101
 6831TIP3   OH242051   1.830   6.111   1.196
 6831TIP3    H142052   1.852   6.097   1.288
 6831TIP3    H242053   1.855   6.201   1.179
 6832TIP3   OH242054   1.887   3.082   7.886
 6832TIP3    H142055   1.916   2.995   7.916
 6832TIP3    H242056   1.963   3.118   7.841
 6833TIP3   OH242057   3.632   6.488   7.531
 6833TIP3    H142058   3.681   6.411   7.560
 6833TIP3    H242059   3.688   6.562   7.551
 6834TIP3   OH242060   1.009   2.855   7.290
 6834TIP3    H142061   1.038   2.891   7.374
 6834TIP3    H242062   1.005   2.930   7.231
 6835TIP3   OH242063   6.646   1.942   0.598
 6835TIP3    H142064   6.648   1.905   0.510
 6835TIP3    H242065   6.674   1.870   0.655
 6836TIP3   OH242066   5.318   0.683   7.554
 6836TIP3    H142067   5.313   0.713   7.645
 6836TIP3    H242068   5.331   0.763   7.503
 6837TIP3   OH242069   2.031   0.900   0.390
 6837TIP3    H142070   1.988   0.820   0.420
 6837TIP3    H242071   2.106   0.910   0.450
 6838TIP3   OH242072   1.023   3.291   7.962
 6838TIP3    H142073   0.936   3.250   7.967
 6838TIP3    H242074   1.008   3.381   7.991
 6839TIP3   OH242075   0.302   2.470   1.685
 6839TIP3    H142076   0.358   2.437   1.756
 6839TIP3    H242077   0.336   2.429   1.606
 6840TIP3   OH242078   5.213   0.480   7.320
 6840TIP3    H142079   5.140   0.496   7.380
 6840TIP3    H242080   5.173   0.441   7.243
 6841TIP3   OH242081   1.411   3.703   6.947
 6841TIP3    H142082   1.348   3.713   6.876
 6841TIP3    H242083   1.485   3.657   6.907
 6842TIP3   OH242084   5.039   5.322   0.460
 6842TIP3    H142085   5.102   5.386   0.426
 6842TIP3    H242086   5.010   5.359   0.543
 6843TIP3   OH242087   5.041   1.211   8.475
 6843TIP3    H142088   4.984   1.213   8.553
 6843TIP3    H242089   5.127   1.237   8.507
 6844TIP3   OH242090   0.748   2.804   8.231
 6844TIP3    H142091   0.783   2.879   8.279
 6844TIP3    H242092   0.653   2.813   8.239
 6845TIP3   OH242093   1.047   1.851   1.223
 6845TIP3    H142094   1.039   1.877   1.315
 6845TIP3    H242095   1.137   1.820   1.215
 6846TIP3   OH242096   6.456   6.483   7.193
 6846TIP3    H142097   6.545   6.514   7.177
 6846TIP3    H242098   6.400   6.549   7.151
 6847TIP3   OH242099   2.794   5.469   7.503
 6847TIP3    H142100   2.882   5.468   7.466
 6847TIP3    H242101   2.749   5.397   7.458
 6848TIP3   OH242102   0.708   1.065   8.078
 6848TIP3    H142103   0.641   1.004   8.048
 6848TIP3    H242104   0.774   1.010   8.120
 6849TIP3   OH242105   0.599   1.535   8.588
 6849TIP3    H142106   0.551   1.617   8.596
 6849TIP3    H242107   0.575   1.486   8.667
 6850TIP3   OH242108   5.163   0.922   0.629
 6850TIP3    H142109   5.230   0.883   0.573
 6850TIP3    H242110   5.081   0.881   0.602
 6851TIP3   OH242111   6.466   6.551   1.676
 6851TIP3    H142112   6.481   6.483   1.610
 6851TIP3    H242113   6.553   6.589   1.691
 6852TIP3   OH242114   3.575   5.792   1.784
 6852TIP3    H142115   3.580   5.777   1.878
 6852TIP3    H242116   3.483   5.774   1.762
 6853TIP3   OH242117   6.536   4.741   8.459
 6853TIP3    H142118   6.578   4.824   8.483
 6853TIP3    H242119   6.608   4.679   8.451
 6854TIP3   OH242120   3.629   2.751   8.264
 6854TIP3    H142121   3.699   2.777   8.324
 6854TIP3    H242122   3.548   2.767   8.313
 6855TIP3   OH242123   6.468   3.827   1.346
 6855TIP3    H142124   6.520   3.857   1.420
 6855TIP3    H242125   6.443   3.907   1.300
 6856TIP3   OH242126   5.143   1.818   8.291
 6856TIP3    H142127   5.137   1.883   8.361
 6856TIP3    H242128   5.142   1.734   8.336
 6857TIP3   OH242129   2.973   0.477   6.602
 6857TIP3    H142130   2.895   0.424   6.585
 6857TIP3    H242131   2.940   0.566   6.615
 6858TIP3   OH242132   2.340   6.738   6.819
 6858TIP3    H142133   2.343   6.781   6.733
 6858TIP3    H242134   2.283   6.663   6.805
 6859TIP3   OH242135   0.714   5.889   8.776
 6859TIP3    H142136   0.789   5.877   0.054
 6859TIP3    H242137   0.647   5.830   0.031
 6860TIP3   OH242138   3.607   6.267   0.597
 6860TIP3    H142139   3.687   6.313   0.619
 6860TIP3    H242140   3.587   6.293   0.507
 6861TIP3   OH242141   6.302   1.313   1.614
 6861TIP3    H142142   6.376   1.374   1.613
 6861TIP3    H242143   6.320   1.255   1.689
 6862TIP3   OH242144   0.932   0.016   0.412
 6862TIP3    H142145   0.917   0.080   0.482
 6862TIP3    H242146   0.872   0.042   0.342
 6863TIP3   OH242147   6.817   1.609   7.084
 6863TIP3    H142148   0.014   1.525   7.044
 6863TIP3    H242149   6.825   1.673   7.013
 6864TIP3   OH242150   5.625   3.136   1.278
 6864TIP3    H142151   5.630   3.224   1.240
 6864TIP3    H242152   5.610   3.078   1.203
 6865TIP3   OH242153   2.272   4.436   1.703
 6865TIP3    H142154   2.354   4.481   1.684
 6865TIP3    H242155   2.298   4.360   1.754
 6866TIP3   OH242156   0.882   6.021   8.032
 6866TIP3    H142157   0.941   6.063   8.095
 6866TIP3    H242158   0.936   5.952   7.993
 6867TIP3   OH242159   6.140   5.742   8.365
 6867TIP3    H142160   6.199   5.675   8.398
 6867TIP3    H242161   6.060   5.733   8.417
 6868TIP3   OH242162   6.408   4.537   6.648
 6868TIP3    H142163   6.352   4.584   6.587
 6868TIP3    H242164   6.427   4.600   6.718
 6869TIP3   OH242165   1.053   5.536   6.620
 6869TIP3    H142166   0.967   5.498   6.605
 6869TIP3    H242167   1.060   5.607   6.555
 6870TIP3   OH242168   4.213   3.179   1.349
 6870TIP3    H142169   4.127   3.157   1.313
 6870TIP3    H242170   4.199   3.186   1.444
 6871TIP3   OH242171   3.382   0.074   1.617
 6871TIP3    H142172   3.404   0.164   1.592
 6871TIP3    H242173   3.298   0.082   1.662
 6872TIP3   OH242174   6.163   3.413   0.917
 6872TIP3    H142175   6.169   3.335   0.972
 6872TIP3    H242176   6.074   3.446   0.931
 6873TIP3   OH242177   4.998   4.917   1.948
 6873TIP3    H142178   5.087   4.884   1.933
 6873TIP3    H242179   4.941   4.844   1.925
 6874TIP3   OH242180   3.093   3.188   8.629
 6874TIP3    H142181   3.002   3.176   8.656
 6874TIP3    H242182   3.132   3.239   8.700
 6875TIP3   OH242183   2.863   5.088   7.697
 6875TIP3    H142184   2.939   5.140   7.671
 6875TIP3    H242185   2.814   5.145   7.756
 6876TIP3   OH242186   0.680   4.414   1.811
 6876TIP3    H142187   0.742   4.455   1.871
 6876TIP3    H242188   0.600   4.466   1.821
 6877TIP3   OH242189   5.741   4.319   1.885
 6877TIP3    H142190   5.802   4.277   1.945
 6877TIP3    H242191   5.790   4.327   1.803
 6878TIP3   OH242192   2.710   5.580   8.768
 6878TIP3    H142193   2.737   5.523   0.060
 6878TIP3    H242194   2.733   5.668   0.016
 6879TIP3   OH242195   4.686   4.521   7.165
 6879TIP3    H142196   4.761   4.492   7.113
 6879TIP3    H242197   4.640   4.583   7.108
 6880TIP3   OH242198   3.221   1.600   0.755
 6880TIP3    H142199   3.264   1.527   0.801
 6880TIP3    H242200   3.128   1.579   0.760
 6881TIP3   OH242201   1.193   5.488   0.997
 6881TIP3    H142202   1.101   5.514   1.002
 6881TIP3    H242203   1.242   5.568   1.016
 6882TIP3   OH242204   5.428   2.375   7.763
 6882TIP3    H142205   5.360   2.435   7.733
 6882TIP3    H242206   5.482   2.359   7.686
 6883TIP3   OH242207   6.123   6.645   8.682
 6883TIP3    H142208   6.095   6.734   8.704
 6883TIP3    H242209   6.081   6.590   8.748
 6884TIP3   OH242210   2.412   2.940   8.039
 6884TIP3    H142211   2.401   3.028   8.003
 6884TIP3    H242212   2.355   2.885   7.984
 6885TIP3   OH242213   0.197   3.823   8.639
 6885TIP3    H142214   0.113   3.851   8.604
 6885TIP3    H242215   0.175   3.766   8.713
 6886TIP3   OH242216   4.816   5.328   0.772
 6886TIP3    H142217   4.816   5.313   0.866
 6886TIP3    H242218   4.835   5.242   0.734
 6887TIP3   OH242219   3.799   3.319   8.189
 6887TIP3    H142220   3.717   3.323   8.140
 6887TIP3    H242221   3.862   3.283   8.126
 6888TIP3   OH242222   5.456   5.354   0.805
 6888TIP3    H142223   5.473   5.347   0.900
 6888TIP3    H242224   5.377   5.302   0.791
 6889TIP3   OH242225   2.604   1.356   8.478
 6889TIP3    H142226   2.514   1.358   8.445
 6889TIP3    H242227   2.656   1.394   8.407
 6890TIP3   OH242228   5.063   0.256   0.201
 6890TIP3    H142229   5.049   0.179   0.146
 6890TIP3    H242230   5.050   0.225   0.291
 6891TIP3   OH242231   2.688   1.163   1.122
 6891TIP3    H142232   2.610   1.160   1.177
 6891TIP3    H242233   2.687   1.080   1.074
 6892TIP3   OH242234   2.980   1.853   7.171
 6892TIP3    H142235   2.978   1.758   7.172
 6892TIP3    H242236   3.049   1.877   7.234
 6893TIP3   OH242237   6.153   2.425   8.156
 6893TIP3    H142238   6.084   2.441   8.220
 6893TIP3    H242239   6.214   2.367   8.202
 6894TIP3   OH242240   0.016   3.725   6.938
 6894TIP3    H142241   0.066   3.791   6.985
 6894TIP3    H242242   6.754   3.764   6.927
 6895TIP3   OH242243   5.662   5.038   0.103
 6895TIP3    H142244   5.736   5.015   0.158
 6895TIP3    H242245   5.598   5.076   0.163
 6896TIP3   OH242246   2.342   3.150   7.055
 6896TIP3    H142247   2.320   3.243   7.061
 6896TIP3    H242248   2.437   3.147   7.067
 6897TIP3   OH242249   3.768   4.569   8.488
 6897TIP3    H142250   3.863   4.581   8.484
 6897TIP3    H242251   3.747   4.573   8.581
 6898TIP3   OH242252   5.763   5.096   7.623
 6898TIP3    H142253   5.702   5.127   7.556
 6898TIP3    H242254   5.782   5.173   7.676
 6899TIP3   OH242255   4.881   3.657   1.323
 6899TIP3    H142256   4.919   3.739   1.291
 6899TIP3    H242257   4.787   3.671   1.321
 6900TIP3   OH242258   5.599   5.682   1.874
 6900TIP3    H142259   5.523   5.688   1.931
 6900TIP3    H242260   5.563   5.676   1.785
 6901TIP3   OH242261   0.270   0.642   1.443
 6901TIP3    H142262   0.305   0.648   1.354
 6901TIP3    H242263   0.322   0.574   1.484
 6902TIP3   OH242264   0.646   0.120   0.500
 6902TIP3    H142265   0.730   0.154   0.531
 6902TIP3    H242266   0.594   0.199   0.481
 6903TIP3   OH242267   1.741   3.550   8.514
 6903TIP3    H142268   1.659   3.559   8.466
 6903TIP3    H242269   1.792   3.488   8.463
 6904TIP3   OH242270   6.339   6.758   6.590
 6904TIP3    H142271   6.352   0.019   6.550
 6904TIP3    H242272   6.248   6.736   6.571
 6905TIP3   OH242273   6.174   5.123   1.801
 6905TIP3    H142274   6.089   5.145   1.839
 6905TIP3    H242275   6.152   5.078   1.719
 6906TIP3   OH242276   3.335   1.293   8.556
 6906TIP3    H142277   3.350   1.384   8.529
 6906TIP3    H242278   3.240   1.282   8.554
 6907TIP3   OH242279   6.108   0.988   0.391
 6907TIP3    H142280   6.146   1.071   0.361
 6907TIP3    H242281   6.075   1.007   0.478
 6908TIP3   OH242282   2.168   1.833   7.769
 6908TIP3    H142283   2.111   1.863   7.840
 6908TIP3    H242284   2.108   1.790   7.708
 6909TIP3   OH242285   6.298   6.531   0.410
 6909TIP3    H142286   6.222   6.581   0.440
 6909TIP3    H242287   6.269   6.440   0.411
 6910TIP3   OH242288   2.352   2.785   0.879
 6910TIP3    H142289   2.369   2.739   0.961
 6910TIP3    H242290   2.257   2.789   0.873
 6911TIP3   OH242291   1.778   2.235   0.284
 6911TIP3    H142292   1.863   2.267   0.256
 6911TIP3    H242293   1.754   2.169   0.220
 6912TIP3   OH242294   3.912   3.392   0.938
 6912TIP3    H142295   3.942   3.370   0.849
 6912TIP3    H242296   3.924   3.487   0.944
 6913TIP3   OH242297   2.637   3.056   7.715
 6913TIP3    H142298   2.542   3.061   7.707
 6913TIP3    H242299   2.652   2.982   7.774
 6914TIP3   OH242300   0.020   0.607   1.532
 6914TIP3    H142301   0.020   0.670   1.604
 6914TIP3    H242302   0.109   0.612   1.496
 6915TIP3   OH242303   1.404   2.710   1.165
 6915TIP3    H142304   1.345   2.691   1.092
 6915TIP3    H242305   1.357   2.681   1.243
 6916TIP3   OH242306   0.346   1.775   2.106
 6916TIP3    H142307   0.430   1.821   2.111
 6916TIP3    H242308   0.366   1.686   2.136
 6917TIP3   OH242309   5.626   3.196   1.617
 6917TIP3    H142310   5.696   3.186   1.552
 6917TIP3    H242311   5.599   3.107   1.637
 6918TIP3   OH242312   0.896   3.804   7.384
 6918TIP3    H142313   0.908   3.710   7.378
 6918TIP3    H242314   0.949   3.832   7.458
 6919TIP3   OH242315   0.486   0.238   7.640
 6919TIP3    H142316   0.453   0.315   7.595
 6919TIP3    H242317   0.418   0.216   7.704
 6920TIP3   OH242318   0.578   0.467   0.731
 6920TIP3    H142319   0.569   0.382   0.774
 6920TIP3    H242320   0.668   0.493   0.748
 6921TIP3   OH242321   0.220   3.911   1.157
 6921TIP3    H142322   0.269   3.994   1.154
 6921TIP3    H242323   0.169   3.917   1.238
 6922TIP3   OH242324   1.425   6.239   1.943
 6922TIP3    H142325   1.407   6.152   1.980
 6922TIP3    H242326   1.347   6.290   1.961
 6923TIP3   OH242327   4.140   5.976   0.212
 6923TIP3    H142328   4.174   5.925   0.285
 6923TIP3    H242329   4.141   6.067   0.244
 6924TIP3   OH242330   3.304   6.375   1.194
 6924TIP3    H142331   3.210   6.392   1.192
 6924TIP3    H242332   3.314   6.284   1.166
 6925TIP3   OH242333   6.076   5.710   2.232
 6925TIP3    H142334   6.003   5.721   2.171
 6925TIP3    H242335   6.103   5.800   2.252
 6926TIP3   OH242336   2.896   6.591   8.611
 6926TIP3    H142337   2.867   6.500   8.610
 6926TIP3    H242338   2.820   6.642   8.582
 6927TIP3   OH242339   1.199   1.807   7.371
 6927TIP3    H142340   1.126   1.869   7.367
 6927TIP3    H242341   1.210   1.789   7.465
 6928TIP3   OH242342   2.546   1.542   7.949
 6928TIP3    H142343   2.571   1.502   8.032
 6928TIP3    H242344   2.450   1.536   7.947
 6929TIP3   OH242345   2.827   5.457   1.046
 6929TIP3    H142346   2.766   5.392   1.009
 6929TIP3    H242347   2.912   5.432   1.012
 6930TIP3   OH242348   4.668   3.015   8.690
 6930TIP3    H142349   4.634   2.928   8.712
 6930TIP3    H242350   4.616   3.075   8.744
 6931TIP3   OH242351   4.117   1.279   0.336
 6931TIP3    H142352   4.122   1.346   0.269
 6931TIP3    H242353   4.128   1.196   0.289
 6932TIP3   OH242354   0.472   2.769   8.176
 6932TIP3    H142355   0.419   2.743   8.101
 6932TIP3    H242356   0.491   2.687   8.221
 6933TIP3   OH242357   1.925   2.823   1.151
 6933TIP3    H142358   1.869   2.755   1.189
 6933TIP3    H242359   1.868   2.900   1.147
 6934TIP3   OH242360   1.428   2.182   6.615
 6934TIP3    H142361   1.391   2.265   6.648
 6934TIP3    H242362   1.513   2.206   6.581
 6935TIP3   OH242363   0.905   5.635   0.034
 6935TIP3    H142364   0.929   5.546   0.060
 6935TIP3    H242365   0.866   5.625   8.728
 6936TIP3   OH242366   0.553   5.191   8.698
 6936TIP3    H142367   0.481   5.211   8.638
 6936TIP3    H242368   0.587   5.277   8.723
 6937TIP3   OH242369   5.789   2.669   8.336
 6937TIP3    H142370   5.714   2.651   8.280
 6937TIP3    H242371   5.848   2.721   8.281
 6938TIP3   OH242372   0.915   0.597   8.230
 6938TIP3    H142373   0.995   0.649   8.225
 6938TIP3    H242374   0.844   0.661   8.239
 6939TIP3   OH242375   5.944   1.848   0.648
 6939TIP3    H142376   5.908   1.934   0.668
 6939TIP3    H242377   5.878   1.786   0.679
 6940TIP3   OH242378   1.108   5.266   6.539
 6940TIP3    H142379   1.047   5.259   6.466
 6940TIP3    H242380   1.115   5.359   6.556
 6941TIP3   OH242381   5.313   6.301   7.019
 6941TIP3    H142382   5.254   6.238   6.978
 6941TIP3    H242383   5.314   6.277   7.112
 6942TIP3   OH242384   3.580   4.257   8.487
 6942TIP3    H142385   3.612   4.223   8.404
 6942TIP3    H242386   3.531   4.185   8.526
 6943TIP3   OH242387   0.704   6.317   0.128
 6943TIP3    H142388   0.703   6.291   0.036
 6943TIP3    H242389   0.650   6.396   0.132
 6944TIP3   OH242390   2.425   4.605   8.179
 6944TIP3    H142391   2.362   4.644   8.240
 6944TIP3    H242392   2.379   4.598   8.096
 6945TIP3   OH242393   1.683   4.004   6.585
 6945TIP3    H142394   1.776   3.985   6.598
 6945TIP3    H242395   1.658   4.053   6.664
 6946TIP3   OH242396   3.269   4.928   7.375
 6946TIP3    H142397   3.357   4.966   7.375
 6946TIP3    H242398   3.283   4.835   7.357
 6947TIP3   OH242399   1.057   0.377   0.389
 6947TIP3    H142400   1.094   0.292   0.368
 6947TIP3    H242401   1.106   0.439   0.335
 6948TIP3   OH242402   2.418   5.408   0.803
 6948TIP3    H142403   2.404   5.314   0.786
 6948TIP3    H242404   2.428   5.446   0.716
 6949TIP3   OH242405   3.591   1.234   6.609
 6949TIP3    H142406   3.635   1.165   6.559
 6949TIP3    H242407   3.644   1.312   6.593
 6950TIP3   OH242408   0.408   3.720   8.146
 6950TIP3    H142409   0.338   3.738   8.208
 6950TIP3    H242410   0.366   3.669   8.077
 6951TIP3   OH242411   1.527   3.393   0.808
 6951TIP3    H142412   1.527   3.480   0.769
 6951TIP3    H242413   1.602   3.393   0.867
 6952TIP3   OH242414   0.984   3.017   7.804
 6952TIP3    H142415   0.914   3.045   7.862
 6952TIP3    H242416   1.024   2.942   7.847
 6953TIP3   OH242417   3.503   0.899   1.249
 6953TIP3    H142418   3.550   0.977   1.221
 6953TIP3    H242419   3.414   0.912   1.215
 6954TIP3   OH242420   6.396   4.116   1.428
 6954TIP3    H142421   6.360   4.053   1.490
 6954TIP3    H242422   6.320   4.159   1.390
 6955TIP3   OH242423   5.371   2.467   1.445
 6955TIP3    H142424   5.324   2.460   1.363
 6955TIP3    H242425   5.462   2.449   1.422
 6956TIP3   OH242426   3.782   4.368   8.127
 6956TIP3    H142427   3.842   4.410   8.067
 6956TIP3    H242428   3.736   4.440   8.170
 6957TIP3   OH242429   5.210   2.598   6.663
 6957TIP3    H142430   5.178   2.687   6.673
 6957TIP3    H242431   5.133   2.547   6.640
 6958TIP3   OH242432   4.655   0.977   7.173
 6958TIP3    H142433   4.596   1.021   7.233
 6958TIP3    H242434   4.681   1.045   7.110
 6959TIP3   OH242435   6.805   4.539   2.045
 6959TIP3    H142436   6.779   4.447   2.040
 6959TIP3    H242437   0.075   4.539   2.031
 6960TIP3   OH242438   0.681   0.134   8.275
 6960TIP3    H142439   0.656   0.042   8.283
 6960TIP3    H242440   0.686   0.149   8.180
 6961TIP3   OH242441   3.470   5.248   8.095
 6961TIP3    H142442   3.418   5.287   8.024
 6961TIP3    H242443   3.561   5.260   8.068
 6962TIP3   OH242444   4.438   5.629   7.744
 6962TIP3    H142445   4.526   5.633   7.781
 6962TIP3    H242446   4.446   5.570   7.669
 6963TIP3   OH242447   0.368   1.038   2.019
 6963TIP3    H142448   0.365   0.942   2.023
 6963TIP3    H242449   0.424   1.064   2.092
 6964TIP3   OH242450   1.309   1.746   0.912
 6964TIP3    H142451   1.261   1.773   0.991
 6964TIP3    H242452   1.400   1.771   0.929
 6965TIP3   OH242453   6.621   5.596   0.784
 6965TIP3    H142454   6.554   5.546   0.737
 6965TIP3    H242455   6.701   5.545   0.774
 6966TIP3   OH242456   2.935   1.610   1.228
 6966TIP3    H142457   2.847   1.644   1.216
 6966TIP3    H242458   2.940   1.589   1.321
 6967TIP3   OH242459   0.938   3.539   6.959
 6967TIP3    H142460   0.869   3.519   7.023
 6967TIP3    H242461   0.891   3.567   6.881
 6968TIP3   OH242462   4.504   6.250   1.781
 6968TIP3    H142463   4.531   6.249   1.873
 6968TIP3    H242464   4.449   6.328   1.773
 6969TIP3   OH242465   2.009   4.830   8.502
 6969TIP3    H142466   1.967   4.826   8.588
 6969TIP3    H242467   1.961   4.899   8.456
 6970TIP3   OH242468   5.877   1.220   7.414
 6970TIP3    H142469   5.875   1.309   7.449
 6970TIP3    H242470   5.858   1.230   7.321
 6971TIP3   OH242471   2.335   0.059   7.441
 6971TIP3    H142472   2.255   0.058   7.389
 6971TIP3    H242473   2.389   0.128   7.400
 6972TIP3   OH242474   5.507   5.225   0.532
 6972TIP3    H142475   5.585   5.241   0.478
 6972TIP3    H242476   5.496   5.305   0.584
 6973TIP3   OH242477   0.112   0.705   0.340
 6973TIP3    H142478   0.135   0.620   0.303
 6973TIP3    H242479   0.139   0.700   0.432
 6974TIP3   OH242480   5.196   0.303   6.872
 6974TIP3    H142481   5.148   0.252   6.807
 6974TIP3    H242482   5.165   0.393   6.861
 6975TIP3   OH242483   3.292   2.984   1.137
 6975TIP3    H142484   3.238   2.984   1.058
 6975TIP3    H242485   3.373   3.027   1.110
 6976TIP3   OH242486   1.799   4.363   0.604
 6976TIP3    H142487   1.754   4.446   0.584
 6976TIP3    H242488   1.741   4.318   0.665
 6977TIP3   OH242489   0.933   4.815   8.180
 6977TIP3    H142490   0.861   4.770   8.223
 6977TIP3    H242491   0.954   4.760   8.104
 6978TIP3   OH242492   4.802   0.625   2.546
 6978TIP3    H142493   4.833   0.696   2.604
 6978TIP3    H242494   4.740   0.576   2.600
 6979TIP3   OH242495   5.528   3.053   0.982
 6979TIP3    H142496   5.601   2.996   1.007
 6979TIP3    H242497   5.481   3.005   0.915
 6980TIP3   OH242498   3.539   5.183   0.748
 6980TIP3    H142499   3.499   5.185   0.661
 6980TIP3    H242500   3.561   5.091   0.762
 6981TIP3   OH242501   2.408   4.412   7.638
 6981TIP3    H142502   2.413   4.463   7.557
 6981TIP3    H242503   2.315   4.410   7.660
 6982TIP3   OH242504   1.525   3.064   6.638
 6982TIP3    H142505   1.597   3.086   6.696
 6982TIP3    H242506   1.501   2.974   6.662
 6983TIP3   OH242507   3.828   3.784   8.357
 6983TIP3    H142508   3.792   3.802   8.270
 6983TIP3    H242509   3.892   3.854   8.371
 6984TIP3   OH242510   2.684   0.467   1.230
 6984TIP3    H142511   2.684   0.521   1.151
 6984TIP3    H242512   2.769   0.424   1.229
 6985TIP3   OH242513   4.126   1.011   1.409
 6985TIP3    H142514   4.103   0.927   1.449
 6985TIP3    H242515   4.214   0.997   1.375
 6986TIP3   OH242516   0.296   1.326   8.663
 6986TIP3    H142517   0.370   1.341   8.722
 6986TIP3    H242518   0.304   1.235   8.636
 6987TIP3   OH242519   5.386   3.556   6.431
 6987TIP3    H142520   5.417   3.627   6.375
 6987TIP3    H242521   5.296   3.540   6.401
 6988TIP3   OH242522   4.969   3.720   8.221
 6988TIP3    H142523   4.987   3.628   8.239
 6988TIP3    H242524   5.046   3.752   8.174
 6989TIP3   OH242525   5.769   3.115   8.266
 6989TIP3    H142526   5.843   3.176   8.267
 6989TIP3    H242527   5.758   3.090   8.358
 6990TIP3   OH242528   5.546   5.203   1.325
 6990TIP3    H142529   5.622   5.250   1.359
 6990TIP3    H242530   5.495   5.179   1.403
 6991TIP3   OH242531   3.190   4.682   6.758
 6991TIP3    H142532   3.261   4.723   6.808
 6991TIP3    H242533   3.171   4.744   6.688
 6992TIP3   OH242534   4.965   3.199   7.013
 6992TIP3    H142535   5.017   3.250   7.075
 6992TIP3    H242536   4.994   3.109   7.027
 6993TIP3   OH242537   0.249   0.316   7.321
 6993TIP3    H142538   0.156   0.338   7.318
 6993TIP3    H242539   0.265   0.269   7.239
 6994TIP3   OH242540   3.383   0.364   8.152
 6994TIP3    H142541   3.435   0.298   8.105
 6994TIP3    H242542   3.383   0.440   8.093
 6995TIP3   OH242543   2.477   0.243   7.283
 6995TIP3    H142544   2.544   0.207   7.225
 6995TIP3    H242545   2.403   0.262   7.226
 6996TIP3   OH242546   2.421   0.299   0.951
 6996TIP3    H142547   2.398   0.339   1.035
 6996TIP3    H242548   2.361   0.341   0.888
 6997TIP3   OH242549   0.518   0.798   2.287
 6997TIP3    H142550   0.447   0.765   2.232
 6997TIP3    H242551   0.476   0.827   2.367
 6998TIP3   OH242552   6.008   2.175   0.766
 6998TIP3    H142553   5.918   2.150   0.746
 6998TIP3    H242554   6.045   2.201   0.682
 6999TIP3   OH242555   1.009   5.299   7.083
 6999TIP3    H142556   1.089   5.348   7.103
 6999TIP3    H242557   1.037   5.207   7.082
 7000TIP3   OH242558   6.066   5.600   0.778
 7000TIP3    H142559   6.084   5.585   0.685
 7000TIP3    H242560   5.972   5.618   0.782
 7001TIP3   OH242561   6.240   6.216   7.787
 7001TIP3    H142562   6.312   6.187   7.731
 7001TIP3    H242563   6.165   6.165   7.758
 7002TIP3   OH242564   4.839   3.789   0.831
 7002TIP3    H142565   4.895   3.758   0.902
 7002TIP3    H242566   4.872   3.876   0.810
 7003TIP3   OH242567   3.621   5.485   6.720
 7003TIP3    H142568   3.549   5.546   6.738
 7003TIP3    H242569   3.698   5.527   6.759
 7004TIP3   OH242570   5.357   1.520   1.217
 7004TIP3    H142571   5.442   1.521   1.261
 7004TIP3    H242572   5.294   1.537   1.287
 7005TIP3   OH242573   0.227   0.546   0.566
 7005TIP3    H142574   0.232   0.479   0.635
 7005TIP3    H242575   0.318   0.566   0.547
 7006TIP3   OH242576   3.263   0.459   7.504
 7006TIP3    H142577   3.260   0.411   7.421
 7006TIP3    H242578   3.322   0.409   7.559
 7007TIP3   OH242579   0.963   3.913   1.737
 7007TIP3    H142580   0.918   3.913   1.821
 7007TIP3    H242581   0.941   3.828   1.698
 7008TIP3   OH242582   0.886   6.617   7.090
 7008TIP3    H142583   0.968   6.594   7.048
 7008TIP3    H242584   0.909   6.629   7.182
 7009TIP3   OH242585   4.887   2.084   7.561
 7009TIP3    H142586   4.955   2.054   7.500
 7009TIP3    H242587   4.878   2.177   7.543
 7010TIP3   OH242588   2.428   1.974   6.579
 7010TIP3    H142589   2.351   1.950   6.527
 7010TIP3    H242590   2.462   1.891   6.612
 7011TIP3   OH242591   5.495   6.508   6.983
 7011TIP3    H142592   5.451   6.423   6.985
 7011TIP3    H242593   5.587   6.487   6.968
 7012TIP3   OH242594   0.940   3.768   1.343
 7012TIP3    H142595   1.028   3.747   1.374
 7012TIP3    H242596   0.937   3.863   1.342
 7013TIP3   OH242597   4.131   5.224   0.919
 7013TIP3    H142598   4.121   5.157   0.987
 7013TIP3    H242599   4.082   5.189   0.844
 7014TIP3   OH242600   4.957   6.260   8.108
 7014TIP3    H142601   4.908   6.227   8.183
 7014TIP3    H242602   5.048   6.261   8.137
 7015TIP3   OH242603   4.766   4.754   7.638
 7015TIP3    H142604   4.755   4.731   7.545
 7015TIP3    H242605   4.677   4.756   7.672
 7016TIP3   OH242606   0.167   1.982   0.830
 7016TIP3    H142607   0.146   1.889   0.839
 7016TIP3    H242608   0.263   1.985   0.834
 7017TIP3   OH242609   2.051   5.447   2.389
 7017TIP3    H142610   2.032   5.536   2.358
 7017TIP3    H242611   2.116   5.458   2.458
 7018TIP3   OH242612   3.708   4.654   2.079
 7018TIP3    H142613   3.668   4.687   2.160
 7018TIP3    H242614   3.701   4.559   2.086
 7019TIP3   OH242615   1.372   0.552   7.922
 7019TIP3    H142616   1.383   0.470   7.875
 7019TIP3    H242617   1.312   0.603   7.867
 7020TIP3   OH242618   4.902   4.276   1.702
 7020TIP3    H142619   4.966   4.206   1.713
 7020TIP3    H242620   4.863   4.287   1.789
 7021TIP3   OH242621   2.074   6.047   7.026
 7021TIP3    H142622   1.984   6.077   7.040
 7021TIP3    H242623   2.098   6.082   6.940
 7022TIP3   OH242624   3.881   4.126   7.401
 7022TIP3    H142625   3.907   4.171   7.482
 7022TIP3    H242626   3.863   4.036   7.428
 7023TIP3   OH242627   2.105   5.457   8.019
 7023TIP3    H142628   2.123   5.544   8.055
 7023TIP3    H242629   2.106   5.470   7.924
 7024TIP3   OH242630   1.221   6.503   1.038
 7024TIP3    H142631   1.213   6.594   1.011
 7024TIP3    H242632   1.178   6.453   0.969
 7025TIP3   OH242633   0.073   1.305   0.092
 7025TIP3    H142634   0.047   1.310   8.781
 7025TIP3    H242635   0.129   1.382   0.105
 7026TIP3   OH242636   4.834   3.088   8.158
 7026TIP3    H142637   4.746   3.052   8.169
 7026TIP3    H242638   4.882   3.058   8.236
 7027TIP3   OH242639   0.262   6.270   7.284
 7027TIP3    H142640   0.263   6.365   7.275
 7027TIP3    H242641   0.307   6.253   7.367
 7028TIP3   OH242642   6.456   1.507   2.145
 7028TIP3    H142643   6.539   1.535   2.106
 7028TIP3    H242644   6.444   1.566   2.220
 7029TIP3   OH242645   6.589   3.741   7.749
 7029TIP3    H142646   6.598   3.646   7.759
 7029TIP3    H242647   6.494   3.756   7.749
 7030TIP3   OH242648   2.394   4.758   7.695
 7030TIP3    H142649   2.373   4.834   7.641
 7030TIP3    H242650   2.421   4.691   7.633
 7031TIP3   OH242651   6.674   1.089   7.061
 7031TIP3    H142652   6.730   1.047   6.995
 7031TIP3    H242653   6.609   1.137   7.009
 7032TIP3   OH242654   6.469   5.464   7.374
 7032TIP3    H142655   6.389   5.516   7.370
 7032TIP3    H242656   6.468   5.412   7.294
 7033TIP3   OH242657   2.709   4.326   7.746
 7033TIP3    H142658   2.692   4.410   7.703
 7033TIP3    H242659   2.804   4.323   7.756
 7034TIP3   OH242660   1.397   1.205   7.082
 7034TIP3    H142661   1.458   1.277   7.062
 7034TIP3    H242662   1.421   1.178   7.171
 7035TIP3   OH242663   6.640   6.287   0.382
 7035TIP3    H142664   6.675   6.216   0.328
 7035TIP3    H242665   6.566   6.247   0.428
 7036TIP3   OH242666   5.019   4.540   0.132
 7036TIP3    H142667   4.989   4.543   0.223
 7036TIP3    H242668   4.992   4.624   0.095
 7037TIP3   OH242669   3.674   0.377   0.751
 7037TIP3    H142670   3.691   0.469   0.770
 7037TIP3    H242671   3.761   0.337   0.743
 7038TIP3   OH242672   3.465   0.532   0.965
 7038TIP3    H142673   3.428   0.522   0.878
 7038TIP3    H242674   3.399   0.496   1.024
 7039TIP3   OH242675   3.452   5.668   0.826
 7039TIP3    H142676   3.365   5.629   0.822
 7039TIP3    H242677   3.483   5.666   0.735
 7040TIP3   OH242678   4.712   5.247   7.452
 7040TIP3    H142679   4.708   5.226   7.545
 7040TIP3    H242680   4.801   5.222   7.426
 7041TIP3   OH242681   1.726   2.596   0.871
 7041TIP3    H142682   1.636   2.585   0.840
 7041TIP3    H242683   1.719   2.660   0.942
 7042TIP3   OH242684   6.037   4.605   8.448
 7042TIP3    H142685   6.124   4.645   8.450
 7042TIP3    H242686   5.985   4.660   8.507
 7043TIP3   OH242687   6.215   0.530   1.054
 7043TIP3    H142688   6.285   0.554   0.993
 7043TIP3    H242689   6.211   0.603   1.116
 7044TIP3   OH242690   4.737   4.341   0.104
 7044TIP3    H142691   4.809   4.374   0.051
 7044TIP3    H242692   4.711   4.417   0.158
 7045TIP3   OH242693   0.198   5.239   0.072
 7045TIP3    H142694   0.219   5.329   0.097
 7045TIP3    H242695   0.107   5.227   0.098
 7046TIP3   OH242696   3.925   2.845   0.137
 7046TIP3    H142697   3.947   2.752   0.147
 7046TIP3    H242698   3.839   2.854   0.178
 7047TIP3   OH242699   1.089   5.674   1.939
 7047TIP3    H142700   1.135   5.650   1.858
 7047TIP3    H242701   1.078   5.769   1.933
 7048TIP3   OH242702   5.421   6.307   7.678
 7048TIP3    H142703   5.469   6.281   7.599
 7048TIP3    H242704   5.346   6.247   7.682
 7049TIP3   OH242705   4.917   3.924   2.062
 7049TIP3    H142706   4.837   3.891   2.104
 7049TIP3    H242707   4.930   4.011   2.100
 7050TIP3   OH242708   4.636   2.863   8.343
 7050TIP3    H142709   4.631   2.815   8.260
 7050TIP3    H242710   4.556   2.837   8.390
 7051TIP3   OH242711   0.432   4.620   7.750
 7051TIP3    H142712   0.448   4.532   7.718
 7051TIP3    H242713   0.453   4.677   7.675
 7052TIP3   OH242714   1.329   2.583   7.945
 7052TIP3    H142715   1.243   2.548   7.922
 7052TIP3    H242716   1.372   2.597   7.861
 7053TIP3   OH242717   4.555   4.122   6.741
 7053TIP3    H142718   4.505   4.059   6.690
 7053TIP3    H242719   4.599   4.070   6.808
 7054TIP3   OH242720   3.572   1.076   0.891
 7054TIP3    H142721   3.664   1.095   0.873
 7054TIP3    H242722   3.564   0.981   0.875
 7055TIP3   OH242723   4.984   5.667   0.548
 7055TIP3    H142724   4.999   5.739   0.609
 7055TIP3    H242725   4.992   5.588   0.601
 7056TIP3   OH242726   4.666   3.879   0.419
 7056TIP3    H142727   4.670   3.962   0.373
 7056TIP3    H242728   4.753   3.868   0.458
 7057TIP3   OH242729   2.653   1.532   7.682
 7057TIP3    H142730   2.630   1.607   7.627
 7057TIP3    H242731   2.612   1.551   7.766
 7058TIP3   OH242732   5.342   1.956   0.509
 7058TIP3    H142733   5.379   1.876   0.546
 7058TIP3    H242734   5.417   2.015   0.498
 7059TIP3   OH242735   3.384   6.343   8.533
 7059TIP3    H142736   3.413   6.434   8.530
 7059TIP3    H242737   3.465   6.292   8.533
 7060TIP3   OH242738   2.134   1.751   1.625
 7060TIP3    H142739   2.081   1.831   1.628
 7060TIP3    H242740   2.093   1.693   1.690
 7061TIP3   OH242741   4.508   2.831   7.760
 7061TIP3    H142742   4.443   2.847   7.829
 7061TIP3    H242743   4.591   2.823   7.808
 7062TIP3   OH242744   4.949   1.381   1.442
 7062TIP3    H142745   4.960   1.345   1.530
 7062TIP3    H242746   4.960   1.476   1.453
 7063TIP3   OH242747   1.093   1.160   7.918
 7063TIP3    H142748   1.070   1.182   7.828
 7063TIP3    H242749   1.124   1.069   7.913
 7064TIP3   OH242750   6.668   1.696   6.828
 7064TIP3    H142751   6.679   1.721   6.736
 7064TIP3    H242752   6.751   1.654   6.851
 7065TIP3   OH242753   6.272   5.833   0.504
 7065TIP3    H142754   6.187   5.874   0.488
 7065TIP3    H242755   6.296   5.862   0.592
 7066TIP3   OH242756   3.803   2.816   0.997
 7066TIP3    H142757   3.743   2.829   1.070
 7066TIP3    H242758   3.747   2.789   0.924
 7067TIP3   OH242759   2.678   3.150   1.616
 7067TIP3    H142760   2.710   3.081   1.675
 7067TIP3    H242761   2.595   3.177   1.655
 7068TIP3   OH242762   3.965   2.568   0.315
 7068TIP3    H142763   3.990   2.484   0.355
 7068TIP3    H242764   3.996   2.634   0.377
 7069TIP3   OH242765   5.839   3.880   6.872
 7069TIP3    H142766   5.778   3.808   6.888
 7069TIP3    H242767   5.783   3.957   6.862
 7070TIP3   OH242768   3.563   4.625   1.179
 7070TIP3    H142769   3.629   4.601   1.244
 7070TIP3    H242770   3.607   4.687   1.121
 7071TIP3   OH242771   5.398   2.012   2.634
 7071TIP3    H142772   5.447   2.089   2.663
 7071TIP3    H242773   5.344   1.988   2.710
 7072LIG      O42774   5.411   4.843   7.048
 7072LIG     C142775   5.341   4.964   7.064
 7072LIG     C242776   5.299   4.979   7.212
 7072LIG     C342777   5.433   5.084   7.035
 7072LIG     H142778   5.255   4.968   6.994
 7072LIG     H242779   5.235   5.068   7.230
 7072LIG     H342780   5.389   4.987   7.276
 7072LIG     H442781   5.236   4.891   7.241
 7072LIG     H542782   5.450   5.088   6.926
 7072LIG     H642783   5.529   5.091   7.092
 7072LIG     H742784   5.380   5.179   7.058
 7072LIG     H842785   5.454   4.850   6.962
   6.82505   6.82505   8.78080
