Title t= 10500.00000 step= 5250000
42785
    1SAPS     N    1   3.870   3.656   6.663
    1SAPS   HN1    2   3.895   3.681   6.761
    1SAPS   HN2    3   3.890   3.737   6.601
    1SAPS   HN3    4   3.769   3.633   6.654
    1SAPS   C12    5   3.964   3.550   6.624
    1SAPS  H12A    6   4.064   3.590   6.621
    1SAPS   C13    7   3.955   3.424   6.711
    1SAPS  O13A    8   3.877   3.421   6.811
    1SAPS  O13B    9   4.034   3.333   6.682
    1SAPS   C11   10   3.927   3.503   6.484
    1SAPS  H11A   11   3.831   3.448   6.473
    1SAPS  H11B   12   4.003   3.429   6.452
    1SAPS     P   13   4.026   3.669   6.289
    1SAPS   O13   14   3.965   3.772   6.204
    1SAPS   O14   15   4.148   3.704   6.365
    1SAPS   O12   16   3.924   3.613   6.390
    1SAPS   O11   17   4.050   3.542   6.197
    1SAPS    C1   18   3.934   3.466   6.155
    1SAPS    HA   19   3.952   3.359   6.180
    1SAPS    HB   20   3.839   3.483   6.209
    1SAPS    C2   21   3.905   3.468   6.002
    1SAPS    HS   22   3.815   3.405   5.987
    1SAPS   O21   23   4.016   3.443   5.912
    1SAPS   C21   24   4.093   3.335   5.929
    1SAPS   O22   25   4.070   3.239   5.998
    1SAPS   C22   26   4.213   3.342   5.829
    1SAPS   H2R   27   4.183   3.350   5.722
    1SAPS   H2S   28   4.267   3.435   5.857
    1SAPS    C3   29   3.848   3.603   5.956
    1SAPS    HX   30   3.919   3.684   5.985
    1SAPS    HY   31   3.763   3.609   6.027
    1SAPS   O31   32   3.793   3.603   5.825
    1SAPS   C31   33   3.886   3.633   5.733
    1SAPS   O32   34   4.002   3.667   5.756
    1SAPS   C32   35   3.823   3.615   5.600
    1SAPS   H2X   36   3.729   3.672   5.596
    1SAPS   H2Y   37   3.800   3.507   5.587
    1SAPS   C23   38   4.306   3.223   5.837
    1SAPS   H3R   39   4.250   3.143   5.784
    1SAPS   H3S   40   4.326   3.205   5.945
    1SAPS   C24   41   4.430   3.250   5.752
    1SAPS   H4R   42   4.409   3.286   5.649
    1SAPS   H4S   43   4.482   3.152   5.744
    1SAPS   C25   44   4.523   3.353   5.816
    1SAPS   H5R   45   4.559   3.328   5.917
    1SAPS   C26   46   4.565   3.470   5.770
    1SAPS   H6R   47   4.630   3.533   5.833
    1SAPS   C27   48   4.525   3.535   5.643
    1SAPS   H7R   49   4.519   3.459   5.562
    1SAPS   H7S   50   4.603   3.608   5.613
    1SAPS   C28   51   4.394   3.611   5.641
    1SAPS   H8R   52   4.330   3.584   5.726
    1SAPS   C29   53   4.352   3.707   5.553
    1SAPS   H9R   54   4.256   3.758   5.569
    1SAPS  C210   55   4.428   3.746   5.429
    1SAPS  H10R   56   4.467   3.646   5.401
    1SAPS  H10S   57   4.501   3.830   5.431
    1SAPS  C211   58   4.331   3.789   5.320
    1SAPS  H11R   59   4.223   3.783   5.340
    1SAPS  C212   60   4.366   3.826   5.196
    1SAPS  H12R   61   4.281   3.840   5.128
    1SAPS  C213   62   4.498   3.841   5.133
    1SAPS  H13R   63   4.518   3.795   5.034
    1SAPS  H13S   64   4.585   3.795   5.186
    1SAPS  C214   65   4.531   3.985   5.120
    1SAPS  H14R   66   4.521   4.036   5.216
    1SAPS  C215   67   4.567   4.057   5.011
    1SAPS  H15R   68   4.581   4.166   5.018
    1SAPS  C216   69   4.570   4.001   4.873
    1SAPS  H16R   70   4.604   3.896   4.860
    1SAPS  H16S   71   4.641   4.052   4.805
    1SAPS  C217   72   4.429   4.009   4.804
    1SAPS  H17R   73   4.381   4.107   4.821
    1SAPS  H17S   74   4.358   3.931   4.839
    1SAPS  C218   75   4.428   3.978   4.659
    1SAPS  H18R   76   4.487   3.884   4.648
    1SAPS  H18S   77   4.479   4.055   4.596
    1SAPS  C219   78   4.290   3.950   4.595
    1SAPS  H19R   79   4.241   3.873   4.659
    1SAPS  H19S   80   4.294   3.903   4.495
    1SAPS  C220   81   4.190   4.067   4.590
    1SAPS  H20R   82   4.087   4.031   4.570
    1SAPS  H20S   83   4.218   4.134   4.506
    1SAPS  H20T   84   4.183   4.126   4.683
    1SAPS   C33   85   3.915   3.659   5.478
    1SAPS   H3X   86   4.021   3.627   5.490
    1SAPS   H3Y   87   3.913   3.770   5.470
    1SAPS   C34   88   3.863   3.601   5.350
    1SAPS   H4X   89   3.776   3.661   5.317
    1SAPS   H4Y   90   3.829   3.495   5.361
    1SAPS   C35   91   3.975   3.605   5.243
    1SAPS   H5X   92   4.061   3.550   5.286
    1SAPS   H5Y   93   4.001   3.710   5.219
    1SAPS   C36   94   3.926   3.536   5.116
    1SAPS   H6X   95   3.827   3.586   5.107
    1SAPS   H6Y   96   3.932   3.429   5.143
    1SAPS   C37   97   4.032   3.546   5.001
    1SAPS   H7X   98   4.026   3.647   4.956
    1SAPS   H7Y   99   4.001   3.486   4.913
    1SAPS   C38  100   4.174   3.506   5.041
    1SAPS   H8X  101   4.178   3.411   5.100
    1SAPS   H8Y  102   4.221   3.583   5.106
    1SAPS   C39  103   4.268   3.479   4.918
    1SAPS   H9X  104   4.239   3.545   4.833
    1SAPS   H9Y  105   4.286   3.370   4.907
    1SAPS  C310  106   4.414   3.534   4.946
    1SAPS  H10X  107   4.430   3.533   5.056
    1SAPS  H10Y  108   4.431   3.634   4.902
    1SAPS  C311  109   4.519   3.444   4.874
    1SAPS  H11X  110   4.481   3.427   4.771
    1SAPS  H11Y  111   4.532   3.343   4.918
    1SAPS  C312  112   4.656   3.509   4.878
    1SAPS  H12X  113   4.691   3.511   4.983
    1SAPS  H12Y  114   4.647   3.617   4.851
    1SAPS  C313  115   4.757   3.432   4.794
    1SAPS  H13X  116   4.739   3.324   4.807
    1SAPS  H13Y  117   4.862   3.457   4.821
    1SAPS  C314  118   4.743   3.448   4.640
    1SAPS  H14X  119   4.637   3.440   4.606
    1SAPS  H14Y  120   4.808   3.371   4.595
    1SAPS  C315  121   4.788   3.580   4.589
    1SAPS  H15X  122   4.743   3.655   4.657
    1SAPS  H15Y  123   4.749   3.603   4.488
    1SAPS  C316  124   4.937   3.581   4.571
    1SAPS  H16X  125   4.966   3.496   4.506
    1SAPS  H16Y  126   5.002   3.571   4.661
    1SAPS  C317  127   4.979   3.715   4.507
    1SAPS  H17X  128   4.924   3.734   4.412
    1SAPS  H17Y  129   5.088   3.707   4.487
    1SAPS  C318  130   4.949   3.826   4.602
    1SAPS  H18X  131   4.987   3.814   4.705
    1SAPS  H18Y  132   4.845   3.868   4.605
    1SAPS  H18Z  133   5.000   3.918   4.566
    2SAPS     N  134   4.680   5.752   6.506
    2SAPS   HN1  135   4.734   5.671   6.543
    2SAPS   HN2  136   4.588   5.712   6.481
    2SAPS   HN3  137   4.730   5.789   6.422
    2SAPS   C12  138   4.673   5.858   6.613
    2SAPS  H12A  139   4.573   5.900   6.615
    2SAPS   C13  140   4.690   5.803   6.759
    2SAPS  O13A  141   4.702   5.679   6.776
    2SAPS  O13B  142   4.668   5.883   6.854
    2SAPS   C11  143   4.784   5.958   6.583
    2SAPS  H11A  144   4.878   5.901   6.569
    2SAPS  H11B  145   4.804   6.037   6.659
    2SAPS     P  146   4.664   6.153   6.465
    2SAPS   O13  147   4.580   6.154   6.589
    2SAPS   O14  148   4.744   6.271   6.429
    2SAPS   O12  149   4.757   6.029   6.469
    2SAPS   O11  150   4.561   6.129   6.348
    2SAPS    C1  151   4.544   6.005   6.286
    2SAPS    HA  152   4.566   5.922   6.356
    2SAPS    HB  153   4.436   6.005   6.258
    2SAPS    C2  154   4.613   5.994   6.142
    2SAPS    HS  155   4.587   5.896   6.097
    2SAPS   O21  156   4.753   6.015   6.145
    2SAPS   C21  157   4.833   5.945   6.218
    2SAPS   O22  158   4.797   5.845   6.278
    2SAPS   C22  159   4.966   6.013   6.238
    2SAPS   H2R  160   4.956   6.103   6.303
    2SAPS   H2S  161   5.034   5.939   6.286
    2SAPS    C3  162   4.561   6.102   6.050
    2SAPS    HX  163   4.616   6.082   5.955
    2SAPS    HY  164   4.592   6.206   6.073
    2SAPS   O31  165   4.416   6.109   6.022
    2SAPS   C31  166   4.378   6.004   5.943
    2SAPS   O32  167   4.455   5.921   5.902
    2SAPS   C32  168   4.233   6.017   5.911
    2SAPS   H2X  169   4.169   6.027   6.002
    2SAPS   H2Y  170   4.195   5.926   5.861
    2SAPS   C23  171   5.039   6.065   6.110
    2SAPS   H3R  172   5.141   6.102   6.134
    2SAPS   H3S  173   4.983   6.151   6.067
    2SAPS   C24  174   5.051   5.958   6.008
    2SAPS   H4R  175   5.053   5.856   6.052
    2SAPS   H4S  176   5.146   5.976   5.953
    2SAPS   C25  177   4.939   5.970   5.898
    2SAPS   H5R  178   4.845   5.921   5.926
    2SAPS   C26  179   4.947   6.022   5.776
    2SAPS   H6R  180   4.858   6.006   5.713
    2SAPS   C27  181   5.062   6.090   5.715
    2SAPS   H7R  182   5.070   6.065   5.607
    2SAPS   H7S  183   5.159   6.050   5.750
    2SAPS   C28  184   5.058   6.239   5.736
    2SAPS   H8R  185   5.036   6.284   5.834
    2SAPS   C29  186   5.078   6.333   5.641
    2SAPS   H9R  187   5.078   6.438   5.672
    2SAPS  C210  188   5.104   6.319   5.498
    2SAPS  H10R  189   5.152   6.223   5.467
    2SAPS  H10S  190   5.179   6.394   5.463
    2SAPS  C211  191   4.969   6.325   5.421
    2SAPS  H11R  192   4.879   6.323   5.485
    2SAPS  C212  193   4.960   6.309   5.287
    2SAPS  H12R  194   4.858   6.323   5.250
    2SAPS  C213  195   5.082   6.294   5.195
    2SAPS  H13R  196   5.081   6.188   5.159
    2SAPS  H13S  197   5.175   6.315   5.252
    2SAPS  C214  198   5.071   6.383   5.078
    2SAPS  H14R  199   5.014   6.478   5.081
    2SAPS  C215  200   5.099   6.348   4.947
    2SAPS  H15R  201   5.079   6.424   4.869
    2SAPS  C216  202   5.156   6.214   4.905
    2SAPS  H16R  203   5.207   6.165   4.990
    2SAPS  H16S  204   5.240   6.226   4.834
    2SAPS  C217  205   5.051   6.129   4.829
    2SAPS  H17R  206   4.998   6.188   4.751
    2SAPS  H17S  207   4.981   6.091   4.907
    2SAPS  C218  208   5.116   6.014   4.748
    2SAPS  H18R  209   5.166   5.939   4.813
    2SAPS  H18S  210   5.191   6.063   4.682
    2SAPS  C219  211   5.009   5.940   4.670
    2SAPS  H19R  212   5.063   5.860   4.617
    2SAPS  H19S  213   4.974   6.006   4.588
    2SAPS  C220  214   4.891   5.882   4.741
    2SAPS  H20R  215   4.840   5.830   4.657
    2SAPS  H20S  216   4.830   5.954   4.800
    2SAPS  H20T  217   4.929   5.794   4.797
    2SAPS   C33  218   4.210   6.135   5.826
    2SAPS   H3X  219   4.242   6.230   5.873
    2SAPS   H3Y  220   4.100   6.139   5.818
    2SAPS   C34  221   4.252   6.140   5.681
    2SAPS   H4X  222   4.362   6.153   5.667
    2SAPS   H4Y  223   4.209   6.234   5.640
    2SAPS   C35  224   4.204   6.016   5.601
    2SAPS   H5X  225   4.100   5.998   5.635
    2SAPS   H5Y  226   4.256   5.924   5.636
    2SAPS   C36  227   4.215   6.019   5.444
    2SAPS   H6X  228   4.185   5.921   5.401
    2SAPS   H6Y  229   4.314   6.045   5.402
    2SAPS   C37  230   4.106   6.105   5.384
    2SAPS   H7X  231   4.119   6.212   5.413
    2SAPS   H7Y  232   4.011   6.082   5.437
    2SAPS   C38  233   4.061   6.086   5.233
    2SAPS   H8X  234   4.065   5.977   5.212
    2SAPS   H8Y  235   4.141   6.142   5.180
    2SAPS   C39  236   3.933   6.155   5.200
    2SAPS   H9X  237   3.956   6.263   5.214
    2SAPS   H9Y  238   3.856   6.128   5.275
    2SAPS  C310  239   3.889   6.123   5.053
    2SAPS  H10X  240   3.835   6.027   5.062
    2SAPS  H10Y  241   3.983   6.107   4.996
    2SAPS  C311  242   3.797   6.227   4.993
    2SAPS  H11X  243   3.859   6.315   4.965
    2SAPS  H11Y  244   3.716   6.257   5.063
    2SAPS  C312  245   3.743   6.169   4.866
    2SAPS  H12X  246   3.685   6.077   4.891
    2SAPS  H12Y  247   3.826   6.126   4.806
    2SAPS  C313  248   3.656   6.271   4.785
    2SAPS  H13X  249   3.708   6.363   4.750
    2SAPS  H13Y  250   3.573   6.303   4.852
    2SAPS  C314  251   3.587   6.199   4.664
    2SAPS  H14X  252   3.507   6.132   4.702
    2SAPS  H14Y  253   3.663   6.137   4.613
    2SAPS  C315  254   3.525   6.281   4.543
    2SAPS  H15X  255   3.524   6.210   4.457
    2SAPS  H15Y  256   3.594   6.366   4.519
    2SAPS  C316  257   3.377   6.330   4.558
    2SAPS  H16X  258   3.367   6.393   4.649
    2SAPS  H16Y  259   3.323   6.237   4.583
    2SAPS  C317  260   3.329   6.398   4.430
    2SAPS  H17X  261   3.331   6.322   4.349
    2SAPS  H17Y  262   3.397   6.479   4.397
    2SAPS  C318  263   3.193   6.454   4.445
    2SAPS  H18X  264   3.197   6.531   4.525
    2SAPS  H18Y  265   3.108   6.387   4.471
    2SAPS  H18Z  266   3.147   6.499   4.354
    3SAPS     N  267   4.834   4.153   6.783
    3SAPS   HN1  268   4.749   4.135   6.726
    3SAPS   HN2  269   4.832   4.119   6.882
    3SAPS   HN3  270   4.854   4.255   6.785
    3SAPS   C12  271   4.946   4.077   6.708
    3SAPS  H12A  272   5.035   4.136   6.725
    3SAPS   C13  273   4.974   3.936   6.756
    3SAPS  O13A  274   4.891   3.880   6.827
    3SAPS  O13B  275   5.069   3.877   6.699
    3SAPS   C11  276   4.914   4.094   6.554
    3SAPS  H11A  277   4.809   4.059   6.549
    3SAPS  H11B  278   4.983   4.033   6.492
    3SAPS     P  279   4.850   4.274   6.381
    3SAPS   O13  280   4.753   4.174   6.332
    3SAPS   O14  281   4.791   4.408   6.406
    3SAPS   O12  282   4.916   4.231   6.519
    3SAPS   O11  283   4.974   4.278   6.281
    3SAPS    C1  284   5.083   4.367   6.295
    3SAPS    HA  285   5.085   4.393   6.403
    3SAPS    HB  286   5.181   4.322   6.270
    3SAPS    C2  287   5.066   4.484   6.197
    3SAPS    HS  288   4.962   4.521   6.197
    3SAPS   O21  289   5.118   4.439   6.073
    3SAPS   C21  290   5.034   4.421   5.980
    3SAPS   O22  291   4.912   4.438   5.984
    3SAPS   C22  292   5.109   4.357   5.860
    3SAPS   H2R  293   5.202   4.414   5.841
    3SAPS   H2S  294   5.142   4.253   5.880
    3SAPS    C3  295   5.154   4.597   6.235
    3SAPS    HX  296   5.252   4.546   6.224
    3SAPS    HY  297   5.139   4.633   6.339
    3SAPS   O31  298   5.143   4.713   6.145
    3SAPS   C31  299   5.259   4.770   6.110
    3SAPS   O32  300   5.366   4.747   6.152
    3SAPS   C32  301   5.230   4.877   6.006
    3SAPS   H2X  302   5.310   4.952   6.021
    3SAPS   H2Y  303   5.132   4.927   6.026
    3SAPS   C23  304   5.025   4.358   5.737
    3SAPS   H3R  305   5.095   4.330   5.655
    3SAPS   H3S  306   4.989   4.461   5.716
    3SAPS   C24  307   4.899   4.271   5.730
    3SAPS   H4R  308   4.838   4.308   5.645
    3SAPS   H4S  309   4.833   4.283   5.818
    3SAPS   C25  310   4.927   4.127   5.722
    3SAPS   H5R  311   4.911   4.066   5.812
    3SAPS   C26  312   4.971   4.056   5.617
    3SAPS   H6R  313   4.975   3.947   5.630
    3SAPS   C27  314   5.008   4.110   5.483
    3SAPS   H7R  315   5.118   4.122   5.477
    3SAPS   H7S  316   4.973   4.214   5.466
    3SAPS   C28  317   4.969   4.021   5.376
    3SAPS   H8R  318   4.988   3.914   5.389
    3SAPS   C29  319   4.932   4.052   5.250
    3SAPS   H9R  320   4.908   3.974   5.176
    3SAPS  C210  321   4.920   4.194   5.196
    3SAPS  H10R  322   4.899   4.265   5.278
    3SAPS  H10S  323   4.835   4.188   5.124
    3SAPS  C211  324   5.045   4.230   5.121
    3SAPS  H11R  325   5.137   4.239   5.180
    3SAPS  C212  326   5.058   4.218   4.988
    3SAPS  H12R  327   5.145   4.263   4.937
    3SAPS  C213  328   4.942   4.188   4.895
    3SAPS  H13R  329   4.888   4.100   4.937
    3SAPS  H13S  330   4.998   4.148   4.808
    3SAPS  C214  331   4.855   4.311   4.866
    3SAPS  H14R  332   4.826   4.374   4.952
    3SAPS  C215  333   4.822   4.359   4.746
    3SAPS  H15R  334   4.752   4.443   4.735
    3SAPS  C216  335   4.849   4.296   4.612
    3SAPS  H16R  336   4.940   4.232   4.616
    3SAPS  H16S  337   4.873   4.378   4.541
    3SAPS  C217  338   4.744   4.194   4.568
    3SAPS  H17R  339   4.643   4.241   4.562
    3SAPS  H17S  340   4.749   4.105   4.634
    3SAPS  C218  341   4.764   4.149   4.424
    3SAPS  H18R  342   4.866   4.108   4.407
    3SAPS  H18S  343   4.753   4.236   4.357
    3SAPS  C219  344   4.667   4.046   4.374
    3SAPS  H19R  345   4.661   3.961   4.444
    3SAPS  H19S  346   4.572   4.098   4.349
    3SAPS  C220  347   4.717   3.987   4.240
    3SAPS  H20R  348   4.651   3.906   4.202
    3SAPS  H20S  349   4.819   3.946   4.255
    3SAPS  H20T  350   4.713   4.069   4.165
    3SAPS   C33  351   5.254   4.823   5.863
    3SAPS   H3X  352   5.333   4.746   5.859
    3SAPS   H3Y  353   5.275   4.909   5.797
    3SAPS   C34  354   5.123   4.758   5.813
    3SAPS   H4X  355   5.031   4.795   5.863
    3SAPS   H4Y  356   5.140   4.654   5.848
    3SAPS   C35  357   5.099   4.755   5.662
    3SAPS   H5X  358   4.996   4.714   5.660
    3SAPS   H5Y  359   5.114   4.861   5.632
    3SAPS   C36  360   5.200   4.665   5.591
    3SAPS   H6X  361   5.216   4.586   5.667
    3SAPS   H6Y  362   5.298   4.716   5.579
    3SAPS   C37  363   5.145   4.624   5.463
    3SAPS   H7X  364   5.039   4.595   5.481
    3SAPS   H7Y  365   5.195   4.531   5.426
    3SAPS   C38  366   5.151   4.721   5.352
    3SAPS   H8X  367   5.252   4.766   5.339
    3SAPS   H8Y  368   5.084   4.809   5.361
    3SAPS   C39  369   5.133   4.657   5.215
    3SAPS   H9X  370   5.039   4.598   5.216
    3SAPS   H9Y  371   5.217   4.586   5.196
    3SAPS  C310  372   5.127   4.760   5.098
    3SAPS  H10X  373   5.229   4.804   5.098
    3SAPS  H10Y  374   5.048   4.833   5.122
    3SAPS  C311  375   5.105   4.691   4.961
    3SAPS  H11X  376   5.005   4.642   4.968
    3SAPS  H11Y  377   5.191   4.623   4.946
    3SAPS  C312  378   5.104   4.790   4.844
    3SAPS  H12X  379   5.203   4.839   4.830
    3SAPS  H12Y  380   5.024   4.863   4.868
    3SAPS  C313  381   5.070   4.733   4.703
    3SAPS  H13X  382   5.076   4.815   4.628
    3SAPS  H13Y  383   4.969   4.686   4.706
    3SAPS  C314  384   5.159   4.620   4.660
    3SAPS  H14X  385   5.148   4.532   4.726
    3SAPS  H14Y  386   5.266   4.650   4.669
    3SAPS  C315  387   5.139   4.604   4.512
    3SAPS  H15X  388   5.125   4.703   4.463
    3SAPS  H15Y  389   5.041   4.555   4.494
    3SAPS  C316  390   5.247   4.528   4.432
    3SAPS  H16X  391   5.348   4.552   4.471
    3SAPS  H16Y  392   5.257   4.570   4.330
    3SAPS  C317  393   5.229   4.377   4.419
    3SAPS  H17X  394   5.158   4.350   4.337
    3SAPS  H17Y  395   5.191   4.329   4.512
    3SAPS  C318  396   5.368   4.314   4.392
    3SAPS  H18X  397   5.424   4.364   4.310
    3SAPS  H18Y  398   5.369   4.209   4.355
    3SAPS  H18Z  399   5.432   4.312   4.483
    4SAPS     N  400   2.016   2.357   6.823
    4SAPS   HN1  401   1.984   2.391   6.916
    4SAPS   HN2  402   1.944   2.302   6.772
    4SAPS   HN3  403   2.097   2.294   6.840
    4SAPS   C12  404   2.058   2.473   6.737
    4SAPS  H12A  405   1.981   2.546   6.755
    4SAPS   C13  406   2.190   2.529   6.799
    4SAPS  O13A  407   2.250   2.477   6.898
    4SAPS  O13B  408   2.246   2.613   6.728
    4SAPS   C11  409   2.056   2.439   6.582
    4SAPS  H11A  410   2.146   2.380   6.556
    4SAPS  H11B  411   2.071   2.535   6.528
    4SAPS     P  412   1.801   2.426   6.491
    4SAPS   O13  413   1.699   2.320   6.523
    4SAPS   O14  414   1.788   2.556   6.551
    4SAPS   O12  415   1.942   2.371   6.538
    4SAPS   O11  416   1.819   2.442   6.334
    4SAPS    C1  417   1.875   2.350   6.250
    4SAPS    HA  418   1.985   2.335   6.259
    4SAPS    HB  419   1.838   2.247   6.270
    4SAPS    C2  420   1.834   2.374   6.098
    4SAPS    HS  421   1.878   2.300   6.027
    4SAPS   O21  422   1.879   2.507   6.060
    4SAPS   C21  423   2.002   2.512   6.027
    4SAPS   O22  424   2.083   2.418   6.024
    4SAPS   C22  425   2.050   2.645   5.981
    4SAPS   H2R  426   2.095   2.696   6.069
    4SAPS   H2S  427   2.138   2.622   5.918
    4SAPS    C3  428   1.680   2.369   6.085
    4SAPS    HX  429   1.639   2.440   6.160
    4SAPS    HY  430   1.632   2.273   6.113
    4SAPS   O31  431   1.627   2.416   5.951
    4SAPS   C31  432   1.649   2.329   5.856
    4SAPS   O32  433   1.706   2.219   5.866
    4SAPS   C32  434   1.595   2.384   5.721
    4SAPS   H2X  435   1.683   2.436   5.678
    4SAPS   H2Y  436   1.506   2.441   5.754
    4SAPS   C23  437   1.932   2.736   5.925
    4SAPS   H3R  438   1.989   2.820   5.879
    4SAPS   H3S  439   1.880   2.795   6.003
    4SAPS   C24  440   1.853   2.681   5.811
    4SAPS   H4R  441   1.804   2.586   5.841
    4SAPS   H4S  442   1.928   2.657   5.732
    4SAPS   C25  443   1.742   2.773   5.763
    4SAPS   H5R  444   1.669   2.812   5.836
    4SAPS   C26  445   1.721   2.809   5.636
    4SAPS   H6R  446   1.643   2.886   5.628
    4SAPS   C27  447   1.795   2.769   5.512
    4SAPS   H7R  448   1.841   2.670   5.527
    4SAPS   H7S  449   1.870   2.850   5.498
    4SAPS   C28  450   1.690   2.753   5.404
    4SAPS   H8R  451   1.602   2.691   5.428
    4SAPS   C29  452   1.709   2.785   5.279
    4SAPS   H9R  453   1.624   2.775   5.209
    4SAPS  C210  454   1.838   2.850   5.224
    4SAPS  H10R  455   1.931   2.845   5.285
    4SAPS  H10S  456   1.814   2.957   5.206
    4SAPS  C211  457   1.877   2.778   5.100
    4SAPS  H11R  458   1.936   2.686   5.112
    4SAPS  C212  459   1.848   2.819   4.976
    4SAPS  H12R  460   1.874   2.759   4.888
    4SAPS  C213  461   1.773   2.941   4.941
    4SAPS  H13R  462   1.718   2.967   5.034
    4SAPS  H13S  463   1.704   2.915   4.858
    4SAPS  C214  464   1.872   3.049   4.901
    4SAPS  H14R  465   1.892   3.116   4.987
    4SAPS  C215  466   1.925   3.078   4.785
    4SAPS  H15R  467   1.990   3.166   4.780
    4SAPS  C216  468   1.908   3.000   4.656
    4SAPS  H16R  469   1.856   3.067   4.584
    4SAPS  H16S  470   1.850   2.906   4.673
    4SAPS  C217  471   2.034   2.978   4.571
    4SAPS  H17R  472   2.013   2.917   4.480
    4SAPS  H17S  473   2.107   2.928   4.639
    4SAPS  C218  474   2.096   3.112   4.524
    4SAPS  H18R  475   2.128   3.172   4.612
    4SAPS  H18S  476   2.020   3.161   4.460
    4SAPS  C219  477   2.225   3.109   4.442
    4SAPS  H19R  478   2.307   3.064   4.503
    4SAPS  H19S  479   2.254   3.214   4.418
    4SAPS  C220  480   2.216   3.046   4.307
    4SAPS  H20R  481   2.166   2.947   4.320
    4SAPS  H20S  482   2.305   3.047   4.241
    4SAPS  H20T  483   2.139   3.092   4.242
    4SAPS   C33  484   1.564   2.278   5.611
    4SAPS   H3X  485   1.480   2.218   5.654
    4SAPS   H3Y  486   1.650   2.214   5.585
    4SAPS   C34  487   1.518   2.356   5.488
    4SAPS   H4X  488   1.577   2.446   5.460
    4SAPS   H4Y  489   1.423   2.413   5.501
    4SAPS   C35  490   1.498   2.264   5.371
    4SAPS   H5X  491   1.424   2.186   5.402
    4SAPS   H5Y  492   1.595   2.216   5.347
    4SAPS   C36  493   1.448   2.336   5.246
    4SAPS   H6X  494   1.383   2.425   5.259
    4SAPS   H6Y  495   1.384   2.264   5.191
    4SAPS   C37  496   1.555   2.383   5.156
    4SAPS   H7X  497   1.631   2.308   5.126
    4SAPS   H7Y  498   1.625   2.449   5.210
    4SAPS   C38  499   1.504   2.463   5.029
    4SAPS   H8X  500   1.445   2.551   5.062
    4SAPS   H8Y  501   1.426   2.405   4.975
    4SAPS   C39  502   1.618   2.492   4.925
    4SAPS   H9X  503   1.673   2.397   4.906
    4SAPS   H9Y  504   1.690   2.560   4.975
    4SAPS  C310  505   1.587   2.554   4.797
    4SAPS  H10X  506   1.680   2.593   4.751
    4SAPS  H10Y  507   1.527   2.643   4.824
    4SAPS  C311  508   1.504   2.467   4.695
    4SAPS  H11X  509   1.402   2.460   4.739
    4SAPS  H11Y  510   1.549   2.365   4.688
    4SAPS  C312  511   1.501   2.518   4.554
    4SAPS  H12X  512   1.455   2.444   4.484
    4SAPS  H12Y  513   1.603   2.535   4.514
    4SAPS  C313  514   1.433   2.645   4.527
    4SAPS  H13X  515   1.499   2.723   4.572
    4SAPS  H13Y  516   1.332   2.649   4.572
    4SAPS  C314  517   1.402   2.661   4.378
    4SAPS  H14X  518   1.336   2.580   4.341
    4SAPS  H14Y  519   1.497   2.667   4.321
    4SAPS  C315  520   1.330   2.795   4.346
    4SAPS  H15X  521   1.232   2.809   4.397
    4SAPS  H15Y  522   1.300   2.795   4.239
    4SAPS  C316  523   1.422   2.917   4.374
    4SAPS  H16X  524   1.518   2.889   4.324
    4SAPS  H16Y  525   1.437   2.903   4.483
    4SAPS  C317  526   1.372   3.050   4.322
    4SAPS  H17X  527   1.353   3.040   4.213
    4SAPS  H17Y  528   1.456   3.120   4.341
    4SAPS  C318  529   1.233   3.093   4.373
    4SAPS  H18X  530   1.210   3.196   4.337
    4SAPS  H18Y  531   1.250   3.086   4.482
    4SAPS  H18Z  532   1.155   3.020   4.343
    5SAPS     N  533   4.804   4.622   6.558
    5SAPS   HN1  534   4.877   4.687   6.523
    5SAPS   HN2  535   4.807   4.542   6.490
    5SAPS   HN3  536   4.704   4.651   6.547
    5SAPS   C12  537   4.854   4.590   6.697
    5SAPS  H12A  538   4.820   4.669   6.762
    5SAPS   C13  539   4.792   4.471   6.760
    5SAPS  O13A  540   4.680   4.425   6.723
    5SAPS  O13B  541   4.844   4.418   6.862
    5SAPS   C11  542   5.002   4.561   6.669
    5SAPS  H11A  543   5.002   4.470   6.605
    5SAPS  H11B  544   5.050   4.528   6.764
    5SAPS     P  545   5.239   4.681   6.637
    5SAPS   O13  546   5.316   4.712   6.514
    5SAPS   O14  547   5.250   4.771   6.749
    5SAPS   O12  548   5.081   4.663   6.607
    5SAPS   O11  549   5.285   4.544   6.690
    5SAPS    C1  550   5.420   4.500   6.667
    5SAPS    HA  551   5.493   4.571   6.622
    5SAPS    HB  552   5.469   4.474   6.764
    5SAPS    C2  553   5.420   4.368   6.572
    5SAPS    HS  554   5.508   4.304   6.597
    5SAPS   O21  555   5.399   4.403   6.433
    5SAPS   C21  556   5.515   4.372   6.363
    5SAPS   O22  557   5.624   4.379   6.421
    5SAPS   C22  558   5.482   4.320   6.228
    5SAPS   H2R  559   5.455   4.213   6.235
    5SAPS   H2S  560   5.391   4.368   6.185
    5SAPS    C3  561   5.308   4.272   6.623
    5SAPS    HX  562   5.213   4.330   6.627
    5SAPS    HY  563   5.334   4.246   6.728
    5SAPS   O31  564   5.302   4.154   6.537
    5SAPS   C31  565   5.353   4.044   6.584
    5SAPS   O32  566   5.408   4.032   6.693
    5SAPS   C32  567   5.309   3.933   6.481
    5SAPS   H2X  568   5.202   3.912   6.505
    5SAPS   H2Y  569   5.376   3.846   6.495
    5SAPS   C23  570   5.595   4.337   6.131
    5SAPS   H3R  571   5.677   4.272   6.170
    5SAPS   H3S  572   5.637   4.439   6.119
    5SAPS   C24  573   5.552   4.288   5.992
    5SAPS   H4R  574   5.509   4.185   6.001
    5SAPS   H4S  575   5.646   4.264   5.937
    5SAPS   C25  576   5.467   4.385   5.917
    5SAPS   H5R  577   5.383   4.429   5.973
    5SAPS   C26  578   5.492   4.437   5.801
    5SAPS   H6R  579   5.427   4.519   5.764
    5SAPS   C27  580   5.599   4.395   5.702
    5SAPS   H7R  581   5.662   4.317   5.749
    5SAPS   H7S  582   5.668   4.479   5.680
    5SAPS   C28  583   5.522   4.344   5.581
    5SAPS   H8R  584   5.480   4.243   5.593
    5SAPS   C29  585   5.497   4.418   5.471
    5SAPS   H9R  586   5.452   4.365   5.385
    5SAPS  C210  587   5.522   4.568   5.443
    5SAPS  H10R  588   5.559   4.608   5.540
    5SAPS  H10S  589   5.425   4.613   5.413
    5SAPS  C211  590   5.629   4.592   5.342
    5SAPS  H11R  591   5.690   4.507   5.310
    5SAPS  C212  592   5.651   4.702   5.275
    5SAPS  H12R  593   5.729   4.706   5.197
    5SAPS  C213  594   5.570   4.835   5.283
    5SAPS  H13R  595   5.489   4.835   5.358
    5SAPS  H13S  596   5.507   4.842   5.191
    5SAPS  C214  597   5.651   4.959   5.292
    5SAPS  H14R  598   5.687   4.999   5.196
    5SAPS  C215  599   5.672   5.033   5.406
    5SAPS  H15R  600   5.734   5.124   5.400
    5SAPS  C216  601   5.633   4.995   5.543
    5SAPS  H16R  602   5.526   4.964   5.547
    5SAPS  H16S  603   5.641   5.083   5.611
    5SAPS  C217  604   5.726   4.882   5.598
    5SAPS  H17R  605   5.833   4.906   5.586
    5SAPS  H17S  606   5.703   4.803   5.523
    5SAPS  C218  607   5.702   4.840   5.751
    5SAPS  H18R  608   5.756   4.746   5.777
    5SAPS  H18S  609   5.595   4.817   5.770
    5SAPS  C219  610   5.761   4.950   5.837
    5SAPS  H19R  611   5.711   5.047   5.816
    5SAPS  H19S  612   5.866   4.960   5.802
    5SAPS  C220  613   5.761   4.928   5.984
    5SAPS  H20R  614   5.858   4.882   6.010
    5SAPS  H20S  615   5.677   4.864   6.019
    5SAPS  H20T  616   5.770   5.018   6.049
    5SAPS   C33  617   5.322   3.960   6.326
    5SAPS   H3X  618   5.357   3.864   6.283
    5SAPS   H3Y  619   5.386   4.043   6.290
    5SAPS   C34  620   5.193   3.994   6.248
    5SAPS   H4X  621   5.143   4.077   6.301
    5SAPS   H4Y  622   5.126   3.906   6.259
    5SAPS   C35  623   5.228   4.044   6.106
    5SAPS   H5X  624   5.279   4.142   6.105
    5SAPS   H5Y  625   5.130   4.061   6.056
    5SAPS   C36  626   5.310   3.952   6.017
    5SAPS   H6X  627   5.279   3.848   6.042
    5SAPS   H6Y  628   5.420   3.966   6.025
    5SAPS   C37  629   5.271   3.971   5.864
    5SAPS   H7X  630   5.313   4.070   5.834
    5SAPS   H7Y  631   5.161   3.965   5.849
    5SAPS   C38  632   5.337   3.875   5.772
    5SAPS   H8X  633   5.296   3.771   5.774
    5SAPS   H8Y  634   5.439   3.859   5.812
    5SAPS   C39  635   5.345   3.921   5.629
    5SAPS   H9X  636   5.421   4.000   5.613
    5SAPS   H9Y  637   5.250   3.968   5.595
    5SAPS  C310  638   5.369   3.814   5.522
    5SAPS  H10X  639   5.273   3.759   5.526
    5SAPS  H10Y  640   5.454   3.746   5.548
    5SAPS  C311  641   5.382   3.885   5.387
    5SAPS  H11X  642   5.306   3.965   5.376
    5SAPS  H11Y  643   5.375   3.807   5.308
    5SAPS  C312  644   5.519   3.954   5.343
    5SAPS  H12X  645   5.597   3.875   5.352
    5SAPS  H12Y  646   5.541   4.033   5.418
    5SAPS  C313  647   5.511   4.031   5.209
    5SAPS  H13X  648   5.415   4.088   5.208
    5SAPS  H13Y  649   5.511   3.956   5.127
    5SAPS  C314  650   5.628   4.131   5.180
    5SAPS  H14X  651   5.727   4.091   5.210
    5SAPS  H14Y  652   5.606   4.218   5.246
    5SAPS  C315  653   5.639   4.168   5.023
    5SAPS  H15X  654   5.655   4.064   4.985
    5SAPS  H15Y  655   5.722   4.237   4.997
    5SAPS  C316  656   5.516   4.243   4.959
    5SAPS  H16X  657   5.484   4.315   5.037
    5SAPS  H16Y  658   5.428   4.176   4.946
    5SAPS  C317  659   5.536   4.301   4.819
    5SAPS  H17X  660   5.541   4.217   4.747
    5SAPS  H17Y  661   5.621   4.373   4.818
    5SAPS  C318  662   5.421   4.401   4.773
    5SAPS  H18X  663   5.335   4.343   4.733
    5SAPS  H18Y  664   5.459   4.476   4.700
    5SAPS  H18Z  665   5.376   4.460   4.856
    6SAPS     N  666   3.022   3.851   6.334
    6SAPS   HN1  667   3.088   3.839   6.255
    6SAPS   HN2  668   2.963   3.765   6.339
    6SAPS   HN3  669   2.957   3.931   6.318
    6SAPS   C12  670   3.082   3.873   6.470
    6SAPS  H12A  671   2.994   3.880   6.533
    6SAPS   C13  672   3.147   3.747   6.535
    6SAPS  O13A  673   3.148   3.636   6.463
    6SAPS  O13B  674   3.165   3.760   6.657
    6SAPS   C11  675   3.179   3.994   6.483
    6SAPS  H11A  676   3.276   3.985   6.430
    6SAPS  H11B  677   3.197   4.010   6.592
    6SAPS     P  678   3.175   4.245   6.419
    6SAPS   O13  679   3.090   4.354   6.379
    6SAPS   O14  680   3.253   4.271   6.537
    6SAPS   O12  681   3.100   4.109   6.442
    6SAPS   O11  682   3.267   4.223   6.289
    6SAPS    C1  683   3.243   4.122   6.192
    6SAPS    HA  684   3.299   4.028   6.207
    6SAPS    HB  685   3.140   4.084   6.183
    6SAPS    C2  686   3.275   4.179   6.050
    6SAPS    HS  687   3.384   4.185   6.029
    6SAPS   O21  688   3.212   4.307   6.029
    6SAPS   C21  689   3.288   4.419   6.051
    6SAPS   O22  690   3.412   4.423   6.059
    6SAPS   C22  691   3.183   4.526   6.082
    6SAPS   H2R  692   3.081   4.484   6.094
    6SAPS   H2S  693   3.209   4.569   6.181
    6SAPS    C3  694   3.215   4.086   5.939
    6SAPS    HX  695   3.109   4.079   5.972
    6SAPS    HY  696   3.271   3.991   5.956
    6SAPS   O31  697   3.233   4.142   5.812
    6SAPS   C31  698   3.239   4.070   5.707
    6SAPS   O32  699   3.237   3.950   5.707
    6SAPS   C32  700   3.244   4.159   5.586
    6SAPS   H2X  701   3.327   4.232   5.598
    6SAPS   H2Y  702   3.152   4.221   5.593
    6SAPS   C23  703   3.195   4.652   5.992
    6SAPS   H3R  704   3.208   4.620   5.886
    6SAPS   H3S  705   3.285   4.708   6.023
    6SAPS   C24  706   3.072   4.743   5.995
    6SAPS   H4R  707   3.078   4.809   5.905
    6SAPS   H4S  708   3.085   4.817   6.078
    6SAPS   C25  709   2.940   4.668   5.987
    6SAPS   H5R  710   2.889   4.654   6.083
    6SAPS   C26  711   2.887   4.602   5.886
    6SAPS   H6R  712   2.791   4.549   5.897
    6SAPS   C27  713   2.937   4.604   5.745
    6SAPS   H7R  714   2.995   4.510   5.736
    6SAPS   H7S  715   3.007   4.690   5.734
    6SAPS   C28  716   2.830   4.597   5.638
    6SAPS   H8R  717   2.768   4.506   5.640
    6SAPS   C29  718   2.808   4.683   5.533
    6SAPS   H9R  719   2.719   4.655   5.474
    6SAPS  C210  720   2.871   4.819   5.505
    6SAPS  H10R  721   2.874   4.837   5.395
    6SAPS  H10S  722   2.975   4.822   5.543
    6SAPS  C211  723   2.805   4.926   5.586
    6SAPS  H11R  724   2.831   4.915   5.692
    6SAPS  C212  725   2.731   5.025   5.538
    6SAPS  H12R  726   2.700   5.107   5.605
    6SAPS  C213  727   2.695   5.050   5.396
    6SAPS  H13R  728   2.741   4.983   5.320
    6SAPS  H13S  729   2.727   5.153   5.369
    6SAPS  C214  730   2.542   5.061   5.377
    6SAPS  H14R  731   2.478   5.013   5.451
    6SAPS  C215  732   2.481   5.113   5.270
    6SAPS  H15R  733   2.371   5.124   5.274
    6SAPS  C216  734   2.547   5.181   5.150
    6SAPS  H16R  735   2.652   5.214   5.166
    6SAPS  H16S  736   2.494   5.278   5.137
    6SAPS  C217  737   2.543   5.086   5.029
    6SAPS  H17R  738   2.538   5.162   4.948
    6SAPS  H17S  739   2.442   5.039   5.026
    6SAPS  C218  740   2.658   4.982   5.027
    6SAPS  H18R  741   2.659   4.914   5.116
    6SAPS  H18S  742   2.756   5.033   5.038
    6SAPS  C219  743   2.669   4.904   4.887
    6SAPS  H19R  744   2.701   4.978   4.811
    6SAPS  H19S  745   2.564   4.877   4.862
    6SAPS  C220  746   2.771   4.793   4.883
    6SAPS  H20R  747   2.776   4.731   4.975
    6SAPS  H20S  748   2.871   4.842   4.881
    6SAPS  H20T  749   2.765   4.714   4.805
    6SAPS   C33  750   3.254   4.082   5.453
    6SAPS   H3X  751   3.199   3.986   5.454
    6SAPS   H3Y  752   3.363   4.058   5.450
    6SAPS   C34  753   3.191   4.151   5.332
    6SAPS   H4X  754   3.206   4.261   5.339
    6SAPS   H4Y  755   3.083   4.128   5.334
    6SAPS   C35  756   3.256   4.112   5.202
    6SAPS   H5X  757   3.251   4.001   5.189
    6SAPS   H5Y  758   3.366   4.115   5.218
    6SAPS   C36  759   3.186   4.172   5.073
    6SAPS   H6X  760   3.169   4.280   5.088
    6SAPS   H6Y  761   3.083   4.128   5.080
    6SAPS   C37  762   3.273   4.144   4.943
    6SAPS   H7X  763   3.330   4.049   4.950
    6SAPS   H7Y  764   3.348   4.227   4.942
    6SAPS   C38  765   3.193   4.161   4.811
    6SAPS   H8X  766   3.158   4.265   4.825
    6SAPS   H8Y  767   3.105   4.094   4.811
    6SAPS   C39  768   3.277   4.129   4.685
    6SAPS   H9X  769   3.329   4.032   4.701
    6SAPS   H9Y  770   3.360   4.201   4.676
    6SAPS  C310  771   3.186   4.122   4.558
    6SAPS  H10X  772   3.124   4.213   4.543
    6SAPS  H10Y  773   3.132   4.026   4.574
    6SAPS  C311  774   3.259   4.108   4.424
    6SAPS  H11X  775   3.309   4.009   4.434
    6SAPS  H11Y  776   3.334   4.189   4.420
    6SAPS  C312  777   3.165   4.125   4.301
    6SAPS  H12X  778   3.128   4.229   4.286
    6SAPS  H12Y  779   3.070   4.068   4.299
    6SAPS  C313  780   3.234   4.096   4.160
    6SAPS  H13X  781   3.284   3.997   4.169
    6SAPS  H13Y  782   3.308   4.177   4.141
    6SAPS  C314  783   3.137   4.089   4.053
    6SAPS  H14X  784   3.070   4.177   4.049
    6SAPS  H14Y  785   3.068   4.003   4.062
    6SAPS  C315  786   3.209   4.075   3.916
    6SAPS  H15X  787   3.263   3.979   3.902
    6SAPS  H15Y  788   3.284   4.154   3.895
    6SAPS  C316  789   3.107   4.079   3.805
    6SAPS  H16X  790   3.052   4.175   3.804
    6SAPS  H16Y  791   3.027   4.005   3.821
    6SAPS  C317  792   3.167   4.039   3.673
    6SAPS  H17X  793   3.219   3.942   3.689
    6SAPS  H17Y  794   3.240   4.119   3.649
    6SAPS  C318  795   3.064   4.041   3.569
    6SAPS  H18X  796   3.099   3.998   3.472
    6SAPS  H18Y  797   3.030   4.144   3.545
    6SAPS  H18Z  798   2.975   3.980   3.597
    7SAPS     N  799   2.981   6.801   6.648
    7SAPS   HN1  800   3.077   6.778   6.616
    7SAPS   HN2  801   2.960   0.017   6.609
    7SAPS   HN3  802   2.974   6.804   6.752
    7SAPS   C12  803   2.881   6.695   6.599
    7SAPS  H12A  804   2.927   6.598   6.602
    7SAPS   C13  805   2.748   6.683   6.677
    7SAPS  O13A  806   2.706   6.770   6.757
    7SAPS  O13B  807   2.661   6.604   6.624
    7SAPS   C11  808   2.869   6.734   6.454
    7SAPS  H11A  809   2.816   6.830   6.444
    7SAPS  H11B  810   2.801   6.659   6.407
    7SAPS     P  811   3.064   6.853   6.319
    7SAPS   O13  812   3.088   0.079   6.428
    7SAPS   O14  813   3.182   6.809   6.246
    7SAPS   O12  814   2.993   6.732   6.388
    7SAPS   O11  815   2.960   0.027   6.205
    7SAPS    C1  816   2.928   6.807   6.101
    7SAPS    HA  817   3.019   6.749   6.075
    7SAPS    HB  818   2.840   6.750   6.138
    7SAPS    C2  819   2.880   0.006   5.973
    7SAPS    HS  820   2.838   6.810   5.902
    7SAPS   O21  821   2.980   0.093   5.921
    7SAPS   C21  822   3.067   0.031   5.846
    7SAPS   O22  823   3.067   6.796   5.819
    7SAPS   C22  824   3.176   0.127   5.798
    7SAPS   H2R  825   3.169   0.232   5.834
    7SAPS   H2S  826   3.273   0.095   5.842
    7SAPS    C3  827   2.756   0.096   6.014
    7SAPS    HX  828   2.799   0.169   6.086
    7SAPS    HY  829   2.698   0.032   6.085
    7SAPS   O31  830   2.671   0.156   5.906
    7SAPS   C31  831   2.705   0.278   5.868
    7SAPS   O32  832   2.779   0.350   5.932
    7SAPS   C32  833   2.644   0.318   5.736
    7SAPS   H2X  834   2.561   0.246   5.719
    7SAPS   H2Y  835   2.719   0.280   5.664
    7SAPS   C23  836   3.189   0.122   5.645
    7SAPS   H3R  837   3.092   0.108   5.594
    7SAPS   H3S  838   3.236   0.027   5.612
    7SAPS   C24  839   3.269   0.239   5.584
    7SAPS   H4R  840   3.211   0.330   5.610
    7SAPS   H4S  841   3.263   0.219   5.474
    7SAPS   C25  842   3.413   0.256   5.627
    7SAPS   H5R  843   3.448   0.166   5.679
    7SAPS   C26  844   3.492   0.360   5.610
    7SAPS   H6R  845   3.594   0.346   5.648
    7SAPS   C27  846   3.457   0.483   5.533
    7SAPS   H7R  847   3.501   0.569   5.588
    7SAPS   H7S  848   3.347   0.499   5.540
    7SAPS   C28  849   3.513   0.472   5.390
    7SAPS   H8R  850   3.622   0.467   5.393
    7SAPS   C29  851   3.437   0.474   5.276
    7SAPS   H9R  852   3.494   0.485   5.182
    7SAPS  C210  853   3.287   0.475   5.264
    7SAPS  H10R  854   3.232   0.512   5.354
    7SAPS  H10S  855   3.241   0.374   5.250
    7SAPS  C211  856   3.261   0.576   5.156
    7SAPS  H11R  857   3.235   0.674   5.198
    7SAPS  C212  858   3.214   0.566   5.032
    7SAPS  H12R  859   3.185   0.657   4.978
    7SAPS  C213  860   3.190   0.437   4.958
    7SAPS  H13R  861   3.084   0.401   4.966
    7SAPS  H13S  862   3.254   0.356   4.998
    7SAPS  C214  863   3.203   0.462   4.805
    7SAPS  H14R  864   3.225   0.567   4.781
    7SAPS  C215  865   3.198   0.366   4.711
    7SAPS  H15R  866   3.212   0.401   4.607
    7SAPS  C216  867   3.182   0.214   4.730
    7SAPS  H16R  868   3.119   0.188   4.818
    7SAPS  H16S  869   3.283   0.172   4.746
    7SAPS  C217  870   3.115   0.132   4.614
    7SAPS  H17R  871   3.192   0.132   4.533
    7SAPS  H17S  872   3.028   0.193   4.583
    7SAPS  C218  873   3.089   6.860   4.641
    7SAPS  H18R  874   3.031   6.844   4.735
    7SAPS  H18S  875   3.187   6.810   4.654
    7SAPS  C219  876   3.005   6.788   4.532
    7SAPS  H19R  877   2.977   6.690   4.575
    7SAPS  H19S  878   3.076   6.774   4.448
    7SAPS  C220  879   2.873   6.859   4.486
    7SAPS  H20R  880   2.799   0.003   4.566
    7SAPS  H20S  881   2.833   6.787   4.412
    7SAPS  H20T  882   2.899   0.072   4.428
    7SAPS   C33  883   2.616   0.467   5.712
    7SAPS   H3X  884   2.713   0.519   5.705
    7SAPS   H3Y  885   2.564   0.520   5.795
    7SAPS   C34  886   2.542   0.486   5.579
    7SAPS   H4X  887   2.618   0.461   5.502
    7SAPS   H4Y  888   2.516   0.593   5.565
    7SAPS   C35  889   2.411   0.405   5.546
    7SAPS   H5X  890   2.329   0.452   5.603
    7SAPS   H5Y  891   2.417   0.300   5.584
    7SAPS   C36  892   2.365   0.400   5.398
    7SAPS   H6X  893   2.277   0.336   5.379
    7SAPS   H6Y  894   2.446   0.347   5.343
    7SAPS   C37  895   2.342   0.536   5.340
    7SAPS   H7X  896   2.324   0.599   5.430
    7SAPS   H7Y  897   2.254   0.543   5.273
    7SAPS   C38  898   2.461   0.592   5.263
    7SAPS   H8X  899   2.554   0.569   5.320
    7SAPS   H8Y  900   2.446   0.700   5.243
    7SAPS   C39  901   2.466   0.519   5.126
    7SAPS   H9X  902   2.361   0.511   5.090
    7SAPS   H9Y  903   2.512   0.421   5.149
    7SAPS  C310  904   2.548   0.585   5.020
    7SAPS  H10X  905   2.563   0.517   4.934
    7SAPS  H10Y  906   2.652   0.595   5.057
    7SAPS  C311  907   2.504   0.724   4.969
    7SAPS  H11X  908   2.582   0.773   4.907
    7SAPS  H11Y  909   2.492   0.796   5.052
    7SAPS  C312  910   2.365   0.735   4.891
    7SAPS  H12X  911   2.318   0.828   4.928
    7SAPS  H12Y  912   2.293   0.660   4.929
    7SAPS  C313  913   2.367   0.729   4.741
    7SAPS  H13X  914   2.434   0.653   4.696
    7SAPS  H13Y  915   2.408   0.825   4.701
    7SAPS  C314  916   2.225   0.714   4.672
    7SAPS  H14X  917   2.165   0.806   4.689
    7SAPS  H14Y  918   2.157   0.643   4.723
    7SAPS  C315  919   2.248   0.698   4.518
    7SAPS  H15X  920   2.287   0.595   4.505
    7SAPS  H15Y  921   2.323   0.775   4.489
    7SAPS  C316  922   2.126   0.705   4.427
    7SAPS  H16X  923   2.093   0.811   4.437
    7SAPS  H16Y  924   2.049   0.644   4.478
    7SAPS  C317  925   2.160   0.673   4.282
    7SAPS  H17X  926   2.189   0.567   4.267
    7SAPS  H17Y  927   2.249   0.737   4.264
    7SAPS  C318  928   2.043   0.723   4.193
    7SAPS  H18X  929   2.054   0.833   4.182
    7SAPS  H18Y  930   1.947   0.697   4.244
    7SAPS  H18Z  931   2.062   0.679   4.093
    8SAPS     N  932   1.934   1.420   6.526
    8SAPS   HN1  933   1.956   1.512   6.483
    8SAPS   HN2  934   1.902   1.359   6.449
    8SAPS   HN3  935   1.844   1.438   6.577
    8SAPS   C12  936   2.039   1.327   6.583
    8SAPS  H12A  937   2.086   1.382   6.664
    8SAPS   C13  938   1.992   1.197   6.649
    8SAPS  O13A  939   1.875   1.157   6.626
    8SAPS  O13B  940   2.064   1.137   6.733
    8SAPS   C11  941   2.151   1.300   6.476
    8SAPS  H11A  942   2.102   1.226   6.410
    8SAPS  H11B  943   2.241   1.255   6.524
    8SAPS     P  944   2.296   1.523   6.443
    8SAPS   O13  945   2.273   1.638   6.348
    8SAPS   O14  946   2.278   1.551   6.587
    8SAPS   O12  947   2.187   1.415   6.401
    8SAPS   O11  948   2.435   1.453   6.420
    8SAPS    C1  949   2.451   1.358   6.306
    8SAPS    HA  950   2.543   1.297   6.321
    8SAPS    HB  951   2.365   1.293   6.279
    8SAPS    C2  952   2.480   1.438   6.175
    8SAPS    HS  953   2.380   1.479   6.146
    8SAPS   O21  954   2.536   1.347   6.083
    8SAPS   C21  955   2.505   1.365   5.953
    8SAPS   O22  956   2.439   1.456   5.906
    8SAPS   C22  957   2.570   1.253   5.877
    8SAPS   H2R  958   2.664   1.219   5.924
    8SAPS   H2S  959   2.509   1.160   5.878
    8SAPS    C3  960   2.581   1.557   6.203
    8SAPS    HX  961   2.677   1.514   6.241
    8SAPS    HY  962   2.531   1.619   6.281
    8SAPS   O31  963   2.596   1.645   6.088
    8SAPS   C31  964   2.706   1.626   6.012
    8SAPS   O32  965   2.782   1.534   6.025
    8SAPS   C32  966   2.716   1.741   5.902
    8SAPS   H2X  967   2.819   1.781   5.914
    8SAPS   H2Y  968   2.643   1.819   5.931
    8SAPS   C23  969   2.594   1.288   5.723
    8SAPS   H3R  970   2.649   1.385   5.728
    8SAPS   H3S  971   2.497   1.300   5.670
    8SAPS   C24  972   2.697   1.195   5.658
    8SAPS   H4R  973   2.786   1.197   5.724
    8SAPS   H4S  974   2.723   1.237   5.559
    8SAPS   C25  975   2.644   1.055   5.648
    8SAPS   H5R  976   2.682   0.985   5.724
    8SAPS   C26  977   2.572   1.002   5.554
    8SAPS   H6R  978   2.546   0.896   5.556
    8SAPS   C27  979   2.513   1.089   5.447
    8SAPS   H7R  980   2.518   1.199   5.462
    8SAPS   H7S  981   2.406   1.058   5.449
    8SAPS   C28  982   2.562   1.054   5.311
    8SAPS   H8R  983   2.564   0.945   5.299
    8SAPS   C29  984   2.586   1.130   5.197
    8SAPS   H9R  985   2.628   1.081   5.108
    8SAPS  C210  986   2.575   1.282   5.177
    8SAPS  H10R  987   2.677   1.315   5.147
    8SAPS  H10S  988   2.553   1.322   5.278
    8SAPS  C211  989   2.476   1.309   5.072
    8SAPS  H11R  990   2.375   1.327   5.113
    8SAPS  C212  991   2.497   1.327   4.937
    8SAPS  H12R  992   2.426   1.385   4.876
    8SAPS  C213  993   2.633   1.299   4.865
    8SAPS  H13R  994   2.714   1.305   4.941
    8SAPS  H13S  995   2.646   1.376   4.786
    8SAPS  C214  996   2.639   1.165   4.799
    8SAPS  H14R  997   2.693   1.086   4.853
    8SAPS  C215  998   2.596   1.139   4.676
    8SAPS  H15R  999   2.615   1.040   4.632
    8SAPS  C216 1000   2.519   1.233   4.591
    8SAPS  H16R 1001   2.582   1.278   4.511
    8SAPS  H16S 1002   2.474   1.312   4.653
    8SAPS  C217 1003   2.403   1.160   4.525
    8SAPS  H17R 1004   2.353   1.239   4.464
    8SAPS  H17S 1005   2.329   1.119   4.597
    8SAPS  C218 1006   2.435   1.052   4.417
    8SAPS  H18R 1007   2.481   0.957   4.453
    8SAPS  H18S 1008   2.515   1.092   4.351
    8SAPS  C219 1009   2.321   1.008   4.319
    8SAPS  H19R 1010   2.242   0.970   4.387
    8SAPS  H19S 1011   2.378   0.923   4.276
    8SAPS  C220 1012   2.254   1.109   4.218
    8SAPS  H20R 1013   2.176   1.058   4.157
    8SAPS  H20S 1014   2.326   1.149   4.144
    8SAPS  H20T 1015   2.213   1.197   4.273
    8SAPS   C33 1016   2.694   1.692   5.757
    8SAPS   H3X 1017   2.661   1.774   5.689
    8SAPS   H3Y 1018   2.623   1.607   5.756
    8SAPS   C34 1019   2.829   1.649   5.691
    8SAPS   H4X 1020   2.871   1.581   5.768
    8SAPS   H4Y 1021   2.891   1.740   5.676
    8SAPS   C35 1022   2.807   1.575   5.554
    8SAPS   H5X 1023   2.720   1.505   5.551
    8SAPS   H5Y 1024   2.894   1.510   5.531
    8SAPS   C36 1025   2.799   1.676   5.436
    8SAPS   H6X 1026   2.889   1.741   5.443
    8SAPS   H6Y 1027   2.705   1.734   5.437
    8SAPS   C37 1028   2.788   1.611   5.296
    8SAPS   H7X 1029   2.724   1.522   5.312
    8SAPS   H7Y 1030   2.883   1.572   5.253
    8SAPS   C38 1031   2.727   1.708   5.195
    8SAPS   H8X 1032   2.800   1.791   5.178
    8SAPS   H8Y 1033   2.629   1.748   5.228
    8SAPS   C39 1034   2.693   1.634   5.064
    8SAPS   H9X 1035   2.614   1.560   5.087
    8SAPS   H9Y 1036   2.780   1.581   5.020
    8SAPS  C310 1037   2.642   1.736   4.961
    8SAPS  H10X 1038   2.729   1.799   4.929
    8SAPS  H10Y 1039   2.571   1.799   5.018
    8SAPS  C311 1040   2.579   1.675   4.839
    8SAPS  H11X 1041   2.484   1.622   4.861
    8SAPS  H11Y 1042   2.652   1.595   4.814
    8SAPS  C312 1043   2.565   1.769   4.715
    8SAPS  H12X 1044   2.661   1.825   4.722
    8SAPS  H12Y 1045   2.476   1.832   4.737
    8SAPS  C313 1046   2.553   1.696   4.585
    8SAPS  H13X 1047   2.454   1.647   4.572
    8SAPS  H13Y 1048   2.640   1.629   4.573
    8SAPS  C314 1049   2.564   1.799   4.471
    8SAPS  H14X 1050   2.642   1.876   4.487
    8SAPS  H14Y 1051   2.477   1.869   4.471
    8SAPS  C315 1052   2.572   1.734   4.342
    8SAPS  H15X 1053   2.475   1.685   4.318
    8SAPS  H15Y 1054   2.650   1.654   4.349
    8SAPS  C316 1055   2.610   1.830   4.230
    8SAPS  H16X 1056   2.619   1.767   4.139
    8SAPS  H16Y 1057   2.713   1.866   4.251
    8SAPS  C317 1058   2.515   1.941   4.210
    8SAPS  H17X 1059   2.515   2.019   4.290
    8SAPS  H17Y 1060   2.414   1.898   4.229
    8SAPS  C318 1061   2.516   2.004   4.068
    8SAPS  H18X 1062   2.619   2.011   4.028
    8SAPS  H18Y 1063   2.482   2.110   4.070
    8SAPS  H18Z 1064   2.456   1.949   3.993
    9SAPS     N 1065   1.440   5.467   6.553
    9SAPS   HN1 1066   1.491   5.411   6.482
    9SAPS   HN2 1067   1.345   5.484   6.516
    9SAPS   HN3 1068   1.479   5.564   6.556
    9SAPS   C12 1069   1.449   5.389   6.678
    9SAPS  H12A 1070   1.553   5.395   6.709
    9SAPS   C13 1071   1.365   5.457   6.794
    9SAPS  O13A 1072   1.322   5.575   6.785
    9SAPS  O13B 1073   1.366   5.395   6.903
    9SAPS   C11 1074   1.383   5.247   6.642
    9SAPS  H11A 1075   1.287   5.276   6.595
    9SAPS  H11B 1076   1.368   5.190   6.737
    9SAPS     P 1077   1.552   5.059   6.601
    9SAPS   O13 1078   1.629   4.999   6.492
    9SAPS   O14 1079   1.632   5.117   6.712
    9SAPS   O12 1080   1.462   5.171   6.542
    9SAPS   O11 1081   1.442   4.963   6.656
    9SAPS    C1 1082   1.466   4.821   6.646
    9SAPS    HA 1083   1.574   4.797   6.637
    9SAPS    HB 1084   1.436   4.761   6.735
    9SAPS    C2 1085   1.397   4.758   6.520
    9SAPS    HS 1086   1.442   4.814   6.436
    9SAPS   O21 1087   1.251   4.770   6.539
    9SAPS   C21 1088   1.195   4.813   6.428
    9SAPS   O22 1089   1.249   4.846   6.323
    9SAPS   C22 1090   1.046   4.837   6.458
    9SAPS   H2R 1091   1.011   4.785   6.550
    9SAPS   H2S 1092   1.049   4.945   6.480
    9SAPS    C3 1093   1.437   4.601   6.517
    9SAPS    HX 1094   1.405   4.559   6.615
    9SAPS    HY 1095   1.546   4.584   6.516
    9SAPS   O31 1096   1.361   4.528   6.414
    9SAPS   C31 1097   1.437   4.525   6.300
    9SAPS   O32 1098   1.536   4.593   6.281
    9SAPS   C32 1099   1.367   4.431   6.201
    9SAPS   H2X 1100   1.288   4.367   6.246
    9SAPS   H2Y 1101   1.436   4.349   6.173
    9SAPS   C23 1102   0.955   4.795   6.340
    9SAPS   H3R 1103   0.967   4.687   6.321
    9SAPS   H3S 1104   0.977   4.862   6.254
    9SAPS   C24 1105   0.812   4.840   6.377
    9SAPS   H4R 1106   0.781   4.791   6.471
    9SAPS   H4S 1107   0.755   4.787   6.298
    9SAPS   C25 1108   0.778   4.984   6.379
    9SAPS   H5R 1109   0.800   5.039   6.472
    9SAPS   C26 1110   0.705   5.048   6.287
    9SAPS   H6R 1111   0.688   5.156   6.292
    9SAPS   C27 1112   0.653   4.989   6.161
    9SAPS   H7R 1113   0.565   5.044   6.120
    9SAPS   H7S 1114   0.610   4.891   6.190
    9SAPS   C28 1115   0.758   4.983   6.049
    9SAPS   H8R 1116   0.823   4.895   6.036
    9SAPS   C29 1117   0.780   5.079   5.957
    9SAPS   H9R 1118   0.852   5.058   5.877
    9SAPS  C210 1119   0.700   5.214   5.940
    9SAPS  H10R 1120   0.642   5.246   6.029
    9SAPS  H10S 1121   0.611   5.190   5.878
    9SAPS  C211 1122   0.770   5.325   5.866
    9SAPS  H11R 1123   0.827   5.380   5.943
    9SAPS  C212 1124   0.769   5.354   5.737
    9SAPS  H12R 1125   0.830   5.432   5.688
    9SAPS  C213 1126   0.697   5.263   5.640
    9SAPS  H13R 1127   0.590   5.285   5.656
    9SAPS  H13S 1128   0.715   5.155   5.657
    9SAPS  C214 1129   0.733   5.297   5.497
    9SAPS  H14R 1130   0.658   5.359   5.444
    9SAPS  C215 1131   0.847   5.258   5.434
    9SAPS  H15R 1132   0.858   5.285   5.328
    9SAPS  C216 1133   0.963   5.173   5.487
    9SAPS  H16R 1134   0.969   5.076   5.434
    9SAPS  H16S 1135   0.948   5.144   5.593
    9SAPS  C217 1136   1.097   5.243   5.468
    9SAPS  H17R 1137   1.170   5.172   5.513
    9SAPS  H17S 1138   1.115   5.344   5.510
    9SAPS  C218 1139   1.130   5.245   5.313
    9SAPS  H18R 1140   1.059   5.309   5.258
    9SAPS  H18S 1141   1.123   5.143   5.269
    9SAPS  C219 1142   1.273   5.292   5.294
    9SAPS  H19R 1143   1.340   5.223   5.350
    9SAPS  H19S 1144   1.273   5.387   5.351
    9SAPS  C220 1145   1.315   5.284   5.150
    9SAPS  H20R 1146   1.345   5.181   5.123
    9SAPS  H20S 1147   1.397   5.354   5.123
    9SAPS  H20T 1148   1.233   5.298   5.076
    9SAPS   C33 1149   1.308   4.506   6.077
    9SAPS   H3X 1150   1.279   4.609   6.105
    9SAPS   H3Y 1151   1.220   4.443   6.053
    9SAPS   C34 1152   1.403   4.515   5.957
    9SAPS   H4X 1153   1.460   4.607   5.982
    9SAPS   H4Y 1154   1.336   4.549   5.875
    9SAPS   C35 1155   1.477   4.393   5.913
    9SAPS   H5X 1156   1.403   4.314   5.887
    9SAPS   H5Y 1157   1.546   4.359   5.993
    9SAPS   C36 1158   1.563   4.414   5.790
    9SAPS   H6X 1159   1.636   4.331   5.783
    9SAPS   H6Y 1160   1.625   4.504   5.810
    9SAPS   C37 1161   1.476   4.407   5.660
    9SAPS   H7X 1162   1.413   4.498   5.668
    9SAPS   H7Y 1163   1.415   4.316   5.673
    9SAPS   C38 1164   1.570   4.391   5.541
    9SAPS   H8X 1165   1.647   4.314   5.558
    9SAPS   H8Y 1166   1.626   4.486   5.523
    9SAPS   C39 1167   1.485   4.385   5.414
    9SAPS   H9X 1168   1.427   4.480   5.417
    9SAPS   H9Y 1169   1.413   4.301   5.421
    9SAPS  C310 1170   1.573   4.377   5.288
    9SAPS  H10X 1171   1.609   4.272   5.289
    9SAPS  H10Y 1172   1.665   4.438   5.277
    9SAPS  C311 1173   1.493   4.392   5.150
    9SAPS  H11X 1174   1.462   4.496   5.126
    9SAPS  H11Y 1175   1.402   4.329   5.149
    9SAPS  C312 1176   1.579   4.333   5.037
    9SAPS  H12X 1177   1.598   4.225   5.056
    9SAPS  H12Y 1178   1.679   4.382   5.036
    9SAPS  C313 1179   1.503   4.354   4.899
    9SAPS  H13X 1180   1.483   4.463   4.899
    9SAPS  H13Y 1181   1.406   4.301   4.897
    9SAPS  C314 1182   1.578   4.303   4.774
    9SAPS  H14X 1183   1.683   4.331   4.796
    9SAPS  H14Y 1184   1.536   4.365   4.692
    9SAPS  C315 1185   1.565   4.152   4.754
    9SAPS  H15X 1186   1.462   4.112   4.757
    9SAPS  H15Y 1187   1.606   4.102   4.844
    9SAPS  C316 1188   1.643   4.104   4.634
    9SAPS  H16X 1189   1.753   4.109   4.651
    9SAPS  H16Y 1190   1.622   4.180   4.556
    9SAPS  C317 1191   1.613   3.961   4.589
    9SAPS  H17X 1192   1.696   3.933   4.521
    9SAPS  H17Y 1193   1.512   3.965   4.544
    9SAPS  C318 1194   1.605   3.859   4.705
    9SAPS  H18X 1195   1.538   3.894   4.788
    9SAPS  H18Y 1196   1.711   3.848   4.736
    9SAPS  H18Z 1197   1.564   3.763   4.667
   10SAPS     N 1198   2.049   4.307   6.821
   10SAPS   HN1 1199   1.968   4.359   6.860
   10SAPS   HN2 1200   2.023   4.221   6.770
   10SAPS   HN3 1201   2.116   4.277   6.895
   10SAPS   C12 1202   2.128   4.407   6.743
   10SAPS  H12A 1203   2.055   4.479   6.711
   10SAPS   C13 1204   2.235   4.474   6.833
   10SAPS  O13A 1205   2.247   4.432   6.953
   10SAPS  O13B 1206   2.291   4.577   6.786
   10SAPS   C11 1207   2.177   4.334   6.619
   10SAPS  H11A 1208   2.234   4.246   6.657
   10SAPS  H11B 1209   2.252   4.386   6.557
   10SAPS     P 1210   2.012   4.393   6.425
   10SAPS   O13 1211   1.982   4.304   6.310
   10SAPS   O14 1212   1.913   4.486   6.488
   10SAPS   O12 1213   2.065   4.305   6.534
   10SAPS   O11 1214   2.140   4.470   6.384
   10SAPS    C1 1215   2.156   4.599   6.328
   10SAPS    HA 1216   2.093   4.678   6.375
   10SAPS    HB 1217   2.263   4.628   6.344
   10SAPS    C2 1218   2.128   4.599   6.171
   10SAPS    HS 1219   2.025   4.558   6.158
   10SAPS   O21 1220   2.206   4.503   6.102
   10SAPS   C21 1221   2.337   4.529   6.089
   10SAPS   O22 1222   2.400   4.608   6.157
   10SAPS   C22 1223   2.387   4.438   5.981
   10SAPS   H2R 1224   2.446   4.354   6.023
   10SAPS   H2S 1225   2.311   4.384   5.921
   10SAPS    C3 1226   2.146   4.739   6.115
   10SAPS    HX 1227   2.240   4.780   6.159
   10SAPS    HY 1228   2.072   4.812   6.157
   10SAPS   O31 1229   2.147   4.752   5.968
   10SAPS   C31 1230   2.022   4.726   5.913
   10SAPS   O32 1231   1.914   4.720   5.969
   10SAPS   C32 1232   2.042   4.694   5.757
   10SAPS   H2X 1233   2.048   4.584   5.747
   10SAPS   H2Y 1234   2.131   4.752   5.722
   10SAPS   C23 1235   2.492   4.512   5.891
   10SAPS   H3R 1236   2.564   4.439   5.849
   10SAPS   H3S 1237   2.553   4.578   5.957
   10SAPS   C24 1238   2.415   4.597   5.791
   10SAPS   H4R 1239   2.347   4.659   5.854
   10SAPS   H4S 1240   2.349   4.529   5.733
   10SAPS   C25 1241   2.497   4.688   5.702
   10SAPS   H5R 1242   2.588   4.722   5.756
   10SAPS   C26 1243   2.471   4.717   5.577
   10SAPS   H6R 1244   2.546   4.771   5.518
   10SAPS   C27 1245   2.355   4.681   5.498
   10SAPS   H7R 1246   2.277   4.640   5.566
   10SAPS   H7S 1247   2.389   4.613   5.417
   10SAPS   C28 1248   2.294   4.808   5.439
   10SAPS   H8R 1249   2.274   4.893   5.506
   10SAPS   C29 1250   2.260   4.828   5.309
   10SAPS   H9R 1251   2.214   4.925   5.285
   10SAPS  C210 1252   2.255   4.734   5.193
   10SAPS  H10R 1253   2.177   4.778   5.126
   10SAPS  H10S 1254   2.208   4.636   5.218
   10SAPS  C211 1255   2.373   4.706   5.102
   10SAPS  H11R 1256   2.474   4.716   5.143
   10SAPS  C212 1257   2.359   4.664   4.976
   10SAPS  H12R 1258   2.448   4.632   4.920
   10SAPS  C213 1259   2.233   4.640   4.902
   10SAPS  H13R 1260   2.192   4.739   4.873
   10SAPS  H13S 1261   2.158   4.592   4.969
   10SAPS  C214 1262   2.243   4.554   4.775
   10SAPS  H14R 1263   2.295   4.457   4.782
   10SAPS  C215 1264   2.213   4.591   4.652
   10SAPS  H15R 1265   2.232   4.516   4.573
   10SAPS  C216 1266   2.155   4.721   4.613
   10SAPS  H16R 1267   2.217   4.806   4.650
   10SAPS  H16S 1268   2.056   4.725   4.665
   10SAPS  C217 1269   2.133   4.726   4.463
   10SAPS  H17R 1270   2.075   4.636   4.432
   10SAPS  H17S 1271   2.230   4.717   4.410
   10SAPS  C218 1272   2.061   4.855   4.412
   10SAPS  H18R 1273   1.952   4.831   4.414
   10SAPS  H18S 1274   2.086   4.875   4.305
   10SAPS  C219 1275   2.096   4.985   4.492
   10SAPS  H19R 1276   2.206   5.003   4.491
   10SAPS  H19S 1277   2.052   4.974   4.593
   10SAPS  C220 1278   2.027   5.104   4.427
   10SAPS  H20R 1279   2.048   5.193   4.489
   10SAPS  H20S 1280   1.916   5.099   4.434
   10SAPS  H20T 1281   2.060   5.114   4.321
   10SAPS   C33 1282   1.917   4.742   5.683
   10SAPS   H3X 1283   1.900   4.849   5.708
   10SAPS   H3Y 1284   1.830   4.675   5.701
   10SAPS   C34 1285   1.939   4.732   5.533
   10SAPS   H4X 1286   1.940   4.624   5.509
   10SAPS   H4Y 1287   2.037   4.775   5.501
   10SAPS   C35 1288   1.831   4.815   5.461
   10SAPS   H5X 1289   1.833   4.920   5.498
   10SAPS   H5Y 1290   1.734   4.764   5.479
   10SAPS   C36 1291   1.858   4.809   5.306
   10SAPS   H6X 1292   1.954   4.863   5.290
   10SAPS   H6Y 1293   1.776   4.874   5.270
   10SAPS   C37 1294   1.865   4.672   5.240
   10SAPS   H7X 1295   1.767   4.623   5.258
   10SAPS   H7Y 1296   1.936   4.600   5.287
   10SAPS   C38 1297   1.892   4.659   5.090
   10SAPS   H8X 1298   1.914   4.554   5.060
   10SAPS   H8Y 1299   1.980   4.717   5.056
   10SAPS   C39 1300   1.774   4.708   5.002
   10SAPS   H9X 1301   1.747   4.813   5.026
   10SAPS   H9Y 1302   1.679   4.650   5.009
   10SAPS  C310 1303   1.812   4.701   4.857
   10SAPS  H10X 1304   1.858   4.603   4.831
   10SAPS  H10Y 1305   1.899   4.766   4.837
   10SAPS  C311 1306   1.706   4.751   4.756
   10SAPS  H11X 1307   1.705   4.861   4.772
   10SAPS  H11Y 1308   1.604   4.714   4.782
   10SAPS  C312 1309   1.740   4.739   4.608
   10SAPS  H12X 1310   1.833   4.798   4.592
   10SAPS  H12Y 1311   1.658   4.768   4.540
   10SAPS  C313 1312   1.790   4.596   4.577
   10SAPS  H13X 1313   1.730   4.520   4.633
   10SAPS  H13Y 1314   1.894   4.583   4.615
   10SAPS  C314 1315   1.799   4.559   4.430
   10SAPS  H14X 1316   1.869   4.624   4.373
   10SAPS  H14Y 1317   1.699   4.567   4.383
   10SAPS  C315 1318   1.843   4.414   4.416
   10SAPS  H15X 1319   1.788   4.358   4.495
   10SAPS  H15Y 1320   1.952   4.409   4.440
   10SAPS  C316 1321   1.816   4.352   4.276
   10SAPS  H16X 1322   1.839   4.244   4.277
   10SAPS  H16Y 1323   1.877   4.395   4.193
   10SAPS  C317 1324   1.669   4.363   4.231
   10SAPS  H17X 1325   1.669   4.305   4.137
   10SAPS  H17Y 1326   1.642   4.462   4.188
   10SAPS  C318 1327   1.560   4.301   4.319
   10SAPS  H18X 1328   1.461   4.286   4.272
   10SAPS  H18Y 1329   1.541   4.367   4.406
   10SAPS  H18Z 1330   1.597   4.202   4.353
   11SAPS     N 1331   3.877   2.969   1.727
   11SAPS   HN1 1332   3.874   3.051   1.662
   11SAPS   HN2 1333   3.930   2.896   1.675
   11SAPS   HN3 1334   3.785   2.932   1.758
   11SAPS   C12 1335   3.952   2.988   1.852
   11SAPS  H12A 1336   3.925   2.902   1.912
   11SAPS   C13 1337   4.105   2.976   1.842
   11SAPS  O13A 1338   4.156   2.973   1.727
   11SAPS  O13B 1339   4.171   3.003   1.944
   11SAPS   C11 1340   3.906   3.115   1.924
   11SAPS  H11A 1341   3.920   3.201   1.854
   11SAPS  H11B 1342   3.969   3.136   2.013
   11SAPS     P 1343   3.688   3.168   2.071
   11SAPS   O13 1344   3.771   3.136   2.190
   11SAPS   O14 1345   3.654   3.303   2.030
   11SAPS   O12 1346   3.768   3.106   1.947
   11SAPS   O11 1347   3.562   3.076   2.063
   11SAPS    C1 1348   3.432   3.130   2.097
   11SAPS    HA 1349   3.396   3.216   2.037
   11SAPS    HB 1350   3.355   3.055   2.067
   11SAPS    C2 1351   3.400   3.154   2.251
   11SAPS    HS 1352   3.290   3.170   2.264
   11SAPS   O21 1353   3.478   3.270   2.288
   11SAPS   C21 1354   3.419   3.386   2.281
   11SAPS   O22 1355   3.307   3.410   2.236
   11SAPS   C22 1356   3.509   3.492   2.344
   11SAPS   H2R 1357   3.601   3.439   2.376
   11SAPS   H2S 1358   3.541   3.558   2.261
   11SAPS    C3 1359   3.449   3.034   2.339
   11SAPS    HX 1360   3.440   3.062   2.446
   11SAPS    HY 1361   3.558   3.029   2.315
   11SAPS   O31 1362   3.393   2.906   2.313
   11SAPS   C31 1363   3.278   2.892   2.364
   11SAPS   O32 1364   3.211   2.981   2.411
   11SAPS   C32 1365   3.235   2.747   2.347
   11SAPS   H2X 1366   3.326   2.690   2.319
   11SAPS   H2Y 1367   3.168   2.752   2.258
   11SAPS   C23 1368   3.443   3.581   2.455
   11SAPS   H3R 1369   3.365   3.640   2.403
   11SAPS   H3S 1370   3.518   3.651   2.496
   11SAPS   C24 1371   3.386   3.503   2.576
   11SAPS   H4R 1372   3.307   3.429   2.553
   11SAPS   H4S 1373   3.340   3.585   2.636
   11SAPS   C25 1374   3.490   3.425   2.650
   11SAPS   H5R 1375   3.554   3.355   2.595
   11SAPS   C26 1376   3.516   3.441   2.780
   11SAPS   H6R 1377   3.603   3.383   2.815
   11SAPS   C27 1378   3.446   3.532   2.880
   11SAPS   H7R 1379   3.340   3.551   2.852
   11SAPS   H7S 1380   3.498   3.629   2.864
   11SAPS   C28 1381   3.468   3.485   3.015
   11SAPS   H8R 1382   3.387   3.422   3.054
   11SAPS   C29 1383   3.580   3.503   3.092
   11SAPS   H9R 1384   3.569   3.470   3.197
   11SAPS  C210 1385   3.699   3.583   3.046
   11SAPS  H10R 1386   3.686   3.687   3.084
   11SAPS  H10S 1387   3.695   3.600   2.936
   11SAPS  C211 1388   3.831   3.520   3.084
   11SAPS  H11R 1389   3.867   3.440   3.017
   11SAPS  C212 1390   3.907   3.546   3.192
   11SAPS  H12R 1391   4.003   3.494   3.201
   11SAPS  C213 1392   3.884   3.632   3.310
   11SAPS  H13R 1393   3.872   3.738   3.280
   11SAPS  H13S 1394   3.976   3.641   3.372
   11SAPS  C214 1395   3.770   3.608   3.398
   11SAPS  H14R 1396   3.680   3.574   3.346
   11SAPS  C215 1397   3.773   3.616   3.531
   11SAPS  H15R 1398   3.679   3.590   3.582
   11SAPS  C216 1399   3.888   3.667   3.614
   11SAPS  H16R 1400   3.879   3.777   3.622
   11SAPS  H16S 1401   3.987   3.659   3.566
   11SAPS  C217 1402   3.891   3.614   3.760
   11SAPS  H17R 1403   3.991   3.568   3.776
   11SAPS  H17S 1404   3.818   3.534   3.786
   11SAPS  C218 1405   3.891   3.725   3.867
   11SAPS  H18R 1406   3.812   3.801   3.847
   11SAPS  H18S 1407   3.990   3.775   3.869
   11SAPS  C219 1408   3.847   3.669   4.002
   11SAPS  H19R 1409   3.741   3.637   3.993
   11SAPS  H19S 1410   3.858   3.753   4.074
   11SAPS  C220 1411   3.939   3.567   4.063
   11SAPS  H20R 1412   3.907   3.518   4.158
   11SAPS  H20S 1413   4.036   3.616   4.083
   11SAPS  H20T 1414   3.963   3.489   3.987
   11SAPS   C33 1415   3.143   2.694   2.460
   11SAPS   H3X 1416   3.069   2.621   2.422
   11SAPS   H3Y 1417   3.087   2.784   2.494
   11SAPS   C34 1418   3.228   2.647   2.571
   11SAPS   H4X 1419   3.290   2.730   2.612
   11SAPS   H4Y 1420   3.301   2.569   2.540
   11SAPS   C35 1421   3.145   2.597   2.697
   11SAPS   H5X 1422   3.082   2.510   2.670
   11SAPS   H5Y 1423   3.065   2.667   2.731
   11SAPS   C36 1424   3.224   2.559   2.815
   11SAPS   H6X 1425   3.292   2.639   2.849
   11SAPS   H6Y 1426   3.287   2.472   2.785
   11SAPS   C37 1427   3.142   2.534   2.943
   11SAPS   H7X 1428   3.070   2.450   2.933
   11SAPS   H7Y 1429   3.105   2.631   2.982
   11SAPS   C38 1430   3.216   2.459   3.055
   11SAPS   H8X 1431   3.300   2.528   3.077
   11SAPS   H8Y 1432   3.240   2.357   3.019
   11SAPS   C39 1433   3.125   2.445   3.177
   11SAPS   H9X 1434   3.037   2.384   3.146
   11SAPS   H9Y 1435   3.090   2.545   3.209
   11SAPS  C310 1436   3.205   2.377   3.286
   11SAPS  H10X 1437   3.281   2.437   3.340
   11SAPS  H10Y 1438   3.257   2.294   3.233
   11SAPS  C311 1439   3.103   2.321   3.393
   11SAPS  H11X 1440   3.036   2.246   3.346
   11SAPS  H11Y 1441   3.036   2.406   3.417
   11SAPS  C312 1442   3.175   2.263   3.512
   11SAPS  H12X 1443   3.234   2.341   3.564
   11SAPS  H12Y 1444   3.244   2.178   3.489
   11SAPS  C313 1445   3.078   2.204   3.615
   11SAPS  H13X 1446   3.140   2.156   3.694
   11SAPS  H13Y 1447   3.019   2.126   3.563
   11SAPS  C314 1448   2.978   2.298   3.677
   11SAPS  H14X 1449   2.934   2.238   3.760
   11SAPS  H14Y 1450   2.907   2.329   3.597
   11SAPS  C315 1451   3.029   2.437   3.730
   11SAPS  H15X 1452   2.942   2.486   3.777
   11SAPS  H15Y 1453   3.054   2.501   3.643
   11SAPS  C316 1454   3.137   2.418   3.846
   11SAPS  H16X 1455   3.153   2.511   3.905
   11SAPS  H16Y 1456   3.229   2.381   3.796
   11SAPS  C317 1457   3.104   2.303   3.949
   11SAPS  H17X 1458   3.099   2.205   3.897
   11SAPS  H17Y 1459   3.009   2.340   3.992
   11SAPS  C318 1460   3.206   2.292   4.058
   11SAPS  H18X 1461   3.173   2.243   4.153
   11SAPS  H18Y 1462   3.239   2.395   4.084
   11SAPS  H18Z 1463   3.290   2.223   4.034
   12SAPS     N 1464   2.174   2.208   1.777
   12SAPS   HN1 1465   2.179   2.175   1.875
   12SAPS   HN2 1466   2.213   2.304   1.787
   12SAPS   HN3 1467   2.074   2.230   1.755
   12SAPS   C12 1468   2.258   2.126   1.685
   12SAPS  H12A 1469   2.213   2.028   1.680
   12SAPS   C13 1470   2.272   2.184   1.536
   12SAPS  O13A 1471   2.201   2.285   1.506
   12SAPS  O13B 1472   2.360   2.145   1.462
   12SAPS   C11 1473   2.407   2.120   1.744
   12SAPS  H11A 1474   2.443   2.219   1.778
   12SAPS  H11B 1475   2.479   2.080   1.669
   12SAPS     P 1476   2.514   2.042   1.979
   12SAPS   O13 1477   2.503   1.915   2.059
   12SAPS   O14 1478   2.647   2.063   1.916
   12SAPS   O12 1479   2.404   2.039   1.864
   12SAPS   O11 1480   2.458   2.169   2.056
   12SAPS    C1 1481   2.536   2.278   2.097
   12SAPS    HA 1482   2.636   2.273   2.050
   12SAPS    HB 1483   2.492   2.372   2.056
   12SAPS    C2 1484   2.542   2.281   2.259
   12SAPS    HS 1485   2.609   2.367   2.284
   12SAPS   O21 1486   2.590   2.158   2.317
   12SAPS   C21 1487   2.722   2.152   2.307
   12SAPS   O22 1488   2.792   2.228   2.247
   12SAPS   C22 1489   2.789   2.030   2.377
   12SAPS   H2R 1490   2.717   1.946   2.369
   12SAPS   H2S 1491   2.885   2.001   2.328
   12SAPS    C3 1492   2.403   2.300   2.319
   12SAPS    HX 1493   2.325   2.227   2.290
   12SAPS    HY 1494   2.368   2.394   2.269
   12SAPS   O31 1495   2.410   2.322   2.462
   12SAPS   C31 1496   2.381   2.218   2.540
   12SAPS   O32 1497   2.341   2.108   2.501
   12SAPS   C32 1498   2.404   2.263   2.686
   12SAPS   H2X 1499   2.367   2.364   2.713
   12SAPS   H2Y 1500   2.515   2.269   2.694
   12SAPS   C23 1501   2.828   2.072   2.520
   12SAPS   H3R 1502   2.773   2.166   2.541
   12SAPS   H3S 1503   2.938   2.089   2.518
   12SAPS   C24 1504   2.793   1.970   2.635
   12SAPS   H4R 1505   2.834   2.019   2.726
   12SAPS   H4S 1506   2.844   1.872   2.628
   12SAPS   C25 1507   2.650   1.948   2.658
   12SAPS   H5R 1508   2.599   2.045   2.670
   12SAPS   C26 1509   2.581   1.834   2.666
   12SAPS   H6R 1510   2.472   1.842   2.671
   12SAPS   C27 1511   2.640   1.702   2.655
   12SAPS   H7R 1512   2.745   1.702   2.689
   12SAPS   H7S 1513   2.645   1.681   2.546
   12SAPS   C28 1514   2.558   1.595   2.730
   12SAPS   H8R 1515   2.470   1.568   2.669
   12SAPS   C29 1516   2.579   1.536   2.851
   12SAPS   H9R 1517   2.521   1.447   2.881
   12SAPS  C210 1518   2.693   1.575   2.942
   12SAPS  H10R 1519   2.776   1.618   2.881
   12SAPS  H10S 1520   2.725   1.475   2.978
   12SAPS  C211 1521   2.662   1.664   3.061
   12SAPS  H11R 1522   2.696   1.768   3.054
   12SAPS  C212 1523   2.611   1.621   3.179
   12SAPS  H12R 1524   2.592   1.694   3.260
   12SAPS  C213 1525   2.573   1.472   3.214
   12SAPS  H13R 1526   2.598   1.406   3.128
   12SAPS  H13S 1527   2.463   1.477   3.232
   12SAPS  C214 1528   2.641   1.419   3.335
   12SAPS  H14R 1529   2.728   1.358   3.309
   12SAPS  C215 1530   2.609   1.437   3.463
   12SAPS  H15R 1531   2.676   1.389   3.536
   12SAPS  C216 1532   2.490   1.522   3.513
   12SAPS  H16R 1533   2.420   1.468   3.580
   12SAPS  H16S 1534   2.431   1.555   3.424
   12SAPS  C217 1535   2.539   1.643   3.604
   12SAPS  H17R 1536   2.478   1.734   3.584
   12SAPS  H17S 1537   2.636   1.673   3.560
   12SAPS  C218 1538   2.530   1.633   3.756
   12SAPS  H18R 1539   2.576   1.544   3.803
   12SAPS  H18S 1540   2.422   1.616   3.775
   12SAPS  C219 1541   2.575   1.759   3.828
   12SAPS  H19R 1542   2.524   1.750   3.926
   12SAPS  H19S 1543   2.545   1.860   3.792
   12SAPS  C220 1544   2.725   1.761   3.843
   12SAPS  H20R 1545   2.760   1.668   3.892
   12SAPS  H20S 1546   2.753   1.843   3.912
   12SAPS  H20T 1547   2.771   1.766   3.742
   12SAPS   C33 1548   2.354   2.165   2.792
   12SAPS   H3X 1549   2.349   2.068   2.739
   12SAPS   H3Y 1550   2.250   2.198   2.815
   12SAPS   C34 1551   2.450   2.141   2.912
   12SAPS   H4X 1552   2.480   2.244   2.942
   12SAPS   H4Y 1553   2.542   2.091   2.875
   12SAPS   C35 1554   2.416   2.063   3.035
   12SAPS   H5X 1555   2.499   2.072   3.108
   12SAPS   H5Y 1556   2.410   1.954   3.017
   12SAPS   C36 1557   2.275   2.089   3.098
   12SAPS   H6X 1558   2.207   2.045   3.023
   12SAPS   H6Y 1559   2.256   2.199   3.097
   12SAPS   C37 1560   2.255   2.027   3.234
   12SAPS   H7X 1561   2.293   1.923   3.219
   12SAPS   H7Y 1562   2.148   2.027   3.262
   12SAPS   C38 1563   2.333   2.095   3.345
   12SAPS   H8X 1564   2.293   2.198   3.345
   12SAPS   H8Y 1565   2.439   2.116   3.317
   12SAPS   C39 1566   2.327   2.035   3.484
   12SAPS   H9X 1567   2.364   2.115   3.552
   12SAPS   H9Y 1568   2.394   1.946   3.491
   12SAPS  C310 1569   2.185   1.987   3.528
   12SAPS  H10X 1570   2.158   1.888   3.485
   12SAPS  H10Y 1571   2.097   2.051   3.504
   12SAPS  C311 1572   2.173   1.966   3.676
   12SAPS  H11X 1573   2.171   2.065   3.726
   12SAPS  H11Y 1574   2.262   1.914   3.718
   12SAPS  C312 1575   2.051   1.877   3.711
   12SAPS  H12X 1576   2.044   1.782   3.653
   12SAPS  H12Y 1577   1.966   1.934   3.667
   12SAPS  C313 1578   2.029   1.858   3.857
   12SAPS  H13X 1579   1.921   1.835   3.868
   12SAPS  H13Y 1580   2.051   1.956   3.906
   12SAPS  C314 1581   2.117   1.749   3.920
   12SAPS  H14X 1582   2.216   1.748   3.869
   12SAPS  H14Y 1583   2.071   1.649   3.910
   12SAPS  C315 1584   2.118   1.769   4.071
   12SAPS  H15X 1585   2.019   1.805   4.106
   12SAPS  H15Y 1586   2.182   1.848   4.116
   12SAPS  C316 1587   2.150   1.638   4.138
   12SAPS  H16X 1588   2.243   1.595   4.096
   12SAPS  H16Y 1589   2.064   1.569   4.124
   12SAPS  C317 1590   2.179   1.654   4.291
   12SAPS  H17X 1591   2.087   1.700   4.333
   12SAPS  H17Y 1592   2.270   1.714   4.311
   12SAPS  C318 1593   2.194   1.517   4.358
   12SAPS  H18X 1594   2.095   1.466   4.359
   12SAPS  H18Y 1595   2.209   1.531   4.468
   12SAPS  H18Z 1596   2.275   1.456   4.313
   13SAPS     N 1597   5.461   0.948   2.079
   13SAPS   HN1 1598   5.463   0.902   1.985
   13SAPS   HN2 1599   5.554   0.994   2.090
   13SAPS   HN3 1600   5.464   0.871   2.149
   13SAPS   C12 1601   5.350   1.034   2.113
   13SAPS  H12A 1602   5.360   1.081   2.210
   13SAPS   C13 1603   5.331   1.154   2.021
   13SAPS  O13A 1604   5.431   1.183   1.951
   13SAPS  O13B 1605   5.229   1.223   2.017
   13SAPS   C11 1606   5.229   0.946   2.124
   13SAPS  H11A 1607   5.186   0.920   2.024
   13SAPS  H11B 1608   5.143   1.005   2.161
   13SAPS     P 1609   5.139   0.782   2.318
   13SAPS   O13 1610   5.000   0.779   2.260
   13SAPS   O14 1611   5.186   0.650   2.380
   13SAPS   O12 1612   5.242   0.836   2.215
   13SAPS   O11 1613   5.133   0.891   2.432
   13SAPS    C1 1614   5.245   0.926   2.513
   13SAPS    HA 1615   5.279   0.838   2.571
   13SAPS    HB 1616   5.334   0.952   2.452
   13SAPS    C2 1617   5.197   1.038   2.611
   13SAPS    HS 1618   5.282   1.076   2.673
   13SAPS   O21 1619   5.093   0.999   2.697
   13SAPS   C21 1620   5.103   0.898   2.775
   13SAPS   O22 1621   5.204   0.826   2.789
   13SAPS   C22 1622   4.973   0.876   2.851
   13SAPS   H2R 1623   4.908   0.966   2.843
   13SAPS   H2S 1624   4.931   0.792   2.792
   13SAPS    C3 1625   5.160   1.163   2.529
   13SAPS    HX 1626   5.069   1.149   2.467
   13SAPS    HY 1627   5.246   1.190   2.465
   13SAPS   O31 1628   5.157   1.267   2.629
   13SAPS   C31 1629   5.029   1.307   2.658
   13SAPS   O32 1630   4.929   1.290   2.590
   13SAPS   C32 1631   5.038   1.388   2.794
   13SAPS   H2X 1632   4.982   1.482   2.776
   13SAPS   H2Y 1633   5.143   1.395   2.830
   13SAPS   C23 1634   4.990   0.833   2.996
   13SAPS   H3R 1635   5.082   0.772   3.003
   13SAPS   H3S 1636   4.899   0.783   3.036
   13SAPS   C24 1637   5.002   0.956   3.090
   13SAPS   H4R 1638   4.904   1.008   3.081
   13SAPS   H4S 1639   5.088   1.022   3.069
   13SAPS   C25 1640   5.023   0.914   3.237
   13SAPS   H5R 1641   5.125   0.885   3.264
   13SAPS   C26 1642   4.930   0.887   3.332
   13SAPS   H6R 1643   4.963   0.854   3.432
   13SAPS   C27 1644   4.775   0.917   3.319
   13SAPS   H7R 1645   4.737   0.934   3.216
   13SAPS   H7S 1646   4.754   1.002   3.387
   13SAPS   C28 1647   4.696   0.793   3.360
   13SAPS   H8R 1648   4.709   0.703   3.298
   13SAPS   C29 1649   4.615   0.783   3.464
   13SAPS   H9R 1650   4.573   0.684   3.488
   13SAPS  C210 1651   4.568   0.905   3.544
   13SAPS  H10R 1652   4.469   0.933   3.502
   13SAPS  H10S 1653   4.633   0.995   3.547
   13SAPS  C211 1654   4.546   0.846   3.685
   13SAPS  H11R 1655   4.597   0.754   3.715
   13SAPS  C212 1656   4.459   0.897   3.771
   13SAPS  H12R 1657   4.441   0.849   3.868
   13SAPS  C213 1658   4.378   1.019   3.750
   13SAPS  H13R 1659   4.273   1.006   3.786
   13SAPS  H13S 1660   4.373   1.052   3.644
   13SAPS  C214 1661   4.444   1.135   3.825
   13SAPS  H14R 1662   4.523   1.184   3.767
   13SAPS  C215 1663   4.425   1.164   3.956
   13SAPS  H15R 1664   4.494   1.230   4.010
   13SAPS  C216 1665   4.321   1.096   4.049
   13SAPS  H16R 1666   4.247   1.035   3.995
   13SAPS  H16S 1667   4.253   1.171   4.095
   13SAPS  C217 1668   4.378   1.006   4.168
   13SAPS  H17R 1669   4.443   1.073   4.228
   13SAPS  H17S 1670   4.436   0.919   4.129
   13SAPS  C218 1671   4.264   0.946   4.257
   13SAPS  H18R 1672   4.195   0.885   4.195
   13SAPS  H18S 1673   4.219   1.035   4.307
   13SAPS  C219 1674   4.320   0.869   4.385
   13SAPS  H19R 1675   4.345   0.949   4.458
   13SAPS  H19S 1676   4.409   0.813   4.349
   13SAPS  C220 1677   4.218   0.776   4.452
   13SAPS  H20R 1678   4.262   0.728   4.542
   13SAPS  H20S 1679   4.181   0.690   4.393
   13SAPS  H20T 1680   4.128   0.832   4.486
   13SAPS   C33 1681   4.962   1.301   2.903
   13SAPS   H3X 1682   5.009   1.200   2.910
   13SAPS   H3Y 1683   4.853   1.297   2.878
   13SAPS   C34 1684   4.973   1.374   3.041
   13SAPS   H4X 1685   4.928   1.475   3.035
   13SAPS   H4Y 1686   5.081   1.375   3.066
   13SAPS   C35 1687   4.904   1.291   3.149
   13SAPS   H5X 1688   4.950   1.193   3.175
   13SAPS   H5Y 1689   4.797   1.272   3.127
   13SAPS   C36 1690   4.917   1.367   3.277
   13SAPS   H6X 1691   4.837   1.338   3.349
   13SAPS   H6Y 1692   4.907   1.475   3.251
   13SAPS   C37 1693   5.055   1.328   3.347
   13SAPS   H7X 1694   5.137   1.360   3.278
   13SAPS   H7Y 1695   5.051   1.217   3.345
   13SAPS   C38 1696   5.077   1.392   3.480
   13SAPS   H8X 1697   5.077   1.501   3.460
   13SAPS   H8Y 1698   5.176   1.356   3.515
   13SAPS   C39 1699   4.966   1.362   3.580
   13SAPS   H9X 1700   4.959   1.252   3.591
   13SAPS   H9Y 1701   4.867   1.410   3.563
   13SAPS  C310 1702   5.001   1.396   3.727
   13SAPS  H10X 1703   5.025   1.504   3.715
   13SAPS  H10Y 1704   5.094   1.345   3.761
   13SAPS  C311 1705   4.905   1.365   3.837
   13SAPS  H11X 1706   4.805   1.413   3.827
   13SAPS  H11Y 1707   4.950   1.403   3.931
   13SAPS  C312 1708   4.879   1.210   3.849
   13SAPS  H12X 1709   4.984   1.174   3.858
   13SAPS  H12Y 1710   4.835   1.158   3.761
   13SAPS  C313 1711   4.809   1.177   3.980
   13SAPS  H13X 1712   4.702   1.196   3.959
   13SAPS  H13Y 1713   4.840   1.236   4.069
   13SAPS  C314 1714   4.828   1.024   4.010
   13SAPS  H14X 1715   4.938   1.009   4.014
   13SAPS  H14Y 1716   4.789   0.966   3.924
   13SAPS  C315 1717   4.761   0.991   4.141
   13SAPS  H15X 1718   4.655   1.023   4.130
   13SAPS  H15Y 1719   4.802   1.058   4.219
   13SAPS  C316 1720   4.774   0.845   4.193
   13SAPS  H16X 1721   4.883   0.823   4.202
   13SAPS  H16Y 1722   4.735   0.774   4.118
   13SAPS  C317 1723   4.716   0.819   4.333
   13SAPS  H17X 1724   4.607   0.840   4.322
   13SAPS  H17Y 1725   4.764   0.894   4.399
   13SAPS  C318 1726   4.739   0.679   4.394
   13SAPS  H18X 1727   4.698   0.593   4.336
   13SAPS  H18Y 1728   4.693   0.671   4.495
   13SAPS  H18Z 1729   4.846   0.654   4.415
   14SAPS     N 1730   5.736   3.802   1.781
   14SAPS   HN1 1731   5.748   3.713   1.833
   14SAPS   HN2 1732   5.655   3.790   1.717
   14SAPS   HN3 1733   5.820   3.829   1.726
   14SAPS   C12 1734   5.713   3.902   1.884
   14SAPS  H12A 1735   5.693   3.850   1.976
   14SAPS   C13 1736   5.833   3.999   1.913
   14SAPS  O13A 1737   5.943   3.972   1.861
   14SAPS  O13B 1738   5.821   4.090   2.001
   14SAPS   C11 1739   5.584   3.982   1.850
   14SAPS  H11A 1740   5.617   4.057   1.775
   14SAPS  H11B 1741   5.554   4.038   1.941
   14SAPS     P 1742   5.349   3.860   1.892
   14SAPS   O13 1743   5.247   3.964   1.886
   14SAPS   O14 1744   5.305   3.722   1.859
   14SAPS   O12 1745   5.481   3.895   1.803
   14SAPS   O11 1746   5.414   3.858   2.032
   14SAPS    C1 1747   5.331   3.851   2.146
   14SAPS    HA 1748   5.300   3.954   2.173
   14SAPS    HB 1749   5.238   3.792   2.133
   14SAPS    C2 1750   5.405   3.803   2.267
   14SAPS    HS 1751   5.432   3.696   2.262
   14SAPS   O21 1752   5.326   3.839   2.387
   14SAPS   C21 1753   5.265   3.744   2.447
   14SAPS   O22 1754   5.270   3.626   2.432
   14SAPS   C22 1755   5.213   3.808   2.581
   14SAPS   H2R 1756   5.296   3.845   2.644
   14SAPS   H2S 1757   5.146   3.893   2.553
   14SAPS    C3 1758   5.540   3.873   2.283
   14SAPS    HX 1759   5.532   3.983   2.270
   14SAPS    HY 1760   5.610   3.848   2.201
   14SAPS   O31 1761   5.598   3.848   2.414
   14SAPS   C31 1762   5.671   3.743   2.421
   14SAPS   O32 1763   5.699   3.670   2.324
   14SAPS   C32 1764   5.699   3.700   2.565
   14SAPS   H2X 1765   5.796   3.746   2.593
   14SAPS   H2Y 1766   5.717   3.591   2.558
   14SAPS   C23 1767   5.127   3.712   2.658
   14SAPS   H3R 1768   5.190   3.628   2.694
   14SAPS   H3S 1769   5.053   3.656   2.596
   14SAPS   C24 1770   5.053   3.771   2.788
   14SAPS   H4R 1771   4.980   3.690   2.808
   14SAPS   H4S 1772   4.994   3.861   2.758
   14SAPS   C25 1773   5.146   3.792   2.904
   14SAPS   H5R 1774   5.210   3.880   2.895
   14SAPS   C26 1775   5.150   3.710   3.013
   14SAPS   H6R 1776   5.213   3.748   3.096
   14SAPS   C27 1777   5.071   3.581   3.032
   14SAPS   H7R 1778   5.072   3.515   2.943
   14SAPS   H7S 1779   4.963   3.604   3.042
   14SAPS   C28 1780   5.121   3.496   3.148
   14SAPS   H8R 1781   5.175   3.402   3.128
   14SAPS   C29 1782   5.102   3.528   3.275
   14SAPS   H9R 1783   5.143   3.459   3.350
   14SAPS  C210 1784   5.039   3.652   3.328
   14SAPS  H10R 1785   5.029   3.725   3.245
   14SAPS  H10S 1786   5.101   3.691   3.411
   14SAPS  C211 1787   4.907   3.598   3.379
   14SAPS  H11R 1788   4.856   3.535   3.305
   14SAPS  C212 1789   4.871   3.598   3.506
   14SAPS  H12R 1790   4.774   3.551   3.528
   14SAPS  C213 1791   4.943   3.651   3.630
   14SAPS  H13R 1792   5.009   3.732   3.593
   14SAPS  H13S 1793   5.002   3.568   3.675
   14SAPS  C214 1794   4.842   3.709   3.720
   14SAPS  H14R 1795   4.764   3.766   3.669
   14SAPS  C215 1796   4.844   3.702   3.854
   14SAPS  H15R 1797   4.759   3.748   3.907
   14SAPS  C216 1798   4.948   3.616   3.927
   14SAPS  H16R 1799   5.049   3.662   3.937
   14SAPS  H16S 1800   4.972   3.530   3.860
   14SAPS  C217 1801   4.894   3.560   4.060
   14SAPS  H17R 1802   4.877   3.649   4.124
   14SAPS  H17S 1803   4.965   3.487   4.104
   14SAPS  C218 1804   4.758   3.484   4.047
   14SAPS  H18R 1805   4.764   3.409   3.965
   14SAPS  H18S 1806   4.677   3.555   4.021
   14SAPS  C219 1807   4.714   3.418   4.180
   14SAPS  H19R 1808   4.707   3.498   4.257
   14SAPS  H19S 1809   4.787   3.336   4.200
   14SAPS  C220 1810   4.579   3.352   4.165
   14SAPS  H20R 1811   4.552   3.289   4.252
   14SAPS  H20S 1812   4.587   3.288   4.075
   14SAPS  H20T 1813   4.498   3.425   4.143
   14SAPS   C33 1814   5.599   3.747   2.666
   14SAPS   H3X 1815   5.496   3.718   2.634
   14SAPS   H3Y 1816   5.601   3.858   2.671
   14SAPS   C34 1817   5.621   3.692   2.801
   14SAPS   H4X 1818   5.600   3.777   2.870
   14SAPS   H4Y 1819   5.730   3.679   2.817
   14SAPS   C35 1820   5.545   3.565   2.841
   14SAPS   H5X 1821   5.569   3.494   2.759
   14SAPS   H5Y 1822   5.437   3.591   2.848
   14SAPS   C36 1823   5.594   3.509   2.978
   14SAPS   H6X 1824   5.701   3.526   3.001
   14SAPS   H6Y 1825   5.579   3.399   2.972
   14SAPS   C37 1826   5.516   3.577   3.091
   14SAPS   H7X 1827   5.410   3.546   3.083
   14SAPS   H7Y 1828   5.523   3.687   3.101
   14SAPS   C38 1829   5.575   3.541   3.231
   14SAPS   H8X 1830   5.685   3.557   3.234
   14SAPS   H8Y 1831   5.556   3.433   3.243
   14SAPS   C39 1832   5.505   3.610   3.353
   14SAPS   H9X 1833   5.396   3.598   3.333
   14SAPS   H9Y 1834   5.532   3.718   3.349
   14SAPS  C310 1835   5.555   3.554   3.489
   14SAPS  H10X 1836   5.664   3.570   3.506
   14SAPS  H10Y 1837   5.537   3.445   3.496
   14SAPS  C311 1838   5.487   3.624   3.604
   14SAPS  H11X 1839   5.378   3.611   3.590
   14SAPS  H11Y 1840   5.513   3.732   3.615
   14SAPS  C312 1841   5.533   3.569   3.740
   14SAPS  H12X 1842   5.644   3.574   3.732
   14SAPS  H12Y 1843   5.493   3.466   3.750
   14SAPS  C313 1844   5.477   3.649   3.850
   14SAPS  H13X 1845   5.486   3.758   3.828
   14SAPS  H13Y 1846   5.541   3.644   3.941
   14SAPS  C314 1847   5.326   3.617   3.889
   14SAPS  H14X 1848   5.269   3.610   3.793
   14SAPS  H14Y 1849   5.281   3.704   3.942
   14SAPS  C315 1850   5.300   3.493   3.979
   14SAPS  H15X 1851   5.317   3.400   3.922
   14SAPS  H15Y 1852   5.191   3.490   4.001
   14SAPS  C316 1853   5.369   3.496   4.118
   14SAPS  H16X 1854   5.479   3.484   4.109
   14SAPS  H16Y 1855   5.341   3.404   4.174
   14SAPS  C317 1856   5.359   3.626   4.197
   14SAPS  H17X 1857   5.251   3.653   4.209
   14SAPS  H17Y 1858   5.413   3.700   4.135
   14SAPS  C318 1859   5.423   3.596   4.331
   14SAPS  H18X 1860   5.430   3.694   4.383
   14SAPS  H18Y 1861   5.526   3.560   4.315
   14SAPS  H18Z 1862   5.372   3.516   4.389
   15SAPS     N 1863   4.157   3.225   1.540
   15SAPS   HN1 1864   4.145   3.272   1.448
   15SAPS   HN2 1865   4.167   3.123   1.520
   15SAPS   HN3 1866   4.062   3.233   1.581
   15SAPS   C12 1867   4.263   3.286   1.614
   15SAPS  H12A 1868   4.256   3.236   1.709
   15SAPS   C13 1869   4.407   3.265   1.566
   15SAPS  O13A 1870   4.429   3.188   1.466
   15SAPS  O13B 1871   4.501   3.312   1.636
   15SAPS   C11 1872   4.243   3.445   1.620
   15SAPS  H11A 1873   4.252   3.487   1.518
   15SAPS  H11B 1874   4.325   3.490   1.681
   15SAPS     P 1875   4.093   3.559   1.802
   15SAPS   O13 1876   4.199   3.660   1.807
   15SAPS   O14 1877   3.956   3.611   1.817
   15SAPS   O12 1878   4.112   3.478   1.671
   15SAPS   O11 1879   4.117   3.445   1.910
   15SAPS    C1 1880   4.007   3.422   2.010
   15SAPS    HA 1881   3.910   3.418   1.957
   15SAPS    HB 1882   4.023   3.320   2.050
   15SAPS    C2 1883   3.999   3.518   2.128
   15SAPS    HS 1884   4.015   3.623   2.094
   15SAPS   O21 1885   4.096   3.483   2.228
   15SAPS   C21 1886   4.224   3.495   2.201
   15SAPS   O22 1887   4.266   3.560   2.108
   15SAPS   C22 1888   4.310   3.427   2.308
   15SAPS   H2R 1889   4.304   3.317   2.295
   15SAPS   H2S 1890   4.413   3.452   2.278
   15SAPS    C3 1891   3.849   3.512   2.188
   15SAPS    HX 1892   3.819   3.407   2.206
   15SAPS    HY 1893   3.781   3.548   2.108
   15SAPS   O31 1894   3.838   3.597   2.306
   15SAPS   C31 1895   3.856   3.544   2.426
   15SAPS   O32 1896   3.875   3.423   2.451
   15SAPS   C32 1897   3.828   3.649   2.525
   15SAPS   H2X 1898   3.744   3.606   2.583
   15SAPS   H2Y 1899   3.795   3.744   2.479
   15SAPS   C23 1900   4.268   3.490   2.441
   15SAPS   H3R 1901   4.161   3.476   2.464
   15SAPS   H3S 1902   4.287   3.599   2.451
   15SAPS   C24 1903   4.337   3.405   2.549
   15SAPS   H4R 1904   4.444   3.392   2.521
   15SAPS   H4S 1905   4.297   3.302   2.542
   15SAPS   C25 1906   4.326   3.474   2.687
   15SAPS   H5R 1907   4.397   3.554   2.713
   15SAPS   C26 1908   4.238   3.440   2.788
   15SAPS   H6R 1909   4.235   3.496   2.883
   15SAPS   C27 1910   4.131   3.338   2.770
   15SAPS   H7R 1911   4.095   3.356   2.667
   15SAPS   H7S 1912   4.042   3.352   2.834
   15SAPS   C28 1913   4.178   3.196   2.780
   15SAPS   H8R 1914   4.206   3.159   2.680
   15SAPS   C29 1915   4.157   3.112   2.890
   15SAPS   H9R 1916   4.192   3.008   2.879
   15SAPS  C210 1917   4.105   3.150   3.025
   15SAPS  H10R 1918   4.034   3.072   3.059
   15SAPS  H10S 1919   4.051   3.247   3.013
   15SAPS  C211 1920   4.223   3.165   3.113
   15SAPS  H11R 1921   4.302   3.230   3.073
   15SAPS  C212 1922   4.230   3.129   3.251
   15SAPS  H12R 1923   4.321   3.151   3.309
   15SAPS  C213 1924   4.122   3.065   3.335
   15SAPS  H13R 1925   4.179   2.996   3.402
   15SAPS  H13S 1926   4.060   2.995   3.274
   15SAPS  C214 1927   4.042   3.170   3.402
   15SAPS  H14R 1928   4.018   3.256   3.339
   15SAPS  C215 1929   4.019   3.167   3.536
   15SAPS  H15R 1930   3.962   3.255   3.568
   15SAPS  C216 1931   4.061   3.066   3.644
   15SAPS  H16R 1932   4.050   2.963   3.604
   15SAPS  H16S 1933   3.984   3.066   3.724
   15SAPS  C217 1934   4.202   3.070   3.696
   15SAPS  H17R 1935   4.274   3.046   3.615
   15SAPS  H17S 1936   4.211   2.989   3.771
   15SAPS  C218 1937   4.230   3.208   3.761
   15SAPS  H18R 1938   4.158   3.210   3.846
   15SAPS  H18S 1939   4.207   3.286   3.685
   15SAPS  C219 1940   4.374   3.226   3.805
   15SAPS  H19R 1941   4.389   3.153   3.887
   15SAPS  H19S 1942   4.391   3.328   3.847
   15SAPS  C220 1943   4.478   3.219   3.694
   15SAPS  H20R 1944   4.465   3.298   3.617
   15SAPS  H20S 1945   4.485   3.114   3.660
   15SAPS  H20T 1946   4.576   3.242   3.741
   15SAPS   C33 1947   3.959   3.672   2.599
   15SAPS   H3X 1948   4.036   3.714   2.530
   15SAPS   H3Y 1949   3.987   3.574   2.645
   15SAPS   C34 1950   3.939   3.769   2.713
   15SAPS   H4X 1951   3.847   3.746   2.771
   15SAPS   H4Y 1952   3.916   3.868   2.668
   15SAPS   C35 1953   4.060   3.778   2.805
   15SAPS   H5X 1954   4.154   3.808   2.753
   15SAPS   H5Y 1955   4.076   3.676   2.844
   15SAPS   C36 1956   4.048   3.882   2.923
   15SAPS   H6X 1957   3.950   3.872   2.973
   15SAPS   H6Y 1958   4.063   3.987   2.890
   15SAPS   C37 1959   4.158   3.855   3.035
   15SAPS   H7X 1960   4.257   3.878   2.991
   15SAPS   H7Y 1961   4.154   3.747   3.064
   15SAPS   C38 1962   4.128   3.932   3.164
   15SAPS   H8X 1963   4.034   3.896   3.210
   15SAPS   H8Y 1964   4.127   4.040   3.136
   15SAPS   C39 1965   4.245   3.900   3.264
   15SAPS   H9X 1966   4.340   3.906   3.206
   15SAPS   H9Y 1967   4.245   3.791   3.289
   15SAPS  C310 1968   4.240   3.995   3.387
   15SAPS  H10X 1969   4.288   4.092   3.361
   15SAPS  H10Y 1970   4.310   3.959   3.466
   15SAPS  C311 1971   4.110   4.028   3.439
   15SAPS  H11X 1972   4.061   3.933   3.468
   15SAPS  H11Y 1973   4.046   4.084   3.367
   15SAPS  C312 1974   4.116   4.116   3.564
   15SAPS  H12X 1975   4.122   4.225   3.547
   15SAPS  H12Y 1976   4.216   4.089   3.606
   15SAPS  C313 1977   4.013   4.079   3.672
   15SAPS  H13X 1978   4.037   3.976   3.707
   15SAPS  H13Y 1979   3.913   4.082   3.624
   15SAPS  C314 1980   4.007   4.187   3.788
   15SAPS  H14X 1981   3.976   4.286   3.749
   15SAPS  H14Y 1982   4.107   4.202   3.835
   15SAPS  C315 1983   3.897   4.152   3.893
   15SAPS  H15X 1984   3.901   4.042   3.905
   15SAPS  H15Y 1985   3.799   4.170   3.844
   15SAPS  C316 1986   3.921   4.223   4.025
   15SAPS  H16X 1987   3.879   4.326   4.019
   15SAPS  H16Y 1988   4.028   4.248   4.046
   15SAPS  C317 1989   3.865   4.157   4.156
   15SAPS  H17X 1990   3.905   4.055   4.170
   15SAPS  H17Y 1991   3.755   4.138   4.149
   15SAPS  C318 1992   3.882   4.233   4.284
   15SAPS  H18X 1993   3.991   4.253   4.292
   15SAPS  H18Y 1994   3.847   4.178   4.374
   15SAPS  H18Z 1995   3.841   4.336   4.285
   16SAPS     N 1996   6.161   4.449   2.064
   16SAPS   HN1 1997   6.169   4.529   2.129
   16SAPS   HN2 1998   6.060   4.426   2.070
   16SAPS   HN3 1999   6.204   4.359   2.094
   16SAPS   C12 2000   6.214   4.486   1.927
   16SAPS  H12A 2001   6.305   4.540   1.948
   16SAPS   C13 2002   6.260   4.371   1.835
   16SAPS  O13A 2003   6.232   4.256   1.868
   16SAPS  O13B 2004   6.310   4.398   1.723
   16SAPS   C11 2005   6.106   4.579   1.861
   16SAPS  H11A 2006   6.017   4.524   1.824
   16SAPS  H11B 2007   6.156   4.618   1.770
   16SAPS     P 2008   5.937   4.760   1.924
   16SAPS   O13 2009   5.924   4.873   2.014
   16SAPS   O14 2010   5.916   4.792   1.781
   16SAPS   O12 2011   6.076   4.690   1.950
   16SAPS   O11 2012   5.844   4.638   1.962
   16SAPS    C1 2013   5.720   4.651   2.034
   16SAPS    HA 2014   5.675   4.751   2.016
   16SAPS    HB 2015   5.656   4.563   2.009
   16SAPS    C2 2016   5.725   4.632   2.195
   16SAPS    HS 2017   5.765   4.727   2.238
   16SAPS   O21 2018   5.807   4.511   2.226
   16SAPS   C21 2019   5.874   4.515   2.341
   16SAPS   O22 2020   5.884   4.609   2.414
   16SAPS   C22 2021   5.915   4.368   2.369
   16SAPS   H2R 2022   5.829   4.304   2.341
   16SAPS   H2S 2023   5.999   4.349   2.299
   16SAPS    C3 2024   5.583   4.620   2.247
   16SAPS    HX 2025   5.540   4.534   2.192
   16SAPS    HY 2026   5.507   4.698   2.228
   16SAPS   O31 2027   5.587   4.582   2.390
   16SAPS   C31 2028   5.607   4.683   2.472
   16SAPS   O32 2029   5.600   4.802   2.431
   16SAPS   C32 2030   5.616   4.646   2.623
   16SAPS   H2X 2031   5.544   4.709   2.679
   16SAPS   H2Y 2032   5.721   4.675   2.649
   16SAPS   C23 2033   5.958   4.368   2.518
   16SAPS   H3R 2034   5.874   4.393   2.586
   16SAPS   H3S 2035   6.041   4.441   2.532
   16SAPS   C24 2036   6.029   4.231   2.555
   16SAPS   H4R 2037   6.062   4.240   2.661
   16SAPS   H4S 2038   6.113   4.221   2.483
   16SAPS   C25 2039   5.944   4.107   2.536
   16SAPS   H5R 2040   5.939   4.075   2.430
   16SAPS   C26 2041   5.877   4.047   2.635
   16SAPS   H6R 2042   5.813   3.958   2.619
   16SAPS   C27 2043   5.871   4.090   2.777
   16SAPS   H7R 2044   5.771   4.138   2.789
   16SAPS   H7S 2045   5.946   4.166   2.809
   16SAPS   C28 2046   5.869   3.970   2.873
   16SAPS   H8R 2047   5.886   3.876   2.818
   16SAPS   C29 2048   5.835   3.963   2.999
   16SAPS   H9R 2049   5.868   3.871   3.049
   16SAPS  C210 2050   5.779   4.080   3.083
   16SAPS  H10R 2051   5.695   4.044   3.146
   16SAPS  H10S 2052   5.723   4.153   3.020
   16SAPS  C211 2053   5.885   4.143   3.167
   16SAPS  H11R 2054   5.936   4.230   3.122
   16SAPS  C212 2055   5.918   4.087   3.290
   16SAPS  H12R 2056   5.987   4.134   3.362
   16SAPS  C213 2057   5.850   3.978   3.360
   16SAPS  H13R 2058   5.930   3.931   3.422
   16SAPS  H13S 2059   5.813   3.902   3.288
   16SAPS  C214 2060   5.738   4.011   3.444
   16SAPS  H14R 2061   5.672   4.087   3.399
   16SAPS  C215 2062   5.705   3.957   3.564
   16SAPS  H15R 2063   5.612   3.978   3.619
   16SAPS  C216 2064   5.788   3.850   3.635
   16SAPS  H16R 2065   5.837   3.794   3.553
   16SAPS  H16S 2066   5.728   3.775   3.690
   16SAPS  C217 2067   5.888   3.901   3.738
   16SAPS  H17R 2068   5.849   3.980   3.806
   16SAPS  H17S 2069   5.969   3.943   3.673
   16SAPS  C218 2070   5.953   3.774   3.802
   16SAPS  H18R 2071   5.982   3.706   3.720
   16SAPS  H18S 2072   5.877   3.737   3.874
   16SAPS  C219 2073   6.079   3.821   3.877
   16SAPS  H19R 2074   6.138   3.903   3.831
   16SAPS  H19S 2075   6.153   3.739   3.887
   16SAPS  C220 2076   6.041   3.859   4.019
   16SAPS  H20R 2077   5.990   3.771   4.063
   16SAPS  H20S 2078   5.981   3.952   4.029
   16SAPS  H20T 2079   6.137   3.866   4.075
   16SAPS   C33 2080   5.605   4.498   2.661
   16SAPS   H3X 2081   5.667   4.442   2.587
   16SAPS   H3Y 2082   5.499   4.468   2.653
   16SAPS   C34 2083   5.666   4.476   2.798
   16SAPS   H4X 2084   5.766   4.522   2.810
   16SAPS   H4Y 2085   5.681   4.367   2.809
   16SAPS   C35 2086   5.578   4.530   2.910
   16SAPS   H5X 2087   5.474   4.495   2.898
   16SAPS   H5Y 2088   5.580   4.641   2.911
   16SAPS   C36 2089   5.630   4.488   3.044
   16SAPS   H6X 2090   5.717   4.553   3.065
   16SAPS   H6Y 2091   5.676   4.386   3.046
   16SAPS   C37 2092   5.531   4.490   3.158
   16SAPS   H7X 2093   5.458   4.408   3.139
   16SAPS   H7Y 2094   5.488   4.590   3.174
   16SAPS   C38 2095   5.591   4.441   3.295
   16SAPS   H8X 2096   5.665   4.520   3.317
   16SAPS   H8Y 2097   5.640   4.342   3.281
   16SAPS   C39 2098   5.488   4.428   3.409
   16SAPS   H9X 2099   5.411   4.351   3.384
   16SAPS   H9Y 2100   5.426   4.519   3.424
   16SAPS  C310 2101   5.551   4.385   3.539
   16SAPS  H10X 2102   5.618   4.468   3.570
   16SAPS  H10Y 2103   5.614   4.297   3.517
   16SAPS  C311 2104   5.470   4.353   3.666
   16SAPS  H11X 2105   5.404   4.264   3.653
   16SAPS  H11Y 2106   5.408   4.443   3.683
   16SAPS  C312 2107   5.556   4.341   3.792
   16SAPS  H12X 2108   5.583   4.446   3.814
   16SAPS  H12Y 2109   5.642   4.275   3.767
   16SAPS  C313 2110   5.501   4.262   3.907
   16SAPS  H13X 2111   5.432   4.185   3.867
   16SAPS  H13Y 2112   5.447   4.327   3.979
   16SAPS  C314 2113   5.610   4.202   4.001
   16SAPS  H14X 2114   5.672   4.277   4.056
   16SAPS  H14Y 2115   5.679   4.140   3.941
   16SAPS  C315 2116   5.548   4.111   4.103
   16SAPS  H15X 2117   5.520   4.021   4.043
   16SAPS  H15Y 2118   5.451   4.151   4.139
   16SAPS  C316 2119   5.637   4.064   4.207
   16SAPS  H16X 2120   5.595   4.095   4.305
   16SAPS  H16Y 2121   5.738   4.111   4.197
   16SAPS  C317 2122   5.651   3.913   4.202
   16SAPS  H17X 2123   5.678   3.883   4.099
   16SAPS  H17Y 2124   5.549   3.874   4.219
   16SAPS  C318 2125   5.742   3.852   4.312
   16SAPS  H18X 2126   5.836   3.911   4.313
   16SAPS  H18Y 2127   5.762   3.746   4.284
   16SAPS  H18Z 2128   5.682   3.860   4.405
   17SAPS     N 2129   1.618   2.119   2.141
   17SAPS   HN1 2130   1.615   2.218   2.174
   17SAPS   HN2 2131   1.549   2.059   2.189
   17SAPS   HN3 2132   1.711   2.073   2.144
   17SAPS   C12 2133   1.583   2.125   1.993
   17SAPS  H12A 2134   1.479   2.152   1.980
   17SAPS   C13 2135   1.672   2.220   1.907
   17SAPS  O13A 2136   1.752   2.287   1.974
   17SAPS  O13B 2137   1.677   2.216   1.779
   17SAPS   C11 2138   1.593   1.979   1.934
   17SAPS  H11A 2139   1.697   1.939   1.937
   17SAPS  H11B 2140   1.560   1.987   1.829
   17SAPS     P 2141   1.445   1.766   1.940
   17SAPS   O13 2142   1.340   1.797   1.841
   17SAPS   O14 2143   1.556   1.675   1.894
   17SAPS   O12 2144   1.505   1.894   2.002
   17SAPS   O11 2145   1.379   1.687   2.062
   17SAPS    C1 2146   1.248   1.709   2.114
   17SAPS    HA 2147   1.166   1.714   2.039
   17SAPS    HB 2148   1.230   1.618   2.173
   17SAPS    C2 2149   1.246   1.837   2.201
   17SAPS    HS 2150   1.297   1.920   2.147
   17SAPS   O21 2151   1.314   1.795   2.324
   17SAPS   C21 2152   1.413   1.869   2.363
   17SAPS   O22 2153   1.455   1.965   2.305
   17SAPS   C22 2154   1.488   1.805   2.481
   17SAPS   H2R 2155   1.417   1.774   2.560
   17SAPS   H2S 2156   1.546   1.718   2.443
   17SAPS    C3 2157   1.100   1.888   2.228
   17SAPS    HX 2158   1.031   1.801   2.233
   17SAPS    HY 2159   1.076   1.958   2.145
   17SAPS   O31 2160   1.102   1.965   2.352
   17SAPS   C31 2161   1.038   1.914   2.458
   17SAPS   O32 2162   0.985   1.805   2.457
   17SAPS   C32 2163   1.048   2.002   2.577
   17SAPS   H2X 2164   0.948   2.027   2.620
   17SAPS   H2Y 2165   1.084   2.101   2.542
   17SAPS   C23 2166   1.589   1.902   2.553
   17SAPS   H3R 2167   1.551   2.000   2.588
   17SAPS   H3S 2168   1.664   1.936   2.479
   17SAPS   C24 2169   1.661   1.839   2.669
   17SAPS   H4R 2170   1.730   1.921   2.697
   17SAPS   H4S 2171   1.727   1.753   2.645
   17SAPS   C25 2172   1.566   1.793   2.778
   17SAPS   H5R 2173   1.542   1.686   2.772
   17SAPS   C26 2174   1.528   1.866   2.887
   17SAPS   H6R 2175   1.460   1.828   2.965
   17SAPS   C27 2176   1.582   2.001   2.906
   17SAPS   H7R 2177   1.513   2.047   2.980
   17SAPS   H7S 2178   1.570   2.066   2.817
   17SAPS   C28 2179   1.727   2.018   2.963
   17SAPS   H8R 2180   1.795   2.089   2.913
   17SAPS   C29 2181   1.778   1.947   3.068
   17SAPS   H9R 2182   1.885   1.965   3.087
   17SAPS  C210 2183   1.711   1.841   3.152
   17SAPS  H10R 2184   1.698   1.753   3.086
   17SAPS  H10S 2185   1.612   1.881   3.181
   17SAPS  C211 2186   1.784   1.801   3.279
   17SAPS  H11R 2187   1.849   1.880   3.318
   17SAPS  C212 2188   1.758   1.699   3.362
   17SAPS  H12R 2189   1.812   1.682   3.455
   17SAPS  C213 2190   1.655   1.590   3.327
   17SAPS  H13R 2191   1.645   1.578   3.217
   17SAPS  H13S 2192   1.561   1.628   3.372
   17SAPS  C214 2193   1.700   1.450   3.376
   17SAPS  H14R 2194   1.732   1.384   3.294
   17SAPS  C215 2195   1.698   1.409   3.506
   17SAPS  H15R 2196   1.727   1.305   3.525
   17SAPS  C216 2197   1.671   1.498   3.625
   17SAPS  H16R 2198   1.583   1.561   3.600
   17SAPS  H16S 2199   1.752   1.573   3.638
   17SAPS  C217 2200   1.642   1.423   3.752
   17SAPS  H17R 2201   1.699   1.476   3.831
   17SAPS  H17S 2202   1.685   1.320   3.746
   17SAPS  C218 2203   1.498   1.405   3.797
   17SAPS  H18R 2204   1.456   1.490   3.855
   17SAPS  H18S 2205   1.494   1.325   3.874
   17SAPS  C219 2206   1.395   1.371   3.687
   17SAPS  H19R 2207   1.448   1.303   3.618
   17SAPS  H19S 2208   1.369   1.468   3.638
   17SAPS  C220 2209   1.259   1.300   3.730
   17SAPS  H20R 2210   1.206   1.372   3.797
   17SAPS  H20S 2211   1.284   1.217   3.799
   17SAPS  H20T 2212   1.199   1.278   3.640
   17SAPS   C33 2213   1.145   1.967   2.692
   17SAPS   H3X 2214   1.255   1.972   2.678
   17SAPS   H3Y 2215   1.139   1.862   2.726
   17SAPS   C34 2216   1.116   2.055   2.821
   17SAPS   H4X 2217   1.007   2.066   2.834
   17SAPS   H4Y 2218   1.167   2.152   2.803
   17SAPS   C35 2219   1.177   1.986   2.945
   17SAPS   H5X 2220   1.279   1.944   2.937
   17SAPS   H5Y 2221   1.121   1.890   2.957
   17SAPS   C36 2222   1.161   2.066   3.071
   17SAPS   H6X 2223   1.052   2.072   3.095
   17SAPS   H6Y 2224   1.198   2.169   3.049
   17SAPS   C37 2225   1.234   2.000   3.182
   17SAPS   H7X 2226   1.343   1.998   3.161
   17SAPS   H7Y 2227   1.204   1.893   3.178
   17SAPS   C38 2228   1.216   2.055   3.323
   17SAPS   H8X 2229   1.239   2.161   3.350
   17SAPS   H8Y 2230   1.271   1.991   3.395
   17SAPS   C39 2231   1.073   2.035   3.375
   17SAPS   H9X 2232   1.033   1.934   3.352
   17SAPS   H9Y 2233   1.004   2.105   3.323
   17SAPS  C310 2234   1.060   2.057   3.528
   17SAPS  H10X 2235   1.092   2.161   3.552
   17SAPS  H10Y 2236   1.128   1.983   3.577
   17SAPS  C311 2237   0.916   2.031   3.577
   17SAPS  H11X 2238   0.886   1.925   3.563
   17SAPS  H11Y 2239   0.858   2.100   3.513
   17SAPS  C312 2240   0.894   2.064   3.722
   17SAPS  H12X 2241   0.939   2.160   3.753
   17SAPS  H12Y 2242   0.944   1.985   3.782
   17SAPS  C313 2243   0.748   2.077   3.759
   17SAPS  H13X 2244   0.682   1.999   3.715
   17SAPS  H13Y 2245   0.722   2.178   3.721
   17SAPS  C314 2246   0.731   2.072   3.913
   17SAPS  H14X 2247   0.625   2.088   3.943
   17SAPS  H14Y 2248   0.781   2.162   3.954
   17SAPS  C315 2249   0.781   1.957   3.998
   17SAPS  H15X 2250   0.743   1.961   4.103
   17SAPS  H15Y 2251   0.892   1.953   3.999
   17SAPS  C316 2252   0.730   1.819   3.939
   17SAPS  H16X 2253   0.780   1.810   3.840
   17SAPS  H16Y 2254   0.620   1.817   3.924
   17SAPS  C317 2255   0.782   1.700   4.022
   17SAPS  H17X 2256   0.749   1.702   4.128
   17SAPS  H17Y 2257   0.892   1.709   4.015
   17SAPS  C318 2258   0.752   1.569   3.951
   17SAPS  H18X 2259   0.817   1.486   3.988
   17SAPS  H18Y 2260   0.783   1.583   3.846
   17SAPS  H18Z 2261   0.647   1.536   3.967
   18SAPS     N 2262   4.706   2.602   1.935
   18SAPS   HN1 2263   4.659   2.625   2.025
   18SAPS   HN2 2264   4.759   2.518   1.969
   18SAPS   HN3 2265   4.766   2.684   1.915
   18SAPS   C12 2266   4.614   2.561   1.823
   18SAPS  H12A 2267   4.574   2.655   1.788
   18SAPS   C13 2268   4.690   2.496   1.704
   18SAPS  O13A 2269   4.814   2.506   1.700
   18SAPS  O13B 2270   4.622   2.472   1.603
   18SAPS   C11 2271   4.506   2.454   1.873
   18SAPS  H11A 2272   4.549   2.352   1.884
   18SAPS  H11B 2273   4.430   2.438   1.794
   18SAPS     P 2274   4.375   2.402   2.101
   18SAPS   O13 2275   4.234   2.390   2.049
   18SAPS   O14 2276   4.445   2.274   2.129
   18SAPS   O12 2277   4.453   2.492   2.000
   18SAPS   O11 2278   4.381   2.476   2.246
   18SAPS    C1 2279   4.384   2.617   2.234
   18SAPS    HA 2280   4.471   2.651   2.175
   18SAPS    HB 2281   4.284   2.642   2.192
   18SAPS    C2 2282   4.405   2.688   2.377
   18SAPS    HS 2283   4.505   2.661   2.419
   18SAPS   O21 2284   4.301   2.654   2.466
   18SAPS   C21 2285   4.301   2.552   2.553
   18SAPS   O22 2286   4.388   2.469   2.566
   18SAPS   C22 2287   4.175   2.552   2.638
   18SAPS   H2R 2288   4.094   2.525   2.567
   18SAPS   H2S 2289   4.187   2.467   2.708
   18SAPS    C3 2290   4.413   2.848   2.357
   18SAPS    HX 2291   4.322   2.893   2.313
   18SAPS    HY 2292   4.492   2.870   2.282
   18SAPS   O31 2293   4.429   2.915   2.491
   18SAPS   C31 2294   4.536   2.972   2.517
   18SAPS   O32 2295   4.642   2.977   2.449
   18SAPS   C32 2296   4.525   3.006   2.667
   18SAPS   H2X 2297   4.430   3.062   2.675
   18SAPS   H2Y 2298   4.609   3.075   2.694
   18SAPS   C23 2299   4.143   2.671   2.722
   18SAPS   H3R 2300   4.161   2.763   2.662
   18SAPS   H3S 2301   4.215   2.667   2.807
   18SAPS   C24 2302   4.008   2.669   2.795
   18SAPS   H4R 2303   3.931   2.636   2.722
   18SAPS   H4S 2304   3.987   2.772   2.833
   18SAPS   C25 2305   4.004   2.564   2.904
   18SAPS   H5R 2306   3.995   2.461   2.866
   18SAPS   C26 2307   4.017   2.575   3.038
   18SAPS   H6R 2308   4.011   2.494   3.112
   18SAPS   C27 2309   4.033   2.709   3.110
   18SAPS   H7R 2310   3.942   2.727   3.172
   18SAPS   H7S 2311   4.041   2.793   3.038
   18SAPS   C28 2312   4.162   2.709   3.193
   18SAPS   H8R 2313   4.246   2.753   3.138
   18SAPS   C29 2314   4.186   2.665   3.322
   18SAPS   H9R 2315   4.281   2.698   3.366
   18SAPS  C210 2316   4.087   2.596   3.408
   18SAPS  H10R 2317   4.148   2.521   3.464
   18SAPS  H10S 2318   4.022   2.529   3.347
   18SAPS  C211 2319   4.019   2.702   3.492
   18SAPS  H11R 2320   3.939   2.753   3.438
   18SAPS  C212 2321   4.028   2.716   3.622
   18SAPS  H12R 2322   3.963   2.792   3.667
   18SAPS  C213 2323   4.122   2.644   3.713
   18SAPS  H13R 2324   4.164   2.718   3.785
   18SAPS  H13S 2325   4.215   2.612   3.660
   18SAPS  C214 2326   4.080   2.511   3.769
   18SAPS  H14R 2327   4.123   2.422   3.721
   18SAPS  C215 2328   3.993   2.485   3.865
   18SAPS  H15R 2329   3.981   2.382   3.902
   18SAPS  C216 2330   3.909   2.583   3.953
   18SAPS  H16R 2331   3.812   2.536   3.980
   18SAPS  H16S 2332   3.895   2.676   3.896
   18SAPS  C217 2333   3.984   2.593   4.089
   18SAPS  H17R 2334   3.928   2.653   4.163
   18SAPS  H17S 2335   4.081   2.648   4.088
   18SAPS  C218 2336   3.998   2.454   4.145
   18SAPS  H18R 2337   4.078   2.394   4.097
   18SAPS  H18S 2338   3.903   2.397   4.140
   18SAPS  C219 2339   4.034   2.455   4.296
   18SAPS  H19R 2340   3.953   2.516   4.340
   18SAPS  H19S 2341   4.129   2.511   4.307
   18SAPS  C220 2342   4.040   2.318   4.362
   18SAPS  H20R 2343   4.099   2.256   4.291
   18SAPS  H20S 2344   3.941   2.269   4.361
   18SAPS  H20T 2345   4.083   2.323   4.464
   18SAPS   C33 2346   4.515   2.883   2.758
   18SAPS   H3X 2347   4.603   2.818   2.737
   18SAPS   H3Y 2348   4.427   2.825   2.725
   18SAPS   C34 2349   4.501   2.935   2.902
   18SAPS   H4X 2350   4.404   2.986   2.920
   18SAPS   H4Y 2351   4.582   3.009   2.918
   18SAPS   C35 2352   4.511   2.834   3.014
   18SAPS   H5X 2353   4.600   2.771   2.996
   18SAPS   H5Y 2354   4.423   2.771   2.993
   18SAPS   C36 2355   4.506   2.903   3.150
   18SAPS   H6X 2356   4.413   2.961   3.164
   18SAPS   H6Y 2357   4.585   2.981   3.154
   18SAPS   C37 2358   4.540   2.802   3.264
   18SAPS   H7X 2359   4.643   2.763   3.246
   18SAPS   H7Y 2360   4.464   2.723   3.252
   18SAPS   C38 2361   4.532   2.857   3.411
   18SAPS   H8X 2362   4.426   2.885   3.423
   18SAPS   H8Y 2363   4.604   2.941   3.427
   18SAPS   C39 2364   4.558   2.741   3.505
   18SAPS   H9X 2365   4.659   2.702   3.484
   18SAPS   H9Y 2366   4.484   2.660   3.489
   18SAPS  C310 2367   4.554   2.784   3.651
   18SAPS  H10X 2368   4.467   2.845   3.684
   18SAPS  H10Y 2369   4.642   2.849   3.671
   18SAPS  C311 2370   4.559   2.663   3.745
   18SAPS  H11X 2371   4.648   2.608   3.706
   18SAPS  H11Y 2372   4.474   2.593   3.735
   18SAPS  C312 2373   4.582   2.696   3.889
   18SAPS  H12X 2374   4.686   2.733   3.898
   18SAPS  H12Y 2375   4.575   2.603   3.950
   18SAPS  C313 2376   4.478   2.798   3.934
   18SAPS  H13X 2377   4.376   2.762   3.908
   18SAPS  H13Y 2378   4.493   2.889   3.871
   18SAPS  C314 2379   4.488   2.856   4.080
   18SAPS  H14X 2380   4.584   2.910   4.096
   18SAPS  H14Y 2381   4.488   2.765   4.144
   18SAPS  C315 2382   4.377   2.963   4.121
   18SAPS  H15X 2383   4.368   3.011   4.022
   18SAPS  H15Y 2384   4.435   3.029   4.189
   18SAPS  C316 2385   4.240   2.895   4.154
   18SAPS  H16X 2386   4.256   2.857   4.257
   18SAPS  H16Y 2387   4.221   2.808   4.088
   18SAPS  C317 2388   4.127   2.999   4.146
   18SAPS  H17X 2389   4.034   2.945   4.173
   18SAPS  H17Y 2390   4.143   3.044   4.046
   18SAPS  C318 2391   4.141   3.113   4.251
   18SAPS  H18X 2392   4.190   3.202   4.206
   18SAPS  H18Y 2393   4.189   3.089   4.348
   18SAPS  H18Z 2394   4.039   3.148   4.279
   19SAPS     N 2395   3.722   4.872   1.956
   19SAPS   HN1 2396   3.650   4.941   1.928
   19SAPS   HN2 2397   3.685   4.785   1.913
   19SAPS   HN3 2398   3.731   4.857   2.059
   19SAPS   C12 2399   3.857   4.901   1.882
   19SAPS  H12A 2400   3.928   4.821   1.893
   19SAPS   C13 2401   3.824   4.913   1.736
   19SAPS  O13A 2402   3.702   4.928   1.703
   19SAPS  O13B 2403   3.916   4.919   1.650
   19SAPS   C11 2404   3.923   5.029   1.934
   19SAPS  H11A 2405   3.859   5.119   1.920
   19SAPS  H11B 2406   4.000   5.053   1.857
   19SAPS     P 2407   4.129   5.062   2.097
   19SAPS   O13 2408   4.220   4.981   2.017
   19SAPS   O14 2409   4.142   5.206   2.085
   19SAPS   O12 2410   3.981   5.016   2.062
   19SAPS   O11 2411   4.142   5.017   2.250
   19SAPS    C1 2412   4.105   4.891   2.300
   19SAPS    HA 2413   3.996   4.883   2.315
   19SAPS    HB 2414   4.127   4.810   2.226
   19SAPS    C2 2415   4.178   4.850   2.435
   19SAPS    HS 2416   4.130   4.752   2.457
   19SAPS   O21 2417   4.164   4.947   2.541
   19SAPS   C21 2418   4.045   4.931   2.598
   19SAPS   O22 2419   3.970   4.841   2.582
   19SAPS   C22 2420   4.027   5.048   2.704
   19SAPS   H2R 2421   4.087   5.007   2.788
   19SAPS   H2S 2422   4.070   5.144   2.667
   19SAPS    C3 2423   4.328   4.827   2.409
   19SAPS    HX 2424   4.375   4.928   2.405
   19SAPS    HY 2425   4.347   4.771   2.315
   19SAPS   O31 2426   4.387   4.777   2.525
   19SAPS   C31 2427   4.509   4.728   2.499
   19SAPS   O32 2428   4.552   4.714   2.388
   19SAPS   C32 2429   4.585   4.687   2.620
   19SAPS   H2X 2430   4.611   4.579   2.620
   19SAPS   H2Y 2431   4.529   4.695   2.716
   19SAPS   C23 2432   3.880   5.074   2.743
   19SAPS   H3R 2433   3.856   4.988   2.809
   19SAPS   H3S 2434   3.824   5.062   2.648
   19SAPS   C24 2435   3.858   5.212   2.817
   19SAPS   H4R 2436   3.844   5.286   2.734
   19SAPS   H4S 2437   3.951   5.248   2.865
   19SAPS   C25 2438   3.737   5.193   2.902
   19SAPS   H5R 2439   3.641   5.183   2.849
   19SAPS   C26 2440   3.742   5.184   3.036
   19SAPS   H6R 2441   3.656   5.159   3.099
   19SAPS   C27 2442   3.860   5.183   3.125
   19SAPS   H7R 2443   3.841   5.217   3.229
   19SAPS   H7S 2444   3.933   5.255   3.084
   19SAPS   C28 2445   3.920   5.039   3.111
   19SAPS   H8R 2446   3.975   5.023   3.017
   19SAPS   C29 2447   3.934   4.957   3.213
   19SAPS   H9R 2448   3.999   4.871   3.189
   19SAPS  C210 2449   3.893   4.968   3.364
   19SAPS  H10R 2450   3.982   5.001   3.422
   19SAPS  H10S 2451   3.884   4.865   3.405
   19SAPS  C211 2452   3.772   5.049   3.412
   19SAPS  H11R 2453   3.695   5.059   3.334
   19SAPS  C212 2454   3.761   5.122   3.528
   19SAPS  H12R 2455   3.669   5.173   3.560
   19SAPS  C213 2456   3.867   5.128   3.639
   19SAPS  H13R 2457   3.916   5.028   3.644
   19SAPS  H13S 2458   3.821   5.132   3.740
   19SAPS  C214 2459   3.976   5.231   3.626
   19SAPS  H14R 2460   4.001   5.252   3.521
   19SAPS  C215 2461   4.027   5.309   3.728
   19SAPS  H15R 2462   4.097   5.390   3.705
   19SAPS  C216 2463   3.996   5.287   3.873
   19SAPS  H16R 2464   4.079   5.316   3.940
   19SAPS  H16S 2465   3.986   5.178   3.896
   19SAPS  C217 2466   3.867   5.364   3.904
   19SAPS  H17R 2467   3.779   5.313   3.858
   19SAPS  H17S 2468   3.874   5.469   3.868
   19SAPS  C218 2469   3.840   5.365   4.052
   19SAPS  H18R 2470   3.916   5.429   4.101
   19SAPS  H18S 2471   3.837   5.263   4.096
   19SAPS  C219 2472   3.710   5.434   4.102
   19SAPS  H19R 2473   3.629   5.385   4.043
   19SAPS  H19S 2474   3.719   5.539   4.067
   19SAPS  C220 2475   3.674   5.432   4.254
   19SAPS  H20R 2476   3.581   5.485   4.283
   19SAPS  H20S 2477   3.759   5.460   4.320
   19SAPS  H20T 2478   3.659   5.329   4.291
   19SAPS   C33 2479   4.725   4.767   2.628
   19SAPS   H3X 2480   4.714   4.870   2.590
   19SAPS   H3Y 2481   4.794   4.722   2.554
   19SAPS   C34 2482   4.796   4.773   2.767
   19SAPS   H4X 2483   4.900   4.811   2.759
   19SAPS   H4Y 2484   4.797   4.667   2.799
   19SAPS   C35 2485   4.721   4.848   2.876
   19SAPS   H5X 2486   4.617   4.810   2.866
   19SAPS   H5Y 2487   4.718   4.955   2.847
   19SAPS   C36 2488   4.786   4.830   3.013
   19SAPS   H6X 2489   4.893   4.858   3.025
   19SAPS   H6Y 2490   4.771   4.727   3.050
   19SAPS   C37 2491   4.716   4.912   3.128
   19SAPS   H7X 2492   4.608   4.886   3.122
   19SAPS   H7Y 2493   4.729   5.022   3.121
   19SAPS   C38 2494   4.762   4.869   3.263
   19SAPS   H8X 2495   4.850   4.935   3.280
   19SAPS   H8Y 2496   4.799   4.765   3.251
   19SAPS   C39 2497   4.656   4.888   3.371
   19SAPS   H9X 2498   4.560   4.840   3.341
   19SAPS   H9Y 2499   4.625   4.995   3.366
   19SAPS  C310 2500   4.704   4.860   3.513
   19SAPS  H10X 2501   4.791   4.929   3.519
   19SAPS  H10Y 2502   4.750   4.760   3.529
   19SAPS  C311 2503   4.608   4.905   3.624
   19SAPS  H11X 2504   4.504   4.885   3.592
   19SAPS  H11Y 2505   4.605   5.016   3.623
   19SAPS  C312 2506   4.633   4.841   3.765
   19SAPS  H12X 2507   4.739   4.864   3.787
   19SAPS  H12Y 2508   4.614   4.731   3.766
   19SAPS  C313 2509   4.539   4.903   3.874
   19SAPS  H13X 2510   4.432   4.910   3.845
   19SAPS  H13Y 2511   4.565   5.008   3.895
   19SAPS  C314 2512   4.548   4.828   4.011
   19SAPS  H14X 2513   4.656   4.841   4.035
   19SAPS  H14Y 2514   4.521   4.720   4.012
   19SAPS  C315 2515   4.484   4.896   4.126
   19SAPS  H15X 2516   4.551   4.976   4.164
   19SAPS  H15Y 2517   4.465   4.826   4.210
   19SAPS  C316 2518   4.346   4.953   4.096
   19SAPS  H16X 2519   4.291   4.877   4.036
   19SAPS  H16Y 2520   4.364   5.041   4.030
   19SAPS  C317 2521   4.260   4.984   4.222
   19SAPS  H17X 2522   4.322   5.067   4.261
   19SAPS  H17Y 2523   4.254   4.897   4.291
   19SAPS  C318 2524   4.124   5.025   4.170
   19SAPS  H18X 2525   4.074   5.087   4.247
   19SAPS  H18Y 2526   4.056   4.940   4.148
   19SAPS  H18Z 2527   4.126   5.088   4.079
   20SAPS     N 2528   5.244   5.937   1.827
   20SAPS   HN1 2529   5.194   5.870   1.890
   20SAPS   HN2 2530   5.170   5.983   1.770
   20SAPS   HN3 2531   5.295   5.870   1.766
   20SAPS   C12 2532   5.344   6.024   1.894
   20SAPS  H12A 2533   5.376   5.961   1.976
   20SAPS   C13 2534   5.465   6.060   1.809
   20SAPS  O13A 2535   5.475   6.012   1.694
   20SAPS  O13B 2536   5.563   6.116   1.861
   20SAPS   C11 2537   5.269   6.146   1.960
   20SAPS  H11A 2538   5.235   6.208   1.874
   20SAPS  H11B 2539   5.348   6.203   2.014
   20SAPS     P 2540   5.030   6.107   2.045
   20SAPS   O13 2541   4.976   6.233   2.090
   20SAPS   O14 2542   5.008   6.086   1.902
   20SAPS   O12 2543   5.184   6.112   2.065
   20SAPS   O11 2544   4.979   5.986   2.126
   20SAPS    C1 2545   5.009   5.983   2.268
   20SAPS    HA 2546   5.018   5.875   2.295
   20SAPS    HB 2547   5.110   6.027   2.279
   20SAPS    C2 2548   4.907   6.061   2.357
   20SAPS    HS 2549   4.903   6.169   2.332
   20SAPS   O21 2550   4.931   6.035   2.490
   20SAPS   C21 2551   5.034   6.086   2.544
   20SAPS   O22 2552   5.118   6.158   2.491
   20SAPS   C22 2553   5.008   6.081   2.694
   20SAPS   H2R 2554   4.917   6.144   2.706
   20SAPS   H2S 2555   4.976   5.982   2.732
   20SAPS    C3 2556   4.764   6.010   2.317
   20SAPS    HX 2557   4.757   6.008   2.206
   20SAPS    HY 2558   4.701   6.095   2.351
   20SAPS   O31 2559   4.724   5.878   2.375
   20SAPS   C31 2560   4.658   5.872   2.489
   20SAPS   O32 2561   4.626   5.967   2.555
   20SAPS   C32 2562   4.610   5.730   2.520
   20SAPS   H2X 2563   4.708   5.678   2.525
   20SAPS   H2Y 2564   4.548   5.692   2.436
   20SAPS   C23 2565   5.134   6.128   2.766
   20SAPS   H3R 2566   5.170   6.226   2.729
   20SAPS   H3S 2567   5.206   6.047   2.745
   20SAPS   C24 2568   5.108   6.136   2.917
   20SAPS   H4R 2569   5.207   6.142   2.967
   20SAPS   H4S 2570   5.044   6.058   2.963
   20SAPS   C25 2571   5.027   6.263   2.939
   20SAPS   H5R 2572   4.968   6.296   2.852
   20SAPS   C26 2573   5.009   6.324   3.057
   20SAPS   H6R 2574   4.956   6.420   3.060
   20SAPS   C27 2575   5.072   6.284   3.188
   20SAPS   H7R 2576   5.052   6.368   3.258
   20SAPS   H7S 2577   5.183   6.282   3.183
   20SAPS   C28 2578   5.029   6.155   3.262
   20SAPS   H8R 2579   4.944   6.104   3.215
   20SAPS   C29 2580   5.094   6.104   3.374
   20SAPS   H9R 2581   5.064   6.007   3.416
   20SAPS  C210 2582   5.202   6.161   3.454
   20SAPS  H10R 2583   5.257   6.246   3.408
   20SAPS  H10S 2584   5.281   6.083   3.457
   20SAPS  C211 2585   5.158   6.192   3.592
   20SAPS  H11R 2586   5.115   6.293   3.593
   20SAPS  C212 2587   5.176   6.136   3.707
   20SAPS  H12R 2588   5.137   6.191   3.794
   20SAPS  C213 2589   5.251   6.009   3.739
   20SAPS  H13R 2590   5.282   5.957   3.647
   20SAPS  H13S 2591   5.179   5.943   3.792
   20SAPS  C214 2592   5.380   6.052   3.809
   20SAPS  H14R 2593   5.430   6.142   3.770
   20SAPS  C215 2594   5.427   5.997   3.922
   20SAPS  H15R 2595   5.525   6.026   3.964
   20SAPS  C216 2596   5.369   5.864   3.984
   20SAPS  H16R 2597   5.452   5.790   3.984
   20SAPS  H16S 2598   5.290   5.811   3.927
   20SAPS  C217 2599   5.312   5.888   4.120
   20SAPS  H17R 2600   5.279   5.791   4.163
   20SAPS  H17S 2601   5.227   5.954   4.091
   20SAPS  C218 2602   5.399   5.959   4.222
   20SAPS  H18R 2603   5.412   6.066   4.193
   20SAPS  H18S 2604   5.500   5.916   4.206
   20SAPS  C219 2605   5.348   5.948   4.369
   20SAPS  H19R 2606   5.344   5.839   4.386
   20SAPS  H19S 2607   5.252   6.002   4.363
   20SAPS  C220 2608   5.443   6.019   4.456
   20SAPS  H20R 2609   5.544   5.977   4.443
   20SAPS  H20S 2610   5.411   6.017   4.562
   20SAPS  H20T 2611   5.442   6.124   4.418
   20SAPS   C33 2612   4.536   5.719   2.656
   20SAPS   H3X 2613   4.593   5.765   2.740
   20SAPS   H3Y 2614   4.528   5.609   2.673
   20SAPS   C34 2615   4.398   5.783   2.640
   20SAPS   H4X 2616   4.359   5.745   2.543
   20SAPS   H4Y 2617   4.415   5.893   2.643
   20SAPS   C35 2618   4.304   5.743   2.755
   20SAPS   H5X 2619   4.287   5.633   2.764
   20SAPS   H5Y 2620   4.199   5.770   2.736
   20SAPS   C36 2621   4.354   5.788   2.895
   20SAPS   H6X 2622   4.350   5.899   2.894
   20SAPS   H6Y 2623   4.450   5.739   2.922
   20SAPS   C37 2624   4.249   5.743   3.003
   20SAPS   H7X 2625   4.243   5.632   3.004
   20SAPS   H7Y 2626   4.147   5.783   2.987
   20SAPS   C38 2627   4.300   5.771   3.140
   20SAPS   H8X 2628   4.318   5.881   3.144
   20SAPS   H8Y 2629   4.398   5.734   3.175
   20SAPS   C39 2630   4.189   5.741   3.253
   20SAPS   H9X 2631   4.198   5.630   3.255
   20SAPS   H9Y 2632   4.085   5.771   3.225
   20SAPS  C310 2633   4.238   5.796   3.390
   20SAPS  H10X 2634   4.240   5.907   3.401
   20SAPS  H10Y 2635   4.342   5.764   3.413
   20SAPS  C311 2636   4.155   5.745   3.512
   20SAPS  H11X 2637   4.138   5.635   3.515
   20SAPS  H11Y 2638   4.052   5.786   3.511
   20SAPS  C312 2639   4.217   5.796   3.647
   20SAPS  H12X 2640   4.245   5.903   3.647
   20SAPS  H12Y 2641   4.315   5.743   3.655
   20SAPS  C313 2642   4.119   5.766   3.759
   20SAPS  H13X 2643   4.081   5.662   3.748
   20SAPS  H13Y 2644   4.029   5.829   3.744
   20SAPS  C314 2645   4.176   5.791   3.901
   20SAPS  H14X 2646   4.221   5.892   3.911
   20SAPS  H14Y 2647   4.258   5.720   3.926
   20SAPS  C315 2648   4.076   5.772   4.016
   20SAPS  H15X 2649   4.104   5.691   4.087
   20SAPS  H15Y 2650   3.978   5.730   3.985
   20SAPS  C316 2651   4.056   5.906   4.087
   20SAPS  H16X 2652   4.008   5.973   4.013
   20SAPS  H16Y 2653   4.157   5.940   4.119
   20SAPS  C317 2654   3.961   5.908   4.207
   20SAPS  H17X 2655   4.009   5.899   4.306
   20SAPS  H17Y 2656   3.888   5.826   4.187
   20SAPS  C318 2657   3.886   6.045   4.214
   20SAPS  H18X 2658   3.817   6.043   4.127
   20SAPS  H18Y 2659   3.954   6.132   4.201
   20SAPS  H18Z 2660   3.836   6.050   4.313
   21CHL1    C3 2661   1.517   4.023   5.876
   21CHL1    H3 2662   1.582   4.111   5.856
   21CHL1    O3 2663   1.439   4.040   5.996
   21CHL1   H3' 2664   1.395   3.955   5.996
   21CHL1    C4 2665   1.420   4.000   5.766
   21CHL1   H4A 2666   1.352   3.920   5.802
   21CHL1   H4B 2667   1.351   4.084   5.743
   21CHL1    C5 2668   1.490   3.961   5.636
   21CHL1    C6 2669   1.473   4.030   5.521
   21CHL1    H6 2670   1.399   4.111   5.530
   21CHL1    C7 2671   1.546   3.992   5.391
   21CHL1   H7A 2672   1.461   3.984   5.320
   21CHL1   H7B 2673   1.622   4.060   5.349
   21CHL1    C8 2674   1.591   3.846   5.391
   21CHL1    H8 2675   1.495   3.790   5.392
   21CHL1   C14 2676   1.680   3.820   5.270
   21CHL1   H14 2677   1.760   3.893   5.295
   21CHL1   C15 2678   1.638   3.859   5.130
   21CHL1  H15A 2679   1.533   3.827   5.109
   21CHL1  H15B 2680   1.643   3.970   5.126
   21CHL1   C16 2681   1.745   3.790   5.039
   21CHL1  H16A 2682   1.690   3.719   4.973
   21CHL1  H16B 2683   1.795   3.857   4.967
   21CHL1   C17 2684   1.838   3.697   5.132
   21CHL1   H17 2685   1.926   3.756   5.162
   21CHL1   C13 2686   1.750   3.681   5.262
   21CHL1   C18 2687   1.635   3.581   5.234
   21CHL1  H18A 2688   1.549   3.594   5.303
   21CHL1  H18B 2689   1.600   3.594   5.130
   21CHL1  H18C 2690   1.660   3.473   5.243
   21CHL1   C12 2691   1.823   3.657   5.395
   21CHL1  H12A 2692   1.858   3.551   5.389
   21CHL1  H12B 2693   1.917   3.715   5.408
   21CHL1   C11 2694   1.736   3.673   5.517
   21CHL1  H11A 2695   1.664   3.589   5.521
   21CHL1  H11B 2696   1.794   3.658   5.611
   21CHL1    C9 2697   1.668   3.811   5.524
   21CHL1    H9 2698   1.752   3.884   5.532
   21CHL1   C10 2699   1.583   3.845   5.656
   21CHL1   C19 2700   1.498   3.723   5.688
   21CHL1  H19A 2701   1.414   3.705   5.618
   21CHL1  H19B 2702   1.556   3.629   5.678
   21CHL1  H19C 2703   1.471   3.721   5.796
   21CHL1    C1 2704   1.678   3.872   5.771
   21CHL1   H1A 2705   1.738   3.780   5.787
   21CHL1   H1B 2706   1.747   3.958   5.755
   21CHL1    C2 2707   1.614   3.908   5.906
   21CHL1   H2A 2708   1.695   3.938   5.976
   21CHL1   H2B 2709   1.555   3.823   5.947
   21CHL1   C20 2710   1.874   3.568   5.061
   21CHL1   H20 2711   1.785   3.502   5.054
   21CHL1   C21 2712   1.985   3.488   5.141
   21CHL1  H21A 2713   1.939   3.444   5.232
   21CHL1  H21B 2714   2.068   3.558   5.168
   21CHL1  H21C 2715   2.018   3.403   5.078
   21CHL1   C22 2716   1.930   3.594   4.919
   21CHL1  H22A 2717   1.884   3.683   4.873
   21CHL1  H22B 2718   2.038   3.619   4.923
   21CHL1   C23 2719   1.913   3.470   4.822
   21CHL1  H23A 2720   1.966   3.385   4.869
   21CHL1  H23B 2721   1.803   3.458   4.818
   21CHL1   C24 2722   1.968   3.474   4.681
   21CHL1  H24A 2723   2.076   3.498   4.684
   21CHL1  H24B 2724   1.957   3.373   4.634
   21CHL1   C25 2725   1.901   3.576   4.582
   21CHL1   H25 2726   1.889   3.674   4.633
   21CHL1   C26 2727   1.996   3.593   4.466
   21CHL1  H26A 2728   2.085   3.642   4.511
   21CHL1  H26B 2729   2.011   3.500   4.408
   21CHL1  H26C 2730   1.944   3.662   4.397
   21CHL1   C27 2731   1.762   3.521   4.541
   21CHL1  H27A 2732   1.714   3.478   4.631
   21CHL1  H27B 2733   1.695   3.603   4.507
   21CHL1  H27C 2734   1.767   3.440   4.466
   22CHL1    C3 2735   2.255   1.705   5.759
   22CHL1    H3 2736   2.203   1.803   5.758
   22CHL1    O3 2737   2.296   1.681   5.888
   22CHL1   H3' 2738   2.351   1.603   5.876
   22CHL1    C4 2739   2.154   1.589   5.722
   22CHL1   H4A 2740   2.204   1.496   5.755
   22CHL1   H4B 2741   2.073   1.603   5.797
   22CHL1    C5 2742   2.096   1.590   5.581
   22CHL1    C6 2743   1.968   1.587   5.560
   22CHL1    H6 2744   1.894   1.582   5.641
   22CHL1    C7 2745   1.898   1.580   5.430
   22CHL1   H7A 2746   1.828   1.494   5.433
   22CHL1   H7B 2747   1.855   1.681   5.416
   22CHL1    C8 2748   2.008   1.558   5.311
   22CHL1    H8 2749   2.031   1.450   5.306
   22CHL1   C14 2750   1.947   1.606   5.184
   22CHL1   H14 2751   1.946   1.716   5.201
   22CHL1   C15 2752   1.810   1.561   5.145
   22CHL1  H15A 2753   1.808   1.451   5.163
   22CHL1  H15B 2754   1.743   1.621   5.210
   22CHL1   C16 2755   1.799   1.578   4.990
   22CHL1  H16A 2756   1.787   1.474   4.953
   22CHL1  H16B 2757   1.712   1.639   4.959
   22CHL1   C17 2758   1.940   1.633   4.949
   22CHL1   H17 2759   1.938   1.740   4.977
   22CHL1   C13 2760   2.036   1.591   5.059
   22CHL1   C18 2761   2.084   1.442   5.041
   22CHL1  H18A 2762   2.140   1.402   5.129
   22CHL1  H18B 2763   1.991   1.382   5.030
   22CHL1  H18C 2764   2.147   1.432   4.951
   22CHL1   C12 2765   2.159   1.678   5.088
   22CHL1  H12A 2766   2.235   1.660   5.008
   22CHL1  H12B 2767   2.134   1.786   5.086
   22CHL1   C11 2768   2.225   1.641   5.223
   22CHL1  H11A 2769   2.274   1.542   5.212
   22CHL1  H11B 2770   2.304   1.718   5.239
   22CHL1    C9 2771   2.131   1.641   5.343
   22CHL1    H9 2772   2.100   1.748   5.351
   22CHL1   C10 2773   2.203   1.607   5.477
   22CHL1   C19 2774   2.267   1.464   5.471
   22CHL1  H19A 2775   2.319   1.445   5.567
   22CHL1  H19B 2776   2.194   1.380   5.465
   22CHL1  H19C 2777   2.346   1.462   5.394
   22CHL1    C1 2778   2.321   1.707   5.518
   22CHL1   H1A 2779   2.405   1.711   5.447
   22CHL1   H1B 2780   2.276   1.808   5.506
   22CHL1    C2 2781   2.377   1.701   5.662
   22CHL1   H2A 2782   2.439   1.786   5.698
   22CHL1   H2B 2783   2.433   1.606   5.676
   22CHL1   C20 2784   1.976   1.600   4.806
   22CHL1   H20 2785   1.980   1.490   4.800
   22CHL1   C21 2786   2.110   1.664   4.760
   22CHL1  H21A 2787   2.097   1.774   4.770
   22CHL1  H21B 2788   2.133   1.645   4.653
   22CHL1  H21C 2789   2.202   1.636   4.816
   22CHL1   C22 2790   1.866   1.636   4.700
   22CHL1  H22A 2791   1.766   1.597   4.730
   22CHL1  H22B 2792   1.856   1.747   4.697
   22CHL1   C23 2793   1.891   1.566   4.567
   22CHL1  H23A 2794   1.948   1.632   4.498
   22CHL1  H23B 2795   1.950   1.473   4.563
   22CHL1   C24 2796   1.757   1.535   4.495
   22CHL1  H24A 2797   1.709   1.444   4.539
   22CHL1  H24B 2798   1.682   1.612   4.521
   22CHL1   C25 2799   1.760   1.509   4.343
   22CHL1   H25 2800   1.838   1.431   4.331
   22CHL1   C26 2801   1.626   1.449   4.305
   22CHL1  H26A 2802   1.539   1.501   4.351
   22CHL1  H26B 2803   1.620   1.447   4.194
   22CHL1  H26C 2804   1.635   1.347   4.347
   22CHL1   C27 2805   1.778   1.636   4.262
   22CHL1  H27A 2806   1.680   1.689   4.269
   22CHL1  H27B 2807   1.854   1.707   4.299
   22CHL1  H27C 2808   1.793   1.608   4.156
   23CHL1    C3 2809   0.999   3.637   5.756
   23CHL1    H3 2810   0.939   3.551   5.719
   23CHL1    O3 2811   1.009   3.610   5.899
   23CHL1   H3' 2812   1.005   3.699   5.937
   23CHL1    C4 2813   1.137   3.650   5.697
   23CHL1   H4A 2814   1.198   3.720   5.758
   23CHL1   H4B 2815   1.196   3.557   5.711
   23CHL1    C5 2816   1.133   3.696   5.550
   23CHL1    C6 2817   1.206   3.629   5.451
   23CHL1    H6 2818   1.274   3.549   5.484
   23CHL1    C7 2819   1.214   3.675   5.306
   23CHL1   H7A 2820   1.319   3.669   5.268
   23CHL1   H7B 2821   1.165   3.597   5.244
   23CHL1    C8 2822   1.154   3.813   5.286
   23CHL1    H8 2823   1.227   3.892   5.314
   23CHL1   C14 2824   1.120   3.838   5.136
   23CHL1   H14 2825   1.046   3.758   5.111
   23CHL1   C15 2826   1.229   3.812   5.037
   23CHL1  H15A 2827   1.330   3.847   5.070
   23CHL1  H15B 2828   1.218   3.705   5.008
   23CHL1   C16 2829   1.191   3.898   4.914
   23CHL1  H16A 2830   1.267   3.979   4.912
   23CHL1  H16B 2831   1.190   3.843   4.817
   23CHL1   C17 2832   1.046   3.952   4.941
   23CHL1   H17 2833   0.982   3.865   4.914
   23CHL1   C13 2834   1.050   3.966   5.099
   23CHL1   C18 2835   1.128   4.094   5.138
   23CHL1  H18A 2836   1.227   4.113   5.091
   23CHL1  H18B 2837   1.064   4.183   5.124
   23CHL1  H18C 2838   1.149   4.081   5.246
   23CHL1   C12 2839   0.919   3.972   5.170
   23CHL1  H12A 2840   0.870   4.071   5.157
   23CHL1  H12B 2841   0.848   3.894   5.135
   23CHL1   C11 2842   0.941   3.954   5.329
   23CHL1  H11A 2843   0.984   4.049   5.367
   23CHL1  H11B 2844   0.840   3.957   5.376
   23CHL1    C9 2845   1.023   3.826   5.366
   23CHL1    H9 2846   0.958   3.740   5.336
   23CHL1   C10 2847   1.041   3.813   5.524
   23CHL1   C19 2848   1.096   3.944   5.579
   23CHL1  H19A 2849   1.185   3.977   5.520
   23CHL1  H19B 2850   1.013   4.017   5.571
   23CHL1  H19C 2851   1.129   3.933   5.684
   23CHL1    C1 2852   0.903   3.792   5.590
   23CHL1   H1A 2853   0.839   3.880   5.569
   23CHL1   H1B 2854   0.861   3.705   5.536
   23CHL1    C2 2855   0.906   3.760   5.736
   23CHL1   H2A 2856   0.804   3.737   5.772
   23CHL1   H2B 2857   0.954   3.841   5.795
   23CHL1   C20 2858   0.998   4.073   4.864
   23CHL1   H20 2859   0.991   4.156   4.937
   23CHL1   C21 2860   0.857   4.035   4.802
   23CHL1  H21A 2861   0.778   4.014   4.878
   23CHL1  H21B 2862   0.881   3.949   4.735
   23CHL1  H21C 2863   0.817   4.119   4.743
   23CHL1   C22 2864   1.100   4.117   4.747
   23CHL1  H22A 2865   1.199   4.145   4.787
   23CHL1  H22B 2866   1.104   4.045   4.663
   23CHL1   C23 2867   1.046   4.238   4.668
   23CHL1  H23A 2868   0.977   4.207   4.587
   23CHL1  H23B 2869   0.997   4.319   4.726
   23CHL1   C24 2870   1.164   4.317   4.604
   23CHL1  H24A 2871   1.255   4.328   4.667
   23CHL1  H24B 2872   1.201   4.255   4.519
   23CHL1   C25 2873   1.120   4.458   4.552
   23CHL1   H25 2874   1.061   4.490   4.640
   23CHL1   C26 2875   1.231   4.565   4.551
   23CHL1  H26A 2876   1.270   4.584   4.653
   23CHL1  H26B 2877   1.318   4.540   4.487
   23CHL1  H26C 2878   1.184   4.659   4.514
   23CHL1   C27 2879   1.036   4.463   4.422
   23CHL1  H27A 2880   1.011   4.570   4.403
   23CHL1  H27B 2881   1.099   4.417   4.342
   23CHL1  H27C 2882   0.939   4.411   4.435
   24CHL1    C3 2883   3.633   4.733   5.842
   24CHL1    H3 2884   3.551   4.806   5.860
   24CHL1    O3 2885   3.701   4.728   5.966
   24CHL1   H3' 2886   3.762   4.653   5.962
   24CHL1    C4 2887   3.575   4.590   5.795
   24CHL1   H4A 2888   3.658   4.517   5.789
   24CHL1   H4B 2889   3.506   4.555   5.875
   24CHL1    C5 2890   3.511   4.600   5.656
   24CHL1    C6 2891   3.384   4.560   5.643
   24CHL1    H6 2892   3.336   4.505   5.725
   24CHL1    C7 2893   3.313   4.554   5.505
   24CHL1   H7A 2894   3.262   4.458   5.479
   24CHL1   H7B 2895   3.233   4.630   5.510
   24CHL1    C8 2896   3.408   4.577   5.389
   24CHL1    H8 2897   3.451   4.478   5.365
   24CHL1   C14 2898   3.325   4.628   5.268
   24CHL1   H14 2899   3.271   4.719   5.301
   24CHL1   C15 2900   3.193   4.557   5.222
   24CHL1  H15A 2901   3.216   4.449   5.216
   24CHL1  H15B 2902   3.103   4.572   5.286
   24CHL1   C16 2903   3.171   4.602   5.077
   24CHL1  H16A 2904   3.163   4.521   5.001
   24CHL1  H16B 2905   3.089   4.676   5.059
   24CHL1   C17 2906   3.293   4.692   5.036
   24CHL1   H17 2907   3.262   4.798   5.049
   24CHL1   C13 2908   3.403   4.671   5.140
   24CHL1   C18 2909   3.485   4.551   5.093
   24CHL1  H18A 2910   3.541   4.573   5.000
   24CHL1  H18B 2911   3.565   4.536   5.169
   24CHL1  H18C 2912   3.415   4.465   5.090
   24CHL1   C12 2913   3.492   4.797   5.169
   24CHL1  H12A 2914   3.556   4.828   5.084
   24CHL1  H12B 2915   3.430   4.887   5.191
   24CHL1   C11 2916   3.585   4.757   5.289
   24CHL1  H11A 2917   3.671   4.696   5.254
   24CHL1  H11B 2918   3.640   4.846   5.327
   24CHL1    C9 2919   3.507   4.696   5.423
   24CHL1    H9 2920   3.444   4.784   5.447
   24CHL1   C10 2921   3.593   4.666   5.546
   24CHL1   C19 2922   3.710   4.564   5.501
   24CHL1  H19A 2923   3.750   4.519   5.595
   24CHL1  H19B 2924   3.685   4.483   5.429
   24CHL1  H19C 2925   3.792   4.618   5.450
   24CHL1    C1 2926   3.663   4.795   5.594
   24CHL1   H1A 2927   3.734   4.824   5.513
   24CHL1   H1B 2928   3.588   4.877   5.590
   24CHL1    C2 2929   3.727   4.793   5.733
   24CHL1   H2A 2930   3.761   4.895   5.761
   24CHL1   H2B 2931   3.821   4.733   5.731
   24CHL1   C20 2932   3.327   4.686   4.888
   24CHL1   H20 2933   3.358   4.581   4.869
   24CHL1   C21 2934   3.437   4.780   4.853
   24CHL1  H21A 2935   3.536   4.757   4.896
   24CHL1  H21B 2936   3.423   4.887   4.882
   24CHL1  H21C 2937   3.466   4.768   4.746
   24CHL1   C22 2938   3.203   4.705   4.803
   24CHL1  H22A 2939   3.121   4.634   4.827
   24CHL1  H22B 2940   3.155   4.804   4.820
   24CHL1   C23 2941   3.237   4.692   4.651
   24CHL1  H23A 2942   3.298   4.782   4.626
   24CHL1  H23B 2943   3.301   4.603   4.634
   24CHL1   C24 2944   3.105   4.689   4.571
   24CHL1  H24A 2945   3.047   4.598   4.599
   24CHL1  H24B 2946   3.034   4.767   4.604
   24CHL1   C25 2947   3.114   4.685   4.420
   24CHL1   H25 2948   3.015   4.661   4.375
   24CHL1   C26 2949   3.162   4.816   4.360
   24CHL1  H26A 2950   3.137   4.817   4.252
   24CHL1  H26B 2951   3.110   4.892   4.423
   24CHL1  H26C 2952   3.270   4.832   4.378
   24CHL1   C27 2953   3.212   4.577   4.367
   24CHL1  H27A 2954   3.318   4.589   4.397
   24CHL1  H27B 2955   3.178   4.476   4.399
   24CHL1  H27C 2956   3.211   4.580   4.256
   25CHL1    C3 2957   6.284   5.809   6.046
   25CHL1    H3 2958   6.348   5.720   6.031
   25CHL1    O3 2959   6.286   5.848   6.179
   25CHL1   H3' 2960   6.229   5.925   6.182
   25CHL1    C4 2961   6.321   5.916   5.952
   25CHL1   H4A 2962   6.261   6.006   5.978
   25CHL1   H4B 2963   6.424   5.948   5.975
   25CHL1    C5 2964   6.298   5.886   5.808
   25CHL1    C6 2965   6.400   5.886   5.715
   25CHL1    H6 2966   6.503   5.891   5.752
   25CHL1    C7 2967   6.377   5.844   5.576
   25CHL1   H7A 2968   6.434   5.915   5.514
   25CHL1   H7B 2969   6.407   5.737   5.581
   25CHL1    C8 2970   6.228   5.845   5.526
   25CHL1    H8 2971   6.209   5.955   5.519
   25CHL1   C14 2972   6.205   5.785   5.390
   25CHL1   H14 2973   6.227   5.676   5.388
   25CHL1   C15 2974   6.294   5.837   5.276
   25CHL1  H15A 2975   6.283   5.947   5.262
   25CHL1  H15B 2976   6.402   5.813   5.283
   25CHL1   C16 2977   6.222   5.789   5.149
   25CHL1  H16A 2978   6.202   5.887   5.101
   25CHL1  H16B 2979   6.280   5.719   5.085
   25CHL1   C17 2980   6.088   5.727   5.196
   25CHL1   H17 2981   6.106   5.618   5.213
   25CHL1   C13 2982   6.059   5.792   5.344
   25CHL1   C18 2983   6.011   5.938   5.335
   25CHL1  H18A 2984   6.019   5.983   5.436
   25CHL1  H18B 2985   6.079   5.996   5.269
   25CHL1  H18C 2986   5.905   5.936   5.301
   25CHL1   C12 2987   5.976   5.702   5.441
   25CHL1  H12A 2988   5.870   5.689   5.410
   25CHL1  H12B 2989   6.016   5.598   5.439
   25CHL1   C11 2990   5.993   5.768   5.580
   25CHL1  H11A 2991   5.941   5.867   5.573
   25CHL1  H11B 2992   5.931   5.707   5.649
   25CHL1    C9 2993   6.137   5.783   5.630
   25CHL1    H9 2994   6.165   5.678   5.655
   25CHL1   C10 2995   6.162   5.840   5.772
   25CHL1   C19 2996   6.081   5.972   5.794
   25CHL1  H19A 2997   6.109   6.038   5.709
   25CHL1  H19B 2998   5.972   5.949   5.796
   25CHL1  H19C 2999   6.089   6.027   5.890
   25CHL1    C1 3000   6.116   5.732   5.872
   25CHL1   H1A 3001   6.007   5.713   5.861
   25CHL1   H1B 3002   6.170   5.635   5.866
   25CHL1    C2 3003   6.140   5.767   6.023
   25CHL1   H2A 3004   6.102   5.682   6.083
   25CHL1   H2B 3005   6.063   5.846   6.040
   25CHL1   C20 3006   5.981   5.751   5.085
   25CHL1   H20 3007   5.953   5.858   5.096
   25CHL1   C21 3008   5.863   5.674   5.125
   25CHL1  H21A 3009   5.822   5.724   5.215
   25CHL1  H21B 3010   5.901   5.576   5.164
   25CHL1  H21C 3011   5.791   5.660   5.042
   25CHL1   C22 3012   6.022   5.730   4.938
   25CHL1  H22A 3013   5.938   5.773   4.880
   25CHL1  H22B 3014   6.117   5.782   4.912
   25CHL1   C23 3015   6.054   5.580   4.909
   25CHL1  H23A 3016   6.134   5.557   4.983
   25CHL1  H23B 3017   5.959   5.529   4.935
   25CHL1   C24 3018   6.106   5.543   4.769
   25CHL1  H24A 3019   6.195   5.607   4.750
   25CHL1  H24B 3020   6.141   5.437   4.772
   25CHL1   C25 3021   6.015   5.550   4.641
   25CHL1   H25 3022   6.062   5.506   4.550
   25CHL1   C26 3023   5.895   5.464   4.656
   25CHL1  H26A 3024   5.935   5.367   4.692
   25CHL1  H26B 3025   5.828   5.491   4.741
   25CHL1  H26C 3026   5.835   5.457   4.563
   25CHL1   C27 3027   5.988   5.695   4.593
   25CHL1  H27A 3028   6.080   5.755   4.609
   25CHL1  H27B 3029   5.951   5.691   4.489
   25CHL1  H27C 3030   5.917   5.758   4.650
   26CHL1    C3 3031   3.611   3.164   5.728
   26CHL1    H3 3032   3.618   3.271   5.754
   26CHL1    O3 3033   3.629   3.085   5.849
   26CHL1   H3' 3034   3.540   3.055   5.868
   26CHL1    C4 3035   3.474   3.135   5.654
   26CHL1   H4A 3036   3.471   3.024   5.659
   26CHL1   H4B 3037   3.399   3.163   5.730
   26CHL1    C5 3038   3.439   3.179   5.518
   26CHL1    C6 3039   3.321   3.229   5.480
   26CHL1    H6 3040   3.239   3.243   5.551
   26CHL1    C7 3041   3.287   3.272   5.341
   26CHL1   H7A 3042   3.199   3.220   5.296
   26CHL1   H7B 3043   3.259   3.379   5.333
   26CHL1    C8 3044   3.397   3.238   5.236
   26CHL1    H8 3045   3.386   3.132   5.205
   26CHL1   C14 3046   3.379   3.329   5.114
   26CHL1   H14 3047   3.408   3.429   5.152
   26CHL1   C15 3048   3.243   3.350   5.050
   26CHL1  H15A 3049   3.192   3.251   5.039
   26CHL1  H15B 3050   3.186   3.424   5.110
   26CHL1   C16 3051   3.267   3.398   4.908
   26CHL1  H16A 3052   3.234   3.326   4.831
   26CHL1  H16B 3053   3.217   3.493   4.883
   26CHL1   C17 3054   3.420   3.405   4.894
   26CHL1   H17 3055   3.447   3.508   4.924
   26CHL1   C13 3056   3.474   3.305   4.999
   26CHL1   C18 3057   3.454   3.154   4.954
   26CHL1  H18A 3058   3.480   3.084   5.036
   26CHL1  H18B 3059   3.358   3.143   4.900
   26CHL1  H18C 3060   3.534   3.122   4.883
   26CHL1   C12 3061   3.615   3.328   5.048
   26CHL1  H12A 3062   3.692   3.303   4.973
   26CHL1  H12B 3063   3.636   3.436   5.068
   26CHL1   C11 3064   3.647   3.237   5.172
   26CHL1  H11A 3065   3.647   3.129   5.145
   26CHL1  H11B 3066   3.749   3.268   5.201
   26CHL1    C9 3067   3.545   3.256   5.289
   26CHL1    H9 3068   3.557   3.364   5.311
   26CHL1   C10 3069   3.561   3.176   5.425
   26CHL1   C19 3070   3.583   3.034   5.381
   26CHL1  H19A 3071   3.593   2.966   5.468
   26CHL1  H19B 3072   3.501   3.003   5.313
   26CHL1  H19C 3073   3.678   3.019   5.324
   26CHL1    C1 3074   3.700   3.211   5.496
   26CHL1   H1A 3075   3.787   3.187   5.431
   26CHL1   H1B 3076   3.710   3.320   5.518
   26CHL1    C2 3077   3.728   3.137   5.634
   26CHL1   H2A 3078   3.823   3.175   5.677
   26CHL1   H2B 3079   3.749   3.029   5.623
   26CHL1   C20 3080   3.472   3.407   4.743
   26CHL1   H20 3081   3.456   3.302   4.710
   26CHL1   C21 3082   3.622   3.443   4.739
   26CHL1  H21A 3083   3.642   3.525   4.812
   26CHL1  H21B 3084   3.666   3.462   4.639
   26CHL1  H21C 3085   3.670   3.351   4.779
   26CHL1   C22 3086   3.384   3.505   4.670
   26CHL1  H22A 3087   3.283   3.459   4.661
   26CHL1  H22B 3088   3.369   3.603   4.720
   26CHL1   C23 3089   3.427   3.537   4.521
   26CHL1  H23A 3090   3.518   3.602   4.521
   26CHL1  H23B 3091   3.465   3.439   4.483
   26CHL1   C24 3092   3.314   3.588   4.428
   26CHL1  H24A 3093   3.254   3.498   4.403
   26CHL1  H24B 3094   3.255   3.658   4.492
   26CHL1   C25 3095   3.362   3.656   4.298
   26CHL1   H25 3096   3.412   3.749   4.333
   26CHL1   C26 3097   3.453   3.567   4.208
   26CHL1  H26A 3098   3.534   3.512   4.261
   26CHL1  H26B 3099   3.401   3.489   4.149
   26CHL1  H26C 3100   3.499   3.640   4.138
   26CHL1   C27 3101   3.234   3.696   4.223
   26CHL1  H27A 3102   3.146   3.739   4.275
   26CHL1  H27B 3103   3.255   3.768   4.142
   26CHL1  H27C 3104   3.195   3.601   4.181
   27CHL1    C3 3105   0.519   2.663   6.012
   27CHL1    H3 3106   0.439   2.732   5.976
   27CHL1    O3 3107   0.507   2.653   6.154
   27CHL1   H3' 3108   0.527   2.741   6.186
   27CHL1    C4 3109   0.496   2.523   5.950
   27CHL1   H4A 3110   0.588   2.469   5.981
   27CHL1   H4B 3111   0.405   2.475   5.991
   27CHL1    C5 3112   0.498   2.544   5.799
   27CHL1    C6 3113   0.387   2.511   5.732
   27CHL1    H6 3114   0.308   2.464   5.791
   27CHL1    C7 3115   0.378   2.514   5.584
   27CHL1   H7A 3116   0.335   2.425   5.534
   27CHL1   H7B 3117   0.303   2.595   5.569
   27CHL1    C8 3118   0.516   2.549   5.525
   27CHL1    H8 3119   0.571   2.452   5.522
   27CHL1   C14 3120   0.497   2.586   5.379
   27CHL1   H14 3121   0.439   2.680   5.372
   27CHL1   C15 3122   0.418   2.488   5.300
   27CHL1  H15A 3123   0.439   2.382   5.326
   27CHL1  H15B 3124   0.309   2.504   5.318
   27CHL1   C16 3125   0.460   2.528   5.155
   27CHL1  H16A 3126   0.497   2.434   5.109
   27CHL1  H16B 3127   0.375   2.567   5.096
   27CHL1   C17 3128   0.575   2.630   5.159
   27CHL1   H17 3129   0.530   2.729   5.137
   27CHL1   C13 3130   0.626   2.611   5.299
   27CHL1   C18 3131   0.721   2.491   5.291
   27CHL1  H18A 3132   0.817   2.519   5.244
   27CHL1  H18B 3133   0.743   2.450   5.392
   27CHL1  H18C 3134   0.678   2.413   5.224
   27CHL1   C12 3135   0.692   2.726   5.371
   27CHL1  H12A 3136   0.787   2.759   5.324
   27CHL1  H12B 3137   0.621   2.808   5.350
   27CHL1   C11 3138   0.719   2.695   5.519
   27CHL1  H11A 3139   0.786   2.607   5.514
   27CHL1  H11B 3140   0.785   2.772   5.563
   27CHL1    C9 3141   0.591   2.655   5.598
   27CHL1    H9 3142   0.520   2.740   5.603
   27CHL1   C10 3143   0.626   2.611   5.739
   27CHL1   C19 3144   0.744   2.503   5.741
   27CHL1  H19A 3145   0.738   2.428   5.659
   27CHL1  H19B 3146   0.844   2.550   5.729
   27CHL1  H19C 3147   0.752   2.456   5.841
   27CHL1    C1 3148   0.671   2.740   5.825
   27CHL1   H1A 3149   0.778   2.766   5.808
   27CHL1   H1B 3150   0.602   2.820   5.791
   27CHL1    C2 3151   0.658   2.724   5.974
   27CHL1   H2A 3152   0.671   2.822   6.026
   27CHL1   H2B 3153   0.737   2.660   6.016
   27CHL1   C20 3154   0.680   2.620   5.046
   27CHL1   H20 3155   0.737   2.525   5.056
   27CHL1   C21 3156   0.791   2.729   5.050
   27CHL1  H21A 3157   0.849   2.728   4.955
   27CHL1  H21B 3158   0.865   2.711   5.131
   27CHL1  H21C 3159   0.745   2.825   5.080
   27CHL1   C22 3160   0.613   2.597   4.912
   27CHL1  H22A 3161   0.695   2.588   4.838
   27CHL1  H22B 3162   0.567   2.498   4.929
   27CHL1   C23 3163   0.509   2.704   4.879
   27CHL1  H23A 3164   0.438   2.734   4.959
   27CHL1  H23B 3165   0.560   2.800   4.854
   27CHL1   C24 3166   0.436   2.640   4.760
   27CHL1  H24A 3167   0.503   2.632   4.671
   27CHL1  H24B 3168   0.396   2.541   4.789
   27CHL1   C25 3169   0.312   2.726   4.711
   27CHL1   H25 3170   0.344   2.829   4.685
   27CHL1   C26 3171   0.276   2.657   4.569
   27CHL1  H26A 3172   0.197   2.719   4.522
   27CHL1  H26B 3173   0.366   2.646   4.504
   27CHL1  H26C 3174   0.226   2.560   4.587
   27CHL1   C27 3175   0.196   2.731   4.802
   27CHL1  H27A 3176   0.120   2.806   4.772
   27CHL1  H27B 3177   0.229   2.770   4.901
   27CHL1  H27C 3178   0.135   2.639   4.809
   28CHL1    C3 3179   5.271   2.334   6.017
   28CHL1    H3 3180   5.198   2.410   5.984
   28CHL1    O3 3181   5.292   2.338   6.155
   28CHL1   H3' 3182   5.369   2.282   6.164
   28CHL1    C4 3183   5.229   2.195   5.964
   28CHL1   H4A 3184   5.287   2.114   6.013
   28CHL1   H4B 3185   5.126   2.185   6.002
   28CHL1    C5 3186   5.233   2.174   5.811
   28CHL1    C6 3187   5.133   2.117   5.744
   28CHL1    H6 3188   5.054   2.069   5.804
   28CHL1    C7 3189   5.135   2.074   5.598
   28CHL1   H7A 3190   5.113   1.966   5.586
   28CHL1   H7B 3191   5.049   2.133   5.559
   28CHL1    C8 3192   5.268   2.106   5.529
   28CHL1    H8 3193   5.342   2.028   5.558
   28CHL1   C14 3194   5.244   2.120   5.377
   28CHL1   H14 3195   5.168   2.200   5.367
   28CHL1   C15 3196   5.179   1.996   5.311
   28CHL1  H15A 3197   5.249   1.911   5.326
   28CHL1  H15B 3198   5.079   1.974   5.354
   28CHL1   C16 3199   5.183   2.042   5.162
   28CHL1  H16A 3200   5.192   1.956   5.092
   28CHL1  H16B 3201   5.087   2.093   5.139
   28CHL1   C17 3202   5.291   2.156   5.148
   28CHL1   H17 3203   5.230   2.248   5.146
   28CHL1   C13 3204   5.354   2.157   5.292
   28CHL1   C18 3205   5.464   2.045   5.294
   28CHL1  H18A 3206   5.553   2.089   5.244
   28CHL1  H18B 3207   5.494   2.017   5.397
   28CHL1  H18C 3208   5.432   1.966   5.223
   28CHL1   C12 3209   5.419   2.288   5.339
   28CHL1  H12A 3210   5.520   2.305   5.296
   28CHL1  H12B 3211   5.350   2.374   5.321
   28CHL1   C11 3212   5.450   2.277   5.495
   28CHL1  H11A 3213   5.531   2.202   5.515
   28CHL1  H11B 3214   5.497   2.372   5.527
   28CHL1    C9 3215   5.327   2.237   5.584
   28CHL1    H9 3216   5.245   2.311   5.571
   28CHL1   C10 3217   5.354   2.229   5.742
   28CHL1   C19 3218   5.468   2.132   5.771
   28CHL1  H19A 3219   5.563   2.162   5.720
   28CHL1  H19B 3220   5.482   2.134   5.881
   28CHL1  H19C 3221   5.438   2.033   5.732
   28CHL1    C1 3222   5.378   2.372   5.799
   28CHL1   H1A 3223   5.469   2.411   5.749
   28CHL1   H1B 3224   5.291   2.436   5.772
   28CHL1    C2 3225   5.402   2.378   5.948
   28CHL1   H2A 3226   5.428   2.482   5.979
   28CHL1   H2B 3227   5.487   2.316   5.980
   28CHL1   C20 3228   5.369   2.161   5.017
   28CHL1   H20 3229   5.437   2.073   5.018
   28CHL1   C21 3230   5.459   2.277   5.003
   28CHL1  H21A 3231   5.518   2.253   4.912
   28CHL1  H21B 3232   5.526   2.278   5.092
   28CHL1  H21C 3233   5.395   2.367   5.013
   28CHL1   C22 3234   5.284   2.150   4.892
   28CHL1  H22A 3235   5.219   2.060   4.901
   28CHL1  H22B 3236   5.226   2.244   4.893
   28CHL1   C23 3237   5.360   2.138   4.757
   28CHL1  H23A 3238   5.419   2.231   4.740
   28CHL1  H23B 3239   5.433   2.054   4.758
   28CHL1   C24 3240   5.267   2.109   4.637
   28CHL1  H24A 3241   5.202   2.023   4.665
   28CHL1  H24B 3242   5.198   2.195   4.631
   28CHL1   C25 3243   5.338   2.088   4.504
   28CHL1   H25 3244   5.411   2.007   4.520
   28CHL1   C26 3245   5.236   2.022   4.407
   28CHL1  H26A 3246   5.292   2.004   4.313
   28CHL1  H26B 3247   5.210   1.921   4.446
   28CHL1  H26C 3248   5.147   2.087   4.391
   28CHL1   C27 3249   5.402   2.217   4.455
   28CHL1  H27A 3250   5.418   2.209   4.345
   28CHL1  H27B 3251   5.329   2.301   4.455
   28CHL1  H27C 3252   5.501   2.230   4.503
   29CHL1    C3 3253   2.653   3.932   5.846
   29CHL1    H3 3254   2.731   3.872   5.793
   29CHL1    O3 3255   2.649   3.901   5.981
   29CHL1   H3' 3256   2.562   3.930   6.008
   29CHL1    C4 3257   2.685   4.077   5.833
   29CHL1   H4A 3258   2.601   4.140   5.870
   29CHL1   H4B 3259   2.773   4.114   5.890
   29CHL1    C5 3260   2.702   4.127   5.689
   29CHL1    C6 3261   2.819   4.182   5.652
   29CHL1    H6 3262   2.894   4.201   5.731
   29CHL1    C7 3263   2.839   4.241   5.516
   29CHL1   H7A 3264   2.881   4.343   5.523
   29CHL1   H7B 3265   2.910   4.168   5.470
   29CHL1    C8 3266   2.714   4.249   5.426
   29CHL1    H8 3267   2.654   4.339   5.452
   29CHL1   C14 3268   2.752   4.251   5.276
   29CHL1   H14 3269   2.815   4.161   5.264
   29CHL1   C15 3270   2.845   4.371   5.231
   29CHL1  H15A 3271   2.811   4.465   5.279
   29CHL1  H15B 3272   2.949   4.353   5.264
   29CHL1   C16 3273   2.834   4.369   5.077
   29CHL1  H16A 3274   2.790   4.470   5.058
   29CHL1  H16B 3275   2.937   4.347   5.042
   29CHL1   C17 3276   2.728   4.259   5.045
   29CHL1   H17 3277   2.784   4.168   5.017
   29CHL1   C13 3278   2.643   4.241   5.168
   29CHL1   C18 3279   2.551   4.360   5.189
   29CHL1  H18A 3280   2.588   4.465   5.181
   29CHL1  H18B 3281   2.465   4.349   5.119
   29CHL1  H18C 3282   2.504   4.353   5.290
   29CHL1   C12 3283   2.571   4.110   5.189
   29CHL1  H12A 3284   2.489   4.097   5.116
   29CHL1  H12B 3285   2.655   4.040   5.170
   29CHL1   C11 3286   2.516   4.103   5.336
   29CHL1  H11A 3287   2.437   4.180   5.349
   29CHL1  H11B 3288   2.476   4.002   5.356
   29CHL1    C9 3289   2.630   4.124   5.448
   29CHL1    H9 3290   2.689   4.032   5.427
   29CHL1   C10 3291   2.589   4.098   5.591
   29CHL1   C19 3292   2.475   4.195   5.625
   29CHL1  H19A 3293   2.387   4.178   5.560
   29CHL1  H19B 3294   2.444   4.178   5.730
   29CHL1  H19C 3295   2.514   4.297   5.608
   29CHL1    C1 3296   2.547   3.946   5.620
   29CHL1   H1A 3297   2.453   3.923   5.565
   29CHL1   H1B 3298   2.641   3.899   5.583
   29CHL1    C2 3299   2.531   3.905   5.765
   29CHL1   H2A 3300   2.529   3.794   5.764
   29CHL1   H2B 3301   2.435   3.941   5.807
   29CHL1   C20 3302   2.648   4.278   4.913
   29CHL1   H20 3303   2.566   4.352   4.926
   29CHL1   C21 3304   2.582   4.141   4.869
   29CHL1  H21A 3305   2.649   4.054   4.889
   29CHL1  H21B 3306   2.565   4.138   4.759
   29CHL1  H21C 3307   2.491   4.120   4.928
   29CHL1   C22 3308   2.741   4.335   4.800
   29CHL1  H22A 3309   2.805   4.421   4.831
   29CHL1  H22B 3310   2.812   4.250   4.787
   29CHL1   C23 3311   2.667   4.356   4.669
   29CHL1  H23A 3312   2.645   4.258   4.622
   29CHL1  H23B 3313   2.570   4.409   4.680
   29CHL1   C24 3314   2.761   4.426   4.571
   29CHL1  H24A 3315   2.796   4.520   4.619
   29CHL1  H24B 3316   2.849   4.367   4.537
   29CHL1   C25 3317   2.698   4.490   4.439
   29CHL1   H25 3318   2.776   4.556   4.397
   29CHL1   C26 3319   2.649   4.392   4.328
   29CHL1  H26A 3320   2.571   4.328   4.374
   29CHL1  H26B 3321   2.615   4.443   4.236
   29CHL1  H26C 3322   2.738   4.331   4.302
   29CHL1   C27 3323   2.582   4.591   4.472
   29CHL1  H27A 3324   2.497   4.544   4.525
   29CHL1  H27B 3325   2.621   4.676   4.532
   29CHL1  H27C 3326   2.529   4.628   4.381
   30CHL1    C3 3327   2.899   3.632   5.565
   30CHL1    H3 3328   2.791   3.619   5.542
   30CHL1    O3 3329   2.920   3.599   5.699
   30CHL1   H3' 3330   2.967   3.515   5.702
   30CHL1    C4 3331   2.976   3.539   5.478
   30CHL1   H4A 3332   3.085   3.532   5.500
   30CHL1   H4B 3333   2.930   3.440   5.500
   30CHL1    C5 3334   2.959   3.565   5.329
   30CHL1    C6 3335   2.923   3.463   5.254
   30CHL1    H6 3336   2.912   3.359   5.286
   30CHL1    C7 3337   2.896   3.483   5.110
   30CHL1   H7A 3338   2.938   3.408   5.040
   30CHL1   H7B 3339   2.787   3.477   5.091
   30CHL1    C8 3340   2.938   3.625   5.057
   30CHL1    H8 3341   3.048   3.622   5.042
   30CHL1   C14 3342   2.886   3.644   4.914
   30CHL1   H14 3343   2.776   3.639   4.931
   30CHL1   C15 3344   2.907   3.540   4.808
   30CHL1  H15A 3345   3.005   3.489   4.816
   30CHL1  H15B 3346   2.830   3.463   4.831
   30CHL1   C16 3347   2.886   3.607   4.670
   30CHL1  H16A 3348   2.979   3.594   4.611
   30CHL1  H16B 3349   2.795   3.563   4.623
   30CHL1   C17 3350   2.857   3.760   4.706
   30CHL1   H17 3351   2.747   3.761   4.721
   30CHL1   C13 3352   2.922   3.782   4.850
   30CHL1   C18 3353   3.078   3.791   4.834
   30CHL1  H18A 3354   3.114   3.724   4.754
   30CHL1  H18B 3355   3.100   3.892   4.792
   30CHL1  H18C 3356   3.146   3.792   4.922
   30CHL1   C12 3357   2.866   3.894   4.946
   30CHL1  H12A 3358   2.880   3.995   4.902
   30CHL1  H12B 3359   2.756   3.882   4.954
   30CHL1   C11 3360   2.928   3.885   5.085
   30CHL1  H11A 3361   3.037   3.897   5.072
   30CHL1  H11B 3362   2.885   3.968   5.145
   30CHL1    C9 3363   2.912   3.736   5.153
   30CHL1    H9 3364   2.802   3.739   5.168
   30CHL1   C10 3365   2.968   3.715   5.288
   30CHL1   C19 3366   3.120   3.742   5.294
   30CHL1  H19A 3367   3.168   3.714   5.390
   30CHL1  H19B 3368   3.182   3.699   5.213
   30CHL1  H19C 3369   3.126   3.853   5.293
   30CHL1    C1 3370   2.888   3.808   5.392
   30CHL1   H1A 3371   2.911   3.912   5.362
   30CHL1   H1B 3372   2.777   3.800   5.384
   30CHL1    C2 3373   2.922   3.781   5.544
   30CHL1   H2A 3374   2.856   3.838   5.613
   30CHL1   H2B 3375   3.031   3.799   5.557
   30CHL1   C20 3376   2.902   3.851   4.590
   30CHL1   H20 3377   3.011   3.835   4.573
   30CHL1   C21 3378   2.878   4.000   4.623
   30CHL1  H21A 3379   2.774   4.018   4.660
   30CHL1  H21B 3380   2.880   4.059   4.529
   30CHL1  H21C 3381   2.944   4.046   4.699
   30CHL1   C22 3382   2.823   3.827   4.460
   30CHL1  H22A 3383   2.837   3.718   4.441
   30CHL1  H22B 3384   2.715   3.849   4.476
   30CHL1   C23 3385   2.852   3.902   4.329
   30CHL1  H23A 3386   2.846   4.012   4.345
   30CHL1  H23B 3387   2.960   3.886   4.307
   30CHL1   C24 3388   2.784   3.836   4.208
   30CHL1  H24A 3389   2.813   3.730   4.222
   30CHL1  H24B 3390   2.676   3.853   4.228
   30CHL1   C25 3391   2.832   3.883   4.066
   30CHL1   H25 3392   2.941   3.862   4.061
   30CHL1   C26 3393   2.763   3.809   3.949
   30CHL1  H26A 3394   2.655   3.836   3.952
   30CHL1  H26B 3395   2.809   3.836   3.852
   30CHL1  H26C 3396   2.780   3.699   3.955
   30CHL1   C27 3397   2.796   4.034   4.051
   30CHL1  H27A 3398   2.788   4.065   3.945
   30CHL1  H27B 3399   2.691   4.043   4.087
   30CHL1  H27C 3400   2.866   4.103   4.101
   31CHL1    C3 3401   1.979   4.189   5.905
   31CHL1    H3 3402   1.903   4.109   5.895
   31CHL1    O3 3403   2.000   4.203   6.044
   31CHL1   H3' 3404   1.997   4.299   6.057
   31CHL1    C4 3405   2.104   4.140   5.832
   31CHL1   H4A 3406   2.178   4.219   5.856
   31CHL1   H4B 3407   2.137   4.049   5.888
   31CHL1    C5 3408   2.076   4.119   5.680
   31CHL1    C6 3409   2.092   4.002   5.626
   31CHL1    H6 3410   2.127   3.912   5.678
   31CHL1    C7 3411   2.078   3.971   5.484
   31CHL1   H7A 3412   2.164   3.909   5.449
   31CHL1   H7B 3413   1.983   3.914   5.485
   31CHL1    C8 3414   2.078   4.104   5.407
   31CHL1    H8 3415   2.176   4.154   5.426
   31CHL1   C14 3416   2.057   4.072   5.263
   31CHL1   H14 3417   1.958   4.023   5.259
   31CHL1   C15 3418   2.153   3.972   5.192
   31CHL1  H15A 3419   2.259   4.002   5.208
   31CHL1  H15B 3420   2.140   3.866   5.223
   31CHL1   C16 3421   2.124   3.999   5.043
   31CHL1  H16A 3422   2.226   4.014   5.001
   31CHL1  H16B 3423   2.068   3.918   4.992
   31CHL1   C17 3424   2.037   4.128   5.042
   31CHL1   H17 3425   1.936   4.084   5.024
   31CHL1   C13 3426   2.045   4.200   5.178
   31CHL1   C18 3427   2.174   4.273   5.181
   31CHL1  H18A 3428   2.158   4.370   5.129
   31CHL1  H18B 3429   2.198   4.304   5.285
   31CHL1  H18C 3430   2.259   4.217   5.138
   31CHL1   C12 3431   1.919   4.282   5.219
   31CHL1  H12A 3432   1.904   4.373   5.157
   31CHL1  H12B 3433   1.831   4.218   5.200
   31CHL1   C11 3434   1.933   4.316   5.372
   31CHL1  H11A 3435   2.010   4.396   5.363
   31CHL1  H11B 3436   1.847   4.368   5.419
   31CHL1    C9 3437   1.968   4.198   5.466
   31CHL1    H9 3438   1.876   4.136   5.467
   31CHL1   C10 3439   2.012   4.236   5.610
   31CHL1   C19 3440   2.120   4.349   5.599
   31CHL1  H19A 3441   2.186   4.325   5.513
   31CHL1  H19B 3442   2.072   4.446   5.575
   31CHL1  H19C 3443   2.178   4.361   5.693
   31CHL1    C1 3444   1.895   4.282   5.698
   31CHL1   H1A 3445   1.847   4.371   5.651
   31CHL1   H1B 3446   1.816   4.204   5.693
   31CHL1    C2 3447   1.930   4.321   5.843
   31CHL1   H2A 3448   1.838   4.358   5.894
   31CHL1   H2B 3449   2.005   4.402   5.854
   31CHL1   C20 3450   2.057   4.208   4.908
   31CHL1   H20 3451   2.160   4.250   4.899
   31CHL1   C21 3452   1.961   4.324   4.897
   31CHL1  H21A 3453   1.983   4.405   4.969
   31CHL1  H21B 3454   1.854   4.295   4.903
   31CHL1  H21C 3455   1.960   4.360   4.791
   31CHL1   C22 3456   2.041   4.117   4.779
   31CHL1  H22A 3457   1.987   4.026   4.814
   31CHL1  H22B 3458   1.980   4.175   4.707
   31CHL1   C23 3459   2.169   4.086   4.705
   31CHL1  H23A 3460   2.218   4.183   4.682
   31CHL1  H23B 3461   2.231   4.026   4.775
   31CHL1   C24 3462   2.147   3.997   4.583
   31CHL1  H24A 3463   2.108   3.902   4.626
   31CHL1  H24B 3464   2.058   4.030   4.524
   31CHL1   C25 3465   2.267   3.958   4.501
   31CHL1   H25 3466   2.335   3.903   4.568
   31CHL1   C26 3467   2.217   3.882   4.375
   31CHL1  H26A 3468   2.132   3.939   4.332
   31CHL1  H26B 3469   2.292   3.870   4.294
   31CHL1  H26C 3470   2.195   3.775   4.395
   31CHL1   C27 3471   2.338   4.084   4.451
   31CHL1  H27A 3472   2.382   4.145   4.533
   31CHL1  H27B 3473   2.410   4.071   4.367
   31CHL1  H27C 3474   2.263   4.150   4.403
   32CHL1    C3 3475   2.153   2.126   5.847
   32CHL1    H3 3476   2.186   2.022   5.823
   32CHL1    O3 3477   2.174   2.166   5.979
   32CHL1   H3' 3478   2.138   2.256   5.981
   32CHL1    C4 3479   2.223   2.219   5.741
   32CHL1   H4A 3480   2.178   2.320   5.757
   32CHL1   H4B 3481   2.332   2.225   5.761
   32CHL1    C5 3482   2.192   2.175   5.600
   32CHL1    C6 3483   2.291   2.159   5.508
   32CHL1    H6 3484   2.395   2.186   5.533
   32CHL1    C7 3485   2.260   2.124   5.363
   32CHL1   H7A 3486   2.324   2.184   5.294
   32CHL1   H7B 3487   2.283   2.016   5.351
   32CHL1    C8 3488   2.112   2.160   5.325
   32CHL1    H8 3489   2.100   2.271   5.317
   32CHL1   C14 3490   2.074   2.088   5.193
   32CHL1   H14 3491   2.070   1.980   5.219
   32CHL1   C15 3492   2.175   2.095   5.083
   32CHL1  H15A 3493   2.209   2.196   5.049
   32CHL1  H15B 3494   2.260   2.027   5.107
   32CHL1   C16 3495   2.089   2.043   4.964
   32CHL1  H16A 3496   2.114   2.104   4.875
   32CHL1  H16B 3497   2.124   1.939   4.945
   32CHL1   C17 3498   1.938   2.049   4.994
   32CHL1   H17 3499   1.900   1.948   5.017
   32CHL1   C13 3500   1.936   2.121   5.133
   32CHL1   C18 3501   1.926   2.276   5.097
   32CHL1  H18A 3502   1.829   2.296   5.047
   32CHL1  H18B 3503   1.936   2.344   5.184
   32CHL1  H18C 3504   2.008   2.307   5.029
   32CHL1   C12 3505   1.842   2.068   5.238
   32CHL1  H12A 3506   1.736   2.087   5.210
   32CHL1  H12B 3507   1.844   1.958   5.254
   32CHL1   C11 3508   1.870   2.136   5.377
   32CHL1  H11A 3509   1.844   2.243   5.363
   32CHL1  H11B 3510   1.796   2.101   5.451
   32CHL1    C9 3511   2.015   2.115   5.435
   32CHL1    H9 3512   2.017   2.004   5.444
   32CHL1   C10 3513   2.037   2.173   5.578
   32CHL1   C19 3514   1.991   2.322   5.583
   32CHL1  H19A 3515   1.880   2.325   5.586
   32CHL1  H19B 3516   2.010   2.372   5.681
   32CHL1  H19C 3517   2.038   2.385   5.504
   32CHL1    C1 3518   1.958   2.093   5.685
   32CHL1   H1A 3519   1.852   2.125   5.678
   32CHL1   H1B 3520   1.967   1.983   5.672
   32CHL1    C2 3521   1.999   2.130   5.826
   32CHL1   H2A 3522   1.943   2.055   5.886
   32CHL1   H2B 3523   1.969   2.235   5.845
   32CHL1   C20 3524   1.846   2.094   4.883
   32CHL1   H20 3525   1.869   2.202   4.870
   32CHL1   C21 3526   1.698   2.075   4.916
   32CHL1  H21A 3527   1.654   1.973   4.905
   32CHL1  H21B 3528   1.641   2.136   4.843
   32CHL1  H21C 3529   1.671   2.118   5.015
   32CHL1   C22 3530   1.881   2.028   4.750
   32CHL1  H22A 3531   1.986   1.993   4.757
   32CHL1  H22B 3532   1.825   1.933   4.757
   32CHL1   C23 3533   1.854   2.107   4.630
   32CHL1  H23A 3534   1.750   2.146   4.632
   32CHL1  H23B 3535   1.920   2.196   4.625
   32CHL1   C24 3536   1.873   2.020   4.501
   32CHL1  H24A 3537   1.982   2.003   4.492
   32CHL1  H24B 3538   1.843   1.914   4.521
   32CHL1   C25 3539   1.812   2.076   4.372
   32CHL1   H25 3540   1.843   2.182   4.361
   32CHL1   C26 3541   1.873   2.011   4.248
   32CHL1  H26A 3542   1.860   1.903   4.225
   32CHL1  H26B 3543   1.837   2.065   4.158
   32CHL1  H26C 3544   1.983   2.020   4.249
   32CHL1   C27 3545   1.659   2.049   4.371
   32CHL1  H27A 3546   1.621   2.087   4.273
   32CHL1  H27B 3547   1.633   1.941   4.365
   32CHL1  H27C 3548   1.611   2.101   4.457
   33CHL1    C3 3549   0.867   1.410   5.808
   33CHL1    H3 3550   0.903   1.316   5.762
   33CHL1    O3 3551   0.851   1.386   5.949
   33CHL1   H3' 3552   0.854   1.290   5.952
   33CHL1    C4 3553   0.965   1.526   5.777
   33CHL1   H4A 3554   0.927   1.615   5.832
   33CHL1   H4B 3555   1.066   1.504   5.817
   33CHL1    C5 3556   0.977   1.560   5.629
   33CHL1    C6 3557   1.097   1.572   5.574
   33CHL1    H6 3558   1.185   1.544   5.635
   33CHL1    C7 3559   1.114   1.606   5.432
   33CHL1   H7A 3560   1.177   1.697   5.427
   33CHL1   H7B 3561   1.178   1.529   5.383
   33CHL1    C8 3562   0.986   1.638   5.347
   33CHL1    H8 3563   0.960   1.745   5.356
   33CHL1   C14 3564   1.008   1.597   5.203
   33CHL1   H14 3565   1.030   1.488   5.201
   33CHL1   C15 3566   1.117   1.678   5.129
   33CHL1  H15A 3567   1.098   1.785   5.154
   33CHL1  H15B 3568   1.220   1.642   5.153
   33CHL1   C16 3569   1.083   1.646   4.987
   33CHL1  H16A 3570   1.098   1.729   4.915
   33CHL1  H16B 3571   1.144   1.563   4.945
   33CHL1   C17 3572   0.937   1.586   4.983
   33CHL1   H17 3573   0.958   1.477   4.984
   33CHL1   C13 3574   0.880   1.617   5.115
   33CHL1   C18 3575   0.822   1.767   5.109
   33CHL1  H18A 3576   0.737   1.754   5.039
   33CHL1  H18B 3577   0.778   1.786   5.209
   33CHL1  H18C 3578   0.894   1.847   5.080
   33CHL1   C12 3579   0.765   1.520   5.170
   33CHL1  H12A 3580   0.669   1.538   5.119
   33CHL1  H12B 3581   0.818   1.422   5.163
   33CHL1   C11 3582   0.739   1.554   5.315
   33CHL1  H11A 3583   0.698   1.657   5.318
   33CHL1  H11B 3584   0.661   1.482   5.347
   33CHL1    C9 3585   0.870   1.553   5.401
   33CHL1    H9 3586   0.907   1.448   5.393
   33CHL1   C10 3587   0.841   1.572   5.552
   33CHL1   C19 3588   0.798   1.720   5.591
   33CHL1  H19A 3589   0.873   1.784   5.540
   33CHL1  H19B 3590   0.695   1.735   5.551
   33CHL1  H19C 3591   0.797   1.753   5.697
   33CHL1    C1 3592   0.737   1.461   5.594
   33CHL1   H1A 3593   0.632   1.478   5.564
   33CHL1   H1B 3594   0.766   1.364   5.548
   33CHL1    C2 3595   0.727   1.444   5.745
   33CHL1   H2A 3596   0.644   1.371   5.759
   33CHL1   H2B 3597   0.688   1.538   5.787
   33CHL1   C20 3598   0.862   1.606   4.851
   33CHL1   H20 3599   0.756   1.585   4.877
   33CHL1   C21 3600   0.897   1.491   4.761
   33CHL1  H21A 3601   1.001   1.499   4.723
   33CHL1  H21B 3602   0.834   1.495   4.670
   33CHL1  H21C 3603   0.885   1.387   4.800
   33CHL1   C22 3604   0.879   1.741   4.780
   33CHL1  H22A 3605   0.876   1.824   4.855
   33CHL1  H22B 3606   0.970   1.759   4.718
   33CHL1   C23 3607   0.771   1.775   4.674
   33CHL1  H23A 3608   0.680   1.714   4.693
   33CHL1  H23B 3609   0.746   1.881   4.700
   33CHL1   C24 3610   0.817   1.766   4.527
   33CHL1  H24A 3611   0.869   1.670   4.509
   33CHL1  H24B 3612   0.732   1.745   4.458
   33CHL1   C25 3613   0.925   1.879   4.491
   33CHL1   H25 3614   1.000   1.877   4.573
   33CHL1   C26 3615   1.010   1.848   4.366
   33CHL1  H26A 3616   1.093   1.923   4.364
   33CHL1  H26B 3617   1.051   1.746   4.379
   33CHL1  H26C 3618   0.947   1.860   4.275
   33CHL1   C27 3619   0.869   2.020   4.469
   33CHL1  H27A 3620   0.929   2.093   4.411
   33CHL1  H27B 3621   0.774   2.008   4.413
   33CHL1  H27C 3622   0.842   2.065   4.567
   34CHL1    C3 3623   2.687   2.734   5.937
   34CHL1    H3 3624   2.774   2.773   5.880
   34CHL1    O3 3625   2.726   2.743   6.075
   34CHL1   H3' 3626   2.676   2.671   6.113
   34CHL1    C4 3627   2.561   2.818   5.907
   34CHL1   H4A 3628   2.472   2.794   5.970
   34CHL1   H4B 3629   2.594   2.921   5.927
   34CHL1    C5 3630   2.506   2.804   5.762
   34CHL1    C6 3631   2.462   2.909   5.695
   34CHL1    H6 3632   2.467   3.007   5.744
   34CHL1    C7 3633   2.414   2.905   5.549
   34CHL1   H7A 3634   2.321   2.966   5.535
   34CHL1   H7B 3635   2.490   2.952   5.483
   34CHL1    C8 3636   2.376   2.762   5.504
   34CHL1    H8 3637   2.274   2.744   5.545
   34CHL1   C14 3638   2.349   2.754   5.352
   34CHL1   H14 3639   2.448   2.769   5.303
   34CHL1   C15 3640   2.252   2.849   5.282
   34CHL1  H15A 3641   2.150   2.860   5.326
   34CHL1  H15B 3642   2.304   2.948   5.273
   34CHL1   C16 3643   2.237   2.795   5.145
   34CHL1  H16A 3644   2.128   2.795   5.122
   34CHL1  H16B 3645   2.282   2.850   5.059
   34CHL1   C17 3646   2.286   2.650   5.152
   34CHL1   H17 3647   2.393   2.664   5.127
   34CHL1   C13 3648   2.309   2.610   5.309
   34CHL1   C18 3649   2.180   2.569   5.367
   34CHL1  H18A 3650   2.191   2.576   5.478
   34CHL1  H18B 3651   2.091   2.631   5.345
   34CHL1  H18C 3652   2.146   2.471   5.327
   34CHL1   C12 3653   2.423   2.516   5.343
   34CHL1  H12A 3654   2.396   2.410   5.324
   34CHL1  H12B 3655   2.511   2.553   5.287
   34CHL1   C11 3656   2.464   2.521   5.488
   34CHL1  H11A 3657   2.385   2.470   5.547
   34CHL1  H11B 3658   2.564   2.473   5.483
   34CHL1    C9 3659   2.486   2.665   5.548
   34CHL1    H9 3660   2.588   2.690   5.511
   34CHL1   C10 3661   2.507   2.665   5.700
   34CHL1   C19 3662   2.395   2.582   5.771
   34CHL1  H19A 3663   2.413   2.474   5.755
   34CHL1  H19B 3664   2.383   2.604   5.879
   34CHL1  H19C 3665   2.297   2.614   5.728
   34CHL1    C1 3666   2.637   2.590   5.736
   34CHL1   H1A 3667   2.618   2.486   5.702
   34CHL1   H1B 3668   2.716   2.637   5.674
   34CHL1    C2 3669   2.670   2.591   5.887
   34CHL1   H2A 3670   2.762   2.530   5.899
   34CHL1   H2B 3671   2.581   2.546   5.936
   34CHL1   C20 3672   2.209   2.564   5.048
   34CHL1   H20 3673   2.110   2.532   5.088
   34CHL1   C21 3674   2.292   2.437   5.017
   34CHL1  H21A 3675   2.238   2.368   4.948
   34CHL1  H21B 3676   2.300   2.384   5.114
   34CHL1  H21C 3677   2.390   2.463   4.972
   34CHL1   C22 3678   2.188   2.633   4.911
   34CHL1  H22A 3679   2.126   2.722   4.934
   34CHL1  H22B 3680   2.280   2.663   4.857
   34CHL1   C23 3681   2.096   2.559   4.807
   34CHL1  H23A 3682   2.162   2.479   4.765
   34CHL1  H23B 3683   2.012   2.509   4.860
   34CHL1   C24 3684   2.045   2.638   4.685
   34CHL1  H24A 3685   1.992   2.727   4.724
   34CHL1  H24B 3686   2.128   2.670   4.619
   34CHL1   C25 3687   1.952   2.558   4.603
   34CHL1   H25 3688   1.882   2.496   4.662
   34CHL1   C26 3689   1.875   2.656   4.514
   34CHL1  H26A 3690   1.948   2.731   4.475
   34CHL1  H26B 3691   1.822   2.612   4.427
   34CHL1  H26C 3692   1.799   2.711   4.574
   34CHL1   C27 3693   2.028   2.459   4.512
   34CHL1  H27A 3694   2.096   2.521   4.449
   34CHL1  H27B 3695   2.079   2.390   4.582
   34CHL1  H27C 3696   1.963   2.400   4.444
   35CHL1    C3 3697   4.376   5.430   5.984
   35CHL1    H3 3698   4.487   5.438   5.984
   35CHL1    O3 3699   4.329   5.449   6.116
   35CHL1   H3' 3700   4.273   5.372   6.123
   35CHL1    C4 3701   4.337   5.562   5.907
   35CHL1   H4A 3702   4.234   5.592   5.934
   35CHL1   H4B 3703   4.415   5.632   5.942
   35CHL1    C5 3704   4.351   5.552   5.756
   35CHL1    C6 3705   4.410   5.649   5.683
   35CHL1    H6 3706   4.445   5.736   5.740
   35CHL1    C7 3707   4.427   5.658   5.533
   35CHL1   H7A 3708   4.405   5.759   5.493
   35CHL1   H7B 3709   4.528   5.618   5.510
   35CHL1    C8 3710   4.330   5.547   5.474
   35CHL1    H8 3711   4.228   5.586   5.494
   35CHL1   C14 3712   4.357   5.531   5.323
   35CHL1   H14 3713   4.463   5.503   5.305
   35CHL1   C15 3714   4.332   5.652   5.232
   35CHL1  H15A 3715   4.235   5.699   5.257
   35CHL1  H15B 3716   4.409   5.732   5.236
   35CHL1   C16 3717   4.312   5.601   5.088
   35CHL1  H16A 3718   4.211   5.632   5.054
   35CHL1  H16B 3719   4.392   5.651   5.030
   35CHL1   C17 3720   4.313   5.447   5.094
   35CHL1   H17 3721   4.419   5.418   5.079
   35CHL1   C13 3722   4.278   5.424   5.250
   35CHL1   C18 3723   4.123   5.457   5.279
   35CHL1  H18A 3724   4.058   5.372   5.251
   35CHL1  H18B 3725   4.107   5.476   5.387
   35CHL1  H18C 3726   4.091   5.533   5.205
   35CHL1   C12 3727   4.310   5.286   5.312
   35CHL1  H12A 3728   4.243   5.204   5.278
   35CHL1  H12B 3729   4.417   5.268   5.288
   35CHL1   C11 3730   4.282   5.291   5.465
   35CHL1  H11A 3731   4.171   5.291   5.468
   35CHL1  H11B 3732   4.316   5.202   5.522
   35CHL1    C9 3733   4.346   5.415   5.549
   35CHL1    H9 3734   4.453   5.385   5.555
   35CHL1   C10 3735   4.297   5.421   5.691
   35CHL1   C19 3736   4.138   5.428   5.702
   35CHL1  H19A 3737   4.089   5.337   5.662
   35CHL1  H19B 3738   4.111   5.430   5.810
   35CHL1  H19C 3739   4.096   5.520   5.656
   35CHL1    C1 3740   4.349   5.296   5.775
   35CHL1   H1A 3741   4.305   5.200   5.738
   35CHL1   H1B 3742   4.460   5.293   5.769
   35CHL1    C2 3743   4.325   5.301   5.924
   35CHL1   H2A 3744   4.378   5.216   5.971
   35CHL1   H2B 3745   4.214   5.296   5.936
   35CHL1   C20 3746   4.230   5.381   4.984
   35CHL1   H20 3747   4.121   5.383   5.004
   35CHL1   C21 3748   4.266   5.236   4.964
   35CHL1  H21A 3749   4.186   5.183   4.907
   35CHL1  H21B 3750   4.276   5.178   5.059
   35CHL1  H21C 3751   4.361   5.231   4.906
   35CHL1   C22 3752   4.240   5.457   4.846
   35CHL1  H22A 3753   4.213   5.563   4.864
   35CHL1  H22B 3754   4.345   5.452   4.810
   35CHL1   C23 3755   4.152   5.400   4.736
   35CHL1  H23A 3756   4.154   5.289   4.741
   35CHL1  H23B 3757   4.048   5.428   4.764
   35CHL1   C24 3758   4.181   5.453   4.600
   35CHL1  H24A 3759   4.191   5.564   4.607
   35CHL1  H24B 3760   4.258   5.392   4.549
   35CHL1   C25 3761   4.057   5.440   4.509
   35CHL1   H25 3762   3.980   5.506   4.553
   35CHL1   C26 3763   4.088   5.507   4.370
   35CHL1  H26A 3764   4.018   5.457   4.300
   35CHL1  H26B 3765   4.054   5.612   4.385
   35CHL1  H26C 3766   4.191   5.498   4.329
   35CHL1   C27 3767   4.006   5.300   4.487
   35CHL1  H27A 3768   3.920   5.293   4.417
   35CHL1  H27B 3769   4.087   5.232   4.452
   35CHL1  H27C 3770   3.977   5.249   4.582
   36CHL1    C3 3771   6.747   3.644   5.865
   36CHL1    H3 3772   6.643   3.637   5.829
   36CHL1    O3 3773   6.749   3.641   6.009
   36CHL1   H3' 3774   6.802   3.718   6.028
   36CHL1    C4 3775   6.840   3.539   5.804
   36CHL1   H4A 3776   0.062   3.551   5.851
   36CHL1   H4B 3777   6.804   3.437   5.828
   36CHL1    C5 3778   6.849   3.538   5.653
   36CHL1    C6 3779   6.834   3.426   5.578
   36CHL1    H6 3780   6.811   3.330   5.627
   36CHL1    C7 3781   6.840   3.424   5.434
   36CHL1   H7A 3782   6.869   3.328   5.385
   36CHL1   H7B 3783   6.736   3.435   5.397
   36CHL1    C8 3784   0.043   3.541   5.363
   36CHL1    H8 3785   0.149   3.516   5.384
   36CHL1   C14 3786   0.015   3.554   5.219
   36CHL1   H14 3787   6.789   3.592   5.211
   36CHL1   C15 3788   0.025   3.424   5.137
   36CHL1  H15A 3789   0.119   3.370   5.161
   36CHL1  H15B 3790   6.825   3.347   5.157
   36CHL1   C16 3791   0.039   3.475   4.997
   36CHL1  H16A 3792   0.124   3.431   4.941
   36CHL1  H16B 3793   6.820   3.462   4.946
   36CHL1   C17 3794   0.063   3.634   5.005
   36CHL1   H17 3795   6.838   3.673   4.997
   36CHL1   C13 3796   0.098   3.662   5.151
   36CHL1   C18 3797   0.249   3.630   5.168
   36CHL1  H18A 3798   0.267   3.526   5.133
   36CHL1  H18B 3799   0.310   3.697   5.103
   36CHL1  H18C 3800   0.282   3.639   5.274
   36CHL1   C12 3801   0.064   3.799   5.212
   36CHL1  H12A 3802   0.117   3.889   5.174
   36CHL1  H12B 3803   6.835   3.820   5.189
   36CHL1   C11 3804   0.074   3.797   5.363
   36CHL1  H11A 3805   0.184   3.806   5.368
   36CHL1  H11B 3806   0.037   3.894   5.404
   36CHL1    C9 3807   0.005   3.678   5.435
   36CHL1    H9 3808   6.775   3.688   5.412
   36CHL1   C10 3809   0.013   3.674   5.594
   36CHL1   C19 3810   0.158   3.709   5.630
   36CHL1  H19A 3811   0.192   3.674   5.730
   36CHL1  H19B 3812   0.223   3.665   5.552
   36CHL1  H19C 3813   0.160   3.820   5.629
   36CHL1    C1 3814   6.802   3.783   5.654
   36CHL1   H1A 3815   6.859   3.868   5.612
   36CHL1   H1B 3816   6.699   3.787   5.612
   36CHL1    C2 3817   6.797   3.781   5.808
   36CHL1   H2A 3818   6.730   3.861   5.846
   36CHL1   H2B 3819   0.022   3.796   5.847
   36CHL1   C20 3820   0.139   3.690   4.883
   36CHL1   H20 3821   0.238   3.640   4.876
   36CHL1   C21 3822   0.164   3.845   4.903
   36CHL1  H21A 3823   0.183   3.893   4.805
   36CHL1  H21B 3824   0.252   3.857   4.970
   36CHL1  H21C 3825   0.073   3.893   4.945
   36CHL1   C22 3826   0.069   3.660   4.755
   36CHL1  H22A 3827   0.073   3.552   4.732
   36CHL1  H22B 3828   6.841   3.691   4.768
   36CHL1   C23 3829   0.123   3.723   4.622
   36CHL1  H23A 3830   0.122   3.834   4.620
   36CHL1  H23B 3831   0.225   3.679   4.620
   36CHL1   C24 3832   0.043   3.679   4.496
   36CHL1  H24A 3833   0.005   3.577   4.519
   36CHL1  H24B 3834   6.835   3.749   4.488
   36CHL1   C25 3835   0.107   3.696   4.358
   36CHL1   H25 3836   0.197   3.633   4.343
   36CHL1   C26 3837   0.015   3.653   4.242
   36CHL1  H26A 3838   6.807   3.722   4.253
   36CHL1  H26B 3839   0.062   3.663   4.142
   36CHL1  H26C 3840   6.847   3.551   4.249
   36CHL1   C27 3841   0.153   3.845   4.331
   36CHL1  H27A 3842   0.229   3.887   4.401
   36CHL1  H27B 3843   0.186   3.862   4.226
   36CHL1  H27C 3844   0.065   3.911   4.344
   37CHL1    C3 3845   0.981   6.697   6.263
   37CHL1    H3 3846   1.085   6.735   6.248
   37CHL1    O3 3847   0.962   6.693   6.404
   37CHL1   H3' 3848   1.047   6.660   6.435
   37CHL1    C4 3849   0.890   6.803   6.202
   37CHL1   H4A 3850   0.789   6.787   6.245
   37CHL1   H4B 3851   0.925   0.023   6.241
   37CHL1    C5 3852   0.883   6.799   6.052
   37CHL1    C6 3853   0.882   0.033   5.975
   37CHL1    H6 3854   0.890   0.132   6.024
   37CHL1    C7 3855   0.849   0.047   5.829
   37CHL1   H7A 3856   0.773   0.128   5.822
   37CHL1   H7B 3857   0.941   0.081   5.775
   37CHL1    C8 3858   0.796   6.787   5.767
   37CHL1    H8 3859   0.692   6.767   5.798
   37CHL1   C14 3860   0.812   6.780   5.617
   37CHL1   H14 3861   0.922   6.785   5.598
   37CHL1   C15 3862   0.746   0.017   5.536
   37CHL1  H15A 3863   0.643   0.036   5.575
   37CHL1  H15B 3864   0.811   0.104   5.557
   37CHL1   C16 3865   0.732   6.838   5.396
   37CHL1  H16A 3866   0.628   6.852   5.360
   37CHL1  H16B 3867   0.795   0.019   5.326
   37CHL1   C17 3868   0.785   6.692   5.410
   37CHL1   H17 3869   0.895   6.705   5.399
   37CHL1   C13 3870   0.758   6.656   5.558
   37CHL1   C18 3871   0.608   6.616   5.580
   37CHL1  H18A 3872   0.546   6.693   5.529
   37CHL1  H18B 3873   0.594   6.518   5.527
   37CHL1  H18C 3874   0.580   6.594   5.685
   37CHL1   C12 3875   0.849   6.545   5.607
   37CHL1  H12A 3876   0.817   6.455   5.550
   37CHL1  H12B 3877   0.953   6.574   5.578
   37CHL1   C11 3878   0.840   6.533   5.758
   37CHL1  H11A 3879   0.742   6.487   5.783
   37CHL1  H11B 3880   0.915   6.464   5.802
   37CHL1    C9 3881   0.875   6.667   5.829
   37CHL1    H9 3882   0.983   6.683   5.811
   37CHL1   C10 3883   0.867   6.665   5.985
   37CHL1   C19 3884   0.731   6.611   6.028
   37CHL1  H19A 3885   0.648   6.669   5.983
   37CHL1  H19B 3886   0.717   6.508   5.987
   37CHL1  H19C 3887   0.720   6.609   6.138
   37CHL1    C1 3888   0.966   6.561   6.040
   37CHL1   H1A 3889   0.952   6.454   6.011
   37CHL1   H1B 3890   1.068   6.589   6.006
   37CHL1    C2 3891   0.973   6.560   6.200
   37CHL1   H2A 3892   1.061   6.504   6.240
   37CHL1   H2B 3893   0.889   6.494   6.230
   37CHL1   C20 3894   0.758   6.590   5.291
   37CHL1   H20 3895   0.687   6.516   5.336
   37CHL1   C21 3896   0.896   6.498   5.264
   37CHL1  H21A 3897   0.864   6.410   5.205
   37CHL1  H21B 3898   0.936   6.461   5.361
   37CHL1  H21C 3899   0.965   6.564   5.207
   37CHL1   C22 3900   0.692   6.652   5.165
   37CHL1  H22A 3901   0.590   6.682   5.195
   37CHL1  H22B 3902   0.745   6.744   5.132
   37CHL1   C23 3903   0.705   6.558   5.044
   37CHL1  H23A 3904   0.808   6.534   5.012
   37CHL1  H23B 3905   0.650   6.468   5.078
   37CHL1   C24 3906   0.623   6.603   4.921
   37CHL1  H24A 3907   0.517   6.615   4.953
   37CHL1  H24B 3908   0.661   6.704   4.893
   37CHL1   C25 3909   0.637   6.518   4.797
   37CHL1   H25 3910   0.606   6.417   4.831
   37CHL1   C26 3911   0.541   6.561   4.688
   37CHL1  H26A 3912   0.578   6.641   4.621
   37CHL1  H26B 3913   0.539   6.476   4.615
   37CHL1  H26C 3914   0.437   6.582   4.722
   37CHL1   C27 3915   0.783   6.501   4.742
   37CHL1  H27A 3916   0.832   6.599   4.726
   37CHL1  H27B 3917   0.850   6.440   4.806
   37CHL1  H27C 3918   0.784   6.441   4.648
   38CHL1    C3 3919   1.565   0.733   5.966
   38CHL1    H3 3920   1.670   0.705   5.943
   38CHL1    O3 3921   1.560   0.732   6.109
   38CHL1   H3' 3922   1.471   0.757   6.133
   38CHL1    C4 3923   1.526   0.872   5.911
   38CHL1   H4A 3924   1.426   0.900   5.951
   38CHL1   H4B 3925   1.605   0.941   5.949
   38CHL1    C5 3926   1.527   0.863   5.757
   38CHL1    C6 3927   1.595   0.945   5.680
   38CHL1    H6 3928   1.651   1.024   5.731
   38CHL1    C7 3929   1.586   0.968   5.529
   38CHL1   H7A 3930   1.558   1.072   5.499
   38CHL1   H7B 3931   1.685   0.952   5.482
   38CHL1    C8 3932   1.481   0.876   5.465
   38CHL1    H8 3933   1.378   0.917   5.466
   38CHL1   C14 3934   1.509   0.851   5.320
   38CHL1   H14 3935   1.615   0.820   5.312
   38CHL1   C15 3936   1.504   0.977   5.229
   38CHL1  H15A 3937   1.411   1.033   5.248
   38CHL1  H15B 3938   1.592   1.045   5.238
   38CHL1   C16 3939   1.492   0.909   5.091
   38CHL1  H16A 3940   1.400   0.950   5.045
   38CHL1  H16B 3941   1.587   0.927   5.036
   38CHL1   C17 3942   1.468   0.752   5.104
   38CHL1   H17 3943   1.571   0.713   5.093
   38CHL1   C13 3944   1.425   0.740   5.253
   38CHL1   C18 3945   1.274   0.771   5.263
   38CHL1  H18A 3946   1.252   0.853   5.191
   38CHL1  H18B 3947   1.214   0.681   5.239
   38CHL1  H18C 3948   1.252   0.806   5.366
   38CHL1   C12 3949   1.453   0.601   5.325
   38CHL1  H12A 3950   1.405   0.510   5.282
   38CHL1  H12B 3951   1.561   0.578   5.315
   38CHL1   C11 3952   1.422   0.612   5.476
   38CHL1  H11A 3953   1.311   0.612   5.477
   38CHL1  H11B 3954   1.456   0.515   5.516
   38CHL1    C9 3955   1.484   0.742   5.545
   38CHL1    H9 3956   1.592   0.719   5.542
   38CHL1   C10 3957   1.438   0.751   5.695
   38CHL1   C19 3958   1.292   0.796   5.704
   38CHL1  H19A 3959   1.223   0.744   5.634
   38CHL1  H19B 3960   1.260   0.771   5.807
   38CHL1  H19C 3961   1.281   0.906   5.691
   38CHL1    C1 3962   1.474   0.621   5.767
   38CHL1   H1A 3963   1.401   0.540   5.744
   38CHL1   H1B 3964   1.577   0.592   5.736
   38CHL1    C2 3965   1.472   0.623   5.920
   38CHL1   H2A 3966   1.523   0.530   5.953
   38CHL1   H2B 3967   1.366   0.625   5.955
   38CHL1   C20 3968   1.374   0.693   4.999
   38CHL1   H20 3969   1.275   0.743   5.006
   38CHL1   C21 3970   1.354   0.538   5.012
   38CHL1  H21A 3971   1.288   0.506   5.095
   38CHL1  H21B 3972   1.451   0.491   5.039
   38CHL1  H21C 3973   1.321   0.487   4.919
   38CHL1   C22 3974   1.423   0.727   4.854
   38CHL1  H22A 3975   1.343   0.695   4.784
   38CHL1  H22B 3976   1.448   0.835   4.844
   38CHL1   C23 3977   1.541   0.640   4.815
   38CHL1  H23A 3978   1.611   0.622   4.899
   38CHL1  H23B 3979   1.490   0.545   4.791
   38CHL1   C24 3980   1.612   0.682   4.685
   38CHL1  H24A 3981   1.540   0.689   4.601
   38CHL1  H24B 3982   1.659   0.783   4.687
   38CHL1   C25 3983   1.715   0.578   4.640
   38CHL1   H25 3984   1.670   0.477   4.639
   38CHL1   C26 3985   1.761   0.600   4.497
   38CHL1  H26A 3986   1.842   0.534   4.460
   38CHL1  H26B 3987   1.672   0.569   4.437
   38CHL1  H26C 3988   1.788   0.706   4.474
   38CHL1   C27 3989   1.837   0.574   4.733
   38CHL1  H27A 3990   1.925   0.524   4.688
   38CHL1  H27B 3991   1.869   0.680   4.749
   38CHL1  H27C 3992   1.817   0.523   4.830
   39CHL1    C3 3993   3.497   1.570   5.997
   39CHL1    H3 3994   3.608   1.567   5.990
   39CHL1    O3 3995   3.452   1.552   6.131
   39CHL1   H3' 3996   3.360   1.526   6.125
   39CHL1    C4 3997   3.431   1.691   5.918
   39CHL1   H4A 3998   3.320   1.682   5.925
   39CHL1   H4B 3999   3.462   1.779   5.979
   39CHL1    C5 4000   3.475   1.686   5.776
   39CHL1    C6 4001   3.535   1.786   5.723
   39CHL1    H6 4002   3.545   1.876   5.785
   39CHL1    C7 4003   3.582   1.800   5.583
   39CHL1   H7A 4004   3.555   1.903   5.550
   39CHL1   H7B 4005   3.692   1.794   5.568
   39CHL1    C8 4006   3.522   1.690   5.491
   39CHL1    H8 4007   3.417   1.723   5.480
   39CHL1   C14 4008   3.581   1.681   5.355
   39CHL1   H14 4009   3.685   1.643   5.365
   39CHL1   C15 4010   3.587   1.812   5.278
   39CHL1  H15A 4011   3.485   1.854   5.287
   39CHL1  H15B 4012   3.671   1.878   5.312
   39CHL1   C16 4013   3.601   1.769   5.134
   39CHL1  H16A 4014   3.518   1.814   5.076
   39CHL1  H16B 4015   3.700   1.801   5.097
   39CHL1   C17 4016   3.580   1.614   5.129
   39CHL1   H17 4017   3.681   1.566   5.128
   39CHL1   C13 4018   3.508   1.582   5.263
   39CHL1   C18 4019   3.356   1.603   5.248
   39CHL1  H18A 4020   3.295   1.603   5.342
   39CHL1  H18B 4021   3.328   1.691   5.187
   39CHL1  H18C 4022   3.315   1.524   5.182
   39CHL1   C12 4023   3.537   1.439   5.327
   39CHL1  H12A 4024   3.496   1.355   5.266
   39CHL1  H12B 4025   3.647   1.423   5.327
   39CHL1   C11 4026   3.475   1.430   5.472
   39CHL1  H11A 4027   3.368   1.428   5.442
   39CHL1  H11B 4028   3.505   1.336   5.521
   39CHL1    C9 4029   3.511   1.548   5.564
   39CHL1    H9 4030   3.619   1.538   5.588
   39CHL1   C10 4031   3.449   1.551   5.701
   39CHL1   C19 4032   3.291   1.551   5.682
   39CHL1  H19A 4033   3.259   1.646   5.635
   39CHL1  H19B 4034   3.253   1.459   5.633
   39CHL1  H19C 4035   3.248   1.566   5.783
   39CHL1    C1 4036   3.497   1.432   5.782
   39CHL1   H1A 4037   3.468   1.333   5.740
   39CHL1   H1B 4038   3.607   1.443   5.779
   39CHL1    C2 4039   3.453   1.431   5.931
   39CHL1   H2A 4040   3.495   1.345   5.989
   39CHL1   H2B 4041   3.343   1.426   5.939
   39CHL1   C20 4042   3.512   1.572   4.997
   39CHL1   H20 4043   3.414   1.622   4.982
   39CHL1   C21 4044   3.494   1.426   4.985
   39CHL1  H21A 4045   3.454   1.395   4.886
   39CHL1  H21B 4046   3.418   1.390   5.057
   39CHL1  H21C 4047   3.586   1.376   5.023
   39CHL1   C22 4048   3.584   1.625   4.867
   39CHL1  H22A 4049   3.597   1.735   4.873
   39CHL1  H22B 4050   3.686   1.581   4.867
   39CHL1   C23 4051   3.520   1.602   4.724
   39CHL1  H23A 4052   3.487   1.496   4.721
   39CHL1  H23B 4053   3.423   1.656   4.718
   39CHL1   C24 4054   3.599   1.645   4.592
   39CHL1  H24A 4055   3.609   1.754   4.607
   39CHL1  H24B 4056   3.701   1.602   4.605
   39CHL1   C25 4057   3.536   1.611   4.453
   39CHL1   H25 4058   3.440   1.666   4.446
   39CHL1   C26 4059   3.631   1.672   4.347
   39CHL1  H26A 4060   3.734   1.632   4.359
   39CHL1  H26B 4061   3.593   1.642   4.248
   39CHL1  H26C 4062   3.627   1.783   4.344
   39CHL1   C27 4063   3.494   1.465   4.429
   39CHL1  H27A 4064   3.455   1.403   4.512
   39CHL1  H27B 4065   3.418   1.470   4.348
   39CHL1  H27C 4066   3.589   1.420   4.395
   40CHL1    C3 4067   3.719   3.970   5.976
   40CHL1    H3 4068   3.774   3.874   5.965
   40CHL1    O3 4069   3.680   3.984   6.109
   40CHL1   H3' 4070   3.700   3.901   6.152
   40CHL1    C4 4071   3.817   4.084   5.951
   40CHL1   H4A 4072   3.771   4.182   5.973
   40CHL1   H4B 4073   3.894   4.081   6.031
   40CHL1    C5 4074   3.876   4.091   5.808
   40CHL1    C6 4075   4.004   4.088   5.784
   40CHL1    H6 4076   4.088   4.088   5.854
   40CHL1    C7 4077   4.058   4.107   5.644
   40CHL1   H7A 4078   4.126   4.195   5.645
   40CHL1   H7B 4079   4.115   4.016   5.615
   40CHL1    C8 4080   3.965   4.145   5.534
   40CHL1    H8 4081   3.946   4.255   5.533
   40CHL1   C14 4082   4.027   4.103   5.402
   40CHL1   H14 4083   4.047   3.993   5.406
   40CHL1   C15 4084   4.168   4.161   5.368
   40CHL1  H15A 4085   4.172   4.271   5.383
   40CHL1  H15B 4086   4.242   4.102   5.427
   40CHL1   C16 4087   4.174   4.148   5.214
   40CHL1  H16A 4088   4.169   4.248   5.166
   40CHL1  H16B 4089   4.266   4.093   5.183
   40CHL1   C17 4090   4.044   4.072   5.175
   40CHL1   H17 4091   4.050   3.964   5.200
   40CHL1   C13 4092   3.935   4.124   5.279
   40CHL1   C18 4093   3.908   4.271   5.249
   40CHL1  H18A 4094   3.846   4.284   5.158
   40CHL1  H18B 4095   3.852   4.318   5.334
   40CHL1  H18C 4096   3.994   4.334   5.221
   40CHL1   C12 4097   3.809   4.044   5.297
   40CHL1  H12A 4098   3.738   4.055   5.212
   40CHL1  H12B 4099   3.836   3.936   5.294
   40CHL1   C11 4100   3.748   4.082   5.432
   40CHL1  H11A 4101   3.710   4.186   5.427
   40CHL1  H11B 4102   3.670   4.004   5.444
   40CHL1    C9 4103   3.837   4.069   5.556
   40CHL1    H9 4104   3.865   3.961   5.555
   40CHL1   C10 4105   3.767   4.087   5.693
   40CHL1   C19 4106   3.713   4.234   5.694
   40CHL1  H19A 4107   3.639   4.241   5.611
   40CHL1  H19B 4108   3.658   4.268   5.784
   40CHL1  H19C 4109   3.794   4.308   5.678
   40CHL1    C1 4110   3.645   3.981   5.718
   40CHL1   H1A 4111   3.552   4.001   5.659
   40CHL1   H1B 4112   3.700   3.890   5.687
   40CHL1    C2 4113   3.612   3.970   5.871
   40CHL1   H2A 4114   3.557   3.877   5.900
   40CHL1   H2B 4115   3.543   4.054   5.892
   40CHL1   C20 4116   3.996   4.076   5.023
   40CHL1   H20 4117   3.886   4.065   5.018
   40CHL1   C21 4118   4.056   3.958   4.945
   40CHL1  H21A 4119   4.024   3.866   4.999
   40CHL1  H21B 4120   4.167   3.952   4.948
   40CHL1  H21C 4121   4.013   3.951   4.843
   40CHL1   C22 4122   4.020   4.211   4.948
   40CHL1  H22A 4123   3.996   4.299   5.010
   40CHL1  H22B 4124   4.129   4.218   4.930
   40CHL1   C23 4125   3.932   4.229   4.825
   40CHL1  H23A 4126   3.991   4.273   4.741
   40CHL1  H23B 4127   3.899   4.126   4.801
   40CHL1   C24 4128   3.822   4.329   4.836
   40CHL1  H24A 4129   3.760   4.304   4.925
   40CHL1  H24B 4130   3.870   4.426   4.862
   40CHL1   C25 4131   3.733   4.344   4.712
   40CHL1   H25 4132   3.678   4.248   4.705
   40CHL1   C26 4133   3.624   4.452   4.727
   40CHL1  H26A 4134   3.561   4.467   4.637
   40CHL1  H26B 4135   3.559   4.430   4.815
   40CHL1  H26C 4136   3.669   4.549   4.754
   40CHL1   C27 4137   3.810   4.377   4.588
   40CHL1  H27A 4138   3.741   4.388   4.501
   40CHL1  H27B 4139   3.865   4.471   4.610
   40CHL1  H27C 4140   3.879   4.294   4.561
   41CHL1    C3 4141   0.474   4.611   5.993
   41CHL1    H3 4142   0.581   4.616   5.966
   41CHL1    O3 4143   0.471   4.579   6.129
   41CHL1   H3' 4144   0.405   4.632   6.175
   41CHL1    C4 4145   0.398   4.746   5.966
   41CHL1   H4A 4146   0.295   4.741   6.007
   41CHL1   H4B 4147   0.444   4.812   6.043
   41CHL1    C5 4148   0.412   4.793   5.825
   41CHL1    C6 4149   0.465   4.915   5.797
   41CHL1    H6 4150   0.502   4.979   5.879
   41CHL1    C7 4151   0.469   4.960   5.649
   41CHL1   H7A 4152   0.437   5.066   5.639
   41CHL1   H7B 4153   0.571   4.968   5.606
   41CHL1    C8 4154   0.383   4.881   5.552
   41CHL1    H8 4155   0.277   4.910   5.572
   41CHL1   C14 4156   0.421   4.902   5.405
   41CHL1   H14 4157   0.528   4.874   5.396
   41CHL1   C15 4158   0.429   5.046   5.353
   41CHL1  H15A 4159   0.341   5.107   5.382
   41CHL1  H15B 4160   0.518   5.099   5.393
   41CHL1   C16 4161   0.447   5.021   5.208
   41CHL1  H16A 4162   0.404   5.104   5.149
   41CHL1  H16B 4163   0.557   5.027   5.192
   41CHL1   C17 4164   0.402   4.874   5.173
   41CHL1   H17 4165   0.497   4.817   5.167
   41CHL1   C13 4166   0.336   4.821   5.300
   41CHL1   C18 4167   0.189   4.860   5.296
   41CHL1  H18A 4168   0.180   4.969   5.278
   41CHL1  H18B 4169   0.127   4.808   5.219
   41CHL1  H18C 4170   0.121   4.838   5.381
   41CHL1   C12 4171   0.351   4.670   5.333
   41CHL1  H12A 4172   0.305   4.602   5.258
   41CHL1  H12B 4173   0.456   4.637   5.324
   41CHL1   C11 4174   0.306   4.643   5.474
   41CHL1  H11A 4175   0.198   4.665   5.483
   41CHL1  H11B 4176   0.314   4.535   5.502
   41CHL1    C9 4177   0.389   4.726   5.580
   41CHL1    H9 4178   0.496   4.702   5.562
   41CHL1   C10 4179   0.350   4.690   5.726
   41CHL1   C19 4180   0.197   4.696   5.741
   41CHL1  H19A 4181   0.142   4.777   5.688
   41CHL1  H19B 4182   0.153   4.603   5.699
   41CHL1  H19C 4183   0.170   4.691   5.849
   41CHL1    C1 4184   0.418   4.545   5.763
   41CHL1   H1A 4185   0.366   4.474   5.696
   41CHL1   H1B 4186   0.527   4.540   5.740
   41CHL1    C2 4187   0.408   4.501   5.911
   41CHL1   H2A 4188   0.466   4.408   5.932
   41CHL1   H2B 4189   0.305   4.474   5.941
   41CHL1   C20 4190   0.338   4.843   5.034
   41CHL1   H20 4191   0.250   4.911   5.036
   41CHL1   C21 4192   0.297   4.697   5.023
   41CHL1  H21A 4193   0.212   4.668   5.088
   41CHL1  H21B 4194   0.386   4.634   5.042
   41CHL1  H21C 4195   0.260   4.672   4.921
   41CHL1   C22 4196   0.434   4.881   4.922
   41CHL1  H22A 4197   0.487   4.977   4.940
   41CHL1  H22B 4198   0.511   4.803   4.912
   41CHL1   C23 4199   0.351   4.891   4.793
   41CHL1  H23A 4200   0.294   4.796   4.778
   41CHL1  H23B 4201   0.277   4.972   4.806
   41CHL1   C24 4202   0.441   4.923   4.670
   41CHL1  H24A 4203   0.467   5.030   4.676
   41CHL1  H24B 4204   0.531   4.859   4.677
   41CHL1   C25 4205   0.353   4.885   4.540
   41CHL1   H25 4206   0.412   4.923   4.454
   41CHL1   C26 4207   0.342   4.724   4.524
   41CHL1  H26A 4208   0.300   4.698   4.425
   41CHL1  H26B 4209   0.440   4.678   4.551
   41CHL1  H26C 4210   0.274   4.683   4.601
   41CHL1   C27 4211   0.221   4.956   4.539
   41CHL1  H27A 4212   0.152   4.941   4.625
   41CHL1  H27B 4213   0.226   5.063   4.512
   41CHL1  H27C 4214   0.156   4.918   4.457
   42CHL1    C3 4215   5.258   3.482   6.336
   42CHL1    H3 4216   5.181   3.547   6.290
   42CHL1    O3 4217   5.258   3.477   6.474
   42CHL1   H3' 4218   5.316   3.403   6.497
   42CHL1    C4 4219   5.234   3.336   6.285
   42CHL1   H4A 4220   5.320   3.280   6.328
   42CHL1   H4B 4221   5.137   3.297   6.323
   42CHL1    C5 4222   5.256   3.335   6.133
   42CHL1    C6 4223   5.178   3.270   6.048
   42CHL1    H6 4224   5.087   3.218   6.081
   42CHL1    C7 4225   5.194   3.248   5.903
   42CHL1   H7A 4226   5.203   3.141   5.877
   42CHL1   H7B 4227   5.106   3.290   5.849
   42CHL1    C8 4228   5.327   3.304   5.845
   42CHL1    H8 4229   5.404   3.225   5.861
   42CHL1   C14 4230   5.305   3.336   5.698
   42CHL1   H14 4231   5.225   3.413   5.694
   42CHL1   C15 4232   5.245   3.225   5.608
   42CHL1  H15A 4233   5.298   3.129   5.627
   42CHL1  H15B 4234   5.135   3.212   5.620
   42CHL1   C16 4235   5.285   3.262   5.464
   42CHL1  H16A 4236   5.348   3.178   5.428
   42CHL1  H16B 4237   5.203   3.279   5.391
   42CHL1   C17 4238   5.376   3.390   5.487
   42CHL1   H17 4239   5.312   3.478   5.467
   42CHL1   C13 4240   5.425   3.392   5.634
   42CHL1   C18 4241   5.553   3.302   5.655
   42CHL1  H18A 4242   5.564   3.276   5.763
   42CHL1  H18B 4243   5.543   3.201   5.609
   42CHL1  H18C 4244   5.647   3.358   5.635
   42CHL1   C12 4245   5.455   3.529   5.703
   42CHL1  H12A 4246   5.545   3.574   5.656
   42CHL1  H12B 4247   5.370   3.596   5.679
   42CHL1   C11 4248   5.479   3.517   5.855
   42CHL1  H11A 4249   5.574   3.463   5.874
   42CHL1  H11B 4250   5.497   3.620   5.893
   42CHL1    C9 4251   5.367   3.432   5.928
   42CHL1    H9 4252   5.275   3.493   5.921
   42CHL1   C10 4253   5.390   3.407   6.079
   42CHL1   C19 4254   5.505   3.304   6.106
   42CHL1  H19A 4255   5.597   3.356   6.073
   42CHL1  H19B 4256   5.513   3.281   6.215
   42CHL1  H19C 4257   5.491   3.205   6.058
   42CHL1    C1 4258   5.419   3.538   6.152
   42CHL1   H1A 4259   5.526   3.564   6.134
   42CHL1   H1B 4260   5.357   3.616   6.102
   42CHL1    C2 4261   5.395   3.536   6.301
   42CHL1   H2A 4262   5.410   3.637   6.345
   42CHL1   H2B 4263   5.473   3.474   6.352
   42CHL1   C20 4264   5.482   3.405   5.380
   42CHL1   H20 4265   5.560   3.331   5.408
   42CHL1   C21 4266   5.545   3.538   5.369
   42CHL1  H21A 4267   5.621   3.537   5.288
   42CHL1  H21B 4268   5.591   3.582   5.460
   42CHL1  H21C 4269   5.473   3.617   5.338
   42CHL1   C22 4270   5.437   3.359   5.239
   42CHL1  H22A 4271   5.521   3.364   5.166
   42CHL1  H22B 4272   5.397   3.255   5.238
   42CHL1   C23 4273   5.327   3.445   5.169
   42CHL1  H23A 4274   5.234   3.437   5.230
   42CHL1  H23B 4275   5.349   3.554   5.181
   42CHL1   C24 4276   5.312   3.410   5.020
   42CHL1  H24A 4277   5.418   3.399   4.988
   42CHL1  H24B 4278   5.251   3.322   4.992
   42CHL1   C25 4279   5.249   3.529   4.937
   42CHL1   H25 4280   5.316   3.612   4.967
   42CHL1   C26 4281   5.256   3.500   4.782
   42CHL1  H26A 4282   5.162   3.448   4.755
   42CHL1  H26B 4283   5.249   3.600   4.734
   42CHL1  H26C 4284   5.355   3.458   4.752
   42CHL1   C27 4285   5.101   3.568   4.978
   42CHL1  H27A 4286   5.071   3.660   4.923
   42CHL1  H27B 4287   5.032   3.480   4.977
   42CHL1  H27C 4288   5.110   3.597   5.084
   43CHL1    C3 4289   6.519   1.984   6.132
   43CHL1    H3 4290   6.410   2.004   6.117
   43CHL1    O3 4291   6.526   2.024   6.263
   43CHL1   H3' 4292   6.610   1.988   6.290
   43CHL1    C4 4293   6.540   1.834   6.114
   43CHL1   H4A 4294   6.636   1.796   6.155
   43CHL1   H4B 4295   6.457   1.786   6.170
   43CHL1    C5 4296   6.539   1.798   5.962
   43CHL1    C6 4297   6.471   1.698   5.913
   43CHL1    H6 4298   6.411   1.647   5.990
   43CHL1    C7 4299   6.463   1.652   5.771
   43CHL1   H7A 4300   6.486   1.544   5.758
   43CHL1   H7B 4301   6.369   1.684   5.722
   43CHL1    C8 4302   6.578   1.713   5.683
   43CHL1    H8 4303   6.676   1.667   5.708
   43CHL1   C14 4304   6.533   1.697   5.537
   43CHL1   H14 4305   6.433   1.743   5.527
   43CHL1   C15 4306   6.504   1.553   5.487
   43CHL1  H15A 4307   6.591   1.492   5.520
   43CHL1  H15B 4308   6.410   1.516   5.535
   43CHL1   C16 4309   6.510   1.570   5.335
   43CHL1  H16A 4310   6.571   1.486   5.298
   43CHL1  H16B 4311   6.403   1.563   5.304
   43CHL1   C17 4312   6.576   1.706   5.305
   43CHL1   H17 4313   6.491   1.776   5.287
   43CHL1   C13 4314   6.631   1.757   5.439
   43CHL1   C18 4315   6.778   1.688   5.452
   43CHL1  H18A 4316   6.854   1.726   5.380
   43CHL1  H18B 4317   6.814   1.696   5.557
   43CHL1  H18C 4318   6.768   1.579   5.438
   43CHL1   C12 4319   6.634   1.915   5.468
   43CHL1  H12A 4320   6.688   1.968   5.387
   43CHL1  H12B 4321   6.530   1.953   5.465
   43CHL1   C11 4322   6.684   1.934   5.617
   43CHL1  H11A 4323   6.790   1.898   5.615
   43CHL1  H11B 4324   6.681   2.044   5.629
   43CHL1    C9 4325   6.589   1.860   5.721
   43CHL1    H9 4326   6.488   1.902   5.705
   43CHL1   C10 4327   6.623   1.886   5.869
   43CHL1   C19 4328   6.775   1.869   5.889
   43CHL1  H19A 4329   6.839   1.937   5.830
   43CHL1  H19B 4330   6.800   1.877   5.997
   43CHL1  H19C 4331   6.804   1.765   5.865
   43CHL1    C1 4332   6.594   2.032   5.899
   43CHL1   H1A 4333   6.649   2.100   5.830
   43CHL1   H1B 4334   6.485   2.047   5.883
   43CHL1    C2 4335   6.616   2.068   6.043
   43CHL1   H2A 4336   6.581   2.171   6.062
   43CHL1   H2B 4337   6.720   2.060   6.081
   43CHL1   C20 4338   6.656   1.706   5.174
   43CHL1   H20 4339   6.744   1.643   5.199
   43CHL1   C21 4340   6.716   1.844   5.143
   43CHL1  H21A 4341   6.636   1.922   5.140
   43CHL1  H21B 4342   6.766   1.848   5.043
   43CHL1  H21C 4343   6.787   1.887   5.217
   43CHL1   C22 4344   6.566   1.654   5.058
   43CHL1  H22A 4345   6.521   1.555   5.082
   43CHL1  H22B 4346   6.489   1.727   5.025
   43CHL1   C23 4347   6.658   1.603   4.943
   43CHL1  H23A 4348   6.727   1.682   4.907
   43CHL1  H23B 4349   6.708   1.504   4.955
   43CHL1   C24 4350   6.567   1.576   4.823
   43CHL1  H24A 4351   6.489   1.503   4.853
   43CHL1  H24B 4352   6.515   1.668   4.790
   43CHL1   C25 4353   6.644   1.528   4.695
   43CHL1   H25 4354   6.718   1.603   4.659
   43CHL1   C26 4355   6.715   1.397   4.710
   43CHL1  H26A 4356   6.762   1.375   4.612
   43CHL1  H26B 4357   6.786   1.387   4.794
   43CHL1  H26C 4358   6.641   1.315   4.723
   43CHL1   C27 4359   6.545   1.504   4.587
   43CHL1  H27A 4360   6.487   1.594   4.559
   43CHL1  H27B 4361   6.592   1.459   4.497
   43CHL1  H27C 4362   6.467   1.429   4.616
   44CHL1    C3 4363   0.079   2.987   5.958
   44CHL1    H3 4364   6.860   2.987   5.903
   44CHL1    O3 4365   0.066   2.957   6.096
   44CHL1   H3' 4366   0.138   3.006   6.135
   44CHL1    C4 4367   0.179   2.888   5.886
   44CHL1   H4A 4368   0.274   2.897   5.943
   44CHL1   H4B 4369   0.134   2.788   5.902
   44CHL1    C5 4370   0.186   2.921   5.736
   44CHL1    C6 4371   0.139   2.836   5.641
   44CHL1    H6 4372   0.093   2.739   5.665
   44CHL1    C7 4373   0.155   2.866   5.498
   44CHL1   H7A 4374   0.165   2.763   5.458
   44CHL1   H7B 4375   0.058   2.904   5.459
   44CHL1    C8 4376   0.266   2.967   5.473
   44CHL1    H8 4377   0.362   2.920   5.504
   44CHL1   C14 4378   0.269   3.010   5.328
   44CHL1   H14 4379   0.167   3.049   5.310
   44CHL1   C15 4380   0.281   2.897   5.222
   44CHL1  H15A 4381   0.382   2.855   5.243
   44CHL1  H15B 4382   0.195   2.828   5.230
   44CHL1   C16 4383   0.286   2.974   5.086
   44CHL1  H16A 4384   0.349   2.920   5.013
   44CHL1  H16B 4385   0.184   2.989   5.045
   44CHL1   C17 4386   0.342   3.114   5.125
   44CHL1   H17 4387   0.263   3.191   5.110
   44CHL1   C13 4388   0.356   3.122   5.276
   44CHL1   C18 4389   0.504   3.093   5.319
   44CHL1  H18A 4390   0.539   3.000   5.269
   44CHL1  H18B 4391   0.563   3.187   5.322
   44CHL1  H18C 4392   0.507   3.056   5.424
   44CHL1   C12 4393   0.310   3.247   5.357
   44CHL1  H12A 4394   0.375   3.335   5.338
   44CHL1  H12B 4395   0.202   3.261   5.334
   44CHL1   C11 4396   0.312   3.222   5.509
   44CHL1  H11A 4397   0.417   3.239   5.543
   44CHL1  H11B 4398   0.265   3.317   5.543
   44CHL1    C9 4399   0.238   3.091   5.560
   44CHL1    H9 4400   0.137   3.126   5.531
   44CHL1   C10 4401   0.247   3.060   5.707
   44CHL1   C19 4402   0.391   3.074   5.754
   44CHL1  H19A 4403   0.397   3.042   5.861
   44CHL1  H19B 4404   0.465   3.018   5.692
   44CHL1  H19C 4405   0.429   3.178   5.742
   44CHL1    C1 4406   0.163   3.159   5.788
   44CHL1   H1A 4407   0.208   3.259   5.773
   44CHL1   H1B 4408   0.066   3.167   5.734
   44CHL1    C2 4409   0.138   3.127   5.935
   44CHL1   H2A 4410   0.067   3.208   5.963
   44CHL1   H2B 4411   0.231   3.142   5.994
   44CHL1   C20 4412   0.460   3.155   5.040
   44CHL1   H20 4413   0.548   3.094   5.070
   44CHL1   C21 4414   0.492   3.309   5.044
   44CHL1  H21A 4415   0.518   3.329   5.150
   44CHL1  H21B 4416   0.413   3.378   5.009
   44CHL1  H21C 4417   0.579   3.334   4.980
   44CHL1   C22 4418   0.448   3.140   4.877
   44CHL1  H22A 4419   0.533   3.204   4.846
   44CHL1  H22B 4420   0.467   3.034   4.849
   44CHL1   C23 4421   0.324   3.181   4.801
   44CHL1  H23A 4422   0.246   3.108   4.834
   44CHL1  H23B 4423   0.297   3.283   4.834
   44CHL1   C24 4424   0.344   3.170   4.646
   44CHL1  H24A 4425   0.397   3.075   4.620
   44CHL1  H24B 4426   0.247   3.156   4.594
   44CHL1   C25 4427   0.410   3.299   4.588
   44CHL1   H25 4428   0.486   3.340   4.658
   44CHL1   C26 4429   0.491   3.272   4.459
   44CHL1  H26A 4430   0.428   3.235   4.376
   44CHL1  H26B 4431   0.534   3.370   4.429
   44CHL1  H26C 4432   0.582   3.210   4.475
   44CHL1   C27 4433   0.306   3.417   4.563
   44CHL1  H27A 4434   0.242   3.390   4.476
   44CHL1  H27B 4435   0.243   3.429   4.654
   44CHL1  H27C 4436   0.363   3.509   4.540
   45CHL1    C3 4437   6.458   4.232   5.880
   45CHL1    H3 4438   6.540   4.307   5.878
   45CHL1    O3 4439   6.409   4.217   6.013
   45CHL1   H3' 4440   6.491   4.212   6.062
   45CHL1    C4 4441   6.343   4.281   5.788
   45CHL1   H4A 4442   6.266   4.201   5.797
   45CHL1   H4B 4443   6.306   4.383   5.811
   45CHL1    C5 4444   6.378   4.273   5.638
   45CHL1    C6 4445   6.375   4.380   5.563
   45CHL1    H6 4446   6.318   4.465   5.604
   45CHL1    C7 4447   6.401   4.391   5.411
   45CHL1   H7A 4448   6.315   4.446   5.368
   45CHL1   H7B 4449   6.494   4.451   5.401
   45CHL1    C8 4450   6.407   4.244   5.345
   45CHL1    H8 4451   6.307   4.196   5.341
   45CHL1   C14 4452   6.479   4.250   5.211
   45CHL1   H14 4453   6.571   4.311   5.228
   45CHL1   C15 4454   6.411   4.340   5.112
   45CHL1  H15A 4455   6.304   4.311   5.117
   45CHL1  H15B 4456   6.429   4.445   5.141
   45CHL1   C16 4457   6.489   4.300   4.980
   45CHL1  H16A 4458   6.404   4.273   4.914
   45CHL1  H16B 4459   6.537   4.394   4.947
   45CHL1   C17 4460   6.573   4.177   5.011
   45CHL1   H17 4461   6.678   4.207   5.034
   45CHL1   C13 4462   6.517   4.122   5.142
   45CHL1   C18 4463   6.390   4.046   5.108
   45CHL1  H18A 4464   6.409   3.961   5.039
   45CHL1  H18B 4465   6.333   4.007   5.195
   45CHL1  H18C 4466   6.318   4.109   5.052
   45CHL1   C12 4467   6.610   4.047   5.239
   45CHL1  H12A 4468   6.641   3.944   5.211
   45CHL1  H12B 4469   6.706   4.103   5.250
   45CHL1   C11 4470   6.549   4.035   5.381
   45CHL1  H11A 4471   6.478   3.953   5.358
   45CHL1  H11B 4472   6.621   3.983   5.448
   45CHL1    C9 4473   6.499   4.167   5.438
   45CHL1    H9 4474   6.593   4.225   5.439
   45CHL1   C10 4475   6.443   4.145   5.583
   45CHL1   C19 4476   6.308   4.054   5.580
   45CHL1  H19A 4477   6.235   4.102   5.512
   45CHL1  H19B 4478   6.333   3.952   5.542
   45CHL1  H19C 4479   6.259   4.034   5.677
   45CHL1    C1 4480   6.547   4.099   5.682
   45CHL1   H1A 4481   6.580   3.996   5.655
   45CHL1   H1B 4482   6.644   4.152   5.666
   45CHL1    C2 4483   6.504   4.097   5.830
   45CHL1   H2A 4484   6.585   4.061   5.896
   45CHL1   H2B 4485   6.422   4.022   5.831
   45CHL1   C20 4486   6.579   4.098   4.875
   45CHL1   H20 4487   6.479   4.055   4.854
   45CHL1   C21 4488   6.680   3.982   4.894
   45CHL1  H21A 4489   6.777   4.028   4.922
   45CHL1  H21B 4490   6.698   3.917   4.806
   45CHL1  H21C 4491   6.659   3.926   4.987
   45CHL1   C22 4492   6.613   4.194   4.757
   45CHL1  H22A 4493   6.524   4.254   4.728
   45CHL1  H22B 4494   6.688   4.273   4.778
   45CHL1   C23 4495   6.672   4.123   4.640
   45CHL1  H23A 4496   6.767   4.079   4.677
   45CHL1  H23B 4497   6.611   4.040   4.599
   45CHL1   C24 4498   6.714   4.228   4.524
   45CHL1  H24A 4499   6.615   4.268   4.493
   45CHL1  H24B 4500   6.768   4.317   4.563
   45CHL1   C25 4501   6.788   4.176   4.403
   45CHL1   H25 4502   0.005   4.135   4.443
   45CHL1   C26 4503   6.720   4.054   4.335
   45CHL1  H26A 4504   6.776   4.032   4.242
   45CHL1  H26B 4505   6.718   3.968   4.406
   45CHL1  H26C 4506   6.614   4.081   4.312
   45CHL1   C27 4507   6.808   4.294   4.310
   45CHL1  H27A 4508   0.004   4.369   4.345
   45CHL1  H27B 4509   6.841   4.259   4.210
   45CHL1  H27C 4510   6.713   4.350   4.295
   46CHL1    C3 4511   2.287   5.691   5.821
   46CHL1    H3 4512   2.367   5.615   5.806
   46CHL1    O3 4513   2.270   5.716   5.957
   46CHL1   H3' 4514   2.179   5.748   5.964
   46CHL1    C4 4515   2.305   5.822   5.742
   46CHL1   H4A 4516   2.229   5.891   5.783
   46CHL1   H4B 4517   2.408   5.855   5.770
   46CHL1    C5 4518   2.297   5.818   5.591
   46CHL1    C6 4519   2.402   5.855   5.524
   46CHL1    H6 4520   2.484   5.905   5.578
   46CHL1    C7 4521   2.413   5.838   5.373
   46CHL1   H7A 4522   2.464   5.928   5.334
   46CHL1   H7B 4523   2.472   5.747   5.347
   46CHL1    C8 4524   2.273   5.820   5.311
   46CHL1    H8 4525   2.227   5.920   5.320
   46CHL1   C14 4526   2.282   5.776   5.163
   46CHL1   H14 4527   2.325   5.674   5.152
   46CHL1   C15 4528   2.360   5.870   5.064
   46CHL1  H15A 4529   2.348   5.978   5.088
   46CHL1  H15B 4530   2.470   5.855   5.075
   46CHL1   C16 4531   2.307   5.827   4.931
   46CHL1  H16A 4532   2.265   5.916   4.880
   46CHL1  H16B 4533   2.375   5.765   4.869
   46CHL1   C17 4534   2.185   5.727   4.961
   46CHL1   H17 4535   2.224   5.623   4.966
   46CHL1   C13 4536   2.138   5.760   5.105
   46CHL1   C18 4537   2.059   5.897   5.107
   46CHL1  H18A 4538   2.117   5.986   5.074
   46CHL1  H18B 4539   1.959   5.899   5.060
   46CHL1  H18C 4540   2.025   5.916   5.211
   46CHL1   C12 4541   2.071   5.639   5.183
   46CHL1  H12A 4542   1.971   5.613   5.142
   46CHL1  H12B 4543   2.135   5.549   5.177
   46CHL1   C11 4544   2.058   5.667   5.330
   46CHL1  H11A 4545   1.987   5.752   5.331
   46CHL1  H11B 4546   2.007   5.586   5.387
   46CHL1    C9 4547   2.194   5.713   5.391
   46CHL1    H9 4548   2.259   5.622   5.393
   46CHL1   C10 4549   2.178   5.741   5.542
   46CHL1   C19 4550   2.049   5.825   5.570
   46CHL1  H19A 4551   1.957   5.763   5.571
   46CHL1  H19B 4552   2.048   5.878   5.668
   46CHL1  H19C 4553   2.038   5.894   5.484
   46CHL1    C1 4554   2.162   5.601   5.616
   46CHL1   H1A 4555   2.072   5.546   5.581
   46CHL1   H1B 4556   2.251   5.544   5.583
   46CHL1    C2 4557   2.168   5.622   5.770
   46CHL1   H2A 4558   2.162   5.521   5.817
   46CHL1   H2B 4559   2.081   5.688   5.792
   46CHL1   C20 4560   2.086   5.740   4.843
   46CHL1   H20 4561   2.044   5.843   4.837
   46CHL1   C21 4562   1.961   5.654   4.866
   46CHL1  H21A 4563   1.994   5.552   4.894
   46CHL1  H21B 4564   1.900   5.647   4.774
   46CHL1  H21C 4565   1.894   5.692   4.946
   46CHL1   C22 4566   2.152   5.710   4.700
   46CHL1  H22A 4567   2.077   5.710   4.618
   46CHL1  H22B 4568   2.219   5.797   4.685
   46CHL1   C23 4569   2.227   5.577   4.682
   46CHL1  H23A 4570   2.306   5.568   4.759
   46CHL1  H23B 4571   2.148   5.499   4.692
   46CHL1   C24 4572   2.281   5.558   4.539
   46CHL1  H24A 4573   2.214   5.597   4.459
   46CHL1  H24B 4574   2.374   5.617   4.524
   46CHL1   C25 4575   2.286   5.411   4.486
   46CHL1   H25 4576   2.197   5.347   4.505
   46CHL1   C26 4577   2.307   5.407   4.329
   46CHL1  H26A 4578   2.238   5.471   4.270
   46CHL1  H26B 4579   2.409   5.446   4.310
   46CHL1  H26C 4580   2.303   5.306   4.282
   46CHL1   C27 4581   2.401   5.332   4.544
   46CHL1  H27A 4582   2.420   5.325   4.654
   46CHL1  H27B 4583   2.399   5.226   4.512
   46CHL1  H27C 4584   2.498   5.372   4.510
   47CHL1    C3 4585   4.176   4.741   5.881
   47CHL1    H3 4586   4.070   4.709   5.894
   47CHL1    O3 4587   4.251   4.737   6.007
   47CHL1   H3' 4588   4.307   4.661   5.991
   47CHL1    C4 4589   4.243   4.649   5.781
   47CHL1   H4A 4590   4.350   4.678   5.780
   47CHL1   H4B 4591   4.233   4.549   5.828
   47CHL1    C5 4592   4.189   4.656   5.639
   47CHL1    C6 4593   4.156   4.546   5.565
   47CHL1    H6 4594   4.176   4.442   5.594
   47CHL1    C7 4595   4.089   4.558   5.429
   47CHL1   H7A 4596   4.139   4.493   5.354
   47CHL1   H7B 4597   3.982   4.525   5.432
   47CHL1    C8 4598   4.106   4.703   5.358
   47CHL1    H8 4599   4.208   4.717   5.316
   47CHL1   C14 4600   4.013   4.728   5.235
   47CHL1   H14 4601   3.913   4.730   5.283
   47CHL1   C15 4602   4.011   4.624   5.123
   47CHL1  H15A 4603   4.116   4.613   5.087
   47CHL1  H15B 4604   3.961   4.525   5.131
   47CHL1   C16 4605   3.933   4.697   5.012
   47CHL1  H16A 4606   3.977   4.675   4.912
   47CHL1  H16B 4607   3.829   4.659   5.012
   47CHL1   C17 4608   3.912   4.842   5.065
   47CHL1   H17 4609   3.824   4.857   5.132
   47CHL1   C13 4610   4.024   4.868   5.165
   47CHL1   C18 4611   4.161   4.885   5.095
   47CHL1  H18A 4612   4.241   4.893   5.173
   47CHL1  H18B 4613   4.194   4.799   5.033
   47CHL1  H18C 4614   4.172   4.976   5.033
   47CHL1   C12 4615   4.002   4.972   5.281
   47CHL1  H12A 4616   4.010   5.077   5.246
   47CHL1  H12B 4617   3.897   4.951   5.314
   47CHL1   C11 4618   4.090   4.951   5.404
   47CHL1  H11A 4619   4.195   4.977   5.377
   47CHL1  H11B 4620   4.053   5.027   5.476
   47CHL1    C9 4621   4.079   4.809   5.470
   47CHL1    H9 4622   3.973   4.799   5.502
   47CHL1   C10 4623   4.168   4.801   5.591
   47CHL1   C19 4624   4.315   4.853   5.564
   47CHL1  H19A 4625   4.368   4.800   5.483
   47CHL1  H19B 4626   4.315   4.961   5.539
   47CHL1  H19C 4627   4.376   4.852   5.657
   47CHL1    C1 4628   4.106   4.900   5.692
   47CHL1   H1A 4629   4.118   5.006   5.659
   47CHL1   H1B 4630   4.000   4.868   5.702
   47CHL1    C2 4631   4.159   4.888   5.836
   47CHL1   H2A 4632   4.105   4.958   5.902
   47CHL1   H2B 4633   4.262   4.931   5.840
   47CHL1   C20 4634   3.905   4.939   4.944
   47CHL1   H20 4635   4.001   4.924   4.889
   47CHL1   C21 4636   3.893   5.090   4.982
   47CHL1  H21A 4637   3.975   5.130   5.046
   47CHL1  H21B 4638   3.798   5.113   5.033
   47CHL1  H21C 4639   3.903   5.153   4.892
   47CHL1   C22 4640   3.781   4.904   4.850
   47CHL1  H22A 4641   3.793   4.798   4.820
   47CHL1  H22B 4642   3.689   4.911   4.911
   47CHL1   C23 4643   3.781   4.986   4.718
   47CHL1  H23A 4644   3.746   5.090   4.730
   47CHL1  H23B 4645   3.886   4.972   4.684
   47CHL1   C24 4646   3.692   4.910   4.607
   47CHL1  H24A 4647   3.734   4.808   4.595
   47CHL1  H24B 4648   3.587   4.908   4.644
   47CHL1   C25 4649   3.691   4.978   4.471
   47CHL1   H25 4650   3.663   5.085   4.480
   47CHL1   C26 4651   3.828   4.973   4.396
   47CHL1  H26A 4652   3.866   4.869   4.390
   47CHL1  H26B 4653   3.813   5.013   4.294
   47CHL1  H26C 4654   3.898   5.034   4.458
   47CHL1   C27 4655   3.591   4.915   4.374
   47CHL1  H27A 4656   3.602   4.954   4.270
   47CHL1  H27B 4657   3.610   4.806   4.367
   47CHL1  H27C 4658   3.488   4.927   4.413
   48CHL1    C3 4659   0.917   5.831   5.956
   48CHL1    H3 4660   0.849   5.913   5.925
   48CHL1    O3 4661   0.896   5.806   6.096
   48CHL1   H3' 4662   0.951   5.731   6.117
   48CHL1    C4 4663   0.873   5.700   5.890
   48CHL1   H4A 4664   0.931   5.611   5.924
   48CHL1   H4B 4665   0.767   5.698   5.923
   48CHL1    C5 4666   0.885   5.704   5.742
   48CHL1    C6 4667   0.778   5.688   5.664
   48CHL1    H6 4668   0.677   5.678   5.705
   48CHL1    C7 4669   0.781   5.702   5.517
   48CHL1   H7A 4670   0.716   5.623   5.473
   48CHL1   H7B 4671   0.744   5.803   5.489
   48CHL1    C8 4672   0.924   5.688   5.459
   48CHL1    H8 4673   0.957   5.582   5.452
   48CHL1   C14 4674   0.923   5.735   5.319
   48CHL1   H14 4675   0.909   5.845   5.313
   48CHL1   C15 4676   0.812   5.690   5.223
   48CHL1  H15A 4677   0.783   5.584   5.239
   48CHL1  H15B 4678   0.722   5.755   5.224
   48CHL1   C16 4679   0.876   5.711   5.083
   48CHL1  H16A 4680   0.887   5.616   5.026
   48CHL1  H16B 4681   0.814   5.782   5.025
   48CHL1   C17 4682   1.019   5.771   5.114
   48CHL1   H17 4683   0.999   5.880   5.114
   48CHL1   C13 4684   1.058   5.718   5.250
   48CHL1   C18 4685   1.096   5.569   5.232
   48CHL1  H18A 4686   1.018   5.516   5.172
   48CHL1  H18B 4687   1.194   5.563   5.180
   48CHL1  H18C 4688   1.100   5.518   5.330
   48CHL1   C12 4689   1.167   5.802   5.318
   48CHL1  H12A 4690   1.269   5.791   5.277
   48CHL1  H12B 4691   1.140   5.909   5.305
   48CHL1   C11 4692   1.168   5.769   5.469
   48CHL1  H11A 4693   1.202   5.665   5.482
   48CHL1  H11B 4694   1.235   5.837   5.525
   48CHL1    C9 4695   1.030   5.772   5.542
   48CHL1    H9 4696   0.996   5.877   5.529
   48CHL1   C10 4697   1.031   5.736   5.691
   48CHL1   C19 4698   1.119   5.611   5.707
   48CHL1  H19A 4699   1.226   5.641   5.719
   48CHL1  H19B 4700   1.104   5.569   5.808
   48CHL1  H19C 4701   1.096   5.531   5.634
   48CHL1    C1 4702   1.101   5.845   5.777
   48CHL1   H1A 4703   1.209   5.861   5.758
   48CHL1   H1B 4704   1.069   5.940   5.728
   48CHL1    C2 4705   1.066   5.853   5.926
   48CHL1   H2A 4706   1.091   5.957   5.959
   48CHL1   H2B 4707   1.136   5.783   5.976
   48CHL1   C20 4708   1.124   5.753   4.992
   48CHL1   H20 4709   1.140   5.643   4.985
   48CHL1   C21 4710   1.261   5.813   5.024
   48CHL1  H21A 4711   1.246   5.917   5.060
   48CHL1  H21B 4712   1.322   5.744   5.087
   48CHL1  H21C 4713   1.329   5.824   4.936
   48CHL1   C22 4714   1.066   5.802   4.851
   48CHL1  H22A 4715   0.976   5.741   4.831
   48CHL1  H22B 4716   1.043   5.910   4.861
   48CHL1   C23 4717   1.161   5.780   4.734
   48CHL1  H23A 4718   1.251   5.846   4.733
   48CHL1  H23B 4719   1.211   5.682   4.752
   48CHL1   C24 4720   1.088   5.790   4.601
   48CHL1  H24A 4721   0.997   5.727   4.618
   48CHL1  H24B 4722   1.043   5.890   4.586
   48CHL1   C25 4723   1.165   5.761   4.470
   48CHL1   H25 4724   1.092   5.760   4.386
   48CHL1   C26 4725   1.277   5.862   4.448
   48CHL1  H26A 4726   1.352   5.847   4.529
   48CHL1  H26B 4727   1.329   5.846   4.351
   48CHL1  H26C 4728   1.245   5.968   4.451
   48CHL1   C27 4729   1.231   5.622   4.456
   48CHL1  H27A 4730   1.290   5.627   4.362
   48CHL1  H27B 4731   1.300   5.604   4.541
   48CHL1  H27C 4732   1.150   5.547   4.449
   49CHL1    C3 4733   4.149   4.208   2.507
   49CHL1    H3 4734   4.049   4.240   2.542
   49CHL1    O3 4735   4.137   4.160   2.373
   49CHL1   H3' 4736   4.222   4.164   2.329
   49CHL1    C4 4737   4.244   4.321   2.507
   49CHL1   H4A 4738   4.344   4.285   2.475
   49CHL1   H4B 4739   4.219   4.408   2.442
   49CHL1    C5 4740   4.264   4.376   2.643
   49CHL1    C6 4741   4.236   4.501   2.679
   49CHL1    H6 4742   4.200   4.569   2.601
   49CHL1    C7 4743   4.242   4.566   2.816
   49CHL1   H7A 4744   4.293   4.665   2.817
   49CHL1   H7B 4745   4.137   4.558   2.851
   49CHL1    C8 4746   4.322   4.471   2.910
   49CHL1    H8 4747   4.430   4.489   2.890
   49CHL1   C14 4748   4.296   4.514   3.048
   49CHL1   H14 4749   4.195   4.475   3.074
   49CHL1   C15 4750   4.293   4.660   3.087
   49CHL1  H15A 4751   4.377   4.715   3.040
   49CHL1  H15B 4752   4.203   4.707   3.043
   49CHL1   C16 4753   4.304   4.662   3.238
   49CHL1  H16A 4754   4.395   4.721   3.261
   49CHL1  H16B 4755   4.218   4.699   3.299
   49CHL1   C17 4756   4.338   4.514   3.281
   49CHL1   H17 4757   4.240   4.472   3.311
   49CHL1   C13 4758   4.383   4.438   3.157
   49CHL1   C18 4759   4.536   4.468   3.135
   49CHL1  H18A 4760   4.589   4.404   3.208
   49CHL1  H18B 4761   4.557   4.437   3.031
   49CHL1  H18C 4762   4.559   4.577   3.142
   49CHL1   C12 4763   4.347   4.291   3.155
   49CHL1  H12A 4764   4.417   4.227   3.213
   49CHL1  H12B 4765   4.249   4.283   3.206
   49CHL1   C11 4766   4.339   4.234   3.006
   49CHL1  H11A 4767   4.446   4.214   2.983
   49CHL1  H11B 4768   4.284   4.138   2.996
   49CHL1    C9 4769   4.290   4.327   2.893
   49CHL1    H9 4770   4.180   4.325   2.906
   49CHL1   C10 4771   4.316   4.271   2.751
   49CHL1   C19 4772   4.470   4.247   2.722
   49CHL1  H19A 4773   4.519   4.347   2.724
   49CHL1  H19B 4774   4.515   4.180   2.798
   49CHL1  H19C 4775   4.484   4.188   2.629
   49CHL1    C1 4776   4.236   4.140   2.734
   49CHL1   H1A 4777   4.281   4.054   2.789
   49CHL1   H1B 4778   4.141   4.147   2.791
   49CHL1    C2 4779   4.197   4.091   2.596
   49CHL1   H2A 4780   4.123   4.008   2.605
   49CHL1   H2B 4781   4.281   4.039   2.546
   49CHL1   C20 4782   4.428   4.508   3.406
   49CHL1   H20 4783   4.527   4.553   3.382
   49CHL1   C21 4784   4.441   4.367   3.463
   49CHL1  H21A 4785   4.493   4.300   3.391
   49CHL1  H21B 4786   4.340   4.324   3.484
   49CHL1  H21C 4787   4.495   4.361   3.560
   49CHL1   C22 4788   4.379   4.602   3.516
   49CHL1  H22A 4789   4.441   4.590   3.608
   49CHL1  H22B 4790   4.394   4.706   3.480
   49CHL1   C23 4791   4.236   4.588   3.567
   49CHL1  H23A 4792   4.171   4.619   3.483
   49CHL1  H23B 4793   4.223   4.481   3.595
   49CHL1   C24 4794   4.209   4.679   3.689
   49CHL1  H24A 4795   4.250   4.644   3.786
   49CHL1  H24B 4796   4.259   4.776   3.664
   49CHL1   C25 4797   4.060   4.720   3.704
   49CHL1   H25 4798   4.015   4.752   3.608
   49CHL1   C26 4799   3.975   4.595   3.742
   49CHL1  H26A 4800   3.867   4.622   3.746
   49CHL1  H26B 4801   3.978   4.513   3.668
   49CHL1  H26C 4802   4.003   4.548   3.839
   49CHL1   C27 4803   4.032   4.839   3.808
   49CHL1  H27A 4804   4.060   4.808   3.911
   49CHL1  H27B 4805   4.078   4.936   3.778
   49CHL1  H27C 4806   3.921   4.850   3.807
   50CHL1    C3 4807   4.159   2.013   2.653
   50CHL1    H3 4808   4.265   1.981   2.665
   50CHL1    O3 4809   4.141   2.026   2.515
   50CHL1   H3' 4810   4.058   2.074   2.510
   50CHL1    C4 4811   4.067   1.906   2.700
   50CHL1   H4A 4812   3.966   1.926   2.658
   50CHL1   H4B 4813   4.089   1.807   2.654
   50CHL1    C5 4814   4.069   1.893   2.855
   50CHL1    C6 4815   4.079   1.770   2.921
   50CHL1    H6 4816   4.090   1.673   2.870
   50CHL1    C7 4817   4.058   1.756   3.067
   50CHL1   H7A 4818   3.991   1.670   3.089
   50CHL1   H7B 4819   4.159   1.722   3.100
   50CHL1    C8 4820   4.011   1.880   3.137
   50CHL1    H8 4821   3.901   1.883   3.126
   50CHL1   C14 4822   4.036   1.875   3.280
   50CHL1   H14 4823   4.147   1.884   3.282
   50CHL1   C15 4824   3.991   1.751   3.356
   50CHL1  H15A 4825   3.888   1.729   3.320
   50CHL1  H15B 4826   4.056   1.662   3.339
   50CHL1   C16 4827   3.994   1.791   3.507
   50CHL1  H16A 4828   3.904   1.764   3.566
   50CHL1  H16B 4829   4.083   1.754   3.563
   50CHL1   C17 4830   4.014   1.945   3.502
   50CHL1   H17 4831   4.125   1.943   3.513
   50CHL1   C13 4832   3.981   1.996   3.362
   50CHL1   C18 4833   3.833   2.020   3.343
   50CHL1  H18A 4834   3.811   2.029   3.234
   50CHL1  H18B 4835   3.769   1.936   3.377
   50CHL1  H18C 4836   3.794   2.111   3.393
   50CHL1   C12 4837   4.047   2.130   3.311
   50CHL1  H12A 4838   4.023   2.226   3.363
   50CHL1  H12B 4839   4.152   2.111   3.340
   50CHL1   C11 4840   4.032   2.137   3.158
   50CHL1  H11A 4841   3.923   2.151   3.143
   50CHL1  H11B 4842   4.097   2.221   3.127
   50CHL1    C9 4843   4.071   2.004   3.078
   50CHL1    H9 4844   4.180   1.989   3.095
   50CHL1   C10 4845   4.053   2.027   2.930
   50CHL1   C19 4846   3.915   2.083   2.898
   50CHL1  H19A 4847   3.908   2.186   2.939
   50CHL1  H19B 4848   3.883   2.063   2.793
   50CHL1  H19C 4849   3.837   2.028   2.955
   50CHL1    C1 4850   4.162   2.129   2.878
   50CHL1   H1A 4851   4.145   2.233   2.911
   50CHL1   H1B 4852   4.264   2.089   2.897
   50CHL1    C2 4853   4.141   2.140   2.722
   50CHL1   H2A 4854   4.219   2.209   2.684
   50CHL1   H2B 4855   4.043   2.190   2.704
   50CHL1   C20 4856   3.953   2.012   3.622
   50CHL1   H20 4857   3.845   1.986   3.634
   50CHL1   C21 4858   3.963   2.167   3.628
   50CHL1  H21A 4859   3.912   2.199   3.534
   50CHL1  H21B 4860   4.067   2.206   3.631
   50CHL1  H21C 4861   3.920   2.222   3.714
   50CHL1   C22 4862   4.028   1.962   3.759
   50CHL1  H22A 4863   4.030   1.851   3.762
   50CHL1  H22B 4864   4.133   1.999   3.757
   50CHL1   C23 4865   3.962   1.997   3.897
   50CHL1  H23A 4866   4.014   2.090   3.928
   50CHL1  H23B 4867   3.858   2.030   3.876
   50CHL1   C24 4868   3.968   1.878   3.996
   50CHL1  H24A 4869   3.929   1.784   3.953
   50CHL1  H24B 4870   4.066   1.872   4.049
   50CHL1   C25 4871   3.877   1.920   4.118
   50CHL1   H25 4872   3.773   1.913   4.078
   50CHL1   C26 4873   3.905   1.808   4.221
   50CHL1  H26A 4874   3.848   1.834   4.313
   50CHL1  H26B 4875   3.876   1.707   4.184
   50CHL1  H26C 4876   4.014   1.801   4.242
   50CHL1   C27 4877   3.922   2.056   4.176
   50CHL1  H27A 4878   3.856   2.080   4.262
   50CHL1  H27B 4879   4.024   2.059   4.219
   50CHL1  H27C 4880   3.907   2.136   4.100
   51CHL1    C3 4881   3.799   2.842   2.534
   51CHL1    H3 4882   3.892   2.787   2.556
   51CHL1    O3 4883   3.786   2.834   2.394
   51CHL1   H3' 4884   3.840   2.908   2.365
   51CHL1    C4 4885   3.674   2.798   2.609
   51CHL1   H4A 4886   3.596   2.856   2.554
   51CHL1   H4B 4887   3.653   2.692   2.584
   51CHL1    C5 4888   3.662   2.830   2.752
   51CHL1    C6 4889   3.648   2.734   2.847
   51CHL1    H6 4890   3.631   2.634   2.805
   51CHL1    C7 4891   3.630   2.758   2.988
   51CHL1   H7A 4892   3.535   2.706   3.015
   51CHL1   H7B 4893   3.718   2.716   3.042
   51CHL1    C8 4894   3.618   2.905   3.021
   51CHL1    H8 4895   3.513   2.927   2.995
   51CHL1   C14 4896   3.639   2.922   3.172
   51CHL1   H14 4897   3.739   2.877   3.184
   51CHL1   C15 4898   3.560   2.834   3.270
   51CHL1  H15A 4899   3.451   2.836   3.250
   51CHL1  H15B 4900   3.583   2.725   3.272
   51CHL1   C16 4901   3.599   2.889   3.407
   51CHL1  H16A 4902   3.507   2.888   3.470
   51CHL1  H16B 4903   3.677   2.826   3.456
   51CHL1   C17 4904   3.656   3.033   3.378
   51CHL1   H17 4905   3.767   3.035   3.385
   51CHL1   C13 4906   3.630   3.062   3.221
   51CHL1   C18 4907   3.482   3.109   3.204
   51CHL1  H18A 4908   3.449   3.092   3.099
   51CHL1  H18B 4909   3.415   3.056   3.274
   51CHL1  H18C 4910   3.475   3.218   3.222
   51CHL1   C12 4911   3.727   3.152   3.146
   51CHL1  H12A 4912   3.696   3.256   3.170
   51CHL1  H12B 4913   3.828   3.145   3.192
   51CHL1   C11 4914   3.701   3.147   2.993
   51CHL1  H11A 4915   3.608   3.203   2.969
   51CHL1  H11B 4916   3.784   3.208   2.951
   51CHL1    C9 4917   3.705   3.000   2.937
   51CHL1    H9 4918   3.807   2.967   2.965
   51CHL1   C10 4919   3.682   2.975   2.789
   51CHL1   C19 4920   3.559   3.058   2.751
   51CHL1  H19A 4921   3.574   3.165   2.777
   51CHL1  H19B 4922   3.549   3.066   2.640
   51CHL1  H19C 4923   3.468   3.020   2.801
   51CHL1    C1 4924   3.814   3.016   2.721
   51CHL1   H1A 4925   3.835   3.124   2.737
   51CHL1   H1B 4926   3.900   2.961   2.765
   51CHL1    C2 4927   3.822   2.990   2.568
   51CHL1   H2A 4928   3.921   3.022   2.529
   51CHL1   H2B 4929   3.744   3.054   2.520
   51CHL1   C20 4930   3.602   3.134   3.491
   51CHL1   H20 4931   3.493   3.125   3.510
   51CHL1   C21 4932   3.645   3.275   3.445
   51CHL1  H21A 4933   3.595   3.318   3.356
   51CHL1  H21B 4934   3.756   3.265   3.436
   51CHL1  H21C 4935   3.622   3.354   3.520
   51CHL1   C22 4936   3.671   3.102   3.626
   51CHL1  H22A 4937   3.634   3.004   3.663
   51CHL1  H22B 4938   3.781   3.098   3.605
   51CHL1   C23 4939   3.646   3.196   3.740
   51CHL1  H23A 4940   3.657   3.305   3.719
   51CHL1  H23B 4941   3.544   3.177   3.779
   51CHL1   C24 4942   3.743   3.178   3.858
   51CHL1  H24A 4943   3.733   3.074   3.895
   51CHL1  H24B 4944   3.849   3.197   3.832
   51CHL1   C25 4945   3.705   3.269   3.975
   51CHL1   H25 4946   3.706   3.372   3.934
   51CHL1   C26 4947   3.565   3.245   4.030
   51CHL1  H26A 4948   3.541   3.268   4.136
   51CHL1  H26B 4949   3.481   3.288   3.971
   51CHL1  H26C 4950   3.551   3.136   4.020
   51CHL1   C27 4951   3.812   3.256   4.081
   51CHL1  H27A 4952   3.913   3.278   4.041
   51CHL1  H27B 4953   3.785   3.323   4.166
   51CHL1  H27C 4954   3.823   3.155   4.126
   52CHL1    C3 4955   3.271   4.456   2.543
   52CHL1    H3 4956   3.371   4.498   2.566
   52CHL1    O3 4957   3.259   4.432   2.405
   52CHL1   H3' 4958   3.294   4.513   2.366
   52CHL1    C4 4959   3.259   4.326   2.618
   52CHL1   H4A 4960   3.162   4.276   2.599
   52CHL1   H4B 4961   3.336   4.263   2.568
   52CHL1    C5 4962   3.265   4.353   2.764
   52CHL1    C6 4963   3.359   4.292   2.838
   52CHL1    H6 4964   3.433   4.235   2.779
   52CHL1    C7 4965   3.379   4.311   2.987
   52CHL1   H7A 4966   3.403   4.211   3.029
   52CHL1   H7B 4967   3.469   4.372   3.012
   52CHL1    C8 4968   3.241   4.362   3.043
   52CHL1    H8 4969   3.160   4.285   3.041
   52CHL1   C14 4970   3.254   4.399   3.190
   52CHL1   H14 4971   3.323   4.485   3.171
   52CHL1   C15 4972   3.336   4.316   3.295
   52CHL1  H15A 4973   3.294   4.214   3.287
   52CHL1  H15B 4974   3.445   4.316   3.274
   52CHL1   C16 4975   3.306   4.377   3.432
   52CHL1  H16A 4976   3.278   4.313   3.519
   52CHL1  H16B 4977   3.394   4.439   3.459
   52CHL1   C17 4978   3.199   4.487   3.401
   52CHL1   H17 4979   3.260   4.579   3.391
   52CHL1   C13 4980   3.134   4.456   3.269
   52CHL1   C18 4981   3.024   4.346   3.271
   52CHL1  H18A 4982   3.058   4.260   3.333
   52CHL1  H18B 4983   2.925   4.388   3.300
   52CHL1  H18C 4984   2.999   4.313   3.168
   52CHL1   C12 4985   3.083   4.576   3.185
   52CHL1  H12A 4986   2.984   4.598   3.229
   52CHL1  H12B 4987   3.155   4.660   3.197
   52CHL1   C11 4988   3.061   4.536   3.037
   52CHL1  H11A 4989   2.971   4.470   3.042
   52CHL1  H11B 4990   3.034   4.627   2.980
   52CHL1    C9 4991   3.180   4.475   2.967
   52CHL1    H9 4992   3.257   4.555   2.970
   52CHL1   C10 4993   3.164   4.453   2.816
   52CHL1   C19 4994   3.020   4.398   2.800
   52CHL1  H19A 4995   2.975   4.330   2.875
   52CHL1  H19B 4996   2.953   4.487   2.796
   52CHL1  H19C 4997   3.006   4.360   2.696
   52CHL1    C1 4998   3.176   4.582   2.732
   52CHL1   H1A 4999   3.108   4.657   2.778
   52CHL1   H1B 5000   3.280   4.618   2.750
   52CHL1    C2 5001   3.169   4.562   2.582
   52CHL1   H2A 5002   3.197   4.658   2.533
   52CHL1   H2B 5003   3.071   4.531   2.541
   52CHL1   C20 5004   3.108   4.528   3.521
   52CHL1   H20 5005   3.021   4.459   3.521
   52CHL1   C21 5006   3.057   4.675   3.510
   52CHL1  H21A 5007   3.002   4.679   3.414
   52CHL1  H21B 5008   3.134   4.754   3.523
   52CHL1  H21C 5009   2.988   4.691   3.596
   52CHL1   C22 5010   3.170   4.501   3.668
   52CHL1  H22A 5011   3.233   4.410   3.673
   52CHL1  H22B 5012   3.226   4.595   3.690
   52CHL1   C23 5013   3.053   4.494   3.775
   52CHL1  H23A 5014   2.984   4.580   3.787
   52CHL1  H23B 5015   2.993   4.403   3.750
   52CHL1   C24 5016   3.115   4.474   3.913
   52CHL1  H24A 5017   3.172   4.378   3.914
   52CHL1  H24B 5018   3.187   4.558   3.910
   52CHL1   C25 5019   3.013   4.474   4.031
   52CHL1   H25 5020   3.078   4.421   4.104
   52CHL1   C26 5021   2.975   4.614   4.077
   52CHL1  H26A 5022   3.066   4.677   4.082
   52CHL1  H26B 5023   2.903   4.653   4.003
   52CHL1  H26C 5024   2.935   4.612   4.181
   52CHL1   C27 5025   2.893   4.381   4.013
   52CHL1  H27A 5026   2.838   4.375   4.109
   52CHL1  H27B 5027   2.827   4.427   3.936
   52CHL1  H27C 5028   2.917   4.276   3.984
   53CHL1    C3 5029   3.035   3.180   2.629
   53CHL1    H3 5030   2.959   3.259   2.648
   53CHL1    O3 5031   3.067   3.188   2.493
   53CHL1   H3' 5032   3.139   3.125   2.481
   53CHL1    C4 5033   3.152   3.215   2.720
   53CHL1   H4A 5034   3.242   3.158   2.689
   53CHL1   H4B 5035   3.177   3.322   2.705
   53CHL1    C5 5036   3.130   3.189   2.864
   53CHL1    C6 5037   3.146   3.282   2.963
   53CHL1    H6 5038   3.196   3.376   2.936
   53CHL1    C7 5039   3.132   3.261   3.109
   53CHL1   H7A 5040   3.219   3.308   3.159
   53CHL1   H7B 5041   3.035   3.308   3.138
   53CHL1    C8 5042   3.114   3.111   3.141
   53CHL1    H8 5043   3.217   3.070   3.134
   53CHL1   C14 5044   3.087   3.092   3.295
   53CHL1   H14 5045   2.991   3.147   3.306
   53CHL1   C15 5046   3.168   3.163   3.404
   53CHL1  H15A 5047   3.275   3.160   3.373
   53CHL1  H15B 5048   3.133   3.268   3.414
   53CHL1   C16 5049   3.123   3.093   3.535
   53CHL1  H16A 5050   3.204   3.038   3.589
   53CHL1  H16B 5051   3.068   3.165   3.600
   53CHL1   C17 5052   3.010   2.988   3.487
   53CHL1   H17 5053   2.915   3.043   3.477
   53CHL1   C13 5054   3.052   2.948   3.345
   53CHL1   C18 5055   3.187   2.870   3.349
   53CHL1  H18A 5056   3.254   2.897   3.434
   53CHL1  H18B 5057   3.152   2.766   3.364
   53CHL1  H18C 5058   3.228   2.869   3.246
   53CHL1   C12 5059   2.938   2.885   3.249
   53CHL1  H12A 5060   2.928   2.778   3.278
   53CHL1  H12B 5061   2.847   2.942   3.275
   53CHL1   C11 5062   2.980   2.903   3.103
   53CHL1  H11A 5063   3.061   2.834   3.071
   53CHL1  H11B 5064   2.886   2.879   3.048
   53CHL1    C9 5065   3.017   3.047   3.048
   53CHL1    H9 5066   2.925   3.109   3.054
   53CHL1   C10 5067   3.070   3.053   2.897
   53CHL1   C19 5068   3.183   2.954   2.877
   53CHL1  H19A 5069   3.218   2.958   2.771
   53CHL1  H19B 5070   3.262   2.969   2.953
   53CHL1  H19C 5071   3.148   2.850   2.894
   53CHL1    C1 5072   2.951   3.017   2.804
   53CHL1   H1A 5073   2.929   2.910   2.820
   53CHL1   H1B 5074   2.856   3.068   2.835
   53CHL1    C2 5075   2.979   3.040   2.655
   53CHL1   H2A 5076   2.884   3.023   2.599
   53CHL1   H2B 5077   3.055   2.967   2.623
   53CHL1   C20 5078   2.982   2.868   3.593
   53CHL1   H20 5079   3.055   2.787   3.569
   53CHL1   C21 5080   2.832   2.824   3.583
   53CHL1  H21A 5081   2.808   2.736   3.646
   53CHL1  H21B 5082   2.821   2.801   3.475
   53CHL1  H21C 5083   2.779   2.918   3.607
   53CHL1   C22 5084   3.017   2.908   3.739
   53CHL1  H22A 5085   3.125   2.932   3.746
   53CHL1  H22B 5086   2.953   2.998   3.755
   53CHL1   C23 5087   2.989   2.800   3.843
   53CHL1  H23A 5088   2.886   2.759   3.839
   53CHL1  H23B 5089   3.053   2.710   3.835
   53CHL1   C24 5090   3.001   2.841   3.990
   53CHL1  H24A 5091   3.105   2.855   4.026
   53CHL1  H24B 5092   2.955   2.941   4.001
   53CHL1   C25 5093   2.921   2.755   4.088
   53CHL1   H25 5094   2.815   2.779   4.066
   53CHL1   C26 5095   2.949   2.603   4.076
   53CHL1  H26A 5096   2.908   2.568   3.979
   53CHL1  H26B 5097   3.057   2.580   4.088
   53CHL1  H26C 5098   2.895   2.554   4.160
   53CHL1   C27 5099   2.926   2.810   4.233
   53CHL1  H27A 5100   3.028   2.796   4.276
   53CHL1  H27B 5101   2.894   2.916   4.237
   53CHL1  H27C 5102   2.867   2.753   4.308
   54CHL1    C3 5103   2.612   3.575   2.432
   54CHL1    H3 5104   2.590   3.678   2.466
   54CHL1    O3 5105   2.632   3.596   2.289
   54CHL1   H3' 5106   2.631   3.505   2.257
   54CHL1    C4 5107   2.736   3.508   2.493
   54CHL1   H4A 5108   2.767   3.430   2.420
   54CHL1   H4B 5109   2.819   3.581   2.494
   54CHL1    C5 5110   2.708   3.460   2.634
   54CHL1    C6 5111   2.774   3.518   2.742
   54CHL1    H6 5112   2.857   3.588   2.723
   54CHL1    C7 5113   2.742   3.484   2.887
   54CHL1   H7A 5114   2.832   3.467   2.949
   54CHL1   H7B 5115   2.678   3.565   2.929
   54CHL1    C8 5116   2.667   3.352   2.906
   54CHL1    H8 5117   2.732   3.263   2.893
   54CHL1   C14 5118   2.631   3.347   3.054
   54CHL1   H14 5119   2.564   3.433   3.070
   54CHL1   C15 5120   2.739   3.353   3.158
   54CHL1  H15A 5121   2.813   3.273   3.133
   54CHL1  H15B 5122   2.790   3.452   3.163
   54CHL1   C16 5123   2.674   3.302   3.288
   54CHL1  H16A 5124   2.733   3.226   3.342
   54CHL1  H16B 5125   2.670   3.387   3.360
   54CHL1   C17 5126   2.537   3.249   3.243
   54CHL1   H17 5127   2.454   3.320   3.267
   54CHL1   C13 5128   2.550   3.222   3.094
   54CHL1   C18 5129   2.621   3.081   3.078
   54CHL1  H18A 5130   2.667   3.054   2.981
   54CHL1  H18B 5131   2.705   3.074   3.151
   54CHL1  H18C 5132   2.544   3.004   3.099
   54CHL1   C12 5133   2.419   3.225   3.005
   54CHL1  H12A 5134   2.362   3.130   3.014
   54CHL1  H12B 5135   2.358   3.315   3.028
   54CHL1   C11 5136   2.447   3.241   2.848
   54CHL1  H11A 5137   2.493   3.147   2.810
   54CHL1  H11B 5138   2.349   3.250   2.796
   54CHL1    C9 5139   2.546   3.355   2.810
   54CHL1    H9 5140   2.492   3.449   2.835
   54CHL1   C10 5141   2.584   3.366   2.662
   54CHL1   C19 5142   2.616   3.224   2.612
   54CHL1  H19A 5143   2.523   3.164   2.606
   54CHL1  H19B 5144   2.648   3.234   2.506
   54CHL1  H19C 5145   2.700   3.167   2.657
   54CHL1    C1 5146   2.463   3.428   2.588
   54CHL1   H1A 5147   2.391   3.344   2.574
   54CHL1   H1B 5148   2.415   3.504   2.654
   54CHL1    C2 5149   2.493   3.481   2.447
   54CHL1   H2A 5150   2.405   3.528   2.399
   54CHL1   H2B 5151   2.509   3.390   2.386
   54CHL1   C20 5152   2.474   3.136   3.332
   54CHL1   H20 5153   2.541   3.049   3.315
   54CHL1   C21 5154   2.331   3.107   3.288
   54CHL1  H21A 5155   2.280   3.203   3.266
   54CHL1  H21B 5156   2.273   3.046   3.360
   54CHL1  H21C 5157   2.334   3.047   3.194
   54CHL1   C22 5158   2.476   3.181   3.479
   54CHL1  H22A 5159   2.582   3.180   3.514
   54CHL1  H22B 5160   2.441   3.286   3.491
   54CHL1   C23 5161   2.402   3.091   3.582
   54CHL1  H23A 5162   2.292   3.098   3.568
   54CHL1  H23B 5163   2.439   2.987   3.574
   54CHL1   C24 5164   2.422   3.135   3.730
   54CHL1  H24A 5165   2.525   3.169   3.757
   54CHL1  H24B 5166   2.346   3.215   3.739
   54CHL1   C25 5167   2.387   3.023   3.838
   54CHL1   H25 5168   2.294   2.974   3.802
   54CHL1   C26 5169   2.488   2.912   3.837
   54CHL1  H26A 5170   2.588   2.955   3.859
   54CHL1  H26B 5171   2.477   2.836   3.918
   54CHL1  H26C 5172   2.495   2.861   3.739
   54CHL1   C27 5173   2.374   3.082   3.980
   54CHL1  H27A 5174   2.466   3.136   4.011
   54CHL1  H27B 5175   2.303   3.167   3.981
   54CHL1  H27C 5176   2.352   3.000   4.052
   55CHL1    C3 5177   3.785   6.129   2.794
   55CHL1    H3 5178   3.707   6.205   2.819
   55CHL1    O3 5179   3.756   6.091   2.663
   55CHL1   H3' 5180   3.813   6.020   2.634
   55CHL1    C4 5181   3.921   6.203   2.800
   55CHL1   H4A 5182   4.001   6.140   2.756
   55CHL1   H4B 5183   3.908   6.293   2.737
   55CHL1    C5 5184   3.937   6.244   2.948
   55CHL1    C6 5185   3.958   6.378   2.976
   55CHL1    H6 5186   3.968   6.448   2.891
   55CHL1    C7 5187   3.983   6.424   3.114
   55CHL1   H7A 5188   4.075   6.486   3.107
   55CHL1   H7B 5189   3.889   6.477   3.142
   55CHL1    C8 5190   4.020   6.310   3.212
   55CHL1    H8 5191   4.122   6.273   3.188
   55CHL1   C14 5192   4.026   6.354   3.356
   55CHL1   H14 5193   3.928   6.401   3.380
   55CHL1   C15 5194   4.133   6.470   3.381
   55CHL1  H15A 5195   4.226   6.427   3.337
   55CHL1  H15B 5196   4.101   6.569   3.341
   55CHL1   C16 5197   4.123   6.469   3.537
   55CHL1  H16A 5198   4.229   6.480   3.567
   55CHL1  H16B 5199   4.078   6.561   3.580
   55CHL1   C17 5200   4.056   6.337   3.588
   55CHL1   H17 5201   3.954   6.365   3.624
   55CHL1   C13 5202   4.043   6.246   3.464
   55CHL1   C18 5203   4.182   6.184   3.445
   55CHL1  H18A 5204   4.270   6.251   3.454
   55CHL1  H18B 5205   4.192   6.102   3.519
   55CHL1  H18C 5206   4.181   6.145   3.341
   55CHL1   C12 5207   3.927   6.149   3.456
   55CHL1  H12A 5208   3.956   6.058   3.513
   55CHL1  H12B 5209   3.830   6.200   3.474
   55CHL1   C11 5210   3.918   6.091   3.313
   55CHL1  H11A 5211   4.012   6.034   3.300
   55CHL1  H11B 5212   3.836   6.016   3.304
   55CHL1    C9 5213   3.914   6.198   3.199
   55CHL1    H9 5214   3.819   6.255   3.207
   55CHL1   C10 5215   3.927   6.135   3.054
   55CHL1   C19 5216   4.046   6.049   3.050
   55CHL1  H19A 5217   4.074   6.014   2.948
   55CHL1  H19B 5218   4.142   6.083   3.095
   55CHL1  H19C 5219   4.024   5.951   3.099
   55CHL1    C1 5220   3.795   6.057   3.032
   55CHL1   H1A 5221   3.791   5.965   3.095
   55CHL1   H1B 5222   3.722   6.122   3.085
   55CHL1    C2 5223   3.769   6.010   2.894
   55CHL1   H2A 5224   3.667   5.964   2.890
   55CHL1   H2B 5225   3.843   5.933   2.865
   55CHL1   C20 5226   4.124   6.274   3.712
   55CHL1   H20 5227   4.227   6.240   3.688
   55CHL1   C21 5228   4.053   6.140   3.755
   55CHL1  H21A 5229   3.944   6.161   3.758
   55CHL1  H21B 5230   4.081   6.106   3.857
   55CHL1  H21C 5231   4.079   6.059   3.684
   55CHL1   C22 5232   4.136   6.378   3.825
   55CHL1  H22A 5233   4.165   6.478   3.788
   55CHL1  H22B 5234   4.037   6.398   3.870
   55CHL1   C23 5235   4.223   6.341   3.943
   55CHL1  H23A 5236   4.182   6.246   3.984
   55CHL1  H23B 5237   4.329   6.324   3.913
   55CHL1   C24 5238   4.223   6.452   4.053
   55CHL1  H24A 5239   4.278   6.533   4.002
   55CHL1  H24B 5240   4.117   6.480   4.067
   55CHL1   C25 5241   4.305   6.409   4.171
   55CHL1   H25 5242   4.378   6.338   4.128
   55CHL1   C26 5243   4.369   6.525   4.244
   55CHL1  H26A 5244   4.298   6.603   4.282
   55CHL1  H26B 5245   4.429   6.487   4.330
   55CHL1  H26C 5246   4.446   6.567   4.176
   55CHL1   C27 5247   4.221   6.328   4.275
   55CHL1  H27A 5248   4.148   6.263   4.222
   55CHL1  H27B 5249   4.288   6.273   4.345
   55CHL1  H27C 5250   4.147   6.386   4.334
   56CHL1    C3 5251   5.672   2.015   2.832
   56CHL1    H3 5252   5.639   1.909   2.841
   56CHL1    O3 5253   5.663   2.060   2.699
   56CHL1   H3' 5254   5.580   2.027   2.663
   56CHL1    C4 5255   5.571   2.091   2.923
   56CHL1   H4A 5256   5.593   2.197   2.899
   56CHL1   H4B 5257   5.471   2.060   2.884
   56CHL1    C5 5258   5.585   2.066   3.070
   56CHL1    C6 5259   5.485   2.026   3.146
   56CHL1    H6 5260   5.387   2.018   3.097
   56CHL1    C7 5261   5.490   2.005   3.296
   56CHL1   H7A 5262   5.407   2.065   3.338
   56CHL1   H7B 5263   5.488   1.897   3.324
   56CHL1    C8 5264   5.626   2.051   3.349
   56CHL1    H8 5265   5.633   2.161   3.359
   56CHL1   C14 5266   5.643   1.992   3.491
   56CHL1   H14 5267   5.646   1.881   3.483
   56CHL1   C15 5268   5.535   2.013   3.589
   56CHL1  H15A 5269   5.520   2.121   3.607
   56CHL1  H15B 5270   5.438   1.965   3.563
   56CHL1   C16 5271   5.602   1.959   3.717
   56CHL1  H16A 5272   5.573   2.017   3.807
   56CHL1  H16B 5273   5.568   1.854   3.732
   56CHL1   C17 5274   5.750   1.950   3.696
   56CHL1   H17 5275   5.768   1.845   3.667
   56CHL1   C13 5276   5.774   2.030   3.560
   56CHL1   C18 5277   5.785   2.183   3.591
   56CHL1  H18A 5278   5.889   2.212   3.619
   56CHL1  H18B 5279   5.752   2.247   3.506
   56CHL1  H18C 5280   5.720   2.196   3.680
   56CHL1   C12 5281   5.891   1.977   3.477
   56CHL1  H12A 5282   5.983   2.005   3.532
   56CHL1  H12B 5283   5.886   1.866   3.482
   56CHL1   C11 5284   5.881   2.035   3.338
   56CHL1  H11A 5285   5.900   2.143   3.355
   56CHL1  H11B 5286   5.960   1.998   3.269
   56CHL1    C9 5287   5.746   2.011   3.265
   56CHL1    H9 5288   5.747   1.901   3.247
   56CHL1   C10 5289   5.728   2.072   3.120
   56CHL1   C19 5290   5.784   2.220   3.121
   56CHL1  H19A 5291   5.734   2.287   3.194
   56CHL1  H19B 5292   5.892   2.213   3.146
   56CHL1  H19C 5293   5.771   2.257   3.017
   56CHL1    C1 5294   5.820   1.985   3.028
   56CHL1   H1A 5295   5.926   1.995   3.060
   56CHL1   H1B 5296   5.787   1.879   3.029
   56CHL1    C2 5297   5.818   2.022   2.879
   56CHL1   H2A 5298   5.875   1.956   2.811
   56CHL1   H2B 5299   5.848   2.129   2.866
   56CHL1   C20 5300   5.832   1.983   3.821
   56CHL1   H20 5301   5.815   2.086   3.858
   56CHL1   C21 5302   5.983   1.965   3.801
   56CHL1  H21A 5303   6.025   1.975   3.904
   56CHL1  H21B 5304   6.029   2.046   3.739
   56CHL1  H21C 5305   6.007   1.867   3.756
   56CHL1   C22 5306   5.796   1.889   3.942
   56CHL1  H22A 5307   5.827   1.927   4.042
   56CHL1  H22B 5308   5.687   1.899   3.963
   56CHL1   C23 5309   5.820   1.742   3.918
   56CHL1  H23A 5310   5.773   1.708   3.823
   56CHL1  H23B 5311   5.925   1.711   3.901
   56CHL1   C24 5312   5.772   1.668   4.038
   56CHL1  H24A 5313   5.701   1.726   4.100
   56CHL1  H24B 5314   5.730   1.575   3.993
   56CHL1   C25 5315   5.895   1.629   4.134
   56CHL1   H25 5316   5.983   1.588   4.079
   56CHL1   C26 5317   5.940   1.751   4.216
   56CHL1  H26A 5318   5.955   1.846   4.160
   56CHL1  H26B 5319   5.869   1.771   4.299
   56CHL1  H26C 5320   6.038   1.723   4.260
   56CHL1   C27 5321   5.853   1.518   4.226
   56CHL1  H27A 5322   5.769   1.548   4.292
   56CHL1  H27B 5323   5.805   1.440   4.163
   56CHL1  H27C 5324   5.937   1.483   4.289
   57CHL1    C3 5325   4.370   0.194   3.075
   57CHL1    H3 5326   4.451   0.266   3.100
   57CHL1    O3 5327   4.357   0.187   2.931
   57CHL1   H3' 5328   4.285   0.129   2.908
   57CHL1    C4 5329   4.404   0.059   3.125
   57CHL1   H4A 5330   4.324   6.867   3.093
   57CHL1   H4B 5331   4.498   0.019   3.083
   57CHL1    C5 5332   4.399   0.043   3.282
   57CHL1    C6 5333   4.501   6.866   3.352
   57CHL1    H6 5334   4.589   6.826   3.300
   57CHL1    C7 5335   4.513   6.851   3.503
   57CHL1   H7A 5336   4.544   6.748   3.533
   57CHL1   H7B 5337   4.583   0.050   3.541
   57CHL1    C8 5338   4.374   0.003   3.569
   57CHL1    H8 5339   4.308   6.793   3.554
   57CHL1   C14 5340   4.394   0.026   3.720
   57CHL1   H14 5341   4.444   0.125   3.731
   57CHL1   C15 5342   4.483   6.804   3.803
   57CHL1  H15A 5343   4.459   6.707   3.756
   57CHL1  H15B 5344   4.592   6.825   3.805
   57CHL1   C16 5345   4.424   6.809   3.949
   57CHL1  H16A 5346   4.378   6.710   3.970
   57CHL1  H16B 5347   4.494   6.845   4.028
   57CHL1   C17 5348   4.311   0.043   3.942
   57CHL1   H17 5349   4.367   0.137   3.959
   57CHL1   C13 5350   4.260   0.046   3.799
   57CHL1   C18 5351   4.160   6.809   3.778
   57CHL1  H18A 5352   4.136   6.785   3.672
   57CHL1  H18B 5353   4.198   6.713   3.819
   57CHL1  H18C 5354   4.068   6.826   3.838
   57CHL1   C12 5355   4.195   0.175   3.743
   57CHL1  H12A 5356   4.101   0.195   3.799
   57CHL1  H12B 5357   4.262   0.259   3.770
   57CHL1   C11 5358   4.182   0.170   3.591
   57CHL1  H11A 5359   4.104   0.095   3.563
   57CHL1  H11B 5360   4.138   0.266   3.558
   57CHL1    C9 5361   4.305   0.123   3.509
   57CHL1    H9 5362   4.383   0.202   3.516
   57CHL1   C10 5363   4.279   0.104   3.352
   57CHL1   C19 5364   4.168   6.872   3.322
   57CHL1  H19A 5365   4.154   6.841   3.217
   57CHL1  H19B 5366   4.200   6.776   3.367
   57CHL1  H19C 5367   4.071   0.022   3.369
   57CHL1    C1 5368   4.229   0.243   3.287
   57CHL1   H1A 5369   4.121   0.242   3.311
   57CHL1   H1B 5370   4.279   0.327   3.340
   57CHL1    C2 5371   4.236   0.242   3.134
   57CHL1   H2A 5372   4.212   0.345   3.100
   57CHL1   H2B 5373   4.163   0.174   3.086
   57CHL1   C20 5374   4.208   0.019   4.056
   57CHL1   H20 5375   4.154   6.802   4.038
   57CHL1   C21 5376   4.099   0.124   4.050
   57CHL1  H21A 5377   4.055   0.142   4.151
   57CHL1  H21B 5378   4.015   0.102   3.981
   57CHL1  H21C 5379   4.138   0.224   4.020
   57CHL1   C22 5380   4.277   0.019   4.202
   57CHL1  H22A 5381   4.202   6.866   4.278
   57CHL1  H22B 5382   4.363   6.828   4.198
   57CHL1   C23 5383   4.334   0.153   4.240
   57CHL1  H23A 5384   4.379   0.198   4.150
   57CHL1  H23B 5385   4.255   0.223   4.276
   57CHL1   C24 5386   4.446   0.148   4.347
   57CHL1  H24A 5387   4.408   0.091   4.435
   57CHL1  H24B 5388   4.530   0.084   4.313
   57CHL1   C25 5389   4.486   0.296   4.394
   57CHL1   H25 5390   4.508   0.349   4.299
   57CHL1   C26 5391   4.372   0.366   4.474
   57CHL1  H26A 5392   4.350   0.313   4.569
   57CHL1  H26B 5393   4.405   0.468   4.505
   57CHL1  H26C 5394   4.285   0.378   4.406
   57CHL1   C27 5395   4.620   0.298   4.472
   57CHL1  H27A 5396   4.648   0.401   4.503
   57CHL1  H27B 5397   4.617   0.233   4.562
   57CHL1  H27C 5398   4.701   0.245   4.416
   58CHL1    C3 5399   4.468   0.840   2.727
   58CHL1    H3 5400   4.571   0.852   2.766
   58CHL1    O3 5401   4.477   0.826   2.588
   58CHL1   H3' 5402   4.494   0.732   2.582
   58CHL1    C4 5403   4.405   0.710   2.791
   58CHL1   H4A 5404   4.313   0.689   2.733
   58CHL1   H4B 5405   4.475   0.625   2.774
   58CHL1    C5 5406   4.379   0.718   2.940
   58CHL1    C6 5407   4.435   0.632   3.028
   58CHL1    H6 5408   4.490   0.544   2.990
   58CHL1    C7 5409   4.405   0.630   3.170
   58CHL1   H7A 5410   4.400   0.527   3.211
   58CHL1   H7B 5411   4.486   0.688   3.221
   58CHL1    C8 5412   4.270   0.707   3.194
   58CHL1    H8 5413   4.188   0.643   3.155
   58CHL1   C14 5414   4.258   0.733   3.342
   58CHL1   H14 5415   4.342   0.800   3.369
   58CHL1   C15 5416   4.263   0.607   3.433
   58CHL1  H15A 5417   4.200   0.530   3.383
   58CHL1  H15B 5418   4.364   0.566   3.458
   58CHL1   C16 5419   4.204   0.660   3.564
   58CHL1  H16A 5420   4.125   0.591   3.599
   58CHL1  H16B 5421   4.280   0.653   3.645
   58CHL1   C17 5422   4.147   0.800   3.541
   58CHL1   H17 5423   4.222   0.875   3.573
   58CHL1   C13 5424   4.133   0.818   3.385
   58CHL1   C18 5425   4.000   0.756   3.334
   58CHL1  H18A 5426   3.982   0.654   3.373
   58CHL1  H18B 5427   3.920   0.828   3.361
   58CHL1  H18C 5428   3.996   0.744   3.223
   58CHL1   C12 5429   4.158   0.960   3.321
   58CHL1  H12A 5430   4.074   1.027   3.348
   58CHL1  H12B 5431   4.251   0.994   3.370
   58CHL1   C11 5432   4.168   0.957   3.168
   58CHL1  H11A 5433   4.064   0.946   3.130
   58CHL1  H11B 5434   4.205   1.061   3.155
   58CHL1    C9 5435   4.275   0.848   3.126
   58CHL1    H9 5436   4.374   0.892   3.149
   58CHL1   C10 5437   4.282   0.830   2.976
   58CHL1   C19 5438   4.145   0.802   2.926
   58CHL1  H19A 5439   4.087   0.897   2.921
   58CHL1  H19B 5440   4.130   0.773   2.819
   58CHL1  H19C 5441   4.098   0.728   2.994
   58CHL1    C1 5442   4.345   0.963   2.908
   58CHL1   H1A 5443   4.279   1.050   2.927
   58CHL1   H1B 5444   4.443   0.976   2.957
   58CHL1    C2 5445   4.376   0.961   2.758
   58CHL1   H2A 5446   4.420   1.057   2.725
   58CHL1   H2B 5447   4.280   0.950   2.703
   58CHL1   C20 5448   4.025   0.824   3.626
   58CHL1   H20 5449   3.940   0.758   3.601
   58CHL1   C21 5450   3.990   0.978   3.611
   58CHL1  H21A 5451   3.930   0.992   3.519
   58CHL1  H21B 5452   4.083   1.039   3.610
   58CHL1  H21C 5453   3.930   1.020   3.695
   58CHL1   C22 5454   4.054   0.800   3.776
   58CHL1  H22A 5455   4.080   0.692   3.783
   58CHL1  H22B 5456   4.142   0.858   3.811
   58CHL1   C23 5457   3.937   0.825   3.876
   58CHL1  H23A 5458   3.851   0.843   3.809
   58CHL1  H23B 5459   3.929   0.739   3.946
   58CHL1   C24 5460   3.965   0.950   3.969
   58CHL1  H24A 5461   4.060   0.927   4.022
   58CHL1  H24B 5462   3.988   1.039   3.908
   58CHL1   C25 5463   3.850   0.993   4.068
   58CHL1   H25 5464   3.873   1.097   4.102
   58CHL1   C26 5465   3.709   0.994   4.017
   58CHL1  H26A 5466   3.638   1.015   4.099
   58CHL1  H26B 5467   3.703   1.058   3.926
   58CHL1  H26C 5468   3.686   0.892   3.979
   58CHL1   C27 5469   3.851   0.894   4.188
   58CHL1  H27A 5470   3.776   0.925   4.263
   58CHL1  H27B 5471   3.841   0.788   4.156
   58CHL1  H27C 5472   3.949   0.909   4.237
   59CHL1    C3 5473   2.423   5.131   2.679
   59CHL1    H3 5474   2.362   5.212   2.725
   59CHL1    O3 5475   2.435   5.144   2.540
   59CHL1   H3' 5476   2.526   5.126   2.516
   59CHL1    C4 5477   2.566   5.158   2.733
   59CHL1   H4A 5478   2.634   5.082   2.691
   59CHL1   H4B 5479   2.602   5.254   2.692
   59CHL1    C5 5480   2.569   5.143   2.884
   59CHL1    C6 5481   2.611   5.246   2.958
   59CHL1    H6 5482   2.635   5.341   2.908
   59CHL1    C7 5483   2.632   5.236   3.109
   59CHL1   H7A 5484   2.739   5.258   3.129
   59CHL1   H7B 5485   2.579   5.308   3.175
   59CHL1    C8 5486   2.620   5.093   3.163
   59CHL1    H8 5487   2.714   5.038   3.142
   59CHL1   C14 5488   2.600   5.093   3.318
   59CHL1   H14 5489   2.504   5.146   3.337
   59CHL1   C15 5490   2.694   5.177   3.403
   59CHL1  H15A 5491   2.802   5.173   3.379
   59CHL1  H15B 5492   2.664   5.283   3.400
   59CHL1   C16 5493   2.679   5.112   3.539
   59CHL1  H16A 5494   2.776   5.072   3.575
   59CHL1  H16B 5495   2.634   5.181   3.613
   59CHL1   C17 5496   2.584   4.985   3.529
   59CHL1   H17 5497   2.479   5.019   3.545
   59CHL1   C13 5498   2.586   4.952   3.377
   59CHL1   C18 5499   2.710   4.871   3.356
   59CHL1  H18A 5500   2.798   4.924   3.398
   59CHL1  H18B 5501   2.695   4.770   3.400
   59CHL1  H18C 5502   2.722   4.850   3.247
   59CHL1   C12 5503   2.461   4.888   3.317
   59CHL1  H12A 5504   2.456   4.785   3.359
   59CHL1  H12B 5505   2.375   4.949   3.353
   59CHL1   C11 5506   2.466   4.889   3.166
   59CHL1  H11A 5507   2.538   4.809   3.140
   59CHL1  H11B 5508   2.371   4.850   3.122
   59CHL1    C9 5509   2.499   5.026   3.099
   59CHL1    H9 5510   2.416   5.095   3.124
   59CHL1   C10 5511   2.519   5.016   2.940
   59CHL1   C19 5512   2.633   4.908   2.917
   59CHL1  H19A 5513   2.655   4.905   2.808
   59CHL1  H19B 5514   2.730   4.941   2.959
   59CHL1  H19C 5515   2.604   4.810   2.962
   59CHL1    C1 5516   2.386   4.975   2.883
   59CHL1   H1A 5517   2.366   4.869   2.910
   59CHL1   H1B 5518   2.300   5.029   2.929
   59CHL1    C2 5519   2.372   4.994   2.726
   59CHL1   H2A 5520   2.274   4.964   2.684
   59CHL1   H2B 5521   2.443   4.921   2.681
   59CHL1   C20 5522   2.619   4.873   3.630
   59CHL1   H20 5523   2.725   4.839   3.623
   59CHL1   C21 5524   2.513   4.760   3.619
   59CHL1  H21A 5525   2.520   4.693   3.707
   59CHL1  H21B 5526   2.518   4.696   3.528
   59CHL1  H21C 5527   2.414   4.810   3.618
   59CHL1   C22 5528   2.629   4.927   3.773
   59CHL1  H22A 5529   2.645   4.831   3.828
   59CHL1  H22B 5530   2.720   4.990   3.781
   59CHL1   C23 5531   2.501   4.994   3.838
   59CHL1  H23A 5532   2.464   5.092   3.800
   59CHL1  H23B 5533   2.411   4.929   3.828
   59CHL1   C24 5534   2.522   5.005   3.991
   59CHL1  H24A 5535   2.599   4.938   4.035
   59CHL1  H24B 5536   2.555   5.110   4.009
   59CHL1   C25 5537   2.383   5.000   4.065
   59CHL1   H25 5538   2.326   4.919   4.014
   59CHL1   C26 5539   2.402   4.969   4.211
   59CHL1  H26A 5540   2.495   4.912   4.233
   59CHL1  H26B 5541   2.418   5.066   4.262
   59CHL1  H26C 5542   2.321   4.922   4.271
   59CHL1   C27 5543   2.301   5.129   4.041
   59CHL1  H27A 5544   2.209   5.115   4.102
   59CHL1  H27B 5545   2.359   5.218   4.074
   59CHL1  H27C 5546   2.269   5.155   3.937
   60CHL1    C3 5547   5.376   5.774   3.044
   60CHL1    H3 5548   5.476   5.730   3.022
   60CHL1    O3 5549   5.335   5.847   2.932
   60CHL1   H3' 5550   5.389   5.925   2.924
   60CHL1    C4 5551   5.270   5.657   3.069
   60CHL1   H4A 5552   5.172   5.706   3.056
   60CHL1   H4B 5553   5.280   5.594   2.978
   60CHL1    C5 5554   5.280   5.594   3.205
   60CHL1    C6 5555   5.295   5.460   3.212
   60CHL1    H6 5556   5.280   5.395   3.125
   60CHL1    C7 5557   5.312   5.383   3.340
   60CHL1   H7A 5558   5.238   5.301   3.349
   60CHL1   H7B 5559   5.417   5.346   3.332
   60CHL1    C8 5560   5.299   5.461   3.466
   60CHL1    H8 5561   5.194   5.477   3.497
   60CHL1   C14 5562   5.367   5.385   3.585
   60CHL1   H14 5563   5.475   5.385   3.560
   60CHL1   C15 5564   5.327   5.239   3.601
   60CHL1  H15A 5565   5.223   5.220   3.567
   60CHL1  H15B 5566   5.404   5.185   3.541
   60CHL1   C16 5567   5.340   5.215   3.754
   60CHL1  H16A 5568   5.241   5.218   3.805
   60CHL1  H16B 5569   5.398   5.124   3.781
   60CHL1   C17 5570   5.418   5.336   3.806
   60CHL1   H17 5571   5.522   5.319   3.770
   60CHL1   C13 5572   5.349   5.452   3.725
   60CHL1   C18 5573   5.197   5.461   3.761
   60CHL1  H18A 5574   5.184   5.509   3.861
   60CHL1  H18B 5575   5.150   5.524   3.681
   60CHL1  H18C 5576   5.141   5.366   3.746
   60CHL1   C12 5577   5.407   5.593   3.715
   60CHL1  H12A 5578   5.371   5.655   3.800
   60CHL1  H12B 5579   5.518   5.592   3.721
   60CHL1   C11 5580   5.362   5.678   3.595
   60CHL1  H11A 5581   5.256   5.698   3.619
   60CHL1  H11B 5582   5.422   5.772   3.595
   60CHL1    C9 5583   5.357   5.599   3.454
   60CHL1    H9 5584   5.466   5.582   3.438
   60CHL1   C10 5585   5.300   5.680   3.332
   60CHL1   C19 5586   5.165   5.733   3.353
   60CHL1  H19A 5587   5.153   5.808   3.434
   60CHL1  H19B 5588   5.118   5.787   3.268
   60CHL1  H19C 5589   5.100   5.649   3.385
   60CHL1    C1 5590   5.400   5.792   3.301
   60CHL1   H1A 5591   5.397   5.871   3.380
   60CHL1   H1B 5592   5.501   5.748   3.308
   60CHL1    C2 5593   5.378   5.865   3.164
   60CHL1   H2A 5594   5.461   5.938   3.155
   60CHL1   H2B 5595   5.284   5.923   3.173
   60CHL1   C20 5596   5.427   5.359   3.958
   60CHL1   H20 5597   5.332   5.411   3.983
   60CHL1   C21 5598   5.546   5.450   3.994
   60CHL1  H21A 5599   5.553   5.435   4.104
   60CHL1  H21B 5600   5.530   5.559   3.978
   60CHL1  H21C 5601   5.635   5.428   3.932
   60CHL1   C22 5602   5.440   5.227   4.043
   60CHL1  H22A 5603   5.365   5.154   4.006
   60CHL1  H22B 5604   5.543   5.185   4.040
   60CHL1   C23 5605   5.413   5.243   4.192
   60CHL1  H23A 5606   5.502   5.274   4.251
   60CHL1  H23B 5607   5.342   5.329   4.186
   60CHL1   C24 5608   5.359   5.115   4.257
   60CHL1  H24A 5609   5.277   5.077   4.193
   60CHL1  H24B 5610   5.439   5.039   4.245
   60CHL1   C25 5611   5.299   5.127   4.405
   60CHL1   H25 5612   5.381   5.130   4.480
   60CHL1   C26 5613   5.216   5.250   4.415
   60CHL1  H26A 5614   5.179   5.266   4.519
   60CHL1  H26B 5615   5.279   5.335   4.380
   60CHL1  H26C 5616   5.125   5.238   4.353
   60CHL1   C27 5617   5.216   5.008   4.455
   60CHL1  H27A 5618   5.269   4.910   4.454
   60CHL1  H27B 5619   5.181   5.017   4.561
   60CHL1  H27C 5620   5.137   5.002   4.378
   61CHL1    C3 5621   5.376   2.642   3.154
   61CHL1    H3 5622   5.308   2.726   3.176
   61CHL1    O3 5623   5.380   2.620   3.014
   61CHL1   H3' 5624   5.472   2.611   2.989
   61CHL1    C4 5625   5.517   2.677   3.197
   61CHL1   H4A 5626   5.587   2.599   3.162
   61CHL1   H4B 5627   5.550   2.775   3.157
   61CHL1    C5 5628   5.532   2.686   3.348
   61CHL1    C6 5629   5.594   2.795   3.402
   61CHL1    H6 5630   5.636   2.865   3.329
   61CHL1    C7 5631   5.633   2.814   3.546
   61CHL1   H7A 5632   5.738   2.847   3.558
   61CHL1   H7B 5633   5.557   2.882   3.590
   61CHL1    C8 5634   5.604   2.677   3.628
   61CHL1    H8 5635   5.689   2.611   3.601
   61CHL1   C14 5636   5.610   2.703   3.782
   61CHL1   H14 5637   5.550   2.795   3.801
   61CHL1   C15 5638   5.751   2.745   3.838
   61CHL1  H15A 5639   5.838   2.683   3.805
   61CHL1  H15B 5640   5.768   2.850   3.806
   61CHL1   C16 5641   5.729   2.730   3.989
   61CHL1  H16A 5642   5.815   2.672   4.028
   61CHL1  H16B 5643   5.729   2.824   4.048
   61CHL1   C17 5644   5.591   2.645   4.007
   61CHL1   H17 5645   5.509   2.719   4.018
   61CHL1   C13 5646   5.565   2.585   3.870
   61CHL1   C18 5647   5.680   2.468   3.859
   61CHL1  H18A 5648   5.772   2.498   3.915
   61CHL1  H18B 5649   5.642   2.379   3.914
   61CHL1  H18C 5650   5.713   2.446   3.755
   61CHL1   C12 5651   5.427   2.550   3.815
   61CHL1  H12A 5652   5.404   2.463   3.880
   61CHL1  H12B 5653   5.351   2.630   3.829
   61CHL1   C11 5654   5.429   2.501   3.676
   61CHL1  H11A 5655   5.499   2.416   3.664
   61CHL1  H11B 5656   5.329   2.460   3.649
   61CHL1    C9 5657   5.470   2.615   3.586
   61CHL1    H9 5658   5.385   2.685   3.599
   61CHL1   C10 5659   5.479   2.575   3.431
   61CHL1   C19 5660   5.575   2.450   3.413
   61CHL1  H19A 5661   5.576   2.426   3.305
   61CHL1  H19B 5662   5.669   2.466   3.469
   61CHL1  H19C 5663   5.529   2.356   3.452
   61CHL1    C1 5664   5.341   2.537   3.375
   61CHL1   H1A 5665   5.315   2.443   3.428
   61CHL1   H1B 5666   5.269   2.617   3.402
   61CHL1    C2 5667   5.336   2.518   3.223
   61CHL1   H2A 5668   5.233   2.499   3.188
   61CHL1   H2B 5669   5.408   2.439   3.195
   61CHL1   C20 5670   5.597   2.566   4.138
   61CHL1   H20 5671   5.652   2.470   4.124
   61CHL1   C21 5672   5.449   2.515   4.150
   61CHL1  H21A 5673   5.419   2.484   4.253
   61CHL1  H21B 5674   5.440   2.427   4.083
   61CHL1  H21C 5675   5.379   2.594   4.115
   61CHL1   C22 5676   5.629   2.643   4.268
   61CHL1  H22A 5677   5.628   2.580   4.360
   61CHL1  H22B 5678   5.736   2.672   4.265
   61CHL1   C23 5679   5.537   2.769   4.284
   61CHL1  H23A 5680   5.568   2.851   4.217
   61CHL1  H23B 5681   5.430   2.739   4.274
   61CHL1   C24 5682   5.551   2.817   4.436
   61CHL1  H24A 5683   5.467   2.876   4.478
   61CHL1  H24B 5684   5.529   2.724   4.492
   61CHL1   C25 5685   5.690   2.877   4.467
   61CHL1   H25 5686   5.770   2.815   4.422
   61CHL1   C26 5687   5.708   3.016   4.403
   61CHL1  H26A 5688   5.805   3.063   4.428
   61CHL1  H26B 5689   5.716   2.999   4.293
   61CHL1  H26C 5690   5.628   3.088   4.431
   61CHL1   C27 5691   5.708   2.887   4.623
   61CHL1  H27A 5692   5.804   2.939   4.643
   61CHL1  H27B 5693   5.624   2.944   4.669
   61CHL1  H27C 5694   5.721   2.783   4.661
   62CHL1    C3 5695   1.411   0.623   2.874
   62CHL1    H3 5696   1.301   0.634   2.863
   62CHL1    O3 5697   1.471   0.614   2.743
   62CHL1   H3' 5698   1.509   0.526   2.745
   62CHL1    C4 5699   1.460   0.747   2.951
   62CHL1   H4A 5700   1.570   0.755   2.944
   62CHL1   H4B 5701   1.425   0.832   2.889
   62CHL1    C5 5702   1.402   0.754   3.089
   62CHL1    C6 5703   1.310   0.849   3.124
   62CHL1    H6 5704   1.277   0.928   3.054
   62CHL1    C7 5705   1.261   0.861   3.262
   62CHL1   H7A 5706   1.258   0.968   3.289
   62CHL1   H7B 5707   1.155   0.829   3.272
   62CHL1    C8 5708   1.340   0.778   3.369
   62CHL1    H8 5709   1.431   0.841   3.379
   62CHL1   C14 5710   1.272   0.770   3.504
   62CHL1   H14 5711   1.177   0.713   3.496
   62CHL1   C15 5712   1.222   0.902   3.573
   62CHL1  H15A 5713   1.298   0.982   3.557
   62CHL1  H15B 5714   1.126   0.937   3.529
   62CHL1   C16 5715   1.215   0.870   3.723
   62CHL1  H16A 5716   1.295   0.929   3.773
   62CHL1  H16B 5717   1.116   0.894   3.768
   62CHL1   C17 5718   1.251   0.720   3.733
   62CHL1   H17 5719   1.161   0.659   3.712
   62CHL1   C13 5720   1.345   0.689   3.606
   62CHL1   C18 5721   1.486   0.749   3.633
   62CHL1  H18A 5722   1.551   0.746   3.543
   62CHL1  H18B 5723   1.486   0.857   3.659
   62CHL1  H18C 5724   1.540   0.690   3.710
   62CHL1   C12 5725   1.356   0.544   3.559
   62CHL1  H12A 5726   1.419   0.482   3.626
   62CHL1  H12B 5727   1.257   0.493   3.558
   62CHL1   C11 5728   1.418   0.542   3.421
   62CHL1  H11A 5729   1.525   0.560   3.444
   62CHL1  H11B 5730   1.427   0.440   3.378
   62CHL1    C9 5731   1.359   0.635   3.316
   62CHL1    H9 5732   1.257   0.597   3.295
   62CHL1   C10 5733   1.441   0.638   3.178
   62CHL1   C19 5734   1.588   0.640   3.206
   62CHL1  H19A 5735   1.619   0.736   3.252
   62CHL1  H19B 5736   1.622   0.549   3.261
   62CHL1  H19C 5737   1.646   0.630   3.112
   62CHL1    C1 5738   1.415   0.504   3.100
   62CHL1   H1A 5739   1.458   0.422   3.161
   62CHL1   H1B 5740   1.305   0.488   3.111
   62CHL1    C2 5741   1.457   0.495   2.947
   62CHL1   H2A 5742   1.415   0.404   2.901
   62CHL1   H2B 5743   1.565   0.471   2.943
   62CHL1   C20 5744   1.307   0.681   3.869
   62CHL1   H20 5745   1.412   0.717   3.863
   62CHL1   C21 5746   1.292   0.531   3.896
   62CHL1  H21A 5747   1.194   0.503   3.940
   62CHL1  H21B 5748   1.386   0.498   3.945
   62CHL1  H21C 5749   1.300   0.479   3.799
   62CHL1   C22 5750   1.230   0.757   3.982
   62CHL1  H22A 5751   1.254   0.864   3.966
   62CHL1  H22B 5752   1.121   0.737   3.982
   62CHL1   C23 5753   1.292   0.720   4.123
   62CHL1  H23A 5754   1.265   0.614   4.141
   62CHL1  H23B 5755   1.397   0.713   4.089
   62CHL1   C24 5756   1.284   0.805   4.248
   62CHL1  H24A 5757   1.353   0.764   4.325
   62CHL1  H24B 5758   1.325   0.902   4.213
   62CHL1   C25 5759   1.140   0.834   4.310
   62CHL1   H25 5760   1.072   0.853   4.224
   62CHL1   C26 5761   1.065   0.713   4.367
   62CHL1  H26A 5762   1.109   0.665   4.457
   62CHL1  H26B 5763   0.964   0.744   4.401
   62CHL1  H26C 5764   1.048   0.647   4.280
   62CHL1   C27 5765   1.143   0.957   4.402
   62CHL1  H27A 5766   1.227   0.938   4.472
   62CHL1  H27B 5767   1.151   1.046   4.336
   62CHL1  H27C 5768   1.046   0.954   4.456
   63CHL1    C3 5769   4.525   5.159   2.599
   63CHL1    H3 5770   4.617   5.114   2.643
   63CHL1    O3 5771   4.529   5.133   2.457
   63CHL1   H3' 5772   4.449   5.175   2.425
   63CHL1    C4 5773   4.409   5.082   2.656
   63CHL1   H4A 5774   4.321   5.121   2.601
   63CHL1   H4B 5775   4.418   4.975   2.628
   63CHL1    C5 5776   4.383   5.098   2.804
   63CHL1    C6 5777   4.356   4.998   2.891
   63CHL1    H6 5778   4.352   4.897   2.848
   63CHL1    C7 5779   4.323   5.002   3.034
   63CHL1   H7A 5780   4.222   4.961   3.053
   63CHL1   H7B 5781   4.400   4.951   3.096
   63CHL1    C8 5782   4.334   5.148   3.084
   63CHL1    H8 5783   4.240   5.206   3.077
   63CHL1   C14 5784   4.364   5.157   3.232
   63CHL1   H14 5785   4.466   5.115   3.244
   63CHL1   C15 5786   4.281   5.062   3.320
   63CHL1  H15A 5787   4.175   5.087   3.299
   63CHL1  H15B 5788   4.322   4.960   3.306
   63CHL1   C16 5789   4.308   5.105   3.464
   63CHL1  H16A 5790   4.221   5.137   3.525
   63CHL1  H16B 5791   4.354   5.019   3.517
   63CHL1   C17 5792   4.394   5.240   3.445
   63CHL1   H17 5793   4.499   5.203   3.447
   63CHL1   C13 5794   4.382   5.287   3.298
   63CHL1   C18 5795   4.243   5.349   3.294
   63CHL1  H18A 5796   4.159   5.283   3.324
   63CHL1  H18B 5797   4.239   5.438   3.361
   63CHL1  H18C 5798   4.222   5.373   3.187
   63CHL1   C12 5799   4.497   5.364   3.229
   63CHL1  H12A 5800   4.526   5.462   3.272
   63CHL1  H12B 5801   4.594   5.309   3.232
   63CHL1   C11 5802   4.485   5.368   3.078
   63CHL1  H11A 5803   4.405   5.440   3.051
   63CHL1  H11B 5804   4.584   5.396   3.036
   63CHL1    C9 5805   4.441   5.232   3.008
   63CHL1    H9 5806   4.528   5.164   3.012
   63CHL1   C10 5807   4.409   5.243   2.852
   63CHL1   C19 5808   4.279   5.327   2.838
   63CHL1  H19A 5809   4.257   5.356   2.733
   63CHL1  H19B 5810   4.190   5.280   2.885
   63CHL1  H19C 5811   4.291   5.426   2.886
   63CHL1    C1 5812   4.529   5.310   2.782
   63CHL1   H1A 5813   4.534   5.413   2.823
   63CHL1   H1B 5814   4.618   5.256   2.820
   63CHL1    C2 5815   4.531   5.305   2.630
   63CHL1   H2A 5816   4.621   5.355   2.589
   63CHL1   H2B 5817   4.447   5.360   2.581
   63CHL1   C20 5818   4.394   5.337   3.565
   63CHL1   H20 5819   4.289   5.369   3.580
   63CHL1   C21 5820   4.480   5.468   3.543
   63CHL1  H21A 5821   4.587   5.450   3.521
   63CHL1  H21B 5822   4.492   5.529   3.636
   63CHL1  H21C 5823   4.443   5.525   3.456
   63CHL1   C22 5824   4.441   5.275   3.697
   63CHL1  H22A 5825   4.391   5.177   3.709
   63CHL1  H22B 5826   4.552   5.271   3.698
   63CHL1   C23 5827   4.406   5.360   3.823
   63CHL1  H23A 5828   4.412   5.469   3.806
   63CHL1  H23B 5829   4.298   5.347   3.848
   63CHL1   C24 5830   4.487   5.318   3.949
   63CHL1  H24A 5831   4.495   5.207   3.939
   63CHL1  H24B 5832   4.584   5.370   3.946
   63CHL1   C25 5833   4.429   5.363   4.083
   63CHL1   H25 5834   4.328   5.316   4.091
   63CHL1   C26 5835   4.534   5.315   4.186
   63CHL1  H26A 5836   4.543   5.205   4.202
   63CHL1  H26B 5837   4.639   5.339   4.160
   63CHL1  H26C 5838   4.505   5.350   4.287
   63CHL1   C27 5839   4.424   5.510   4.098
   63CHL1  H27A 5840   4.525   5.544   4.131
   63CHL1  H27B 5841   4.387   5.568   4.010
   63CHL1  H27C 5842   4.350   5.522   4.180
   64CHL1    C3 5843   2.768   2.786   2.424
   64CHL1    H3 5844   2.865   2.813   2.471
   64CHL1    O3 5845   2.780   2.813   2.283
   64CHL1   H3' 5846   2.710   2.765   2.239
   64CHL1    C4 5847   2.737   2.639   2.446
   64CHL1   H4A 5848   2.643   2.612   2.394
   64CHL1   H4B 5849   2.817   2.580   2.397
   64CHL1    C5 5850   2.722   2.609   2.591
   64CHL1    C6 5851   2.797   2.515   2.646
   64CHL1    H6 5852   2.860   2.450   2.583
   64CHL1    C7 5853   2.783   2.475   2.793
   64CHL1   H7A 5854   2.787   2.366   2.816
   64CHL1   H7B 5855   2.876   2.513   2.839
   64CHL1    C8 5856   2.668   2.542   2.869
   64CHL1    H8 5857   2.575   2.487   2.844
   64CHL1   C14 5858   2.685   2.533   3.017
   64CHL1   H14 5859   2.767   2.601   3.047
   64CHL1   C15 5860   2.721   2.401   3.085
   64CHL1  H15A 5861   2.668   2.315   3.038
   64CHL1  H15B 5862   2.829   2.383   3.066
   64CHL1   C16 5863   2.685   2.415   3.231
   64CHL1  H16A 5864   2.612   2.338   3.262
   64CHL1  H16B 5865   2.783   2.404   3.283
   64CHL1   C17 5866   2.628   2.561   3.242
   64CHL1   H17 5867   2.712   2.632   3.255
   64CHL1   C13 5868   2.568   2.592   3.104
   64CHL1   C18 5869   2.436   2.510   3.093
   64CHL1  H18A 5870   2.420   2.405   3.125
   64CHL1  H18B 5871   2.359   2.574   3.141
   64CHL1  H18C 5872   2.396   2.519   2.990
   64CHL1   C12 5873   2.562   2.737   3.059
   64CHL1  H12A 5874   2.477   2.796   3.100
   64CHL1  H12B 5875   2.658   2.791   3.074
   64CHL1   C11 5876   2.535   2.759   2.907
   64CHL1  H11A 5877   2.436   2.710   2.894
   64CHL1  H11B 5878   2.522   2.866   2.880
   64CHL1    C9 5879   2.646   2.686   2.824
   64CHL1    H9 5880   2.746   2.729   2.847
   64CHL1   C10 5881   2.631   2.705   2.672
   64CHL1   C19 5882   2.488   2.649   2.637
   64CHL1  H19A 5883   2.482   2.652   2.526
   64CHL1  H19B 5884   2.481   2.543   2.670
   64CHL1  H19C 5885   2.408   2.715   2.677
   64CHL1    C1 5886   2.633   2.854   2.627
   64CHL1   H1A 5887   2.535   2.898   2.656
   64CHL1   H1B 5888   2.714   2.897   2.691
   64CHL1    C2 5889   2.656   2.876   2.475
   64CHL1   H2A 5890   2.685   2.980   2.453
   64CHL1   H2B 5891   2.564   2.850   2.417
   64CHL1   C20 5892   2.551   2.587   3.369
   64CHL1   H20 5893   2.449   2.544   3.359
   64CHL1   C21 5894   2.522   2.735   3.390
   64CHL1  H21A 5895   2.478   2.751   3.491
   64CHL1  H21B 5896   2.445   2.776   3.322
   64CHL1  H21C 5897   2.615   2.797   3.386
   64CHL1   C22 5898   2.620   2.519   3.492
   64CHL1  H22A 5899   2.655   2.414   3.480
   64CHL1  H22B 5900   2.721   2.561   3.511
   64CHL1   C23 5901   2.537   2.501   3.623
   64CHL1  H23A 5902   2.505   2.600   3.662
   64CHL1  H23B 5903   2.451   2.430   3.610
   64CHL1   C24 5904   2.619   2.444   3.744
   64CHL1  H24A 5905   2.639   2.340   3.711
   64CHL1  H24B 5906   2.711   2.498   3.773
   64CHL1   C25 5907   2.560   2.436   3.882
   64CHL1   H25 5908   2.577   2.543   3.908
   64CHL1   C26 5909   2.412   2.399   3.890
   64CHL1  H26A 5910   2.390   2.291   3.879
   64CHL1  H26B 5911   2.377   2.426   3.993
   64CHL1  H26C 5912   2.347   2.444   3.812
   64CHL1   C27 5913   2.643   2.357   3.985
   64CHL1  H27A 5914   2.577   2.340   4.072
   64CHL1  H27B 5915   2.664   2.253   3.951
   64CHL1  H27C 5916   2.741   2.404   4.007
   65CHL1    C3 5917   0.658   0.400   2.448
   65CHL1    H3 5918   0.628   0.504   2.423
   65CHL1    O3 5919   0.661   0.323   2.329
   65CHL1   H3' 5920   0.570   0.305   2.304
   65CHL1    C4 5921   0.789   0.390   2.525
   65CHL1   H4A 5922   0.826   0.286   2.530
   65CHL1   H4B 5923   0.859   0.441   2.455
   65CHL1    C5 5924   0.796   0.433   2.666
   65CHL1    C6 5925   0.898   0.519   2.703
   65CHL1    H6 5926   0.983   0.540   2.637
   65CHL1    C7 5927   0.914   0.577   2.842
   65CHL1   H7A 5928   1.019   0.569   2.878
   65CHL1   H7B 5929   0.894   0.687   2.841
   65CHL1    C8 5930   0.815   0.515   2.943
   65CHL1    H8 5931   0.863   0.416   2.961
   65CHL1   C14 5932   0.813   0.595   3.070
   65CHL1   H14 5933   0.783   0.697   3.037
   65CHL1   C15 5934   0.952   0.614   3.139
   65CHL1  H15A 5935   0.998   0.514   3.151
   65CHL1  H15B 5936   1.023   0.677   3.080
   65CHL1   C16 5937   0.915   0.645   3.288
   65CHL1  H16A 5938   0.952   0.558   3.347
   65CHL1  H16B 5939   0.954   0.741   3.327
   65CHL1   C17 5940   0.757   0.641   3.290
   65CHL1   H17 5941   0.721   0.738   3.250
   65CHL1   C13 5942   0.718   0.543   3.177
   65CHL1   C18 5943   0.751   0.400   3.229
   65CHL1  H18A 5944   0.761   0.330   3.143
   65CHL1  H18B 5945   0.842   0.395   3.293
   65CHL1  H18C 5946   0.668   0.363   3.293
   65CHL1   C12 5947   0.578   0.548   3.111
   65CHL1  H12A 5948   0.497   0.518   3.181
   65CHL1  H12B 5949   0.562   0.656   3.090
   65CHL1   C11 5950   0.565   0.468   2.981
   65CHL1  H11A 5951   0.565   0.364   3.019
   65CHL1  H11B 5952   0.470   0.511   2.941
   65CHL1    C9 5953   0.678   0.502   2.876
   65CHL1    H9 5954   0.668   0.603   2.833
   65CHL1   C10 5955   0.675   0.405   2.757
   65CHL1   C19 5956   0.695   0.255   2.798
   65CHL1  H19A 5957   0.719   0.177   2.723
   65CHL1  H19B 5958   0.776   0.241   2.873
   65CHL1  H19C 5959   0.612   0.220   2.863
   65CHL1    C1 5960   0.551   0.419   2.665
   65CHL1   H1A 5961   0.472   0.375   2.730
   65CHL1   H1B 5962   0.520   0.524   2.647
   65CHL1    C2 5963   0.553   0.343   2.534
   65CHL1   H2A 5964   0.451   0.352   2.489
   65CHL1   H2B 5965   0.570   0.233   2.536
   65CHL1   C20 5966   0.692   0.619   3.426
   65CHL1   H20 5967   0.666   0.512   3.437
   65CHL1   C21 5968   0.566   0.713   3.435
   65CHL1  H21A 5969   0.596   0.819   3.422
   65CHL1  H21B 5970   0.538   0.710   3.543
   65CHL1  H21C 5971   0.484   0.679   3.369
   65CHL1   C22 5972   0.788   0.644   3.549
   65CHL1  H22A 5973   0.882   0.585   3.550
   65CHL1  H22B 5974   0.808   0.752   3.532
   65CHL1   C23 5975   0.731   0.619   3.688
   65CHL1  H23A 5976   0.635   0.674   3.690
   65CHL1  H23B 5977   0.718   0.509   3.696
   65CHL1   C24 5978   0.819   0.669   3.794
   65CHL1  H24A 5979   0.907   0.601   3.793
   65CHL1  H24B 5980   0.858   0.769   3.763
   65CHL1   C25 5981   0.751   0.659   3.932
   65CHL1   H25 5982   0.671   0.737   3.931
   65CHL1   C26 5983   0.683   0.523   3.961
   65CHL1  H26A 5984   0.594   0.514   3.895
   65CHL1  H26B 5985   0.743   0.432   3.940
   65CHL1  H26C 5986   0.659   0.505   4.068
   65CHL1   C27 5987   0.855   0.701   4.043
   65CHL1  H27A 5988   0.923   0.615   4.057
   65CHL1  H27B 5989   0.900   0.797   4.010
   65CHL1  H27C 5990   0.804   0.720   4.140
   66CHL1    C3 5991   4.650   2.371   2.837
   66CHL1    H3 5992   4.744   2.313   2.835
   66CHL1    O3 5993   4.621   2.429   2.710
   66CHL1   H3' 5994   4.526   2.431   2.697
   66CHL1    C4 5995   4.534   2.281   2.862
   66CHL1   H4A 5996   4.439   2.337   2.843
   66CHL1   H4B 5997   4.544   2.197   2.791
   66CHL1    C5 5998   4.525   2.233   3.006
   66CHL1    C6 5999   4.511   2.107   3.049
   66CHL1    H6 6000   4.503   2.038   2.963
   66CHL1    C7 6001   4.488   2.066   3.189
   66CHL1   H7A 6002   4.395   2.008   3.200
   66CHL1   H7B 6003   4.566   1.989   3.208
   66CHL1    C8 6004   4.481   2.169   3.296
   66CHL1    H8 6005   4.376   2.204   3.293
   66CHL1   C14 6006   4.531   2.112   3.429
   66CHL1   H14 6007   4.638   2.088   3.414
   66CHL1   C15 6008   4.471   1.978   3.478
   66CHL1  H15A 6009   4.363   1.980   3.456
   66CHL1  H15B 6010   4.513   1.895   3.416
   66CHL1   C16 6011   4.494   1.975   3.626
   66CHL1  H16A 6012   4.397   1.971   3.681
   66CHL1  H16B 6013   4.559   1.887   3.644
   66CHL1   C17 6014   4.568   2.112   3.659
   66CHL1   H17 6015   4.674   2.087   3.639
   66CHL1   C13 6016   4.524   2.211   3.545
   66CHL1   C18 6017   4.376   2.251   3.573
   66CHL1  H18A 6018   4.311   2.163   3.591
   66CHL1  H18B 6019   4.383   2.310   3.667
   66CHL1  H18C 6020   4.331   2.318   3.497
   66CHL1   C12 6021   4.605   2.333   3.511
   66CHL1  H12A 6022   4.585   2.414   3.585
   66CHL1  H12B 6023   4.715   2.316   3.503
   66CHL1   C11 6024   4.562   2.395   3.368
   66CHL1  H11A 6025   4.454   2.416   3.379
   66CHL1  H11B 6026   4.631   2.479   3.348
   66CHL1    C9 6027   4.565   2.287   3.260
   66CHL1    H9 6028   4.671   2.258   3.272
   66CHL1   C10 6029   4.545   2.337   3.110
   66CHL1   C19 6030   4.414   2.418   3.107
   66CHL1  H19A 6031   4.330   2.352   3.139
   66CHL1  H19B 6032   4.429   2.506   3.174
   66CHL1  H19C 6033   4.392   2.464   3.008
   66CHL1    C1 6034   4.659   2.436   3.081
   66CHL1   H1A 6035   4.653   2.519   3.154
   66CHL1   H1B 6036   4.757   2.387   3.103
   66CHL1    C2 6037   4.661   2.490   2.940
   66CHL1   H2A 6038   4.764   2.521   2.912
   66CHL1   H2B 6039   4.596   2.577   2.916
   66CHL1   C20 6040   4.549   2.156   3.803
   66CHL1   H20 6041   4.446   2.197   3.817
   66CHL1   C21 6042   4.624   2.286   3.841
   66CHL1  H21A 6043   4.612   2.318   3.947
   66CHL1  H21B 6044   4.590   2.367   3.772
   66CHL1  H21C 6045   4.731   2.283   3.811
   66CHL1   C22 6046   4.591   2.051   3.910
   66CHL1  H22A 6047   4.565   2.091   4.010
   66CHL1  H22B 6048   4.527   1.960   3.909
   66CHL1   C23 6049   4.735   2.006   3.910
   66CHL1  H23A 6050   4.770   1.945   3.825
   66CHL1  H23B 6051   4.809   2.089   3.909
   66CHL1   C24 6052   4.776   1.920   4.034
   66CHL1  H24A 6053   4.791   1.987   4.121
   66CHL1  H24B 6054   4.685   1.856   4.045
   66CHL1   C25 6055   4.900   1.828   4.016
   66CHL1   H25 6056   4.913   1.826   3.905
   66CHL1   C26 6057   5.024   1.895   4.079
   66CHL1  H26A 6058   5.021   1.876   4.188
   66CHL1  H26B 6059   5.117   1.840   4.053
   66CHL1  H26C 6060   5.044   2.000   4.046
   66CHL1   C27 6061   4.877   1.686   4.076
   66CHL1  H27A 6062   4.956   1.612   4.051
   66CHL1  H27B 6063   4.782   1.643   4.038
   66CHL1  H27C 6064   4.872   1.686   4.187
   67CHL1    C3 6065   4.371   6.360   2.841
   67CHL1    H3 6066   4.309   6.438   2.892
   67CHL1    O3 6067   4.333   6.349   2.710
   67CHL1   H3' 6068   4.408   6.308   2.668
   67CHL1    C4 6069   4.525   6.405   2.855
   67CHL1   H4A 6070   4.591   6.337   2.798
   67CHL1   H4B 6071   4.528   6.503   2.803
   67CHL1    C5 6072   4.586   6.413   2.994
   67CHL1    C6 6073   4.648   6.517   3.039
   67CHL1    H6 6074   4.673   6.593   2.963
   67CHL1    C7 6075   4.705   6.542   3.176
   67CHL1   H7A 6076   4.804   6.584   3.150
   67CHL1   H7B 6077   4.644   6.626   3.214
   67CHL1    C8 6078   4.697   6.415   3.266
   67CHL1    H8 6079   4.788   6.353   3.253
   67CHL1   C14 6080   4.692   6.465   3.409
   67CHL1   H14 6081   4.600   6.528   3.416
   67CHL1   C15 6082   4.811   6.549   3.471
   67CHL1  H15A 6083   4.906   6.499   3.443
   67CHL1  H15B 6084   4.818   6.656   3.441
   67CHL1   C16 6085   4.783   6.540   3.624
   67CHL1  H16A 6086   4.880   6.507   3.668
   67CHL1  H16B 6087   4.744   6.637   3.660
   67CHL1   C17 6088   4.672   6.434   3.640
   67CHL1   H17 6089   4.578   6.492   3.634
   67CHL1   C13 6090   4.676   6.353   3.512
   67CHL1   C18 6091   4.798   6.256   3.513
   67CHL1  H18A 6092   4.791   6.167   3.579
   67CHL1  H18B 6093   4.820   6.218   3.411
   67CHL1  H18C 6094   4.884   6.317   3.549
   67CHL1   C12 6095   4.550   6.267   3.492
   67CHL1  H12A 6096   4.555   6.175   3.554
   67CHL1  H12B 6097   4.457   6.327   3.503
   67CHL1   C11 6098   4.550   6.215   3.345
   67CHL1  H11A 6099   4.627   6.136   3.331
   67CHL1  H11B 6100   4.455   6.164   3.316
   67CHL1    C9 6101   4.568   6.337   3.239
   67CHL1    H9 6102   4.485   6.410   3.255
   67CHL1   C10 6103   4.547   6.297   3.088
   67CHL1   C19 6104   4.649   6.181   3.066
   67CHL1  H19A 6105   4.750   6.203   3.105
   67CHL1  H19B 6106   4.615   6.091   3.122
   67CHL1  H19C 6107   4.648   6.168   2.955
   67CHL1    C1 6108   4.397   6.247   3.071
   67CHL1   H1A 6109   4.381   6.148   3.118
   67CHL1   H1B 6110   4.326   6.312   3.128
   67CHL1    C2 6111   4.348   6.228   2.918
   67CHL1   H2A 6112   4.240   6.202   2.906
   67CHL1   H2B 6113   4.407   6.144   2.875
   67CHL1   C20 6114   4.658   6.362   3.777
   67CHL1   H20 6115   4.593   6.273   3.761
   67CHL1   C21 6116   4.577   6.452   3.875
   67CHL1  H21A 6117   4.472   6.476   3.849
   67CHL1  H21B 6118   4.632   6.549   3.872
   67CHL1  H21C 6119   4.577   6.401   3.974
   67CHL1   C22 6120   4.789   6.320   3.852
   67CHL1  H22A 6121   4.864   6.283   3.780
   67CHL1  H22B 6122   4.833   6.409   3.903
   67CHL1   C23 6123   4.773   6.197   3.947
   67CHL1  H23A 6124   4.696   6.221   4.024
   67CHL1  H23B 6125   4.744   6.110   3.884
   67CHL1   C24 6126   4.905   6.148   4.008
   67CHL1  H24A 6127   4.874   6.061   4.069
   67CHL1  H24B 6128   4.975   6.101   3.935
   67CHL1   C25 6129   4.980   6.254   4.094
   67CHL1   H25 6130   5.001   6.346   4.036
   67CHL1   C26 6131   4.888   6.291   4.220
   67CHL1  H26A 6132   4.884   6.200   4.283
   67CHL1  H26B 6133   4.944   6.373   4.271
   67CHL1  H26C 6134   4.785   6.326   4.195
   67CHL1   C27 6135   5.117   6.194   4.146
   67CHL1  H27A 6136   5.100   6.109   4.216
   67CHL1  H27B 6137   5.184   6.158   4.065
   67CHL1  H27C 6138   5.179   6.276   4.189
   68CHL1    C3 6139   1.979   5.204   2.832
   68CHL1    H3 6140   2.083   5.232   2.861
   68CHL1    O3 6141   1.974   5.178   2.691
   68CHL1   H3' 6142   1.883   5.150   2.680
   68CHL1    C4 6143   1.949   5.075   2.912
   68CHL1   H4A 6144   1.848   5.039   2.881
   68CHL1   H4B 6145   2.035   5.009   2.887
   68CHL1    C5 6146   1.950   5.095   3.062
   68CHL1    C6 6147   2.034   5.025   3.141
   68CHL1    H6 6148   2.104   4.954   3.095
   68CHL1    C7 6149   2.040   5.053   3.284
   68CHL1   H7A 6150   2.057   4.952   3.327
   68CHL1   H7B 6151   2.122   5.120   3.319
   68CHL1    C8 6152   1.909   5.123   3.343
   68CHL1    H8 6153   1.829   5.046   3.348
   68CHL1   C14 6154   1.947   5.183   3.482
   68CHL1   H14 6155   2.031   5.253   3.463
   68CHL1   C15 6156   2.003   5.089   3.588
   68CHL1  H15A 6157   1.928   5.007   3.591
   68CHL1  H15B 6158   2.106   5.053   3.565
   68CHL1   C16 6159   2.004   5.177   3.712
   68CHL1  H16A 6160   1.993   5.116   3.804
   68CHL1  H16B 6161   2.104   5.217   3.742
   68CHL1   C17 6162   1.914   5.298   3.686
   68CHL1   H17 6163   1.984   5.380   3.663
   68CHL1   C13 6164   1.847   5.267   3.550
   68CHL1   C18 6165   1.720   5.175   3.583
   68CHL1  H18A 6166   1.641   5.243   3.622
   68CHL1  H18B 6167   1.690   5.116   3.494
   68CHL1  H18C 6168   1.753   5.099   3.657
   68CHL1   C12 6169   1.806   5.386   3.466
   68CHL1  H12A 6170   1.711   5.432   3.501
   68CHL1  H12B 6171   1.895   5.452   3.473
   68CHL1   C11 6172   1.774   5.341   3.326
   68CHL1  H11A 6173   1.674   5.293   3.329
   68CHL1  H11B 6174   1.763   5.424   3.254
   68CHL1    C9 6175   1.881   5.248   3.262
   68CHL1    H9 6176   1.976   5.305   3.260
   68CHL1   C10 6177   1.862   5.210   3.108
   68CHL1   C19 6178   1.715   5.174   3.088
   68CHL1  H19A 6179   1.695   5.072   3.129
   68CHL1  H19B 6180   1.638   5.244   3.127
   68CHL1  H19C 6181   1.687   5.177   2.980
   68CHL1    C1 6182   1.890   5.337   3.020
   68CHL1   H1A 6183   1.803   5.405   3.036
   68CHL1   H1B 6184   1.986   5.391   3.039
   68CHL1    C2 6185   1.896   5.325   2.864
   68CHL1   H2A 6186   1.933   5.412   2.807
   68CHL1   H2B 6187   1.792   5.302   2.830
   68CHL1   C20 6188   1.824   5.342   3.812
   68CHL1   H20 6189   1.733   5.279   3.816
   68CHL1   C21 6190   1.790   5.486   3.781
   68CHL1  H21A 6191   1.877   5.555   3.775
   68CHL1  H21B 6192   1.721   5.520   3.861
   68CHL1  H21C 6193   1.736   5.505   3.686
   68CHL1   C22 6194   1.892   5.332   3.948
   68CHL1  H22A 6195   1.896   5.224   3.973
   68CHL1  H22B 6196   1.999   5.360   3.946
   68CHL1   C23 6197   1.816   5.393   4.074
   68CHL1  H23A 6198   1.826   5.502   4.055
   68CHL1  H23B 6199   1.711   5.357   4.071
   68CHL1   C24 6200   1.872   5.353   4.209
   68CHL1  H24A 6201   1.847   5.247   4.231
   68CHL1  H24B 6202   1.983   5.362   4.206
   68CHL1   C25 6203   1.815   5.449   4.312
   68CHL1   H25 6204   1.794   5.540   4.252
   68CHL1   C26 6205   1.682   5.410   4.378
   68CHL1  H26A 6206   1.643   5.492   4.441
   68CHL1  H26B 6207   1.603   5.387   4.303
   68CHL1  H26C 6208   1.693   5.322   4.445
   68CHL1   C27 6209   1.923   5.479   4.410
   68CHL1  H27A 6210   2.004   5.537   4.361
   68CHL1  H27B 6211   1.896   5.531   4.504
   68CHL1  H27C 6212   1.967   5.380   4.436
   69CHL1    C3 6213   0.625   2.813   2.657
   69CHL1    H3 6214   0.520   2.777   2.654
   69CHL1    O3 6215   0.697   2.791   2.532
   69CHL1   H3' 6216   0.790   2.778   2.550
   69CHL1    C4 6217   0.633   2.958   2.716
   69CHL1   H4A 6218   0.743   2.974   2.718
   69CHL1   H4B 6219   0.587   3.038   2.654
   69CHL1    C5 6220   0.571   2.980   2.854
   69CHL1    C6 6221   0.497   3.086   2.895
   69CHL1    H6 6222   0.474   3.167   2.823
   69CHL1    C7 6223   0.442   3.106   3.030
   69CHL1   H7A 6224   0.453   3.214   3.056
   69CHL1   H7B 6225   0.337   3.070   3.032
   69CHL1    C8 6226   0.513   3.019   3.138
   69CHL1    H8 6227   0.606   3.078   3.151
   69CHL1   C14 6228   0.442   3.018   3.270
   69CHL1   H14 6229   0.360   2.948   3.244
   69CHL1   C15 6230   0.406   3.156   3.322
   69CHL1  H15A 6231   0.487   3.230   3.301
   69CHL1  H15B 6232   0.326   3.202   3.260
   69CHL1   C16 6233   0.388   3.138   3.470
   69CHL1  H16A 6234   0.469   3.200   3.514
   69CHL1  H16B 6235   0.290   3.176   3.505
   69CHL1   C17 6236   0.433   2.997   3.499
   69CHL1   H17 6237   0.344   2.932   3.493
   69CHL1   C13 6238   0.521   2.952   3.382
   69CHL1   C18 6239   0.655   3.030   3.395
   69CHL1  H18A 6240   0.641   3.135   3.428
   69CHL1  H18B 6241   0.719   2.972   3.465
   69CHL1  H18C 6242   0.724   3.031   3.308
   69CHL1   C12 6243   0.550   2.808   3.343
   69CHL1  H12A 6244   0.597   2.746   3.423
   69CHL1  H12B 6245   0.451   2.760   3.331
   69CHL1   C11 6246   0.615   2.792   3.201
   69CHL1  H11A 6247   0.725   2.808   3.213
   69CHL1  H11B 6248   0.623   2.682   3.186
   69CHL1    C9 6249   0.546   2.873   3.095
   69CHL1    H9 6250   0.453   2.818   3.069
   69CHL1   C10 6251   0.621   2.871   2.959
   69CHL1   C19 6252   0.765   2.914   2.993
   69CHL1  H19A 6253   0.818   2.931   2.897
   69CHL1  H19B 6254   0.774   3.011   3.046
   69CHL1  H19C 6255   0.819   2.831   3.042
   69CHL1    C1 6256   0.629   2.730   2.903
   69CHL1   H1A 6257   0.692   2.664   2.966
   69CHL1   H1B 6258   0.529   2.683   2.891
   69CHL1    C2 6259   0.687   2.713   2.757
   69CHL1   H2A 6260   0.675   2.607   2.727
   69CHL1   H2B 6261   0.797   2.730   2.763
   69CHL1   C20 6262   0.486   2.997   3.640
   69CHL1   H20 6263   0.586   3.047   3.642
   69CHL1   C21 6264   0.507   2.848   3.668
   69CHL1  H21A 6265   0.593   2.810   3.609
   69CHL1  H21B 6266   0.417   2.784   3.657
   69CHL1  H21C 6267   0.547   2.851   3.772
   69CHL1   C22 6268   0.403   3.062   3.756
   69CHL1  H22A 6269   0.376   3.168   3.735
   69CHL1  H22B 6270   0.308   3.006   3.771
   69CHL1   C23 6271   0.469   3.073   3.895
   69CHL1  H23A 6272   0.430   2.985   3.948
   69CHL1  H23B 6273   0.576   3.056   3.867
   69CHL1   C24 6274   0.467   3.213   3.956
   69CHL1  H24A 6275   0.538   3.219   4.041
   69CHL1  H24B 6276   0.491   3.292   3.882
   69CHL1   C25 6277   0.329   3.245   4.016
   69CHL1   H25 6278   0.252   3.233   3.936
   69CHL1   C26 6279   0.294   3.145   4.128
   69CHL1  H26A 6280   0.381   3.135   4.196
   69CHL1  H26B 6281   0.203   3.178   4.181
   69CHL1  H26C 6282   0.286   3.043   4.085
   69CHL1   C27 6283   0.330   3.387   4.075
   69CHL1  H27A 6284   0.333   3.473   4.004
   69CHL1  H27B 6285   0.242   3.404   4.141
   69CHL1  H27C 6286   0.413   3.395   4.149
   70CHL1    C3 6287   2.440   0.542   2.785
   70CHL1    H3 6288   2.541   0.559   2.742
   70CHL1    O3 6289   2.342   0.529   2.681
   70CHL1   H3' 6290   2.383   0.454   2.639
   70CHL1    C4 6291   2.451   0.411   2.871
   70CHL1   H4A 6292   2.349   0.374   2.898
   70CHL1   H4B 6293   2.493   0.329   2.809
   70CHL1    C5 6294   2.545   0.427   2.990
   70CHL1    C6 6295   2.647   0.339   3.007
   70CHL1    H6 6296   2.665   0.268   2.925
   70CHL1    C7 6297   2.743   0.345   3.119
   70CHL1   H7A 6298   2.761   0.244   3.162
   70CHL1   H7B 6299   2.842   0.379   3.080
   70CHL1    C8 6300   2.682   0.434   3.232
   70CHL1    H8 6301   2.589   0.387   3.269
   70CHL1   C14 6302   2.792   0.461   3.343
   70CHL1   H14 6303   2.872   0.522   3.296
   70CHL1   C15 6304   2.866   0.337   3.396
   70CHL1  H15A 6305   2.793   0.256   3.416
   70CHL1  H15B 6306   2.954   0.298   3.340
   70CHL1   C16 6307   2.925   0.386   3.527
   70CHL1  H16A 6308   2.905   0.310   3.605
   70CHL1  H16B 6309   3.030   0.412   3.503
   70CHL1   C17 6310   2.857   0.526   3.567
   70CHL1   H17 6311   2.934   0.605   3.552
   70CHL1   C13 6312   2.741   0.536   3.465
   70CHL1   C18 6313   2.626   0.459   3.526
   70CHL1  H18A 6314   2.582   0.527   3.602
   70CHL1  H18B 6315   2.552   0.439   3.445
   70CHL1  H18C 6316   2.656   0.372   3.588
   70CHL1   C12 6317   2.695   0.676   3.419
   70CHL1  H12A 6318   2.657   0.735   3.505
   70CHL1  H12B 6319   2.783   0.730   3.377
   70CHL1   C11 6320   2.593   0.666   3.307
   70CHL1  H11A 6321   2.494   0.636   3.348
   70CHL1  H11B 6322   2.569   0.767   3.266
   70CHL1    C9 6323   2.629   0.570   3.184
   70CHL1    H9 6324   2.722   0.612   3.141
   70CHL1   C10 6325   2.510   0.545   3.089
   70CHL1   C19 6326   2.378   0.506   3.150
   70CHL1  H19A 6327   2.289   0.485   3.087
   70CHL1  H19B 6328   2.407   0.424   3.218
   70CHL1  H19C 6329   2.352   0.590   3.218
   70CHL1    C1 6330   2.501   0.667   2.993
   70CHL1   H1A 6331   2.456   0.749   3.052
   70CHL1   H1B 6332   2.601   0.701   2.957
   70CHL1    C2 6333   2.399   0.657   2.874
   70CHL1   H2A 6334   2.402   0.756   2.824
   70CHL1   H2B 6335   2.297   0.643   2.915
   70CHL1   C20 6336   2.831   0.539   3.715
   70CHL1   H20 6337   2.759   0.461   3.748
   70CHL1   C21 6338   2.792   0.681   3.739
   70CHL1  H21A 6339   2.877   0.738   3.695
   70CHL1  H21B 6340   2.797   0.705   3.848
   70CHL1  H21C 6341   2.693   0.712   3.700
   70CHL1   C22 6342   2.967   0.513   3.798
   70CHL1  H22A 6343   3.010   0.416   3.766
   70CHL1  H22B 6344   3.035   0.600   3.785
   70CHL1   C23 6345   2.936   0.488   3.952
   70CHL1  H23A 6346   2.887   0.583   3.982
   70CHL1  H23B 6347   2.863   0.405   3.968
   70CHL1   C24 6348   3.064   0.461   4.023
   70CHL1  H24A 6349   3.118   0.386   3.961
   70CHL1  H24B 6350   3.132   0.550   4.023
   70CHL1   C25 6351   3.053   0.400   4.168
   70CHL1   H25 6352   2.984   0.313   4.159
   70CHL1   C26 6353   3.188   0.350   4.217
   70CHL1  H26A 6354   3.196   0.319   4.323
   70CHL1  H26B 6355   3.227   0.269   4.151
   70CHL1  H26C 6356   3.257   0.437   4.223
   70CHL1   C27 6357   3.005   0.496   4.274
   70CHL1  H27A 6358   3.087   0.570   4.285
   70CHL1  H27B 6359   2.909   0.544   4.243
   70CHL1  H27C 6360   2.988   0.445   4.371
   71CHL1    C3 6361   6.048   6.117   2.891
   71CHL1    H3 6362   5.975   6.037   2.916
   71CHL1    O3 6363   6.079   6.121   2.752
   71CHL1   H3' 6364   6.067   6.213   2.728
   71CHL1    C4 6365   5.984   6.252   2.924
   71CHL1   H4A 6366   6.065   6.324   2.899
   71CHL1   H4B 6367   5.898   6.272   2.857
   71CHL1    C5 6368   5.959   6.267   3.076
   71CHL1    C6 6369   5.834   6.288   3.118
   71CHL1    H6 6370   5.754   6.304   3.044
   71CHL1    C7 6371   5.795   6.293   3.258
   71CHL1   H7A 6372   5.716   6.367   3.283
   71CHL1   H7B 6373   5.733   6.202   3.274
   71CHL1    C8 6374   5.921   6.309   3.353
   71CHL1    H8 6375   5.968   6.409   3.347
   71CHL1   C14 6376   5.893   6.283   3.497
   71CHL1   H14 6377   5.878   6.173   3.505
   71CHL1   C15 6378   5.768   6.346   3.551
   71CHL1  H15A 6379   5.756   6.450   3.513
   71CHL1  H15B 6380   5.676   6.294   3.518
   71CHL1   C16 6381   5.786   6.343   3.709
   71CHL1  H16A 6382   5.774   6.450   3.740
   71CHL1  H16B 6383   5.702   6.281   3.745
   71CHL1   C17 6384   5.929   6.283   3.726
   71CHL1   H17 6385   5.911   6.173   3.727
   71CHL1   C13 6386   6.008   6.314   3.594
   71CHL1   C18 6387   6.047   6.468   3.591
   71CHL1  H18A 6388   6.091   6.494   3.493
   71CHL1  H18B 6389   5.956   6.528   3.615
   71CHL1  H18C 6390   6.125   6.494   3.666
   71CHL1   C12 6391   6.126   6.221   3.558
   71CHL1  H12A 6392   6.222   6.246   3.609
   71CHL1  H12B 6393   6.099   6.117   3.587
   71CHL1   C11 6394   6.158   6.235   3.412
   71CHL1  H11A 6395   6.194   6.340   3.408
   71CHL1  H11B 6396   6.239   6.166   3.377
   71CHL1    C9 6397   6.040   6.219   3.313
   71CHL1    H9 6398   5.998   6.116   3.315
   71CHL1   C10 6399   6.079   6.238   3.164
   71CHL1   C19 6400   6.178   6.359   3.151
   71CHL1  H19A 6401   6.207   6.371   3.045
   71CHL1  H19B 6402   6.139   6.457   3.187
   71CHL1  H19C 6403   6.272   6.337   3.205
   71CHL1    C1 6404   6.164   6.118   3.116
   71CHL1   H1A 6405   6.267   6.135   3.153
   71CHL1   H1B 6406   6.113   6.028   3.155
   71CHL1    C2 6407   6.172   6.096   2.966
   71CHL1   H2A 6408   6.217   5.997   2.945
   71CHL1   H2B 6409   6.248   6.170   2.932
   71CHL1   C20 6410   6.001   6.322   3.860
   71CHL1   H20 6411   6.034   6.427   3.848
   71CHL1   C21 6412   6.128   6.226   3.874
   71CHL1  H21A 6413   6.108   6.117   3.867
   71CHL1  H21B 6414   6.155   6.242   3.980
   71CHL1  H21C 6415   6.208   6.269   3.810
   71CHL1   C22 6416   5.904   6.308   3.976
   71CHL1  H22A 6417   5.830   6.391   3.976
   71CHL1  H22B 6418   5.853   6.210   3.990
   71CHL1   C23 6419   5.974   6.321   4.114
   71CHL1  H23A 6420   6.026   6.225   4.133
   71CHL1  H23B 6421   6.052   6.400   4.118
   71CHL1   C24 6422   5.876   6.349   4.229
   71CHL1  H24A 6423   5.808   6.431   4.199
   71CHL1  H24B 6424   5.836   6.251   4.262
   71CHL1   C25 6425   5.943   6.421   4.355
   71CHL1   H25 6426   5.997   6.514   4.326
   71CHL1   C26 6427   5.828   6.466   4.450
   71CHL1  H26A 6428   5.757   6.537   4.403
   71CHL1  H26B 6429   5.783   6.375   4.493
   71CHL1  H26C 6430   5.879   6.517   4.535
   71CHL1   C27 6431   6.040   6.332   4.435
   71CHL1  H27A 6432   6.073   6.402   4.514
   71CHL1  H27B 6433   5.982   6.251   4.483
   71CHL1  H27C 6434   6.130   6.303   4.377
   72CHL1    C3 6435   0.134   4.843   2.896
   72CHL1    H3 6436   0.072   4.754   2.924
   72CHL1    O3 6437   0.165   4.825   2.757
   72CHL1   H3' 6438   0.145   4.905   2.709
   72CHL1    C4 6439   0.047   4.970   2.917
   72CHL1   H4A 6440   0.086   5.051   2.852
   72CHL1   H4B 6441   6.836   4.938   2.859
   72CHL1    C5 6442   0.033   5.008   3.064
   72CHL1    C6 6443   6.789   5.042   3.110
   72CHL1    H6 6444   6.705   5.039   3.039
   72CHL1    C7 6445   6.760   5.080   3.254
   72CHL1   H7A 6446   6.693   5.169   3.260
   72CHL1   H7B 6447   6.698   4.996   3.291
   72CHL1    C8 6448   0.014   5.092   3.342
   72CHL1    H8 6449   0.046   5.197   3.330
   72CHL1   C14 6450   6.853   5.062   3.487
   72CHL1   H14 6451   6.814   4.958   3.484
   72CHL1   C15 6452   6.739   5.156   3.545
   72CHL1  H15A 6453   6.759   5.261   3.516
   72CHL1  H15B 6454   6.642   5.115   3.508
   72CHL1   C16 6455   6.752   5.131   3.702
   72CHL1  H16A 6456   6.765   5.234   3.740
   72CHL1  H16B 6457   6.665   5.086   3.754
   72CHL1   C17 6458   6.876   5.040   3.719
   72CHL1   H17 6459   6.858   4.933   3.695
   72CHL1   C13 6460   0.084   5.065   3.594
   72CHL1   C18 6461   0.158   5.201   3.604
   72CHL1  H18A 6462   0.237   5.199   3.682
   72CHL1  H18B 6463   0.208   5.225   3.508
   72CHL1  H18C 6464   0.091   5.288   3.622
   72CHL1   C12 6465   0.187   4.956   3.560
   72CHL1  H12A 6466   0.272   4.955   3.630
   72CHL1  H12B 6467   0.137   4.857   3.568
   72CHL1   C11 6468   0.236   4.969   3.414
   72CHL1  H11A 6469   0.315   5.047   3.411
   72CHL1  H11B 6470   0.285   4.873   3.390
   72CHL1    C9 6471   0.118   4.987   3.309
   72CHL1    H9 6472   0.072   4.885   3.310
   72CHL1   C10 6473   0.159   4.994   3.157
   72CHL1   C19 6474   0.242   5.132   3.138
   72CHL1  H19A 6475   0.336   5.132   3.196
   72CHL1  H19B 6476   0.252   5.140   3.027
   72CHL1  H19C 6477   0.175   5.218   3.156
   72CHL1    C1 6478   0.235   4.862   3.122
   72CHL1   H1A 6479   0.330   4.848   3.179
   72CHL1   H1B 6480   0.166   4.781   3.151
   72CHL1    C2 6481   0.264   4.842   2.978
   72CHL1   H2A 6482   0.330   4.756   2.954
   72CHL1   H2B 6483   0.324   4.926   2.937
   72CHL1   C20 6484   0.076   5.048   3.849
   72CHL1   H20 6485   0.184   5.022   3.837
   72CHL1   C21 6486   0.005   4.942   3.932
   72CHL1  H21A 6487   0.006   4.847   3.875
   72CHL1  H21B 6488   6.776   4.962   3.954
   72CHL1  H21C 6489   0.063   4.922   4.024
   72CHL1   C22 6490   0.074   5.180   3.925
   72CHL1  H22A 6491   0.075   5.276   3.869
   72CHL1  H22B 6492   6.869   5.177   3.998
   72CHL1   C23 6493   0.202   5.195   4.010
   72CHL1  H23A 6494   0.219   5.097   4.059
   72CHL1  H23B 6495   0.283   5.220   3.939
   72CHL1   C24 6496   0.179   5.307   4.115
   72CHL1  H24A 6497   0.256   5.385   4.099
   72CHL1  H24B 6498   0.076   5.348   4.106
   72CHL1   C25 6499   0.201   5.262   4.259
   72CHL1   H25 6500   0.142   5.168   4.271
   72CHL1   C26 6501   0.342   5.208   4.278
   72CHL1  H26A 6502   0.423   5.282   4.258
   72CHL1  H26B 6503   0.346   5.175   4.384
   72CHL1  H26C 6504   0.356   5.110   4.229
   72CHL1   C27 6505   0.155   5.360   4.361
   72CHL1  H27A 6506   0.118   5.319   4.458
   72CHL1  H27B 6507   0.236   5.433   4.380
   72CHL1  H27C 6508   0.067   5.411   4.317
   73CHL1    C3 6509   1.179   5.074   2.917
   73CHL1    H3 6510   1.163   4.964   2.923
   73CHL1    O3 6511   1.173   5.103   2.777
   73CHL1   H3' 6512   1.117   5.180   2.766
   73CHL1    C4 6513   1.057   5.145   2.983
   73CHL1   H4A 6514   1.057   5.253   2.955
   73CHL1   H4B 6515   0.966   5.107   2.932
   73CHL1    C5 6516   1.051   5.134   3.132
   73CHL1    C6 6517   0.937   5.093   3.198
   73CHL1    H6 6518   0.842   5.074   3.147
   73CHL1    C7 6519   0.929   5.083   3.349
   73CHL1   H7A 6520   0.847   5.155   3.373
   73CHL1   H7B 6521   0.895   4.982   3.380
   73CHL1    C8 6522   1.046   5.138   3.429
   73CHL1    H8 6523   1.039   5.249   3.426
   73CHL1   C14 6524   1.053   5.077   3.566
   73CHL1   H14 6525   1.061   4.968   3.544
   73CHL1   C15 6526   0.926   5.064   3.656
   73CHL1  H15A 6527   0.866   5.155   3.677
   73CHL1  H15B 6528   0.864   4.988   3.604
   73CHL1   C16 6529   0.985   5.026   3.795
   73CHL1  H16A 6530   0.947   5.088   3.879
   73CHL1  H16B 6531   0.947   4.925   3.823
   73CHL1   C17 6532   1.137   5.021   3.780
   73CHL1   H17 6533   1.176   4.922   3.749
   73CHL1   C13 6534   1.168   5.110   3.658
   73CHL1   C18 6535   1.146   5.260   3.696
   73CHL1  H18A 6536   1.163   5.324   3.607
   73CHL1  H18B 6537   1.049   5.276   3.747
   73CHL1  H18C 6538   1.231   5.295   3.759
   73CHL1   C12 6539   1.304   5.093   3.588
   73CHL1  H12A 6540   1.387   5.131   3.650
   73CHL1  H12B 6541   1.321   4.983   3.579
   73CHL1   C11 6542   1.307   5.148   3.447
   73CHL1  H11A 6543   1.313   5.258   3.463
   73CHL1  H11B 6544   1.398   5.123   3.388
   73CHL1    C9 6545   1.180   5.106   3.364
   73CHL1    H9 6546   1.188   4.996   3.354
   73CHL1   C10 6547   1.191   5.157   3.212
   73CHL1   C19 6548   1.225   5.308   3.211
   73CHL1  H19A 6549   1.228   5.342   3.105
   73CHL1  H19B 6550   1.147   5.369   3.263
   73CHL1  H19C 6551   1.330   5.320   3.243
   73CHL1    C1 6552   1.303   5.083   3.123
   73CHL1   H1A 6553   1.399   5.110   3.172
   73CHL1   H1B 6554   1.288   4.973   3.132
   73CHL1    C2 6555   1.313   5.114   2.974
   73CHL1   H2A 6556   1.383   5.045   2.922
   73CHL1   H2B 6557   1.333   5.222   2.956
   73CHL1   C20 6558   1.209   5.036   3.914
   73CHL1   H20 6559   1.200   5.142   3.947
   73CHL1   C21 6560   1.353   4.980   3.899
   73CHL1  H21A 6561   1.416   5.014   3.984
   73CHL1  H21B 6562   1.404   5.022   3.810
   73CHL1  H21C 6563   1.354   4.870   3.882
   73CHL1   C22 6564   1.138   4.950   4.020
   73CHL1  H22A 6565   1.030   4.974   4.024
   73CHL1  H22B 6566   1.139   4.845   3.984
   73CHL1   C23 6567   1.198   4.953   4.164
   73CHL1  H23A 6568   1.143   4.883   4.230
   73CHL1  H23B 6569   1.299   4.907   4.159
   73CHL1   C24 6570   1.203   5.095   4.221
   73CHL1  H24A 6571   1.264   5.164   4.158
   73CHL1  H24B 6572   1.098   5.131   4.230
   73CHL1   C25 6573   1.247   5.096   4.375
   73CHL1   H25 6574   1.184   5.016   4.419
   73CHL1   C26 6575   1.392   5.074   4.400
   73CHL1  H26A 6576   1.404   5.075   4.511
   73CHL1  H26B 6577   1.417   4.970   4.368
   73CHL1  H26C 6578   1.456   5.147   4.346
   73CHL1   C27 6579   1.201   5.227   4.437
   73CHL1  H27A 6580   1.253   5.319   4.404
   73CHL1  H27B 6581   1.090   5.226   4.430
   73CHL1  H27C 6582   1.226   5.235   4.545
   74CHL1    C3 6583   1.021   4.467   2.615
   74CHL1    H3 6584   0.917   4.505   2.627
   74CHL1    O3 6585   1.060   4.458   2.477
   74CHL1   H3' 6586   0.984   4.476   2.422
   74CHL1    C4 6587   1.130   4.560   2.675
   74CHL1   H4A 6588   1.230   4.519   2.649
   74CHL1   H4B 6589   1.124   4.657   2.621
   74CHL1    C5 6590   1.119   4.580   2.818
   74CHL1    C6 6591   1.113   4.699   2.880
   74CHL1    H6 6592   1.111   4.785   2.811
   74CHL1    C7 6593   1.102   4.720   3.029
   74CHL1   H7A 6594   1.162   4.800   3.077
   74CHL1   H7B 6595   0.996   4.749   3.045
   74CHL1    C8 6596   1.139   4.590   3.110
   74CHL1    H8 6597   1.248   4.575   3.101
   74CHL1   C14 6598   1.098   4.595   3.262
   74CHL1   H14 6599   0.988   4.584   3.262
   74CHL1   C15 6600   1.116   4.722   3.349
   74CHL1  H15A 6601   1.222   4.757   3.345
   74CHL1  H15B 6602   1.050   4.805   3.316
   74CHL1   C16 6603   1.099   4.679   3.499
   74CHL1  H16A 6604   1.185   4.706   3.564
   74CHL1  H16B 6605   1.009   4.732   3.537
   74CHL1   C17 6606   1.073   4.524   3.483
   74CHL1   H17 6607   0.962   4.515   3.479
   74CHL1   C13 6608   1.132   4.477   3.349
   74CHL1   C18 6609   1.280   4.458   3.373
   74CHL1  H18A 6610   1.310   4.370   3.433
   74CHL1  H18B 6611   1.331   4.442   3.276
   74CHL1  H18C 6612   1.328   4.545   3.424
   74CHL1   C12 6613   1.058   4.360   3.282
   74CHL1  H12A 6614   1.069   4.261   3.331
   74CHL1  H12B 6615   0.949   4.382   3.295
   74CHL1   C11 6616   1.095   4.336   3.131
   74CHL1  H11A 6617   1.199   4.299   3.118
   74CHL1  H11B 6618   1.030   4.250   3.103
   74CHL1    C9 6619   1.078   4.466   3.042
   74CHL1    H9 6620   0.968   4.477   3.036
   74CHL1   C10 6621   1.113   4.442   2.891
   74CHL1   C19 6622   1.250   4.376   2.883
   74CHL1  H19A 6623   1.286   4.356   2.780
   74CHL1  H19B 6624   1.328   4.436   2.934
   74CHL1  H19C 6625   1.250   4.274   2.929
   74CHL1    C1 6626   1.004   4.342   2.835
   74CHL1   H1A 6627   1.016   4.247   2.891
   74CHL1   H1B 6628   0.902   4.384   2.853
   74CHL1    C2 6629   1.018   4.327   2.684
   74CHL1   H2A 6630   0.928   4.269   2.657
   74CHL1   H2B 6631   1.109   4.270   2.653
   74CHL1   C20 6632   1.110   4.444   3.606
   74CHL1   H20 6633   1.221   4.443   3.614
   74CHL1   C21 6634   1.063   4.292   3.601
   74CHL1  H21A 6635   1.133   4.234   3.537
   74CHL1  H21B 6636   0.962   4.276   3.556
   74CHL1  H21C 6637   1.044   4.252   3.703
   74CHL1   C22 6638   1.053   4.500   3.740
   74CHL1  H22A 6639   1.093   4.434   3.821
   74CHL1  H22B 6640   1.084   4.605   3.757
   74CHL1   C23 6641   0.899   4.502   3.752
   74CHL1  H23A 6642   0.849   4.562   3.673
   74CHL1  H23B 6643   0.858   4.402   3.726
   74CHL1   C24 6644   0.852   4.534   3.892
   74CHL1  H24A 6645   0.881   4.463   3.973
   74CHL1  H24B 6646   0.884   4.637   3.918
   74CHL1   C25 6647   0.696   4.535   3.901
   74CHL1   H25 6648   0.650   4.599   3.824
   74CHL1   C26 6649   0.630   4.393   3.871
   74CHL1  H26A 6650   0.686   4.309   3.916
   74CHL1  H26B 6651   0.521   4.402   3.894
   74CHL1  H26C 6652   0.642   4.383   3.761
   74CHL1   C27 6653   0.650   4.564   4.042
   74CHL1  H27A 6654   0.638   4.674   4.050
   74CHL1  H27B 6655   0.560   4.502   4.061
   74CHL1  H27C 6656   0.734   4.535   4.110
   75CHL1    C3 6657   0.700   3.390   2.674
   75CHL1    H3 6658   0.622   3.316   2.702
   75CHL1    O3 6659   0.699   3.393   2.529
   75CHL1   H3' 6660   0.736   3.308   2.501
   75CHL1    C4 6661   0.672   3.522   2.748
   75CHL1   H4A 6662   0.744   3.599   2.712
   75CHL1   H4B 6663   0.574   3.563   2.715
   75CHL1    C5 6664   0.677   3.515   2.896
   75CHL1    C6 6665   0.565   3.551   2.967
   75CHL1    H6 6666   0.474   3.588   2.918
   75CHL1    C7 6667   0.561   3.553   3.120
   75CHL1   H7A 6668   0.536   3.650   3.168
   75CHL1   H7B 6669   0.487   3.477   3.154
   75CHL1    C8 6670   0.700   3.533   3.183
   75CHL1    H8 6671   0.763   3.624   3.171
   75CHL1   C14 6672   0.690   3.481   3.324
   75CHL1   H14 6673   0.650   3.378   3.319
   75CHL1   C15 6674   0.600   3.557   3.420
   75CHL1  H15A 6675   0.621   3.665   3.404
   75CHL1  H15B 6676   0.492   3.539   3.403
   75CHL1   C16 6677   0.641   3.506   3.558
   75CHL1  H16A 6678   0.658   3.589   3.630
   75CHL1  H16B 6679   0.554   3.451   3.601
   75CHL1   C17 6680   0.770   3.416   3.533
   75CHL1   H17 6681   0.746   3.309   3.518
   75CHL1   C13 6682   0.823   3.459   3.398
   75CHL1   C18 6683   0.900   3.586   3.415
   75CHL1  H18A 6684   1.000   3.554   3.454
   75CHL1  H18B 6685   0.917   3.636   3.318
   75CHL1  H18C 6686   0.855   3.656   3.489
   75CHL1   C12 6687   0.895   3.350   3.315
   75CHL1  H12A 6688   0.995   3.330   3.360
   75CHL1  H12B 6689   0.835   3.256   3.321
   75CHL1   C11 6690   0.914   3.387   3.169
   75CHL1  H11A 6691   0.962   3.488   3.172
   75CHL1  H11B 6692   0.961   3.301   3.117
   75CHL1    C9 6693   0.778   3.425   3.102
   75CHL1    H9 6694   0.712   3.336   3.112
   75CHL1   C10 6695   0.804   3.453   2.950
   75CHL1   C19 6696   0.918   3.552   2.934
   75CHL1  H19A 6697   0.929   3.582   2.827
   75CHL1  H19B 6698   0.891   3.639   2.998
   75CHL1  H19C 6699   1.010   3.504   2.975
   75CHL1    C1 6700   0.828   3.318   2.874
   75CHL1   H1A 6701   0.927   3.280   2.907
   75CHL1   H1B 6702   0.756   3.239   2.905
   75CHL1    C2 6703   0.834   3.331   2.715
   75CHL1   H2A 6704   0.860   3.232   2.674
   75CHL1   H2B 6705   0.915   3.406   2.705
   75CHL1   C20 6706   0.864   3.420   3.656
   75CHL1   H20 6707   0.920   3.514   3.673
   75CHL1   C21 6708   0.986   3.325   3.620
   75CHL1  H21A 6709   1.044   3.322   3.714
   75CHL1  H21B 6710   1.054   3.375   3.547
   75CHL1  H21C 6711   0.964   3.222   3.585
   75CHL1   C22 6712   0.798   3.378   3.789
   75CHL1  H22A 6713   0.705   3.439   3.792
   75CHL1  H22B 6714   0.776   3.269   3.798
   75CHL1   C23 6715   0.886   3.424   3.905
   75CHL1  H23A 6716   0.984   3.371   3.908
   75CHL1  H23B 6717   0.905   3.533   3.912
   75CHL1   C24 6718   0.821   3.395   4.043
   75CHL1  H24A 6719   0.711   3.409   4.029
   75CHL1  H24B 6720   0.836   3.289   4.071
   75CHL1   C25 6721   0.870   3.484   4.162
   75CHL1   H25 6722   0.884   3.589   4.128
   75CHL1   C26 6723   0.762   3.486   4.280
   75CHL1  H26A 6724   0.739   3.389   4.329
   75CHL1  H26B 6725   0.811   3.554   4.353
   75CHL1  H26C 6726   0.668   3.532   4.244
   75CHL1   C27 6727   1.014   3.446   4.201
   75CHL1  H27A 6728   1.075   3.425   4.110
   75CHL1  H27B 6729   1.071   3.524   4.255
   75CHL1  H27C 6730   1.011   3.354   4.263
   76CHL1    C3 6731   6.442   5.307   2.946
   76CHL1    H3 6732   6.543   5.260   2.954
   76CHL1    O3 6733   6.440   5.369   2.818
   76CHL1   H3' 6734   6.472   5.307   2.752
   76CHL1    C4 6735   6.339   5.192   2.958
   76CHL1   H4A 6736   6.240   5.239   2.942
   76CHL1   H4B 6737   6.360   5.125   2.872
   76CHL1    C5 6738   6.354   5.128   3.096
   76CHL1    C6 6739   6.388   4.999   3.106
   76CHL1    H6 6740   6.397   4.939   3.014
   76CHL1    C7 6741   6.405   4.932   3.234
   76CHL1   H7A 6742   6.369   4.827   3.235
   76CHL1   H7B 6743   6.512   4.934   3.267
   76CHL1    C8 6744   6.320   5.006   3.340
   76CHL1    H8 6745   6.211   5.001   3.320
   76CHL1   C14 6746   6.338   4.940   3.477
   76CHL1   H14 6747   6.449   4.936   3.487
   76CHL1   C15 6748   6.298   4.789   3.486
   76CHL1  H15A 6749   6.216   4.779   3.411
   76CHL1  H15B 6750   6.388   4.734   3.452
   76CHL1   C16 6751   6.266   4.768   3.635
   76CHL1  H16A 6752   6.157   4.749   3.640
   76CHL1  H16B 6753   6.318   4.678   3.674
   76CHL1   C17 6754   6.289   4.906   3.710
   76CHL1   H17 6755   6.397   4.908   3.733
   76CHL1   C13 6756   6.270   5.017   3.593
   76CHL1   C18 6757   6.118   5.038   3.577
   76CHL1  H18A 6758   6.068   4.939   3.566
   76CHL1  H18B 6759   6.060   5.094   3.653
   76CHL1  H18C 6760   6.084   5.096   3.488
   76CHL1   C12 6761   6.340   5.149   3.603
   76CHL1  H12A 6762   6.305   5.212   3.688
   76CHL1  H12B 6763   6.450   5.138   3.613
   76CHL1   C11 6764   6.323   5.232   3.474
   76CHL1  H11A 6765   6.217   5.265   3.467
   76CHL1  H11B 6766   6.370   5.333   3.481
   76CHL1    C9 6767   6.355   5.155   3.345
   76CHL1    H9 6768   6.465   5.144   3.351
   76CHL1   C10 6769   6.329   5.226   3.213
   76CHL1   C19 6770   6.181   5.277   3.213
   76CHL1  H19A 6771   6.162   5.366   3.277
   76CHL1  H19B 6772   6.152   5.307   3.110
   76CHL1  H19C 6773   6.106   5.198   3.235
   76CHL1    C1 6774   6.422   5.344   3.191
   76CHL1   H1A 6775   6.397   5.421   3.267
   76CHL1   H1B 6776   6.527   5.317   3.216
   76CHL1    C2 6777   6.420   5.408   3.056
   76CHL1   H2A 6778   6.507   5.477   3.061
   76CHL1   H2B 6779   6.328   5.464   3.033
   76CHL1   C20 6780   6.204   4.927   3.837
   76CHL1   H20 6781   6.097   4.951   3.815
   76CHL1   C21 6782   6.254   5.051   3.920
   76CHL1  H21A 6783   6.362   5.050   3.946
   76CHL1  H21B 6784   6.185   5.053   4.008
   76CHL1  H21C 6785   6.229   5.147   3.871
   76CHL1   C22 6786   6.205   4.811   3.934
   76CHL1  H22A 6787   6.145   4.841   4.022
   76CHL1  H22B 6788   6.157   4.728   3.877
   76CHL1   C23 6789   6.346   4.773   3.993
   76CHL1  H23A 6790   6.418   4.763   3.908
   76CHL1  H23B 6791   6.391   4.855   4.054
   76CHL1   C24 6792   6.346   4.633   4.054
   76CHL1  H24A 6793   6.271   4.636   4.135
   76CHL1  H24B 6794   6.315   4.560   3.976
   76CHL1   C25 6795   6.468   4.587   4.126
   76CHL1   H25 6796   6.496   4.669   4.195
   76CHL1   C26 6797   6.440   4.459   4.214
   76CHL1  H26A 6798   6.348   4.466   4.275
   76CHL1  H26B 6799   6.422   4.370   4.149
   76CHL1  H26C 6800   6.514   4.447   4.296
   76CHL1   C27 6801   6.589   4.575   4.030
   76CHL1  H27A 6802   6.619   4.670   3.981
   76CHL1  H27B 6803   6.682   4.540   4.081
   76CHL1  H27C 6804   6.571   4.508   3.944
   77SOPE     N 6805   2.505   2.986   6.324
   77SOPE   HN1 6806   2.446   2.901   6.317
   77SOPE   HN2 6807   2.541   2.988   6.422
   77SOPE   HN3 6808   2.438   3.065   6.314
   77SOPE   C12 6809   2.618   2.991   6.227
   77SOPE  H12A 6810   2.567   2.965   6.132
   77SOPE  H12B 6811   2.692   2.909   6.243
   77SOPE   C11 6812   2.681   3.128   6.213
   77SOPE  H11A 6813   2.598   3.198   6.190
   77SOPE  H11B 6814   2.749   3.142   6.127
   77SOPE     P 6815   2.887   3.144   6.366
   77SOPE   O13 6816   2.918   3.003   6.339
   77SOPE   O14 6817   2.898   3.191   6.507
   77SOPE   O12 6818   2.734   3.172   6.332
   77SOPE   O11 6819   2.982   3.239   6.275
   77SOPE    C1 6820   2.949   3.369   6.221
   77SOPE    HA 6821   2.992   3.450   6.283
   77SOPE    HB 6822   2.839   3.372   6.210
   77SOPE    C2 6823   3.006   3.378   6.074
   77SOPE    HS 6824   2.939   3.448   6.020
   77SOPE   O21 6825   3.002   3.248   6.019
   77SOPE   C21 6826   2.982   3.242   5.889
   77SOPE   O22 6827   3.004   3.332   5.806
   77SOPE   C22 6828   2.917   3.108   5.854
   77SOPE   H2R 6829   2.857   3.119   5.761
   77SOPE   H2S 6830   2.851   3.082   5.939
   77SOPE    C3 6831   3.151   3.441   6.076
   77SOPE    HX 6832   3.231   3.366   6.093
   77SOPE    HY 6833   3.137   3.518   6.154
   77SOPE   O31 6834   3.167   3.514   5.956
   77SOPE   C31 6835   3.265   3.469   5.872
   77SOPE   O32 6836   3.336   3.366   5.888
   77SOPE   C32 6837   3.290   3.572   5.763
   77SOPE   H2X 6838   3.307   3.670   5.812
   77SOPE   H2Y 6839   3.197   3.562   5.703
   77SOPE   C23 6840   3.026   3.002   5.825
   77SOPE   H3R 6841   2.970   2.907   5.832
   77SOPE   H3S 6842   3.100   2.995   5.908
   77SOPE   C24 6843   3.082   3.010   5.687
   77SOPE   H4R 6844   2.991   3.033   5.628
   77SOPE   H4S 6845   3.155   3.093   5.668
   77SOPE   C25 6846   3.136   2.877   5.635
   77SOPE   H5R 6847   3.232   2.866   5.688
   77SOPE   H5S 6848   3.073   2.788   5.658
   77SOPE   C26 6849   3.169   2.865   5.478
   77SOPE   H6R 6850   3.236   2.950   5.453
   77SOPE   H6S 6851   3.241   2.780   5.471
   77SOPE   C27 6852   3.042   2.851   5.395
   77SOPE   H7R 6853   2.982   2.766   5.434
   77SOPE   H7S 6854   2.975   2.940   5.399
   77SOPE   C28 6855   3.079   2.820   5.245
   77SOPE   H8R 6856   3.133   2.724   5.232
   77SOPE   H8S 6857   2.978   2.798   5.203
   77SOPE   C29 6858   3.141   2.935   5.171
   77SOPE   H91 6859   3.169   3.016   5.240
   77SOPE  C210 6860   3.155   2.943   5.040
   77SOPE  H101 6861   3.198   3.035   4.997
   77SOPE  C211 6862   3.142   2.831   4.942
   77SOPE  H11R 6863   3.099   2.744   4.995
   77SOPE  H11S 6864   3.237   2.793   4.899
   77SOPE  C212 6865   3.070   2.888   4.817
   77SOPE  H12R 6866   2.977   2.944   4.841
   77SOPE  H12S 6867   3.046   2.810   4.742
   77SOPE  C213 6868   3.171   2.988   4.745
   77SOPE  H13R 6869   3.266   2.945   4.706
   77SOPE  H13S 6870   3.195   3.075   4.809
   77SOPE  C214 6871   3.100   3.044   4.619
   77SOPE  H14R 6872   3.021   3.116   4.650
   77SOPE  H14S 6873   3.041   2.959   4.577
   77SOPE  C215 6874   3.206   3.101   4.522
   77SOPE  H15R 6875   3.284   3.025   4.501
   77SOPE  H15S 6876   3.259   3.186   4.569
   77SOPE  C216 6877   3.146   3.155   4.384
   77SOPE  H16R 6878   3.077   3.239   4.410
   77SOPE  H16S 6879   3.086   3.077   4.332
   77SOPE  C217 6880   3.240   3.201   4.275
   77SOPE  H17R 6881   3.324   3.131   4.262
   77SOPE  H17S 6882   3.300   3.292   4.297
   77SOPE  C218 6883   3.159   3.237   4.157
   77SOPE  H18R 6884   3.086   3.318   4.178
   77SOPE  H18S 6885   3.094   3.152   4.126
   77SOPE  H18T 6886   3.214   3.270   4.066
   77SOPE   C33 6887   3.401   3.542   5.670
   77SOPE   H3X 6888   3.377   3.459   5.600
   77SOPE   H3Y 6889   3.502   3.529   5.714
   77SOPE   C34 6890   3.418   3.673   5.577
   77SOPE   H4X 6891   3.485   3.751   5.617
   77SOPE   H4Y 6892   3.315   3.716   5.571
   77SOPE   C35 6893   3.469   3.632   5.436
   77SOPE   H5X 6894   3.389   3.577   5.382
   77SOPE   H5Y 6895   3.557   3.566   5.449
   77SOPE   C36 6896   3.507   3.742   5.341
   77SOPE   H6X 6897   3.608   3.781   5.364
   77SOPE   H6Y 6898   3.438   3.828   5.356
   77SOPE   C37 6899   3.507   3.702   5.189
   77SOPE   H7X 6900   3.399   3.686   5.172
   77SOPE   H7Y 6901   3.575   3.616   5.169
   77SOPE   C38 6902   3.552   3.819   5.085
   77SOPE   H8X 6903   3.661   3.835   5.096
   77SOPE   H8Y 6904   3.495   3.909   5.116
   77SOPE   C39 6905   3.538   3.776   4.942
   77SOPE   H9X 6906   3.431   3.761   4.916
   77SOPE   H9Y 6907   3.597   3.682   4.936
   77SOPE  C310 6908   3.589   3.883   4.848
   77SOPE  H10X 6909   3.693   3.911   4.878
   77SOPE  H10Y 6910   3.525   3.974   4.854
   77SOPE  C311 6911   3.591   3.837   4.702
   77SOPE  H11X 6912   3.485   3.819   4.673
   77SOPE  H11Y 6913   3.648   3.742   4.698
   77SOPE  C312 6914   3.653   3.937   4.609
   77SOPE  H12X 6915   3.747   3.967   4.661
   77SOPE  H12Y 6916   3.591   4.029   4.610
   77SOPE  C313 6917   3.674   3.903   4.464
   77SOPE  H13X 6918   3.671   3.982   4.387
   77SOPE  H13Y 6919   3.590   3.833   4.445
   77SOPE  C314 6920   3.812   3.845   4.431
   77SOPE  H14X 6921   3.896   3.916   4.448
   77SOPE  H14Y 6922   3.809   3.819   4.323
   77SOPE  C315 6923   3.851   3.723   4.513
   77SOPE  H15X 6924   3.768   3.651   4.493
   77SOPE  H15Y 6925   3.859   3.760   4.618
   77SOPE  C316 6926   3.993   3.671   4.477
   77SOPE  H16X 6927   4.066   3.754   4.486
   77SOPE  H16Y 6928   4.003   3.648   4.369
   77SOPE  C317 6929   4.054   3.564   4.573
   77SOPE  H17X 6930   4.017   3.594   4.674
   77SOPE  H17Y 6931   4.164   3.569   4.564
   77SOPE  C318 6932   4.027   3.422   4.539
   77SOPE  H18X 6933   4.043   3.399   4.432
   77SOPE  H18Y 6934   3.926   3.383   4.563
   77SOPE  H18Z 6935   4.097   3.366   4.604
   78SOPE     N 6936   2.664   3.336   6.582
   78SOPE   HN1 6937   2.595   3.279   6.528
   78SOPE   HN2 6938   2.762   3.302   6.570
   78SOPE   HN3 6939   2.647   3.333   6.684
   78SOPE   C12 6940   2.664   3.483   6.532
   78SOPE  H12A 6941   2.644   3.475   6.423
   78SOPE  H12B 6942   2.762   3.529   6.557
   78SOPE   C11 6943   2.543   3.556   6.586
   78SOPE  H11A 6944   2.561   3.557   6.696
   78SOPE  H11B 6945   2.450   3.498   6.569
   78SOPE     P 6946   2.456   3.725   6.399
   78SOPE   O13 6947   2.523   3.841   6.339
   78SOPE   O14 6948   2.313   3.748   6.441
   78SOPE   O12 6949   2.539   3.686   6.530
   78SOPE   O11 6950   2.472   3.607   6.304
   78SOPE    C1 6951   2.475   3.620   6.162
   78SOPE    HA 6952   2.561   3.677   6.121
   78SOPE    HB 6953   2.387   3.674   6.122
   78SOPE    C2 6954   2.453   3.487   6.099
   78SOPE    HS 6955   2.532   3.426   6.148
   78SOPE   O21 6956   2.483   3.502   5.963
   78SOPE   C21 6957   2.555   3.407   5.904
   78SOPE   O22 6958   2.598   3.312   5.969
   78SOPE   C22 6959   2.569   3.431   5.756
   78SOPE   H2R 6960   2.622   3.527   5.745
   78SOPE   H2S 6961   2.465   3.446   5.718
   78SOPE    C3 6962   2.311   3.432   6.124
   78SOPE    HX 6963   2.236   3.514   6.113
   78SOPE    HY 6964   2.293   3.410   6.231
   78SOPE   O31 6965   2.278   3.329   6.032
   78SOPE   C31 6966   2.289   3.206   6.085
   78SOPE   O32 6967   2.312   3.180   6.205
   78SOPE   C32 6968   2.288   3.108   5.973
   78SOPE   H2X 6969   2.367   3.033   5.995
   78SOPE   H2Y 6970   2.311   3.156   5.876
   78SOPE   C23 6971   2.636   3.311   5.680
   78SOPE   H3R 6972   2.620   3.217   5.735
   78SOPE   H3S 6973   2.746   3.324   5.676
   78SOPE   C24 6974   2.580   3.288   5.541
   78SOPE   H4R 6975   2.482   3.236   5.543
   78SOPE   H4S 6976   2.572   3.393   5.506
   78SOPE   C25 6977   2.676   3.207   5.453
   78SOPE   H5R 6978   2.783   3.231   5.471
   78SOPE   H5S 6979   2.663   3.098   5.470
   78SOPE   C26 6980   2.639   3.223   5.293
   78SOPE   H6R 6981   2.533   3.189   5.289
   78SOPE   H6S 6982   2.643   3.334   5.283
   78SOPE   C27 6983   2.738   3.149   5.195
   78SOPE   H7R 6984   2.726   3.184   5.090
   78SOPE   H7S 6985   2.841   3.176   5.225
   78SOPE   C28 6986   2.709   3.000   5.194
   78SOPE   H8R 6987   2.743   2.945   5.285
   78SOPE   H8S 6988   2.600   2.989   5.209
   78SOPE   C29 6989   2.770   2.930   5.077
   78SOPE   H91 6990   2.880   2.937   5.075
   78SOPE  C210 6991   2.707   2.870   4.977
   78SOPE  H101 6992   2.750   2.816   4.892
   78SOPE  C211 6993   2.562   2.868   4.966
   78SOPE  H11R 6994   2.507   2.961   4.991
   78SOPE  H11S 6995   2.524   2.800   5.045
   78SOPE  C212 6996   2.512   2.811   4.822
   78SOPE  H12R 6997   2.545   2.883   4.744
   78SOPE  H12S 6998   2.401   2.811   4.829
   78SOPE  C213 6999   2.573   2.675   4.783
   78SOPE  H13R 7000   2.554   2.598   4.862
   78SOPE  H13S 7001   2.682   2.671   4.763
   78SOPE  C214 7002   2.508   2.619   4.658
   78SOPE  H14R 7003   2.398   2.633   4.659
   78SOPE  H14S 7004   2.525   2.509   4.652
   78SOPE  C215 7005   2.566   2.676   4.526
   78SOPE  H15R 7006   2.676   2.664   4.537
   78SOPE  H15S 7007   2.538   2.783   4.527
   78SOPE  C216 7008   2.497   2.625   4.391
   78SOPE  H16R 7009   2.387   2.636   4.395
   78SOPE  H16S 7010   2.512   2.515   4.383
   78SOPE  C217 7011   2.558   2.680   4.264
   78SOPE  H17R 7012   2.532   2.614   4.179
   78SOPE  H17S 7013   2.668   2.670   4.272
   78SOPE  C218 7014   2.506   2.828   4.231
   78SOPE  H18R 7015   2.525   2.902   4.312
   78SOPE  H18S 7016   2.396   2.817   4.217
   78SOPE  H18T 7017   2.564   2.862   4.143
   78SOPE   C33 7018   2.158   3.038   5.943
   78SOPE   H3X 7019   2.100   3.023   6.036
   78SOPE   H3Y 7020   2.190   2.938   5.906
   78SOPE   C34 7021   2.062   3.113   5.856
   78SOPE   H4X 7022   2.041   3.218   5.886
   78SOPE   H4Y 7023   1.961   3.066   5.861
   78SOPE   C35 7024   2.096   3.097   5.707
   78SOPE   H5X 7025   2.119   2.990   5.687
   78SOPE   H5Y 7026   2.179   3.167   5.681
   78SOPE   C36 7027   1.977   3.127   5.607
   78SOPE   H6X 7028   1.963   3.237   5.621
   78SOPE   H6Y 7029   1.881   3.078   5.635
   78SOPE   C37 7030   2.008   3.088   5.459
   78SOPE   H7X 7031   1.917   3.096   5.396
   78SOPE   H7Y 7032   2.043   2.985   5.435
   78SOPE   C38 7033   2.118   3.176   5.405
   78SOPE   H8X 7034   2.214   3.146   5.452
   78SOPE   H8Y 7035   2.095   3.280   5.436
   78SOPE   C39 7036   2.121   3.173   5.250
   78SOPE   H9X 7037   2.032   3.226   5.211
   78SOPE   H9Y 7038   2.131   3.067   5.218
   78SOPE  C310 7039   2.245   3.244   5.183
   78SOPE  H10X 7040   2.336   3.208   5.236
   78SOPE  H10Y 7041   2.245   3.352   5.208
   78SOPE  C311 7042   2.255   3.230   5.034
   78SOPE  H11X 7043   2.186   3.302   4.986
   78SOPE  H11Y 7044   2.232   3.126   5.000
   78SOPE  C312 7045   2.396   3.266   4.967
   78SOPE  H12X 7046   2.468   3.213   5.033
   78SOPE  H12Y 7047   2.421   3.373   4.982
   78SOPE  C313 7048   2.395   3.220   4.825
   78SOPE  H13X 7049   2.326   3.283   4.764
   78SOPE  H13Y 7050   2.367   3.113   4.819
   78SOPE  C314 7051   2.544   3.237   4.783
   78SOPE  H14X 7052   2.609   3.171   4.844
   78SOPE  H14Y 7053   2.578   3.342   4.802
   78SOPE  C315 7054   2.564   3.212   4.632
   78SOPE  H15X 7055   2.501   3.290   4.585
   78SOPE  H15Y 7056   2.515   3.114   4.611
   78SOPE  C316 7057   2.710   3.205   4.595
   78SOPE  H16X 7058   2.759   3.145   4.675
   78SOPE  H16Y 7059   2.751   3.308   4.592
   78SOPE  C317 7060   2.740   3.147   4.463
   78SOPE  H17X 7061   2.700   3.044   4.453
   78SOPE  H17Y 7062   2.849   3.132   4.448
   78SOPE  C318 7063   2.678   3.231   4.348
   78SOPE  H18X 7064   2.688   3.179   4.251
   78SOPE  H18Y 7065   2.735   3.327   4.355
   78SOPE  H18Z 7066   2.571   3.244   4.378
   79SOPE     N 7067   5.119   0.508   6.118
   79SOPE   HN1 7068   5.071   0.421   6.087
   79SOPE   HN2 7069   5.143   0.567   6.035
   79SOPE   HN3 7070   5.210   0.464   6.144
   79SOPE   C12 7071   5.064   0.582   6.241
   79SOPE  H12A 7072   5.145   0.638   6.293
   79SOPE  H12B 7073   5.026   0.507   6.313
   79SOPE   C11 7074   4.956   0.684   6.202
   79SOPE  H11A 7075   4.885   0.638   6.131
   79SOPE  H11B 7076   5.018   0.752   6.138
   79SOPE     P 7077   4.765   0.698   6.385
   79SOPE   O13 7078   4.778   0.732   6.531
   79SOPE   O14 7079   4.741   0.563   6.331
   79SOPE   O12 7080   4.895   0.762   6.310
   79SOPE   O11 7081   4.642   0.791   6.332
   79SOPE    C1 7082   4.660   0.917   6.263
   79SOPE    HA 7083   4.768   0.938   6.244
   79SOPE    HB 7084   4.630   1.002   6.328
   79SOPE    C2 7085   4.598   0.920   6.128
   79SOPE    HS 7086   4.493   0.886   6.122
   79SOPE   O21 7087   4.691   0.851   6.041
   79SOPE   C21 7088   4.632   0.769   5.949
   79SOPE   O22 7089   4.513   0.764   5.928
   79SOPE   C22 7090   4.730   0.674   5.887
   79SOPE   H2R 7091   4.687   0.647   5.788
   79SOPE   H2S 7092   4.727   0.571   5.930
   79SOPE    C3 7093   4.586   1.062   6.086
   79SOPE    HX 7094   4.692   1.095   6.087
   79SOPE    HY 7095   4.534   1.125   6.160
   79SOPE   O31 7096   4.535   1.094   5.951
   79SOPE   C31 7097   4.404   1.080   5.939
   79SOPE   O32 7098   4.324   1.065   6.037
   79SOPE   C32 7099   4.380   1.077   5.787
   79SOPE   H2X 7100   4.481   1.074   5.741
   79SOPE   H2Y 7101   4.335   1.176   5.762
   79SOPE   C23 7102   4.870   0.739   5.872
   79SOPE   H3R 7103   4.937   0.651   5.886
   79SOPE   H3S 7104   4.896   0.823   5.939
   79SOPE   C24 7105   4.892   0.779   5.727
   79SOPE   H4R 7106   4.846   0.702   5.660
   79SOPE   H4S 7107   4.834   0.869   5.697
   79SOPE   C25 7108   5.041   0.798   5.705
   79SOPE   H5R 7109   5.081   0.875   5.774
   79SOPE   H5S 7110   5.084   0.697   5.723
   79SOPE   C26 7111   5.087   0.830   5.560
   79SOPE   H6R 7112   5.195   0.807   5.558
   79SOPE   H6S 7113   5.033   0.762   5.490
   79SOPE   C27 7114   5.060   0.973   5.510
   79SOPE   H7R 7115   4.953   1.004   5.513
   79SOPE   H7S 7116   5.122   1.033   5.580
   79SOPE   C28 7117   5.097   0.991   5.364
   79SOPE   H8R 7118   5.202   0.959   5.347
   79SOPE   H8S 7119   5.034   0.919   5.306
   79SOPE   C29 7120   5.091   1.131   5.311
   79SOPE   H91 7121   5.172   1.194   5.352
   79SOPE  C210 7122   5.015   1.176   5.208
   79SOPE  H101 7123   5.014   1.281   5.176
   79SOPE  C211 7124   4.907   1.108   5.123
   79SOPE  H11R 7125   4.809   1.155   5.144
   79SOPE  H11S 7126   4.895   0.998   5.137
   79SOPE  C212 7127   4.944   1.115   4.978
   79SOPE  H12R 7128   5.019   1.041   4.943
   79SOPE  H12S 7129   4.976   1.215   4.941
   79SOPE  C213 7130   4.822   1.092   4.888
   79SOPE  H13R 7131   4.734   1.157   4.911
   79SOPE  H13S 7132   4.800   0.983   4.889
   79SOPE  C214 7133   4.857   1.114   4.738
   79SOPE  H14R 7134   4.784   1.053   4.682
   79SOPE  H14S 7135   4.962   1.081   4.723
   79SOPE  C215 7136   4.856   1.261   4.705
   79SOPE  H15R 7137   4.909   1.268   4.608
   79SOPE  H15S 7138   4.908   1.328   4.777
   79SOPE  C216 7139   4.716   1.309   4.665
   79SOPE  H16R 7140   4.727   1.417   4.640
   79SOPE  H16S 7141   4.641   1.311   4.748
   79SOPE  C217 7142   4.635   1.227   4.570
   79SOPE  H17R 7143   4.615   1.128   4.615
   79SOPE  H17S 7144   4.691   1.203   4.477
   79SOPE  C218 7145   4.500   1.290   4.531
   79SOPE  H18R 7146   4.511   1.384   4.473
   79SOPE  H18S 7147   4.428   1.314   4.612
   79SOPE  H18T 7148   4.459   1.215   4.460
   79SOPE   C33 7149   4.294   0.964   5.734
   79SOPE   H3X 7150   4.200   0.965   5.794
   79SOPE   H3Y 7151   4.345   0.869   5.761
   79SOPE   C34 7152   4.277   0.974   5.581
   79SOPE   H4X 7153   4.251   1.080   5.561
   79SOPE   H4Y 7154   4.190   0.913   5.548
   79SOPE   C35 7155   4.400   0.924   5.497
   79SOPE   H5X 7156   4.426   0.822   5.533
   79SOPE   H5Y 7157   4.489   0.989   5.505
   79SOPE   C36 7158   4.358   0.912   5.350
   79SOPE   H6X 7159   4.307   1.010   5.334
   79SOPE   H6Y 7160   4.293   0.825   5.327
   79SOPE   C37 7161   4.482   0.891   5.255
   79SOPE   H7X 7162   4.555   0.975   5.261
   79SOPE   H7Y 7163   4.448   0.891   5.149
   79SOPE   C38 7164   4.542   0.761   5.285
   79SOPE   H8X 7165   4.473   0.674   5.281
   79SOPE   H8Y 7166   4.584   0.745   5.386
   79SOPE   C39 7167   4.670   0.739   5.193
   79SOPE   H9X 7168   4.728   0.832   5.183
   79SOPE   H9Y 7169   4.636   0.704   5.093
   79SOPE  C310 7170   4.758   0.623   5.233
   79SOPE  H10X 7171   4.690   0.540   5.205
   79SOPE  H10Y 7172   4.781   0.624   5.342
   79SOPE  C311 7173   4.895   0.633   5.160
   79SOPE  H11X 7174   4.952   0.718   5.204
   79SOPE  H11Y 7175   4.876   0.665   5.055
   79SOPE  C312 7176   4.974   0.494   5.147
   79SOPE  H12X 7177   5.053   0.516   5.073
   79SOPE  H12Y 7178   4.911   0.413   5.103
   79SOPE  C313 7179   5.051   0.467   5.273
   79SOPE  H13X 7180   5.083   0.361   5.276
   79SOPE  H13Y 7181   4.979   0.482   5.357
   79SOPE  C314 7182   5.177   0.554   5.283
   79SOPE  H14X 7183   5.124   0.652   5.287
   79SOPE  H14Y 7184   5.239   0.546   5.192
   79SOPE  C315 7185   5.257   0.529   5.403
   79SOPE  H15X 7186   5.194   0.544   5.494
   79SOPE  H15Y 7187   5.338   0.604   5.412
   79SOPE  C316 7188   5.329   0.392   5.415
   79SOPE  H16X 7189   5.415   0.390   5.345
   79SOPE  H16Y 7190   5.254   0.316   5.384
   79SOPE  C317 7191   5.378   0.361   5.555
   79SOPE  H17X 7192   5.299   0.363   5.632
   79SOPE  H17Y 7193   5.445   0.443   5.588
   79SOPE  C318 7194   5.457   0.230   5.584
   79SOPE  H18X 7195   5.382   0.148   5.574
   79SOPE  H18Y 7196   5.508   0.229   5.683
   79SOPE  H18Z 7197   5.537   0.220   5.508
   80SOPE     N 7198   1.836   4.080   6.269
   80SOPE   HN1 7199   1.872   4.022   6.190
   80SOPE   HN2 7200   1.733   4.085   6.256
   80SOPE   HN3 7201   1.875   4.176   6.261
   80SOPE   C12 7202   1.892   4.020   6.401
   80SOPE  H12A 7203   1.848   4.081   6.483
   80SOPE  H12B 7204   2.003   4.034   6.395
   80SOPE   C11 7205   1.851   3.873   6.411
   80SOPE  H11A 7206   1.908   3.836   6.499
   80SOPE  H11B 7207   1.886   3.818   6.321
   80SOPE     P 7208   1.669   3.692   6.424
   80SOPE   O13 7209   1.524   3.688   6.402
   80SOPE   O14 7210   1.730   3.611   6.533
   80SOPE   O12 7211   1.713   3.846   6.433
   80SOPE   O11 7212   1.734   3.637   6.293
   80SOPE    C1 7213   1.722   3.700   6.165
   80SOPE    HA 7214   1.758   3.804   6.171
   80SOPE    HB 7215   1.617   3.709   6.128
   80SOPE    C2 7216   1.796   3.605   6.068
   80SOPE    HS 7217   1.805   3.664   5.975
   80SOPE   O21 7218   1.721   3.488   6.034
   80SOPE   C21 7219   1.712   3.442   5.907
   80SOPE   O22 7220   1.775   3.486   5.814
   80SOPE   C22 7221   1.613   3.332   5.896
   80SOPE   H2R 7222   1.508   3.362   5.911
   80SOPE   H2S 7223   1.638   3.271   5.986
   80SOPE    C3 7224   1.946   3.578   6.102
   80SOPE    HX 7225   1.934   3.493   6.173
   80SOPE    HY 7226   1.998   3.666   6.146
   80SOPE   O31 7227   2.026   3.532   5.993
   80SOPE   C31 7228   2.067   3.633   5.910
   80SOPE   O32 7229   2.033   3.749   5.920
   80SOPE   C32 7230   2.162   3.576   5.799
   80SOPE   H2X 7231   2.188   3.472   5.829
   80SOPE   H2Y 7232   2.247   3.647   5.789
   80SOPE   C23 7233   1.620   3.239   5.773
   80SOPE   H3R 7234   1.593   3.133   5.794
   80SOPE   H3S 7235   1.722   3.222   5.734
   80SOPE   C24 7236   1.517   3.285   5.669
   80SOPE   H4R 7237   1.412   3.272   5.705
   80SOPE   H4S 7238   1.536   3.393   5.656
   80SOPE   C25 7239   1.514   3.198   5.536
   80SOPE   H5R 7240   1.512   3.091   5.564
   80SOPE   H5S 7241   1.419   3.222   5.484
   80SOPE   C26 7242   1.619   3.239   5.434
   80SOPE   H6R 7243   1.616   3.346   5.403
   80SOPE   H6S 7244   1.712   3.210   5.487
   80SOPE   C27 7245   1.608   3.149   5.306
   80SOPE   H7R 7246   1.691   3.183   5.240
   80SOPE   H7S 7247   1.634   3.044   5.333
   80SOPE   C28 7248   1.471   3.138   5.229
   80SOPE   H8R 7249   1.501   3.080   5.138
   80SOPE   H8S 7250   1.386   3.091   5.283
   80SOPE   C29 7251   1.431   3.284   5.206
   80SOPE   H91 7252   1.441   3.345   5.297
   80SOPE  C210 7253   1.405   3.345   5.086
   80SOPE  H101 7254   1.386   3.453   5.092
   80SOPE  C211 7255   1.385   3.279   4.950
   80SOPE  H11R 7256   1.349   3.174   4.956
   80SOPE  H11S 7257   1.482   3.246   4.908
   80SOPE  C212 7258   1.304   3.353   4.846
   80SOPE  H12R 7259   1.222   3.413   4.891
   80SOPE  H12S 7260   1.276   3.281   4.766
   80SOPE  C213 7261   1.394   3.461   4.777
   80SOPE  H13R 7262   1.487   3.413   4.740
   80SOPE  H13S 7263   1.431   3.541   4.845
   80SOPE  C214 7264   1.321   3.526   4.656
   80SOPE  H14R 7265   1.299   3.445   4.582
   80SOPE  H14S 7266   1.387   3.605   4.616
   80SOPE  C215 7267   1.178   3.584   4.687
   80SOPE  H15R 7268   1.190   3.644   4.780
   80SOPE  H15S 7269   1.092   3.514   4.700
   80SOPE  C216 7270   1.141   3.682   4.571
   80SOPE  H16R 7271   1.137   3.627   4.474
   80SOPE  H16S 7272   1.223   3.754   4.549
   80SOPE  C217 7273   1.010   3.746   4.594
   80SOPE  H17R 7274   1.013   3.804   4.688
   80SOPE  H17S 7275   0.939   3.662   4.608
   80SOPE  C218 7276   0.968   3.833   4.485
   80SOPE  H18R 7277   0.875   3.890   4.507
   80SOPE  H18S 7278   0.959   3.782   4.387
   80SOPE  H18T 7279   1.048   3.907   4.465
   80SOPE   C33 7280   2.084   3.588   5.668
   80SOPE   H3X 7281   2.057   3.695   5.657
   80SOPE   H3Y 7282   1.992   3.526   5.672
   80SOPE   C34 7283   2.166   3.540   5.548
   80SOPE   H4X 7284   2.098   3.540   5.461
   80SOPE   H4Y 7285   2.204   3.438   5.572
   80SOPE   C35 7286   2.279   3.632   5.511
   80SOPE   H5X 7287   2.356   3.625   5.591
   80SOPE   H5Y 7288   2.238   3.735   5.511
   80SOPE   C36 7289   2.350   3.607   5.383
   80SOPE   H6X 7290   2.279   3.591   5.299
   80SOPE   H6Y 7291   2.422   3.524   5.399
   80SOPE   C37 7292   2.447   3.717   5.343
   80SOPE   H7X 7293   2.529   3.730   5.416
   80SOPE   H7Y 7294   2.396   3.815   5.342
   80SOPE   C38 7295   2.498   3.695   5.201
   80SOPE   H8X 7296   2.539   3.591   5.198
   80SOPE   H8Y 7297   2.587   3.756   5.175
   80SOPE   C39 7298   2.402   3.695   5.083
   80SOPE   H9X 7299   2.344   3.790   5.078
   80SOPE   H9Y 7300   2.326   3.616   5.094
   80SOPE  C310 7301   2.472   3.684   4.948
   80SOPE  H10X 7302   2.540   3.597   4.940
   80SOPE  H10Y 7303   2.531   3.776   4.930
   80SOPE  C311 7304   2.386   3.654   4.827
   80SOPE  H11X 7305   2.309   3.732   4.812
   80SOPE  H11Y 7306   2.343   3.553   4.849
   80SOPE  C312 7307   2.462   3.669   4.695
   80SOPE  H12X 7308   2.550   3.604   4.714
   80SOPE  H12Y 7309   2.496   3.772   4.669
   80SOPE  C313 7310   2.408   3.591   4.577
   80SOPE  H13X 7311   2.314   3.642   4.545
   80SOPE  H13Y 7312   2.370   3.490   4.605
   80SOPE  C314 7313   2.491   3.593   4.443
   80SOPE  H14X 7314   2.581   3.529   4.459
   80SOPE  H14Y 7315   2.529   3.695   4.423
   80SOPE  C315 7316   2.412   3.539   4.331
   80SOPE  H15X 7317   2.313   3.589   4.331
   80SOPE  H15Y 7318   2.393   3.432   4.356
   80SOPE  C316 7319   2.478   3.540   4.192
   80SOPE  H16X 7320   2.559   3.465   4.200
   80SOPE  H16Y 7321   2.522   3.642   4.190
   80SOPE  C317 7322   2.391   3.502   4.078
   80SOPE  H17X 7323   2.284   3.528   4.088
   80SOPE  H17Y 7324   2.393   3.394   4.055
   80SOPE  C318 7325   2.455   3.560   3.953
   80SOPE  H18X 7326   2.552   3.511   3.929
   80SOPE  H18Y 7327   2.480   3.667   3.970
   80SOPE  H18Z 7328   2.381   3.554   3.870
   81SOPE     N 7329   5.399   1.144   6.783
   81SOPE   HN1 7330   5.472   1.215   6.805
   81SOPE   HN2 7331   5.318   1.182   6.729
   81SOPE   HN3 7332   5.358   1.090   6.862
   81SOPE   C12 7333   5.464   1.038   6.698
   81SOPE  H12A 7334   5.565   1.010   6.733
   81SOPE  H12B 7335   5.468   1.091   6.600
   81SOPE   C11 7336   5.367   0.913   6.678
   81SOPE  H11A 7337   5.275   0.950   6.628
   81SOPE  H11B 7338   5.333   0.864   6.772
   81SOPE     P 7339   5.336   0.753   6.483
   81SOPE   O13 7340   5.206   0.711   6.539
   81SOPE   O14 7341   5.413   0.646   6.410
   81SOPE   O12 7342   5.431   0.817   6.591
   81SOPE   O11 7343   5.304   0.860   6.371
   81SOPE    C1 7344   5.404   0.943   6.317
   81SOPE    HA 7345   5.506   0.921   6.356
   81SOPE    HB 7346   5.376   1.050   6.333
   81SOPE    C2 7347   5.408   0.934   6.161
   81SOPE    HS 7348   5.473   1.008   6.110
   81SOPE   O21 7349   5.278   0.943   6.100
   81SOPE   C21 7350   5.219   1.059   6.115
   81SOPE   O22 7351   5.280   1.163   6.141
   81SOPE   C22 7352   5.076   1.056   6.060
   81SOPE   H2R 7353   5.013   1.064   6.151
   81SOPE   H2S 7354   5.053   0.961   6.007
   81SOPE    C3 7355   5.471   0.794   6.120
   81SOPE    HX 7356   5.414   0.715   6.173
   81SOPE    HY 7357   5.572   0.789   6.167
   81SOPE   O31 7358   5.483   0.775   5.978
   81SOPE   C31 7359   5.379   0.715   5.911
   81SOPE   O32 7360   5.279   0.670   5.958
   81SOPE   C32 7361   5.408   0.728   5.759
   81SOPE   H2X 7362   5.321   0.698   5.698
   81SOPE   H2Y 7363   5.501   0.674   5.729
   81SOPE   C23 7364   5.033   1.173   5.972
   81SOPE   H3R 7365   5.030   1.252   6.050
   81SOPE   H3S 7366   4.931   1.149   5.936
   81SOPE   C24 7367   5.132   1.193   5.847
   81SOPE   H4R 7368   5.237   1.182   5.883
   81SOPE   H4S 7369   5.110   1.124   5.763
   81SOPE   C25 7370   5.120   1.328   5.797
   81SOPE   H5R 7371   5.014   1.352   5.772
   81SOPE   H5S 7372   5.154   1.411   5.861
   81SOPE   C26 7373   5.192   1.342   5.655
   81SOPE   H6R 7374   5.304   1.345   5.658
   81SOPE   H6S 7375   5.158   1.253   5.599
   81SOPE   C27 7376   5.138   1.459   5.579
   81SOPE   H7R 7377   5.036   1.428   5.548
   81SOPE   H7S 7378   5.122   1.546   5.646
   81SOPE   C28 7379   5.222   1.499   5.451
   81SOPE   H8R 7380   5.330   1.514   5.472
   81SOPE   H8S 7381   5.203   1.419   5.375
   81SOPE   C29 7382   5.165   1.638   5.414
   81SOPE   H91 7383   5.212   1.727   5.458
   81SOPE  C210 7384   5.066   1.657   5.323
   81SOPE  H101 7385   5.052   1.756   5.277
   81SOPE  C211 7386   4.989   1.553   5.254
   81SOPE  H11R 7387   4.880   1.561   5.274
   81SOPE  H11S 7388   5.026   1.453   5.284
   81SOPE  C212 7389   5.016   1.557   5.103
   81SOPE  H12R 7390   4.959   1.643   5.061
   81SOPE  H12S 7391   4.979   1.468   5.049
   81SOPE  C213 7392   5.165   1.586   5.067
   81SOPE  H13R 7393   5.229   1.525   5.134
   81SOPE  H13S 7394   5.198   1.691   5.082
   81SOPE  C214 7395   5.199   1.550   4.925
   81SOPE  H14R 7396   5.166   1.445   4.911
   81SOPE  H14S 7397   5.308   1.542   4.907
   81SOPE  C215 7398   5.134   1.643   4.825
   81SOPE  H15R 7399   5.192   1.736   4.808
   81SOPE  H15S 7400   5.026   1.664   4.845
   81SOPE  C216 7401   5.123   1.577   4.688
   81SOPE  H16R 7402   5.060   1.485   4.692
   81SOPE  H16S 7403   5.228   1.554   4.657
   81SOPE  C217 7404   5.076   1.676   4.581
   81SOPE  H17R 7405   5.143   1.764   4.586
   81SOPE  H17S 7406   4.976   1.708   4.616
   81SOPE  C218 7407   5.065   1.603   4.448
   81SOPE  H18R 7408   5.160   1.582   4.395
   81SOPE  H18S 7409   5.021   1.673   4.373
   81SOPE  H18T 7410   5.007   1.508   4.445
   81SOPE   C33 7411   5.431   0.879   5.731
   81SOPE   H3X 7412   5.512   0.929   5.789
   81SOPE   H3Y 7413   5.337   0.927   5.764
   81SOPE   C34 7414   5.465   0.897   5.583
   81SOPE   H4X 7415   5.395   0.845   5.515
   81SOPE   H4Y 7416   5.566   0.852   5.570
   81SOPE   C35 7417   5.482   1.048   5.544
   81SOPE   H5X 7418   5.572   1.080   5.602
   81SOPE   H5Y 7419   5.411   1.118   5.592
   81SOPE   C36 7420   5.501   1.072   5.397
   81SOPE   H6X 7421   5.398   1.089   5.359
   81SOPE   H6Y 7422   5.553   0.987   5.348
   81SOPE   C37 7423   5.571   1.200   5.371
   81SOPE   H7X 7424   5.679   1.178   5.355
   81SOPE   H7Y 7425   5.581   1.262   5.462
   81SOPE   C38 7426   5.510   1.276   5.253
   81SOPE   H8X 7427   5.571   1.368   5.237
   81SOPE   H8Y 7428   5.409   1.314   5.282
   81SOPE   C39 7429   5.493   1.210   5.114
   81SOPE   H9X 7430   5.403   1.145   5.121
   81SOPE   H9Y 7431   5.582   1.145   5.101
   81SOPE  C310 7432   5.473   1.314   4.999
   81SOPE  H10X 7433   5.565   1.364   4.962
   81SOPE  H10Y 7434   5.413   1.393   5.049
   81SOPE  C311 7435   5.396   1.246   4.890
   81SOPE  H11X 7436   5.291   1.224   4.919
   81SOPE  H11Y 7437   5.436   1.144   4.873
   81SOPE  C312 7438   5.407   1.316   4.752
   81SOPE  H12X 7439   5.516   1.323   4.732
   81SOPE  H12Y 7440   5.384   1.424   4.743
   81SOPE  C313 7441   5.351   1.225   4.643
   81SOPE  H13X 7442   5.243   1.206   4.661
   81SOPE  H13Y 7443   5.398   1.125   4.660
   81SOPE  C314 7444   5.385   1.266   4.502
   81SOPE  H14X 7445   5.490   1.302   4.490
   81SOPE  H14Y 7446   5.324   1.358   4.488
   81SOPE  C315 7447   5.359   1.159   4.389
   81SOPE  H15X 7448   5.253   1.132   4.406
   81SOPE  H15Y 7449   5.412   1.065   4.417
   81SOPE  C316 7450   5.379   1.210   4.246
   81SOPE  H16X 7451   5.489   1.224   4.245
   81SOPE  H16Y 7452   5.324   1.306   4.244
   81SOPE  C317 7453   5.332   1.120   4.130
   81SOPE  H17X 7454   5.384   1.023   4.143
   81SOPE  H17Y 7455   5.359   1.168   4.033
   81SOPE  C318 7456   5.181   1.091   4.125
   81SOPE  H18X 7457   5.169   1.010   4.051
   81SOPE  H18Y 7458   5.129   1.181   4.085
   81SOPE  H18Z 7459   5.138   1.053   4.220
   82SOPE     N 7460   1.530   0.533   6.306
   82SOPE   HN1 7461   1.468   0.541   6.389
   82SOPE   HN2 7462   1.624   0.547   6.348
   82SOPE   HN3 7463   1.511   0.617   6.248
   82SOPE   C12 7464   1.528   0.404   6.232
   82SOPE  H12A 7465   1.439   0.406   6.166
   82SOPE  H12B 7466   1.520   0.322   6.306
   82SOPE   C11 7467   1.662   0.386   6.154
   82SOPE  H11A 7468   1.675   0.469   6.080
   82SOPE  H11B 7469   1.644   0.305   6.080
   82SOPE     P 7470   1.881   0.461   6.275
   82SOPE   O13 7471   1.989   0.383   6.338
   82SOPE   O14 7472   1.810   0.551   6.360
   82SOPE   O12 7473   1.773   0.360   6.237
   82SOPE   O11 7474   1.923   0.533   6.145
   82SOPE    C1 7475   2.047   0.506   6.081
   82SOPE    HA 7476   2.110   0.426   6.125
   82SOPE    HB 7477   2.098   0.604   6.082
   82SOPE    C2 7478   2.027   0.450   5.938
   82SOPE    HS 7479   2.129   0.447   5.894
   82SOPE   O21 7480   1.940   0.538   5.860
   82SOPE   C21 7481   2.001   0.644   5.817
   82SOPE   O22 7482   2.119   0.675   5.837
   82SOPE   C22 7483   1.901   0.738   5.748
   82SOPE   H2R 7484   1.953   0.836   5.749
   82SOPE   H2S 7485   1.803   0.735   5.801
   82SOPE    C3 7486   1.966   0.308   5.941
   82SOPE    HX 7487   1.880   0.318   6.012
   82SOPE    HY 7488   2.035   0.234   5.988
   82SOPE   O31 7489   1.928   0.254   5.808
   82SOPE   C31 7490   1.800   0.269   5.773
   82SOPE   O32 7491   1.705   0.313   5.834
   82SOPE   C32 7492   1.783   0.217   5.628
   82SOPE   H2X 7493   1.771   0.106   5.628
   82SOPE   H2Y 7494   1.873   0.247   5.569
   82SOPE   C23 7495   1.887   0.689   5.602
   82SOPE   H3R 7496   1.813   0.756   5.553
   82SOPE   H3S 7497   1.862   0.581   5.590
   82SOPE   C24 7498   2.019   0.695   5.514
   82SOPE   H4R 7499   2.061   0.798   5.505
   82SOPE   H4S 7500   2.100   0.635   5.561
   82SOPE   C25 7501   2.009   0.625   5.369
   82SOPE   H5R 7502   2.099   0.664   5.316
   82SOPE   H5S 7503   2.019   0.516   5.385
   82SOPE   C26 7504   1.884   0.658   5.282
   82SOPE   H6R 7505   1.801   0.609   5.338
   82SOPE   H6S 7506   1.864   0.767   5.277
   82SOPE   C27 7507   1.900   0.591   5.146
   82SOPE   H7R 7508   1.801   0.605   5.097
   82SOPE   H7S 7509   1.977   0.647   5.090
   82SOPE   C28 7510   1.912   0.435   5.152
   82SOPE   H8R 7511   1.856   0.399   5.240
   82SOPE   H8S 7512   1.865   0.406   5.055
   82SOPE   C29 7513   2.053   0.386   5.162
   82SOPE   H91 7514   2.086   0.369   5.266
   82SOPE  C210 7515   2.130   0.355   5.061
   82SOPE  H101 7516   2.230   0.312   5.077
   82SOPE  C211 7517   2.096   0.379   4.916
   82SOPE  H11R 7518   2.091   0.488   4.894
   82SOPE  H11S 7519   1.998   0.331   4.899
   82SOPE  C212 7520   2.192   0.339   4.808
   82SOPE  H12R 7521   2.237   0.243   4.842
   82SOPE  H12S 7522   2.279   0.409   4.807
   82SOPE  C213 7523   2.128   0.301   4.673
   82SOPE  H13R 7524   2.086   0.389   4.621
   82SOPE  H13S 7525   2.043   0.237   4.704
   82SOPE  C214 7526   2.228   0.236   4.581
   82SOPE  H14R 7527   2.294   0.175   4.647
   82SOPE  H14S 7528   2.294   0.318   4.547
   82SOPE  C215 7529   2.169   0.147   4.470
   82SOPE  H15R 7530   2.139   0.044   4.501
   82SOPE  H15S 7531   2.253   0.142   4.397
   82SOPE  C216 7532   2.046   0.213   4.400
   82SOPE  H16R 7533   1.960   0.247   4.461
   82SOPE  H16S 7534   1.995   0.139   4.333
   82SOPE  C217 7535   2.085   0.325   4.299
   82SOPE  H17R 7536   2.154   0.393   4.354
   82SOPE  H17S 7537   1.991   0.379   4.278
   82SOPE  C218 7538   2.143   0.260   4.173
   82SOPE  H18R 7539   2.063   0.197   4.127
   82SOPE  H18S 7540   2.220   0.191   4.213
   82SOPE  H18T 7541   2.177   0.327   4.092
   82SOPE   C33 7542   1.652   0.269   5.558
   82SOPE   H3X 7543   1.631   0.374   5.589
   82SOPE   H3Y 7544   1.567   0.207   5.593
   82SOPE   C34 7545   1.668   0.246   5.409
   82SOPE   H4X 7546   1.723   0.152   5.390
   82SOPE   H4Y 7547   1.728   0.335   5.378
   82SOPE   C35 7548   1.536   0.246   5.329
   82SOPE   H5X 7549   1.480   0.330   5.376
   82SOPE   H5Y 7550   1.489   0.147   5.348
   82SOPE   C36 7551   1.563   0.268   5.179
   82SOPE   H6X 7552   1.635   0.352   5.168
   82SOPE   H6Y 7553   1.462   0.291   5.139
   82SOPE   C37 7554   1.624   0.148   5.098
   82SOPE   H7X 7555   1.592   0.055   5.148
   82SOPE   H7Y 7556   1.734   0.167   5.099
   82SOPE   C38 7557   1.561   0.149   4.959
   82SOPE   H8X 7558   1.560   0.256   4.932
   82SOPE   H8Y 7559   1.458   0.108   4.967
   82SOPE   C39 7560   1.656   0.063   4.863
   82SOPE   H9X 7561   1.625   6.835   4.872
   82SOPE   H9Y 7562   1.760   0.077   4.899
   82SOPE  C310 7563   1.659   0.105   4.717
   82SOPE  H10X 7564   1.742   0.178   4.709
   82SOPE  H10Y 7565   1.561   0.147   4.686
   82SOPE  C311 7566   1.681   6.857   4.623
   82SOPE  H11X 7567   1.672   0.002   4.515
   82SOPE  H11Y 7568   1.616   6.770   4.645
   82SOPE  C312 7569   1.825   6.805   4.641
   82SOPE  H12X 7570   1.839   6.769   4.745
   82SOPE  H12Y 7571   1.894   0.014   4.637
   82SOPE  C313 7572   1.880   6.705   4.535
   82SOPE  H13X 7573   1.887   6.753   4.436
   82SOPE  H13Y 7574   1.806   6.624   4.518
   82SOPE  C314 7575   2.017   6.636   4.572
   82SOPE  H14X 7576   1.995   6.564   4.653
   82SOPE  H14Y 7577   2.088   6.710   4.615
   82SOPE  C315 7578   2.078   6.553   4.456
   82SOPE  H15X 7579   2.162   6.493   4.498
   82SOPE  H15Y 7580   2.110   6.622   4.376
   82SOPE  C316 7581   1.973   6.459   4.397
   82SOPE  H16X 7582   1.887   6.517   4.356
   82SOPE  H16Y 7583   1.931   6.393   4.476
   82SOPE  C317 7584   2.043   6.371   4.290
   82SOPE  H17X 7585   2.117   6.308   4.342
   82SOPE  H17Y 7586   2.103   6.428   4.216
   82SOPE  C318 7587   1.941   6.283   4.213
   82SOPE  H18X 7588   1.873   6.354   4.162
   82SOPE  H18Y 7589   1.892   6.213   4.283
   82SOPE  H18Z 7590   1.994   6.237   4.127
   83SOPE     N 7591   1.761   2.471   1.722
   83SOPE   HN1 7592   1.741   2.376   1.759
   83SOPE   HN2 7593   1.858   2.490   1.691
   83SOPE   HN3 7594   1.754   2.539   1.800
   83SOPE   C12 7595   1.666   2.508   1.604
   83SOPE  H12A 7596   1.683   2.431   1.525
   83SOPE  H12B 7597   1.697   2.608   1.566
   83SOPE   C11 7598   1.518   2.507   1.644
   83SOPE  H11A 7599   1.474   2.409   1.672
   83SOPE  H11B 7600   1.466   2.533   1.549
   83SOPE     P 7601   1.354   2.607   1.816
   83SOPE   O13 7602   1.293   2.477   1.812
   83SOPE   O14 7603   1.281   2.721   1.756
   83SOPE   O12 7604   1.495   2.600   1.748
   83SOPE   O11 7605   1.390   2.645   1.970
   83SOPE    C1 7606   1.520   2.607   2.021
   83SOPE    HA 7607   1.606   2.667   1.984
   83SOPE    HB 7608   1.551   2.502   1.999
   83SOPE    C2 7609   1.523   2.619   2.186
   83SOPE    HS 7610   1.627   2.608   2.223
   83SOPE   O21 7611   1.433   2.527   2.243
   83SOPE   C21 7612   1.482   2.413   2.290
   83SOPE   O22 7613   1.597   2.369   2.284
   83SOPE   C22 7614   1.365   2.341   2.369
   83SOPE   H2R 7615   1.358   2.251   2.305
   83SOPE   H2S 7616   1.274   2.405   2.359
   83SOPE    C3 7617   1.485   2.762   2.227
   83SOPE    HX 7618   1.384   2.784   2.186
   83SOPE    HY 7619   1.558   2.837   2.190
   83SOPE   O31 7620   1.481   2.774   2.367
   83SOPE   C31 7621   1.363   2.775   2.431
   83SOPE   O32 7622   1.254   2.743   2.381
   83SOPE   C32 7623   1.391   2.803   2.578
   83SOPE   H2X 7624   1.480   2.866   2.599
   83SOPE   H2Y 7625   1.401   2.704   2.628
   83SOPE   C23 7626   1.402   2.302   2.519
   83SOPE   H3R 7627   1.505   2.261   2.518
   83SOPE   H3S 7628   1.332   2.224   2.554
   83SOPE   C24 7629   1.395   2.419   2.623
   83SOPE   H4R 7630   1.476   2.487   2.590
   83SOPE   H4S 7631   1.302   2.479   2.622
   83SOPE   C25 7632   1.426   2.373   2.768
   83SOPE   H5R 7633   1.339   2.322   2.813
   83SOPE   H5S 7634   1.509   2.301   2.749
   83SOPE   C26 7635   1.480   2.488   2.850
   83SOPE   H6R 7636   1.578   2.528   2.816
   83SOPE   H6S 7637   1.401   2.566   2.839
   83SOPE   C27 7638   1.530   2.462   3.000
   83SOPE   H7R 7639   1.603   2.378   2.994
   83SOPE   H7S 7640   1.581   2.550   3.044
   83SOPE   C28 7641   1.413   2.427   3.098
   83SOPE   H8R 7642   1.362   2.523   3.122
   83SOPE   H8S 7643   1.328   2.376   3.047
   83SOPE   C29 7644   1.463   2.369   3.228
   83SOPE   H91 7645   1.543   2.294   3.220
   83SOPE  C210 7646   1.428   2.407   3.353
   83SOPE  H101 7647   1.482   2.366   3.439
   83SOPE  C211 7648   1.308   2.499   3.389
   83SOPE  H11R 7649   1.247   2.510   3.296
   83SOPE  H11S 7650   1.353   2.599   3.406
   83SOPE  C212 7651   1.219   2.456   3.507
   83SOPE  H12R 7652   1.173   2.356   3.493
   83SOPE  H12S 7653   1.134   2.527   3.517
   83SOPE  C213 7654   1.288   2.448   3.647
   83SOPE  H13R 7655   1.301   2.552   3.683
   83SOPE  H13S 7656   1.387   2.398   3.643
   83SOPE  C214 7657   1.206   2.365   3.749
   83SOPE  H14R 7658   1.186   2.264   3.708
   83SOPE  H14S 7659   1.115   2.423   3.774
   83SOPE  C215 7660   1.283   2.319   3.876
   83SOPE  H15R 7661   1.314   2.417   3.919
   83SOPE  H15S 7662   1.373   2.269   3.835
   83SOPE  C216 7663   1.204   2.236   3.974
   83SOPE  H16R 7664   1.226   2.130   3.947
   83SOPE  H16S 7665   1.094   2.242   3.961
   83SOPE  C217 7666   1.246   2.257   4.123
   83SOPE  H17R 7667   1.253   2.366   4.142
   83SOPE  H17S 7668   1.346   2.210   4.138
   83SOPE  C218 7669   1.148   2.200   4.227
   83SOPE  H18R 7670   1.051   2.254   4.227
   83SOPE  H18S 7671   1.186   2.212   4.330
   83SOPE  H18T 7672   1.123   2.096   4.197
   83SOPE   C33 7673   1.275   2.878   2.643
   83SOPE   H3X 7674   1.185   2.812   2.638
   83SOPE   H3Y 7675   1.253   2.977   2.598
   83SOPE   C34 7676   1.287   2.890   2.796
   83SOPE   H4X 7677   1.380   2.949   2.810
   83SOPE   H4Y 7678   1.303   2.792   2.846
   83SOPE   C35 7679   1.176   2.978   2.850
   83SOPE   H5X 7680   1.078   2.932   2.824
   83SOPE   H5Y 7681   1.174   3.076   2.797
   83SOPE   C36 7682   1.191   2.994   3.003
   83SOPE   H6X 7683   1.116   3.075   3.013
   83SOPE   H6Y 7684   1.281   3.035   3.053
   83SOPE   C37 7685   1.154   2.864   3.077
   83SOPE   H7X 7686   1.240   2.794   3.086
   83SOPE   H7Y 7687   1.078   2.808   3.018
   83SOPE   C38 7688   1.083   2.891   3.203
   83SOPE   H8X 7689   1.037   2.794   3.232
   83SOPE   H8Y 7690   1.002   2.965   3.182
   83SOPE   C39 7691   1.168   2.922   3.331
   83SOPE   H9X 7692   1.240   3.006   3.320
   83SOPE   H9Y 7693   1.234   2.833   3.344
   83SOPE  C310 7694   1.077   2.924   3.461
   83SOPE  H10X 7695   1.046   2.818   3.452
   83SOPE  H10Y 7696   0.990   2.990   3.441
   83SOPE  C311 7697   1.163   2.958   3.581
   83SOPE  H11X 7698   1.210   3.058   3.572
   83SOPE  H11Y 7699   1.249   2.888   3.590
   83SOPE  C312 7700   1.079   2.952   3.712
   83SOPE  H12X 7701   1.025   2.855   3.713
   83SOPE  H12Y 7702   1.002   3.033   3.704
   83SOPE  C313 7703   1.157   2.976   3.850
   83SOPE  H13X 7704   1.170   3.084   3.873
   83SOPE  H13Y 7705   1.253   2.925   3.826
   83SOPE  C314 7706   1.103   2.910   3.975
   83SOPE  H14X 7707   1.162   2.935   4.066
   83SOPE  H14Y 7708   1.106   2.800   3.960
   83SOPE  C315 7709   0.962   2.965   3.988
   83SOPE  H15X 7710   0.887   2.927   3.915
   83SOPE  H15Y 7711   0.962   3.075   3.973
   83SOPE  C316 7712   0.910   2.935   4.130
   83SOPE  H16X 7713   0.970   2.993   4.204
   83SOPE  H16Y 7714   0.933   2.830   4.156
   83SOPE  C317 7715   0.758   2.963   4.132
   83SOPE  H17X 7716   0.695   2.890   4.078
   83SOPE  H17Y 7717   0.741   3.063   4.086
   83SOPE  C318 7718   0.697   2.974   4.270
   83SOPE  H18X 7719   0.717   3.080   4.295
   83SOPE  H18Y 7720   0.756   2.915   4.343
   83SOPE  H18Z 7721   0.590   2.946   4.266
   84SOPE     N 7722   0.928   0.864   2.271
   84SOPE   HN1 7723   1.001   0.854   2.345
   84SOPE   HN2 7724   0.926   0.781   2.210
   84SOPE   HN3 7725   0.971   0.946   2.222
   84SOPE   C12 7726   0.799   0.917   2.333
   84SOPE  H12A 7727   0.756   0.974   2.248
   84SOPE  H12B 7728   0.826   0.991   2.410
   84SOPE   C11 7729   0.708   0.805   2.371
   84SOPE  H11A 7730   0.632   0.854   2.436
   84SOPE  H11B 7731   0.773   0.733   2.425
   84SOPE     P 7732   0.512   0.790   2.191
   84SOPE   O13 7733   0.443   0.674   2.137
   84SOPE   O14 7734   0.525   0.908   2.105
   84SOPE   O12 7735   0.659   0.749   2.251
   84SOPE   O11 7736   0.429   0.835   2.319
   84SOPE    C1 7737   0.350   0.749   2.401
   84SOPE    HA 7738   0.395   0.648   2.409
   84SOPE    HB 7739   0.254   0.732   2.347
   84SOPE    C2 7740   0.310   0.798   2.542
   84SOPE    HS 7741   0.233   0.878   2.544
   84SOPE   O21 7742   0.431   0.829   2.616
   84SOPE   C21 7743   0.456   0.958   2.608
   84SOPE   O22 7744   0.391   1.045   2.551
   84SOPE   C22 7745   0.572   0.991   2.704
   84SOPE   H2R 7746   0.574   1.102   2.714
   84SOPE   H2S 7747   0.663   0.964   2.646
   84SOPE    C3 7748   0.240   0.682   2.624
   84SOPE    HX 7749   0.309   0.595   2.621
   84SOPE    HY 7750   0.151   0.646   2.569
   84SOPE   O31 7751   0.198   0.715   2.758
   84SOPE   C31 7752   0.221   0.627   2.857
   84SOPE   O32 7753   0.254   0.507   2.848
   84SOPE   C32 7754   0.191   0.691   2.988
   84SOPE   H2X 7755   0.095   0.743   2.967
   84SOPE   H2Y 7756   0.277   0.754   3.017
   84SOPE   C23 7757   0.565   0.919   2.845
   84SOPE   H3R 7758   0.654   0.944   2.907
   84SOPE   H3S 7759   0.572   0.808   2.839
   84SOPE   C24 7760   0.449   0.956   2.945
   84SOPE   H4R 7761   0.354   0.914   2.906
   84SOPE   H4S 7762   0.466   0.898   3.039
   84SOPE   C25 7763   0.444   1.103   2.986
   84SOPE   H5R 7764   0.548   1.142   2.984
   84SOPE   H5S 7765   0.385   1.156   2.908
   84SOPE   C26 7766   0.379   1.134   3.124
   84SOPE   H6R 7767   0.348   1.240   3.111
   84SOPE   H6S 7768   0.291   1.067   3.134
   84SOPE   C27 7769   0.472   1.109   3.235
   84SOPE   H7R 7770   0.517   1.007   3.240
   84SOPE   H7S 7771   0.568   1.164   3.223
   84SOPE   C28 7772   0.396   1.133   3.367
   84SOPE   H8R 7773   0.482   1.159   3.433
   84SOPE   H8S 7774   0.341   1.230   3.359
   84SOPE   C29 7775   0.304   1.029   3.416
   84SOPE   H91 7776   0.283   0.962   3.333
   84SOPE  C210 7777   0.259   1.013   3.542
   84SOPE  H101 7778   0.184   0.935   3.562
   84SOPE  C211 7779   0.314   1.095   3.657
   84SOPE  H11R 7780   0.363   1.185   3.615
   84SOPE  H11S 7781   0.383   1.038   3.722
   84SOPE  C212 7782   0.208   1.128   3.755
   84SOPE  H12R 7783   0.159   1.032   3.785
   84SOPE  H12S 7784   0.133   1.181   3.691
   84SOPE  C213 7785   0.257   1.207   3.880
   84SOPE  H13R 7786   0.329   1.286   3.851
   84SOPE  H13S 7787   0.302   1.128   3.944
   84SOPE  C214 7788   0.140   1.259   3.965
   84SOPE  H14R 7789   0.047   1.220   3.920
   84SOPE  H14S 7790   0.125   1.369   3.966
   84SOPE  C215 7791   0.161   1.222   4.112
   84SOPE  H15R 7792   0.254   1.272   4.146
   84SOPE  H15S 7793   0.157   1.111   4.116
   84SOPE  C216 7794   0.050   1.262   4.206
   84SOPE  H16R 7795   6.841   1.307   4.153
   84SOPE  H16S 7796   0.086   1.347   4.267
   84SOPE  C217 7797   0.007   1.149   4.305
   84SOPE  H17R 7798   6.824   1.200   4.383
   84SOPE  H17S 7799   0.095   1.093   4.343
   84SOPE  C218 7800   6.795   1.036   4.247
   84SOPE  H18R 7801   6.723   1.083   4.177
   84SOPE  H18S 7802   6.739   0.997   4.335
   84SOPE  H18T 7803   6.862   0.966   4.193
   84SOPE   C33 7804   0.180   0.580   3.092
   84SOPE   H3X 7805   0.283   0.537   3.087
   84SOPE   H3Y 7806   0.104   0.506   3.063
   84SOPE   C34 7807   0.154   0.618   3.242
   84SOPE   H4X 7808   0.044   0.629   3.253
   84SOPE   H4Y 7809   0.215   0.710   3.257
   84SOPE   C35 7810   0.220   0.520   3.337
   84SOPE   H5X 7811   0.321   0.482   3.313
   84SOPE   H5Y 7812   0.155   0.432   3.355
   84SOPE   C36 7813   0.229   0.576   3.490
   84SOPE   H6X 7814   0.128   0.619   3.507
   84SOPE   H6Y 7815   0.304   0.657   3.495
   84SOPE   C37 7816   0.266   0.478   3.596
   84SOPE   H7X 7817   0.358   0.420   3.574
   84SOPE   H7Y 7818   0.180   0.407   3.606
   84SOPE   C38 7819   0.279   0.532   3.749
   84SOPE   H8X 7820   0.187   0.588   3.774
   84SOPE   H8Y 7821   0.366   0.600   3.743
   84SOPE   C39 7822   0.311   0.428   3.860
   84SOPE   H9X 7823   0.315   0.480   3.958
   84SOPE   H9Y 7824   0.415   0.392   3.847
   84SOPE  C310 7825   0.225   0.303   3.863
   84SOPE  H10X 7826   0.257   0.239   3.778
   84SOPE  H10Y 7827   0.116   0.324   3.860
   84SOPE  C311 7828   0.245   0.215   3.991
   84SOPE  H11X 7829   0.150   0.181   4.038
   84SOPE  H11Y 7830   0.279   0.285   4.070
   84SOPE  C312 7831   0.355   0.103   3.991
   84SOPE  H12X 7832   0.457   0.146   3.986
   84SOPE  H12Y 7833   0.335   0.032   3.908
   84SOPE  C313 7834   0.353   0.024   4.123
   84SOPE  H13X 7835   0.423   6.816   4.131
   84SOPE  H13Y 7836   0.259   6.843   4.114
   84SOPE  C314 7837   0.355   0.094   4.257
   84SOPE  H14X 7838   0.274   0.170   4.254
   84SOPE  H14Y 7839   0.456   0.140   4.260
   84SOPE  C315 7840   0.329   0.001   4.379
   84SOPE  H15X 7841   0.330   0.072   4.464
   84SOPE  H15Y 7842   0.411   6.804   4.394
   84SOPE  C316 7843   0.193   6.817   4.374
   84SOPE  H16X 7844   0.187   6.748   4.460
   84SOPE  H16Y 7845   0.193   6.747   4.287
   84SOPE  C317 7846   0.073   0.027   4.375
   84SOPE  H17X 7847   0.074   0.082   4.278
   84SOPE  H17Y 7848   0.090   0.098   4.458
   84SOPE  C318 7849   6.820   6.834   4.401
   84SOPE  H18X 7850   6.731   0.021   4.389
   84SOPE  H18Y 7851   6.808   6.803   4.507
   84SOPE  H18Z 7852   6.802   6.749   4.332
   85SOPE     N 7853   4.746   4.364   1.621
   85SOPE   HN1 7854   4.700   4.349   1.713
   85SOPE   HN2 7855   4.715   4.297   1.547
   85SOPE   HN3 7856   4.849   4.356   1.626
   85SOPE   C12 7857   4.715   4.495   1.576
   85SOPE  H12A 7858   4.608   4.503   1.546
   85SOPE  H12B 7859   4.776   4.524   1.488
   85SOPE   C11 7860   4.754   4.598   1.687
   85SOPE  H11A 7861   4.701   4.579   1.783
   85SOPE  H11B 7862   4.720   4.696   1.647
   85SOPE     P 7863   4.963   4.638   1.841
   85SOPE   O13 7864   4.912   4.771   1.887
   85SOPE   O14 7865   5.111   4.627   1.827
   85SOPE   O12 7866   4.893   4.589   1.708
   85SOPE   O11 7867   4.917   4.525   1.941
   85SOPE    C1 7868   4.965   4.399   1.964
   85SOPE    HA 7869   5.041   4.372   1.888
   85SOPE    HB 7870   4.886   4.320   1.957
   85SOPE    C2 7871   5.032   4.375   2.106
   85SOPE    HS 7872   4.955   4.358   2.184
   85SOPE   O21 7873   5.120   4.490   2.131
   85SOPE   C21 7874   5.082   4.572   2.226
   85SOPE   O22 7875   4.974   4.566   2.285
   85SOPE   C22 7876   5.196   4.669   2.265
   85SOPE   H2R 7877   5.142   4.764   2.284
   85SOPE   H2S 7878   5.256   4.690   2.174
   85SOPE    C3 7879   5.116   4.244   2.112
   85SOPE    HX 7880   5.199   4.248   2.037
   85SOPE    HY 7881   5.058   4.159   2.069
   85SOPE   O31 7882   5.160   4.204   2.239
   85SOPE   C31 7883   5.281   4.240   2.271
   85SOPE   O32 7884   5.360   4.295   2.199
   85SOPE   C32 7885   5.314   4.185   2.406
   85SOPE   H2X 7886   5.293   4.076   2.403
   85SOPE   H2Y 7887   5.231   4.229   2.467
   85SOPE   C23 7888   5.263   4.637   2.399
   85SOPE   H3R 7889   5.353   4.699   2.417
   85SOPE   H3S 7890   5.304   4.534   2.392
   85SOPE   C24 7891   5.172   4.652   2.520
   85SOPE   H4R 7892   5.147   4.760   2.532
   85SOPE   H4S 7893   5.077   4.597   2.500
   85SOPE   C25 7894   5.232   4.617   2.657
   85SOPE   H5R 7895   5.260   4.509   2.659
   85SOPE   H5S 7896   5.327   4.672   2.674
   85SOPE   C26 7897   5.128   4.623   2.769
   85SOPE   H6R 7898   5.098   4.727   2.797
   85SOPE   H6S 7899   5.030   4.585   2.733
   85SOPE   C27 7900   5.171   4.537   2.892
   85SOPE   H7R 7901   5.181   4.432   2.857
   85SOPE   H7S 7902   5.271   4.574   2.923
   85SOPE   C28 7903   5.071   4.549   3.016
   85SOPE   H8R 7904   5.036   4.652   3.037
   85SOPE   H8S 7905   4.983   4.482   3.001
   85SOPE   C29 7906   5.137   4.491   3.138
   85SOPE   H91 7907   5.214   4.418   3.109
   85SOPE  C210 7908   5.100   4.487   3.266
   85SOPE  H101 7909   5.182   4.457   3.333
   85SOPE  C211 7910   4.991   4.560   3.329
   85SOPE  H11R 7911   4.940   4.615   3.247
   85SOPE  H11S 7912   5.034   4.630   3.405
   85SOPE  C212 7913   4.879   4.480   3.388
   85SOPE  H12R 7914   4.834   4.419   3.307
   85SOPE  H12S 7915   4.802   4.555   3.418
   85SOPE  C213 7916   4.892   4.382   3.505
   85SOPE  H13R 7917   4.963   4.302   3.474
   85SOPE  H13S 7918   4.792   4.339   3.529
   85SOPE  C214 7919   4.944   4.453   3.634
   85SOPE  H14R 7920   4.876   4.538   3.653
   85SOPE  H14S 7921   5.040   4.508   3.618
   85SOPE  C215 7922   4.952   4.362   3.752
   85SOPE  H15R 7923   5.015   4.274   3.728
   85SOPE  H15S 7924   4.854   4.317   3.779
   85SOPE  C216 7925   4.998   4.437   3.881
   85SOPE  H16R 7926   5.106   4.465   3.874
   85SOPE  H16S 7927   4.987   4.368   3.967
   85SOPE  C217 7928   4.912   4.560   3.915
   85SOPE  H17R 7929   4.805   4.532   3.903
   85SOPE  H17S 7930   4.938   4.641   3.844
   85SOPE  C218 7931   4.938   4.615   4.056
   85SOPE  H18R 7932   4.893   4.544   4.128
   85SOPE  H18S 7933   4.899   4.717   4.075
   85SOPE  H18T 7934   5.049   4.613   4.068
   85SOPE   C33 7935   5.454   4.229   2.453
   85SOPE   H3X 7936   5.451   4.337   2.480
   85SOPE   H3Y 7937   5.534   4.210   2.377
   85SOPE   C34 7938   5.494   4.154   2.581
   85SOPE   H4X 7939   5.588   4.197   2.621
   85SOPE   H4Y 7940   5.519   4.050   2.553
   85SOPE   C35 7941   5.384   4.146   2.685
   85SOPE   H5X 7942   5.305   4.069   2.671
   85SOPE   H5Y 7943   5.340   4.246   2.701
   85SOPE   C36 7944   5.434   4.102   2.825
   85SOPE   H6X 7945   5.511   4.174   2.859
   85SOPE   H6Y 7946   5.471   3.997   2.829
   85SOPE   C37 7947   5.334   4.119   2.934
   85SOPE   H7X 7948   5.242   4.067   2.900
   85SOPE   H7Y 7949   5.312   4.227   2.945
   85SOPE   C38 7950   5.378   4.064   3.068
   85SOPE   H8X 7951   5.483   4.093   3.090
   85SOPE   H8Y 7952   5.369   3.953   3.075
   85SOPE   C39 7953   5.287   4.111   3.184
   85SOPE   H9X 7954   5.183   4.086   3.154
   85SOPE   H9Y 7955   5.301   4.219   3.205
   85SOPE  C310 7956   5.312   4.032   3.318
   85SOPE  H10X 7957   5.414   4.054   3.355
   85SOPE  H10Y 7958   5.288   3.925   3.304
   85SOPE  C311 7959   5.221   4.078   3.437
   85SOPE  H11X 7960   5.117   4.070   3.398
   85SOPE  H11Y 7961   5.249   4.182   3.462
   85SOPE  C312 7962   5.227   3.981   3.557
   85SOPE  H12X 7963   5.330   3.949   3.583
   85SOPE  H12Y 7964   5.164   3.891   3.539
   85SOPE  C313 7965   5.160   4.042   3.686
   85SOPE  H13X 7966   5.052   4.042   3.662
   85SOPE  H13Y 7967   5.191   4.147   3.705
   85SOPE  C314 7968   5.192   3.957   3.816
   85SOPE  H14X 7969   5.303   3.959   3.822
   85SOPE  H14Y 7970   5.151   3.854   3.811
   85SOPE  C315 7971   5.153   4.028   3.951
   85SOPE  H15X 7972   5.043   4.043   3.953
   85SOPE  H15Y 7973   5.204   4.127   3.950
   85SOPE  C316 7974   5.204   3.949   4.076
   85SOPE  H16X 7975   5.311   3.921   4.067
   85SOPE  H16Y 7976   5.149   3.853   4.074
   85SOPE  C317 7977   5.181   4.033   4.201
   85SOPE  H17X 7978   5.075   4.064   4.190
   85SOPE  H17Y 7979   5.240   4.126   4.187
   85SOPE  C318 7980   5.216   3.960   4.326
   85SOPE  H18X 7981   5.326   3.955   4.339
   85SOPE  H18Y 7982   5.180   3.855   4.320
   85SOPE  H18Z 7983   5.173   4.010   4.415
   86SOPE     N 7984   5.117   1.736   2.336
   86SOPE   HN1 7985   5.062   1.663   2.387
   86SOPE   HN2 7986   5.120   1.700   2.238
   86SOPE   HN3 7987   5.215   1.729   2.370
   86SOPE   C12 7988   5.068   1.870   2.348
   86SOPE  H12A 7989   4.968   1.862   2.396
   86SOPE  H12B 7990   5.048   1.913   2.247
   86SOPE   C11 7991   5.169   1.954   2.424
   86SOPE  H11A 7992   5.166   1.922   2.531
   86SOPE  H11B 7993   5.120   2.054   2.427
   86SOPE     P 7994   5.430   1.908   2.419
   86SOPE   O13 7995   5.458   1.970   2.551
   86SOPE   O14 7996   5.537   1.911   2.318
   86SOPE   O12 7997   5.294   1.975   2.358
   86SOPE   O11 7998   5.373   1.761   2.433
   86SOPE    C1 7999   5.458   1.660   2.484
   86SOPE    HA 8000   5.563   1.693   2.499
   86SOPE    HB 8001   5.468   1.587   2.401
   86SOPE    C2 8002   5.402   1.591   2.612
   86SOPE    HS 8003   5.306   1.540   2.586
   86SOPE   O21 8004   5.376   1.686   2.707
   86SOPE   C21 8005   5.252   1.734   2.718
   86SOPE   O22 8006   5.160   1.692   2.656
   86SOPE   C22 8007   5.243   1.842   2.828
   86SOPE   H2R 8008   5.217   1.931   2.767
   86SOPE   H2S 8009   5.340   1.851   2.883
   86SOPE    C3 8010   5.486   1.472   2.668
   86SOPE    HX 8011   5.588   1.504   2.699
   86SOPE    HY 8012   5.515   1.408   2.582
   86SOPE   O31 8013   5.418   1.398   2.772
   86SOPE   C31 8014   5.469   1.287   2.812
   86SOPE   O32 8015   5.553   1.217   2.760
   86SOPE   C32 8016   5.398   1.236   2.935
   86SOPE   H2X 8017   5.291   1.209   2.924
   86SOPE   H2Y 8018   5.413   1.309   3.017
   86SOPE   C23 8019   5.130   1.811   2.928
   86SOPE   H3R 8020   5.034   1.797   2.874
   86SOPE   H3S 8021   5.128   1.898   2.996
   86SOPE   C24 8022   5.170   1.697   3.024
   86SOPE   H4R 8023   5.074   1.663   3.068
   86SOPE   H4S 8024   5.213   1.618   2.959
   86SOPE   C25 8025   5.250   1.739   3.143
   86SOPE   H5R 8026   5.321   1.820   3.115
   86SOPE   H5S 8027   5.179   1.783   3.217
   86SOPE   C26 8028   5.338   1.633   3.201
   86SOPE   H6R 8029   5.399   1.676   3.283
   86SOPE   H6S 8030   5.273   1.551   3.238
   86SOPE   C27 8031   5.447   1.582   3.095
   86SOPE   H7R 8032   5.400   1.531   3.009
   86SOPE   H7S 8033   5.496   1.677   3.066
   86SOPE   C28 8034   5.551   1.490   3.167
   86SOPE   H8R 8035   5.496   1.414   3.227
   86SOPE   H8S 8036   5.606   1.438   3.086
   86SOPE   C29 8037   5.658   1.566   3.237
   86SOPE   H91 8038   5.747   1.595   3.180
   86SOPE  C210 8039   5.657   1.580   3.367
   86SOPE  H101 8040   5.744   1.625   3.418
   86SOPE  C211 8041   5.559   1.535   3.471
   86SOPE  H11R 8042   5.490   1.455   3.436
   86SOPE  H11S 8043   5.486   1.615   3.495
   86SOPE  C212 8044   5.615   1.464   3.596
   86SOPE  H12R 8045   5.695   1.532   3.632
   86SOPE  H12S 8046   5.658   1.368   3.560
   86SOPE  C213 8047   5.512   1.442   3.709
   86SOPE  H13R 8048   5.554   1.387   3.795
   86SOPE  H13S 8049   5.432   1.372   3.676
   86SOPE  C214 8050   5.450   1.573   3.766
   86SOPE  H14R 8051   5.421   1.645   3.687
   86SOPE  H14S 8052   5.527   1.616   3.834
   86SOPE  C215 8053   5.338   1.556   3.858
   86SOPE  H15R 8054   5.348   1.473   3.932
   86SOPE  H15S 8055   5.256   1.515   3.795
   86SOPE  C216 8056   5.294   1.687   3.920
   86SOPE  H16R 8057   5.191   1.681   3.962
   86SOPE  H16S 8058   5.287   1.773   3.850
   86SOPE  C217 8059   5.389   1.719   4.043
   86SOPE  H17R 8060   5.351   1.815   4.083
   86SOPE  H17S 8061   5.493   1.730   4.008
   86SOPE  C218 8062   5.390   1.611   4.152
   86SOPE  H18R 8063   5.458   1.527   4.126
   86SOPE  H18S 8064   5.287   1.576   4.177
   86SOPE  H18T 8065   5.425   1.661   4.246
   86SOPE   C33 8066   5.448   1.096   2.971
   86SOPE   H3X 8067   5.555   1.089   2.998
   86SOPE   H3Y 8068   5.425   1.033   2.882
   86SOPE   C34 8069   5.373   1.042   3.095
   86SOPE   H4X 8070   5.408   0.938   3.111
   86SOPE   H4Y 8071   5.266   1.033   3.068
   86SOPE   C35 8072   5.394   1.130   3.224
   86SOPE   H5X 8073   5.336   1.223   3.208
   86SOPE   H5Y 8074   5.500   1.146   3.253
   86SOPE   C36 8075   5.352   1.065   3.357
   86SOPE   H6X 8076   5.405   0.972   3.387
   86SOPE   H6Y 8077   5.244   1.037   3.364
   86SOPE   C37 8078   5.382   1.157   3.468
   86SOPE   H7X 8079   5.376   1.265   3.442
   86SOPE   H7Y 8080   5.491   1.140   3.483
   86SOPE   C38 8081   5.288   1.120   3.589
   86SOPE   H8X 8082   5.187   1.113   3.543
   86SOPE   H8Y 8083   5.273   1.195   3.670
   86SOPE   C39 8084   5.330   0.995   3.664
   86SOPE   H9X 8085   5.421   1.019   3.723
   86SOPE   H9Y 8086   5.355   0.911   3.596
   86SOPE  C310 8087   5.219   0.945   3.765
   86SOPE  H10X 8088   5.188   1.027   3.833
   86SOPE  H10Y 8089   5.261   0.862   3.825
   86SOPE  C311 8090   5.092   0.886   3.694
   86SOPE  H11X 8091   5.128   0.835   3.603
   86SOPE  H11Y 8092   5.024   0.968   3.661
   86SOPE  C312 8093   5.007   0.789   3.781
   86SOPE  H12X 8094   4.914   0.770   3.723
   86SOPE  H12Y 8095   4.986   0.839   3.878
   86SOPE  C313 8096   5.075   0.648   3.792
   86SOPE  H13X 8097   5.185   0.650   3.807
   86SOPE  H13Y 8098   5.062   0.594   3.696
   86SOPE  C314 8099   5.012   0.558   3.897
   86SOPE  H14X 8100   5.015   0.453   3.860
   86SOPE  H14Y 8101   4.904   0.581   3.905
   86SOPE  C315 8102   5.076   0.565   4.035
   86SOPE  H15X 8103   5.100   0.671   4.060
   86SOPE  H15Y 8104   5.177   0.519   4.042
   86SOPE  C316 8105   4.984   0.511   4.149
   86SOPE  H16X 8106   4.925   0.426   4.108
   86SOPE  H16Y 8107   4.906   0.587   4.171
   86SOPE  C317 8108   5.064   0.469   4.276
   86SOPE  H17X 8109   5.091   0.560   4.333
   86SOPE  H17Y 8110   5.161   0.421   4.253
   86SOPE  C318 8111   4.990   0.381   4.377
   86SOPE  H18X 8112   4.888   0.422   4.392
   86SOPE  H18Y 8113   5.033   0.379   4.480
   86SOPE  H18Z 8114   4.978   0.276   4.343
   87SOPE     N 8115   6.594   0.726   2.160
   87SOPE   HN1 8116   6.662   0.775   2.098
   87SOPE   HN2 8117   6.501   0.768   2.140
   87SOPE   HN3 8118   6.613   0.744   2.261
   87SOPE   C12 8119   6.587   0.578   2.119
   87SOPE  H12A 8120   6.686   0.532   2.137
   87SOPE  H12B 8121   6.559   0.570   2.012
   87SOPE   C11 8122   6.475   0.507   2.205
   87SOPE  H11A 8123   6.488   0.490   2.314
   87SOPE  H11B 8124   6.473   0.410   2.151
   87SOPE     P 8125   6.267   0.680   2.217
   87SOPE   O13 8126   6.125   0.673   2.177
   87SOPE   O14 8127   6.334   0.806   2.180
   87SOPE   O12 8128   6.345   0.550   2.159
   87SOPE   O11 8129   6.272   0.657   2.368
   87SOPE    C1 8130   6.226   0.533   2.421
   87SOPE    HA 8131   6.253   0.438   2.370
   87SOPE    HB 8132   6.115   0.532   2.417
   87SOPE    C2 8133   6.259   0.506   2.570
   87SOPE    HS 8134   6.204   0.411   2.589
   87SOPE   O21 8135   6.221   0.613   2.660
   87SOPE   C21 8136   6.093   0.617   2.686
   87SOPE   O22 8137   6.009   0.545   2.630
   87SOPE   C22 8138   6.060   0.719   2.792
   87SOPE   H2R 8139   5.954   0.734   2.821
   87SOPE   H2S 8140   6.093   0.816   2.748
   87SOPE    C3 8141   6.416   0.484   2.576
   87SOPE    HX 8142   6.451   0.588   2.562
   87SOPE    HY 8143   6.441   0.415   2.492
   87SOPE   O31 8144   6.445   0.430   2.704
   87SOPE   C31 8145   6.572   0.416   2.740
   87SOPE   O32 8146   6.669   0.453   2.673
   87SOPE   C32 8147   6.581   0.358   2.873
   87SOPE   H2X 8148   6.560   0.249   2.864
   87SOPE   H2Y 8149   6.501   0.404   2.935
   87SOPE   C23 8150   6.152   0.694   2.911
   87SOPE   H3R 8151   6.257   0.687   2.875
   87SOPE   H3S 8152   6.125   0.604   2.970
   87SOPE   C24 8153   6.165   0.812   2.997
   87SOPE   H4R 8154   6.198   0.901   2.939
   87SOPE   H4S 8155   6.063   0.824   3.040
   87SOPE   C25 8156   6.265   0.786   3.110
   87SOPE   H5R 8157   6.238   0.695   3.168
   87SOPE   H5S 8158   6.368   0.775   3.071
   87SOPE   C26 8159   6.280   0.902   3.216
   87SOPE   H6R 8160   6.375   0.891   3.271
   87SOPE   H6S 8161   6.284   1.002   3.166
   87SOPE   C27 8162   6.167   0.925   3.302
   87SOPE   H7R 8163   6.179   1.014   3.366
   87SOPE   H7S 8164   6.071   0.960   3.258
   87SOPE   C28 8165   6.135   0.802   3.396
   87SOPE   H8R 8166   6.054   0.843   3.460
   87SOPE   H8S 8167   6.084   0.719   3.343
   87SOPE   C29 8168   6.253   0.758   3.471
   87SOPE   H91 8169   6.304   0.676   3.417
   87SOPE  C210 8170   6.288   0.787   3.596
   87SOPE  H101 8171   6.371   0.725   3.631
   87SOPE  C211 8172   6.231   0.877   3.701
   87SOPE  H11R 8173   6.122   0.859   3.711
   87SOPE  H11S 8174   6.250   0.981   3.666
   87SOPE  C212 8175   6.297   0.874   3.834
   87SOPE  H12R 8176   6.265   0.967   3.886
   87SOPE  H12S 8177   6.406   0.892   3.820
   87SOPE  C213 8178   6.252   0.752   3.923
   87SOPE  H13R 8179   6.251   0.663   3.856
   87SOPE  H13S 8180   6.143   0.766   3.939
   87SOPE  C214 8181   6.331   0.737   4.049
   87SOPE  H14R 8182   6.435   0.752   4.013
   87SOPE  H14S 8183   6.324   0.633   4.089
   87SOPE  C215 8184   6.295   0.833   4.162
   87SOPE  H15R 8185   6.186   0.818   4.179
   87SOPE  H15S 8186   6.314   0.940   4.141
   87SOPE  C216 8187   6.370   0.787   4.289
   87SOPE  H16R 8188   6.348   0.680   4.307
   87SOPE  H16S 8189   6.343   0.835   4.385
   87SOPE  C217 8190   6.518   0.802   4.280
   87SOPE  H17R 8191   6.538   0.902   4.235
   87SOPE  H17S 8192   6.564   0.724   4.215
   87SOPE  C218 8193   6.587   0.790   4.417
   87SOPE  H18R 8194   6.560   0.858   4.500
   87SOPE  H18S 8195   6.698   0.786   4.414
   87SOPE  H18T 8196   6.564   0.688   4.455
   87SOPE   C33 8197   6.720   0.369   2.932
   87SOPE   H3X 8198   6.749   0.474   2.953
   87SOPE   H3Y 8199   6.804   0.327   2.872
   87SOPE   C34 8200   6.725   0.311   3.078
   87SOPE   H4X 8201   6.832   0.304   3.106
   87SOPE   H4Y 8202   6.679   0.210   3.082
   87SOPE   C35 8203   6.649   0.398   3.180
   87SOPE   H5X 8204   6.540   0.393   3.158
   87SOPE   H5Y 8205   6.679   0.503   3.161
   87SOPE   C36 8206   6.682   0.357   3.318
   87SOPE   H6X 8207   6.791   0.338   3.328
   87SOPE   H6Y 8208   6.624   0.264   3.340
   87SOPE   C37 8209   6.624   0.454   3.424
   87SOPE   H7X 8210   6.524   0.479   3.383
   87SOPE   H7Y 8211   6.700   0.531   3.447
   87SOPE   C38 8212   6.594   0.382   3.563
   87SOPE   H8X 8213   6.535   0.288   3.560
   87SOPE   H8Y 8214   6.543   0.446   3.637
   87SOPE   C39 8215   6.732   0.344   3.635
   87SOPE   H9X 8216   6.783   0.437   3.669
   87SOPE   H9Y 8217   6.803   0.301   3.561
   87SOPE  C310 8218   6.715   0.220   3.734
   87SOPE  H10X 8219   6.812   0.168   3.720
   87SOPE  H10Y 8220   6.638   0.152   3.691
   87SOPE  C311 8221   6.665   0.240   3.878
   87SOPE  H11X 8222   6.554   0.241   3.865
   87SOPE  H11Y 8223   6.698   0.342   3.908
   87SOPE  C312 8224   6.708   0.132   3.969
   87SOPE  H12X 8225   6.816   0.112   3.955
   87SOPE  H12Y 8226   6.646   0.041   3.956
   87SOPE  C313 8227   6.698   0.170   4.116
   87SOPE  H13X 8228   6.773   0.252   4.128
   87SOPE  H13Y 8229   6.711   0.079   4.177
   87SOPE  C314 8230   6.562   0.232   4.160
   87SOPE  H14X 8231   6.488   0.151   4.139
   87SOPE  H14Y 8232   6.526   0.322   4.106
   87SOPE  C315 8233   6.561   0.253   4.315
   87SOPE  H15X 8234   6.653   0.298   4.358
   87SOPE  H15Y 8235   6.542   0.153   4.360
   87SOPE  C316 8236   6.445   0.341   4.358
   87SOPE  H16X 8237   6.343   0.299   4.341
   87SOPE  H16Y 8238   6.458   0.435   4.300
   87SOPE  C317 8239   6.448   0.408   4.502
   87SOPE  H17X 8240   6.362   0.473   4.527
   87SOPE  H17Y 8241   6.539   0.471   4.498
   87SOPE  C318 8242   6.460   0.311   4.618
   87SOPE  H18X 8243   6.532   0.227   4.609
   87SOPE  H18Y 8244   6.359   0.267   4.628
   87SOPE  H18Z 8245   6.484   0.370   4.709
   88SOPE     N 8246   1.634   5.973   1.997
   88SOPE   HN1 8247   1.613   5.994   2.096
   88SOPE   HN2 8248   1.575   5.889   1.978
   88SOPE   HN3 8249   1.734   5.946   1.990
   88SOPE   C12 8250   1.600   6.076   1.897
   88SOPE  H12A 8251   1.628   6.043   1.794
   88SOPE  H12B 8252   1.657   6.169   1.919
   88SOPE   C11 8253   1.445   6.107   1.897
   88SOPE  H11A 8254   1.383   6.018   1.873
   88SOPE  H11B 8255   1.440   6.170   1.806
   88SOPE     P 8256   1.275   6.192   2.087
   88SOPE   O13 8257   1.184   6.226   1.977
   88SOPE   O14 8258   1.292   6.292   2.194
   88SOPE   O12 8259   1.413   6.174   2.017
   88SOPE   O11 8260   1.240   6.056   2.143
   88SOPE    C1 8261   1.295   6.002   2.262
   88SOPE    HA 8262   1.336   6.080   2.330
   88SOPE    HB 8263   1.379   5.933   2.237
   88SOPE    C2 8264   1.180   5.937   2.336
   88SOPE    HS 8265   1.111   5.903   2.256
   88SOPE   O21 8266   1.113   6.038   2.410
   88SOPE   C21 8267   0.984   6.027   2.434
   88SOPE   O22 8268   0.917   5.931   2.414
   88SOPE   C22 8269   0.934   6.162   2.492
   88SOPE   H2R 8270   0.827   6.181   2.468
   88SOPE   H2S 8271   0.984   6.250   2.446
   88SOPE    C3 8272   1.215   5.822   2.432
   88SOPE    HX 8273   1.245   5.735   2.368
   88SOPE    HY 8274   1.131   5.787   2.495
   88SOPE   O31 8275   1.336   5.865   2.506
   88SOPE   C31 8276   1.313   5.912   2.638
   88SOPE   O32 8277   1.205   5.910   2.696
   88SOPE   C32 8278   1.451   5.951   2.697
   88SOPE   H2X 8279   1.480   6.050   2.655
   88SOPE   H2Y 8280   1.522   5.878   2.652
   88SOPE   C23 8281   0.979   6.173   2.640
   88SOPE   H3R 8282   0.996   6.281   2.661
   88SOPE   H3S 8283   1.083   6.137   2.653
   88SOPE   C24 8284   0.883   6.103   2.740
   88SOPE   H4R 8285   0.780   6.144   2.728
   88SOPE   H4S 8286   0.876   5.998   2.704
   88SOPE   C25 8287   0.931   6.091   2.886
   88SOPE   H5R 8288   0.859   6.024   2.937
   88SOPE   H5S 8289   1.037   6.056   2.883
   88SOPE   C26 8290   0.923   6.225   2.967
   88SOPE   H6R 8291   0.982   6.306   2.919
   88SOPE   H6S 8292   0.817   6.258   2.965
   88SOPE   C27 8293   0.966   6.201   3.112
   88SOPE   H7R 8294   1.075   6.180   3.108
   88SOPE   H7S 8295   0.965   6.293   3.174
   88SOPE   C28 8296   0.900   6.080   3.190
   88SOPE   H8R 8297   0.793   6.107   3.204
   88SOPE   H8S 8298   0.899   5.985   3.133
   88SOPE   C29 8299   0.974   6.059   3.320
   88SOPE   H91 8300   1.078   6.022   3.313
   88SOPE  C210 8301   0.927   6.072   3.449
   88SOPE  H101 8302   0.983   6.056   3.542
   88SOPE  C211 8303   0.780   6.102   3.483
   88SOPE  H11R 8304   0.755   6.085   3.590
   88SOPE  H11S 8305   0.720   6.027   3.427
   88SOPE  C212 8306   0.739   6.241   3.440
   88SOPE  H12R 8307   0.721   6.239   3.331
   88SOPE  H12S 8308   0.821   6.311   3.465
   88SOPE  C213 8309   0.623   6.295   3.512
   88SOPE  H13R 8310   0.638   6.404   3.495
   88SOPE  H13S 8311   0.634   6.275   3.621
   88SOPE  C214 8312   0.484   6.247   3.465
   88SOPE  H14R 8313   0.482   6.136   3.478
   88SOPE  H14S 8314   0.473   6.278   3.359
   88SOPE  C215 8315   0.375   6.300   3.554
   88SOPE  H15R 8316   0.383   6.410   3.565
   88SOPE  H15S 8317   0.401   6.253   3.651
   88SOPE  C216 8318   0.228   6.258   3.504
   88SOPE  H16R 8319   0.197   6.163   3.553
   88SOPE  H16S 8320   0.218   6.254   3.394
   88SOPE  C217 8321   0.132   6.368   3.545
   88SOPE  H17R 8322   0.159   6.468   3.505
   88SOPE  H17S 8323   0.140   6.372   3.656
   88SOPE  C218 8324   6.864   6.333   3.514
   88SOPE  H18R 8325   6.800   6.394   3.581
   88SOPE  H18S 8326   6.839   6.225   3.526
   88SOPE  H18T 8327   6.837   6.356   3.408
   88SOPE   C33 8328   1.448   5.951   2.850
   88SOPE   H3X 8329   1.514   5.868   2.882
   88SOPE   H3Y 8330   1.349   5.934   2.897
   88SOPE   C34 8331   1.501   6.083   2.906
   88SOPE   H4X 8332   1.443   6.173   2.876
   88SOPE   H4Y 8333   1.600   6.099   2.860
   88SOPE   C35 8334   1.501   6.071   3.063
   88SOPE   H5X 8335   1.584   6.000   3.086
   88SOPE   H5Y 8336   1.404   6.035   3.102
   88SOPE   C36 8337   1.522   6.210   3.125
   88SOPE   H6X 8338   1.449   6.284   3.085
   88SOPE   H6Y 8339   1.622   6.249   3.099
   88SOPE   C37 8340   1.519   6.223   3.277
   88SOPE   H7X 8341   1.539   6.327   3.310
   88SOPE   H7Y 8342   1.587   6.154   3.331
   88SOPE   C38 8343   1.384   6.197   3.340
   88SOPE   H8X 8344   1.345   6.095   3.319
   88SOPE   H8Y 8345   1.304   6.266   3.305
   88SOPE   C39 8346   1.384   6.227   3.492
   88SOPE   H9X 8347   1.404   6.335   3.512
   88SOPE   H9Y 8348   1.465   6.160   3.529
   88SOPE  C310 8349   1.256   6.189   3.572
   88SOPE  H10X 8350   1.232   6.084   3.545
   88SOPE  H10Y 8351   1.173   6.253   3.536
   88SOPE  C311 8352   1.271   6.218   3.720
   88SOPE  H11X 8353   1.285   6.327   3.738
   88SOPE  H11Y 8354   1.365   6.173   3.758
   88SOPE  C312 8355   1.156   6.159   3.806
   88SOPE  H12X 8356   1.069   6.210   3.761
   88SOPE  H12Y 8357   1.170   6.198   3.909
   88SOPE  C313 8358   1.136   6.005   3.802
   88SOPE  H13X 8359   1.240   5.968   3.812
   88SOPE  H13Y 8360   1.083   5.970   3.711
   88SOPE  C314 8361   1.038   5.976   3.918
   88SOPE  H14X 8362   1.069   6.034   4.007
   88SOPE  H14Y 8363   1.039   5.869   3.949
   88SOPE  C315 8364   0.890   6.006   3.884
   88SOPE  H15X 8365   0.876   5.967   3.780
   88SOPE  H15Y 8366   0.881   6.116   3.884
   88SOPE  C316 8367   0.785   5.947   3.983
   88SOPE  H16X 8368   0.826   5.969   4.084
   88SOPE  H16Y 8369   0.777   5.837   3.968
   88SOPE  C317 8370   0.642   6.005   3.969
   88SOPE  H17X 8371   0.575   5.924   4.005
   88SOPE  H17Y 8372   0.620   6.014   3.861
   88SOPE  C318 8373   0.633   6.137   4.042
   88SOPE  H18X 8374   0.688   6.130   4.139
   88SOPE  H18Y 8375   0.526   6.164   4.051
   88SOPE  H18Z 8376   0.682   6.218   3.985
   89SAPC     N 8377   4.856   2.491   6.886
   89SAPC   C12 8378   4.750   2.551   6.790
   89SAPC  H12A 8379   4.696   2.623   6.850
   89SAPC  H12B 8380   4.685   2.473   6.754
   89SAPC   C13 8381   4.948   2.605   6.930
   89SAPC  H13A 8382   4.975   2.672   6.850
   89SAPC  H13B 8383   4.890   2.666   6.997
   89SAPC  H13C 8384   5.035   2.558   6.975
   89SAPC   C14 8385   4.790   2.426   7.007
   89SAPC  H14A 8386   4.859   2.360   7.058
   89SAPC  H14B 8387   4.764   2.504   7.077
   89SAPC  H14C 8388   4.701   2.369   6.983
   89SAPC   C15 8389   4.938   2.399   6.805
   89SAPC  H15A 8390   5.038   2.390   6.844
   89SAPC  H15B 8391   4.891   2.302   6.807
   89SAPC  H15C 8392   4.940   2.425   6.700
   89SAPC   C11 8393   4.789   2.640   6.669
   89SAPC  H11A 8394   4.703   2.637   6.599
   89SAPC  H11B 8395   4.870   2.605   6.601
   89SAPC     P 8396   4.720   2.875   6.750
   89SAPC   O13 8397   4.597   2.805   6.786
   89SAPC   O14 8398   4.783   2.962   6.854
   89SAPC   O12 8399   4.823   2.766   6.712
   89SAPC   O11 8400   4.713   2.944   6.610
   89SAPC    C1 8401   4.830   2.989   6.550
   89SAPC    HA 8402   4.892   3.047   6.621
   89SAPC    HB 8403   4.898   2.909   6.514
   89SAPC    C2 8404   4.789   3.083   6.434
   89SAPC    HS 8405   4.718   3.155   6.481
   89SAPC   O21 8406   4.723   2.994   6.346
   89SAPC   C21 8407   4.628   3.042   6.272
   89SAPC   O22 8408   4.582   3.159   6.276
   89SAPC   C22 8409   4.577   2.929   6.185
   89SAPC   H2R 8410   4.641   2.838   6.187
   89SAPC   H2S 8411   4.477   2.909   6.228
   89SAPC    C3 8412   4.900   3.161   6.367
   89SAPC    HX 8413   4.974   3.096   6.316
   89SAPC    HY 8414   4.957   3.214   6.446
   89SAPC   O31 8415   4.851   3.250   6.264
   89SAPC   C31 8416   4.790   3.359   6.298
   89SAPC   O32 8417   4.779   3.398   6.415
   89SAPC   C32 8418   4.714   3.433   6.180
   89SAPC   H2X 8419   4.606   3.445   6.206
   89SAPC   H2Y 8420   4.722   3.366   6.092
   89SAPC   C23 8421   4.571   2.958   6.033
   89SAPC   H3R 8422   4.529   3.058   6.008
   89SAPC   H3S 8423   4.484   2.899   5.999
   89SAPC   C24 8424   4.703   2.924   5.966
   89SAPC   H4R 8425   4.684   2.899   5.859
   89SAPC   H4S 8426   4.751   2.837   6.016
   89SAPC   C25 8427   4.800   3.043   5.953
   89SAPC   H5R 8428   4.811   3.105   6.044
   89SAPC   C26 8429   4.878   3.077   5.850
   89SAPC   H6R 8430   4.933   3.172   5.860
   89SAPC   C27 8431   4.886   3.009   5.712
   89SAPC   H7R 8432   4.816   2.923   5.710
   89SAPC   H7S 8433   4.988   2.965   5.702
   89SAPC   C28 8434   4.847   3.086   5.592
   89SAPC   H8R 8435   4.770   3.164   5.596
   89SAPC   C29 8436   4.905   3.072   5.481
   89SAPC   H9R 8437   4.882   3.147   5.404
   89SAPC  C210 8438   5.013   2.976   5.438
   89SAPC  H10R 8439   5.058   2.905   5.510
   89SAPC  H10S 8440   5.105   3.033   5.412
   89SAPC  C211 8441   4.960   2.887   5.334
   89SAPC  H11R 8442   4.902   2.801   5.371
   89SAPC  C212 8443   4.984   2.893   5.199
   89SAPC  H12R 8444   4.925   2.824   5.137
   89SAPC  C213 8445   5.072   2.994   5.127
   89SAPC  H13R 8446   5.099   2.953   5.027
   89SAPC  H13S 8447   5.170   3.013   5.175
   89SAPC  C214 8448   5.005   3.128   5.112
   89SAPC  H14R 8449   4.989   3.179   5.208
   89SAPC  C215 8450   4.943   3.167   5.002
   89SAPC  H15R 8451   4.904   3.268   4.986
   89SAPC  C216 8452   4.942   3.090   4.874
   89SAPC  H16R 8453   4.848   3.124   4.825
   89SAPC  H16S 8454   4.946   2.982   4.900
   89SAPC  C217 8455   5.055   3.123   4.775
   89SAPC  H17R 8456   5.146   3.082   4.824
   89SAPC  H17S 8457   5.071   3.231   4.758
   89SAPC  C218 8458   5.049   3.044   4.635
   89SAPC  H18R 8459   4.951   3.057   4.583
   89SAPC  H18S 8460   5.054   2.937   4.663
   89SAPC  C219 8461   5.179   3.079   4.549
   89SAPC  H19R 8462   5.191   3.189   4.550
   89SAPC  H19S 8463   5.164   3.037   4.447
   89SAPC  C220 8464   5.307   3.022   4.607
   89SAPC  H20R 8465   5.309   3.034   4.717
   89SAPC  H20S 8466   5.398   3.065   4.561
   89SAPC  H20T 8467   5.321   2.912   4.606
   89SAPC   C33 8468   4.777   3.562   6.129
   89SAPC   H3X 8469   4.787   3.638   6.209
   89SAPC   H3Y 8470   4.718   3.611   6.048
   89SAPC   C34 8471   4.912   3.539   6.059
   89SAPC   H4X 8472   4.899   3.456   5.987
   89SAPC   H4Y 8473   4.985   3.495   6.129
   89SAPC   C35 8474   4.962   3.662   5.981
   89SAPC   H5X 8475   5.073   3.664   5.980
   89SAPC   H5Y 8476   4.931   3.756   6.033
   89SAPC   C36 8477   4.902   3.670   5.842
   89SAPC   H6X 8478   4.899   3.775   5.807
   89SAPC   H6Y 8479   4.799   3.629   5.835
   89SAPC   C37 8480   4.994   3.606   5.731
   89SAPC   H7X 8481   5.002   3.497   5.747
   89SAPC   H7Y 8482   5.100   3.637   5.725
   89SAPC   C38 8483   4.950   3.629   5.585
   89SAPC   H8X 8484   4.968   3.738   5.571
   89SAPC   H8Y 8485   4.842   3.605   5.582
   89SAPC   C39 8486   5.023   3.546   5.479
   89SAPC   H9X 8487   5.025   3.440   5.512
   89SAPC   H9Y 8488   5.126   3.586   5.491
   89SAPC  C310 8489   4.990   3.564   5.326
   89SAPC  H10X 8490   5.049   3.488   5.270
   89SAPC  H10Y 8491   5.031   3.662   5.297
   89SAPC  C311 8492   4.842   3.558   5.284
   89SAPC  H11X 8493   4.837   3.590   5.178
   89SAPC  H11Y 8494   4.782   3.632   5.342
   89SAPC  C312 8495   4.790   3.414   5.302
   89SAPC  H12X 8496   4.804   3.387   5.408
   89SAPC  H12Y 8497   4.847   3.341   5.240
   89SAPC  C313 8498   4.644   3.403   5.272
   89SAPC  H13X 8499   4.620   3.416   5.164
   89SAPC  H13Y 8500   4.591   3.485   5.325
   89SAPC  C314 8501   4.580   3.268   5.313
   89SAPC  H14X 8502   4.601   3.243   5.420
   89SAPC  H14Y 8503   4.619   3.177   5.261
   89SAPC  C315 8504   4.429   3.276   5.287
   89SAPC  H15X 8505   4.398   3.286   5.181
   89SAPC  H15Y 8506   4.387   3.374   5.317
   89SAPC  C316 8507   4.354   3.161   5.351
   89SAPC  H16X 8508   4.385   3.140   5.456
   89SAPC  H16Y 8509   4.363   3.064   5.298
   89SAPC  C317 8510   4.201   3.207   5.361
   89SAPC  H17X 8511   4.140   3.179   5.273
   89SAPC  H17Y 8512   4.204   3.317   5.375
   89SAPC  C318 8513   4.128   3.150   5.481
   89SAPC  H18X 8514   4.183   3.128   5.575
   89SAPC  H18Y 8515   4.086   3.051   5.453
   89SAPC  H18Z 8516   4.036   3.204   5.511
   90SAPC     N 8517   2.764   5.666   6.607
   90SAPC   C12 8518   2.839   5.616   6.487
   90SAPC  H12A 8519   2.762   5.585   6.418
   90SAPC  H12B 8520   2.901   5.532   6.512
   90SAPC   C13 8521   2.865   5.712   6.716
   90SAPC  H13A 8522   2.813   5.747   6.804
   90SAPC  H13B 8523   2.924   5.628   6.747
   90SAPC  H13C 8524   2.928   5.789   6.674
   90SAPC   C14 8525   2.682   5.784   6.564
   90SAPC  H14A 8526   2.729   5.852   6.495
   90SAPC  H14B 8527   2.594   5.746   6.513
   90SAPC  H14C 8528   2.650   5.841   6.650
   90SAPC   C15 8529   2.668   5.562   6.659
   90SAPC  H15A 8530   2.591   5.548   6.585
   90SAPC  H15B 8531   2.708   5.464   6.676
   90SAPC  H15C 8532   2.618   5.595   6.750
   90SAPC   C11 8533   2.917   5.723   6.405
   90SAPC  H11A 8534   2.853   5.802   6.359
   90SAPC  H11B 8535   2.965   5.668   6.322
   90SAPC     P 8536   3.128   5.874   6.412
   90SAPC   O13 8537   3.105   6.021   6.434
   90SAPC   O14 8538   3.261   5.825   6.460
   90SAPC   O12 8539   3.018   5.786   6.476
   90SAPC   O11 8540   3.114   5.847   6.255
   90SAPC    C1 8541   3.206   5.759   6.197
   90SAPC    HA 8542   3.204   5.661   6.248
   90SAPC    HB 8543   3.166   5.723   6.100
   90SAPC    C2 8544   3.348   5.812   6.164
   90SAPC    HS 8545   3.385   5.866   6.253
   90SAPC   O21 8546   3.339   5.902   6.054
   90SAPC   C21 8547   3.438   5.997   6.040
   90SAPC   O22 8548   3.532   6.028   6.111
   90SAPC   C22 8549   3.399   6.078   5.919
   90SAPC   H2R 8550   3.362   6.006   5.843
   90SAPC   H2S 8551   3.318   6.153   5.933
   90SAPC    C3 8552   3.458   5.704   6.143
   90SAPC    HX 8553   3.470   5.660   6.245
   90SAPC    HY 8554   3.552   5.758   6.118
   90SAPC   O31 8555   3.419   5.594   6.061
   90SAPC   C31 8556   3.469   5.600   5.934
   90SAPC   O32 8557   3.552   5.679   5.902
   90SAPC   C32 8558   3.400   5.494   5.853
   90SAPC   H2X 8559   3.290   5.490   5.873
   90SAPC   H2Y 8560   3.437   5.398   5.894
   90SAPC   C23 8561   3.516   6.157   5.852
   90SAPC   H3R 8562   3.590   6.193   5.927
   90SAPC   H3S 8563   3.473   6.241   5.794
   90SAPC   C24 8564   3.601   6.064   5.766
   90SAPC   H4R 8565   3.538   5.997   5.704
   90SAPC   H4S 8566   3.659   6.004   5.839
   90SAPC   C25 8567   3.695   6.157   5.699
   90SAPC   H5R 8568   3.770   6.188   5.773
   90SAPC   C26 8569   3.687   6.216   5.578
   90SAPC   H6R 8570   3.770   6.279   5.544
   90SAPC   C27 8571   3.582   6.185   5.474
   90SAPC   H7R 8572   3.576   6.268   5.400
   90SAPC   H7S 8573   3.484   6.184   5.526
   90SAPC   C28 8574   3.614   6.057   5.393
   90SAPC   H8R 8575   3.710   6.006   5.414
   90SAPC   C29 8576   3.526   6.003   5.304
   90SAPC   H9R 8577   3.548   5.909   5.252
   90SAPC  C210 8578   3.391   6.066   5.276
   90SAPC  H10R 8579   3.384   6.169   5.317
   90SAPC  H10S 8580   3.323   6.008   5.343
   90SAPC  C211 8581   3.342   6.070   5.132
   90SAPC  H11R 8582   3.382   5.992   5.066
   90SAPC  C212 8583   3.261   6.163   5.080
   90SAPC  H12R 8584   3.242   6.162   4.971
   90SAPC  C213 8585   3.205   6.293   5.139
   90SAPC  H13R 8586   3.222   6.288   5.249
   90SAPC  H13S 8587   3.094   6.300   5.132
   90SAPC  C214 8588   3.270   6.419   5.090
   90SAPC  H14R 8589   3.337   6.468   5.162
   90SAPC  C215 8590   3.236   6.493   4.986
   90SAPC  H15R 8591   3.286   6.588   4.961
   90SAPC  C216 8592   3.127   6.442   4.884
   90SAPC  H16R 8593   3.091   6.340   4.908
   90SAPC  H16S 8594   3.171   6.441   4.782
   90SAPC  C217 8595   3.012   6.537   4.894
   90SAPC  H17R 8596   3.032   6.640   4.858
   90SAPC  H17S 8597   2.971   6.561   4.995
   90SAPC  C218 8598   2.883   6.481   4.826
   90SAPC  H18R 8599   2.874   6.378   4.868
   90SAPC  H18S 8600   2.900   6.482   4.716
   90SAPC  C219 8601   2.752   6.549   4.876
   90SAPC  H19R 8602   2.719   6.525   4.980
   90SAPC  H19S 8603   2.662   6.509   4.825
   90SAPC  C220 8604   2.754   6.700   4.850
   90SAPC  H20R 8605   2.661   6.741   4.895
   90SAPC  H20S 8606   2.748   6.735   4.744
   90SAPC  H20T 8607   2.840   6.748   4.902
   90SAPC   C33 8608   3.442   5.500   5.712
   90SAPC   H3X 8609   3.407   5.408   5.660
   90SAPC   H3Y 8610   3.553   5.509   5.714
   90SAPC   C34 8611   3.386   5.613   5.627
   90SAPC   H4X 8612   3.432   5.709   5.661
   90SAPC   H4Y 8613   3.275   5.622   5.634
   90SAPC   C35 8614   3.389   5.582   5.480
   90SAPC   H5X 8615   3.335   5.488   5.458
   90SAPC   H5Y 8616   3.497   5.575   5.454
   90SAPC   C36 8617   3.330   5.692   5.394
   90SAPC   H6X 8618   3.378   5.789   5.418
   90SAPC   H6Y 8619   3.222   5.700   5.416
   90SAPC   C37 8620   3.352   5.688   5.244
   90SAPC   H7X 8621   3.454   5.656   5.213
   90SAPC   H7Y 8622   3.343   5.790   5.203
   90SAPC   C38 8623   3.251   5.591   5.177
   90SAPC   H8X 8624   3.151   5.623   5.215
   90SAPC   H8Y 8625   3.278   5.491   5.216
   90SAPC   C39 8626   3.251   5.594   5.020
   90SAPC   H9X 8627   3.184   5.516   4.977
   90SAPC   H9Y 8628   3.351   5.561   4.983
   90SAPC  C310 8629   3.220   5.727   4.955
   90SAPC  H10X 8630   3.294   5.805   4.982
   90SAPC  H10Y 8631   3.118   5.758   4.988
   90SAPC  C311 8632   3.230   5.729   4.799
   90SAPC  H11X 8633   3.334   5.707   4.767
   90SAPC  H11Y 8634   3.207   5.832   4.767
   90SAPC  C312 8635   3.127   5.645   4.725
   90SAPC  H12X 8636   3.025   5.662   4.763
   90SAPC  H12Y 8637   3.146   5.540   4.756
   90SAPC  C313 8638   3.131   5.667   4.572
   90SAPC  H13X 8639   3.231   5.637   4.532
   90SAPC  H13Y 8640   3.133   5.777   4.556
   90SAPC  C314 8641   3.019   5.594   4.499
   90SAPC  H14X 8642   2.919   5.621   4.539
   90SAPC  H14Y 8643   3.031   5.484   4.512
   90SAPC  C315 8644   3.011   5.624   4.345
   90SAPC  H15X 8645   3.096   5.577   4.290
   90SAPC  H15Y 8646   3.013   5.734   4.331
   90SAPC  C316 8647   2.890   5.573   4.268
   90SAPC  H16X 8648   2.802   5.615   4.322
   90SAPC  H16Y 8649   2.878   5.464   4.279
   90SAPC  C317 8650   2.878   5.617   4.120
   90SAPC  H17X 8651   2.968   5.578   4.068
   90SAPC  H17Y 8652   2.876   5.728   4.118
   90SAPC  C318 8653   2.755   5.558   4.052
   90SAPC  H18X 8654   2.750   5.605   3.951
   90SAPC  H18Y 8655   2.660   5.577   4.105
   90SAPC  H18Z 8656   2.777   5.453   4.026
   91SAPC     N 8657   0.213   5.183   7.063
   91SAPC   C12 8658   0.286   5.307   7.022
   91SAPC  H12A 8659   0.389   5.286   7.000
   91SAPC  H12B 8660   0.282   5.381   7.100
   91SAPC   C13 8661   0.079   5.209   7.119
   91SAPC  H13A 8662   0.083   5.290   7.190
   91SAPC  H13B 8663   0.015   5.248   7.041
   91SAPC  H13C 8664   0.032   5.124   7.166
   91SAPC   C14 8665   0.194   5.082   6.944
   91SAPC  H14A 8666   0.278   5.077   6.876
   91SAPC  H14B 8667   0.187   4.982   6.985
   91SAPC  H14C 8668   0.098   5.101   6.898
   91SAPC   C15 8669   0.289   5.111   7.167
   91SAPC  H15A 8670   0.390   5.094   7.133
   91SAPC  H15B 8671   0.287   5.152   7.267
   91SAPC  H15C 8672   0.250   5.011   7.173
   91SAPC   C11 8673   0.219   5.397   6.910
   91SAPC  H11A 8674   0.211   5.346   6.811
   91SAPC  H11B 8675   0.298   5.475   6.900
   91SAPC     P 8676   0.081   5.571   7.040
   91SAPC   O13 8677   6.843   5.550   7.134
   91SAPC   O14 8678   0.206   5.603   7.105
   91SAPC   O12 8679   0.095   5.447   6.948
   91SAPC   O11 8680   0.044   5.670   6.932
   91SAPC    C1 8681   0.151   5.726   6.856
   91SAPC    HA 8682   0.152   5.836   6.867
   91SAPC    HB 8683   0.253   5.689   6.881
   91SAPC    C2 8684   0.124   5.703   6.701
   91SAPC    HS 8685   0.104   5.593   6.700
   91SAPC   O21 8686   0.247   5.738   6.634
   91SAPC   C21 8687   0.275   5.681   6.517
   91SAPC   O22 8688   0.221   5.582   6.463
   91SAPC   C22 8689   0.399   5.752   6.473
   91SAPC   H2R 8690   0.389   5.859   6.503
   91SAPC   H2S 8691   0.488   5.702   6.516
   91SAPC    C3 8692   0.005   5.791   6.656
   91SAPC    HX 8693   0.029   5.895   6.686
   91SAPC    HY 8694   6.796   5.761   6.719
   91SAPC   O31 8695   6.866   5.784   6.514
   91SAPC   C31 8696   6.778   5.695   6.464
   91SAPC   O32 8697   6.733   5.602   6.533
   91SAPC   C32 8698   6.745   5.724   6.320
   91SAPC   H2X 8699   6.732   5.833   6.302
   91SAPC   H2Y 8700   6.641   5.690   6.299
   91SAPC   C23 8701   0.404   5.752   6.325
   91SAPC   H3R 8702   0.314   5.807   6.288
   91SAPC   H3S 8703   0.392   5.650   6.283
   91SAPC   C24 8704   0.526   5.825   6.277
   91SAPC   H4R 8705   0.621   5.787   6.320
   91SAPC   H4S 8706   0.504   5.931   6.299
   91SAPC   C25 8707   0.541   5.800   6.128
   91SAPC   H5R 8708   0.629   5.740   6.103
   91SAPC   C26 8709   0.461   5.844   6.027
   91SAPC   H6R 8710   0.494   5.815   5.926
   91SAPC   C27 8711   0.326   5.905   6.044
   91SAPC   H7R 8712   0.322   5.952   6.145
   91SAPC   H7S 8713   0.248   5.826   6.043
   91SAPC   C28 8714   0.299   6.012   5.932
   91SAPC   H8R 8715   0.377   6.090   5.922
   91SAPC   C29 8716   0.186   6.018   5.855
   91SAPC   H9R 8717   0.189   6.087   5.769
   91SAPC  C210 8718   0.069   5.920   5.864
   91SAPC  H10R 8719   0.071   5.866   5.961
   91SAPC  H10S 8720   0.069   5.846   5.781
   91SAPC  C211 8721   6.811   5.993   5.868
   91SAPC  H11R 8722   6.772   6.022   5.967
   91SAPC  C212 8723   6.750   6.046   5.760
   91SAPC  H12R 8724   6.650   6.090   5.772
   91SAPC  C213 8725   6.800   6.040   5.621
   91SAPC  H13R 8726   6.739   5.964   5.569
   91SAPC  H13S 8727   0.029   6.008   5.624
   91SAPC  C214 8728   6.779   6.174   5.555
   91SAPC  H14R 8729   6.755   6.252   5.628
   91SAPC  C215 8730   6.770   6.197   5.424
   91SAPC  H15R 8731   6.734   6.292   5.383
   91SAPC  C216 8732   6.802   6.095   5.319
   91SAPC  H16R 8733   6.730   6.012   5.333
   91SAPC  H16S 8734   0.028   6.058   5.333
   91SAPC  C217 8735   6.799   6.156   5.179
   91SAPC  H17R 8736   6.832   6.080   5.104
   91SAPC  H17S 8737   0.009   6.225   5.173
   91SAPC  C218 8738   6.671   6.221   5.130
   91SAPC  H18R 8739   6.607   6.279   5.200
   91SAPC  H18S 8740   6.607   6.137   5.094
   91SAPC  C219 8741   6.704   6.306   5.005
   91SAPC  H19R 8742   6.745   6.244   4.923
   91SAPC  H19S 8743   6.774   6.392   5.019
   91SAPC  C220 8744   6.576   6.377   4.954
   91SAPC  H20R 8745   6.543   6.449   5.032
   91SAPC  H20S 8746   6.496   6.305   4.925
   91SAPC  H20T 8747   6.598   6.436   4.862
   91SAPC   C33 8748   6.849   5.673   6.212
   91SAPC   H3X 8749   0.078   5.688   6.240
   91SAPC   H3Y 8750   6.843   5.746   6.128
   91SAPC   C34 8751   6.824   5.531   6.160
   91SAPC   H4X 8752   6.724   5.496   6.194
   91SAPC   H4Y 8753   0.021   5.464   6.206
   91SAPC   C35 8754   6.843   5.510   6.003
   91SAPC   H5X 8755   6.851   5.400   5.993
   91SAPC   H5Y 8756   0.064   5.550   5.970
   91SAPC   C36 8757   6.738   5.573   5.909
   91SAPC   H6X 8758   6.716   5.676   5.943
   91SAPC   H6Y 8759   6.640   5.524   5.928
   91SAPC   C37 8760   6.782   5.562   5.765
   91SAPC   H7X 8761   6.805   5.455   5.747
   91SAPC   H7Y 8762   6.875   5.620   5.750
   91SAPC   C38 8763   6.662   5.587   5.671
   91SAPC   H8X 8764   6.627   5.690   5.695
   91SAPC   H8Y 8765   6.584   5.515   5.702
   91SAPC   C39 8766   6.719   5.579   5.529
   91SAPC   H9X 8767   6.709   5.477   5.486
   91SAPC   H9Y 8768   6.826   5.605   5.539
   91SAPC  C310 8769   6.652   5.678   5.428
   91SAPC  H10X 8770   6.670   5.780   5.467
   91SAPC  H10Y 8771   6.542   5.669   5.413
   91SAPC  C311 8772   6.716   5.667   5.288
   91SAPC  H11X 8773   6.703   5.566   5.243
   91SAPC  H11Y 8774   6.826   5.679   5.291
   91SAPC  C312 8775   6.653   5.763   5.189
   91SAPC  H12X 8776   6.631   5.865   5.227
   91SAPC  H12Y 8777   6.555   5.718   5.162
   91SAPC  C313 8778   6.740   5.774   5.057
   91SAPC  H13X 8779   6.756   5.667   5.032
   91SAPC  H13Y 8780   6.838   5.822   5.078
   91SAPC  C314 8781   6.676   5.857   4.940
   91SAPC  H14X 8782   6.753   5.871   4.861
   91SAPC  H14Y 8783   6.658   5.959   4.981
   91SAPC  C315 8784   6.549   5.787   4.889
   91SAPC  H15X 8785   6.480   5.763   4.973
   91SAPC  H15Y 8786   6.586   5.688   4.857
   91SAPC  C316 8787   6.476   5.865   4.780
   91SAPC  H16X 8788   6.404   5.798   4.729
   91SAPC  H16Y 8789   6.565   5.897   4.723
   91SAPC  C317 8790   6.407   5.995   4.825
   91SAPC  H17X 8791   6.478   6.061   4.879
   91SAPC  H17Y 8792   6.327   5.966   4.897
   91SAPC  C318 8793   6.336   6.079   4.716
   91SAPC  H18X 8794   6.279   6.016   4.644
   91SAPC  H18Y 8795   6.423   6.120   4.661
   91SAPC  H18Z 8796   6.267   6.160   4.750
   92SAPC     N 8797   6.108   4.874   6.520
   92SAPC   C12 8798   6.231   4.898   6.603
   92SAPC  H12A 8799   6.223   4.990   6.659
   92SAPC  H12B 8800   6.315   4.895   6.535
   92SAPC   C13 8801   5.989   4.876   6.616
   92SAPC  H13A 8802   5.898   4.834   6.574
   92SAPC  H13B 8803   6.002   4.813   6.703
   92SAPC  H13C 8804   5.956   4.977   6.636
   92SAPC   C14 8805   6.104   4.992   6.424
   92SAPC  H14A 8806   6.093   5.082   6.483
   92SAPC  H14B 8807   6.184   4.990   6.351
   92SAPC  H14C 8808   6.014   4.990   6.365
   92SAPC   C15 8809   6.105   4.744   6.452
   92SAPC  H15A 8810   6.020   4.730   6.387
   92SAPC  H15B 8811   6.184   4.736   6.379
   92SAPC  H15C 8812   6.123   4.662   6.521
   92SAPC   C11 8813   6.265   4.789   6.701
   92SAPC  H11A 8814   6.280   4.687   6.658
   92SAPC  H11B 8815   6.178   4.794   6.770
   92SAPC     P 8816   6.525   4.777   6.759
   92SAPC   O13 8817   6.619   4.866   6.834
   92SAPC   O14 8818   6.532   4.630   6.781
   92SAPC   O12 8819   6.378   4.820   6.784
   92SAPC   O11 8820   6.542   4.804   6.606
   92SAPC    C1 8821   6.563   4.942   6.556
   92SAPC    HA 8822   6.472   5.004   6.554
   92SAPC    HB 8823   6.645   5.001   6.601
   92SAPC    C2 8824   6.631   4.937   6.413
   92SAPC    HS 8825   6.610   5.040   6.377
   92SAPC   O21 8826   6.572   4.840   6.318
   92SAPC   C21 8827   6.449   4.868   6.277
   92SAPC   O22 8828   6.374   4.956   6.317
   92SAPC   C22 8829   6.397   4.764   6.171
   92SAPC   H2R 8830   6.477   4.752   6.095
   92SAPC   H2S 8831   6.384   4.668   6.226
   92SAPC    C3 8832   6.780   4.910   6.425
   92SAPC    HX 8833   6.813   4.819   6.478
   92SAPC    HY 8834   6.829   4.996   6.476
   92SAPC   O31 8835   6.833   4.901   6.284
   92SAPC   C31 8836   6.852   5.018   6.215
   92SAPC   O32 8837   6.828   5.130   6.254
   92SAPC   C32 8838   0.017   4.969   6.072
   92SAPC   H2X 8839   6.822   4.897   6.029
   92SAPC   H2Y 8840   0.117   4.922   6.079
   92SAPC   C23 8841   6.264   4.799   6.101
   92SAPC   H3R 8842   6.271   4.888   6.035
   92SAPC   H3S 8843   6.191   4.821   6.182
   92SAPC   C24 8844   6.216   4.703   5.993
   92SAPC   H4R 8845   6.118   4.736   5.952
   92SAPC   H4S 8846   6.193   4.607   6.045
   92SAPC   C25 8847   6.317   4.671   5.892
   92SAPC   H5R 8848   6.399   4.607   5.928
   92SAPC   C26 8849   6.298   4.705   5.758
   92SAPC   H6R 8850   6.379   4.675   5.690
   92SAPC   C27 8851   6.176   4.768   5.696
   92SAPC   H7R 8852   6.113   4.826   5.767
   92SAPC   H7S 8853   6.105   4.694   5.654
   92SAPC   C28 8854   6.222   4.866   5.591
   92SAPC   H8R 8855   6.279   4.949   5.635
   92SAPC   C29 8856   6.181   4.879   5.462
   92SAPC   H9R 8857   6.231   4.956   5.401
   92SAPC  C210 8858   6.092   4.785   5.391
   92SAPC  H10R 8859   6.036   4.727   5.467
   92SAPC  H10S 8860   6.148   4.707   5.334
   92SAPC  C211 8861   6.000   4.856   5.293
   92SAPC  H11R 8862   5.910   4.895   5.343
   92SAPC  C212 8863   6.000   4.841   5.155
   92SAPC  H12R 8864   5.916   4.883   5.097
   92SAPC  C213 8865   6.114   4.768   5.074
   92SAPC  H13R 8866   6.081   4.757   4.968
   92SAPC  H13S 8867   6.131   4.661   5.097
   92SAPC  C214 8868   6.251   4.837   5.080
   92SAPC  H14R 8869   6.256   4.935   5.129
   92SAPC  C215 8870   6.362   4.786   5.027
   92SAPC  H15R 8871   6.453   4.847   5.033
   92SAPC  C216 8872   6.382   4.663   4.940
   92SAPC  H16R 8873   6.296   4.598   4.965
   92SAPC  H16S 8874   6.481   4.620   4.968
   92SAPC  C217 8875   6.376   4.681   4.787
   92SAPC  H17R 8876   6.455   4.757   4.769
   92SAPC  H17S 8877   6.275   4.720   4.764
   92SAPC  C218 8878   6.394   4.551   4.707
   92SAPC  H18R 8879   6.490   4.504   4.739
   92SAPC  H18S 8880   6.414   4.552   4.598
   92SAPC  C219 8881   6.279   4.452   4.711
   92SAPC  H19R 8882   6.191   4.501   4.665
   92SAPC  H19S 8883   6.263   4.431   4.819
   92SAPC  C220 8884   6.299   4.331   4.622
   92SAPC  H20R 8885   6.390   4.345   4.561
   92SAPC  H20S 8886   6.217   4.329   4.547
   92SAPC  H20T 8887   6.299   4.235   4.678
   92SAPC   C33 8888   0.033   5.088   5.975
   92SAPC   H3X 8889   0.114   5.157   6.007
   92SAPC   H3Y 8890   6.824   5.157   5.979
   92SAPC   C34 8891   0.048   5.050   5.824
   92SAPC   H4X 8892   6.823   5.020   5.793
   92SAPC   H4Y 8893   0.117   4.963   5.816
   92SAPC   C35 8894   0.093   5.164   5.735
   92SAPC   H5X 8895   0.202   5.153   5.721
   92SAPC   H5Y 8896   0.066   5.263   5.778
   92SAPC   C36 8897   0.028   5.152   5.596
   92SAPC   H6X 8898   6.795   5.143   5.595
   92SAPC   H6Y 8899   0.062   5.060   5.544
   92SAPC   C37 8900   0.073   5.274   5.514
   92SAPC   H7X 8901   0.183   5.274   5.503
   92SAPC   H7Y 8902   0.051   5.371   5.564
   92SAPC   C38 8903   0.012   5.260   5.374
   92SAPC   H8X 8904   6.780   5.249   5.378
   92SAPC   H8Y 8905   0.049   5.165   5.330
   92SAPC   C39 8906   0.068   5.368   5.277
   92SAPC   H9X 8907   0.178   5.370   5.286
   92SAPC   H9Y 8908   0.028   5.464   5.314
   92SAPC  C310 8909   0.031   5.346   5.131
   92SAPC  H10X 8910   6.800   5.362   5.140
   92SAPC  H10Y 8911   0.051   5.238   5.114
   92SAPC  C311 8912   0.094   5.452   5.037
   92SAPC  H11X 8913   0.200   5.427   5.019
   92SAPC  H11Y 8914   0.082   5.553   5.082
   92SAPC  C312 8915   0.033   5.456   4.891
   92SAPC  H12X 8916   6.800   5.465   4.893
   92SAPC  H12Y 8917   0.074   5.363   4.848
   92SAPC  C313 8918   0.068   5.575   4.816
   92SAPC  H13X 8919   0.176   5.600   4.821
   92SAPC  H13Y 8920   0.003   5.658   4.850
   92SAPC  C314 8921   0.035   5.551   4.664
   92SAPC  H14X 8922   6.802   5.545   4.660
   92SAPC  H14Y 8923   0.078   5.451   4.639
   92SAPC  C315 8924   0.074   5.673   4.580
   92SAPC  H15X 8925   0.065   5.656   4.471
   92SAPC  H15Y 8926   0.178   5.710   4.593
   92SAPC  C316 8927   6.863   5.793   4.617
   92SAPC  H16X 8928   0.032   5.831   4.711
   92SAPC  H16Y 8929   6.766   5.751   4.650
   92SAPC  C317 8930   6.858   5.897   4.512
   92SAPC  H17X 8931   6.798   5.860   4.426
   92SAPC  H17Y 8932   0.081   5.913   4.469
   92SAPC  C318 8933   6.798   6.034   4.550
   92SAPC  H18X 8934   6.857   6.097   4.620
   92SAPC  H18Y 8935   6.692   6.029   4.582
   92SAPC  H18Z 8936   6.791   6.084   4.451
   93SAPC     N 8937   1.098   6.195   6.668
   93SAPC   C12 8938   1.210   6.296   6.635
   93SAPC  H12A 8939   1.306   6.254   6.658
   93SAPC  H12B 8940   1.192   6.379   6.702
   93SAPC   C13 8941   1.064   6.116   6.544
   93SAPC  H13A 8942   1.034   6.178   6.461
   93SAPC  H13B 8943   1.145   6.051   6.513
   93SAPC  H13C 8944   0.983   6.048   6.566
   93SAPC   C14 8945   1.147   6.103   6.780
   93SAPC  H14A 8946   1.203   6.158   6.854
   93SAPC  H14B 8947   1.067   6.047   6.827
   93SAPC  H14C 8948   1.224   6.039   6.740
   93SAPC   C15 8949   0.989   6.271   6.720
   93SAPC  H15A 8950   1.001   6.337   6.805
   93SAPC  H15B 8951   0.961   6.336   6.639
   93SAPC  H15C 8952   0.905   6.207   6.744
   93SAPC   C11 8953   1.211   6.355   6.489
   93SAPC  H11A 8954   1.105   6.388   6.488
   93SAPC  H11B 8955   1.222   6.274   6.414
   93SAPC     P 8956   1.302   6.598   6.501
   93SAPC   O13 8957   1.174   6.641   6.565
   93SAPC   O14 8958   1.426   6.620   6.582
   93SAPC   O12 8959   1.313   6.447   6.479
   93SAPC   O11 8960   1.308   6.658   6.358
   93SAPC    C1 8961   1.429   6.661   6.290
   93SAPC    HA 8962   1.489   6.753   6.312
   93SAPC    HB 8963   1.496   6.581   6.329
   93SAPC    C2 8964   1.410   6.648   6.135
   93SAPC    HS 8965   1.509   6.642   6.086
   93SAPC   O21 8966   1.330   6.758   6.080
   93SAPC   C21 8967   1.389   0.002   6.066
   93SAPC   O22 8968   1.507   0.030   6.092
   93SAPC   C22 8969   1.292   0.100   6.002
   93SAPC   H2R 8970   1.200   0.092   6.063
   93SAPC   H2S 8971   1.332   0.203   6.009
   93SAPC    C3 8972   1.331   6.513   6.105
   93SAPC    HX 8973   1.238   6.520   6.164
   93SAPC    HY 8974   1.395   6.441   6.160
   93SAPC   O31 8975   1.318   6.483   5.967
   93SAPC   C31 8976   1.269   6.361   5.951
   93SAPC   O32 8977   1.248   6.273   6.036
   93SAPC   C32 8978   1.246   6.340   5.800
   93SAPC   H2X 8979   1.349   6.335   5.759
   93SAPC   H2Y 8980   1.190   6.424   5.753
   93SAPC   C23 8981   1.236   0.069   5.864
   93SAPC   H3R 8982   1.153   0.143   5.856
   93SAPC   H3S 8983   1.200   6.842   5.870
   93SAPC   C24 8984   1.340   0.089   5.753
   93SAPC   H4R 8985   1.417   0.009   5.761
   93SAPC   H4S 8986   1.393   0.185   5.771
   93SAPC   C25 8987   1.283   0.076   5.612
   93SAPC   H5R 8988   1.270   0.172   5.561
   93SAPC   C26 8989   1.236   6.847   5.554
   93SAPC   H6R 8990   1.190   6.863   5.455
   93SAPC   C27 8991   1.250   6.707   5.603
   93SAPC   H7R 8992   1.165   6.673   5.666
   93SAPC   H7S 8993   1.343   6.698   5.663
   93SAPC   C28 8994   1.256   6.603   5.495
   93SAPC   H8R 8995   1.159   6.568   5.457
   93SAPC   C29 8996   1.368   6.536   5.445
   93SAPC   H9R 8997   1.355   6.470   5.358
   93SAPC  C210 8998   1.511   6.546   5.487
   93SAPC  H10R 8999   1.549   6.442   5.488
   93SAPC  H10S 9000   1.504   6.579   5.593
   93SAPC  C211 9001   1.595   6.637   5.399
   93SAPC  H11R 9002   1.613   6.735   5.446
   93SAPC  C212 9003   1.646   6.608   5.283
   93SAPC  H12R 9004   1.689   6.691   5.225
   93SAPC  C213 9005   1.643   6.475   5.199
   93SAPC  H13R 9006   1.618   6.386   5.260
   93SAPC  H13S 9007   1.744   6.453   5.156
   93SAPC  C214 9008   1.528   6.484   5.095
   93SAPC  H14R 9009   1.432   6.468   5.147
   93SAPC  C215 9010   1.538   6.509   4.968
   93SAPC  H15R 9011   1.445   6.505   4.908
   93SAPC  C216 9012   1.668   6.532   4.890
   93SAPC  H16R 9013   1.755   6.536   4.959
   93SAPC  H16S 9014   1.655   6.628   4.835
   93SAPC  C217 9015   1.706   6.417   4.798
   93SAPC  H17R 9016   1.690   6.325   4.859
   93SAPC  H17S 9017   1.810   6.424   4.761
   93SAPC  C218 9018   1.608   6.412   4.675
   93SAPC  H18R 9019   1.627   6.501   4.611
   93SAPC  H18S 9020   1.501   6.408   4.706
   93SAPC  C219 9021   1.634   6.292   4.586
   93SAPC  H19R 9022   1.567   6.213   4.628
   93SAPC  H19S 9023   1.742   6.267   4.592
   93SAPC  C220 9024   1.585   6.312   4.441
   93SAPC  H20R 9025   1.476   6.334   4.432
   93SAPC  H20S 9026   1.583   6.210   4.396
   93SAPC  H20T 9027   1.644   6.382   4.378
   93SAPC   C33 9028   1.164   6.208   5.779
   93SAPC   H3X 9029   1.080   6.209   5.852
   93SAPC   H3Y 9030   1.215   6.109   5.786
   93SAPC   C34 9031   1.101   6.220   5.639
   93SAPC   H4X 9032   1.056   6.321   5.633
   93SAPC   H4Y 9033   1.015   6.151   5.623
   93SAPC   C35 9034   1.198   6.195   5.526
   93SAPC   H5X 9035   1.228   6.088   5.528
   93SAPC   H5Y 9036   1.289   6.257   5.541
   93SAPC   C36 9037   1.139   6.212   5.389
   93SAPC   H6X 9038   1.072   6.301   5.395
   93SAPC   H6Y 9039   1.060   6.135   5.376
   93SAPC   C37 9040   1.234   6.203   5.265
   93SAPC   H7X 9041   1.269   6.098   5.253
   93SAPC   H7Y 9042   1.328   6.261   5.277
   93SAPC   C38 9043   1.147   6.235   5.136
   93SAPC   H8X 9044   1.113   6.341   5.142
   93SAPC   H8Y 9045   1.063   6.163   5.140
   93SAPC   C39 9046   1.237   6.222   5.012
   93SAPC   H9X 9047   1.311   6.142   5.031
   93SAPC   H9Y 9048   1.301   6.313   5.007
   93SAPC  C310 9049   1.161   6.213   4.878
   93SAPC  H10X 9050   1.094   6.302   4.874
   93SAPC  H10Y 9051   1.102   6.120   4.875
   93SAPC  C311 9052   1.249   6.228   4.758
   93SAPC  H11X 9053   1.335   6.158   4.769
   93SAPC  H11Y 9054   1.282   6.334   4.751
   93SAPC  C312 9055   1.167   6.206   4.628
   93SAPC  H12X 9056   1.069   6.259   4.634
   93SAPC  H12Y 9057   1.141   6.099   4.616
   93SAPC  C313 9058   1.230   6.253   4.502
   93SAPC  H13X 9059   1.322   6.195   4.481
   93SAPC  H13Y 9060   1.245   6.363   4.497
   93SAPC  C314 9061   1.147   6.206   4.382
   93SAPC  H14X 9062   1.051   6.261   4.374
   93SAPC  H14Y 9063   1.122   6.098   4.386
   93SAPC  C315 9064   1.213   6.228   4.244
   93SAPC  H15X 9065   1.137   6.191   4.172
   93SAPC  H15Y 9066   1.305   6.167   4.233
   93SAPC  C316 9067   1.246   6.378   4.207
   93SAPC  H16X 9068   1.278   6.386   4.101
   93SAPC  H16Y 9069   1.339   6.402   4.263
   93SAPC  C317 9070   1.114   6.462   4.217
   93SAPC  H17X 9071   1.071   6.461   4.320
   93SAPC  H17Y 9072   1.043   6.417   4.144
   93SAPC  C318 9073   1.135   6.609   4.165
   93SAPC  H18X 9074   1.195   6.664   4.241
   93SAPC  H18Y 9075   1.029   6.642   4.157
   93SAPC  H18Z 9076   1.185   6.617   4.066
   94SAPC     N 9077   6.800   4.559   7.301
   94SAPC   C12 9078   6.759   4.596   7.160
   94SAPC  H12A 9079   6.762   4.700   7.130
   94SAPC  H12B 9080   6.653   4.581   7.162
   94SAPC   C13 9081   0.069   4.567   7.303
   94SAPC  H13A 9082   0.111   4.666   7.302
   94SAPC  H13B 9083   0.101   4.511   7.390
   94SAPC  H13C 9084   0.101   4.525   7.209
   94SAPC   C14 9085   6.744   4.644   7.414
   94SAPC  H14A 9086   6.774   4.746   7.392
   94SAPC  H14B 9087   6.638   4.634   7.428
   94SAPC  H14C 9088   6.786   4.621   7.511
   94SAPC   C15 9089   6.773   4.412   7.319
   94SAPC  H15A 9090   6.801   4.381   7.418
   94SAPC  H15B 9091   6.665   4.399   7.318
   94SAPC  H15C 9092   6.817   4.351   7.242
   94SAPC   C11 9093   6.819   4.519   7.032
   94SAPC  H11A 9094   6.764   4.530   6.936
   94SAPC  H11B 9095   6.799   4.412   7.056
   94SAPC     P 9096   0.134   4.678   6.960
   94SAPC   O13 9097   0.099   4.773   7.069
   94SAPC   O14 9098   0.282   4.669   6.923
   94SAPC   O12 9099   0.078   4.539   7.003
   94SAPC   O11 9100   0.051   4.709   6.827
   94SAPC    C1 9101   0.069   4.625   6.713
   94SAPC    HA 9102   0.073   4.515   6.733
   94SAPC    HB 9103   6.855   4.645   6.654
   94SAPC    C2 9104   0.191   4.669   6.629
   94SAPC    HS 9105   0.279   4.660   6.696
   94SAPC   O21 9106   0.169   4.801   6.583
   94SAPC   C21 9107   0.278   4.853   6.538
   94SAPC   O22 9108   0.389   4.812   6.559
   94SAPC   C22 9109   0.248   4.970   6.445
   94SAPC   H2R 9110   0.218   4.931   6.346
   94SAPC   H2S 9111   0.173   5.031   6.500
   94SAPC    C3 9112   0.211   4.560   6.517
   94SAPC    HX 9113   0.227   4.474   6.585
   94SAPC    HY 9114   0.307   4.579   6.464
   94SAPC   O31 9115   0.092   4.546   6.437
   94SAPC   C31 9116   0.096   4.590   6.309
   94SAPC   O32 9117   0.197   4.640   6.257
   94SAPC   C32 9118   6.842   4.552   6.241
   94SAPC   H2X 9119   6.767   4.623   6.281
   94SAPC   H2Y 9120   6.812   4.450   6.273
   94SAPC   C23 9121   0.373   5.061   6.424
   94SAPC   H3R 9122   0.447   5.015   6.355
   94SAPC   H3S 9123   0.436   5.068   6.516
   94SAPC   C24 9124   0.338   5.205   6.369
   94SAPC   H4R 9125   0.275   5.265   6.438
   94SAPC   H4S 9126   0.283   5.193   6.274
   94SAPC   C25 9127   0.460   5.285   6.340
   94SAPC   H5R 9128   0.541   5.261   6.411
   94SAPC   C26 9129   0.489   5.375   6.242
   94SAPC   H6R 9130   0.579   5.438   6.243
   94SAPC   C27 9131   0.385   5.428   6.140
   94SAPC   H7R 9132   0.421   5.528   6.107
   94SAPC   H7S 9133   0.289   5.446   6.193
   94SAPC   C28 9134   0.358   5.341   6.021
   94SAPC   H8R 9135   0.349   5.234   6.046
   94SAPC   C29 9136   0.318   5.382   5.898
   94SAPC   H9R 9137   0.315   5.298   5.827
   94SAPC  C210 9138   0.303   5.514   5.836
   94SAPC  H10R 9139   0.316   5.583   5.922
   94SAPC  H10S 9140   0.204   5.525   5.788
   94SAPC  C211 9141   0.412   5.550   5.735
   94SAPC  H11R 9142   0.514   5.512   5.753
   94SAPC  C212 9143   0.410   5.632   5.628
   94SAPC  H12R 9144   0.501   5.642   5.566
   94SAPC  C213 9145   0.297   5.718   5.574
   94SAPC  H13R 9146   0.341   5.820   5.578
   94SAPC  H13S 9147   0.211   5.718   5.645
   94SAPC  C214 9148   0.237   5.679   5.440
   94SAPC  H14R 9149   0.173   5.590   5.438
   94SAPC  C215 9150   0.252   5.753   5.326
   94SAPC  H15R 9151   0.203   5.721   5.233
   94SAPC  C216 9152   0.334   5.876   5.305
   94SAPC  H16R 9153   0.442   5.848   5.309
   94SAPC  H16S 9154   0.327   5.951   5.387
   94SAPC  C217 9155   0.299   5.940   5.170
   94SAPC  H17R 9156   0.334   6.046   5.170
   94SAPC  H17S 9157   0.188   5.951   5.165
   94SAPC  C218 9158   0.343   5.852   5.049
   94SAPC  H18R 9159   0.315   5.749   5.078
   94SAPC  H18S 9160   0.451   5.870   5.030
   94SAPC  C219 9161   0.272   5.886   4.913
   94SAPC  H19R 9162   0.172   5.838   4.919
   94SAPC  H19S 9163   0.330   5.830   4.836
   94SAPC  C220 9164   0.260   6.030   4.875
   94SAPC  H20R 9165   0.231   6.032   4.768
   94SAPC  H20S 9166   0.358   6.082   4.885
   94SAPC  H20T 9167   0.183   6.084   4.934
   94SAPC   C33 9168   6.862   4.569   6.093
   94SAPC   H3X 9169   0.051   4.497   6.042
   94SAPC   H3Y 9170   0.042   4.661   6.068
   94SAPC   C34 9171   6.728   4.565   6.021
   94SAPC   H4X 9172   6.664   4.654   6.039
   94SAPC   H4Y 9173   6.668   4.478   6.057
   94SAPC   C35 9174   6.747   4.550   5.865
   94SAPC   H5X 9175   6.685   4.463   5.834
   94SAPC   H5Y 9176   6.853   4.529   5.840
   94SAPC   C36 9177   6.715   4.682   5.794
   94SAPC   H6X 9178   6.800   4.753   5.806
   94SAPC   H6Y 9179   6.628   4.730   5.844
   94SAPC   C37 9180   6.695   4.668   5.638
   94SAPC   H7X 9181   6.613   4.595   5.625
   94SAPC   H7Y 9182   6.790   4.618   5.613
   94SAPC   C38 9183   6.681   4.802   5.556
   94SAPC   H8X 9184   6.774   4.854   5.585
   94SAPC   H8Y 9185   6.597   4.866   5.592
   94SAPC   C39 9186   6.673   4.774   5.407
   94SAPC   H9X 9187   6.584   4.715   5.377
   94SAPC   H9Y 9188   6.755   4.702   5.387
   94SAPC  C310 9189   6.687   4.896   5.319
   94SAPC  H10X 9190   6.761   4.970   5.357
   94SAPC  H10Y 9191   6.590   4.950   5.321
   94SAPC  C311 9192   6.714   4.872   5.165
   94SAPC  H11X 9193   6.646   4.794   5.126
   94SAPC  H11Y 9194   6.818   4.834   5.165
   94SAPC  C312 9195   6.702   5.001   5.081
   94SAPC  H12X 9196   6.780   5.071   5.117
   94SAPC  H12Y 9197   6.603   5.046   5.103
   94SAPC  C313 9198   6.725   4.972   4.933
   94SAPC  H13X 9199   6.671   4.878   4.905
   94SAPC  H13Y 9200   6.833   4.955   4.911
   94SAPC  C314 9201   6.660   5.075   4.842
   94SAPC  H14X 9202   6.704   5.173   4.868
   94SAPC  H14Y 9203   6.551   5.076   4.859
   94SAPC  C315 9204   6.695   5.053   4.690
   94SAPC  H15X 9205   6.642   4.962   4.654
   94SAPC  H15Y 9206   6.804   5.032   4.686
   94SAPC  C316 9207   6.651   5.168   4.591
   94SAPC  H16X 9208   6.689   5.251   4.654
   94SAPC  H16Y 9209   6.541   5.178   4.585
   94SAPC  C317 9210   6.713   5.165   4.453
   94SAPC  H17X 9211   6.824   5.157   4.462
   94SAPC  H17Y 9212   6.695   5.264   4.406
   94SAPC  C318 9213   6.648   5.080   4.338
   94SAPC  H18X 9214   6.690   5.107   4.239
   94SAPC  H18Y 9215   6.538   5.091   4.334
   94SAPC  H18Z 9216   6.664   4.972   4.359
   95SAPC     N 9217   4.234   6.272   2.277
   95SAPC   C12 9218   4.279   6.210   2.406
   95SAPC  H12A 9219   4.290   6.287   2.480
   95SAPC  H12B 9220   4.376   6.161   2.400
   95SAPC   C13 9221   4.248   6.177   2.164
   95SAPC  H13A 9222   4.197   6.087   2.194
   95SAPC  H13B 9223   4.195   6.213   2.077
   95SAPC  H13C 9224   4.352   6.157   2.139
   95SAPC   C14 9225   4.093   6.317   2.289
   95SAPC  H14A 9226   4.052   6.347   2.194
   95SAPC  H14B 9227   4.028   6.238   2.321
   95SAPC  H14C 9228   4.082   6.396   2.363
   95SAPC   C15 9229   4.317   6.396   2.253
   95SAPC  H15A 9230   4.281   6.472   2.322
   95SAPC  H15B 9231   4.420   6.364   2.259
   95SAPC  H15C 9232   4.300   6.445   2.158
   95SAPC   C11 9233   4.193   6.097   2.474
   95SAPC  H11A 9234   4.110   6.150   2.525
   95SAPC  H11B 9235   4.250   6.039   2.549
   95SAPC     P 9236   4.004   5.957   2.360
   95SAPC   O13 9237   3.922   6.065   2.294
   95SAPC   O14 9238   4.005   5.826   2.298
   95SAPC   O12 9239   4.149   6.003   2.377
   95SAPC   O11 9240   3.943   5.937   2.501
   95SAPC    C1 9241   3.958   5.819   2.579
   95SAPC    HA 9242   4.048   5.764   2.544
   95SAPC    HB 9243   3.968   5.853   2.685
   95SAPC    C2 9244   3.825   5.729   2.575
   95SAPC    HS 9245   3.806   5.714   2.467
   95SAPC   O21 9246   3.719   5.806   2.639
   95SAPC   C21 9247   3.600   5.775   2.592
   95SAPC   O22 9248   3.588   5.728   2.480
   95SAPC   C22 9249   3.489   5.825   2.680
   95SAPC   H2R 9250   3.426   5.736   2.701
   95SAPC   H2S 9251   3.530   5.862   2.777
   95SAPC    C3 9252   3.860   5.596   2.652
   95SAPC    HX 9253   3.951   5.558   2.601
   95SAPC    HY 9254   3.782   5.519   2.631
   95SAPC   O31 9255   3.886   5.616   2.794
   95SAPC   C31 9256   3.792   5.603   2.878
   95SAPC   O32 9257   3.678   5.566   2.858
   95SAPC   C32 9258   3.840   5.644   3.022
   95SAPC   H2X 9259   3.823   5.754   3.016
   95SAPC   H2Y 9260   3.948   5.619   3.031
   95SAPC   C23 9261   3.428   5.948   2.615
   95SAPC   H3R 9262   3.369   5.918   2.526
   95SAPC   H3S 9263   3.502   6.015   2.566
   95SAPC   C24 9264   3.338   6.024   2.705
   95SAPC   H4R 9265   3.390   6.067   2.793
   95SAPC   H4S 9266   3.268   5.951   2.752
   95SAPC   C25 9267   3.255   6.110   2.620
   95SAPC   H5R 9268   3.175   6.057   2.566
   95SAPC   C26 9269   3.262   6.248   2.620
   95SAPC   H6R 9270   3.208   6.302   2.542
   95SAPC   C27 9271   3.370   6.324   2.700
   95SAPC   H7R 9272   3.467   6.318   2.645
   95SAPC   H7S 9273   3.394   6.269   2.794
   95SAPC   C28 9274   3.332   6.470   2.727
   95SAPC   H8R 9275   3.240   6.514   2.685
   95SAPC   C29 9276   3.398   6.557   2.810
   95SAPC   H9R 9277   3.379   6.665   2.810
   95SAPC  C210 9278   3.520   6.521   2.888
   95SAPC  H10R 9279   3.569   6.619   2.904
   95SAPC  H10S 9280   3.597   6.468   2.829
   95SAPC  C211 9281   3.524   6.440   3.027
   95SAPC  H11R 9282   3.576   6.343   3.021
   95SAPC  C212 9283   3.486   6.487   3.140
   95SAPC  H12R 9284   3.492   6.426   3.231
   95SAPC  C213 9285   3.419   6.622   3.151
   95SAPC  H13R 9286   3.482   6.693   3.093
   95SAPC  H13S 9287   3.418   6.653   3.258
   95SAPC  C214 9288   3.274   6.625   3.112
   95SAPC  H14R 9289   3.245   6.585   3.013
   95SAPC  C215 9290   3.166   6.648   3.191
   95SAPC  H15R 9291   3.068   6.653   3.142
   95SAPC  C216 9292   3.170   6.687   3.338
   95SAPC  H16R 9293   3.128   6.788   3.355
   95SAPC  H16S 9294   3.278   6.707   3.359
   95SAPC  C217 9295   3.112   6.588   3.447
   95SAPC  H17R 9296   3.163   6.619   3.541
   95SAPC  H17S 9297   3.159   6.489   3.428
   95SAPC  C218 9298   2.964   6.582   3.466
   95SAPC  H18R 9299   2.931   6.550   3.365
   95SAPC  H18S 9300   2.921   6.680   3.496
   95SAPC  C219 9301   2.916   6.491   3.588
   95SAPC  H19R 9302   2.943   6.548   3.679
   95SAPC  H19S 9303   2.971   6.396   3.601
   95SAPC  C220 9304   2.768   6.464   3.586
   95SAPC  H20R 9305   2.703   6.553   3.571
   95SAPC  H20S 9306   2.740   6.421   3.684
   95SAPC  H20T 9307   2.748   6.390   3.505
   95SAPC   C33 9308   3.770   5.574   3.146
   95SAPC   H3X 9309   3.782   5.463   3.141
   95SAPC   H3Y 9310   3.661   5.588   3.131
   95SAPC   C34 9311   3.798   5.632   3.279
   95SAPC   H4X 9312   3.768   5.736   3.255
   95SAPC   H4Y 9313   3.906   5.629   3.306
   95SAPC   C35 9314   3.698   5.585   3.393
   95SAPC   H5X 9315   3.700   5.474   3.395
   95SAPC   H5Y 9316   3.595   5.620   3.373
   95SAPC   C36 9317   3.737   5.638   3.528
   95SAPC   H6X 9318   3.767   5.745   3.530
   95SAPC   H6Y 9319   3.804   5.567   3.582
   95SAPC   C37 9320   3.623   5.644   3.630
   95SAPC   H7X 9321   3.581   5.542   3.643
   95SAPC   H7Y 9322   3.539   5.710   3.598
   95SAPC   C38 9323   3.676   5.701   3.764
   95SAPC   H8X 9324   3.756   5.640   3.810
   95SAPC   H8Y 9325   3.589   5.703   3.833
   95SAPC   C39 9326   3.721   5.845   3.764
   95SAPC   H9X 9327   3.820   5.849   3.713
   95SAPC   H9Y 9328   3.738   5.866   3.872
   95SAPC  C310 9329   3.615   5.940   3.719
   95SAPC  H10X 9330   3.523   5.912   3.775
   95SAPC  H10Y 9331   3.588   5.933   3.612
   95SAPC  C311 9332   3.646   6.094   3.756
   95SAPC  H11X 9333   3.549   6.144   3.733
   95SAPC  H11Y 9334   3.732   6.121   3.691
   95SAPC  C312 9335   3.683   6.125   3.897
   95SAPC  H12X 9336   3.766   6.056   3.925
   95SAPC  H12Y 9337   3.594   6.103   3.960
   95SAPC  C313 9338   3.718   6.278   3.902
   95SAPC  H13X 9339   3.623   6.326   3.874
   95SAPC  H13Y 9340   3.792   6.295   3.820
   95SAPC  C314 9341   3.788   6.327   4.036
   95SAPC  H14X 9342   3.895   6.300   4.030
   95SAPC  H14Y 9343   3.735   6.269   4.115
   95SAPC  C315 9344   3.770   6.477   4.059
   95SAPC  H15X 9345   3.666   6.510   4.039
   95SAPC  H15Y 9346   3.830   6.520   3.976
   95SAPC  C316 9347   3.832   6.527   4.191
   95SAPC  H16X 9348   3.928   6.474   4.207
   95SAPC  H16Y 9349   3.768   6.499   4.278
   95SAPC  C317 9350   3.858   6.676   4.188
   95SAPC  H17X 9351   3.761   6.724   4.208
   95SAPC  H17Y 9352   3.910   6.717   4.099
   95SAPC  C318 9353   3.938   6.704   4.315
   95SAPC  H18X 9354   3.874   6.677   4.402
   95SAPC  H18Y 9355   3.976   6.809   4.316
   95SAPC  H18Z 9356   4.026   6.636   4.314
   96SAPC     N 9357   3.188   1.555   1.471
   96SAPC   C12 9358   3.242   1.658   1.573
   96SAPC  H12A 9359   3.158   1.721   1.598
   96SAPC  H12B 9360   3.316   1.723   1.529
   96SAPC   C13 9361   3.061   1.480   1.520
   96SAPC  H13A 9362   3.038   1.406   1.445
   96SAPC  H13B 9363   3.078   1.440   1.619
   96SAPC  H13C 9364   2.975   1.545   1.518
   96SAPC   C14 9365   3.140   1.624   1.348
   96SAPC  H14A 9366   3.056   1.687   1.374
   96SAPC  H14B 9367   3.223   1.676   1.304
   96SAPC  H14C 9368   3.113   1.557   1.267
   96SAPC   C15 9369   3.297   1.461   1.436
   96SAPC  H15A 9370   3.331   1.406   1.523
   96SAPC  H15B 9371   3.245   1.393   1.370
   96SAPC  H15C 9372   3.382   1.503   1.383
   96SAPC   C11 9373   3.294   1.604   1.715
   96SAPC  H11A 9374   3.382   1.536   1.709
   96SAPC  H11B 9375   3.216   1.533   1.749
   96SAPC     P 9376   3.440   1.813   1.769
   96SAPC   O13 9377   3.547   1.745   1.695
   96SAPC   O14 9378   3.368   1.920   1.695
   96SAPC   O12 9379   3.333   1.702   1.810
   96SAPC   O11 9380   3.493   1.873   1.903
   96SAPC    C1 9381   3.531   1.795   2.015
   96SAPC    HA 9382   3.553   1.689   1.990
   96SAPC    HB 9383   3.618   1.836   2.070
   96SAPC    C2 9384   3.407   1.791   2.123
   96SAPC    HS 9385   3.325   1.740   2.069
   96SAPC   O21 9386   3.376   1.922   2.169
   96SAPC   C21 9387   3.263   1.931   2.227
   96SAPC   O22 9388   3.179   1.844   2.245
   96SAPC   C22 9389   3.248   2.074   2.283
   96SAPC   H2R 9390   3.345   2.125   2.266
   96SAPC   H2S 9391   3.162   2.129   2.239
   96SAPC    C3 9392   3.440   1.689   2.234
   96SAPC    HX 9393   3.434   1.590   2.185
   96SAPC    HY 9394   3.359   1.680   2.309
   96SAPC   O31 9395   3.570   1.715   2.294
   96SAPC   C31 9396   3.649   1.612   2.302
   96SAPC   O32 9397   3.629   1.494   2.275
   96SAPC   C32 9398   3.788   1.653   2.359
   96SAPC   H2X 9399   3.833   1.736   2.300
   96SAPC   H2Y 9400   3.859   1.569   2.341
   96SAPC   C23 9401   3.211   2.070   2.433
   96SAPC   H3R 9402   3.291   2.020   2.493
   96SAPC   H3S 9403   3.123   2.004   2.449
   96SAPC   C24 9404   3.186   2.208   2.496
   96SAPC   H4R 9405   3.126   2.196   2.589
   96SAPC   H4S 9406   3.123   2.278   2.436
   96SAPC   C25 9407   3.311   2.294   2.531
   96SAPC   H5R 9408   3.340   2.370   2.456
   96SAPC   C26 9409   3.392   2.283   2.645
   96SAPC   H6R 9410   3.491   2.331   2.637
   96SAPC   C27 9411   3.362   2.185   2.760
   96SAPC   H7R 9412   3.268   2.127   2.742
   96SAPC   H7S 9413   3.349   2.242   2.854
   96SAPC   C28 9414   3.462   2.077   2.792
   96SAPC   H8R 9415   3.481   2.015   2.703
   96SAPC   C29 9416   3.539   2.050   2.907
   96SAPC   H9R 9417   3.593   1.954   2.908
   96SAPC  C210 9418   3.537   2.127   3.041
   96SAPC  H10R 9419   3.583   2.053   3.110
   96SAPC  H10S 9420   3.436   2.149   3.082
   96SAPC  C211 9421   3.627   2.254   3.039
   96SAPC  H11R 9422   3.679   2.272   2.943
   96SAPC  C212 9423   3.633   2.346   3.136
   96SAPC  H12R 9424   3.705   2.428   3.120
   96SAPC  C213 9425   3.583   2.339   3.274
   96SAPC  H13R 9426   3.564   2.232   3.295
   96SAPC  H13S 9427   3.489   2.398   3.278
   96SAPC  C214 9428   3.688   2.381   3.379
   96SAPC  H14R 9429   3.792   2.351   3.360
   96SAPC  C215 9430   3.668   2.462   3.485
   96SAPC  H15R 9431   3.755   2.480   3.550
   96SAPC  C216 9432   3.532   2.498   3.535
   96SAPC  H16R 9433   3.474   2.414   3.580
   96SAPC  H16S 9434   3.480   2.518   3.439
   96SAPC  C217 9435   3.518   2.615   3.639
   96SAPC  H17R 9436   3.564   2.714   3.616
   96SAPC  H17S 9437   3.571   2.577   3.729
   96SAPC  C218 9438   3.369   2.649   3.668
   96SAPC  H18R 9439   3.310   2.563   3.709
   96SAPC  H18S 9440   3.330   2.661   3.565
   96SAPC  C219 9441   3.349   2.767   3.760
   96SAPC  H19R 9442   3.251   2.740   3.806
   96SAPC  H19S 9443   3.345   2.865   3.708
   96SAPC  C220 9444   3.446   2.772   3.883
   96SAPC  H20R 9445   3.473   2.669   3.915
   96SAPC  H20S 9446   3.417   2.826   3.975
   96SAPC  H20T 9447   3.547   2.810   3.857
   96SAPC   C33 9448   3.776   1.703   2.501
   96SAPC   H3X 9449   3.698   1.782   2.496
   96SAPC   H3Y 9450   3.876   1.748   2.519
   96SAPC   C34 9451   3.760   1.599   2.612
   96SAPC   H4X 9452   3.847   1.531   2.605
   96SAPC   H4Y 9453   3.662   1.546   2.609
   96SAPC   C35 9454   3.763   1.665   2.755
   96SAPC   H5X 9455   3.682   1.741   2.756
   96SAPC   H5Y 9456   3.858   1.718   2.777
   96SAPC   C36 9457   3.717   1.570   2.860
   96SAPC   H6X 9458   3.793   1.489   2.856
   96SAPC   H6Y 9459   3.617   1.522   2.847
   96SAPC   C37 9460   3.693   1.631   3.003
   96SAPC   H7X 9461   3.636   1.726   3.007
   96SAPC   H7Y 9462   3.793   1.653   3.044
   96SAPC   C38 9463   3.605   1.532   3.093
   96SAPC   H8X 9464   3.640   1.427   3.083
   96SAPC   H8Y 9465   3.504   1.540   3.047
   96SAPC   C39 9466   3.603   1.572   3.238
   96SAPC   H9X 9467   3.710   1.558   3.264
   96SAPC   H9Y 9468   3.544   1.501   3.300
   96SAPC  C310 9469   3.566   1.718   3.269
   96SAPC  H10X 9470   3.477   1.738   3.206
   96SAPC  H10Y 9471   3.652   1.784   3.247
   96SAPC  C311 9472   3.520   1.736   3.409
   96SAPC  H11X 9473   3.596   1.692   3.477
   96SAPC  H11Y 9474   3.434   1.671   3.434
   96SAPC  C312 9475   3.493   1.887   3.447
   96SAPC  H12X 9476   3.388   1.896   3.414
   96SAPC  H12Y 9477   3.557   1.955   3.387
   96SAPC  C313 9478   3.508   1.911   3.592
   96SAPC  H13X 9479   3.597   1.849   3.615
   96SAPC  H13Y 9480   3.426   1.863   3.649
   96SAPC  C314 9481   3.535   2.058   3.619
   96SAPC  H14X 9482   3.445   2.118   3.593
   96SAPC  H14Y 9483   3.624   2.089   3.560
   96SAPC  C315 9484   3.572   2.079   3.768
   96SAPC  H15X 9485   3.678   2.053   3.790
   96SAPC  H15Y 9486   3.506   2.011   3.825
   96SAPC  C316 9487   3.546   2.222   3.816
   96SAPC  H16X 9488   3.438   2.245   3.802
   96SAPC  H16Y 9489   3.607   2.308   3.780
   96SAPC  C317 9490   3.573   2.232   3.967
   96SAPC  H17X 9491   3.666   2.181   4.000
   96SAPC  H17Y 9492   3.483   2.186   4.012
   96SAPC  C318 9493   3.580   2.375   4.020
   96SAPC  H18X 9494   3.638   2.381   4.115
   96SAPC  H18Y 9495   3.476   2.413   4.034
   96SAPC  H18Z 9496   3.631   2.442   3.948
   97SAPC     N 9497   2.954   0.882   1.976
   97SAPC   C12 9498   2.865   0.807   2.076
   97SAPC  H12A 9499   2.823   0.720   2.027
   97SAPC  H12B 9500   2.777   0.863   2.102
   97SAPC   C13 9501   2.861   0.917   1.859
   97SAPC  H13A 9502   2.917   0.930   1.767
   97SAPC  H13B 9503   2.784   0.843   1.847
   97SAPC  H13C 9504   2.809   1.011   1.873
   97SAPC   C14 9505   3.010   1.012   2.029
   97SAPC  H14A 9506   3.062   0.997   2.123
   97SAPC  H14B 9507   3.085   1.055   1.963
   97SAPC  H14C 9508   2.934   1.087   2.043
   97SAPC   C15 9509   3.073   0.799   1.936
   97SAPC  H15A 9510   3.037   0.702   1.902
   97SAPC  H15B 9511   3.138   0.840   1.860
   97SAPC  H15C 9512   3.136   0.776   2.021
   97SAPC   C11 9513   2.934   0.764   2.211
   97SAPC  H11A 9514   2.851   0.745   2.283
   97SAPC  H11B 9515   2.984   0.852   2.256
   97SAPC     P 9516   2.986   0.506   2.229
   97SAPC   O13 9517   2.869   0.472   2.142
   97SAPC   O14 9518   3.095   0.410   2.224
   97SAPC   O12 9519   3.035   0.659   2.210
   97SAPC   O11 9520   2.936   0.513   2.383
   97SAPC    C1 9521   3.013   0.592   2.486
   97SAPC    HA 9522   3.065   0.675   2.434
   97SAPC    HB 9523   2.947   0.633   2.565
   97SAPC    C2 9524   3.124   0.510   2.552
   97SAPC    HS 9525   3.187   0.474   2.468
   97SAPC   O21 9526   3.069   0.402   2.636
   97SAPC   C21 9527   3.144   0.291   2.643
   97SAPC   O22 9528   3.247   0.280   2.575
   97SAPC   C22 9529   3.075   0.189   2.727
   97SAPC   H2R 9530   3.070   0.232   2.830
   97SAPC   H2S 9531   2.970   0.183   2.692
   97SAPC    C3 9532   3.226   0.597   2.641
   97SAPC    HX 9533   3.282   0.667   2.575
   97SAPC    HY 9534   3.287   0.514   2.682
   97SAPC   O31 9535   3.146   0.677   2.740
   97SAPC   C31 9536   3.227   0.721   2.835
   97SAPC   O32 9537   3.341   0.681   2.848
   97SAPC   C32 9538   3.158   0.809   2.939
   97SAPC   H2X 9539   3.088   0.877   2.886
   97SAPC   H2Y 9540   3.230   0.872   2.995
   97SAPC   C23 9541   3.157   0.059   2.745
   97SAPC   H3R 9542   3.253   0.076   2.798
   97SAPC   H3S 9543   3.171   0.018   2.643
   97SAPC   C24 9544   3.076   6.843   2.836
   97SAPC   H4R 9545   3.127   6.744   2.835
   97SAPC   H4S 9546   2.980   6.840   2.780
   97SAPC   C25 9547   3.053   6.877   2.976
   97SAPC   H5R 9548   3.145   6.876   3.037
   97SAPC   C26 9549   2.932   0.001   3.033
   97SAPC   H6R 9550   2.924   0.044   3.134
   97SAPC   C27 9551   2.799   6.863   2.969
   97SAPC   H7R 9552   2.788   0.034   2.870
   97SAPC   H7S 9553   2.724   0.025   3.041
   97SAPC   C28 9554   2.774   6.711   2.937
   97SAPC   H8R 9555   2.800   6.675   2.836
   97SAPC   C29 9556   2.743   6.621   3.029
   97SAPC   H9R 9557   2.719   6.519   2.997
   97SAPC  C210 9558   2.738   6.649   3.179
   97SAPC  H10R 9559   2.816   6.727   3.193
   97SAPC  H10S 9560   2.777   6.564   3.238
   97SAPC  C211 9561   2.606   6.698   3.233
   97SAPC  H11R 9562   2.526   6.655   3.171
   97SAPC  C212 9563   2.584   6.802   3.319
   97SAPC  H12R 9564   2.479   6.813   3.348
   97SAPC  C213 9565   2.692   0.004   3.384
   97SAPC  H13R 9566   2.665   0.107   3.353
   97SAPC  H13S 9567   2.793   6.863   3.342
   97SAPC  C214 9568   2.700   0.006   3.538
   97SAPC  H14R 9569   2.792   6.856   3.590
   97SAPC  C215 9570   2.599   0.043   3.620
   97SAPC  H15R 9571   2.603   0.039   3.730
   97SAPC  C216 9572   2.468   0.099   3.579
   97SAPC  H16R 9573   2.399   0.012   3.577
   97SAPC  H16S 9574   2.464   0.138   3.475
   97SAPC  C217 9575   2.417   0.210   3.672
   97SAPC  H17R 9576   2.506   0.275   3.688
   97SAPC  H17S 9577   2.385   0.165   3.769
   97SAPC  C218 9578   2.311   0.299   3.611
   97SAPC  H18R 9579   2.229   0.239   3.566
   97SAPC  H18S 9580   2.341   0.369   3.531
   97SAPC  C219 9581   2.243   0.380   3.721
   97SAPC  H19R 9582   2.215   0.310   3.802
   97SAPC  H19S 9583   2.144   0.422   3.690
   97SAPC  C220 9584   2.330   0.489   3.778
   97SAPC  H20R 9585   2.403   0.431   3.839
   97SAPC  H20S 9586   2.269   0.554   3.844
   97SAPC  H20T 9587   2.375   0.557   3.703
   97SAPC   C33 9588   3.062   0.724   3.038
   97SAPC   H3X 9589   3.018   0.634   2.989
   97SAPC   H3Y 9590   2.982   0.796   3.066
   97SAPC   C34 9591   3.148   0.666   3.150
   97SAPC   H4X 9592   3.248   0.659   3.102
   97SAPC   H4Y 9593   3.110   0.566   3.180
   97SAPC   C35 9594   3.156   0.749   3.279
   97SAPC   H5X 9595   3.052   0.774   3.310
   97SAPC   H5Y 9596   3.204   0.848   3.263
   97SAPC   C36 9597   3.230   0.678   3.391
   97SAPC   H6X 9598   3.336   0.657   3.368
   97SAPC   H6Y 9599   3.178   0.583   3.419
   97SAPC   C37 9600   3.232   0.769   3.517
   97SAPC   H7X 9601   3.131   0.779   3.561
   97SAPC   H7Y 9602   3.273   0.864   3.476
   97SAPC   C38 9603   3.327   0.714   3.630
   97SAPC   H8X 9604   3.421   0.678   3.583
   97SAPC   H8Y 9605   3.271   0.623   3.661
   97SAPC   C39 9606   3.353   0.802   3.759
   97SAPC   H9X 9607   3.377   0.906   3.727
   97SAPC   H9Y 9608   3.435   0.757   3.819
   97SAPC  C310 9609   3.224   0.823   3.842
   97SAPC  H10X 9610   3.155   0.737   3.858
   97SAPC  H10Y 9611   3.163   0.894   3.784
   97SAPC  C311 9612   3.255   0.901   3.967
   97SAPC  H11X 9613   3.163   0.955   3.999
   97SAPC  H11Y 9614   3.327   0.983   3.948
   97SAPC  C312 9615   3.308   0.804   4.076
   97SAPC  H12X 9616   3.410   0.764   4.058
   97SAPC  H12Y 9617   3.232   0.724   4.083
   97SAPC  C313 9618   3.317   0.883   4.213
   97SAPC  H13X 9619   3.215   0.893   4.258
   97SAPC  H13Y 9620   3.356   0.985   4.192
   97SAPC  C314 9621   3.417   0.813   4.303
   97SAPC  H14X 9622   3.450   0.877   4.388
   97SAPC  H14Y 9623   3.502   0.781   4.240
   97SAPC  C315 9624   3.362   0.692   4.377
   97SAPC  H15X 9625   3.335   0.616   4.301
   97SAPC  H15Y 9626   3.266   0.730   4.418
   97SAPC  C316 9627   3.457   0.632   4.481
   97SAPC  H16X 9628   3.561   0.611   4.448
   97SAPC  H16Y 9629   3.421   0.529   4.503
   97SAPC  C317 9630   3.464   0.718   4.609
   97SAPC  H17X 9631   3.359   0.746   4.634
   97SAPC  H17Y 9632   3.517   0.814   4.590
   97SAPC  C318 9633   3.526   0.651   4.729
   97SAPC  H18X 9634   3.474   0.557   4.759
   97SAPC  H18Y 9635   3.528   0.711   4.822
   97SAPC  H18Z 9636   3.625   0.601   4.716
   98SAPC     N 9637   5.924   1.781   2.239
   98SAPC   C12 9638   5.939   1.740   2.385
   98SAPC  H12A 9639   5.899   1.816   2.450
   98SAPC  H12B 9640   6.045   1.736   2.406
   98SAPC   C13 9641   6.014   1.690   2.159
   98SAPC  H13A 9642   6.002   1.592   2.202
   98SAPC  H13B 9643   5.988   1.679   2.055
   98SAPC  H13C 9644   6.117   1.724   2.158
   98SAPC   C14 9645   5.781   1.757   2.204
   98SAPC  H14A 9646   5.768   1.781   2.099
   98SAPC  H14B 9647   5.757   1.654   2.223
   98SAPC  H14C 9648   5.709   1.822   2.252
   98SAPC   C15 9649   5.962   1.923   2.226
   98SAPC  H15A 9650   5.948   1.963   2.127
   98SAPC  H15B 9651   5.906   1.979   2.299
   98SAPC  H15C 9652   6.067   1.940   2.248
   98SAPC   C11 9653   5.879   1.602   2.422
   98SAPC  H11A 9654   5.769   1.616   2.423
   98SAPC  H11B 9655   5.906   1.579   2.527
   98SAPC     P 9656   5.810   1.366   2.324
   98SAPC   O13 9657   5.678   1.409   2.273
   98SAPC   O14 9658   5.873   1.260   2.247
   98SAPC   O12 9659   5.916   1.489   2.342
   98SAPC   O11 9660   5.787   1.318   2.473
   98SAPC    C1 9661   5.902   1.270   2.546
   98SAPC    HA 9662   5.911   1.159   2.542
   98SAPC    HB 9663   5.996   1.319   2.514
   98SAPC    C2 9664   5.895   1.301   2.702
   98SAPC    HS 9665   5.798   1.262   2.740
   98SAPC   O21 9666   5.905   1.445   2.726
   98SAPC   C21 9667   5.842   1.494   2.831
   98SAPC   O22 9668   5.780   1.427   2.913
   98SAPC   C22 9669   5.854   1.641   2.835
   98SAPC   H2R 9670   5.846   1.670   2.728
   98SAPC   H2S 9671   5.770   1.684   2.893
   98SAPC    C3 9672   6.017   1.220   2.770
   98SAPC    HX 9673   6.107   1.255   2.715
   98SAPC    HY 9674   5.996   1.113   2.750
   98SAPC   O31 9675   6.023   1.257   2.909
   98SAPC   C31 9676   5.954   1.171   2.993
   98SAPC   O32 9677   5.891   1.072   2.952
   98SAPC   C32 9678   5.947   1.226   3.136
   98SAPC   H2X 9679   5.944   1.336   3.124
   98SAPC   H2Y 9680   6.045   1.201   3.184
   98SAPC   C23 9681   5.990   1.686   2.889
   98SAPC   H3R 9682   6.013   1.795   2.889
   98SAPC   H3S 9683   6.070   1.632   2.834
   98SAPC   C24 9684   6.007   1.639   3.039
   98SAPC   H4R 9685   5.997   1.528   3.043
   98SAPC   H4S 9686   5.918   1.685   3.087
   98SAPC   C25 9687   6.138   1.680   3.116
   98SAPC   H5R 9688   6.220   1.713   3.051
   98SAPC   C26 9689   6.152   1.683   3.252
   98SAPC   H6R 9690   6.258   1.700   3.279
   98SAPC   C27 9691   6.053   1.628   3.355
   98SAPC   H7R 9692   6.048   1.518   3.366
   98SAPC   H7S 9693   5.950   1.650   3.319
   98SAPC   C28 9694   6.086   1.682   3.493
   98SAPC   H8R 9695   6.123   1.786   3.499
   98SAPC   C29 9696   6.082   1.608   3.606
   98SAPC   H9R 9697   6.096   1.659   3.702
   98SAPC  C210 9698   6.037   1.462   3.620
   98SAPC  H10R 9699   6.117   1.392   3.591
   98SAPC  H10S 9700   5.950   1.432   3.557
   98SAPC  C211 9701   5.997   1.440   3.765
   98SAPC  H11R 9702   5.909   1.503   3.787
   98SAPC  C212 9703   6.072   1.395   3.861
   98SAPC  H12R 9704   6.032   1.393   3.963
   98SAPC  C213 9705   6.201   1.321   3.845
   98SAPC  H13R 9706   6.185   1.255   3.758
   98SAPC  H13S 9707   6.218   1.255   3.933
   98SAPC  C214 9708   6.323   1.407   3.813
   98SAPC  H14R 9709   6.303   1.511   3.845
   98SAPC  C215 9710   6.449   1.380   3.769
   98SAPC  H15R 9711   6.517   1.465   3.752
   98SAPC  C216 9712   6.496   1.245   3.734
   98SAPC  H16R 9713   6.409   1.179   3.755
   98SAPC  H16S 9714   6.575   1.217   3.808
   98SAPC  C217 9715   6.533   1.238   3.581
   98SAPC  H17R 9716   6.594   1.149   3.555
   98SAPC  H17S 9717   6.601   1.324   3.564
   98SAPC  C218 9718   6.420   1.226   3.478
   98SAPC  H18R 9719   6.338   1.291   3.514
   98SAPC  H18S 9720   6.386   1.121   3.466
   98SAPC  C219 9721   6.450   1.287   3.344
   98SAPC  H19R 9722   6.523   1.219   3.296
   98SAPC  H19S 9723   6.498   1.387   3.354
   98SAPC  C220 9724   6.327   1.301   3.257
   98SAPC  H20R 9725   6.352   1.342   3.157
   98SAPC  H20S 9726   6.256   1.376   3.298
   98SAPC  H20T 9727   6.268   1.206   3.256
   98SAPC   C33 9728   5.821   1.180   3.217
   98SAPC   H3X 9729   5.804   1.072   3.199
   98SAPC   H3Y 9730   5.726   1.231   3.189
   98SAPC   C34 9731   5.835   1.198   3.367
   98SAPC   H4X 9732   5.768   1.275   3.411
   98SAPC   H4Y 9733   5.940   1.215   3.401
   98SAPC   C35 9734   5.790   1.063   3.437
   98SAPC   H5X 9735   5.862   0.989   3.398
   98SAPC   H5Y 9736   5.689   1.036   3.398
   98SAPC   C36 9737   5.816   1.065   3.589
   98SAPC   H6X 9738   5.765   1.150   3.639
   98SAPC   H6Y 9739   5.922   1.091   3.605
   98SAPC   C37 9740   5.789   0.937   3.668
   98SAPC   H7X 9741   5.870   0.862   3.657
   98SAPC   H7Y 9742   5.698   0.890   3.625
   98SAPC   C38 9743   5.771   0.962   3.816
   98SAPC   H8X 9744   5.689   1.033   3.841
   98SAPC   H8Y 9745   5.863   1.014   3.851
   98SAPC   C39 9746   5.729   0.833   3.895
   98SAPC   H9X 9747   5.752   0.845   4.003
   98SAPC   H9Y 9748   5.796   0.751   3.861
   98SAPC  C310 9749   5.584   0.788   3.886
   98SAPC  H10X 9750   5.559   0.768   3.780
   98SAPC  H10Y 9751   5.531   0.879   3.921
   98SAPC  C311 9752   5.554   0.662   3.967
   98SAPC  H11X 9753   5.626   0.579   3.949
   98SAPC  H11Y 9754   5.453   0.623   3.943
   98SAPC  C312 9755   5.546   0.689   4.117
   98SAPC  H12X 9756   5.456   0.754   4.128
   98SAPC  H12Y 9757   5.634   0.744   4.159
   98SAPC  C313 9758   5.534   0.555   4.183
   98SAPC  H13X 9759   5.618   0.491   4.150
   98SAPC  H13Y 9760   5.435   0.514   4.154
   98SAPC  C314 9761   5.528   0.554   4.339
   98SAPC  H14X 9762   5.627   0.593   4.369
   98SAPC  H14Y 9763   5.508   0.452   4.377
   98SAPC  C315 9764   5.414   0.650   4.390
   98SAPC  H15X 9765   5.325   0.590   4.359
   98SAPC  H15Y 9766   5.417   0.747   4.336
   98SAPC  C316 9767   5.406   0.679   4.541
   98SAPC  H16X 9768   5.340   0.766   4.564
   98SAPC  H16Y 9769   5.508   0.712   4.569
   98SAPC  C317 9770   5.380   0.554   4.625
   98SAPC  H17X 9771   5.406   0.578   4.730
   98SAPC  H17Y 9772   5.456   0.480   4.593
   98SAPC  C318 9773   5.243   0.491   4.608
   98SAPC  H18X 9774   5.217   0.467   4.503
   98SAPC  H18Y 9775   5.177   0.570   4.649
   98SAPC  H18Z 9776   5.242   0.404   4.677
   99SAPC     N 9777   3.626   5.880   2.110
   99SAPC   C12 9778   3.490   5.817   2.099
   99SAPC  H12A 9779   3.412   5.889   2.118
   99SAPC  H12B 9780   3.479   5.736   2.171
   99SAPC   C13 9781   3.637   5.983   2.218
   99SAPC  H13A 9782   3.738   6.020   2.220
   99SAPC  H13B 9783   3.578   6.069   2.190
   99SAPC  H13C 9784   3.608   5.942   2.314
   99SAPC   C14 9785   3.730   5.776   2.128
   99SAPC  H14A 9786   3.757   5.746   2.228
   99SAPC  H14B 9787   3.699   5.692   2.068
   99SAPC  H14C 9788   3.824   5.818   2.097
   99SAPC   C15 9789   3.656   5.952   1.979
   99SAPC  H15A 9790   3.633   5.880   1.902
   99SAPC  H15B 9791   3.601   6.043   1.964
   99SAPC  H15C 9792   3.759   5.985   1.982
   99SAPC   C11 9793   3.447   5.743   1.960
   99SAPC  H11A 9794   3.459   5.819   1.880
   99SAPC  H11B 9795   3.338   5.720   1.967
   99SAPC     P 9796   3.483   5.489   1.966
   99SAPC   O13 9797   3.335   5.474   1.943
   99SAPC   O14 9798   3.570   5.395   1.898
   99SAPC   O12 9799   3.529   5.635   1.913
   99SAPC   O11 9800   3.525   5.502   2.114
   99SAPC    C1 9801   3.639   5.433   2.170
   99SAPC    HA 9802   3.713   5.405   2.091
   99SAPC    HB 9803   3.706   5.497   2.231
   99SAPC    C2 9804   3.607   5.309   2.259
   99SAPC    HS 9805   3.535   5.242   2.206
   99SAPC   O21 9806   3.552   5.362   2.383
   99SAPC   C21 9807   3.420   5.341   2.411
   99SAPC   O22 9808   3.333   5.298   2.337
   99SAPC   C22 9809   3.389   5.384   2.551
   99SAPC   H2R 9810   3.442   5.478   2.576
   99SAPC   H2S 9811   3.281   5.409   2.566
   99SAPC    C3 9812   3.737   5.223   2.295
   99SAPC    HX 9813   3.818   5.294   2.324
   99SAPC    HY 9814   3.782   5.186   2.201
   99SAPC   O31 9815   3.718   5.109   2.387
   99SAPC   C31 9816   3.667   5.004   2.324
   99SAPC   O32 9817   3.634   5.004   2.203
   99SAPC   C32 9818   3.643   4.890   2.422
   99SAPC   H2X 9819   3.732   4.874   2.487
   99SAPC   H2Y 9820   3.627   4.803   2.355
   99SAPC   C23 9821   3.438   5.287   2.656
   99SAPC   H3R 9822   3.489   5.353   2.729
   99SAPC   H3S 9823   3.499   5.202   2.617
   99SAPC   C24 9824   3.319   5.224   2.727
   99SAPC   H4R 9825   3.256   5.303   2.773
   99SAPC   H4S 9826   3.361   5.161   2.809
   99SAPC   C25 9827   3.238   5.132   2.635
   99SAPC   H5R 9828   3.295   5.100   2.546
   99SAPC   C26 9829   3.109   5.080   2.647
   99SAPC   H6R 9830   3.077   5.003   2.575
   99SAPC   C27 9831   3.004   5.122   2.746
   99SAPC   H7R 9832   2.913   5.151   2.690
   99SAPC   H7S 9833   3.046   5.209   2.802
   99SAPC   C28 9834   2.978   5.000   2.829
   99SAPC   H8R 9835   2.901   4.936   2.783
   99SAPC   C29 9836   3.032   4.963   2.951
   99SAPC   H9R 9837   2.993   4.867   2.989
   99SAPC  C210 9838   3.129   5.044   3.035
   99SAPC  H10R 9839   3.090   5.049   3.139
   99SAPC  H10S 9840   3.147   5.147   2.999
   99SAPC  C211 9841   3.258   4.971   3.036
   99SAPC  H11R 9842   3.280   4.906   2.951
   99SAPC  C212 9843   3.335   4.966   3.147
   99SAPC  H12R 9844   3.423   4.902   3.131
   99SAPC  C213 9845   3.326   5.039   3.278
   99SAPC  H13R 9846   3.366   4.970   3.356
   99SAPC  H13S 9847   3.217   5.046   3.297
   99SAPC  C214 9848   3.392   5.176   3.273
   99SAPC  H14R 9849   3.425   5.196   3.170
   99SAPC  C215 9850   3.417   5.251   3.381
   99SAPC  H15R 9851   3.451   5.356   3.382
   99SAPC  C216 9852   3.376   5.210   3.520
   99SAPC  H16R 9853   3.436   5.119   3.539
   99SAPC  H16S 9854   3.266   5.195   3.528
   99SAPC  C217 9855   3.417   5.324   3.612
   99SAPC  H17R 9856   3.354   5.412   3.586
   99SAPC  H17S 9857   3.524   5.351   3.600
   99SAPC  C218 9858   3.388   5.283   3.754
   99SAPC  H18R 9859   3.456   5.203   3.791
   99SAPC  H18S 9860   3.285   5.242   3.740
   99SAPC  C219 9861   3.390   5.410   3.837
   99SAPC  H19R 9862   3.352   5.496   3.778
   99SAPC  H19S 9863   3.497   5.435   3.852
   99SAPC  C220 9864   3.322   5.395   3.978
   99SAPC  H20R 9865   3.328   5.494   4.029
   99SAPC  H20S 9866   3.367   5.312   4.036
   99SAPC  H20T 9867   3.218   5.363   3.955
   99SAPC   C33 9868   3.531   4.918   2.518
   99SAPC   H3X 9869   3.439   4.939   2.460
   99SAPC   H3Y 9870   3.546   5.011   2.577
   99SAPC   C34 9871   3.499   4.816   2.632
   99SAPC   H4X 9872   3.494   4.712   2.594
   99SAPC   H4Y 9873   3.397   4.836   2.673
   99SAPC   C35 9874   3.597   4.818   2.739
   99SAPC   H5X 9875   3.634   4.920   2.764
   99SAPC   H5Y 9876   3.691   4.761   2.728
   99SAPC   C36 9877   3.545   4.762   2.870
   99SAPC   H6X 9878   3.501   4.659   2.870
   99SAPC   H6Y 9879   3.460   4.822   2.909
   99SAPC   C37 9880   3.646   4.755   2.989
   99SAPC   H7X 9881   3.666   4.859   3.022
   99SAPC   H7Y 9882   3.738   4.702   2.957
   99SAPC   C38 9883   3.577   4.680   3.100
   99SAPC   H8X 9884   3.577   4.571   3.077
   99SAPC   H8Y 9885   3.471   4.710   3.111
   99SAPC   C39 9886   3.656   4.703   3.227
   99SAPC   H9X 9887   3.684   4.810   3.239
   99SAPC   H9Y 9888   3.751   4.647   3.239
   99SAPC  C310 9889   3.559   4.661   3.341
   99SAPC  H10X 9890   3.553   4.550   3.348
   99SAPC  H10Y 9891   3.457   4.695   3.315
   99SAPC  C311 9892   3.593   4.731   3.478
   99SAPC  H11X 9893   3.624   4.833   3.446
   99SAPC  H11Y 9894   3.683   4.690   3.530
   99SAPC  C312 9895   3.485   4.731   3.580
   99SAPC  H12X 9896   3.464   4.628   3.616
   99SAPC  H12Y 9897   3.388   4.768   3.541
   99SAPC  C313 9898   3.518   4.806   3.708
   99SAPC  H13X 9899   3.537   4.914   3.686
   99SAPC  H13Y 9900   3.616   4.779   3.753
   99SAPC  C314 9901   3.416   4.789   3.824
   99SAPC  H14X 9902   3.464   4.813   3.922
   99SAPC  H14Y 9903   3.388   4.681   3.825
   99SAPC  C315 9904   3.303   4.884   3.791
   99SAPC  H15X 9905   3.266   4.871   3.687
   99SAPC  H15Y 9906   3.350   4.984   3.785
   99SAPC  C316 9907   3.185   4.890   3.891
   99SAPC  H16X 9908   3.213   4.880   3.998
   99SAPC  H16Y 9909   3.122   4.799   3.880
   99SAPC  C317 9910   3.099   5.011   3.865
   99SAPC  H17X 9911   3.176   5.090   3.852
   99SAPC  H17Y 9912   3.034   5.033   3.953
   99SAPC  C318 9913   3.015   4.991   3.739
   99SAPC  H18X 9914   3.073   5.004   3.645
   99SAPC  H18Y 9915   2.937   5.070   3.736
   99SAPC  H18Z 9916   2.965   4.892   3.733
  100SAPC     N 9917   1.237   4.266   1.859
  100SAPC   C12 9918   1.358   4.333   1.925
  100SAPC  H12A 9919   1.333   4.404   2.003
  100SAPC  H12B 9920   1.397   4.393   1.844
  100SAPC   C13 9921   1.150   4.353   1.774
  100SAPC  H13A 9922   1.215   4.422   1.721
  100SAPC  H13B 9923   1.105   4.293   1.696
  100SAPC  H13C 9924   1.078   4.401   1.838
  100SAPC   C14 9925   1.286   4.157   1.759
  100SAPC  H14A 9926   1.376   4.117   1.803
  100SAPC  H14B 9927   1.214   4.078   1.741
  100SAPC  H14C 9928   1.312   4.204   1.665
  100SAPC   C15 9929   1.151   4.211   1.969
  100SAPC  H15A 9930   1.071   4.151   1.927
  100SAPC  H15B 9931   1.207   4.153   2.041
  100SAPC  H15C 9932   1.103   4.293   2.021
  100SAPC   C11 9933   1.471   4.242   1.981
  100SAPC  H11A 9934   1.422   4.166   2.046
  100SAPC  H11B 9935   1.540   4.289   2.054
  100SAPC     P 9936   1.653   4.266   1.798
  100SAPC   O13 9937   1.733   4.164   1.731
  100SAPC   O14 9938   1.582   4.371   1.718
  100SAPC   O12 9939   1.559   4.179   1.884
  100SAPC   O11 9940   1.737   4.327   1.912
  100SAPC    C1 9941   1.852   4.271   1.973
  100SAPC    HA 9942   1.900   4.200   1.902
  100SAPC    HB 9943   1.921   4.358   1.974
  100SAPC    C2 9944   1.825   4.212   2.113
  100SAPC    HS 9945   1.744   4.136   2.109
  100SAPC   O21 9946   1.802   4.317   2.209
  100SAPC   C21 9947   1.721   4.291   2.308
  100SAPC   O22 9948   1.650   4.193   2.314
  100SAPC   C22 9949   1.759   4.375   2.429
  100SAPC   H2R 9950   1.847   4.331   2.481
  100SAPC   H2S 9951   1.794   4.470   2.383
  100SAPC    C3 9952   1.963   4.144   2.164
  100SAPC    HX 9953   2.039   4.224   2.172
  100SAPC    HY 9954   1.988   4.067   2.087
  100SAPC   O31 9955   1.950   4.086   2.301
  100SAPC   C31 9956   1.894   3.966   2.302
  100SAPC   O32 9957   1.856   3.904   2.204
  100SAPC   C32 9958   1.892   3.904   2.439
  100SAPC   H2X 9959   1.960   3.971   2.495
  100SAPC   H2Y 9960   1.936   3.803   2.435
  100SAPC   C23 9961   1.652   4.388   2.538
  100SAPC   H3R 9962   1.560   4.435   2.497
  100SAPC   H3S 9963   1.687   4.469   2.605
  100SAPC   C24 9964   1.627   4.260   2.620
  100SAPC   H4R 9965   1.615   4.181   2.543
  100SAPC   H4S 9966   1.530   4.276   2.672
  100SAPC   C25 9967   1.735   4.224   2.721
  100SAPC   H5R 9968   1.827   4.182   2.677
  100SAPC   C26 9969   1.728   4.238   2.857
  100SAPC   H6R 9970   1.819   4.233   2.918
  100SAPC   C27 9971   1.609   4.307   2.923
  100SAPC   H7R 9972   1.544   4.356   2.847
  100SAPC   H7S 9973   1.648   4.390   2.985
  100SAPC   C28 9974   1.527   4.208   3.001
  100SAPC   H8R 9975   1.462   4.137   2.947
  100SAPC   C29 9976   1.530   4.196   3.139
  100SAPC   H9R 9977   1.462   4.131   3.196
  100SAPC  C210 9978   1.618   4.279   3.237
  100SAPC  H10R 9979   1.534   4.325   3.293
  100SAPC  H10S 9980   1.682   4.356   3.188
  100SAPC  C211 9981   1.714   4.200   3.321
  100SAPC  H11R 9982   1.811   4.168   3.278
  100SAPC  C212 9983   1.691   4.163   3.449
  100SAPC  H12R 9984   1.768   4.127   3.520
  100SAPC  C213 9985   1.563   4.191   3.525
  100SAPC  H13R 9986   1.479   4.240   3.471
  100SAPC  H13S 9987   1.582   4.263   3.606
  100SAPC  C214 9988   1.512   4.063   3.589
  100SAPC  H14R 9989   1.487   3.975   3.529
  100SAPC  C215 9990   1.482   4.055   3.713
  100SAPC  H15R 9991   1.439   3.958   3.742
  100SAPC  C216 9992   1.511   4.160   3.822
  100SAPC  H16R 9993   1.489   4.267   3.801
  100SAPC  H16S 9994   1.618   4.157   3.852
  100SAPC  C217 9995   1.435   4.130   3.954
  100SAPC  H17R 9996   1.480   4.192   4.035
  100SAPC  H17S 9997   1.452   4.022   3.976
  100SAPC  C218 9998   1.287   4.162   3.949
  100SAPC  H18R 9999   1.246   4.077   3.891
  100SAPC  H18S10000   1.278   4.262   3.902
  100SAPC  C21910001   1.209   4.162   4.081
  100SAPC  H19R10002   1.109   4.128   4.048
  100SAPC  H19S10003   1.193   4.265   4.120
  100SAPC  C22010004   1.260   4.066   4.187
  100SAPC  H20R10005   1.370   4.057   4.177
  100SAPC  H20S10006   1.215   3.966   4.170
  100SAPC  H20T10007   1.233   4.086   4.294
  100SAPC   C3310008   1.753   3.901   2.513
  100SAPC   H3X10009   1.685   3.831   2.461
  100SAPC   H3Y10010   1.707   4.003   2.516
  100SAPC   C3410011   1.765   3.865   2.663
  100SAPC   H4X10012   1.831   3.930   2.724
  100SAPC   H4Y10013   1.809   3.763   2.665
  100SAPC   C3510014   1.627   3.863   2.721
  100SAPC   H5X10015   1.553   3.823   2.648
  100SAPC   H5Y10016   1.595   3.967   2.742
  100SAPC   C3610017   1.621   3.757   2.834
  100SAPC   H6X10018   1.668   3.669   2.785
  100SAPC   H6Y10019   1.519   3.735   2.872
  100SAPC   C3710020   1.700   3.789   2.965
  100SAPC   H7X10021   1.662   3.887   3.000
  100SAPC   H7Y10022   1.810   3.799   2.954
  100SAPC   C3810023   1.671   3.689   3.080
  100SAPC   H8X10024   1.723   3.594   3.057
  100SAPC   H8Y10025   1.562   3.669   3.090
  100SAPC   C3910026   1.715   3.756   3.215
  100SAPC   H9X10027   1.648   3.837   3.251
  100SAPC   H9Y10028   1.813   3.804   3.194
  100SAPC  C31010029   1.737   3.663   3.343
  100SAPC  H10X10030   1.816   3.587   3.324
  100SAPC  H10Y10031   1.643   3.605   3.348
  100SAPC  C31110032   1.764   3.744   3.467
  100SAPC  H11X10033   1.681   3.818   3.475
  100SAPC  H11Y10034   1.862   3.794   3.459
  100SAPC  C31210035   1.761   3.661   3.594
  100SAPC  H12X10036   1.838   3.581   3.583
  100SAPC  H12Y10037   1.663   3.609   3.587
  100SAPC  C31310038   1.781   3.745   3.718
  100SAPC  H13X10039   1.697   3.817   3.718
  100SAPC  H13Y10040   1.881   3.790   3.701
  100SAPC  C31410041   1.778   3.661   3.851
  100SAPC  H14X10042   1.856   3.585   3.835
  100SAPC  H14Y10043   1.686   3.602   3.870
  100SAPC  C31510044   1.807   3.750   3.976
  100SAPC  H15X10045   1.909   3.792   3.961
  100SAPC  H15Y10046   1.803   3.687   4.067
  100SAPC  C31610047   1.702   3.858   3.980
  100SAPC  H16X10048   1.601   3.815   3.962
  100SAPC  H16Y10049   1.726   3.924   3.894
  100SAPC  C31710050   1.728   3.958   4.095
  100SAPC  H17X10051   1.696   4.063   4.078
  100SAPC  H17Y10052   1.837   3.978   4.109
  100SAPC  C31810053   1.661   3.907   4.230
  100SAPC  H18X10054   1.655   3.983   4.311
  100SAPC  H18Y10055   1.716   3.814   4.254
  100SAPC  H18Z10056   1.557   3.878   4.202
  101OSM      N10057   3.484   2.936   6.797
  101OSM    C1510058   3.429   2.804   6.813
  101OSM   H15A10059   3.328   2.797   6.773
  101OSM   H15B10060   3.423   2.775   6.917
  101OSM   H15C10061   3.491   2.725   6.773
  101OSM    C1410062   3.384   3.036   6.831
  101OSM   H14A10063   3.295   3.013   6.773
  101OSM   H14B10064   3.413   3.140   6.824
  101OSM   H14C10065   3.355   3.028   6.934
  101OSM    C1310066   3.618   2.949   6.873
  101OSM   H13A10067   3.653   3.050   6.886
  101OSM   H13B10068   3.700   2.892   6.832
  101OSM   H13C10069   3.601   2.919   6.975
  101OSM    C1210070   3.517   2.959   6.651
  101OSM   H12A10071   3.598   3.030   6.649
  101OSM   H12B10072   3.432   2.991   6.593
  101OSM    C1110073   3.561   2.831   6.573
  101OSM   H11A10074   3.579   2.850   6.465
  101OSM   H11B10075   3.475   2.762   6.563
  101OSM      P10076   3.721   2.623   6.621
  101OSM    O1310077   3.856   2.611   6.676
  101OSM    O1410078   3.620   2.541   6.683
  101OSM    O1110079   3.713   2.614   6.460
  101OSM    O1210080   3.676   2.773   6.636
  101OSM    C1S10081   3.798   2.695   6.384
  101OSM    H1S10082   3.906   2.681   6.403
  101OSM    H1T10083   3.766   2.800   6.403
  101OSM     NF10084   3.885   2.715   6.147
  101OSM    HNF10085   3.868   2.786   6.079
  101OSM    C2S10086   3.781   2.649   6.233
  101OSM    H2S10087   3.805   2.541   6.223
  101OSM    C3S10088   3.637   2.666   6.177
  101OSM    H3S10089   3.628   2.777   6.166
  101OSM     O310090   3.527   2.658   6.264
  101OSM    HO310091   3.566   2.668   6.351
  101OSM    C4S10092   3.609   2.605   6.039
  101OSM    H4S10093   3.636   2.498   6.036
  101OSM    C5S10094   3.534   2.659   5.943
  101OSM    H5S10095   3.495   2.761   5.961
  101OSM    C6S10096   3.503   2.597   5.814
  101OSM    H6S10097   3.402   2.552   5.809
  101OSM    H6T10098   3.571   2.509   5.805
  101OSM    C7S10099   3.513   2.686   5.693
  101OSM    H7S10100   3.611   2.737   5.708
  101OSM    H7T10101   3.429   2.758   5.703
  101OSM    C8S10102   3.488   2.608   5.570
  101OSM    H8S10103   3.380   2.584   5.571
  101OSM    H8T10104   3.549   2.515   5.581
  101OSM    C9S10105   3.524   2.677   5.436
  101OSM    H9S10106   3.635   2.674   5.426
  101OSM    H9T10107   3.488   2.782   5.441
  101OSM   C10S10108   3.457   2.607   5.314
  101OSM   H10S10109   3.351   2.579   5.331
  101OSM   H10T10110   3.510   2.510   5.304
  101OSM   C11S10111   3.463   2.686   5.186
  101OSM   H11S10112   3.399   2.777   5.190
  101OSM   H11T10113   3.424   2.610   5.115
  101OSM   C12S10114   3.606   2.715   5.130
  101OSM   H12S10115   3.659   2.617   5.134
  101OSM   H12T10116   3.656   2.795   5.190
  101OSM   C13S10117   3.589   2.761   4.983
  101OSM   H13S10118   3.681   2.816   4.952
  101OSM   H13T10119   3.508   2.834   4.968
  101OSM   C14S10120   3.570   2.645   4.890
  101OSM   H14S10121   3.469   2.600   4.902
  101OSM   H14T10122   3.650   2.569   4.907
  101OSM   C15S10123   3.569   2.683   4.738
  101OSM   H15S10124   3.661   2.745   4.728
  101OSM   H15T10125   3.479   2.741   4.711
  101OSM   C16S10126   3.564   2.569   4.634
  101OSM   H16S10127   3.482   2.498   4.658
  101OSM   H16T10128   3.661   2.516   4.622
  101OSM   C17S10129   3.541   2.621   4.487
  101OSM   H17S10130   3.631   2.682   4.464
  101OSM   H17T10131   3.453   2.690   4.485
  101OSM   C18S10132   3.511   2.523   4.372
  101OSM   H18S10133   3.604   2.471   4.340
  101OSM   H18T10134   3.468   2.579   4.286
  101OSM   H18U10135   3.437   2.449   4.410
  101OSM    C1F10136   4.012   2.691   6.168
  101OSM     OF10137   4.046   2.592   6.231
  101OSM    C2F10138   4.113   2.789   6.117
  101OSM    H2F10139   4.215   2.769   6.157
  101OSM    H2G10140   4.077   2.891   6.141
  101OSM    C3F10141   4.122   2.768   5.971
  101OSM    H3F10142   4.023   2.765   5.920
  101OSM    H3G10143   4.165   2.669   5.948
  101OSM    C4F10144   4.194   2.878   5.902
  101OSM    H4F10145   4.301   2.867   5.931
  101OSM    H4G10146   4.163   2.980   5.933
  101OSM    C5F10147   4.201   2.855   5.749
  101OSM    H5F10148   4.120   2.915   5.704
  101OSM    H5G10149   4.157   2.755   5.731
  101OSM    C6F10150   4.337   2.875   5.681
  101OSM    H6F10151   4.408   2.816   5.742
  101OSM    H6G10152   4.369   2.979   5.658
  101OSM    C7F10153   4.330   2.804   5.547
  101OSM    H7F10154   4.300   2.865   5.459
  101OSM    H7G10155   4.260   2.718   5.556
  101OSM    C8F10156   4.465   2.748   5.512
  101OSM    H8F10157   4.452   2.687   5.420
  101OSM    H8G10158   4.510   2.682   5.589
  101OSM    C9F10159   4.563   2.861   5.483
  101OSM    H9F10160   4.573   2.929   5.568
  101OSM   C10F10161   4.620   2.878   5.362
  101OSM   H10F10162   4.677   2.971   5.348
  101OSM   C11F10163   4.605   2.786   5.243
  101OSM   H11F10164   4.602   2.678   5.272
  101OSM   H11G10165   4.700   2.776   5.186
  101OSM   C12F10166   4.515   2.831   5.130
  101OSM   H12F10167   4.414   2.855   5.171
  101OSM   H12G10168   4.492   2.740   5.070
  101OSM   C13F10169   4.574   2.937   5.035
  101OSM   H13F10170   4.678   2.916   5.004
  101OSM   H13G10171   4.591   3.033   5.087
  101OSM   C14F10172   4.473   2.971   4.918
  101OSM   H14F10173   4.389   3.020   4.972
  101OSM   H14G10174   4.442   2.875   4.872
  101OSM   C15F10175   4.535   3.056   4.809
  101OSM   H15F10176   4.610   3.001   4.748
  101OSM   H15G10177   4.583   3.150   4.842
  101OSM   C16F10178   4.429   3.093   4.704
  101OSM   H16F10179   4.375   3.180   4.748
  101OSM   H16G10180   4.350   3.015   4.697
  101OSM   C17F10181   4.478   3.129   4.562
  101OSM   H17F10182   4.566   3.196   4.570
  101OSM   H17G10183   4.398   3.176   4.501
  101OSM   C18F10184   4.520   3.006   4.485
  101OSM   H18F10185   4.600   2.953   4.541
  101OSM   H18G10186   4.549   3.033   4.381
  101OSM   H18H10187   4.445   2.926   4.466
  102OSM      N10188   4.191   2.029   6.735
  102OSM    C1510189   4.051   2.008   6.702
  102OSM   H15A10190   4.038   1.929   6.630
  102OSM   H15B10191   3.996   2.100   6.684
  102OSM   H15C10192   4.005   1.965   6.789
  102OSM    C1410193   4.207   2.144   6.830
  102OSM   H14A10194   4.178   2.102   6.925
  102OSM   H14B10195   4.145   2.225   6.797
  102OSM   H14C10196   4.310   2.177   6.823
  102OSM    C1310197   4.242   1.904   6.793
  102OSM   H13A10198   4.227   1.824   6.722
  102OSM   H13B10199   4.211   1.871   6.891
  102OSM   H13C10200   4.348   1.908   6.813
  102OSM    C1210201   4.268   2.062   6.600
  102OSM   H12A10202   4.246   2.166   6.579
  102OSM   H12B10203   4.215   1.995   6.535
  102OSM    C1110204   4.422   2.050   6.592
  102OSM   H11A10205   4.462   2.097   6.684
  102OSM   H11B10206   4.455   2.107   6.503
  102OSM      P10207   4.432   1.815   6.478
  102OSM    O1310208   4.560   1.812   6.402
  102OSM    O1410209   4.386   1.686   6.538
  102OSM    O1110210   4.312   1.883   6.396
  102OSM    O1210211   4.449   1.914   6.595
  102OSM    C1S10212   4.352   1.937   6.272
  102OSM    H1S10213   4.397   1.853   6.214
  102OSM    H1T10214   4.425   2.017   6.299
  102OSM     NF10215   4.302   2.034   6.053
  102OSM    HNF10216   4.308   2.131   6.029
  102OSM    C2S10217   4.244   1.992   6.181
  102OSM    H2S10218   4.174   1.913   6.146
  102OSM    C3S10219   4.169   2.104   6.260
  102OSM    H3S10220   4.236   2.171   6.316
  102OSM     O310221   4.095   2.051   6.369
  102OSM    HO310222   4.112   1.957   6.378
  102OSM    C4S10223   4.094   2.195   6.162
  102OSM    H4S10224   4.151   2.285   6.133
  102OSM    C5S10225   3.969   2.180   6.117
  102OSM    H5S10226   3.915   2.095   6.162
  102OSM    C6S10227   3.886   2.264   6.016
  102OSM    H6S10228   3.809   2.320   6.073
  102OSM    H6T10229   3.843   2.196   5.940
  102OSM    C7S10230   3.963   2.360   5.939
  102OSM    H7S10231   4.040   2.309   5.876
  102OSM    H7T10232   4.012   2.429   6.011
  102OSM    C8S10233   3.872   2.434   5.835
  102OSM    H8S10234   3.822   2.512   5.897
  102OSM    H8T10235   3.788   2.378   5.789
  102OSM    C9S10236   3.951   2.505   5.721
  102OSM    H9S10237   4.048   2.533   5.767
  102OSM    H9T10238   3.891   2.597   5.705
  102OSM   C10S10239   3.985   2.420   5.599
  102OSM   H10S10240   3.899   2.356   5.570
  102OSM   H10T10241   4.068   2.352   5.625
  102OSM   C11S10242   4.029   2.503   5.473
  102OSM   H11S10243   4.088   2.432   5.410
  102OSM   H11T10244   4.104   2.570   5.521
  102OSM   C12S10245   3.926   2.589   5.399
  102OSM   H12S10246   3.900   2.667   5.474
  102OSM   H12T10247   3.835   2.528   5.379
  102OSM   C13S10248   3.968   2.661   5.269
  102OSM   H13S10249   3.890   2.719   5.214
  102OSM   H13T10250   4.005   2.582   5.199
  102OSM   C14S10251   4.079   2.755   5.298
  102OSM   H14S10252   4.165   2.691   5.327
  102OSM   H14T10253   4.051   2.808   5.392
  102OSM   C15S10254   4.111   2.862   5.189
  102OSM   H15S10255   4.185   2.816   5.119
  102OSM   H15T10256   4.157   2.946   5.245
  102OSM   C16S10257   3.983   2.920   5.112
  102OSM   H16S10258   3.900   2.947   5.182
  102OSM   H16T10259   3.928   2.842   5.055
  102OSM   C17S10260   4.023   3.046   5.031
  102OSM   H17S10261   4.119   3.039   4.974
  102OSM   H17T10262   4.030   3.135   5.098
  102OSM   C18S10263   3.921   3.071   4.914
  102OSM   H18S10264   3.942   2.992   4.840
  102OSM   H18T10265   3.952   3.169   4.871
  102OSM   H18U10266   3.816   3.083   4.948
  102OSM    C1F10267   4.370   1.952   5.973
  102OSM     OF10268   4.365   1.831   5.978
  102OSM    C2F10269   4.444   2.023   5.868
  102OSM    H2F10270   4.499   2.108   5.912
  102OSM    H2G10271   4.367   2.056   5.795
  102OSM    C3F10272   4.544   1.940   5.778
  102OSM    H3F10273   4.509   1.838   5.752
  102OSM    H3G10274   4.637   1.937   5.839
  102OSM    C4F10275   4.561   2.007   5.640
  102OSM    H4F10276   4.610   2.105   5.661
  102OSM    H4G10277   4.464   2.025   5.590
  102OSM    C5F10278   4.654   1.928   5.545
  102OSM    H5F10279   4.612   1.825   5.552
  102OSM    H5G10280   4.752   1.938   5.597
  102OSM    C6F10281   4.668   1.986   5.407
  102OSM    H6F10282   4.684   2.096   5.417
  102OSM    H6G10283   4.566   1.974   5.365
  102OSM    C7F10284   4.779   1.927   5.326
  102OSM    H7F10285   4.761   1.821   5.299
  102OSM    H7G10286   4.855   1.933   5.407
  102OSM    C8F10287   4.833   2.000   5.204
  102OSM    H8F10288   4.923   1.951   5.161
  102OSM    H8G10289   4.880   2.096   5.234
  102OSM    C9F10290   4.722   2.033   5.104
  102OSM    H9F10291   4.616   2.029   5.130
  102OSM   C10F10292   4.747   2.078   4.980
  102OSM   H10F10293   4.658   2.094   4.917
  102OSM   C11F10294   4.877   2.095   4.904
  102OSM   H11F10295   4.960   2.103   4.978
  102OSM   H11G10296   4.895   2.195   4.860
  102OSM   C12F10297   4.900   1.990   4.796
  102OSM   H12F10298   4.864   1.890   4.828
  102OSM   H12G10299   5.006   1.972   4.766
  102OSM   C13F10300   4.825   1.994   4.659
  102OSM   H13F10301   4.715   1.987   4.670
  102OSM   H13G10302   4.853   1.913   4.588
  102OSM   C14F10303   4.856   2.134   4.592
  102OSM   H14F10304   4.967   2.140   4.603
  102OSM   H14G10305   4.821   2.211   4.665
  102OSM   C15F10306   4.814   2.157   4.445
  102OSM   H15F10307   4.704   2.140   4.442
  102OSM   H15G10308   4.870   2.078   4.391
  102OSM   C16F10309   4.866   2.291   4.392
  102OSM   H16F10310   4.976   2.283   4.377
  102OSM   H16G10311   4.851   2.376   4.461
  102OSM   C17F10312   4.802   2.330   4.252
  102OSM   H17F10313   4.802   2.441   4.257
  102OSM   H17G10314   4.694   2.303   4.248
  102OSM   C18F10315   4.876   2.276   4.131
  102OSM   H18F10316   4.840   2.321   4.036
  102OSM   H18G10317   4.863   2.166   4.126
  102OSM   H18H10318   4.986   2.292   4.132
  103OSM      N10319   4.092   4.624   6.332
  103OSM    C1510320   4.027   4.728   6.241
  103OSM   H15A10321   4.094   4.810   6.219
  103OSM   H15B10322   3.943   4.777   6.287
  103OSM   H15C10323   3.995   4.684   6.147
  103OSM    C1410324   3.966   4.545   6.368
  103OSM   H14A10325   3.888   4.610   6.405
  103OSM   H14B10326   3.987   4.465   6.438
  103OSM   H14C10327   3.926   4.506   6.275
  103OSM    C1310328   4.192   4.529   6.274
  103OSM   H13A10329   4.226   4.457   6.346
  103OSM   H13B10330   4.280   4.584   6.242
  103OSM   H13C10331   4.163   4.472   6.187
  103OSM    C1210332   4.142   4.689   6.460
  103OSM   H12A10333   4.194   4.611   6.513
  103OSM   H12B10334   4.057   4.720   6.518
  103OSM    C1110335   4.239   4.808   6.465
  103OSM   H11A10336   4.260   4.828   6.573
  103OSM   H11B10337   4.189   4.897   6.421
  103OSM      P10338   4.502   4.810   6.448
  103OSM    O1310339   4.523   4.953   6.482
  103OSM    O1410340   4.544   4.713   6.550
  103OSM    O1110341   4.590   4.777   6.324
  103OSM    O1210342   4.358   4.777   6.401
  103OSM    C1S10343   4.571   4.663   6.239
  103OSM    H1S10344   4.462   4.642   6.232
  103OSM    H1T10345   4.624   4.578   6.288
  103OSM     NF10346   4.613   4.548   6.041
  103OSM    HNF10347   4.703   4.512   6.020
  103OSM    C2S10348   4.607   4.683   6.095
  103OSM    H2S10349   4.520   4.732   6.048
  103OSM    C3S10350   4.734   4.763   6.064
  103OSM    H3S10351   4.817   4.709   6.114
  103OSM     O310352   4.752   4.886   6.128
  103OSM    HO310353   4.692   4.887   6.203
  103OSM    C4S10354   4.759   4.779   5.916
  103OSM    H4S10355   4.806   4.693   5.867
  103OSM    C5S10356   4.730   4.877   5.835
  103OSM    H5S10357   4.671   4.962   5.873
  103OSM    C6S10358   4.758   4.875   5.691
  103OSM    H6S10359   4.868   4.869   5.681
  103OSM    H6T10360   4.731   4.974   5.649
  103OSM    C7S10361   4.711   4.775   5.585
  103OSM    H7S10362   4.604   4.749   5.600
  103OSM    H7T10363   4.769   4.681   5.594
  103OSM    C8S10364   4.737   4.828   5.441
  103OSM    H8S10365   4.678   4.757   5.379
  103OSM    H8T10366   4.846   4.826   5.424
  103OSM    C9S10367   4.673   4.965   5.408
  103OSM    H9S10368   4.725   5.037   5.475
  103OSM    H9T10369   4.565   4.962   5.433
  103OSM   C10S10370   4.678   4.990   5.257
  103OSM   H10S10371   4.787   5.002   5.239
  103OSM   H10T10372   4.627   5.086   5.233
  103OSM   C11S10373   4.627   4.879   5.166
  103OSM   H11S10374   4.529   4.840   5.199
  103OSM   H11T10375   4.697   4.793   5.160
  103OSM   C12S10376   4.605   4.926   5.022
  103OSM   H12S10377   4.539   5.015   5.027
  103OSM   H12T10378   4.554   4.845   4.965
  103OSM   C13S10379   4.733   4.971   4.949
  103OSM   H13S10380   4.798   4.881   4.947
  103OSM   H13T10381   4.773   5.043   5.025
  103OSM   C14S10382   4.708   5.028   4.811
  103OSM   H14S10383   4.679   5.135   4.823
  103OSM   H14T10384   4.627   4.975   4.756
  103OSM   C15S10385   4.839   5.015   4.729
  103OSM   H15S10386   4.871   4.910   4.710
  103OSM   H15T10387   4.927   5.050   4.787
  103OSM   C16S10388   4.841   5.099   4.592
  103OSM   H16S10389   4.943   5.130   4.563
  103OSM   H16T10390   4.797   5.198   4.613
  103OSM   C17S10391   4.777   5.019   4.483
  103OSM   H17S10392   4.709   4.951   4.538
  103OSM   H17T10393   4.858   4.961   4.434
  103OSM   C18S10394   4.704   5.099   4.374
  103OSM   H18S10395   4.768   5.186   4.347
  103OSM   H18T10396   4.612   5.145   4.417
  103OSM   H18U10397   4.693   5.037   4.283
  103OSM    C1F10398   4.513   4.463   6.021
  103OSM     OF10399   4.395   4.502   6.014
  103OSM    C2F10400   4.551   4.323   6.016
  103OSM    H2F10401   4.575   4.299   6.122
  103OSM    H2G10402   4.636   4.308   5.946
  103OSM    C3F10403   4.438   4.233   5.973
  103OSM    H3F10404   4.365   4.244   6.056
  103OSM    H3G10405   4.481   4.131   5.970
  103OSM    C4F10406   4.398   4.263   5.832
  103OSM    H4F10407   4.362   4.363   5.798
  103OSM    H4G10408   4.318   4.193   5.802
  103OSM    C5F10409   4.504   4.234   5.720
  103OSM    H5F10410   4.573   4.151   5.745
  103OSM    H5G10411   4.569   4.323   5.716
  103OSM    C6F10412   4.449   4.215   5.582
  103OSM    H6F10413   4.372   4.294   5.570
  103OSM    H6G10414   4.400   4.115   5.579
  103OSM    C7F10415   4.554   4.220   5.465
  103OSM    H7F10416   4.520   4.180   5.368
  103OSM    H7G10417   4.642   4.162   5.501
  103OSM    C8F10418   4.611   4.360   5.439
  103OSM    H8F10419   4.684   4.346   5.356
  103OSM    H8G10420   4.677   4.384   5.525
  103OSM    C9F10421   4.514   4.472   5.424
  103OSM    H9F10422   4.485   4.524   5.517
  103OSM   C10F10423   4.455   4.509   5.312
  103OSM   H10F10424   4.394   4.600   5.316
  103OSM   C11F10425   4.486   4.446   5.178
  103OSM   H11F10426   4.393   4.395   5.147
  103OSM   H11G10427   4.567   4.370   5.171
  103OSM   C12F10428   4.524   4.546   5.075
  103OSM   H12F10429   4.628   4.580   5.095
  103OSM   H12G10430   4.457   4.635   5.080
  103OSM   C13F10431   4.519   4.497   4.925
  103OSM   H13F10432   4.584   4.408   4.914
  103OSM   H13G10433   4.576   4.563   4.856
  103OSM   C14F10434   4.378   4.469   4.872
  103OSM   H14F10435   4.308   4.555   4.866
  103OSM   H14G10436   4.338   4.395   4.945
  103OSM   C15F10437   4.371   4.417   4.734
  103OSM   H15F10438   4.266   4.409   4.696
  103OSM   H15G10439   4.410   4.313   4.740
  103OSM   C16F10440   4.448   4.490   4.629
  103OSM   H16F10441   4.556   4.470   4.648
  103OSM   H16G10442   4.424   4.599   4.631
  103OSM   C17F10443   4.419   4.441   4.486
  103OSM   H17F10444   4.317   4.474   4.456
  103OSM   H17G10445   4.421   4.330   4.482
  103OSM   C18F10446   4.521   4.499   4.384
  103OSM   H18F10447   4.628   4.469   4.388
  103OSM   H18G10448   4.508   4.609   4.386
  103OSM   H18H10449   4.494   4.466   4.281
  104OSM      N10450   5.309   2.833   7.075
  104OSM    C1510451   5.344   2.902   7.203
  104OSM   H15A10452   5.402   2.992   7.183
  104OSM   H15B10453   5.395   2.846   7.280
  104OSM   H15C10454   5.254   2.937   7.250
  104OSM    C1410455   5.218   2.719   7.114
  104OSM   H14A10456   5.255   2.657   7.195
  104OSM   H14B10457   5.217   2.659   7.024
  104OSM   H14C10458   5.120   2.759   7.138
  104OSM    C1310459   5.234   2.926   6.999
  104OSM   H13A10460   5.187   2.889   6.909
  104OSM   H13B10461   5.298   3.000   6.952
  104OSM   H13C10462   5.160   2.975   7.061
  104OSM    C1210463   5.435   2.796   6.997
  104OSM   H12A10464   5.493   2.723   7.051
  104OSM   H12B10465   5.499   2.881   6.983
  104OSM    C1110466   5.412   2.755   6.857
  104OSM   H11A10467   5.513   2.724   6.822
  104OSM   H11B10468   5.379   2.836   6.790
  104OSM      P10469   5.358   2.502   6.847
  104OSM    O1310470   5.471   2.463   6.934
  104OSM    O1410471   5.235   2.432   6.882
  104OSM    O1110472   5.403   2.482   6.695
  104OSM    O1210473   5.319   2.648   6.862
  104OSM    C1S10474   5.308   2.494   6.586
  104OSM    H1S10475   5.230   2.572   6.602
  104OSM    H1T10476   5.257   2.400   6.558
  104OSM     NF10477   5.275   2.565   6.356
  104OSM    HNF10478   5.258   2.499   6.282
  104OSM    C2S10479   5.385   2.545   6.455
  104OSM    H2S10480   5.432   2.637   6.497
  104OSM    C3S10481   5.498   2.453   6.417
  104OSM    H3S10482   5.450   2.362   6.375
  104OSM     O310483   5.590   2.407   6.521
  104OSM    HO310484   5.541   2.427   6.601
  104OSM    C4S10485   5.576   2.501   6.300
  104OSM    H4S10486   5.531   2.470   6.204
  104OSM    C5S10487   5.698   2.561   6.295
  104OSM    H5S10488   5.752   2.597   6.384
  104OSM    C6S10489   5.774   2.596   6.166
  104OSM    H6S10490   5.873   2.544   6.171
  104OSM    H6T10491   5.793   2.705   6.156
  104OSM    C7S10492   5.715   2.557   6.026
  104OSM    H7S10493   5.623   2.618   6.022
  104OSM    H7T10494   5.692   2.448   6.024
  104OSM    C8S10495   5.796   2.603   5.903
  104OSM    H8S10496   5.891   2.545   5.906
  104OSM    H8T10497   5.827   2.709   5.907
  104OSM    C9S10498   5.739   2.570   5.770
  104OSM    H9S10499   5.669   2.655   5.752
  104OSM    H9T10500   5.681   2.475   5.767
  104OSM   C10S10501   5.844   2.575   5.658
  104OSM   H10S10502   5.927   2.506   5.683
  104OSM   H10T10503   5.889   2.677   5.659
  104OSM   C11S10504   5.783   2.553   5.516
  104OSM   H11S10505   5.705   2.631   5.503
  104OSM   H11T10506   5.734   2.453   5.514
  104OSM   C12S10507   5.884   2.578   5.402
  104OSM   H12S10508   5.953   2.491   5.389
  104OSM   H12T10509   5.956   2.658   5.430
  104OSM   C13S10510   5.821   2.600   5.263
  104OSM   H13S10511   5.743   2.679   5.265
  104OSM   H13T10512   5.753   2.513   5.248
  104OSM   C14S10513   5.914   2.616   5.141
  104OSM   H14S10514   6.001   2.547   5.146
  104OSM   H14T10515   5.951   2.721   5.140
  104OSM   C15S10516   5.844   2.578   5.016
  104OSM   H15S10517   5.787   2.670   4.988
  104OSM   H15T10518   5.764   2.503   5.035
  104OSM   C16S10519   5.927   2.539   4.896
  104OSM   H16S10520   6.015   2.478   4.925
  104OSM   H16T10521   5.975   2.632   4.857
  104OSM   C17S10522   5.839   2.468   4.796
  104OSM   H17S10523   5.734   2.504   4.803
  104OSM   H17T10524   5.830   2.363   4.832
  104OSM   C18S10525   5.894   2.453   4.653
  104OSM   H18S10526   5.988   2.395   4.650
  104OSM   H18T10527   5.903   2.546   4.595
  104OSM   H18U10528   5.825   2.393   4.589
  104OSM    C1F10529   5.185   2.664   6.360
  104OSM     OF10530   5.209   2.760   6.437
  104OSM    C2F10531   5.069   2.664   6.258
  104OSM    H2F10532   4.979   2.627   6.312
  104OSM    H2G10533   5.083   2.593   6.173
  104OSM    C3F10534   5.028   2.806   6.207
  104OSM    H3F10535   5.043   2.882   6.286
  104OSM    H3G10536   4.922   2.782   6.183
  104OSM    C4F10537   5.122   2.864   6.098
  104OSM    H4F10538   5.227   2.862   6.135
  104OSM    H4G10539   5.099   2.972   6.086
  104OSM    C5F10540   5.108   2.800   5.960
  104OSM    H5F10541   5.013   2.820   5.907
  104OSM    H5G10542   5.095   2.691   5.976
  104OSM    C6F10543   5.225   2.822   5.861
  104OSM    H6F10544   5.315   2.800   5.921
  104OSM    H6G10545   5.226   2.927   5.826
  104OSM    C7F10546   5.213   2.723   5.752
  104OSM    H7F10547   5.123   2.741   5.689
  104OSM    H7G10548   5.210   2.622   5.800
  104OSM    C8F10549   5.341   2.711   5.668
  104OSM    H8F10550   5.328   2.638   5.585
  104OSM    H8G10551   5.435   2.683   5.721
  104OSM    C9F10552   5.364   2.841   5.596
  104OSM    H9F10553   5.370   2.924   5.668
  104OSM   C10F10554   5.375   2.861   5.464
  104OSM   H10F10555   5.381   2.967   5.434
  104OSM   C11F10556   5.355   2.764   5.354
  104OSM   H11F10557   5.248   2.743   5.330
  104OSM   H11G10558   5.397   2.668   5.392
  104OSM   C12F10559   5.432   2.811   5.229
  104OSM   H12F10560   5.539   2.795   5.253
  104OSM   H12G10561   5.422   2.921   5.216
  104OSM   C13F10562   5.382   2.739   5.107
  104OSM   H13F10563   5.272   2.754   5.099
  104OSM   H13G10564   5.407   2.632   5.122
  104OSM   C14F10565   5.439   2.793   4.981
  104OSM   H14F10566   5.546   2.816   4.999
  104OSM   H14G10567   5.394   2.893   4.964
  104OSM   C15F10568   5.429   2.698   4.859
  104OSM   H15F10569   5.468   2.598   4.890
  104OSM   H15G10570   5.499   2.720   4.775
  104OSM   C16F10571   5.294   2.663   4.798
  104OSM   H16F10572   5.233   2.743   4.752
  104OSM   H16G10573   5.232   2.634   4.885
  104OSM   C17F10574   5.288   2.533   4.711
  104OSM   H17F10575   5.326   2.437   4.751
  104OSM   H17G10576   5.359   2.548   4.627
  104OSM   C18F10577   5.150   2.500   4.650
  104OSM   H18F10578   5.122   2.392   4.656
  104OSM   H18G10579   5.134   2.521   4.542
  104OSM   H18H10580   5.081   2.558   4.714
  105OSM      N10581   5.667   3.528   7.080
  105OSM    C1510582   5.781   3.486   6.997
  105OSM   H15A10583   5.763   3.499   6.891
  105OSM   H15B10584   5.804   3.382   7.009
  105OSM   H15C10585   5.862   3.555   7.018
  105OSM    C1410586   5.532   3.490   7.022
  105OSM   H14A10587   5.519   3.551   6.933
  105OSM   H14B10588   5.448   3.507   7.087
  105OSM   H14C10589   5.528   3.383   7.004
  105OSM    C1310590   5.692   3.481   7.224
  105OSM   H13A10591   5.793   3.499   7.254
  105OSM   H13B10592   5.678   3.374   7.236
  105OSM   H13C10593   5.625   3.522   7.298
  105OSM    C1210594   5.667   3.685   7.093
  105OSM   H12A10595   5.599   3.714   7.172
  105OSM   H12B10596   5.638   3.720   6.995
  105OSM    C1110597   5.812   3.743   7.124
  105OSM   H11A10598   5.859   3.678   7.201
  105OSM   H11B10599   5.794   3.832   7.189
  105OSM      P10600   5.884   3.883   6.901
  105OSM    O1310601   5.759   3.894   6.820
  105OSM    O1410602   5.914   4.005   6.977
  105OSM    O1110603   6.008   3.857   6.808
  105OSM    O1210604   5.882   3.769   7.008
  105OSM    C1S10605   6.028   3.728   6.759
  105OSM    H1S10606   5.980   3.647   6.818
  105OSM    H1T10607   6.135   3.697   6.750
  105OSM     NF10608   5.998   3.584   6.570
  105OSM    HNF10609   6.079   3.575   6.514
  105OSM    C2S10610   5.971   3.716   6.618
  105OSM    H2S10611   5.861   3.727   6.629
  105OSM    C3S10612   6.019   3.836   6.525
  105OSM    H3S10613   6.126   3.818   6.501
  105OSM     O310614   6.017   3.969   6.582
  105OSM    HO310615   5.978   3.946   6.666
  105OSM    C4S10616   5.939   3.825   6.393
  105OSM    H4S10617   5.983   3.753   6.322
  105OSM    C5S10618   5.815   3.882   6.364
  105OSM    H5S10619   5.773   3.945   6.444
  105OSM    C6S10620   5.739   3.885   6.234
  105OSM    H6S10621   5.714   3.991   6.213
  105OSM    H6T10622   5.645   3.826   6.244
  105OSM    C7S10623   5.809   3.822   6.112
  105OSM    H7S10624   5.806   3.711   6.114
  105OSM    H7T10625   5.908   3.865   6.086
  105OSM    C8S10626   5.735   3.860   5.982
  105OSM    H8S10627   5.731   3.970   5.968
  105OSM    H8T10628   5.628   3.834   5.995
  105OSM    C9S10629   5.794   3.785   5.863
  105OSM    H9S10630   5.790   3.678   5.893
  105OSM    H9T10631   5.903   3.808   5.862
  105OSM   C10S10632   5.719   3.829   5.736
  105OSM   H10S10633   5.713   3.939   5.730
  105OSM   H10T10634   5.621   3.778   5.750
  105OSM   C11S10635   5.761   3.781   5.596
  105OSM   H11S10636   5.677   3.815   5.531
  105OSM   H11T10637   5.784   3.674   5.579
  105OSM   C12S10638   5.897   3.839   5.553
  105OSM   H12S10639   5.978   3.786   5.608
  105OSM   H12T10640   5.901   3.946   5.580
  105OSM   C13S10641   5.916   3.822   5.402
  105OSM   H13S10642   5.847   3.891   5.348
  105OSM   H13T10643   5.883   3.720   5.374
  105OSM   C14S10644   6.060   3.856   5.351
  105OSM   H14S10645   6.123   3.853   5.443
  105OSM   H14T10646   6.057   3.962   5.319
  105OSM   C15S10647   6.104   3.764   5.240
  105OSM   H15S10648   6.095   3.657   5.268
  105OSM   H15T10649   6.212   3.777   5.220
  105OSM   C16S10650   6.029   3.796   5.107
  105OSM   H16S10651   6.065   3.891   5.062
  105OSM   H16T10652   5.927   3.797   5.151
  105OSM   C17S10653   6.033   3.672   5.008
  105OSM   H17S10654   6.002   3.588   5.073
  105OSM   H17T10655   6.136   3.652   4.969
  105OSM   C18S10656   5.929   3.686   4.891
  105OSM   H18S10657   5.889   3.590   4.854
  105OSM   H18T10658   5.969   3.765   4.824
  105OSM   H18U10659   5.839   3.737   4.932
  105OSM    C1F10660   5.923   3.473   6.602
  105OSM     OF10661   5.849   3.475   6.705
  105OSM    C2F10662   5.932   3.345   6.521
  105OSM    H2F10663   5.945   3.270   6.602
  105OSM    H2G10664   6.027   3.345   6.463
  105OSM    C3F10665   5.808   3.317   6.440
  105OSM    H3F10666   5.719   3.345   6.501
  105OSM    H3G10667   5.813   3.209   6.412
  105OSM    C4F10668   5.775   3.419   6.325
  105OSM    H4F10669   5.768   3.517   6.376
  105OSM    H4G10670   5.684   3.382   6.272
  105OSM    C5F10671   5.891   3.431   6.225
  105OSM    H5F10672   5.987   3.435   6.280
  105OSM    H5G10673   5.871   3.523   6.166
  105OSM    C6F10674   5.891   3.303   6.136
  105OSM    H6F10675   5.802   3.287   6.072
  105OSM    H6G10676   5.902   3.214   6.201
  105OSM    C7F10677   6.013   3.275   6.044
  105OSM    H7F10678   5.989   3.177   5.998
  105OSM    H7G10679   6.110   3.248   6.092
  105OSM    C8F10680   6.040   3.394   5.944
  105OSM    H8F10681   6.138   3.372   5.896
  105OSM    H8G10682   6.043   3.486   6.006
  105OSM    C9F10683   5.928   3.419   5.849
  105OSM    H9F10684   5.833   3.454   5.892
  105OSM   C10F10685   5.932   3.419   5.716
  105OSM   H10F10686   5.844   3.459   5.664
  105OSM   C11F10687   6.051   3.396   5.626
  105OSM   H11F10688   6.124   3.473   5.658
  105OSM   H11G10689   6.028   3.424   5.521
  105OSM   C12F10690   6.101   3.255   5.631
  105OSM   H12F10691   6.022   3.194   5.583
  105OSM   H12G10692   6.117   3.217   5.734
  105OSM   C13F10693   6.227   3.231   5.541
  105OSM   H13F10694   6.256   3.126   5.562
  105OSM   H13G10695   6.304   3.294   5.591
  105OSM   C14F10696   6.195   3.266   5.395
  105OSM   H14F10697   6.186   3.377   5.390
  105OSM   H14G10698   6.107   3.213   5.354
  105OSM   C15F10699   6.303   3.218   5.290
  105OSM   H15F10700   6.308   3.107   5.298
  105OSM   H15G10701   6.400   3.265   5.317
  105OSM   C16F10702   6.250   3.245   5.145
  105OSM   H16F10703   6.339   3.251   5.079
  105OSM   H16G10704   6.210   3.348   5.159
  105OSM   C17F10705   6.160   3.141   5.089
  105OSM   H17F10706   6.064   3.131   5.144
  105OSM   H17G10707   6.219   3.048   5.077
  105OSM   C18F10708   6.109   3.177   4.943
  105OSM   H18F10709   6.192   3.203   4.873
  105OSM   H18G10710   6.041   3.264   4.947
  105OSM   H18H10711   6.054   3.094   4.895
  106OSM      N10712   4.176   1.171   6.772
  106OSM    C1510713   4.098   1.281   6.850
  106OSM   H15A10714   4.139   1.288   6.950
  106OSM   H15B10715   3.994   1.254   6.857
  106OSM   H15C10716   4.114   1.376   6.803
  106OSM    C1410717   4.321   1.202   6.795
  106OSM   H14A10718   4.342   1.175   6.897
  106OSM   H14B10719   4.356   1.299   6.763
  106OSM   H14C10720   4.379   1.131   6.738
  106OSM    C1310721   4.150   1.043   6.845
  106OSM   H13A10722   4.188   1.047   6.946
  106OSM   H13B10723   4.189   0.957   6.792
  106OSM   H13C10724   4.047   1.025   6.869
  106OSM    C1210725   4.150   1.162   6.627
  106OSM   H12A10726   4.043   1.145   6.625
  106OSM   H12B10727   4.186   1.076   6.573
  106OSM    C1110728   4.186   1.292   6.555
  106OSM   H11A10729   4.156   1.382   6.612
  106OSM   H11B10730   4.126   1.304   6.463
  106OSM      P10731   4.372   1.220   6.398
  106OSM    O1310732   4.517   1.218   6.406
  106OSM    O1410733   4.305   1.093   6.396
  106OSM    O1110734   4.319   1.328   6.291
  106OSM    O1210735   4.325   1.296   6.525
  106OSM    C1S10736   4.370   1.456   6.275
  106OSM    H1S10737   4.469   1.456   6.325
  106OSM    H1T10738   4.312   1.538   6.322
  106OSM     NF10739   4.478   1.595   6.092
  106OSM    HNF10740   4.435   1.670   6.041
  106OSM    C2S10741   4.383   1.489   6.120
  106OSM    H2S10742   4.429   1.395   6.081
  106OSM    C3S10743   4.242   1.500   6.052
  106OSM    H3S10744   4.189   1.589   6.092
  106OSM     O310745   4.147   1.396   6.075
  106OSM    HO310746   4.193   1.340   6.138
  106OSM    C4S10747   4.245   1.521   5.901
  106OSM    H4S10748   4.258   1.627   5.877
  106OSM    C5S10749   4.236   1.437   5.796
  106OSM    H5S10750   4.226   1.331   5.823
  106OSM    C6S10751   4.228   1.466   5.650
  106OSM    H6S10752   4.124   1.458   5.611
  106OSM    H6T10753   4.290   1.392   5.595
  106OSM    C7S10754   4.276   1.606   5.599
  106OSM    H7S10755   4.383   1.611   5.626
  106OSM    H7T10756   4.228   1.686   5.659
  106OSM    C8S10757   4.254   1.623   5.444
  106OSM    H8S10758   4.145   1.617   5.420
  106OSM    H8T10759   4.298   1.542   5.383
  106OSM    C9S10760   4.319   1.756   5.401
  106OSM    H9S10761   4.430   1.761   5.400
  106OSM    H9T10762   4.290   1.829   5.480
  106OSM   C10S10763   4.263   1.800   5.259
  106OSM   H10S10764   4.153   1.786   5.263
  106OSM   H10T10765   4.309   1.739   5.177
  106OSM   C11S10766   4.301   1.943   5.220
  106OSM   H11S10767   4.401   1.965   5.263
  106OSM   H11T10768   4.232   2.018   5.265
  106OSM   C12S10769   4.287   1.971   5.067
  106OSM   H12S10770   4.176   1.973   5.058
  106OSM   H12T10771   4.320   1.890   4.999
  106OSM   C13S10772   4.333   2.107   5.027
  106OSM   H13S10773   4.441   2.124   5.044
  106OSM   H13T10774   4.267   2.180   5.079
  106OSM   C14S10775   4.288   2.139   4.881
  106OSM   H14S10776   4.296   2.249   4.870
  106OSM   H14T10777   4.181   2.110   4.888
  106OSM   C15S10778   4.369   2.075   4.761
  106OSM   H15S10779   4.375   1.964   4.774
  106OSM   H15T10780   4.471   2.114   4.779
  106OSM   C16S10781   4.325   2.117   4.618
  106OSM   H16S10782   4.291   2.223   4.623
  106OSM   H16T10783   4.240   2.051   4.590
  106OSM   C17S10784   4.437   2.106   4.508
  106OSM   H17S10785   4.488   2.009   4.517
  106OSM   H17T10786   4.510   2.186   4.533
  106OSM   C18S10787   4.400   2.128   4.357
  106OSM   H18S10788   4.321   2.050   4.352
  106OSM   H18T10789   4.482   2.119   4.283
  106OSM   H18U10790   4.345   2.223   4.337
  106OSM    C1F10791   4.604   1.583   6.123
  106OSM     OF10792   4.649   1.480   6.170
  106OSM    C2F10793   4.689   1.703   6.101
  106OSM    H2F10794   4.700   1.739   6.205
  106OSM    H2G10795   4.642   1.788   6.048
  106OSM    C3F10796   4.830   1.671   6.051
  106OSM    H3F10797   4.887   1.626   6.135
  106OSM    H3G10798   4.879   1.767   6.026
  106OSM    C4F10799   4.831   1.575   5.936
  106OSM    H4F10800   4.756   1.494   5.953
  106OSM    H4G10801   4.930   1.524   5.936
  106OSM    C5F10802   4.798   1.638   5.800
  106OSM    H5F10803   4.869   1.708   5.753
  106OSM    H5G10804   4.702   1.693   5.810
  106OSM    C6F10805   4.753   1.541   5.687
  106OSM    H6F10806   4.844   1.483   5.659
  106OSM    H6G10807   4.716   1.599   5.599
  106OSM    C7F10808   4.660   1.427   5.722
  106OSM    H7F10809   4.577   1.473   5.781
  106OSM    H7G10810   4.710   1.361   5.795
  106OSM    C8F10811   4.605   1.341   5.603
  106OSM    H8F10812   4.567   1.416   5.529
  106OSM    H8G10813   4.519   1.285   5.646
  106OSM    C9F10814   4.695   1.240   5.542
  106OSM    H9F10815   4.762   1.191   5.615
  106OSM   C10F10816   4.705   1.205   5.411
  106OSM   H10F10817   4.790   1.141   5.381
  106OSM   C11F10818   4.618   1.261   5.302
  106OSM   H11F10819   4.515   1.267   5.342
  106OSM   H11G10820   4.605   1.187   5.220
  106OSM   C12F10821   4.670   1.395   5.248
  106OSM   H12F10822   4.774   1.375   5.217
  106OSM   H12G10823   4.686   1.471   5.327
  106OSM   C13F10824   4.573   1.466   5.157
  106OSM   H13F10825   4.470   1.444   5.193
  106OSM   H13G10826   4.569   1.418   5.056
  106OSM   C14F10827   4.598   1.616   5.141
  106OSM   H14F10828   4.708   1.623   5.128
  106OSM   H14G10829   4.566   1.660   5.238
  106OSM   C15F10830   4.535   1.681   5.021
  106OSM   H15F10831   4.541   1.789   5.048
  106OSM   H15G10832   4.427   1.655   5.019
  106OSM   C16F10833   4.603   1.645   4.894
  106OSM   H16F10834   4.593   1.535   4.881
  106OSM   H16G10835   4.710   1.663   4.918
  106OSM   C17F10836   4.561   1.729   4.768
  106OSM   H17F10837   4.586   1.835   4.788
  106OSM   H17G10838   4.451   1.725   4.757
  106OSM   C18F10839   4.640   1.689   4.647
  106OSM   H18F10840   4.647   1.764   4.565
  106OSM   H18G10841   4.597   1.592   4.613
  106OSM   H18H10842   4.745   1.674   4.681
  107OSM      N10843   4.047   0.332   6.556
  107OSM    C1510844   4.095   0.246   6.663
  107OSM   H15A10845   4.035   0.157   6.676
  107OSM   H15B10846   4.100   0.302   6.756
  107OSM   H15C10847   4.196   0.215   6.642
  107OSM    C1410848   3.905   0.375   6.571
  107OSM   H14A10849   3.891   0.460   6.506
  107OSM   H14B10850   3.888   0.398   6.675
  107OSM   H14C10851   3.838   0.298   6.538
  107OSM    C1310852   4.129   0.459   6.552
  107OSM   H13A10853   4.231   0.425   6.539
  107OSM   H13B10854   4.121   0.523   6.639
  107OSM   H13C10855   4.105   0.517   6.464
  107OSM    C1210856   4.056   0.272   6.418
  107OSM   H12A10857   4.160   0.246   6.405
  107OSM   H12B10858   4.039   0.349   6.344
  107OSM    C1110859   3.963   0.152   6.385
  107OSM   H11A10860   3.998   0.115   6.286
  107OSM   H11B10861   3.859   0.188   6.370
  107OSM      P10862   3.850   6.835   6.498
  107OSM    O1310863   3.899   6.709   6.566
  107OSM    O1410864   3.736   0.029   6.559
  107OSM    O1110865   3.821   6.808   6.345
  107OSM    O1210866   3.975   0.045   6.478
  107OSM    C1S10867   3.755   6.685   6.311
  107OSM    H1S10868   3.644   6.688   6.321
  107OSM    H1T10869   3.799   6.598   6.363
  107OSM     NF10870   3.679   6.545   6.119
  107OSM    HNF10871   3.703   6.449   6.128
  107OSM    C2S10872   3.772   6.647   6.162
  107OSM    H2S10873   3.743   6.741   6.110
  107OSM    C3S10874   3.928   6.621   6.138
  107OSM    H3S10875   3.967   6.536   6.198
  107OSM     O310876   4.017   6.729   6.166
  107OSM    HO310877   3.973   6.786   6.229
  107OSM    C4S10878   3.950   6.579   5.990
  107OSM    H4S10879   3.918   6.657   5.920
  107OSM    C5S10880   3.965   6.453   5.935
  107OSM    H5S10881   3.958   6.370   6.008
  107OSM    C6S10882   3.951   6.426   5.785
  107OSM    H6S10883   3.843   6.407   5.769
  107OSM    H6T10884   3.992   6.328   5.754
  107OSM    C7S10885   3.996   6.544   5.698
  107OSM    H7S10886   4.097   6.574   5.734
  107OSM    H7T10887   3.919   6.620   5.723
  107OSM    C8S10888   4.007   6.518   5.545
  107OSM    H8S10889   3.911   6.479   5.506
  107OSM    H8T10890   4.092   6.453   5.519
  107OSM    C9S10891   4.051   6.647   5.463
  107OSM    H9S10892   4.147   6.684   5.505
  107OSM    H9T10893   3.975   6.726   5.482
  107OSM   C10S10894   4.067   6.627   5.309
  107OSM   H10S10895   4.123   6.713   5.267
  107OSM   H10T10896   3.962   6.642   5.276
  107OSM   C11S10897   4.144   6.500   5.257
  107OSM   H11S10898   4.101   6.418   5.319
  107OSM   H11T10899   4.251   6.501   5.285
  107OSM   C12S10900   4.129   6.482   5.111
  107OSM   H12S10901   4.134   6.570   5.044
  107OSM   H12T10902   4.033   6.432   5.083
  107OSM   C13S10903   4.239   6.391   5.049
  107OSM   H13S10904   4.188   6.332   4.971
  107OSM   H13T10905   4.271   6.313   5.122
  107OSM   C14S10906   4.367   6.460   4.997
  107OSM   H14S10907   4.418   6.521   5.074
  107OSM   H14T10908   4.352   6.528   4.910
  107OSM   C15S10909   4.459   6.355   4.946
  107OSM   H15S10910   4.420   6.289   4.866
  107OSM   H15T10911   4.495   6.290   5.029
  107OSM   C16S10912   4.594   6.416   4.890
  107OSM   H16S10913   4.639   6.451   4.986
  107OSM   H16T10914   4.579   6.501   4.819
  107OSM   C17S10915   4.677   6.315   4.806
  107OSM   H17S10916   4.694   6.215   4.850
  107OSM   H17T10917   4.774   6.365   4.785
  107OSM   C18S10918   4.612   6.284   4.670
  107OSM   H18S10919   4.665   6.202   4.617
  107OSM   H18T10920   4.605   6.374   4.606
  107OSM   H18U10921   4.510   6.250   4.697
  107OSM    C1F10922   3.553   6.576   6.080
  107OSM     OF10923   3.511   6.691   6.086
  107OSM    C2F10924   3.463   6.464   6.027
  107OSM    H2F10925   3.412   6.407   6.107
  107OSM    H2G10926   3.533   6.390   5.983
  107OSM    C3F10927   3.355   6.514   5.922
  107OSM    H3F10928   3.313   6.607   5.966
  107OSM    H3G10929   3.271   6.442   5.907
  107OSM    C4F10930   3.424   6.542   5.787
  107OSM    H4F10931   3.457   6.448   5.737
  107OSM    H4G10932   3.519   6.581   5.828
  107OSM    C5F10933   3.343   6.632   5.687
  107OSM    H5F10934   3.333   6.730   5.738
  107OSM    H5G10935   3.245   6.579   5.681
  107OSM    C6F10936   3.407   6.636   5.547
  107OSM    H6F10937   3.338   6.690   5.478
  107OSM    H6G10938   3.392   6.532   5.512
  107OSM    C7F10939   3.550   6.686   5.550
  107OSM    H7F10940   3.610   6.627   5.622
  107OSM    H7G10941   3.542   6.790   5.590
  107OSM    C8F10942   3.620   6.685   5.414
  107OSM    H8F10943   3.718   6.738   5.416
  107OSM    H8G10944   3.557   6.743   5.343
  107OSM    C9F10945   3.657   6.546   5.374
  107OSM    H9F10946   3.645   6.470   5.452
  107OSM   C10F10947   3.673   6.503   5.246
  107OSM   H10F10948   3.703   6.400   5.221
  107OSM   C11F10949   3.662   6.590   5.126
  107OSM   H11F10950   3.670   6.698   5.152
  107OSM   H11G10951   3.561   6.575   5.082
  107OSM   C12F10952   3.769   6.577   5.010
  107OSM   H12F10953   3.743   6.475   4.973
  107OSM   H12G10954   3.873   6.561   5.046
  107OSM   C13F10955   3.763   6.686   4.904
  107OSM   H13F10956   3.792   6.780   4.956
  107OSM   H13G10957   3.657   6.694   4.870
  107OSM   C14F10958   3.852   6.665   4.783
  107OSM   H14F10959   3.807   6.710   4.692
  107OSM   H14G10960   3.848   6.557   4.759
  107OSM   C15F10961   4.000   6.699   4.798
  107OSM   H15F10962   4.041   6.633   4.877
  107OSM   H15G10963   4.014   6.807   4.824
  107OSM   C16F10964   4.077   6.679   4.664
  107OSM   H16F10965   4.033   6.763   4.606
  107OSM   H16G10966   4.042   6.587   4.612
  107OSM   C17F10967   4.229   6.671   4.684
  107OSM   H17F10968   4.285   6.662   4.588
  107OSM   H17G10969   4.245   6.574   4.736
  107OSM   C18F10970   4.281   6.784   4.777
  107OSM   H18F10971   4.386   6.754   4.797
  107OSM   H18G10972   4.226   6.772   4.873
  107OSM   H18H10973   4.283   0.003   4.724
  108OSM      N10974   6.522   5.538   6.938
  108OSM    C1510975   6.627   5.593   6.850
  108OSM   H15A10976   6.656   5.530   6.767
  108OSM   H15B10977   6.716   5.617   6.905
  108OSM   H15C10978   6.601   5.688   6.805
  108OSM    C1410979   6.574   5.418   7.006
  108OSM   H14A10980   6.663   5.433   7.065
  108OSM   H14B10981   6.605   5.337   6.941
  108OSM   H14C10982   6.501   5.369   7.069
  108OSM    C1310983   6.486   5.649   7.038
  108OSM   H13A10984   6.418   5.612   7.114
  108OSM   H13B10985   6.438   5.729   6.985
  108OSM   H13C10986   6.574   5.672   7.097
  108OSM    C1210987   6.401   5.499   6.856
  108OSM   H12A10988   6.433   5.413   6.798
  108OSM   H12B10989   6.386   5.585   6.793
  108OSM    C1110990   6.276   5.461   6.930
  108OSM   H11A10991   6.301   5.373   6.993
  108OSM   H11B10992   6.210   5.425   6.848
  108OSM      P10993   6.142   5.687   6.932
  108OSM    O1310994   6.000   5.660   6.948
  108OSM    O1410995   6.192   5.818   6.984
  108OSM    O1110996   6.190   5.668   6.785
  108OSM    O1210997   6.215   5.568   7.009
  108OSM    C1S10998   6.219   5.772   6.695
  108OSM    H1S10999   6.303   5.839   6.722
  108OSM    H1T11000   6.128   5.828   6.665
  108OSM     NF11001   6.325   5.820   6.473
  108OSM    HNF11002   6.295   5.824   6.378
  108OSM    C2S11003   6.261   5.722   6.553
  108OSM    H2S11004   6.339   5.645   6.570
  108OSM    C3S11005   6.145   5.644   6.491
  108OSM    H3S11006   6.071   5.721   6.461
  108OSM     O311007   6.066   5.548   6.571
  108OSM    HO311008   6.097   5.571   6.659
  108OSM    C4S11009   6.184   5.582   6.358
  108OSM    H4S11010   6.162   5.650   6.275
  108OSM    C5S11011   6.229   5.461   6.336
  108OSM    H5S11012   6.245   5.389   6.418
  108OSM    C6S11013   6.243   5.403   6.200
  108OSM    H6S11014   6.228   5.482   6.123
  108OSM    H6T11015   6.168   5.322   6.186
  108OSM    C7S11016   6.371   5.328   6.155
  108OSM    H7S11017   6.393   5.251   6.232
  108OSM    H7T11018   6.458   5.397   6.149
  108OSM    C8S11019   6.370   5.280   6.007
  108OSM    H8S11020   6.374   5.364   5.935
  108OSM    H8T11021   6.272   5.229   5.995
  108OSM    C9S11022   6.485   5.185   5.970
  108OSM    H9S11023   6.514   5.116   6.051
  108OSM    H9T11024   6.575   5.251   5.967
  108OSM   C10S11025   6.481   5.115   5.834
  108OSM   H10S11026   6.380   5.070   5.823
  108OSM   H10T11027   6.556   5.034   5.848
  108OSM   C11S11028   6.505   5.211   5.713
  108OSM   H11S11029   6.597   5.264   5.746
  108OSM   H11T11030   6.430   5.292   5.724
  108OSM   C12S11031   6.511   5.153   5.570
  108OSM   H12S11032   6.435   5.073   5.565
  108OSM   H12T11033   6.602   5.104   5.529
  108OSM   C13S11034   6.464   5.275   5.477
  108OSM   H13S11035   6.536   5.358   5.488
  108OSM   H13T11036   6.371   5.313   5.524
  108OSM   C14S11037   6.438   5.238   5.326
  108OSM   H14S11038   6.353   5.168   5.313
  108OSM   H14T11039   6.528   5.192   5.279
  108OSM   C15S11040   6.419   5.355   5.235
  108OSM   H15S11041   6.498   5.432   5.248
  108OSM   H15T11042   6.324   5.406   5.260
  108OSM   C16S11043   6.414   5.317   5.081
  108OSM   H16S11044   6.329   5.248   5.064
  108OSM   H16T11045   6.497   5.256   5.040
  108OSM   C17S11046   6.414   5.451   4.991
  108OSM   H17S11047   6.498   5.520   5.013
  108OSM   H17T11048   6.325   5.512   5.019
  108OSM   C18S11049   6.417   5.423   4.842
  108OSM   H18S11050   6.331   5.360   4.809
  108OSM   H18T11051   6.509   5.365   4.821
  108OSM   H18U11052   6.430   5.518   4.785
  108OSM    C1F11053   6.443   5.882   6.502
  108OSM     OF11054   6.517   5.846   6.588
  108OSM    C2F11055   6.492   5.985   6.406
  108OSM    H2F11056   6.403   6.046   6.381
  108OSM    H2G11057   6.522   5.945   6.306
  108OSM    C3F11058   6.599   6.082   6.469
  108OSM    H3F11059   6.681   6.018   6.507
  108OSM    H3G11060   6.553   6.148   6.545
  108OSM    C4F11061   6.669   6.174   6.374
  108OSM    H4F11062   6.703   6.122   6.282
  108OSM    H4G11063   6.765   6.206   6.421
  108OSM    C5F11064   6.583   6.289   6.327
  108OSM    H5F11065   6.538   6.343   6.414
  108OSM    H5G11066   6.505   6.237   6.267
  108OSM    C6F11067   6.671   6.382   6.247
  108OSM    H6F11068   6.720   6.328   6.163
  108OSM    H6G11069   6.750   6.419   6.316
  108OSM    C7F11070   6.593   6.502   6.201
  108OSM    H7F11071   6.533   6.539   6.287
  108OSM    H7G11072   6.537   6.460   6.114
  108OSM    C8F11073   6.696   6.617   6.175
  108OSM    H8F11074   6.784   6.576   6.121
  108OSM    H8G11075   6.740   6.643   6.273
  108OSM    C9F11076   6.629   6.733   6.106
  108OSM    H9F11077   6.560   6.784   6.175
  108OSM   C10F11078   6.641   6.767   5.974
  108OSM   H10F11079   6.589   6.856   5.935
  108OSM   C11F11080   6.727   6.691   5.872
  108OSM   H11F11081   6.693   6.586   5.859
  108OSM   H11G11082   6.824   6.686   5.926
  108OSM   C12F11083   6.734   6.751   5.736
  108OSM   H12F11084   6.818   6.702   5.682
  108OSM   H12G11085   6.776   6.851   5.758
  108OSM   C13F11086   6.603   6.751   5.655
  108OSM   H13F11087   6.536   6.824   5.706
  108OSM   H13G11088   6.562   6.651   5.678
  108OSM   C14F11089   6.613   6.765   5.501
  108OSM   H14F11090   6.656   6.672   5.457
  108OSM   H14G11091   6.675   6.855   5.482
  108OSM   C15F11092   6.478   6.789   5.443
  108OSM   H15F11093   6.438   0.011   5.469
  108OSM   H15G11094   6.407   6.720   5.493
  108OSM   C16F11095   6.470   6.782   5.288
  108OSM   H16F11096   6.521   6.691   5.250
  108OSM   H16G11097   6.514   6.877   5.250
  108OSM   C17F11098   6.331   6.763   5.231
  108OSM   H17F11099   6.264   6.832   5.288
  108OSM   H17G11100   6.304   6.658   5.253
  108OSM   C18F11101   6.321   6.809   5.085
  108OSM   H18F11102   6.361   6.733   5.015
  108OSM   H18G11103   6.385   0.020   5.068
  108OSM   H18H11104   6.216   6.839   5.066
  109OSM      N11105   2.859   2.504   6.761
  109OSM    C1511106   2.821   2.609   6.848
  109OSM   H15A11107   2.713   2.616   6.843
  109OSM   H15B11108   2.870   2.703   6.828
  109OSM   H15C11109   2.850   2.578   6.947
  109OSM    C1411110   3.005   2.477   6.782
  109OSM   H14A11111   3.034   2.392   6.722
  109OSM   H14B11112   3.021   2.448   6.885
  109OSM   H14C11113   3.076   2.558   6.774
  109OSM    C1311114   2.785   2.380   6.789
  109OSM   H13A11115   2.790   2.362   6.896
  109OSM   H13B11116   2.829   2.293   6.742
  109OSM   H13C11117   2.683   2.391   6.754
  109OSM    C1211118   2.847   2.552   6.614
  109OSM   H12A11119   2.889   2.476   6.549
  109OSM   H12B11120   2.897   2.646   6.603
  109OSM    C1111121   2.697   2.560   6.563
  109OSM   H11A11122   2.694   2.592   6.457
  109OSM   H11B11123   2.649   2.645   6.615
  109OSM      P11124   2.550   2.349   6.479
  109OSM    O1311125   2.593   2.210   6.521
  109OSM    O1411126   2.407   2.378   6.460
  109OSM    O1111127   2.630   2.385   6.349
  109OSM    O1211128   2.612   2.446   6.590
  109OSM    C1S11129   2.664   2.274   6.261
  109OSM    H1S11130   2.571   2.232   6.218
  109OSM    H1T11131   2.729   2.193   6.299
  109OSM     NF11132   2.763   2.228   6.048
  109OSM    HNF11133   2.832   2.155   6.043
  109OSM    C2S11134   2.763   2.328   6.149
  109OSM    H2S11135   2.717   2.424   6.118
  109OSM    C3S11136   2.901   2.360   6.207
  109OSM    H3S11137   2.950   2.267   6.245
  109OSM     O311138   2.900   2.448   6.318
  109OSM    HO311139   2.811   2.457   6.353
  109OSM    C4S11140   2.994   2.405   6.095
  109OSM    H4S11141   3.057   2.324   6.053
  109OSM    C5S11142   3.009   2.533   6.049
  109OSM    H5S11143   2.943   2.610   6.091
  109OSM    C6S11144   3.110   2.593   5.951
  109OSM    H6S11145   3.211   2.555   5.979
  109OSM    H6T11146   3.109   2.704   5.954
  109OSM    C7S11147   3.062   2.558   5.814
  109OSM    H7S11148   3.140   2.603   5.749
  109OSM    H7T11149   2.963   2.598   5.785
  109OSM    C8S11150   3.051   2.407   5.776
  109OSM    H8S11151   2.983   2.353   5.846
  109OSM    H8T11152   3.153   2.367   5.789
  109OSM    C9S11153   2.994   2.374   5.637
  109OSM    H9S11154   2.892   2.418   5.639
  109OSM    H9T11155   2.996   2.263   5.633
  109OSM   C10S11156   3.084   2.426   5.521
  109OSM   H10S11157   3.189   2.392   5.529
  109OSM   H10T11158   3.088   2.537   5.519
  109OSM   C11S11159   3.039   2.368   5.391
  109OSM   H11S11160   2.937   2.397   5.359
  109OSM   H11T11161   3.035   2.257   5.395
  109OSM   C12S11162   3.134   2.406   5.275
  109OSM   H12S11163   3.238   2.372   5.292
  109OSM   H12T11164   3.141   2.516   5.279
  109OSM   C13S11165   3.083   2.380   5.144
  109OSM   H13S11166   2.977   2.412   5.135
  109OSM   H13T11167   3.080   2.271   5.122
  109OSM   C14S11168   3.161   2.439   5.030
  109OSM   H14S11169   3.250   2.373   5.018
  109OSM   H14T11170   3.192   2.540   5.062
  109OSM   C15S11171   3.078   2.452   4.902
  109OSM   H15S11172   3.008   2.534   4.929
  109OSM   H15T11173   3.023   2.360   4.873
  109OSM   C16S11174   3.160   2.478   4.772
  109OSM   H16S11175   3.249   2.411   4.779
  109OSM   H16T11176   3.206   2.579   4.771
  109OSM   C17S11177   3.084   2.450   4.643
  109OSM   H17S11178   2.985   2.493   4.669
  109OSM   H17T11179   3.084   2.339   4.635
  109OSM   C18S11180   3.141   2.509   4.509
  109OSM   H18S11181   3.232   2.454   4.476
  109OSM   H18T11182   3.161   2.618   4.514
  109OSM   H18U11183   3.060   2.503   4.433
  109OSM    C1F11184   2.663   2.209   5.956
  109OSM     OF11185   2.562   2.271   5.956
  109OSM    C2F11186   2.692   2.090   5.862
  109OSM    H2F11187   2.605   2.021   5.859
  109OSM    H2G11188   2.784   2.037   5.897
  109OSM    C3F11189   2.717   2.139   5.719
  109OSM    H3F11190   2.811   2.197   5.728
  109OSM    H3G11191   2.646   2.216   5.680
  109OSM    C4F11192   2.735   2.032   5.604
  109OSM    H4F11193   2.638   1.980   5.585
  109OSM    H4G11194   2.814   1.966   5.647
  109OSM    C5F11195   2.774   2.092   5.466
  109OSM    H5F11196   2.828   2.007   5.419
  109OSM    H5G11197   2.837   2.182   5.482
  109OSM    C6F11198   2.656   2.144   5.377
  109OSM    H6F11199   2.600   2.215   5.442
  109OSM    H6G11200   2.608   2.049   5.346
  109OSM    C7F11201   2.705   2.204   5.248
  109OSM    H7F11202   2.784   2.141   5.201
  109OSM    H7G11203   2.735   2.309   5.272
  109OSM    C8F11204   2.586   2.229   5.152
  109OSM    H8F11205   2.612   2.318   5.090
  109OSM    H8G11206   2.491   2.252   5.205
  109OSM    C9F11207   2.566   2.102   5.070
  109OSM    H9F11208   2.558   2.007   5.125
  109OSM   C10F11209   2.559   2.085   4.940
  109OSM   H10F11210   2.553   1.982   4.901
  109OSM   C11F11211   2.568   2.195   4.841
  109OSM   H11F11212   2.672   2.219   4.813
  109OSM   H11G11213   2.518   2.289   4.875
  109OSM   C12F11214   2.494   2.156   4.709
  109OSM   H12F11215   2.504   2.055   4.663
  109OSM   H12G11216   2.520   2.233   4.633
  109OSM   C13F11217   2.336   2.169   4.726
  109OSM   H13F11218   2.321   2.277   4.749
  109OSM   H13G11219   2.305   2.114   4.817
  109OSM   C14F11220   2.256   2.133   4.601
  109OSM   H14F11221   2.149   2.159   4.608
  109OSM   H14G11222   2.257   2.022   4.590
  109OSM   C15F11223   2.301   2.185   4.465
  109OSM   H15F11224   2.407   2.159   4.443
  109OSM   H15G11225   2.306   2.295   4.473
  109OSM   C16F11226   2.209   2.153   4.347
  109OSM   H16F11227   2.102   2.173   4.371
  109OSM   H16G11228   2.229   2.051   4.308
  109OSM   C17F11229   2.248   2.263   4.234
  109OSM   H17F11230   2.355   2.290   4.233
  109OSM   H17G11231   2.203   2.355   4.276
  109OSM   C18F11232   2.181   2.237   4.104
  109OSM   H18F11233   2.173   2.331   4.045
  109OSM   H18G11234   2.079   2.195   4.114
  109OSM   H18H11235   2.247   2.168   4.046
  110OSM      N11236   5.700   0.540   6.843
  110OSM    C1511237   5.791   0.654   6.813
  110OSM   H15A11238   5.866   0.648   6.891
  110OSM   H15B11239   5.756   0.756   6.820
  110OSM   H15C11240   5.835   0.638   6.716
  110OSM    C1411241   5.662   0.546   6.987
  110OSM   H14A11242   5.749   0.530   7.049
  110OSM   H14B11243   5.592   0.468   7.013
  110OSM   H14C11244   5.608   0.638   7.003
  110OSM    C1311245   5.577   0.558   6.761
  110OSM   H13A11246   5.523   0.651   6.763
  110OSM   H13B11247   5.505   0.479   6.775
  110OSM   H13C11248   5.608   0.548   6.658
  110OSM    C1211249   5.765   0.407   6.806
  110OSM   H12A11250   5.701   0.331   6.850
  110OSM   H12B11251   5.854   0.390   6.865
  110OSM    C1111252   5.790   0.371   6.653
  110OSM   H11A11253   5.861   0.287   6.641
  110OSM   H11B11254   5.844   0.460   6.613
  110OSM      P11255   5.608   0.210   6.539
  110OSM    O1311256   5.608   0.134   6.666
  110OSM    O1411257   5.477   0.231   6.475
  110OSM    O1111258   5.700   0.144   6.433
  110OSM    O1211259   5.678   0.351   6.577
  110OSM    C1S11260   5.738   0.235   6.319
  110OSM    H1S11261   5.791   0.325   6.357
  110OSM    H1T11262   5.646   0.272   6.269
  110OSM     NF11263   5.820   0.261   6.090
  110OSM    HNF11264   5.758   0.244   6.014
  110OSM    C2S11265   5.817   0.174   6.203
  110OSM    H2S11266   5.924   0.156   6.225
  110OSM    C3S11267   5.749   0.035   6.169
  110OSM    H3S11268   5.651   0.056   6.121
  110OSM     O311269   5.716   6.825   6.273
  110OSM    HO311270   5.711   0.008   6.348
  110OSM    C4S11271   5.837   6.842   6.072
  110OSM    H4S11272   5.920   6.797   6.128
  110OSM    C5S11273   5.829   6.831   5.942
  110OSM    H5S11274   5.739   6.868   5.891
  110OSM    C6S11275   5.926   6.760   5.856
  110OSM    H6S11276   5.876   6.684   5.792
  110OSM    H6T11277   5.990   6.685   5.908
  110OSM    C7S11278   6.014   6.870   5.786
  110OSM    H7S11279   6.069   0.045   5.866
  110OSM    H7T11280   5.958   0.077   5.740
  110OSM    C8S11281   6.123   6.821   5.682
  110OSM    H8S11282   6.195   6.756   5.737
  110OSM    H8T11283   6.179   0.029   5.639
  110OSM    C9S11284   6.073   6.728   5.570
  110OSM    H9S11285   6.026   6.635   5.609
  110OSM    H9T11286   6.168   6.690   5.526
  110OSM   C10S11287   5.980   6.810   5.473
  110OSM   H10S11288   6.026   0.029   5.445
  110OSM   H10T11289   5.884   6.841   5.519
  110OSM   C11S11290   5.964   6.740   5.336
  110OSM   H11S11291   5.896   6.652   5.342
  110OSM   H11T11292   6.062   6.705   5.298
  110OSM   C12S11293   5.901   6.829   5.225
  110OSM   H12S11294   5.912   6.789   5.122
  110OSM   H12T11295   5.962   0.044   5.223
  110OSM   C13S11296   5.753   6.858   5.252
  110OSM   H13S11297   5.741   0.032   5.349
  110OSM   H13T11298   5.704   6.760   5.262
  110OSM   C14S11299   5.693   0.068   5.139
  110OSM   H14S11300   5.699   0.002   5.050
  110OSM   H14T11301   5.751   0.161   5.121
  110OSM   C15S11302   5.551   0.107   5.162
  110OSM   H15S11303   5.546   0.164   5.257
  110OSM   H15T11304   5.485   0.019   5.182
  110OSM   C16S11305   5.484   0.171   5.043
  110OSM   H16S11306   5.492   0.096   4.961
  110OSM   H16T11307   5.544   0.260   5.013
  110OSM   C17S11308   5.335   0.215   5.070
  110OSM   H17S11309   5.325   0.280   5.159
  110OSM   H17T11310   5.274   0.125   5.093
  110OSM   C18S11311   5.280   0.286   4.949
  110OSM   H18S11312   5.361   0.284   4.873
  110OSM   H18T11313   5.263   0.394   4.969
  110OSM   H18U11314   5.184   0.243   4.912
  110OSM    C1F11315   5.894   0.374   6.095
  110OSM     OF11316   5.962   0.398   6.193
  110OSM    C2F11317   5.877   0.475   5.986
  110OSM    H2F11318   5.974   0.526   5.970
  110OSM    H2G11319   5.803   0.553   6.015
  110OSM    C3F11320   5.850   0.412   5.848
  110OSM    H3F11321   5.757   0.355   5.867
  110OSM    H3G11322   5.913   0.324   5.820
  110OSM    C4F11323   5.846   0.511   5.732
  110OSM    H4F11324   5.947   0.557   5.725
  110OSM    H4G11325   5.784   0.598   5.760
  110OSM    C5F11326   5.805   0.446   5.601
  110OSM    H5F11327   5.698   0.421   5.614
  110OSM    H5G11328   5.865   0.353   5.588
  110OSM    C6F11329   5.827   0.530   5.483
  110OSM    H6F11330   5.933   0.551   5.456
  110OSM    H6G11331   5.799   0.629   5.525
  110OSM    C7F11332   5.763   0.491   5.356
  110OSM    H7F11333   5.656   0.469   5.373
  110OSM    H7G11334   5.808   0.396   5.319
  110OSM    C8F11335   5.781   0.600   5.239
  110OSM    H8F11336   5.890   0.603   5.221
  110OSM    H8G11337   5.751   0.700   5.275
  110OSM    C9F11338   5.702   0.547   5.121
  110OSM    H9F11339   5.733   0.451   5.077
  110OSM   C10F11340   5.603   0.618   5.058
  110OSM   H10F11341   5.547   0.559   4.984
  110OSM   C11F11342   5.561   0.757   5.070
  110OSM   H11F11343   5.582   0.805   4.972
  110OSM   H11G11344   5.634   0.807   5.138
  110OSM   C12F11345   5.406   0.775   5.112
  110OSM   H12F11346   5.398   0.883   5.136
  110OSM   H12G11347   5.386   0.715   5.204
  110OSM   C13F11348   5.299   0.742   5.003
  110OSM   H13F11349   5.290   0.634   4.981
  110OSM   H13G11350   5.345   0.781   4.910
  110OSM   C14F11351   5.167   0.812   5.032
  110OSM   H14F11352   5.178   0.923   5.031
  110OSM   H14G11353   5.126   0.786   5.131
  110OSM   C15F11354   5.066   0.785   4.909
  110OSM   H15F11355   4.971   0.837   4.930
  110OSM   H15G11356   5.056   0.675   4.908
  110OSM   C16F11357   5.126   0.831   4.776
  110OSM   H16F11358   5.211   0.766   4.746
  110OSM   H16G11359   5.168   0.933   4.783
  110OSM   C17F11360   5.009   0.801   4.684
  110OSM   H17F11361   4.917   0.854   4.717
  110OSM   H17G11362   4.976   0.695   4.686
  110OSM   C18F11363   5.045   0.836   4.543
  110OSM   H18F11364   4.956   0.853   4.479
  110OSM   H18G11365   5.100   0.754   4.492
  110OSM   H18H11366   5.104   0.930   4.550
  111OSM      N11367   1.180   3.583   6.481
  111OSM    C1511368   1.255   3.623   6.604
  111OSM   H15A11369   1.250   3.545   6.679
  111OSM   H15B11370   1.204   3.706   6.653
  111OSM   H15C11371   1.359   3.645   6.585
  111OSM    C1411372   1.144   3.712   6.410
  111OSM   H14A11373   1.079   3.773   6.472
  111OSM   H14B11374   1.093   3.691   6.317
  111OSM   H14C11375   1.230   3.771   6.383
  111OSM    C1311376   1.268   3.497   6.401
  111OSM   H13A11377   1.317   3.428   6.469
  111OSM   H13B11378   1.349   3.555   6.359
  111OSM   H13C11379   1.220   3.451   6.316
  111OSM    C1211380   1.053   3.505   6.510
  111OSM   H12A11381   1.086   3.416   6.564
  111OSM   H12B11382   1.016   3.468   6.416
  111OSM    C1111383   0.946   3.578   6.597
  111OSM   H11A11384   1.001   3.635   6.674
  111OSM   H11B11385   0.891   3.501   6.655
  111OSM      P11386   0.744   3.590   6.417
  111OSM    O1311387   0.781   3.445   6.402
  111OSM    O1411388   0.609   3.615   6.469
  111OSM    O1111389   0.771   3.657   6.274
  111OSM    O1211390   0.855   3.655   6.512
  111OSM    C1S11391   0.799   3.801   6.268
  111OSM    H1S11392   0.902   3.834   6.293
  111OSM    H1T11393   0.737   3.845   6.349
  111OSM     NF11394   0.860   3.993   6.118
  111OSM    HNF11395   0.826   4.073   6.166
  111OSM    C2S11396   0.779   3.870   6.134
  111OSM    H2S11397   0.806   3.801   6.052
  111OSM    C3S11398   0.627   3.894   6.126
  111OSM    H3S11399   0.595   3.963   6.207
  111OSM     O311400   0.556   3.773   6.133
  111OSM    HO311401   0.624   3.712   6.162
  111OSM    C4S11402   0.599   3.962   5.994
  111OSM    H4S11403   0.598   4.072   5.998
  111OSM    C5S11404   0.572   3.895   5.879
  111OSM    H5S11405   0.562   3.786   5.891
  111OSM    C6S11406   0.539   3.954   5.746
  111OSM    H6S11407   0.443   3.907   5.717
  111OSM    H6T11408   0.616   3.920   5.673
  111OSM    C7S11409   0.521   4.110   5.752
  111OSM    H7S11410   0.613   4.154   5.795
  111OSM    H7T11411   0.433   4.135   5.815
  111OSM    C8S11412   0.509   4.164   5.611
  111OSM    H8S11413   0.461   4.264   5.616
  111OSM    H8T11414   0.449   4.098   5.545
  111OSM    C9S11415   0.654   4.180   5.546
  111OSM    H9S11416   0.712   4.087   5.562
  111OSM    H9T11417   0.710   4.265   5.591
  111OSM   C10S11418   0.652   4.210   5.391
  111OSM   H10S11419   0.608   4.123   5.339
  111OSM   H10T11420   0.756   4.235   5.358
  111OSM   C11S11421   0.559   4.328   5.353
  111OSM   H11S11422   0.556   4.421   5.414
  111OSM   H11T11423   0.463   4.274   5.368
  111OSM   C12S11424   0.572   4.379   5.207
  111OSM   H12S11425   0.491   4.446   5.172
  111OSM   H12T11426   0.583   4.294   5.137
  111OSM   C13S11427   0.704   4.460   5.178
  111OSM   H13S11428   0.787   4.386   5.179
  111OSM   H13T11429   0.724   4.527   5.265
  111OSM   C14S11430   0.698   4.541   5.047
  111OSM   H14S11431   0.794   4.596   5.053
  111OSM   H14T11432   0.611   4.610   5.047
  111OSM   C15S11433   0.700   4.441   4.929
  111OSM   H15S11434   0.604   4.388   4.942
  111OSM   H15T11435   0.778   4.362   4.927
  111OSM   C16S11436   0.706   4.520   4.794
  111OSM   H16S11437   0.808   4.561   4.778
  111OSM   H16T11438   0.636   4.606   4.794
  111OSM   C17S11439   0.671   4.437   4.668
  111OSM   H17S11440   0.571   4.390   4.676
  111OSM   H17T11441   0.742   4.352   4.663
  111OSM   C18S11442   0.683   4.514   4.539
  111OSM   H18S11443   0.624   4.608   4.548
  111OSM   H18T11444   0.634   4.457   4.458
  111OSM   H18U11445   0.786   4.547   4.514
  111OSM    C1F11446   0.984   3.963   6.077
  111OSM     OF11447   1.027   3.852   6.041
  111OSM    C2F11448   1.079   4.074   6.104
  111OSM    H2F11449   1.167   4.031   6.156
  111OSM    H2G11450   1.032   4.154   6.166
  111OSM    C3F11451   1.134   4.136   5.980
  111OSM    H3F11452   1.201   4.059   5.935
  111OSM    H3G11453   1.180   4.234   6.007
  111OSM    C4F11454   1.038   4.155   5.857
  111OSM    H4F11455   0.942   4.201   5.891
  111OSM    H4G11456   1.016   4.053   5.820
  111OSM    C5F11457   1.094   4.248   5.749
  111OSM    H5F11458   1.168   4.196   5.685
  111OSM    H5G11459   1.130   4.337   5.805
  111OSM    C6F11460   0.995   4.302   5.648
  111OSM    H6F11461   0.907   4.327   5.710
  111OSM    H6G11462   0.956   4.215   5.590
  111OSM    C7F11463   1.067   4.409   5.562
  111OSM    H7F11464   1.161   4.362   5.527
  111OSM    H7G11465   1.098   4.491   5.630
  111OSM    C8F11466   0.972   4.481   5.456
  111OSM    H8F11467   0.952   4.399   5.383
  111OSM    H8G11468   1.033   4.559   5.407
  111OSM    C9F11469   0.837   4.532   5.512
  111OSM    H9F11470   0.781   4.451   5.562
  111OSM   C10F11471   0.784   4.660   5.516
  111OSM   H10F11472   0.685   4.676   5.560
  111OSM   C11F11473   0.840   4.782   5.439
  111OSM   H11F11474   0.950   4.791   5.454
  111OSM   H11G11475   0.802   4.868   5.498
  111OSM   C12F11476   0.837   4.780   5.289
  111OSM   H12F11477   0.736   4.746   5.255
  111OSM   H12G11478   0.912   4.709   5.247
  111OSM   C13F11479   0.864   4.919   5.219
  111OSM   H13F11480   0.956   4.964   5.261
  111OSM   H13G11481   0.784   4.980   5.265
  111OSM   C14F11482   0.847   4.905   5.071
  111OSM   H14F11483   0.738   4.891   5.057
  111OSM   H14G11484   0.889   4.813   5.026
  111OSM   C15F11485   0.889   5.017   4.973
  111OSM   H15F11486   0.984   4.997   4.920
  111OSM   H15G11487   0.910   5.106   5.036
  111OSM   C16F11488   0.783   5.061   4.873
  111OSM   H16F11489   0.681   5.077   4.915
  111OSM   H16G11490   0.765   4.981   4.798
  111OSM   C17F11491   0.831   5.185   4.788
  111OSM   H17F11492   0.856   5.271   4.854
  111OSM   H17G11493   0.750   5.220   4.721
  111OSM   C18F11494   0.942   5.155   4.691
  111OSM   H18F11495   1.020   5.084   4.728
  111OSM   H18G11496   0.991   5.250   4.660
  111OSM   H18H11497   0.908   5.109   4.596
  112OSM      N11498   3.506   0.802   6.622
  112OSM    C1511499   3.382   0.797   6.545
  112OSM   H15A11500   3.385   0.710   6.480
  112OSM   H15B11501   3.368   0.890   6.491
  112OSM   H15C11502   3.296   0.777   6.607
  112OSM    C1411503   3.479   0.893   6.749
  112OSM   H14A11504   3.393   0.858   6.804
  112OSM   H14B11505   3.447   0.992   6.719
  112OSM   H14C11506   3.567   0.906   6.810
  112OSM    C1311507   3.532   0.664   6.674
  112OSM   H13A11508   3.458   0.654   6.752
  112OSM   H13B11509   3.634   0.650   6.706
  112OSM   H13C11510   3.509   0.588   6.601
  112OSM    C1211511   3.626   0.852   6.544
  112OSM   H12A11512   3.657   0.776   6.475
  112OSM   H12B11513   3.709   0.852   6.614
  112OSM    C1111514   3.616   0.988   6.465
  112OSM   H11A11515   3.530   0.977   6.396
  112OSM   H11B11516   3.712   1.000   6.410
  112OSM      P11517   3.704   1.215   6.602
  112OSM    O1311518   3.634   1.283   6.713
  112OSM    O1411519   3.836   1.157   6.626
  112OSM    O1111520   3.714   1.323   6.483
  112OSM    O1211521   3.605   1.101   6.558
  112OSM    C1S11522   3.785   1.297   6.369
  112OSM    H1S11523   3.758   1.199   6.325
  112OSM    H1T11524   3.895   1.295   6.383
  112OSM     NF11525   3.814   1.366   6.138
  112OSM    HNF11526   3.882   1.427   6.099
  112OSM    C2S11527   3.759   1.403   6.263
  112OSM    H2S11528   3.648   1.403   6.261
  112OSM    C3S11529   3.824   1.539   6.310
  112OSM    H3S11530   3.932   1.520   6.321
  112OSM     O311531   3.767   1.580   6.440
  112OSM    HO311532   3.715   1.503   6.463
  112OSM    C4S11533   3.791   1.646   6.215
  112OSM    H4S11534   3.684   1.657   6.195
  112OSM    C5S11535   3.888   1.717   6.150
  112OSM    H5S11536   3.989   1.706   6.192
  112OSM    C6S11537   3.860   1.832   6.059
  112OSM    H6S11538   3.941   1.902   6.089
  112OSM    H6T11539   3.758   1.874   6.062
  112OSM    C7S11540   3.892   1.785   5.917
  112OSM    H7S11541   3.815   1.717   5.875
  112OSM    H7T11542   3.984   1.723   5.914
  112OSM    C8S11543   3.910   1.912   5.828
  112OSM    H8S11544   3.980   1.989   5.867
  112OSM    H8T11545   3.814   1.965   5.814
  112OSM    C9S11546   3.966   1.875   5.690
  112OSM    H9S11547   3.910   1.790   5.646
  112OSM    H9T11548   4.074   1.847   5.690
  112OSM   C10S11549   3.941   1.998   5.605
  112OSM   H10S11550   4.005   2.077   5.650
  112OSM   H10T11551   3.836   2.030   5.619
  112OSM   C11S11552   3.967   1.979   5.455
  112OSM   H11S11553   3.900   1.894   5.428
  112OSM   H11T11554   4.073   1.959   5.426
  112OSM   C12S11555   3.929   2.106   5.380
  112OSM   H12S11556   3.994   2.182   5.430
  112OSM   H12T11557   3.823   2.125   5.408
  112OSM   C13S11558   3.950   2.108   5.222
  112OSM   H13S11559   3.877   2.040   5.174
  112OSM   H13T11560   4.051   2.067   5.201
  112OSM   C14S11561   3.919   2.249   5.167
  112OSM   H14S11562   3.983   2.330   5.208
  112OSM   H14T11563   3.813   2.276   5.189
  112OSM   C15S11564   3.933   2.250   5.012
  112OSM   H15S11565   3.887   2.155   4.977
  112OSM   H15T11566   4.043   2.263   5.000
  112OSM   C16S11567   3.867   2.372   4.941
  112OSM   H16S11568   3.903   2.463   4.993
  112OSM   H16T11569   3.758   2.353   4.950
  112OSM   C17S11570   3.906   2.376   4.791
  112OSM   H17S11571   4.001   2.433   4.777
  112OSM   H17T11572   3.828   2.428   4.732
  112OSM   C18S11573   3.935   2.233   4.726
  112OSM   H18S11574   4.026   2.195   4.777
  112OSM   H18T11575   3.949   2.245   4.616
  112OSM   H18U11576   3.850   2.168   4.756
  112OSM    C1F11577   3.786   1.265   6.058
  112OSM     OF11578   3.707   1.179   6.098
  112OSM    C2F11579   3.870   1.263   5.931
  112OSM    H2F11580   3.977   1.292   5.943
  112OSM    H2G11581   3.833   1.345   5.866
  112OSM    C3F11582   3.882   1.137   5.853
  112OSM    H3F11583   3.786   1.082   5.848
  112OSM    H3G11584   3.947   1.069   5.911
  112OSM    C4F11585   3.940   1.163   5.710
  112OSM    H4F11586   4.005   1.077   5.687
  112OSM    H4G11587   3.990   1.262   5.709
  112OSM    C5F11588   3.832   1.173   5.601
  112OSM    H5F11589   3.805   1.281   5.600
  112OSM    H5G11590   3.747   1.106   5.627
  112OSM    C6F11591   3.891   1.139   5.461
  112OSM    H6F11592   3.807   1.130   5.389
  112OSM    H6G11593   3.952   1.046   5.462
  112OSM    C7F11594   3.968   1.261   5.412
  112OSM    H7F11595   4.042   1.287   5.491
  112OSM    H7G11596   3.915   1.358   5.424
  112OSM    C8F11597   4.039   1.237   5.278
  112OSM    H8F11598   4.058   1.128   5.276
  112OSM    H8G11599   4.136   1.293   5.276
  112OSM    C9F11600   3.960   1.273   5.152
  112OSM    H9F11601   3.892   1.196   5.113
  112OSM   C10F11602   3.960   1.396   5.087
  112OSM   H10F11603   3.901   1.414   4.996
  112OSM   C11F11604   4.039   1.514   5.130
  112OSM   H11F11605   4.115   1.497   5.209
  112OSM   H11G11606   3.971   1.589   5.175
  112OSM   C12F11607   4.125   1.572   5.012
  112OSM   H12F11608   4.179   1.492   4.956
  112OSM   H12G11609   4.197   1.651   5.043
  112OSM   C13F11610   4.038   1.641   4.914
  112OSM   H13F11611   4.009   1.741   4.953
  112OSM   H13G11612   3.947   1.587   4.881
  112OSM   C14F11613   4.119   1.674   4.785
  112OSM   H14F11614   4.165   1.578   4.754
  112OSM   H14G11615   4.196   1.754   4.797
  112OSM   C15F11616   4.027   1.716   4.666
  112OSM   H15F11617   4.006   1.825   4.662
  112OSM   H15G11618   3.926   1.673   4.685
  112OSM   C16F11619   4.077   1.679   4.524
  112OSM   H16F11620   3.998   1.661   4.449
  112OSM   H16G11621   4.116   1.575   4.530
  112OSM   C17F11622   4.194   1.770   4.481
  112OSM   H17F11623   4.256   1.794   4.570
  112OSM   H17G11624   4.156   1.871   4.459
  112OSM   C18F11625   4.284   1.734   4.364
  112OSM   H18F11626   4.221   1.674   4.294
  112OSM   H18G11627   4.364   1.664   4.397
  112OSM   H18H11628   4.335   1.815   4.309
  113OSM      N11629   0.785   1.709   6.903
  113OSM    C1511630   0.654   1.713   6.836
  113OSM   H15A11631   0.643   1.650   6.750
  113OSM   H15B11632   0.641   1.813   6.798
  113OSM   H15C11633   0.578   1.695   6.911
  113OSM    C1411634   0.798   1.815   6.994
  113OSM   H14A11635   0.811   1.906   6.938
  113OSM   H14B11636   0.890   1.801   7.050
  113OSM   H14C11637   0.714   1.818   7.062
  113OSM    C1311638   0.785   1.581   6.975
  113OSM   H13A11639   0.752   1.501   6.910
  113OSM   H13B11640   0.712   1.580   7.055
  113OSM   H13C11641   0.882   1.557   7.015
  113OSM    C1211642   0.901   1.708   6.802
  113OSM   H12A11643   0.992   1.697   6.859
  113OSM   H12B11644   0.917   1.806   6.759
  113OSM    C1111645   0.899   1.608   6.671
  113OSM   H11A11646   0.994   1.629   6.618
  113OSM   H11B11647   0.812   1.634   6.608
  113OSM      P11648   0.937   1.357   6.631
  113OSM    O1311649   1.079   1.329   6.666
  113OSM    O1411650   0.833   1.258   6.648
  113OSM    O1111651   0.927   1.420   6.488
  113OSM    O1211652   0.901   1.471   6.728
  113OSM    C1S11653   0.832   1.368   6.393
  113OSM    H1S11654   0.740   1.326   6.438
  113OSM    H1T11655   0.872   1.296   6.319
  113OSM     NF11656   0.682   1.454   6.203
  113OSM    HNF11657   0.716   1.460   6.109
  113OSM    C2S11658   0.777   1.493   6.302
  113OSM    H2S11659   0.732   1.550   6.386
  113OSM    C3S11660   0.901   1.570   6.246
  113OSM    H3S11661   0.946   1.491   6.182
  113OSM     O311662   1.008   1.604   6.339
  113OSM    HO311663   0.967   1.563   6.415
  113OSM    C4S11664   0.867   1.691   6.164
  113OSM    H4S11665   0.845   1.681   6.057
  113OSM    C5S11666   0.862   1.817   6.213
  113OSM    H5S11667   0.877   1.831   6.321
  113OSM    C6S11668   0.819   1.947   6.162
  113OSM    H6S11669   0.911   2.008   6.150
  113OSM    H6T11670   0.760   1.987   6.247
  113OSM    C7S11671   0.733   1.949   6.037
  113OSM    H7S11672   0.639   1.904   6.074
  113OSM    H7T11673   0.774   1.885   5.956
  113OSM    C8S11674   0.720   2.093   5.981
  113OSM    H8S11675   0.821   2.132   5.952
  113OSM    H8T11676   0.682   2.157   6.062
  113OSM    C9S11677   0.614   2.112   5.864
  113OSM    H9S11678   0.610   2.222   5.852
  113OSM    H9T11679   0.525   2.051   5.890
  113OSM   C10S11680   0.665   2.055   5.735
  113OSM   H10S11681   0.671   1.944   5.732
  113OSM   H10T11682   0.765   2.099   5.718
  113OSM   C11S11683   0.575   2.091   5.612
  113OSM   H11S11684   0.571   2.202   5.621
  113OSM   H11T11685   0.474   2.049   5.629
  113OSM   C12S11686   0.628   2.065   5.475
  113OSM   H12S11687   0.645   1.956   5.460
  113OSM   H12T11688   0.728   2.112   5.461
  113OSM   C13S11689   0.531   2.118   5.368
  113OSM   H13S11690   0.544   2.228   5.363
  113OSM   H13T11691   0.421   2.106   5.384
  113OSM   C14S11692   0.568   2.056   5.230
  113OSM   H14S11693   0.506   1.965   5.217
  113OSM   H14T11694   0.675   2.024   5.236
  113OSM   C15S11695   0.574   2.153   5.114
  113OSM   H15S11696   0.637   2.242   5.136
  113OSM   H15T11697   0.476   2.203   5.103
  113OSM   C16S11698   0.617   2.068   4.987
  113OSM   H16S11699   0.535   1.996   4.965
  113OSM   H16T11700   0.720   2.028   4.990
  113OSM   C17S11701   0.617   2.167   4.872
  113OSM   H17S11702   0.638   2.109   4.779
  113OSM   H17T11703   0.695   2.243   4.891
  113OSM   C18S11704   0.485   2.230   4.841
  113OSM   H18S11705   0.401   2.158   4.854
  113OSM   H18T11706   0.471   2.266   4.737
  113OSM   H18U11707   0.457   2.316   4.907
  113OSM    C1F11708   0.572   1.388   6.236
  113OSM     OF11709   0.532   1.387   6.349
  113OSM    C2F11710   0.514   1.303   6.131
  113OSM    H2F11711   0.568   1.208   6.148
  113OSM    H2G11712   0.563   1.329   6.035
  113OSM    C3F11713   0.362   1.274   6.124
  113OSM    H3F11714   0.305   1.369   6.129
  113OSM    H3G11715   0.344   1.212   6.215
  113OSM    C4F11716   0.325   1.183   6.006
  113OSM    H4F11717   0.222   1.145   6.023
  113OSM    H4G11718   0.408   1.110   6.007
  113OSM    C5F11719   0.324   1.269   5.877
  113OSM    H5F11720   0.415   1.332   5.885
  113OSM    H5G11721   0.234   1.335   5.879
  113OSM    C6F11722   0.341   1.188   5.749
  113OSM    H6F11723   0.246   1.143   5.713
  113OSM    H6G11724   0.425   1.118   5.765
  113OSM    C7F11725   0.390   1.275   5.627
  113OSM    H7F11726   0.464   1.344   5.674
  113OSM    H7G11727   0.295   1.325   5.599
  113OSM    C8F11728   0.468   1.194   5.518
  113OSM    H8F11729   0.563   1.159   5.563
  113OSM    H8G11730   0.494   1.280   5.452
  113OSM    C9F11731   0.388   1.082   5.451
  113OSM    H9F11732   0.322   1.027   5.519
  113OSM   C10F11733   0.380   1.070   5.318
  113OSM   H10F11734   0.310   0.993   5.281
  113OSM   C11F11735   0.454   1.152   5.210
  113OSM   H11F11736   0.485   1.252   5.248
  113OSM   H11G11737   0.389   1.161   5.120
  113OSM   C12F11738   0.583   1.078   5.174
  113OSM   H12F11739   0.562   0.969   5.174
  113OSM   H12G11740   0.659   1.089   5.253
  113OSM   C13F11741   0.643   1.123   5.035
  113OSM   H13F11742   0.749   1.090   5.040
  113OSM   H13G11743   0.645   1.234   5.034
  113OSM   C14F11744   0.579   1.075   4.907
  113OSM   H14F11745   0.614   1.112   4.808
  113OSM   H14G11746   0.470   1.096   4.909
  113OSM   C15F11747   0.563   0.911   4.906
  113OSM   H15F11748   0.498   0.867   4.985
  113OSM   H15G11749   0.663   0.866   4.921
  113OSM   C16F11750   0.508   0.860   4.774
  113OSM   H16F11751   0.535   0.752   4.772
  113OSM   H16G11752   0.560   0.907   4.688
  113OSM   C17F11753   0.361   0.880   4.738
  113OSM   H17F11754   0.324   0.985   4.747
  113OSM   H17G11755   0.288   0.826   4.802
  113OSM   C18F11756   0.333   0.838   4.589
  113OSM   H18F11757   0.228   0.855   4.558
  113OSM   H18G11758   0.359   0.730   4.576
  113OSM   H18H11759   0.400   0.902   4.527
  114OSM      N11760   6.863   0.049   7.593
  114OSM    C1511761   0.013   0.085   7.743
  114OSM   H15A11762   0.100   0.031   7.778
  114OSM   H15B11763   6.801   0.068   7.799
  114OSM   H15C11764   0.039   0.189   7.750
  114OSM    C1411765   6.795   6.792   7.593
  114OSM   H14A11766   6.767   6.770   7.491
  114OSM   H14B11767   6.715   6.787   7.666
  114OSM   H14C11768   6.862   6.712   7.622
  114OSM    C1311769   6.762   0.147   7.548
  114OSM   H13A11770   6.815   0.238   7.523
  114OSM   H13B11771   6.684   0.174   7.618
  114OSM   H13C11772   6.715   0.119   7.456
  114OSM    C1211773   0.103   0.045   7.502
  114OSM   H12A11774   0.177   6.863   7.552
  114OSM   H12B11775   0.137   0.148   7.496
  114OSM    C1111776   0.082   6.865   7.358
  114OSM   H11A11777   0.066   6.755   7.355
  114OSM   H11B11778   0.185   6.868   7.317
  114OSM      P11779   0.029   0.185   7.206
  114OSM    O1311780   6.843   0.290   7.284
  114OSM    O1411781   0.179   0.200   7.193
  114OSM    O1111782   6.843   0.172   7.062
  114OSM    O1211783   6.870   0.050   7.271
  114OSM    C1S11784   6.808   0.051   6.997
  114OSM    H1S11785   6.709   0.015   7.032
  114OSM    H1T11786   0.004   6.851   7.026
  114OSM     NF11787   6.743   6.833   6.775
  114OSM    HNF11788   6.792   6.752   6.747
  114OSM    C2S11789   6.826   0.062   6.843
  114OSM    H2S11790   6.787   0.163   6.820
  114OSM    C3S11791   0.098   0.056   6.809
  114OSM    H3S11792   0.136   6.829   6.804
  114OSM     O311793   0.174   0.139   6.891
  114OSM    HO311794   0.111   0.172   6.956
  114OSM    C4S11795   0.103   0.107   6.671
  114OSM    H4S11796   0.116   0.216   6.666
  114OSM    C5S11797   0.091   0.038   6.558
  114OSM    H5S11798   0.080   6.806   6.556
  114OSM    C6S11799   0.107   0.098   6.423
  114OSM    H6S11800   0.133   0.022   6.346
  114OSM    H6T11801   0.183   0.179   6.435
  114OSM    C7S11802   6.863   0.167   6.362
  114OSM    H7S11803   6.837   0.249   6.432
  114OSM    H7T11804   6.775   0.098   6.361
  114OSM    C8S11805   0.009   0.213   6.217
  114OSM    H8S11806   6.785   0.218   6.172
  114OSM    H8T11807   0.056   0.125   6.169
  114OSM    C9S11808   0.086   0.343   6.199
  114OSM    H9S11809   0.191   0.340   6.164
  114OSM    H9T11810   0.076   0.406   6.290
  114OSM   C10S11811   0.013   0.430   6.084
  114OSM   H10S11812   0.066   0.528   6.085
  114OSM   H10T11813   6.784   0.432   6.113
  114OSM   C11S11814   0.029   0.371   5.947
  114OSM   H11S11815   6.859   0.272   5.961
  114OSM   H11T11816   0.134   0.344   5.920
  114OSM   C12S11817   6.837   0.445   5.837
  114OSM   H12S11818   0.013   0.541   5.819
  114OSM   H12T11819   6.732   0.471   5.862
  114OSM   C13S11820   6.829   0.350   5.717
  114OSM   H13S11821   6.789   0.254   5.756
  114OSM   H13T11822   0.056   0.344   5.679
  114OSM   C14S11823   6.740   0.407   5.604
  114OSM   H14S11824   6.771   0.512   5.584
  114OSM   H14T11825   6.632   0.391   5.621
  114OSM   C15S11826   6.767   0.316   5.482
  114OSM   H15S11827   6.723   0.217   5.511
  114OSM   H15T11828   6.870   0.315   5.443
  114OSM   C16S11829   6.675   0.353   5.368
  114OSM   H16S11830   6.694   0.460   5.344
  114OSM   H16T11831   6.565   0.348   5.388
  114OSM   C17S11832   6.709   0.285   5.235
  114OSM   H17S11833   6.679   0.178   5.236
  114OSM   H17T11834   6.819   0.275   5.230
  114OSM   C18S11835   6.639   0.340   5.106
  114OSM   H18S11836   6.527   0.336   5.105
  114OSM   H18T11837   6.686   0.289   5.020
  114OSM   H18U11838   6.659   0.449   5.112
  114OSM    C1F11839   6.608   6.829   6.766
  114OSM     OF11840   6.541   0.043   6.813
  114OSM    C2F11841   6.552   6.715   6.692
  114OSM    H2F11842   6.510   6.645   6.768
  114OSM    H2G11843   6.631   6.658   6.637
  114OSM    C3F11844   6.444   6.763   6.594
  114OSM    H3F11845   6.359   6.815   6.642
  114OSM    H3G11846   6.408   6.668   6.549
  114OSM    C4F11847   6.490   6.858   6.481
  114OSM    H4F11848   6.564   6.800   6.421
  114OSM    H4G11849   6.528   0.072   6.530
  114OSM    C5F11850   6.378   0.023   6.387
  114OSM    H5F11851   6.292   0.064   6.444
  114OSM    H5G11852   6.338   6.813   6.333
  114OSM    C6F11853   6.405   0.139   6.286
  114OSM    H6F11854   6.493   0.104   6.230
  114OSM    H6G11855   6.430   0.222   6.356
  114OSM    C7F11856   6.292   0.170   6.185
  114OSM    H7F11857   6.200   0.206   6.235
  114OSM    H7G11858   6.266   0.075   6.133
  114OSM    C8F11859   6.324   0.280   6.077
  114OSM    H8F11860   6.342   0.370   6.140
  114OSM    H8G11861   6.222   0.282   6.032
  114OSM    C9F11862   6.426   0.246   5.978
  114OSM    H9F11863   6.527   0.232   6.019
  114OSM   C10F11864   6.413   0.250   5.844
  114OSM   H10F11865   6.501   0.224   5.784
  114OSM   C11F11866   6.285   0.275   5.770
  114OSM   H11F11867   6.249   0.378   5.788
  114OSM   H11G11868   6.208   0.201   5.803
  114OSM   C12F11869   6.324   0.259   5.623
  114OSM   H12F11870   6.365   0.160   5.595
  114OSM   H12G11871   6.396   0.339   5.595
  114OSM   C13F11872   6.208   0.289   5.523
  114OSM   H13F11873   6.169   0.392   5.536
  114OSM   H13G11874   6.129   0.212   5.538
  114OSM   C14F11875   6.249   0.264   5.378
  114OSM   H14F11876   6.273   0.156   5.363
  114OSM   H14G11877   6.331   0.332   5.347
  114OSM   C15F11878   6.126   0.298   5.289
  114OSM   H15F11879   6.104   0.404   5.314
  114OSM   H15G11880   6.040   0.235   5.321
  114OSM   C16F11881   6.156   0.293   5.139
  114OSM   H16F11882   6.162   0.183   5.120
  114OSM   H16G11883   6.254   0.343   5.123
  114OSM   C17F11884   6.040   0.349   5.061
  114OSM   H17F11885   6.041   0.458   5.083
  114OSM   H17G11886   5.948   0.312   5.111
  114OSM   C18F11887   6.050   0.322   4.909
  114OSM   H18F11888   6.137   0.366   4.856
  114OSM   H18G11889   5.959   0.364   4.861
  114OSM   H18H11890   6.059   0.212   4.905
  115OSM      N11891   0.217   3.086   6.779
  115OSM    C1511892   0.256   2.986   6.685
  115OSM   H15A11893   0.292   3.032   6.594
  115OSM   H15B11894   0.170   2.924   6.669
  115OSM   H15C11895   0.323   2.912   6.724
  115OSM    C1411896   0.193   3.015   6.904
  115OSM   H14A11897   0.282   2.959   6.930
  115OSM   H14B11898   0.114   2.943   6.888
  115OSM   H14C11899   0.164   3.083   6.982
  115OSM    C1311900   0.329   3.190   6.797
  115OSM   H13A11901   0.327   3.260   6.714
  115OSM   H13B11902   0.425   3.141   6.796
  115OSM   H13C11903   0.313   3.251   6.885
  115OSM    C1211904   0.091   3.158   6.729
  115OSM   H12A11905   0.127   3.226   6.653
  115OSM   H12B11906   0.050   3.228   6.801
  115OSM    C1111907   6.852   3.072   6.674
  115OSM   H11A11908   0.006   3.046   6.571
  115OSM   H11B11909   6.768   3.145   6.683
  115OSM      P11910   6.764   2.830   6.682
  115OSM    O1311911   6.873   2.763   6.612
  115OSM    O1411912   6.666   2.744   6.762
  115OSM    O1111913   6.679   2.894   6.560
  115OSM    O1211914   6.822   2.957   6.754
  115OSM    C1S11915   6.719   2.847   6.422
  115OSM    H1S11916   6.694   2.740   6.408
  115OSM    H1T11917   6.828   2.855   6.403
  115OSM     NF11918   6.690   2.865   6.173
  115OSM    HNF11919   6.761   2.912   6.121
  115OSM    C2S11920   6.658   2.929   6.299
  115OSM    H2S11921   6.549   2.920   6.314
  115OSM    C3S11922   6.701   3.076   6.318
  115OSM    H3S11923   6.812   3.079   6.330
  115OSM     O311924   6.646   3.132   6.437
  115OSM    HO311925   6.625   3.058   6.496
  115OSM    C4S11926   6.670   3.159   6.196
  115OSM    H4S11927   6.751   3.173   6.122
  115OSM    C5S11928   6.555   3.220   6.178
  115OSM    H5S11929   6.481   3.214   6.259
  115OSM    C6S11930   6.514   3.305   6.058
  115OSM    H6S11931   6.567   3.402   6.056
  115OSM    H6T11932   6.405   3.320   6.043
  115OSM    C7S11933   6.557   3.236   5.926
  115OSM    H7S11934   6.666   3.215   5.937
  115OSM    H7T11935   6.537   3.311   5.847
  115OSM    C8S11936   6.478   3.116   5.886
  115OSM    H8S11937   6.380   3.146   5.845
  115OSM    H8T11938   6.463   3.055   5.978
  115OSM    C9S11939   6.542   3.029   5.774
  115OSM    H9S11940   6.488   2.942   5.731
  115OSM    H9T11941   6.633   2.990   5.825
  115OSM   C10S11942   6.576   3.110   5.655
  115OSM   H10S11943   6.679   3.149   5.669
  115OSM   H10T11944   6.523   3.204   5.629
  115OSM   C11S11945   6.558   3.024   5.529
  115OSM   H11S11946   6.452   3.040   5.501
  115OSM   H11T11947   6.591   2.919   5.541
  115OSM   C12S11948   6.644   3.077   5.411
  115OSM   H12S11949   6.753   3.077   5.435
  115OSM   H12T11950   6.610   3.179   5.383
  115OSM   C13S11951   6.632   2.990   5.280
  115OSM   H13S11952   6.527   2.986   5.245
  115OSM   H13T11953   6.656   2.886   5.312
  115OSM   C14S11954   6.721   3.047   5.165
  115OSM   H14S11955   6.831   3.038   5.171
  115OSM   H14T11956   6.691   3.154   5.158
  115OSM   C15S11957   6.668   2.997   5.030
  115OSM   H15S11958   6.562   3.027   5.015
  115OSM   H15T11959   6.678   2.887   5.015
  115OSM   C16S11960   6.744   3.062   4.911
  115OSM   H16S11961   6.850   3.030   4.904
  115OSM   H16T11962   6.735   3.172   4.923
  115OSM   C17S11963   6.689   3.029   4.770
  115OSM   H17S11964   6.675   2.919   4.773
  115OSM   H17T11965   6.768   3.046   4.694
  115OSM   C18S11966   6.564   3.102   4.748
  115OSM   H18S11967   6.493   3.096   4.833
  115OSM   H18T11968   6.505   3.078   4.657
  115OSM   H18U11969   6.589   3.209   4.736
  115OSM    C1F11970   6.646   2.747   6.132
  115OSM     OF11971   6.566   2.688   6.207
  115OSM    C2F11972   6.700   2.689   6.002
  115OSM    H2F11973   6.809   2.671   6.010
  115OSM    H2G11974   6.689   2.767   5.923
  115OSM    C3F11975   6.635   2.554   5.955
  115OSM    H3F11976   6.529   2.581   5.937
  115OSM    H3G11977   6.640   2.464   6.019
  115OSM    C4F11978   6.703   2.505   5.828
  115OSM    H4F11979   6.664   2.406   5.796
  115OSM    H4G11980   6.810   2.489   5.850
  115OSM    C5F11981   6.694   2.598   5.704
  115OSM    H5F11982   6.756   2.689   5.719
  115OSM    H5G11983   6.590   2.633   5.686
  115OSM    C6F11984   6.745   2.539   5.574
  115OSM    H6F11985   6.677   2.451   5.563
  115OSM    H6G11986   6.853   2.516   5.586
  115OSM    C7F11987   6.732   2.634   5.454
  115OSM    H7F11988   6.800   2.720   5.475
  115OSM    H7G11989   6.624   2.656   5.437
  115OSM    C8F11990   6.809   2.575   5.329
  115OSM    H8F11991   6.768   2.478   5.295
  115OSM    H8G11992   0.032   2.551   5.368
  115OSM    C9F11993   6.817   2.661   5.211
  115OSM    H9F11994   6.835   2.765   5.242
  115OSM   C10F11995   6.815   2.637   5.080
  115OSM   H10F11996   6.823   2.718   5.005
  115OSM   C11F11997   6.796   2.500   5.012
  115OSM   H11F11998   6.790   2.411   5.079
  115OSM   H11G11999   0.001   2.484   4.940
  115OSM   C12F12000   6.670   2.493   4.925
  115OSM   H12F12001   6.651   2.587   4.868
  115OSM   H12G12002   6.586   2.485   4.996
  115OSM   C13F12003   6.641   2.374   4.820
  115OSM   H13F12004   6.530   2.369   4.818
  115OSM   H13G12005   6.674   2.277   4.861
  115OSM   C14F12006   6.709   2.391   4.683
  115OSM   H14F12007   6.675   2.487   4.638
  115OSM   H14G12008   6.688   2.300   4.622
  115OSM   C15F12009   6.868   2.392   4.683
  115OSM   H15F12010   0.023   2.337   4.774
  115OSM   H15G12011   0.023   2.496   4.705
  115OSM   C16F12012   0.043   2.330   4.557
  115OSM   H16F12013   0.013   2.223   4.552
  115OSM   H16G12014   0.153   2.329   4.571
  115OSM   C17F12015   6.877   2.405   4.430
  115OSM   H17F12016   0.026   2.512   4.432
  115OSM   H17G12017   6.766   2.400   4.421
  115OSM   C18F12018   0.075   2.347   4.311
  115OSM   H18F12019   0.017   2.373   4.220
  115OSM   H18G12020   0.082   2.237   4.329
  115OSM   H18H12021   0.171   2.402   4.301
  116OSM      N12022   1.723   1.785   6.965
  116OSM    C1512023   1.628   1.685   7.031
  116OSM   H15A12024   1.687   1.595   7.027
  116OSM   H15B12025   1.542   1.682   6.965
  116OSM   H15C12026   1.593   1.715   7.129
  116OSM    C1412027   1.662   1.924   6.981
  116OSM   H14A12028   1.732   1.994   6.938
  116OSM   H14B12029   1.644   1.934   7.087
  116OSM   H14C12030   1.568   1.934   6.928
  116OSM    C1312031   1.855   1.789   7.034
  116OSM   H13A12032   1.844   1.838   7.130
  116OSM   H13B12033   1.930   1.842   6.976
  116OSM   H13C12034   1.894   1.691   7.060
  116OSM    C1212035   1.748   1.753   6.820
  116OSM   H12A12036   1.789   1.654   6.811
  116OSM   H12B12037   1.824   1.817   6.778
  116OSM    C1112038   1.625   1.755   6.725
  116OSM   H11A12039   1.669   1.755   6.622
  116OSM   H11B12040   1.566   1.849   6.734
  116OSM      P12041   1.570   1.498   6.694
  116OSM    O1312042   1.721   1.482   6.687
  116OSM    O1412043   1.500   1.401   6.778
  116OSM    O1112044   1.513   1.484   6.547
  116OSM    O1212045   1.536   1.646   6.743
  116OSM    C1S12046   1.405   1.574   6.504
  116OSM    H1S12047   1.445   1.677   6.518
  116OSM    H1T12048   1.319   1.563   6.573
  116OSM     NF12049   1.301   1.651   6.305
  116OSM    HNF12050   1.202   1.641   6.297
  116OSM    C2S12051   1.364   1.541   6.358
  116OSM    H2S12052   1.452   1.519   6.293
  116OSM    C3S12053   1.283   1.402   6.363
  116OSM    H3S12054   1.200   1.405   6.437
  116OSM     O312055   1.372   1.298   6.413
  116OSM    HO312056   1.446   1.347   6.449
  116OSM    C4S12057   1.219   1.365   6.229
  116OSM    H4S12058   1.112   1.390   6.218
  116OSM    C5S12059   1.281   1.320   6.116
  116OSM    H5S12060   1.391   1.319   6.108
  116OSM    C6S12061   1.202   1.296   5.985
  116OSM    H6S12062   1.267   1.338   5.905
  116OSM    H6T12063   1.103   1.346   5.985
  116OSM    C7S12064   1.195   1.143   5.961
  116OSM    H7S12065   1.146   1.094   6.047
  116OSM    H7T12066   1.293   1.092   5.965
  116OSM    C8S12067   1.110   1.104   5.840
  116OSM    H8S12068   1.008   1.118   5.883
  116OSM    H8T12069   1.111   0.994   5.821
  116OSM    C9S12070   1.135   1.185   5.709
  116OSM    H9S12071   1.241   1.166   5.685
  116OSM    H9T12072   1.128   1.293   5.733
  116OSM   C10S12073   1.052   1.143   5.586
  116OSM   H10S12074   0.956   1.198   5.593
  116OSM   H10T12075   1.038   1.033   5.584
  116OSM   C11S12076   1.120   1.182   5.448
  116OSM   H11S12077   1.215   1.125   5.444
  116OSM   H11T12078   1.139   1.291   5.453
  116OSM   C12S12079   1.047   1.124   5.326
  116OSM   H12S12080   0.948   1.174   5.316
  116OSM   H12T12081   1.029   1.017   5.350
  116OSM   C13S12082   1.119   1.128   5.193
  116OSM   H13S12083   1.222   1.086   5.190
  116OSM   H13T12084   1.130   1.234   5.162
  116OSM   C14S12085   1.048   1.040   5.083
  116OSM   H14S12086   0.952   1.089   5.056
  116OSM   H14T12087   1.025   0.938   5.122
  116OSM   C15S12088   1.133   1.047   4.950
  116OSM   H15S12089   1.225   0.988   4.965
  116OSM   H15T12090   1.161   1.151   4.923
  116OSM   C16S12091   1.066   0.980   4.828
  116OSM   H16S12092   1.017   0.886   4.864
  116OSM   H16T12093   1.143   0.943   4.757
  116OSM   C17S12094   0.960   1.057   4.754
  116OSM   H17S12095   1.006   1.132   4.686
  116OSM   H17T12096   0.892   1.114   4.821
  116OSM   C18S12097   0.871   0.954   4.678
  116OSM   H18S12098   0.932   0.892   4.609
  116OSM   H18T12099   0.802   1.012   4.613
  116OSM   H18U12100   0.825   0.876   4.742
  116OSM    C1F12101   1.355   1.767   6.279
  116OSM     OF12102   1.477   1.792   6.299
  116OSM    C2F12103   1.273   1.893   6.249
  116OSM    H2F12104   1.341   1.972   6.288
  116OSM    H2G12105   1.184   1.877   6.313
  116OSM    C3F12106   1.227   1.919   6.100
  116OSM    H3F12107   1.310   1.961   6.039
  116OSM    H3G12108   1.154   2.002   6.107
  116OSM    C4F12109   1.179   1.793   6.026
  116OSM    H4F12110   1.095   1.827   5.963
  116OSM    H4G12111   1.143   1.716   6.099
  116OSM    C5F12112   1.276   1.723   5.930
  116OSM    H5F12113   1.231   1.624   5.909
  116OSM    H5G12114   1.366   1.700   5.989
  116OSM    C6F12115   1.306   1.804   5.802
  116OSM    H6F12116   1.315   1.913   5.821
  116OSM    H6G12117   1.224   1.787   5.730
  116OSM    C7F12118   1.443   1.768   5.742
  116OSM    H7F12119   1.444   1.659   5.721
  116OSM    H7G12120   1.531   1.788   5.807
  116OSM    C8F12121   1.456   1.852   5.613
  116OSM    H8F12122   1.442   1.961   5.627
  116OSM    H8G12123   1.372   1.822   5.546
  116OSM    C9F12124   1.581   1.823   5.536
  116OSM    H9F12125   1.667   1.787   5.593
  116OSM   C10F12126   1.607   1.846   5.408
  116OSM   H10F12127   1.707   1.824   5.367
  116OSM   C11F12128   1.507   1.905   5.304
  116OSM   H11F12129   1.533   2.010   5.279
  116OSM   H11G12130   1.406   1.907   5.350
  116OSM   C12F12131   1.516   1.825   5.174
  116OSM   H12F12132   1.482   1.720   5.183
  116OSM   H12G12133   1.616   1.829   5.126
  116OSM   C13F12134   1.417   1.892   5.067
  116OSM   H13F12135   1.450   1.995   5.042
  116OSM   H13G12136   1.319   1.902   5.119
  116OSM   C14F12137   1.409   1.806   4.939
  116OSM   H14F12138   1.374   1.704   4.968
  116OSM   H14G12139   1.513   1.794   4.902
  116OSM   C15F12140   1.322   1.879   4.839
  116OSM   H15F12141   1.372   1.973   4.806
  116OSM   H15G12142   1.229   1.919   4.885
  116OSM   C16F12143   1.297   1.801   4.706
  116OSM   H16F12144   1.212   1.848   4.651
  116OSM   H16G12145   1.267   1.696   4.726
  116OSM   C17F12146   1.419   1.802   4.616
  116OSM   H17F12147   1.491   1.758   4.688
  116OSM   H17G12148   1.462   1.902   4.592
  116OSM   C18F12149   1.404   1.724   4.495
  116OSM   H18F12150   1.314   1.758   4.439
  116OSM   H18G12151   1.389   1.614   4.503
  116OSM   H18H12152   1.492   1.733   4.429
  117OSM      N12153   0.686   4.074   6.986
  117OSM    C1512154   0.539   4.031   6.995
  117OSM   H15A12155   0.495   4.006   6.900
  117OSM   H15B12156   0.481   4.115   7.032
  117OSM   H15C12157   0.536   3.951   7.067
  117OSM    C1412158   0.726   4.087   7.132
  117OSM   H14A12159   0.827   4.124   7.144
  117OSM   H14B12160   0.733   3.990   7.179
  117OSM   H14C12161   0.664   4.154   7.189
  117OSM    C1312162   0.767   3.967   6.921
  117OSM   H13A12163   0.758   3.875   6.977
  117OSM   H13B12164   0.873   3.982   6.916
  117OSM   H13C12165   0.727   3.955   6.821
  117OSM    C1212166   0.710   4.199   6.905
  117OSM   H12A12167   0.814   4.216   6.927
  117OSM   H12B12168   0.660   4.282   6.953
  117OSM    C1112169   0.682   4.209   6.753
  117OSM   H11A12170   0.757   4.143   6.704
  117OSM   H11B12171   0.707   4.313   6.722
  117OSM      P12172   0.497   4.059   6.649
  117OSM    O1312173   0.601   3.948   6.651
  117OSM    O1412174   0.369   4.022   6.709
  117OSM    O1112175   0.481   4.098   6.496
  117OSM    O1212176   0.547   4.192   6.712
  117OSM    C1S12177   0.524   4.223   6.444
  117OSM    H1S12178   0.631   4.247   6.458
  117OSM    H1T12179   0.465   4.299   6.501
  117OSM     NF12180   0.582   4.330   6.237
  117OSM    HNF12181   0.542   4.414   6.201
  117OSM    C2S12182   0.489   4.233   6.295
  117OSM    H2S12183   0.515   4.136   6.247
  117OSM    C3S12184   0.343   4.257   6.275
  117OSM    H3S12185   0.341   4.366   6.293
  117OSM     O312186   0.260   4.186   6.363
  117OSM    HO312187   0.314   4.147   6.433
  117OSM    C4S12188   0.293   4.235   6.136
  117OSM    H4S12189   0.259   4.325   6.081
  117OSM    C5S12190   0.257   4.117   6.082
  117OSM    H5S12191   0.274   4.027   6.142
  117OSM    C6S12192   0.184   4.102   5.947
  117OSM    H6S12193   0.082   4.067   5.977
  117OSM    H6T12194   0.227   4.034   5.871
  117OSM    C7S12195   0.152   4.228   5.869
  117OSM    H7S12196   0.244   4.288   5.855
  117OSM    H7T12197   0.069   4.276   5.925
  117OSM    C8S12198   0.107   4.182   5.727
  117OSM    H8S12199   0.025   4.107   5.738
  117OSM    H8T12200   0.195   4.131   5.683
  117OSM    C9S12201   0.045   4.292   5.639
  117OSM    H9S12202   0.103   4.382   5.669
  117OSM    H9T12203   6.818   4.304   5.675
  117OSM   C10S12204   0.043   4.259   5.482
  117OSM   H10S12205   6.855   4.170   5.470
  117OSM   H10T12206   0.149   4.228   5.472
  117OSM   C11S12207   0.004   4.374   5.395
  117OSM   H11S12208   0.064   4.460   5.431
  117OSM   H11T12209   6.771   4.386   5.399
  117OSM   C12S12210   0.031   4.361   5.247
  117OSM   H12S12211   0.001   4.262   5.209
  117OSM   H12T12212   0.142   4.357   5.238
  117OSM   C13S12213   6.845   4.479   5.171
  117OSM   H13S12214   0.012   4.569   5.219
  117OSM   H13T12215   6.736   4.473   5.194
  117OSM   C14S12216   6.878   4.460   5.012
  117OSM   H14S12217   6.829   4.363   4.986
  117OSM   H14T12218   0.107   4.444   4.988
  117OSM   C15S12219   6.813   4.566   4.929
  117OSM   H15S12220   6.844   4.668   4.959
  117OSM   H15T12221   6.704   4.568   4.950
  117OSM   C16S12222   6.846   4.560   4.771
  117OSM   H16S12223   6.802   4.467   4.731
  117OSM   H16T12224   0.077   4.543   4.761
  117OSM   C17S12225   6.781   4.685   4.696
  117OSM   H17S12226   6.808   4.782   4.741
  117OSM   H17T12227   6.674   4.673   4.723
  117OSM   C18S12228   6.805   4.694   4.542
  117OSM   H18S12229   0.031   4.728   4.521
  117OSM   H18T12230   6.736   4.765   4.493
  117OSM   H18U12231   6.793   4.596   4.492
  117OSM    C1F12232   0.715   4.318   6.224
  117OSM     OF12233   0.766   4.207   6.238
  117OSM    C2F12234   0.796   4.447   6.201
  117OSM    H2F12235   0.882   4.450   6.271
  117OSM    H2G12236   0.734   4.537   6.221
  117OSM    C3F12237   0.843   4.455   6.057
  117OSM    H3F12238   0.748   4.453   6.000
  117OSM    H3G12239   0.906   4.368   6.027
  117OSM    C4F12240   0.911   4.589   6.037
  117OSM    H4F12241   1.000   4.603   6.101
  117OSM    H4G12242   0.838   4.670   6.060
  117OSM    C5F12243   0.961   4.602   5.889
  117OSM    H5F12244   0.879   4.623   5.817
  117OSM    H5G12245   1.013   4.520   5.834
  117OSM    C6F12246   1.062   4.722   5.880
  117OSM    H6F12247   1.165   4.698   5.911
  117OSM    H6G12248   1.034   4.801   5.953
  117OSM    C7F12249   1.074   4.781   5.736
  117OSM    H7F12250   0.974   4.825   5.713
  117OSM    H7G12251   1.109   4.698   5.671
  117OSM    C8F12252   1.173   4.901   5.737
  117OSM    H8F12253   1.158   4.970   5.823
  117OSM    H8G12254   1.147   4.959   5.645
  117OSM    C9F12255   1.316   4.852   5.743
  117OSM    H9F12256   1.350   4.800   5.834
  117OSM   C10F12257   1.420   4.846   5.653
  117OSM   H10F12258   1.516   4.804   5.687
  117OSM   C11F12259   1.424   4.913   5.518
  117OSM   H11F12260   1.518   4.971   5.527
  117OSM   H11G12261   1.335   4.979   5.519
  117OSM   C12F12262   1.425   4.825   5.394
  117OSM   H12F12263   1.330   4.768   5.401
  117OSM   H12G12264   1.519   4.767   5.384
  117OSM   C13F12265   1.409   4.906   5.263
  117OSM   H13F12266   1.476   4.993   5.248
  117OSM   H13G12267   1.308   4.953   5.259
  117OSM   C14F12268   1.416   4.823   5.137
  117OSM   H14F12269   1.505   4.758   5.129
  117OSM   H14G12270   1.425   4.892   5.051
  117OSM   C15F12271   1.291   4.732   5.117
  117OSM   H15F12272   1.213   4.803   5.151
  117OSM   H15G12273   1.285   4.649   5.190
  117OSM   C16F12274   1.267   4.674   4.976
  117OSM   H16F12275   1.350   4.605   4.947
  117OSM   H16G12276   1.281   4.763   4.910
  117OSM   C17F12277   1.131   4.612   4.941
  117OSM   H17F12278   1.123   4.566   4.840
  117OSM   H17G12279   1.053   4.690   4.951
  117OSM   C18F12280   1.099   4.490   5.029
  117OSM   H18F12281   1.095   4.520   5.136
  117OSM   H18G12282   1.180   4.414   5.017
  117OSM   H18H12283   1.003   4.447   4.993
  118OSM      N12284   6.766   3.554   6.395
  118OSM    C1512285   6.832   3.692   6.392
  118OSM   H15A12286   0.061   3.692   6.400
  118OSM   H15B12287   6.790   3.764   6.462
  118OSM   H15C12288   6.808   3.733   6.295
  118OSM    C1412289   6.807   3.487   6.527
  118OSM   H14A12290   6.749   3.399   6.551
  118OSM   H14B12291   6.780   3.558   6.604
  118OSM   H14C12292   0.033   3.459   6.526
  118OSM    C1312293   6.620   3.569   6.404
  118OSM   H13A12294   6.596   3.638   6.483
  118OSM   H13B12295   6.572   3.474   6.423
  118OSM   H13C12296   6.573   3.614   6.318
  118OSM    C1212297   6.798   3.464   6.280
  118OSM   H12A12298   6.764   3.512   6.189
  118OSM   H12B12299   6.747   3.370   6.295
  118OSM    C1112300   0.068   3.416   6.255
  118OSM   H11A12301   0.129   3.508   6.268
  118OSM   H11B12302   0.076   3.375   6.152
  118OSM      P12303   0.227   3.230   6.342
  118OSM    O1312304   0.284   3.223   6.479
  118OSM    O1412305   0.196   3.106   6.274
  118OSM    O1112306   0.322   3.322   6.252
  118OSM    O1212307   0.103   3.319   6.354
  118OSM    C1S12308   0.457   3.298   6.222
  118OSM    H1S12309   0.486   3.195   6.252
  118OSM    H1T12310   0.516   3.377   6.274
  118OSM     NF12311   0.629   3.263   6.045
  118OSM    HNF12312   0.702   3.332   6.043
  118OSM    C2S12313   0.493   3.301   6.072
  118OSM    H2S12314   0.426   3.230   6.018
  118OSM    C3S12315   0.445   3.435   6.018
  118OSM    H3S12316   0.491   3.524   6.066
  118OSM     O312317   0.301   3.459   6.026
  118OSM    HO312318   0.271   3.405   6.099
  118OSM    C4S12319   0.491   3.449   5.871
  118OSM    H4S12320   0.430   3.406   5.790
  118OSM    C5S12321   0.579   3.542   5.825
  118OSM    H5S12322   0.634   3.600   5.901
  118OSM    C6S12323   0.604   3.580   5.679
  118OSM    H6S12324   0.714   3.573   5.662
  118OSM    H6T12325   0.564   3.680   5.653
  118OSM    C7S12326   0.547   3.487   5.569
  118OSM    H7S12327   0.436   3.491   5.578
  118OSM    H7T12328   0.583   3.385   5.594
  118OSM    C8S12329   0.590   3.513   5.430
  118OSM    H8S12330   0.534   3.453   5.356
  118OSM    H8T12331   0.697   3.487   5.411
  118OSM    C9S12332   0.582   3.660   5.390
  118OSM    H9S12333   0.627   3.724   5.469
  118OSM    H9T12334   0.474   3.687   5.394
  118OSM   C10S12335   0.621   3.690   5.251
  118OSM   H10S12336   0.585   3.611   5.183
  118OSM   H10T12337   0.731   3.680   5.234
  118OSM   C11S12338   0.580   3.829   5.214
  118OSM   H11S12339   0.641   3.900   5.274
  118OSM   H11T12340   0.473   3.851   5.235
  118OSM   C12S12341   0.581   3.864   5.067
  118OSM   H12S12342   0.528   3.781   5.015
  118OSM   H12T12343   0.678   3.872   5.014
  118OSM   C13S12344   0.509   3.998   5.029
  118OSM   H13S12345   0.560   4.090   5.063
  118OSM   H13T12346   0.414   3.988   5.086
  118OSM   C14S12347   0.481   4.025   4.883
  118OSM   H14S12348   0.412   3.941   4.858
  118OSM   H14T12349   0.562   4.019   4.807
  118OSM   C15S12350   0.408   4.159   4.858
  118OSM   H15S12351   0.481   4.231   4.902
  118OSM   H15T12352   0.309   4.163   4.907
  118OSM   C16S12353   0.377   4.179   4.709
  118OSM   H16S12354   0.321   4.090   4.674
  118OSM   H16T12355   0.471   4.189   4.652
  118OSM   C17S12356   0.283   4.297   4.676
  118OSM   H17S12357   0.323   4.393   4.714
  118OSM   H17T12358   0.182   4.294   4.722
  118OSM   C18S12359   0.267   4.325   4.526
  118OSM   H18S12360   0.226   4.237   4.473
  118OSM   H18T12361   0.371   4.347   4.492
  118OSM   H18U12362   0.196   4.411   4.515
  118OSM    C1F12363   0.658   3.132   6.043
  118OSM     OF12364   0.565   3.055   6.055
  118OSM    C2F12365   0.800   3.092   6.031
  118OSM    H2F12366   0.816   3.000   6.091
  118OSM    H2G12367   0.865   3.169   6.077
  118OSM    C3F12368   0.846   3.083   5.883
  118OSM    H3F12369   0.834   2.979   5.844
  118OSM    H3G12370   0.956   3.093   5.886
  118OSM    C4F12371   0.784   3.182   5.791
  118OSM    H4F12372   0.775   3.281   5.842
  118OSM    H4G12373   0.681   3.155   5.759
  118OSM    C5F12374   0.866   3.194   5.665
  118OSM    H5F12375   0.970   3.183   5.702
  118OSM    H5G12376   0.854   3.294   5.619
  118OSM    C6F12377   0.829   3.100   5.561
  118OSM    H6F12378   0.734   3.145   5.525
  118OSM    H6G12379   0.810   3.001   5.608
  118OSM    C7F12380   0.927   3.094   5.450
  118OSM    H7F12381   1.000   3.013   5.466
  118OSM    H7G12382   0.988   3.187   5.450
  118OSM    C8F12383   0.869   3.094   5.314
  118OSM    H8F12384   0.816   3.190   5.292
  118OSM    H8G12385   0.786   3.021   5.312
  118OSM    C9F12386   0.984   3.061   5.221
  118OSM    H9F12387   1.001   2.953   5.217
  118OSM   C10F12388   1.029   3.145   5.131
  118OSM   H10F12389   1.114   3.104   5.075
  118OSM   C11F12390   1.007   3.297   5.114
  118OSM   H11F12391   1.096   3.363   5.109
  118OSM   H11G12392   0.950   3.333   5.203
  118OSM   C12F12393   0.920   3.332   4.996
  118OSM   H12F12394   0.820   3.291   5.023
  118OSM   H12G12395   0.971   3.300   4.903
  118OSM   C13F12396   0.886   3.486   4.980
  118OSM   H13F12397   0.977   3.549   4.978
  118OSM   H13G12398   0.818   3.516   5.063
  118OSM   C14F12399   0.811   3.524   4.849
  118OSM   H14F12400   0.749   3.433   4.833
  118OSM   H14G12401   0.885   3.522   4.767
  118OSM   C15F12402   0.718   3.646   4.841
  118OSM   H15F12403   0.776   3.740   4.851
  118OSM   H15G12404   0.635   3.635   4.914
  118OSM   C16F12405   0.643   3.632   4.707
  118OSM   H16F12406   0.553   3.566   4.703
  118OSM   H16G12407   0.716   3.608   4.627
  118OSM   C17F12408   0.587   3.770   4.654
  118OSM   H17F12409   0.669   3.845   4.665
  118OSM   H17G12410   0.510   3.797   4.729
  118OSM   C18F12411   0.526   3.772   4.509
  118OSM   H18F12412   0.485   3.672   4.483
  118OSM   H18G12413   0.606   3.783   4.432
  118OSM   H18H12414   0.438   3.840   4.504
  119OSM      N12415   3.338   1.253   6.391
  119OSM    C1512416   3.322   1.132   6.484
  119OSM   H15A12417   3.290   1.171   6.579
  119OSM   H15B12418   3.422   1.093   6.494
  119OSM   H15C12419   3.241   1.065   6.456
  119OSM    C1412420   3.391   1.368   6.476
  119OSM   H14A12421   3.435   1.427   6.397
  119OSM   H14B12422   3.456   1.330   6.553
  119OSM   H14C12423   3.308   1.407   6.532
  119OSM    C1312424   3.444   1.223   6.282
  119OSM   H13A12425   3.456   1.313   6.224
  119OSM   H13B12426   3.412   1.140   6.221
  119OSM   H13C12427   3.539   1.198   6.326
  119OSM    C1212428   3.206   1.281   6.330
  119OSM   H12A12429   3.195   1.377   6.282
  119OSM   H12B12430   3.136   1.275   6.412
  119OSM    C1112431   3.159   1.188   6.210
  119OSM   H11A12432   3.233   1.216   6.132
  119OSM   H11B12433   3.061   1.225   6.173
  119OSM      P12434   3.055   0.959   6.290
  119OSM    O1312435   3.110   0.836   6.350
  119OSM    O1412436   2.957   1.030   6.374
  119OSM    O1112437   2.971   0.924   6.162
  119OSM    O1212438   3.168   1.051   6.239
  119OSM    C1S12439   3.022   0.827   6.067
  119OSM    H1S12440   2.981   0.724   6.080
  119OSM    H1T12441   3.131   0.807   6.070
  119OSM     NF12442   3.062   0.767   5.820
  119OSM    HNF12443   3.150   0.784   5.775
  119OSM    C2S12444   2.998   0.870   5.917
  119OSM    H2S12445   2.888   0.871   5.902
  119OSM    C3S12446   3.043   1.010   5.892
  119OSM    H3S12447   3.151   1.024   5.914
  119OSM     O312448   2.972   1.108   5.969
  119OSM    HO312449   2.903   1.058   6.014
  119OSM    C4S12450   3.032   1.047   5.747
  119OSM    H4S12451   2.935   1.032   5.698
  119OSM    C5S12452   3.138   1.089   5.680
  119OSM    H5S12453   3.235   1.077   5.730
  119OSM    C6S12454   3.146   1.133   5.535
  119OSM    H6S12455   3.194   1.054   5.473
  119OSM    H6T12456   3.207   1.225   5.528
  119OSM    C7S12457   3.018   1.173   5.469
  119OSM    H7S12458   2.955   1.235   5.536
  119OSM    H7T12459   2.960   1.085   5.434
  119OSM    C8S12460   3.057   1.239   5.332
  119OSM    H8S12461   3.148   1.191   5.290
  119OSM    H8T12462   3.090   1.343   5.352
  119OSM    C9S12463   2.944   1.248   5.227
  119OSM    H9S12464   2.853   1.284   5.279
  119OSM    H9T12465   2.919   1.146   5.189
  119OSM   C10S12466   2.978   1.343   5.119
  119OSM   H10S12467   3.026   1.437   5.153
  119OSM   H10T12468   2.882   1.353   5.064
  119OSM   C11S12469   3.078   1.285   5.019
  119OSM   H11S12470   3.032   1.200   4.965
  119OSM   H11T12471   3.156   1.249   5.090
  119OSM   C12S12472   3.145   1.367   4.914
  119OSM   H12S12473   3.231   1.310   4.873
  119OSM   H12T12474   3.171   1.470   4.947
  119OSM   C13S12475   3.042   1.384   4.799
  119OSM   H13S12476   2.943   1.400   4.847
  119OSM   H13T12477   3.033   1.286   4.748
  119OSM   C14S12478   3.076   1.498   4.704
  119OSM   H14S12479   3.165   1.462   4.648
  119OSM   H14T12480   3.106   1.589   4.760
  119OSM   C15S12481   2.956   1.504   4.597
  119OSM   H15S12482   2.861   1.536   4.646
  119OSM   H15T12483   2.938   1.403   4.554
  119OSM   C16S12484   2.975   1.607   4.484
  119OSM   H16S12485   2.975   1.707   4.532
  119OSM   H16T12486   2.891   1.594   4.413
  119OSM   C17S12487   3.102   1.590   4.405
  119OSM   H17S12488   3.124   1.485   4.376
  119OSM   H17T12489   3.182   1.621   4.475
  119OSM   C18S12490   3.099   1.673   4.276
  119OSM   H18S12491   3.065   1.775   4.301
  119OSM   H18T12492   3.029   1.630   4.201
  119OSM   H18U12493   3.205   1.685   4.243
  119OSM    C1F12494   3.008   0.650   5.796
  119OSM     OF12495   2.908   0.616   5.850
  119OSM    C2F12496   3.086   0.568   5.690
  119OSM    H2F12497   3.138   0.480   5.734
  119OSM    H2G12498   3.156   0.640   5.644
  119OSM    C3F12499   3.000   0.511   5.581
  119OSM    H3F12500   2.935   0.438   5.635
  119OSM    H3G12501   3.067   0.451   5.516
  119OSM    C4F12502   2.915   0.619   5.495
  119OSM    H4F12503   2.827   0.648   5.558
  119OSM    H4G12504   2.866   0.560   5.415
  119OSM    C5F12505   3.004   0.731   5.448
  119OSM    H5F12506   3.102   0.697   5.407
  119OSM    H5G12507   3.034   0.792   5.535
  119OSM    C6F12508   2.939   0.829   5.351
  119OSM    H6F12509   3.007   0.910   5.319
  119OSM    H6G12510   2.849   0.879   5.394
  119OSM    C7F12511   2.892   0.758   5.225
  119OSM    H7F12512   2.812   0.684   5.247
  119OSM    H7G12513   2.966   0.687   5.184
  119OSM    C8F12514   2.853   0.846   5.104
  119OSM    H8F12515   2.809   0.942   5.139
  119OSM    H8G12516   2.774   0.803   5.039
  119OSM    C9F12517   2.984   0.873   5.022
  119OSM    H9F12518   3.058   0.932   5.078
  119OSM   C10F12519   3.013   0.850   4.892
  119OSM   H10F12520   3.102   0.887   4.839
  119OSM   C11F12521   2.917   0.775   4.806
  119OSM   H11F12522   2.828   0.743   4.864
  119OSM   H11G12523   2.958   0.677   4.773
  119OSM   C12F12524   2.881   0.850   4.674
  119OSM   H12F12525   2.970   0.857   4.607
  119OSM   H12G12526   2.860   0.954   4.709
  119OSM   C13F12527   2.762   0.785   4.601
  119OSM   H13F12528   2.714   0.857   4.531
  119OSM   H13G12529   2.683   0.750   4.671
  119OSM   C14F12530   2.820   0.668   4.522
  119OSM   H14F12531   2.926   0.659   4.554
  119OSM   H14G12532   2.827   0.702   4.417
  119OSM   C15F12533   2.743   0.533   4.543
  119OSM   H15F12534   2.735   0.518   4.652
  119OSM   H15G12535   2.810   0.452   4.507
  119OSM   C16F12536   2.599   0.536   4.482
  119OSM   H16F12537   2.544   0.632   4.491
  119OSM   H16G12538   2.535   0.460   4.532
  119OSM   C17F12539   2.602   0.507   4.329
  119OSM   H17F12540   2.637   0.402   4.318
  119OSM   H17G12541   2.680   0.574   4.286
  119OSM   C18F12542   2.463   0.518   4.275
  119OSM   H18F12543   2.394   0.451   4.331
  119OSM   H18G12544   2.464   0.491   4.167
  119OSM   H18H12545   2.437   0.625   4.285
  120OSM      N12546   5.901   5.296   7.138
  120OSM    C1512547   5.771   5.213   7.130
  120OSM   H15A12548   5.765   5.160   7.036
  120OSM   H15B12549   5.689   5.280   7.149
  120OSM   H15C12550   5.759   5.141   7.210
  120OSM    C1412551   5.894   5.384   7.256
  120OSM   H14A12552   5.978   5.451   7.261
  120OSM   H14B12553   5.902   5.323   7.345
  120OSM   H14C12554   5.802   5.441   7.259
  120OSM    C1312555   6.022   5.210   7.141
  120OSM   H13A12556   6.000   5.145   7.225
  120OSM   H13B12557   6.114   5.261   7.163
  120OSM   H13C12558   6.032   5.137   7.061
  120OSM    C1212559   5.901   5.378   7.009
  120OSM   H12A12560   5.999   5.424   7.011
  120OSM   H12B12561   5.830   5.457   7.024
  120OSM    C1112562   5.884   5.316   6.872
  120OSM   H11A12563   5.939   5.220   6.864
  120OSM   H11B12564   5.936   5.390   6.807
  120OSM      P12565   5.639   5.384   6.805
  120OSM    O1312566   5.526   5.304   6.745
  120OSM    O1412567   5.609   5.468   6.920
  120OSM    O1112568   5.710   5.467   6.698
  120OSM    O1212569   5.748   5.283   6.840
  120OSM    C1S12570   5.755   5.419   6.575
  120OSM    H1S12571   5.784   5.312   6.586
  120OSM    H1T12572   5.847   5.478   6.554
  120OSM     NF12573   5.721   5.412   6.333
  120OSM    HNF12574   5.746   5.494   6.282
  120OSM    C2S12575   5.652   5.430   6.459
  120OSM    H2S12576   5.583   5.344   6.463
  120OSM    C3S12577   5.569   5.564   6.465
  120OSM    H3S12578   5.636   5.648   6.438
  120OSM     O312579   5.506   5.594   6.588
  120OSM    HO312580   5.579   5.580   6.649
  120OSM    C4S12581   5.452   5.556   6.373
  120OSM    H4S12582   5.380   5.477   6.399
  120OSM    C5S12583   5.424   5.634   6.271
  120OSM    H5S12584   5.505   5.705   6.247
  120OSM    C6S12585   5.304   5.627   6.184
  120OSM    H6S12586   5.268   5.731   6.172
  120OSM    H6T12587   5.221   5.570   6.232
  120OSM    C7S12588   5.322   5.564   6.042
  120OSM    H7S12589   5.416   5.606   5.999
  120OSM    H7T12590   5.237   5.597   5.977
  120OSM    C8S12591   5.336   5.412   6.037
  120OSM    H8S12592   5.235   5.371   6.057
  120OSM    H8T12593   5.397   5.373   6.122
  120OSM    C9S12594   5.386   5.365   5.895
  120OSM    H9S12595   5.495   5.388   5.889
  120OSM    H9T12596   5.347   5.433   5.816
  120OSM   C10S12597   5.346   5.213   5.867
  120OSM   H10S12598   5.238   5.202   5.891
  120OSM   H10T12599   5.403   5.153   5.942
  120OSM   C11S12600   5.387   5.165   5.722
  120OSM   H11S12601   5.423   5.062   5.740
  120OSM   H11T12602   5.472   5.229   5.688
  120OSM   C12S12603   5.261   5.173   5.631
  120OSM   H12S12604   5.230   5.279   5.632
  120OSM   H12T12605   5.177   5.106   5.662
  120OSM   C13S12606   5.293   5.143   5.483
  120OSM   H13S12607   5.322   5.036   5.479
  120OSM   H13T12608   5.375   5.210   5.451
  120OSM   C14S12609   5.176   5.153   5.381
  120OSM   H14S12610   5.161   5.263   5.372
  120OSM   H14T12611   5.080   5.104   5.408
  120OSM   C15S12612   5.233   5.108   5.247
  120OSM   H15S12613   5.229   4.998   5.237
  120OSM   H15T12614   5.343   5.119   5.241
  120OSM   C16S12615   5.173   5.198   5.140
  120OSM   H16S12616   5.212   5.302   5.143
  120OSM   H16T12617   5.063   5.208   5.156
  120OSM   C17S12618   5.197   5.122   5.006
  120OSM   H17S12619   5.125   5.037   5.003
  120OSM   H17T12620   5.301   5.083   5.011
  120OSM   C18S12621   5.173   5.204   4.886
  120OSM   H18S12622   5.216   5.305   4.872
  120OSM   H18T12623   5.066   5.235   4.889
  120OSM   H18U12624   5.211   5.154   4.794
  120OSM    C1F12625   5.772   5.300   6.290
  120OSM     OF12626   5.756   5.197   6.358
  120OSM    C2F12627   5.837   5.310   6.158
  120OSM    H2F12628   5.890   5.215   6.135
  120OSM    H2G12629   5.915   5.390   6.160
  120OSM    C3F12630   5.734   5.330   6.047
  120OSM    H3F12631   5.683   5.428   6.057
  120OSM    H3G12632   5.656   5.252   6.058
  120OSM    C4F12633   5.799   5.321   5.904
  120OSM    H4F12634   5.716   5.347   5.834
  120OSM    H4G12635   5.834   5.218   5.882
  120OSM    C5F12636   5.913   5.416   5.872
  120OSM    H5F12637   6.000   5.388   5.935
  120OSM    H5G12638   5.883   5.521   5.891
  120OSM    C6F12639   5.945   5.406   5.721
  120OSM    H6F12640   6.018   5.488   5.702
  120OSM    H6G12641   5.858   5.440   5.661
  120OSM    C7F12642   5.982   5.273   5.658
  120OSM    H7F12643   5.887   5.216   5.648
  120OSM    H7G12644   6.057   5.213   5.714
  120OSM    C8F12645   6.032   5.288   5.507
  120OSM    H8F12646   6.068   5.191   5.466
  120OSM    H8G12647   6.123   5.351   5.517
  120OSM    C9F12648   5.921   5.343   5.419
  120OSM    H9F12649   5.832   5.387   5.467
  120OSM   C10F12650   5.923   5.354   5.288
  120OSM   H10F12651   5.832   5.395   5.241
  120OSM   C11F12652   6.035   5.294   5.203
  120OSM   H11F12653   6.111   5.238   5.261
  120OSM   H11G12654   6.098   5.375   5.161
  120OSM   C12F12655   5.979   5.204   5.096
  120OSM   H12F12656   5.887   5.248   5.051
  120OSM   H12G12657   5.927   5.117   5.143
  120OSM   C13F12658   6.073   5.168   4.981
  120OSM   H13F12659   6.155   5.102   5.019
  120OSM   H13G12660   6.120   5.264   4.951
  120OSM   C14F12661   6.000   5.105   4.856
  120OSM   H14F12662   5.912   5.168   4.831
  120OSM   H14G12663   5.954   5.007   4.878
  120OSM   C15F12664   6.096   5.079   4.739
  120OSM   H15F12665   6.171   5.010   4.784
  120OSM   H15G12666   6.142   5.173   4.703
  120OSM   C16F12667   6.032   5.010   4.615
  120OSM   H16F12668   5.958   5.076   4.566
  120OSM   H16G12669   5.965   4.927   4.647
  120OSM   C17F12670   6.139   4.961   4.521
  120OSM   H17F12671   6.203   4.883   4.567
  120OSM   H17G12672   6.207   5.040   4.480
  120OSM   C18F12673   6.097   4.925   4.376
  120OSM   H18F12674   6.018   4.847   4.380
  120OSM   H18G12675   6.179   4.871   4.322
  120OSM   H18H12676   6.075   5.014   4.315
  121OSM      N12677   6.534   1.126   6.855
  121OSM    C1512678   6.417   1.064   6.785
  121OSM   H15A12679   6.321   1.094   6.824
  121OSM   H15B12680   6.419   0.956   6.792
  121OSM   H15C12681   6.423   1.087   6.680
  121OSM    C1412682   6.498   1.123   7.006
  121OSM   H14A12683   6.442   1.035   7.037
  121OSM   H14B12684   6.443   1.212   7.032
  121OSM   H14C12685   6.583   1.125   7.073
  121OSM    C1312686   6.656   1.042   6.840
  121OSM   H13A12687   6.676   1.029   6.735
  121OSM   H13B12688   6.651   0.941   6.879
  121OSM   H13C12689   6.742   1.098   6.873
  121OSM    C1212690   6.560   1.272   6.809
  121OSM   H12A12691   6.474   1.327   6.843
  121OSM   H12B12692   6.565   1.278   6.701
  121OSM    C1112693   6.680   1.349   6.863
  121OSM   H11A12694   6.667   1.349   6.973
  121OSM   H11B12695   6.674   1.455   6.830
  121OSM      P12696   6.865   1.338   6.687
  121OSM    O1312697   6.833   1.477   6.662
  121OSM    O1412698   0.130   1.289   6.671
  121OSM    O1112699   6.778   1.235   6.605
  121OSM    O1212700   6.813   1.292   6.830
  121OSM    C1S12701   6.699   1.270   6.492
  121OSM    H1S12702   6.713   1.377   6.464
  121OSM    H1T12703   6.594   1.252   6.520
  121OSM     NF12704   6.688   1.244   6.247
  121OSM    HNF12705   6.639   1.194   6.176
  121OSM    C2S12706   6.733   1.185   6.371
  121OSM    H2S12707   6.844   1.186   6.362
  121OSM    C3S12708   6.695   1.039   6.398
  121OSM    H3S12709   6.586   1.023   6.412
  121OSM     O312710   6.752   0.979   6.513
  121OSM    HO312711   6.793   1.057   6.550
  121OSM    C4S12712   6.756   0.961   6.282
  121OSM    H4S12713   6.848   1.011   6.248
  121OSM    C5S12714   6.699   0.865   6.205
  121OSM    H5S12715   6.601   0.820   6.226
  121OSM    C6S12716   6.758   0.816   6.080
  121OSM    H6S12717   6.751   0.705   6.071
  121OSM    H6T12718   6.868   0.830   6.082
  121OSM    C7S12719   6.703   0.876   5.953
  121OSM    H7S12720   6.690   0.986   5.962
  121OSM    H7T12721   6.603   0.831   5.933
  121OSM    C8S12722   6.798   0.870   5.833
  121OSM    H8S12723   6.854   0.774   5.838
  121OSM    H8T12724   6.875   0.950   5.836
  121OSM    C9S12725   6.723   0.865   5.702
  121OSM    H9S12726   6.664   0.957   5.684
  121OSM    H9T12727   6.667   0.770   5.701
  121OSM   C10S12728   6.806   0.846   5.568
  121OSM   H10S12729   0.008   0.771   5.588
  121OSM   H10T12730   6.849   0.948   5.558
  121OSM   C11S12731   6.724   0.813   5.449
  121OSM   H11S12732   6.642   0.888   5.440
  121OSM   H11T12733   6.670   0.716   5.447
  121OSM   C12S12734   6.807   0.825   5.319
  121OSM   H12S12735   6.835   0.932   5.305
  121OSM   H12T12736   6.735   0.804   5.237
  121OSM   C13S12737   0.052   0.744   5.320
  121OSM   H13S12738   0.114   0.739   5.413
  121OSM   H13T12739   0.116   0.779   5.236
  121OSM   C14S12740   0.033   0.589   5.286
  121OSM   H14S12741   6.845   0.584   5.197
  121OSM   H14T12742   6.863   0.545   5.376
  121OSM   C15S12743   0.161   0.521   5.250
  121OSM   H15S12744   0.154   0.413   5.276
  121OSM   H15T12745   0.236   0.559   5.323
  121OSM   C16S12746   0.201   0.513   5.108
  121OSM   H16S12747   0.307   0.478   5.113
  121OSM   H16T12748   0.201   0.619   5.076
  121OSM   C17S12749   0.125   0.416   5.019
  121OSM   H17S12750   0.136   0.447   4.913
  121OSM   H17T12751   0.016   0.431   5.035
  121OSM   C18S12752   0.165   0.266   5.031
  121OSM   H18S12753   0.113   0.204   4.954
  121OSM   H18T12754   0.135   0.235   5.133
  121OSM   H18U12755   0.275   0.261   5.014
  121OSM    C1F12756   6.741   1.359   6.201
  121OSM     OF12757   6.848   1.401   6.249
  121OSM    C2F12758   6.656   1.430   6.100
  121OSM    H2F12759   6.598   1.506   6.156
  121OSM    H2G12760   6.581   1.362   6.053
  121OSM    C3F12761   6.746   1.491   5.993
  121OSM    H3F12762   6.825   1.559   6.032
  121OSM    H3G12763   6.686   1.561   5.931
  121OSM    C4F12764   6.814   1.384   5.909
  121OSM    H4F12765   6.866   1.300   5.960
  121OSM    H4G12766   0.009   1.436   5.844
  121OSM    C5F12767   6.727   1.299   5.809
  121OSM    H5F12768   6.663   1.377   5.763
  121OSM    H5G12769   6.654   1.239   5.868
  121OSM    C6F12770   6.806   1.225   5.699
  121OSM    H6F12771   6.738   1.159   5.641
  121OSM    H6G12772   0.004   1.162   5.751
  121OSM    C7F12773   6.872   1.319   5.599
  121OSM    H7F12774   0.066   1.387   5.650
  121OSM    H7G12775   6.797   1.394   5.567
  121OSM    C8F12776   0.041   1.250   5.466
  121OSM    H8F12777   6.836   1.197   5.414
  121OSM    H8G12778   0.096   1.164   5.508
  121OSM    C9F12779   0.112   1.351   5.372
  121OSM    H9F12780   0.204   1.404   5.402
  121OSM   C10F12781   0.081   1.364   5.249
  121OSM   H10F12782   0.135   1.436   5.186
  121OSM   C11F12783   6.836   1.311   5.179
  121OSM   H11F12784   6.785   1.381   5.109
  121OSM   H11G12785   6.750   1.295   5.247
  121OSM   C12F12786   6.875   1.185   5.104
  121OSM   H12F12787   0.046   1.109   5.168
  121OSM   H12G12788   0.066   1.199   5.019
  121OSM   C13F12789   6.750   1.106   5.053
  121OSM   H13F12790   6.694   1.176   4.987
  121OSM   H13G12791   6.691   1.091   5.146
  121OSM   C14F12792   6.778   0.976   4.977
  121OSM   H14F12793   6.682   0.919   4.978
  121OSM   H14G12794   6.847   0.913   5.037
  121OSM   C15F12795   6.826   0.999   4.839
  121OSM   H15F12796   0.056   1.023   4.831
  121OSM   H15G12797   6.784   1.090   4.790
  121OSM   C16F12798   6.789   0.883   4.741
  121OSM   H16F12799   6.819   0.914   4.638
  121OSM   H16G12800   6.678   0.878   4.738
  121OSM   C17F12801   6.853   0.742   4.780
  121OSM   H17F12802   6.821   0.720   4.884
  121OSM   H17G12803   0.086   0.744   4.780
  121OSM   C18F12804   6.802   0.625   4.692
  121OSM   H18F12805   6.848   0.531   4.728
  121OSM   H18G12806   6.812   0.643   4.583
  121OSM   H18H12807   6.693   0.618   4.714
  122OSM      N12808   6.368   3.872   6.946
  122OSM    C1512809   6.357   3.963   7.060
  122OSM   H15A12810   6.400   3.919   7.149
  122OSM   H15B12811   6.255   3.996   7.063
  122OSM   H15C12812   6.416   4.052   7.043
  122OSM    C1412813   6.515   3.851   6.938
  122OSM   H14A12814   6.544   3.762   6.883
  122OSM   H14B12815   6.546   3.817   7.035
  122OSM   H14C12816   6.567   3.941   6.911
  122OSM    C1312817   6.305   3.740   6.982
  122OSM   H13A12818   6.344   3.706   7.077
  122OSM   H13B12819   6.310   3.668   6.902
  122OSM   H13C12820   6.200   3.753   7.005
  122OSM    C1212821   6.311   3.925   6.822
  122OSM   H12A12822   6.204   3.938   6.825
  122OSM   H12B12823   6.313   3.847   6.747
  122OSM    C1112824   6.380   4.051   6.760
  122OSM   H11A12825   6.380   4.140   6.826
  122OSM   H11B12826   6.308   4.076   6.679
  122OSM      P12827   6.555   3.967   6.573
  122OSM    O1312828   6.668   4.044   6.512
  122OSM    O1412829   6.573   3.815   6.585
  122OSM    O1112830   6.428   3.991   6.489
  122OSM    O1212831   6.513   4.031   6.705
  122OSM    C1S12832   6.415   3.983   6.350
  122OSM    H1S12833   6.435   3.880   6.312
  122OSM    H1T12834   6.492   4.041   6.296
  122OSM     NF12835   6.242   4.008   6.157
  122OSM    HNF12836   6.253   4.087   6.097
  122OSM    C2S12837   6.271   4.038   6.302
  122OSM    H2S12838   6.199   3.983   6.366
  122OSM    C3S12839   6.265   4.188   6.338
  122OSM    H3S12840   6.353   4.223   6.280
  122OSM     O312841   6.294   4.227   6.478
  122OSM    HO312842   6.345   4.151   6.507
  122OSM    C4S12843   6.142   4.250   6.278
  122OSM    H4S12844   6.052   4.191   6.305
  122OSM    C5S12845   6.140   4.350   6.182
  122OSM    H5S12846   6.234   4.400   6.156
  122OSM    C6S12847   6.013   4.402   6.108
  122OSM    H6S12848   5.988   4.507   6.132
  122OSM    H6T12849   5.937   4.329   6.144
  122OSM    C7S12850   6.022   4.378   5.955
  122OSM    H7S12851   6.026   4.269   5.932
  122OSM    H7T12852   6.119   4.419   5.920
  122OSM    C8S12853   5.906   4.442   5.872
  122OSM    H8S12854   5.906   4.543   5.918
  122OSM    H8T12855   5.813   4.387   5.897
  122OSM    C9S12856   5.933   4.459   5.720
  122OSM    H9S12857   6.035   4.504   5.714
  122OSM    H9T12858   5.876   4.539   5.669
  122OSM   C10S12859   5.940   4.336   5.635
  122OSM   H10S12860   5.843   4.291   5.605
  122OSM   H10T12861   5.997   4.254   5.683
  122OSM   C11S12862   6.000   4.373   5.496
  122OSM   H11S12863   6.106   4.404   5.508
  122OSM   H11T12864   5.949   4.466   5.461
  122OSM   C12S12865   5.970   4.266   5.385
  122OSM   H12S12866   5.875   4.216   5.414
  122OSM   H12T12867   6.052   4.191   5.383
  122OSM   C13S12868   5.980   4.319   5.236
  122OSM   H13S12869   6.075   4.376   5.229
  122OSM   H13T12870   5.897   4.387   5.210
  122OSM   C14S12871   5.995   4.203   5.128
  122OSM   H14S12872   5.900   4.145   5.118
  122OSM   H14T12873   6.085   4.144   5.156
  122OSM   C15S12874   6.000   4.257   4.988
  122OSM   H15S12875   6.098   4.310   4.986
  122OSM   H15T12876   5.919   4.329   4.964
  122OSM   C16S12877   5.991   4.138   4.891
  122OSM   H16S12878   5.945   4.046   4.933
  122OSM   H16T12879   6.098   4.108   4.881
  122OSM   C17S12880   5.940   4.153   4.748
  122OSM   H17S12881   6.013   4.203   4.680
  122OSM   H17T12882   5.849   4.217   4.743
  122OSM   C18S12883   5.898   4.017   4.686
  122OSM   H18S12884   5.879   4.034   4.578
  122OSM   H18T12885   5.802   3.981   4.729
  122OSM   H18U12886   5.978   3.939   4.684
  122OSM    C1F12887   6.227   3.884   6.113
  122OSM     OF12888   6.236   3.787   6.190
  122OSM    C2F12889   6.218   3.865   5.965
  122OSM    H2F12890   6.251   3.963   5.926
  122OSM    H2G12891   6.115   3.833   5.939
  122OSM    C3F12892   6.307   3.759   5.896
  122OSM    H3F12893   6.302   3.667   5.959
  122OSM    H3G12894   6.411   3.797   5.897
  122OSM    C4F12895   6.286   3.722   5.746
  122OSM    H4F12896   6.272   3.814   5.686
  122OSM    H4G12897   6.191   3.666   5.730
  122OSM    C5F12898   6.402   3.646   5.677
  122OSM    H5F12899   6.418   3.550   5.729
  122OSM    H5G12900   6.486   3.718   5.684
  122OSM    C6F12901   6.374   3.636   5.532
  122OSM    H6F12902   6.382   3.734   5.481
  122OSM    H6G12903   6.268   3.601   5.526
  122OSM    C7F12904   6.469   3.543   5.450
  122OSM    H7F12905   6.463   3.438   5.488
  122OSM    H7G12906   6.571   3.585   5.465
  122OSM    C8F12907   6.447   3.536   5.298
  122OSM    H8F12908   6.345   3.497   5.280
  122OSM    H8G12909   6.516   3.455   5.267
  122OSM    C9F12910   6.471   3.655   5.215
  122OSM    H9F12911   6.483   3.750   5.270
  122OSM   C10F12912   6.490   3.646   5.082
  122OSM   H10F12913   6.513   3.734   5.020
  122OSM   C11F12914   6.473   3.519   5.000
  122OSM   H11F12915   6.376   3.468   5.017
  122OSM   H11G12916   6.557   3.452   5.026
  122OSM   C12F12917   6.483   3.534   4.848
  122OSM   H12F12918   6.475   3.444   4.783
  122OSM   H12G12919   6.578   3.588   4.828
  122OSM   C13F12920   6.379   3.637   4.801
  122OSM   H13F12921   6.367   3.711   4.883
  122OSM   H13G12922   6.283   3.588   4.776
  122OSM   C14F12923   6.418   3.734   4.683
  122OSM   H14F12924   6.454   3.674   4.596
  122OSM   H14G12925   6.504   3.793   4.720
  122OSM   C15F12926   6.303   3.831   4.639
  122OSM   H15F12927   6.282   3.900   4.724
  122OSM   H15G12928   6.206   3.780   4.625
  122OSM   C16F12929   6.339   3.905   4.511
  122OSM   H16F12930   6.385   3.845   4.430
  122OSM   H16G12931   6.406   3.990   4.538
  122OSM   C17F12932   6.221   3.977   4.447
  122OSM   H17F12933   6.249   4.064   4.385
  122OSM   H17G12934   6.148   4.009   4.524
  122OSM   C18F12935   6.139   3.879   4.360
  122OSM   H18F12936   6.080   3.814   4.429
  122OSM   H18G12937   6.196   3.836   4.276
  122OSM   H18H12938   6.059   3.932   4.304
  123OSM      N12939   2.624   2.891   1.823
  123OSM    C1512940   2.694   2.953   1.709
  123OSM   H15A12941   2.756   3.035   1.743
  123OSM   H15B12942   2.639   2.979   1.621
  123OSM   H15C12943   2.765   2.882   1.668
  123OSM    C1412944   2.555   2.764   1.776
  123OSM   H14A12945   2.506   2.723   1.863
  123OSM   H14B12946   2.614   2.682   1.737
  123OSM   H14C12947   2.488   2.791   1.696
  123OSM    C1312948   2.733   2.858   1.918
  123OSM   H13A12949   2.709   2.802   2.007
  123OSM   H13B12950   2.780   2.952   1.945
  123OSM   H13C12951   2.821   2.817   1.872
  123OSM    C1212952   2.525   2.983   1.893
  123OSM   H12A12953   2.445   2.991   1.820
  123OSM   H12B12954   2.567   3.082   1.906
  123OSM    C1112955   2.462   2.941   2.023
  123OSM   H11A12956   2.374   3.004   2.051
  123OSM   H11B12957   2.537   2.958   2.103
  123OSM      P12958   2.428   2.701   2.134
  123OSM    O1312959   2.368   2.582   2.077
  123OSM    O1412960   2.575   2.700   2.157
  123OSM    O1112961   2.355   2.761   2.262
  123OSM    O1212962   2.400   2.815   2.024
  123OSM    C1S12963   2.212   2.775   2.255
  123OSM    H1S12964   2.159   2.686   2.215
  123OSM    H1T12965   2.181   2.863   2.194
  123OSM     NF12966   2.019   2.748   2.415
  123OSM    HNF12967   1.956   2.819   2.385
  123OSM    C2S12968   2.156   2.788   2.404
  123OSM    H2S12969   2.227   2.730   2.467
  123OSM    C3S12970   2.181   2.935   2.449
  123OSM    H3S12971   2.126   3.003   2.380
  123OSM     O312972   2.314   2.983   2.409
  123OSM    HO312973   2.351   2.908   2.362
  123OSM    C4S12974   2.150   2.974   2.598
  123OSM    H4S12975   2.072   3.050   2.608
  123OSM    C5S12976   2.194   2.915   2.711
  123OSM    H5S12977   2.266   2.833   2.708
  123OSM    C6S12978   2.166   2.963   2.849
  123OSM    H6S12979   2.102   3.053   2.852
  123OSM    H6T12980   2.262   2.990   2.899
  123OSM    C7S12981   2.101   2.846   2.929
  123OSM    H7S12982   2.132   2.747   2.890
  123OSM    H7T12983   1.990   2.845   2.928
  123OSM    C8S12984   2.150   2.861   3.077
  123OSM    H8S12985   2.138   2.967   3.107
  123OSM    H8T12986   2.260   2.848   3.079
  123OSM    C9S12987   2.091   2.758   3.165
  123OSM    H9S12988   2.137   2.662   3.133
  123OSM    H9T12989   1.982   2.749   3.143
  123OSM   C10S12990   2.115   2.792   3.314
  123OSM   H10S12991   2.079   2.892   3.346
  123OSM   H10T12992   2.224   2.787   3.333
  123OSM   C11S12993   2.048   2.677   3.402
  123OSM   H11S12994   2.084   2.572   3.393
  123OSM   H11T12995   1.939   2.683   3.382
  123OSM   C12S12996   2.059   2.715   3.551
  123OSM   H12S12997   1.978   2.790   3.563
  123OSM   H12T12998   2.158   2.756   3.576
  123OSM   C13S12999   2.035   2.612   3.658
  123OSM   H13S13000   2.094   2.525   3.621
  123OSM   H13T13001   1.928   2.587   3.677
  123OSM   C14S13002   2.101   2.659   3.788
  123OSM   H14S13003   2.067   2.761   3.814
  123OSM   H14T13004   2.212   2.668   3.780
  123OSM   C15S13005   2.073   2.566   3.905
  123OSM   H15S13006   2.125   2.471   3.877
  123OSM   H15T13007   1.967   2.546   3.930
  123OSM   C16S13008   2.141   2.611   4.036
  123OSM   H16S13009   2.251   2.610   4.027
  123OSM   H16T13010   2.118   2.532   4.112
  123OSM   C17S13011   2.110   2.751   4.100
  123OSM   H17S13012   2.142   2.829   4.027
  123OSM   H17T13013   2.163   2.754   4.197
  123OSM   C18S13014   1.962   2.777   4.128
  123OSM   H18S13015   1.941   2.875   4.176
  123OSM   H18T13016   1.924   2.700   4.198
  123OSM   H18U13017   1.899   2.763   4.037
  123OSM    C1F13018   1.992   2.618   2.412
  123OSM     OF13019   2.083   2.532   2.407
  123OSM    C2F13020   1.847   2.580   2.418
  123OSM    H2F13021   1.798   2.557   2.321
  123OSM    H2G13022   1.801   2.675   2.451
  123OSM    C3F13023   1.815   2.471   2.531
  123OSM    H3F13024   1.864   2.373   2.514
  123OSM    H3G13025   1.705   2.456   2.529
  123OSM    C4F13026   1.868   2.518   2.668
  123OSM    H4F13027   1.827   2.619   2.690
  123OSM    H4G13028   1.979   2.526   2.670
  123OSM    C5F13029   1.844   2.401   2.771
  123OSM    H5F13030   1.917   2.319   2.750
  123OSM    H5G13031   1.739   2.370   2.754
  123OSM    C6F13032   1.879   2.459   2.905
  123OSM    H6F13033   1.795   2.520   2.943
  123OSM    H6G13034   1.969   2.522   2.892
  123OSM    C7F13035   1.914   2.343   3.002
  123OSM    H7F13036   1.993   2.279   2.956
  123OSM    H7G13037   1.822   2.281   3.011
  123OSM    C8F13038   1.954   2.387   3.139
  123OSM    H8F13039   2.029   2.468   3.128
  123OSM    H8G13040   2.003   2.301   3.189
  123OSM    C9F13041   1.846   2.435   3.226
  123OSM    H9F13042   1.786   2.508   3.169
  123OSM   C10F13043   1.817   2.410   3.355
  123OSM   H10F13044   1.730   2.460   3.399
  123OSM   C11F13045   1.887   2.312   3.447
  123OSM   H11F13046   1.956   2.374   3.509
  123OSM   H11G13047   1.937   2.236   3.382
  123OSM   C12F13048   1.799   2.235   3.556
  123OSM   H12F13049   1.727   2.304   3.605
  123OSM   H12G13050   1.878   2.197   3.623
  123OSM   C13F13051   1.706   2.121   3.491
  123OSM   H13F13052   1.785   2.074   3.429
  123OSM   H13G13053   1.636   2.180   3.428
  123OSM   C14F13054   1.637   2.026   3.592
  123OSM   H14F13055   1.727   1.988   3.646
  123OSM   H14G13056   1.596   1.933   3.548
  123OSM   C15F13057   1.555   2.086   3.705
  123OSM   H15F13058   1.470   2.134   3.653
  123OSM   H15G13059   1.600   2.177   3.750
  123OSM   C16F13060   1.507   1.986   3.809
  123OSM   H16F13061   1.481   1.892   3.756
  123OSM   H16G13062   1.423   2.026   3.870
  123OSM   C17F13063   1.621   1.957   3.910
  123OSM   H17F13064   1.663   2.049   3.956
  123OSM   H17G13065   1.697   1.908   3.845
  123OSM   C18F13066   1.587   1.877   4.037
  123OSM   H18F13067   1.511   1.935   4.095
  123OSM   H18G13068   1.670   1.858   4.108
  123OSM   H18H13069   1.535   1.782   4.012
  124OSM      N13070   2.992   3.808   1.430
  124OSM    C1513071   2.978   3.943   1.373
  124OSM   H15A13072   2.876   3.970   1.352
  124OSM   H15B13073   3.024   3.942   1.276
  124OSM   H15C13074   3.025   4.024   1.427
  124OSM    C1413075   2.942   3.701   1.339
  124OSM   H14A13076   2.977   3.719   1.239
  124OSM   H14B13077   2.835   3.690   1.349
  124OSM   H14C13078   2.987   3.606   1.364
  124OSM    C1313079   3.133   3.774   1.470
  124OSM   H13A13080   3.131   3.685   1.530
  124OSM   H13B13081   3.192   3.851   1.518
  124OSM   H13C13082   3.188   3.749   1.381
  124OSM    C1213083   2.914   3.821   1.564
  124OSM   H12A13084   2.960   3.901   1.620
  124OSM   H12B13085   2.947   3.729   1.611
  124OSM    C1113086   2.761   3.832   1.552
  124OSM   H11A13087   2.729   3.921   1.494
  124OSM   H11B13088   2.724   3.848   1.656
  124OSM      P13089   2.692   3.580   1.575
  124OSM    O1313090   2.616   3.482   1.496
  124OSM    O1413091   2.828   3.537   1.613
  124OSM    O1113092   2.606   3.613   1.699
  124OSM    O1213093   2.703   3.712   1.498
  124OSM    C1S13094   2.678   3.626   1.822
  124OSM    H1S13095   2.784   3.658   1.808
  124OSM    H1T13096   2.689   3.530   1.877
  124OSM     NF13097   2.680   3.750   2.040
  124OSM    HNF13098   2.642   3.724   2.128
  124OSM    C2S13099   2.607   3.727   1.915
  124OSM    H2S13100   2.594   3.829   1.873
  124OSM    C3S13101   2.456   3.672   1.937
  124OSM    H3S13102   2.470   3.562   1.948
  124OSM     O313103   2.381   3.675   1.818
  124OSM    HO313104   2.444   3.678   1.745
  124OSM    C4S13105   2.392   3.724   2.061
  124OSM    H4S13106   2.417   3.657   2.145
  124OSM    C5S13107   2.323   3.839   2.081
  124OSM    H5S13108   2.296   3.910   2.001
  124OSM    C6S13109   2.270   3.890   2.219
  124OSM    H6S13110   2.161   3.868   2.211
  124OSM    H6T13111   2.276   4.000   2.234
  124OSM    C7S13112   2.342   3.827   2.343
  124OSM    H7S13113   2.443   3.872   2.337
  124OSM    H7T13114   2.349   3.717   2.330
  124OSM    C8S13115   2.289   3.868   2.483
  124OSM    H8S13116   2.180   3.852   2.497
  124OSM    H8T13117   2.313   3.974   2.508
  124OSM    C9S13118   2.357   3.790   2.601
  124OSM    H9S13119   2.466   3.810   2.598
  124OSM    H9T13120   2.341   3.681   2.583
  124OSM   C10S13121   2.301   3.834   2.737
  124OSM   H10S13122   2.190   3.835   2.727
  124OSM   H10T13123   2.339   3.936   2.759
  124OSM   C11S13124   2.337   3.741   2.848
  124OSM   H11S13125   2.446   3.734   2.870
  124OSM   H11T13126   2.300   3.640   2.819
  124OSM   C12S13127   2.260   3.765   2.978
  124OSM   H12S13128   2.152   3.752   2.955
  124OSM   H12T13129   2.272   3.868   3.018
  124OSM   C13S13130   2.300   3.659   3.085
  124OSM   H13S13131   2.405   3.677   3.116
  124OSM   H13T13132   2.291   3.559   3.037
  124OSM   C14S13133   2.220   3.672   3.214
  124OSM   H14S13134   2.120   3.632   3.190
  124OSM   H14T13135   2.227   3.773   3.260
  124OSM   C15S13136   2.277   3.588   3.331
  124OSM   H15S13137   2.376   3.631   3.358
  124OSM   H15T13138   2.294   3.483   3.300
  124OSM   C16S13139   2.188   3.594   3.459
  124OSM   H16S13140   2.082   3.573   3.434
  124OSM   H16T13141   2.183   3.701   3.488
  124OSM   C17S13142   2.229   3.497   3.568
  124OSM   H17S13143   2.330   3.528   3.605
  124OSM   H17T13144   2.232   3.395   3.527
  124OSM   C18S13145   2.145   3.492   3.695
  124OSM   H18S13146   2.041   3.457   3.679
  124OSM   H18T13147   2.140   3.591   3.745
  124OSM   H18U13148   2.194   3.418   3.762
  124OSM    C1F13149   2.809   3.784   2.034
  124OSM     OF13150   2.846   3.852   1.936
  124OSM    C2F13151   2.890   3.760   2.158
  124OSM    H2F13152   2.899   3.650   2.166
  124OSM    H2G13153   2.829   3.803   2.240
  124OSM    C3F13154   3.040   3.810   2.149
  124OSM    H3F13155   3.032   3.916   2.116
  124OSM    H3G13156   3.101   3.761   2.070
  124OSM    C4F13157   3.111   3.791   2.284
  124OSM    H4F13158   3.217   3.817   2.264
  124OSM    H4G13159   3.097   3.682   2.303
  124OSM    C5F13160   3.062   3.878   2.403
  124OSM    H5F13161   2.951   3.886   2.408
  124OSM    H5G13162   3.114   3.976   2.393
  124OSM    C6F13163   3.119   3.818   2.535
  124OSM    H6F13164   3.228   3.800   2.526
  124OSM    H6G13165   3.070   3.720   2.553
  124OSM    C7F13166   3.103   3.912   2.660
  124OSM    H7F13167   2.998   3.935   2.689
  124OSM    H7G13168   3.158   4.006   2.638
  124OSM    C8F13169   3.170   3.853   2.781
  124OSM    H8F13170   3.274   3.830   2.750
  124OSM    H8G13171   3.113   3.760   2.801
  124OSM    C9F13172   3.169   3.954   2.894
  124OSM    H9F13173   3.158   4.061   2.870
  124OSM   C10F13174   3.174   3.919   3.025
  124OSM   H10F13175   3.184   3.996   3.103
  124OSM   C11F13176   3.217   3.782   3.080
  124OSM   H11F13177   3.320   3.794   3.121
  124OSM   H11G13178   3.232   3.712   2.995
  124OSM   C12F13179   3.123   3.724   3.185
  124OSM   H12F13180   3.027   3.701   3.132
  124OSM   H12G13181   3.105   3.795   3.268
  124OSM   C13F13182   3.179   3.599   3.259
  124OSM   H13F13183   3.208   3.523   3.183
  124OSM   H13G13184   3.101   3.548   3.318
  124OSM   C14F13185   3.308   3.636   3.338
  124OSM   H14F13186   3.291   3.730   3.395
  124OSM   H14G13187   3.383   3.656   3.259
  124OSM   C15F13188   3.351   3.525   3.440
  124OSM   H15F13189   3.452   3.545   3.481
  124OSM   H15G13190   3.356   3.423   3.396
  124OSM   C16F13191   3.246   3.519   3.566
  124OSM   H16F13192   3.146   3.489   3.527
  124OSM   H16G13193   3.229   3.623   3.600
  124OSM   C17F13194   3.294   3.421   3.671
  124OSM   H17F13195   3.404   3.408   3.666
  124OSM   H17G13196   3.245   3.322   3.656
  124OSM   C18F13197   3.254   3.463   3.810
  124OSM   H18F13198   3.147   3.442   3.832
  124OSM   H18G13199   3.251   3.573   3.827
  124OSM   H18H13200   3.317   3.418   3.890
  125OSM      N13201   4.282   0.747   2.301
  125OSM    C1513202   4.194   0.712   2.419
  125OSM   H15A13203   4.242   0.739   2.511
  125OSM   H15B13204   4.179   0.605   2.418
  125OSM   H15C13205   4.094   0.752   2.410
  125OSM    C1413206   4.204   0.714   2.177
  125OSM   H14A13207   4.206   0.607   2.163
  125OSM   H14B13208   4.250   0.777   2.102
  125OSM   H14C13209   4.105   0.758   2.187
  125OSM    C1313210   4.291   0.896   2.314
  125OSM   H13A13211   4.330   0.933   2.407
  125OSM   H13B13212   4.187   0.922   2.319
  125OSM   H13C13213   4.346   0.948   2.236
  125OSM    C1213214   4.410   0.666   2.315
  125OSM   H12A13215   4.469   0.718   2.390
  125OSM   H12B13216   4.477   0.691   2.234
  125OSM    C1113217   4.394   0.518   2.351
  125OSM   H11A13218   4.379   0.518   2.461
  125OSM   H11B13219   4.497   0.477   2.340
  125OSM      P13220   4.267   0.303   2.334
  125OSM    O1313221   4.165   0.240   2.251
  125OSM    O1413222   4.396   0.224   2.321
  125OSM    O1113223   4.205   0.314   2.481
  125OSM    O1213224   4.292   0.450   2.278
  125OSM    C1S13225   4.149   0.196   2.542
  125OSM    H1S13226   4.229   0.123   2.567
  125OSM    H1T13227   4.069   0.155   2.477
  125OSM     NF13228   4.011   0.119   2.731
  125OSM    HNF13229   3.912   0.116   2.718
  125OSM    C2S13230   4.085   0.232   2.681
  125OSM    H2S13231   4.179   0.239   2.741
  125OSM    C3S13232   4.014   0.368   2.693
  125OSM    H3S13233   3.945   0.369   2.606
  125OSM     O313234   4.102   0.470   2.678
  125OSM    HO313235   4.175   0.433   2.628
  125OSM    C4S13236   3.930   0.383   2.819
  125OSM    H4S13237   3.824   0.364   2.795
  125OSM    C5S13238   3.955   0.443   2.938
  125OSM    H5S13239   4.058   0.482   2.952
  125OSM    C6S13240   3.851   0.473   3.043
  125OSM    H6S13241   3.751   0.456   2.999
  125OSM    H6T13242   3.854   0.580   3.070
  125OSM    C7S13243   3.848   0.387   3.171
  125OSM    H7S13244   3.951   0.388   3.214
  125OSM    H7T13245   3.826   0.283   3.137
  125OSM    C8S13246   3.749   0.445   3.275
  125OSM    H8S13247   3.642   0.454   3.245
  125OSM    H8T13248   3.789   0.541   3.313
  125OSM    C9S13249   3.758   0.366   3.412
  125OSM    H9S13250   3.867   0.357   3.436
  125OSM    H9T13251   3.711   0.266   3.403
  125OSM   C10S13252   3.694   0.457   3.518
  125OSM   H10S13253   3.586   0.478   3.498
  125OSM   H10T13254   3.747   0.554   3.510
  125OSM   C11S13255   3.713   0.404   3.657
  125OSM   H11S13256   3.676   0.299   3.652
  125OSM   H11T13257   3.649   0.464   3.725
  125OSM   C12S13258   3.853   0.423   3.713
  125OSM   H12S13259   3.909   0.505   3.663
  125OSM   H12T13260   3.912   0.332   3.689
  125OSM   C13S13261   3.846   0.452   3.860
  125OSM   H13S13262   3.801   0.550   3.886
  125OSM   H13T13263   3.951   0.473   3.891
  125OSM   C14S13264   3.808   0.334   3.948
  125OSM   H14S13265   3.875   0.254   3.909
  125OSM   H14T13266   3.700   0.305   3.948
  125OSM   C15S13267   3.841   0.359   4.096
  125OSM   H15S13268   3.950   0.378   4.101
  125OSM   H15T13269   3.804   0.263   4.138
  125OSM   C16S13270   3.769   0.474   4.152
  125OSM   H16S13271   3.770   0.573   4.102
  125OSM   H16T13272   3.824   0.498   4.245
  125OSM   C17S13273   3.631   0.441   4.197
  125OSM   H17S13274   3.571   0.388   4.120
  125OSM   H17T13275   3.583   0.540   4.214
  125OSM   C18S13276   3.616   0.354   4.323
  125OSM   H18S13277   3.511   0.350   4.358
  125OSM   H18T13278   3.676   0.403   4.403
  125OSM   H18U13279   3.664   0.255   4.306
  125OSM    C1F13280   4.063   0.016   2.800
  125OSM     OF13281   4.173   0.017   2.851
  125OSM    C2F13282   3.970   6.773   2.807
  125OSM    H2F13283   4.026   6.690   2.759
  125OSM    H2G13284   3.880   6.779   2.741
  125OSM    C3F13285   3.947   6.737   2.953
  125OSM    H3F13286   4.047   6.707   2.989
  125OSM    H3G13287   3.890   6.643   2.970
  125OSM    C4F13288   3.893   6.854   3.041
  125OSM    H4F13289   3.807   0.017   2.984
  125OSM    H4G13290   3.967   0.057   3.053
  125OSM    C5F13291   3.843   6.798   3.180
  125OSM    H5F13292   3.928   6.741   3.223
  125OSM    H5G13293   3.767   6.720   3.157
  125OSM    C6F13294   3.775   0.022   3.259
  125OSM    H6F13295   3.722   0.088   3.187
  125OSM    H6G13296   3.850   0.083   3.313
  125OSM    C7F13297   3.671   6.864   3.361
  125OSM    H7F13298   3.592   6.800   3.318
  125OSM    H7G13299   3.620   0.077   3.399
  125OSM    C8F13300   3.738   6.782   3.477
  125OSM    H8F13301   3.810   6.704   3.443
  125OSM    H8G13302   3.652   6.727   3.522
  125OSM    C9F13303   3.816   6.874   3.570
  125OSM    H9F13304   3.882   0.066   3.516
  125OSM   C10F13305   3.805   0.011   3.702
  125OSM   H10F13306   3.865   0.087   3.753
  125OSM   C11F13307   3.730   6.801   3.793
  125OSM   H11F13308   3.797   6.736   3.853
  125OSM   H11G13309   3.666   6.725   3.743
  125OSM   C12F13310   3.648   0.007   3.890
  125OSM   H12F13311   3.583   0.073   3.828
  125OSM   H12G13312   3.712   0.060   3.963
  125OSM   C13F13313   3.546   6.798   3.969
  125OSM   H13F13314   3.613   6.743   4.038
  125OSM   H13G13315   3.503   6.723   3.899
  125OSM   C14F13316   3.445   0.002   4.048
  125OSM   H14F13317   3.344   6.836   4.064
  125OSM   H14G13318   3.408   0.089   3.990
  125OSM   C15F13319   3.491   0.028   4.192
  125OSM   H15F13320   3.408   0.089   4.234
  125OSM   H15G13321   3.580   0.093   4.188
  125OSM   C16F13322   3.492   6.778   4.283
  125OSM   H16F13323   3.548   6.696   4.234
  125OSM   H16G13324   3.392   6.740   4.312
  125OSM   C17F13325   3.563   6.814   4.418
  125OSM   H17F13326   3.642   0.013   4.403
  125OSM   H17G13327   3.601   6.715   4.451
  125OSM   C18F13328   3.452   6.875   4.505
  125OSM   H18F13329   3.472   0.017   4.613
  125OSM   H18G13330   3.378   6.794   4.524
  125OSM   H18H13331   3.410   0.085   4.452
  126OSM      N13332   2.303   1.398   1.830
  126OSM    C1513333   2.178   1.483   1.821
  126OSM   H15A13334   2.109   1.449   1.897
  126OSM   H15B13335   2.127   1.482   1.726
  126OSM   H15C13336   2.196   1.586   1.849
  126OSM    C1413337   2.253   1.264   1.805
  126OSM   H14A13338   2.164   1.249   1.864
  126OSM   H14B13339   2.315   1.181   1.832
  126OSM   H14C13340   2.231   1.237   1.702
  126OSM    C1313341   2.410   1.440   1.731
  126OSM   H13A13342   2.388   1.435   1.626
  126OSM   H13B13343   2.498   1.378   1.740
  126OSM   H13C13344   2.442   1.539   1.760
  126OSM    C1213345   2.348   1.404   1.978
  126OSM   H12A13346   2.266   1.363   2.034
  126OSM   H12B13347   2.366   1.509   1.998
  126OSM    C1113348   2.474   1.323   2.016
  126OSM   H11A13349   2.455   1.215   1.996
  126OSM   H11B13350   2.480   1.333   2.126
  126OSM      P13351   2.712   1.285   1.948
  126OSM    O1313352   2.677   1.178   1.855
  126OSM    O1413353   2.831   1.369   1.915
  126OSM    O1113354   2.722   1.234   2.091
  126OSM    O1213355   2.585   1.381   1.958
  126OSM    C1S13356   2.780   1.314   2.192
  126OSM    H1S13357   2.736   1.415   2.206
  126OSM    H1T13358   2.889   1.329   2.175
  126OSM     NF13359   2.849   1.311   2.433
  126OSM    HNF13360   2.939   1.272   2.447
  126OSM    C2S13361   2.769   1.245   2.330
  126OSM    H2S13362   2.661   1.246   2.356
  126OSM    C3S13363   2.802   1.088   2.321
  126OSM    H3S13364   2.905   1.080   2.279
  126OSM     O313365   2.722   1.022   2.226
  126OSM    HO313366   2.698   1.100   2.175
  126OSM    C4S13367   2.775   1.030   2.460
  126OSM    H4S13368   2.669   1.026   2.487
  126OSM    C5S13369   2.867   0.993   2.552
  126OSM    H5S13370   2.972   1.004   2.519
  126OSM    C6S13371   2.843   0.937   2.685
  126OSM    H6S13372   2.925   0.867   2.710
  126OSM    H6T13373   2.745   0.886   2.695
  126OSM    C7S13374   2.854   1.052   2.780
  126OSM    H7S13375   2.795   1.140   2.747
  126OSM    H7T13376   2.962   1.079   2.783
  126OSM    C8S13377   2.824   1.025   2.932
  126OSM    H8S13378   2.903   0.956   2.969
  126OSM    H8T13379   2.724   0.979   2.947
  126OSM    C9S13380   2.840   1.160   3.017
  126OSM    H9S13381   2.756   1.227   2.990
  126OSM    H9T13382   2.932   1.208   2.976
  126OSM   C10S13383   2.862   1.131   3.165
  126OSM   H10S13384   2.888   1.232   3.204
  126OSM   H10T13385   2.949   1.064   3.177
  126OSM   C11S13386   2.743   1.061   3.240
  126OSM   H11S13387   2.740   0.958   3.199
  126OSM   H11T13388   2.647   1.106   3.206
  126OSM   C12S13389   2.754   1.050   3.393
  126OSM   H12S13390   2.677   0.978   3.428
  126OSM   H12T13391   2.733   1.147   3.444
  126OSM   C13S13392   2.889   1.001   3.438
  126OSM   H13S13393   2.966   1.062   3.384
  126OSM   H13T13394   2.903   0.893   3.422
  126OSM   C14S13395   2.923   1.029   3.584
  126OSM   H14S13396   2.991   0.952   3.628
  126OSM   H14T13397   2.836   1.019   3.653
  126OSM   C15S13398   2.977   1.173   3.607
  126OSM   H15S13399   2.909   1.247   3.560
  126OSM   H15T13400   3.073   1.171   3.550
  126OSM   C16S13401   3.011   1.197   3.751
  126OSM   H16S13402   3.060   1.113   3.804
  126OSM   H16T13403   2.913   1.194   3.803
  126OSM   C17S13404   3.071   1.337   3.764
  126OSM   H17S13405   2.984   1.402   3.744
  126OSM   H17T13406   3.158   1.347   3.695
  126OSM   C18S13407   3.132   1.375   3.904
  126OSM   H18S13408   3.053   1.374   3.982
  126OSM   H18T13409   3.154   1.483   3.899
  126OSM   H18U13410   3.219   1.309   3.927
  126OSM    C1F13411   2.820   1.431   2.477
  126OSM     OF13412   2.718   1.484   2.444
  126OSM    C2F13413   2.928   1.503   2.551
  126OSM    H2F13414   3.012   1.432   2.567
  126OSM    H2G13415   2.888   1.524   2.653
  126OSM    C3F13416   2.971   1.640   2.475
  126OSM    H3F13417   2.879   1.703   2.470
  126OSM    H3G13418   3.009   1.624   2.372
  126OSM    C4F13419   3.091   1.710   2.544
  126OSM    H4F13420   3.066   1.751   2.644
  126OSM    H4G13421   3.120   1.799   2.484
  126OSM    C5F13422   3.217   1.620   2.547
  126OSM    H5F13423   3.222   1.578   2.445
  126OSM    H5G13424   3.187   1.526   2.598
  126OSM    C6F13425   3.339   1.687   2.607
  126OSM    H6F13426   3.373   1.766   2.536
  126OSM    H6G13427   3.426   1.619   2.598
  126OSM    C7F13428   3.336   1.743   2.745
  126OSM    H7F13429   3.273   1.835   2.746
  126OSM    H7G13430   3.439   1.772   2.775
  126OSM    C8F13431   3.284   1.642   2.853
  126OSM    H8F13432   3.329   1.662   2.953
  126OSM    H8G13433   3.310   1.537   2.828
  126OSM    C9F13434   3.131   1.651   2.872
  126OSM    H9F13435   3.077   1.611   2.786
  126OSM   C10F13436   3.071   1.725   2.967
  126OSM   H10F13437   2.962   1.733   2.964
  126OSM   C11F13438   3.135   1.806   3.075
  126OSM   H11F13439   3.246   1.799   3.079
  126OSM   H11G13440   3.104   1.775   3.177
  126OSM   C12F13441   3.104   1.956   3.062
  126OSM   H12F13442   3.155   1.989   2.968
  126OSM   H12G13443   3.154   2.009   3.146
  126OSM   C13F13444   2.963   1.997   3.076
  126OSM   H13F13445   2.903   1.968   2.987
  126OSM   H13G13446   2.947   2.107   3.077
  126OSM   C14F13447   2.901   1.957   3.211
  126OSM   H14F13448   2.979   1.989   3.284
  126OSM   H14G13449   2.891   1.848   3.227
  126OSM   C15F13450   2.767   2.019   3.238
  126OSM   H15F13451   2.685   1.945   3.224
  126OSM   H15G13452   2.753   2.086   3.150
  126OSM   C16F13453   2.765   2.101   3.365
  126OSM   H16F13454   2.692   2.185   3.360
  126OSM   H16G13455   2.865   2.144   3.388
  126OSM   C17F13456   2.715   2.004   3.475
  126OSM   H17F13457   2.789   1.921   3.479
  126OSM   H17G13458   2.619   1.953   3.454
  126OSM   C18F13459   2.712   2.065   3.617
  126OSM   H18F13460   2.643   2.151   3.631
  126OSM   H18G13461   2.817   2.087   3.643
  126OSM   H18H13462   2.681   1.984   3.686
  127OSM      N13463   1.715   3.152   1.499
  127OSM    C1513464   1.715   3.224   1.371
  127OSM   H15A13465   1.619   3.230   1.323
  127OSM   H15B13466   1.791   3.181   1.308
  127OSM   H15C13467   1.731   3.329   1.390
  127OSM    C1413468   1.657   3.022   1.496
  127OSM   H14A13469   1.724   2.949   1.454
  127OSM   H14B13470   1.566   3.015   1.437
  127OSM   H14C13471   1.642   2.988   1.598
  127OSM    C1313472   1.859   3.122   1.549
  127OSM   H13A13473   1.902   3.040   1.493
  127OSM   H13B13474   1.844   3.102   1.654
  127OSM   H13C13475   1.917   3.213   1.554
  127OSM    C1213476   1.643   3.239   1.603
  127OSM   H12A13477   1.556   3.279   1.552
  127OSM   H12B13478   1.709   3.319   1.631
  127OSM    C1113479   1.603   3.189   1.740
  127OSM   H11A13480   1.519   3.116   1.742
  127OSM   H11B13481   1.579   3.283   1.794
  127OSM      P13482   1.715   3.067   1.938
  127OSM    O1313483   1.628   2.950   1.944
  127OSM    O1413484   1.852   3.037   1.982
  127OSM    O1113485   1.665   3.184   2.028
  127OSM    O1213486   1.714   3.119   1.791
  127OSM    C1S13487   1.661   3.167   2.172
  127OSM    H1S13488   1.643   3.064   2.210
  127OSM    H1T13489   1.587   3.234   2.221
  127OSM     NF13490   1.786   3.212   2.387
  127OSM    HNF13491   1.747   3.286   2.441
  127OSM    C2S13492   1.797   3.221   2.238
  127OSM    H2S13493   1.874   3.148   2.205
  127OSM    C3S13494   1.847   3.361   2.186
  127OSM    H3S13495   1.763   3.431   2.209
  127OSM     O313496   1.875   3.373   2.044
  127OSM    HO313497   1.816   3.308   2.007
  127OSM    C4S13498   1.969   3.392   2.263
  127OSM    H4S13499   2.043   3.313   2.282
  127OSM    C5S13500   1.982   3.495   2.345
  127OSM    H5S13501   1.905   3.574   2.343
  127OSM    C6S13502   2.098   3.512   2.442
  127OSM    H6S13503   2.132   3.618   2.444
  127OSM    H6T13504   2.188   3.465   2.396
  127OSM    C7S13505   2.072   3.460   2.586
  127OSM    H7S13506   2.168   3.436   2.637
  127OSM    H7T13507   2.017   3.363   2.589
  127OSM    C8S13508   1.983   3.545   2.669
  127OSM    H8S13509   1.874   3.524   2.659
  127OSM    H8T13510   2.013   3.651   2.656
  127OSM    C9S13511   2.010   3.526   2.813
  127OSM    H9S13512   1.951   3.607   2.860
  127OSM    H9T13513   2.118   3.549   2.824
  127OSM   C10S13514   1.971   3.391   2.874
  127OSM   H10S13515   2.029   3.304   2.837
  127OSM   H10T13516   1.870   3.364   2.837
  127OSM   C11S13517   1.988   3.414   3.025
  127OSM   H11S13518   1.953   3.515   3.056
  127OSM   H11T13519   2.094   3.411   3.057
  127OSM   C12S13520   1.909   3.310   3.108
  127OSM   H12S13521   1.902   3.211   3.058
  127OSM   H12T13522   1.806   3.352   3.112
  127OSM   C13S13523   1.956   3.299   3.255
  127OSM   H13S13524   1.948   3.403   3.293
  127OSM   H13T13525   2.065   3.279   3.259
  127OSM   C14S13526   1.878   3.215   3.358
  127OSM   H14S13527   1.855   3.114   3.318
  127OSM   H14T13528   1.781   3.269   3.367
  127OSM   C15S13529   1.955   3.213   3.489
  127OSM   H15S13530   1.962   3.315   3.532
  127OSM   H15T13531   2.058   3.181   3.463
  127OSM   C16S13532   1.905   3.131   3.609
  127OSM   H16S13533   1.894   3.029   3.567
  127OSM   H16T13534   1.805   3.169   3.636
  127OSM   C17S13535   1.999   3.130   3.726
  127OSM   H17S13536   2.031   3.227   3.769
  127OSM   H17T13537   2.096   3.088   3.691
  127OSM   C18S13538   1.951   3.034   3.830
  127OSM   H18S13539   1.843   3.059   3.845
  127OSM   H18T13540   2.008   3.055   3.923
  127OSM   H18U13541   1.955   2.926   3.802
  127OSM    C1F13542   1.778   3.093   2.455
  127OSM     OF13543   1.791   2.993   2.385
  127OSM    C2F13544   1.750   3.099   2.606
  127OSM    H2F13545   1.642   3.126   2.616
  127OSM    H2G13546   1.821   3.171   2.653
  127OSM    C3F13547   1.772   2.962   2.664
  127OSM    H3F13548   1.873   2.924   2.635
  127OSM    H3G13549   1.698   2.893   2.618
  127OSM    C4F13550   1.763   2.962   2.815
  127OSM    H4F13551   1.678   3.031   2.836
  127OSM    H4G13552   1.858   2.992   2.864
  127OSM    C5F13553   1.706   2.828   2.875
  127OSM    H5F13554   1.787   2.755   2.852
  127OSM    H5G13555   1.613   2.794   2.824
  127OSM    C6F13556   1.685   2.850   3.025
  127OSM    H6F13557   1.761   2.918   3.069
  127OSM    H6G13558   1.702   2.751   3.073
  127OSM    C7F13559   1.542   2.899   3.060
  127OSM    H7F13560   1.465   2.827   3.025
  127OSM    H7G13561   1.530   2.990   2.997
  127OSM    C8F13562   1.519   2.940   3.203
  127OSM    H8F13563   1.424   2.997   3.213
  127OSM    H8G13564   1.605   2.999   3.241
  127OSM    C9F13565   1.507   2.813   3.288
  127OSM    H9F13566   1.464   2.723   3.242
  127OSM   C10F13567   1.562   2.798   3.410
  127OSM   H10F13568   1.547   2.701   3.462
  127OSM   C11F13569   1.623   2.913   3.495
  127OSM   H11F13570   1.580   3.007   3.452
  127OSM   H11G13571   1.731   2.911   3.470
  127OSM   C12F13572   1.584   2.917   3.643
  127OSM   H12F13573   1.475   2.938   3.650
  127OSM   H12G13574   1.624   3.009   3.692
  127OSM   C13F13575   1.613   2.783   3.728
  127OSM   H13F13576   1.721   2.764   3.746
  127OSM   H13G13577   1.575   2.699   3.667
  127OSM   C14F13578   1.553   2.770   3.870
  127OSM   H14F13579   1.453   2.813   3.893
  127OSM   H14G13580   1.617   2.820   3.946
  127OSM   C15F13581   1.551   2.620   3.914
  127OSM   H15F13582   1.505   2.568   3.828
  127OSM   H15G13583   1.481   2.623   4.000
  127OSM   C16F13584   1.686   2.558   3.953
  127OSM   H16F13585   1.745   2.637   4.005
  127OSM   H16G13586   1.740   2.519   3.865
  127OSM   C17F13587   1.669   2.439   4.046
  127OSM   H17F13588   1.587   2.382   3.998
  127OSM   H17G13589   1.635   2.475   4.145
  127OSM   C18F13590   1.790   2.351   4.051
  127OSM   H18F13591   1.829   2.349   3.947
  127OSM   H18G13592   1.762   2.248   4.084
  127OSM   H18H13593   1.872   2.400   4.109
  128OSM      N13594   1.646   0.383   2.055
  128OSM    C1513595   1.654   0.376   1.908
  128OSM   H15A13596   1.714   0.297   1.866
  128OSM   H15B13597   1.691   0.469   1.868
  128OSM   H15C13598   1.552   0.355   1.880
  128OSM    C1413599   1.622   0.251   2.104
  128OSM   H14A13600   1.649   0.240   2.208
  128OSM   H14B13601   1.684   0.186   2.044
  128OSM   H14C13602   1.519   0.223   2.088
  128OSM    C1313603   1.783   0.426   2.107
  128OSM   H13A13604   1.859   0.353   2.082
  128OSM   H13B13605   1.769   0.431   2.214
  128OSM   H13C13606   1.803   0.523   2.065
  128OSM    C1213607   1.547   0.492   2.091
  128OSM   H12A13608   1.539   0.489   2.199
  128OSM   H12B13609   1.449   0.469   2.053
  128OSM    C1113610   1.587   0.639   2.057
  128OSM   H11A13611   1.500   0.707   2.055
  128OSM   H11B13612   1.610   0.627   1.949
  128OSM      P13613   1.742   0.838   2.121
  128OSM    O1313614   1.885   0.838   2.080
  128OSM    O1413615   1.645   0.927   2.047
  128OSM    O1113616   1.749   0.891   2.269
  128OSM    O1213617   1.693   0.688   2.138
  128OSM    C1S13618   1.714   0.805   2.381
  128OSM    H1S13619   1.805   0.744   2.398
  128OSM    H1T13620   1.630   0.735   2.361
  128OSM     NF13621   1.723   0.794   2.635
  128OSM    HNF13622   1.656   0.729   2.671
  128OSM    C2S13623   1.688   0.881   2.523
  128OSM    H2S13624   1.750   0.974   2.520
  128OSM    C3S13625   1.539   0.935   2.511
  128OSM    H3S13626   1.464   0.852   2.513
  128OSM     O313627   1.517   0.999   2.388
  128OSM    HO313628   1.595   0.985   2.333
  128OSM    C4S13629   1.512   1.025   2.628
  128OSM    H4S13630   1.474   0.964   2.710
  128OSM    C5S13631   1.510   1.162   2.641
  128OSM    H5S13632   1.522   1.228   2.554
  128OSM    C6S13633   1.473   1.231   2.776
  128OSM    H6S13634   1.434   1.157   2.849
  128OSM    H6T13635   1.385   1.298   2.765
  128OSM    C7S13636   1.582   1.322   2.850
  128OSM    H7S13637   1.546   1.357   2.949
  128OSM    H7T13638   1.611   1.414   2.795
  128OSM    C8S13639   1.707   1.243   2.891
  128OSM    H8S13640   1.780   1.317   2.931
  128OSM    H8T13641   1.735   1.210   2.789
  128OSM    C9S13642   1.694   1.143   2.997
  128OSM    H9S13643   1.628   1.062   2.958
  128OSM    H9T13644   1.638   1.188   3.082
  128OSM   C10S13645   1.827   1.083   3.045
  128OSM   H10S13646   1.904   1.164   3.049
  128OSM   H10T13647   1.864   1.026   2.957
  128OSM   C11S13648   1.810   0.981   3.156
  128OSM   H11S13649   1.903   0.920   3.163
  128OSM   H11T13650   1.712   0.932   3.137
  128OSM   C12S13651   1.817   1.047   3.290
  128OSM   H12S13652   1.716   1.082   3.321
  128OSM   H12T13653   1.876   1.141   3.297
  128OSM   C13S13654   1.858   0.947   3.394
  128OSM   H13S13655   1.966   0.946   3.422
  128OSM   H13T13656   1.830   0.844   3.364
  128OSM   C14S13657   1.785   0.977   3.527
  128OSM   H14S13658   1.675   0.982   3.515
  128OSM   H14T13659   1.816   1.081   3.550
  128OSM   C15S13660   1.820   0.874   3.636
  128OSM   H15S13661   1.824   0.769   3.600
  128OSM   H15T13662   1.743   0.881   3.716
  128OSM   C16S13663   1.951   0.911   3.706
  128OSM   H16S13664   1.948   1.014   3.747
  128OSM   H16T13665   2.031   0.913   3.629
  128OSM   C17S13666   1.984   0.807   3.812
  128OSM   H17S13667   1.970   0.712   3.756
  128OSM   H17T13668   1.906   0.814   3.890
  128OSM   C18S13669   2.130   0.802   3.862
  128OSM   H18S13670   2.157   0.891   3.923
  128OSM   H18T13671   2.200   0.802   3.776
  128OSM   H18U13672   2.149   0.708   3.920
  128OSM    C1F13673   1.851   0.771   2.650
  128OSM     OF13674   1.939   0.838   2.601
  128OSM    C2F13675   1.887   0.654   2.741
  128OSM    H2F13676   1.968   0.603   2.686
  128OSM    H2G13677   1.803   0.582   2.757
  128OSM    C3F13678   1.923   0.686   2.885
  128OSM    H3F13679   1.830   0.723   2.933
  128OSM    H3G13680   2.001   0.765   2.892
  128OSM    C4F13681   1.976   0.568   2.974
  128OSM    H4F13682   2.065   0.526   2.922
  128OSM    H4G13683   1.907   0.482   2.982
  128OSM    C5F13684   2.013   0.628   3.115
  128OSM    H5F13685   1.964   0.726   3.134
  128OSM    H5G13686   2.119   0.660   3.109
  128OSM    C6F13687   1.997   0.521   3.216
  128OSM    H6F13688   2.048   0.426   3.188
  128OSM    H6G13689   1.888   0.504   3.233
  128OSM    C7F13690   2.057   0.556   3.354
  128OSM    H7F13691   2.107   0.655   3.357
  128OSM    H7G13692   2.137   0.480   3.370
  128OSM    C8F13693   1.952   0.550   3.465
  128OSM    H8F13694   1.858   0.603   3.439
  128OSM    H8G13695   1.989   0.599   3.558
  128OSM    C9F13696   1.920   0.400   3.499
  128OSM    H9F13697   1.966   0.339   3.421
  128OSM   C10F13698   1.856   0.348   3.605
  128OSM   H10F13699   1.831   0.241   3.604
  128OSM   C11F13700   1.796   0.433   3.719
  128OSM   H11F13701   1.685   0.436   3.713
  128OSM   H11G13702   1.841   0.534   3.723
  128OSM   C12F13703   1.830   0.381   3.858
  128OSM   H12F13704   1.794   0.458   3.929
  128OSM   H12G13705   1.940   0.363   3.862
  128OSM   C13F13706   1.759   0.244   3.872
  128OSM   H13F13707   1.817   0.178   3.805
  128OSM   H13G13708   1.653   0.244   3.839
  128OSM   C14F13709   1.762   0.175   4.021
  128OSM   H14F13710   1.703   0.243   4.087
  128OSM   H14G13711   1.862   0.170   4.071
  128OSM   C15F13712   1.703   0.030   4.013
  128OSM   H15F13713   1.767   6.856   3.938
  128OSM   H15G13714   1.607   0.039   3.957
  128OSM   C16F13715   1.678   6.834   4.145
  128OSM   H16F13716   1.649   0.020   4.231
  128OSM   H16G13717   1.767   6.776   4.175
  128OSM   C17F13718   1.562   6.732   4.132
  128OSM   H17F13719   1.583   6.679   4.037
  128OSM   H17G13720   1.468   6.790   4.118
  128OSM   C18F13721   1.526   6.636   4.241
  128OSM   H18F13722   1.615   6.572   4.259
  128OSM   H18G13723   1.441   6.573   4.208
  128OSM   H18H13724   1.506   6.685   4.338
  129OSM      N13725   3.457   0.476   1.936
  129OSM    C1513726   3.560   0.368   1.944
  129OSM   H15A13727   3.607   0.366   2.041
  129OSM   H15B13728   3.629   0.364   1.861
  129OSM   H15C13729   3.513   0.271   1.945
  129OSM    C1413730   3.537   0.601   1.909
  129OSM   H14A13731   3.609   0.618   1.988
  129OSM   H14B13732   3.476   0.688   1.888
  129OSM   H14C13733   3.598   0.580   1.822
  129OSM    C1313734   3.367   0.449   1.820
  129OSM   H13A13735   3.305   0.533   1.791
  129OSM   H13B13736   3.291   0.376   1.846
  129OSM   H13C13737   3.415   0.417   1.729
  129OSM    C1213738   3.378   0.489   2.066
  129OSM   H12A13739   3.309   0.408   2.085
  129OSM   H12B13740   3.310   0.572   2.055
  129OSM    C1113741   3.460   0.505   2.192
  129OSM   H11A13742   3.384   0.531   2.268
  129OSM   H11B13743   3.541   0.581   2.179
  129OSM      P13744   3.659   0.363   2.298
  129OSM    O1313745   3.667   0.226   2.363
  129OSM    O1413746   3.760   0.401   2.197
  129OSM    O1113747   3.651   0.472   2.416
  129OSM    O1213748   3.517   0.377   2.232
  129OSM    C1S13749   3.554   0.461   2.522
  129OSM    H1S13750   3.544   0.352   2.544
  129OSM    H1T13751   3.453   0.502   2.501
  129OSM     NF13752   3.524   0.477   2.765
  129OSM    HNF13753   3.467   0.544   2.812
  129OSM    C2S13754   3.606   0.521   2.654
  129OSM    H2S13755   3.708   0.479   2.670
  129OSM    C3S13756   3.612   0.677   2.633
  129OSM    H3S13757   3.508   0.716   2.631
  129OSM     O313758   3.676   0.723   2.506
  129OSM    HO313759   3.691   0.643   2.455
  129OSM    C4S13760   3.695   0.730   2.747
  129OSM    H4S13761   3.799   0.696   2.752
  129OSM    C5S13762   3.650   0.817   2.843
  129OSM    H5S13763   3.545   0.848   2.843
  129OSM    C6S13764   3.740   0.863   2.954
  129OSM    H6S13765   3.818   0.936   2.924
  129OSM    H6T13766   3.773   0.775   3.013
  129OSM    C7S13767   3.659   0.935   3.068
  129OSM    H7S13768   3.573   0.996   3.032
  129OSM    H7T13769   3.737   1.001   3.113
  129OSM    C8S13770   3.588   0.841   3.174
  129OSM    H8S13771   3.655   0.759   3.206
  129OSM    H8T13772   3.506   0.789   3.121
  129OSM    C9S13773   3.518   0.916   3.293
  129OSM    H9S13774   3.451   0.841   3.341
  129OSM    H9T13775   3.451   0.993   3.249
  129OSM   C10S13776   3.620   0.984   3.385
  129OSM   H10S13777   3.671   1.061   3.324
  129OSM   H10T13778   3.695   0.908   3.416
  129OSM   C11S13779   3.571   1.059   3.514
  129OSM   H11S13780   3.653   1.128   3.541
  129OSM   H11T13781   3.570   0.976   3.588
  129OSM   C12S13782   3.443   1.134   3.494
  129OSM   H12S13783   3.366   1.058   3.468
  129OSM   H12T13784   3.444   1.194   3.401
  129OSM   C13S13785   3.411   1.220   3.617
  129OSM   H13S13786   3.376   1.169   3.709
  129OSM   H13T13787   3.334   1.288   3.574
  129OSM   C14S13788   3.517   1.322   3.653
  129OSM   H14S13789   3.547   1.385   3.566
  129OSM   H14T13790   3.604   1.268   3.696
  129OSM   C15S13791   3.449   1.425   3.751
  129OSM   H15S13792   3.419   1.361   3.837
  129OSM   H15T13793   3.360   1.473   3.705
  129OSM   C16S13794   3.551   1.532   3.807
  129OSM   H16S13795   3.606   1.576   3.721
  129OSM   H16T13796   3.628   1.489   3.874
  129OSM   C17S13797   3.472   1.641   3.881
  129OSM   H17S13798   3.415   1.581   3.955
  129OSM   H17T13799   3.403   1.689   3.808
  129OSM   C18S13800   3.543   1.762   3.945
  129OSM   H18S13801   3.469   1.842   3.963
  129OSM   H18T13802   3.631   1.808   3.896
  129OSM   H18U13803   3.587   1.743   4.045
  129OSM    C1F13804   3.536   0.359   2.822
  129OSM     OF13805   3.612   0.276   2.787
  129OSM    C2F13806   3.451   0.334   2.941
  129OSM    H2F13807   3.343   0.348   2.923
  129OSM    H2G13808   3.488   0.408   3.015
  129OSM    C3F13809   3.468   0.185   2.989
  129OSM    H3F13810   3.575   0.160   3.003
  129OSM    H3G13811   3.427   0.105   2.924
  129OSM    C4F13812   3.423   0.170   3.128
  129OSM    H4F13813   3.509   0.175   3.199
  129OSM    H4G13814   3.396   0.064   3.149
  129OSM    C5F13815   3.304   0.254   3.187
  129OSM    H5F13816   3.208   0.235   3.135
  129OSM    H5G13817   3.332   0.361   3.173
  129OSM    C6F13818   3.266   0.237   3.333
  129OSM    H6F13819   3.271   0.130   3.364
  129OSM    H6G13820   3.158   0.259   3.351
  129OSM    C7F13821   3.356   0.324   3.417
  129OSM    H7F13822   3.336   0.430   3.390
  129OSM    H7G13823   3.465   0.307   3.408
  129OSM    C8F13824   3.323   0.321   3.562
  129OSM    H8F13825   3.219   0.356   3.577
  129OSM    H8G13826   3.390   0.389   3.619
  129OSM    C9F13827   3.362   0.188   3.634
  129OSM    H9F13828   3.470   0.169   3.624
  129OSM   C10F13829   3.271   0.103   3.690
  129OSM   H10F13830   3.306   0.002   3.720
  129OSM   C11F13831   3.128   0.116   3.689
  129OSM   H11F13832   3.101   0.116   3.581
  129OSM   H11G13833   3.103   0.207   3.748
  129OSM   C12F13834   3.041   0.002   3.754
  129OSM   H12F13835   3.072   6.788   3.700
  129OSM   H12G13836   2.936   0.020   3.723
  129OSM   C13F13837   3.056   6.856   3.905
  129OSM   H13F13838   3.020   0.066   3.963
  129OSM   H13G13839   3.159   6.843   3.945
  129OSM   C14F13840   2.983   6.733   3.953
  129OSM   H14F13841   3.024   6.642   3.906
  129OSM   H14G13842   2.880   6.747   3.914
  129OSM   C15F13843   2.982   6.714   4.103
  129OSM   H15F13844   2.919   6.786   4.159
  129OSM   H15G13845   3.089   6.727   4.132
  129OSM   C16F13846   2.933   6.579   4.142
  129OSM   H16F13847   2.946   6.568   4.252
  129OSM   H16G13848   3.002   6.504   4.099
  129OSM   C17F13849   2.786   6.542   4.107
  129OSM   H17F13850   2.784   6.521   3.998
  129OSM   H17G13851   2.712   6.624   4.120
  129OSM   C18F13852   2.728   6.412   4.181
  129OSM   H18F13853   2.649   6.358   4.124
  129OSM   H18G13854   2.681   6.442   4.276
  129OSM   H18H13855   2.815   6.348   4.207
  130OSM      N13856   3.389   4.417   1.586
  130OSM    C1513857   3.372   4.359   1.452
  130OSM   H15A13858   3.330   4.429   1.382
  130OSM   H15B13859   3.314   4.267   1.450
  130OSM   H15C13860   3.469   4.323   1.423
  130OSM    C1413861   3.437   4.554   1.571
  130OSM   H14A13862   3.536   4.557   1.527
  130OSM   H14B13863   3.434   4.616   1.660
  130OSM   H14C13864   3.370   4.609   1.506
  130OSM    C1313865   3.251   4.438   1.654
  130OSM   H13A13866   3.194   4.511   1.599
  130OSM   H13B13867   3.285   4.467   1.753
  130OSM   H13C13868   3.192   4.349   1.642
  130OSM    C1213869   3.483   4.335   1.673
  130OSM   H12A13870   3.438   4.239   1.694
  130OSM   H12B13871   3.487   4.381   1.771
  130OSM    C1113872   3.632   4.325   1.631
  130OSM   H11A13873   3.636   4.289   1.526
  130OSM   H11B13874   3.691   4.252   1.691
  130OSM      P13875   3.717   4.525   1.792
  130OSM    O1313876   3.858   4.553   1.817
  130OSM    O1413877   3.626   4.635   1.828
  130OSM    O1113878   3.680   4.404   1.892
  130OSM    O1213879   3.690   4.459   1.645
  130OSM    C1S13880   3.758   4.385   2.005
  130OSM    H1S13881   3.786   4.480   2.054
  130OSM    H1T13882   3.853   4.339   1.971
  130OSM     NF13883   3.752   4.327   2.251
  130OSM    HNF13884   3.795   4.245   2.288
  130OSM    C2S13885   3.689   4.300   2.120
  130OSM    H2S13886   3.583   4.331   2.129
  130OSM    C3S13887   3.696   4.150   2.067
  130OSM    H3S13888   3.804   4.129   2.053
  130OSM     O313889   3.643   4.141   1.930
  130OSM    HO313890   3.641   4.232   1.901
  130OSM    C4S13891   3.659   4.050   2.168
  130OSM    H4S13892   3.738   4.028   2.241
  130OSM    C5S13893   3.535   4.008   2.202
  130OSM    H5S13894   3.453   4.055   2.146
  130OSM    C6S13895   3.506   3.931   2.326
  130OSM    H6S13896   3.596   3.878   2.363
  130OSM    H6T13897   3.416   3.867   2.318
  130OSM    C7S13898   3.473   4.026   2.440
  130OSM    H7S13899   3.367   4.051   2.417
  130OSM    H7T13900   3.529   4.121   2.450
  130OSM    C8S13901   3.473   3.964   2.578
  130OSM    H8S13902   3.456   3.855   2.583
  130OSM    H8T13903   3.388   4.009   2.635
  130OSM    C9S13904   3.604   3.999   2.657
  130OSM    H9S13905   3.589   4.105   2.686
  130OSM    H9T13906   3.688   3.990   2.585
  130OSM   C10S13907   3.614   3.918   2.785
  130OSM   H10S13908   3.722   3.905   2.807
  130OSM   H10T13909   3.554   3.825   2.774
  130OSM   C11S13910   3.556   3.997   2.910
  130OSM   H11S13911   3.448   4.016   2.892
  130OSM   H11T13912   3.595   4.101   2.920
  130OSM   C12S13913   3.579   3.923   3.047
  130OSM   H12S13914   3.688   3.902   3.057
  130OSM   H12T13915   3.532   3.823   3.048
  130OSM   C13S13916   3.531   4.010   3.168
  130OSM   H13S13917   3.420   4.016   3.162
  130OSM   H13T13918   3.572   4.112   3.153
  130OSM   C14S13919   3.569   3.934   3.298
  130OSM   H14S13920   3.678   3.923   3.314
  130OSM   H14T13921   3.520   3.834   3.299
  130OSM   C15S13922   3.496   3.986   3.426
  130OSM   H15S13923   3.392   4.007   3.394
  130OSM   H15T13924   3.542   4.083   3.456
  130OSM   C16S13925   3.489   3.885   3.542
  130OSM   H16S13926   3.573   3.813   3.535
  130OSM   H16T13927   3.394   3.828   3.541
  130OSM   C17S13928   3.505   3.937   3.682
  130OSM   H17S13929   3.433   4.021   3.695
  130OSM   H17T13930   3.607   3.978   3.697
  130OSM   C18S13931   3.476   3.827   3.783
  130OSM   H18S13932   3.512   3.850   3.885
  130OSM   H18T13933   3.514   3.725   3.758
  130OSM   H18U13934   3.366   3.813   3.784
  130OSM    C1F13935   3.744   4.439   2.319
  130OSM     OF13936   3.673   4.534   2.285
  130OSM    C2F13937   3.839   4.441   2.439
  130OSM    H2F13938   3.941   4.469   2.406
  130OSM    H2G13939   3.844   4.340   2.485
  130OSM    C3F13940   3.787   4.530   2.565
  130OSM    H3F13941   3.702   4.471   2.604
  130OSM    H3G13942   3.757   4.632   2.534
  130OSM    C4F13943   3.893   4.525   2.674
  130OSM    H4F13944   3.873   4.611   2.741
  130OSM    H4G13945   3.993   4.538   2.626
  130OSM    C5F13946   3.899   4.401   2.762
  130OSM    H5F13947   3.987   4.409   2.830
  130OSM    H5G13948   3.888   4.311   2.697
  130OSM    C6F13949   3.789   4.393   2.864
  130OSM    H6F13950   3.689   4.393   2.817
  130OSM    H6G13951   3.790   4.485   2.927
  130OSM    C7F13952   3.794   4.271   2.959
  130OSM    H7F13953   3.797   4.180   2.896
  130OSM    H7G13954   3.700   4.275   3.019
  130OSM    C8F13955   3.910   4.267   3.070
  130OSM    H8F13956   4.014   4.270   3.031
  130OSM    H8G13957   3.902   4.174   3.131
  130OSM    C9F13958   3.905   4.383   3.159
  130OSM    H9F13959   3.938   4.477   3.111
  130OSM   C10F13960   3.887   4.384   3.294
  130OSM   H10F13961   3.867   4.482   3.340
  130OSM   C11F13962   3.850   4.268   3.383
  130OSM   H11F13963   3.931   4.250   3.458
  130OSM   H11G13964   3.850   4.174   3.324
  130OSM   C12F13965   3.715   4.278   3.455
  130OSM   H12F13966   3.704   4.179   3.503
  130OSM   H12G13967   3.634   4.290   3.381
  130OSM   C13F13968   3.707   4.373   3.577
  130OSM   H13F13969   3.697   4.480   3.549
  130OSM   H13G13970   3.804   4.365   3.631
  130OSM   C14F13971   3.587   4.334   3.673
  130OSM   H14F13972   3.595   4.228   3.706
  130OSM   H14G13973   3.490   4.360   3.626
  130OSM   C15F13974   3.601   4.401   3.807
  130OSM   H15F13975   3.585   4.510   3.795
  130OSM   H15G13976   3.704   4.392   3.845
  130OSM   C16F13977   3.496   4.348   3.906
  130OSM   H16F13978   3.532   4.255   3.955
  130OSM   H16G13979   3.398   4.333   3.855
  130OSM   C17F13980   3.481   4.451   4.020
  130OSM   H17F13981   3.416   4.404   4.096
  130OSM   H17G13982   3.430   4.543   3.984
  130OSM   C18F13983   3.606   4.503   4.099
  130OSM   H18F13984   3.681   4.564   4.044
  130OSM   H18G13985   3.664   4.423   4.150
  130OSM   H18H13986   3.559   4.564   4.179
  131OSM      N13987   0.783   0.503   1.996
  131OSM    C1513988   0.846   0.385   1.924
  131OSM   H15A13989   0.820   0.288   1.963
  131OSM   H15B13990   0.953   0.399   1.922
  131OSM   H15C13991   0.809   0.388   1.822
  131OSM    C1413992   0.831   0.620   1.920
  131OSM   H14A13993   0.935   0.643   1.936
  131OSM   H14B13994   0.783   0.707   1.963
  131OSM   H14C13995   0.821   0.615   1.813
  131OSM    C1313996   0.634   0.493   1.981
  131OSM   H13A13997   0.609   0.486   1.876
  131OSM   H13B13998   0.579   0.575   2.026
  131OSM   H13C13999   0.594   0.401   2.022
  131OSM    C1214000   0.818   0.509   2.147
  131OSM   H12A14001   0.762   0.434   2.200
  131OSM   H12B14002   0.769   0.601   2.176
  131OSM    C1114003   0.965   0.517   2.182
  131OSM   H11A14004   1.013   0.424   2.146
  131OSM   H11B14005   0.982   0.527   2.292
  131OSM      P14006   1.183   0.633   2.093
  131OSM    O1314007   1.201   0.543   1.978
  131OSM    O1414008   1.230   0.773   2.068
  131OSM    O1114009   1.252   0.576   2.227
  131OSM    O1214010   1.028   0.636   2.127
  131OSM    C1S14011   1.277   0.654   2.335
  131OSM    H1S14012   1.224   0.752   2.337
  131OSM    H1T14013   1.386   0.674   2.346
  131OSM     NF14014   1.233   0.662   2.570
  131OSM    HNF14015   1.314   0.680   2.625
  131OSM    C2S14016   1.240   0.573   2.458
  131OSM    H2S14017   1.137   0.532   2.450
  131OSM    C3S14018   1.339   0.459   2.477
  131OSM    H3S14019   1.437   0.503   2.502
  131OSM     O314020   1.355   0.388   2.358
  131OSM    HO314021   1.318   0.451   2.297
  131OSM    C4S14022   1.280   0.371   2.585
  131OSM    H4S14023   1.335   0.369   2.680
  131OSM    C5S14024   1.171   0.289   2.573
  131OSM    H5S14025   1.118   0.289   2.476
  131OSM    C6S14026   1.106   0.205   2.679
  131OSM    H6S14027   1.106   0.098   2.647
  131OSM    H6T14028   1.004   0.244   2.695
  131OSM    C7S14029   1.173   0.226   2.820
  131OSM    H7S14030   1.182   0.337   2.819
  131OSM    H7T14031   1.275   0.181   2.819
  131OSM    C8S14032   1.095   0.168   2.935
  131OSM    H8S14033   1.093   0.058   2.919
  131OSM    H8T14034   0.996   0.217   2.925
  131OSM    C9S14035   1.161   0.185   3.080
  131OSM    H9S14036   1.206   0.287   3.085
  131OSM    H9T14037   1.250   0.119   3.090
  131OSM   C10S14038   1.065   0.171   3.201
  131OSM   H10S14039   1.028   0.067   3.189
  131OSM   H10T14040   0.974   0.234   3.194
  131OSM   C11S14041   1.121   0.194   3.337
  131OSM   H11S14042   1.140   0.303   3.343
  131OSM   H11T14043   1.208   0.125   3.343
  131OSM   C12S14044   1.019   0.156   3.449
  131OSM   H12S14045   1.012   0.045   3.452
  131OSM   H12T14046   0.919   0.197   3.426
  131OSM   C13S14047   1.063   0.206   3.587
  131OSM   H13S14048   1.065   0.316   3.581
  131OSM   H13T14049   1.164   0.167   3.612
  131OSM   C14S14050   0.955   0.173   3.690
  131OSM   H14S14051   0.945   0.063   3.706
  131OSM   H14T14052   0.857   0.220   3.668
  131OSM   C15S14053   0.997   0.228   3.823
  131OSM   H15S14054   0.991   0.339   3.813
  131OSM   H15T14055   1.101   0.194   3.838
  131OSM   C16S14056   0.899   0.186   3.934
  131OSM   H16S14057   0.920   0.079   3.957
  131OSM   H16T14058   0.794   0.215   3.910
  131OSM   C17S14059   0.937   0.269   4.064
  131OSM   H17S14060   0.927   0.377   4.040
  131OSM   H17T14061   1.034   0.232   4.102
  131OSM   C18S14062   0.835   0.234   4.173
  131OSM   H18S14063   0.830   0.130   4.211
  131OSM   H18T14064   0.734   0.262   4.135
  131OSM   H18U14065   0.859   0.295   4.262
  131OSM    C1F14066   1.134   0.750   2.566
  131OSM     OF14067   1.041   0.746   2.486
  131OSM    C2F14068   1.146   0.860   2.680
  131OSM    H2F14069   1.252   0.889   2.664
  131OSM    H2G14070   1.139   0.809   2.778
  131OSM    C3F14071   1.053   0.987   2.660
  131OSM    H3F14072   0.952   0.964   2.619
  131OSM    H3G14073   1.105   1.046   2.581
  131OSM    C4F14074   1.047   1.076   2.785
  131OSM    H4F14075   0.993   1.169   2.758
  131OSM    H4G14076   1.150   1.105   2.812
  131OSM    C5F14077   0.987   1.006   2.911
  131OSM    H5F14078   1.043   0.911   2.922
  131OSM    H5G14079   0.886   0.962   2.894
  131OSM    C6F14080   1.008   1.098   3.031
  131OSM    H6F14081   0.960   1.198   3.029
  131OSM    H6G14082   1.118   1.112   3.039
  131OSM    C7F14083   0.934   1.025   3.148
  131OSM    H7F14084   0.978   0.923   3.156
  131OSM    H7G14085   0.824   1.018   3.139
  131OSM    C8F14086   0.963   1.097   3.286
  131OSM    H8F14087   1.073   1.109   3.298
  131OSM    H8G14088   0.938   1.021   3.364
  131OSM    C9F14089   0.892   1.223   3.318
  131OSM    H9F14090   0.862   1.286   3.233
  131OSM   C10F14091   0.871   1.270   3.445
  131OSM   H10F14092   0.813   1.360   3.470
  131OSM   C11F14093   0.912   1.200   3.574
  131OSM   H11F14094   0.967   1.276   3.634
  131OSM   H11G14095   0.987   1.122   3.550
  131OSM   C12F14096   0.783   1.161   3.653
  131OSM   H12F14097   0.730   1.078   3.602
  131OSM   H12G14098   0.709   1.244   3.657
  131OSM   C13F14099   0.815   1.118   3.797
  131OSM   H13F14100   0.871   1.199   3.849
  131OSM   H13G14101   0.890   1.037   3.783
  131OSM   C14F14102   0.692   1.089   3.891
  131OSM   H14F14103   0.665   0.982   3.881
  131OSM   H14G14104   0.599   1.147   3.870
  131OSM   C15F14105   0.733   1.094   4.041
  131OSM   H15F14106   0.766   1.198   4.065
  131OSM   H15G14107   0.818   1.022   4.045
  131OSM   C16F14108   0.620   1.060   4.137
  131OSM   H16F14109   0.547   1.143   4.127
  131OSM   H16G14110   0.639   1.068   4.246
  131OSM   C17F14111   0.534   0.933   4.104
  131OSM   H17F14112   0.593   0.838   4.105
  131OSM   H17G14113   0.489   0.937   4.003
  131OSM   C18F14114   0.419   0.932   4.203
  131OSM   H18F14115   0.461   0.915   4.304
  131OSM   H18G14116   0.352   0.847   4.182
  131OSM   H18H14117   0.357   1.024   4.213
  132OSM      N14118   6.010   0.189   2.035
  132OSM    C1514119   5.958   0.324   1.992
  132OSM   H15A14120   5.851   0.323   2.006
  132OSM   H15B14121   5.975   0.336   1.886
  132OSM   H15C14122   6.000   0.407   2.046
  132OSM    C1414123   5.944   0.087   1.941
  132OSM   H14A14124   5.989   6.868   1.954
  132OSM   H14B14125   5.959   0.121   1.840
  132OSM   H14C14126   5.839   0.098   1.966
  132OSM    C1314127   6.155   0.198   1.995
  132OSM   H13A14128   6.170   0.242   1.897
  132OSM   H13B14129   6.196   0.099   2.002
  132OSM   H13C14130   6.208   0.252   2.072
  132OSM    C1214131   5.986   0.167   2.181
  132OSM   H12A14132   5.998   0.061   2.197
  132OSM   H12B14133   5.885   0.196   2.206
  132OSM    C1114134   6.081   0.245   2.279
  132OSM   H11A14135   6.041   0.267   2.380
  132OSM   H11B14136   6.070   0.348   2.239
  132OSM      P14137   6.263   0.092   2.355
  132OSM    O1314138   6.219   6.843   2.286
  132OSM    O1414139   6.406   0.110   2.384
  132OSM    O1114140   6.189   0.109   2.496
  132OSM    O1214141   6.221   0.217   2.271
  132OSM    C1S14142   6.205   0.001   2.595
  132OSM    H1S14143   6.301   6.824   2.582
  132OSM    H1T14144   6.128   6.799   2.592
  132OSM     NF14145   6.245   6.821   2.820
  132OSM    HNF14146   6.171   6.760   2.846
  132OSM    C2S14147   6.208   0.055   2.739
  132OSM    H2S14148   6.287   0.131   2.755
  132OSM    C3S14149   6.071   0.114   2.775
  132OSM    H3S14150   5.997   0.031   2.768
  132OSM     O314151   6.018   0.210   2.684
  132OSM    HO314152   6.083   0.204   2.614
  132OSM    C4S14153   6.067   0.164   2.914
  132OSM    H4S14154   6.054   0.085   2.990
  132OSM    C5S14155   6.093   0.294   2.949
  132OSM    H5S14156   6.126   0.375   2.883
  132OSM    C6S14157   6.101   0.331   3.097
  132OSM    H6S14158   6.073   0.242   3.158
  132OSM    H6T14159   6.025   0.409   3.115
  132OSM    C7S14160   6.241   0.364   3.146
  132OSM    H7S14161   6.274   0.461   3.104
  132OSM    H7T14162   6.311   0.278   3.132
  132OSM    C8S14163   6.233   0.383   3.290
  132OSM    H8S14164   6.138   0.418   3.337
  132OSM    H8T14165   6.304   0.464   3.316
  132OSM    C9S14166   6.265   0.254   3.365
  132OSM    H9S14167   6.371   0.229   3.342
  132OSM    H9T14168   6.204   0.168   3.331
  132OSM   C10S14169   6.249   0.270   3.518
  132OSM   H10S14170   6.144   0.296   3.545
  132OSM   H10T14171   6.303   0.361   3.551
  132OSM   C11S14172   6.285   0.140   3.598
  132OSM   H11S14173   6.393   0.115   3.597
  132OSM   H11T14174   6.233   0.051   3.557
  132OSM   C12S14175   6.258   0.158   3.754
  132OSM   H12S14176   6.160   0.205   3.779
  132OSM   H12T14177   6.339   0.222   3.794
  132OSM   C13S14178   6.266   0.019   3.819
  132OSM   H13S14179   6.369   6.859   3.805
  132OSM   H13T14180   6.193   6.827   3.773
  132OSM   C14S14181   6.232   0.023   3.974
  132OSM   H14S14182   6.121   0.031   3.977
  132OSM   H14T14183   6.269   0.112   4.029
  132OSM   C15S14184   6.264   6.775   4.054
  132OSM   H15S14185   6.198   6.692   4.022
  132OSM   H15T14186   6.222   6.789   4.156
  132OSM   C16S14187   6.418   6.740   4.062
  132OSM   H16S14188   6.467   6.816   4.127
  132OSM   H16T14189   6.464   6.759   3.963
  132OSM   C17S14190   6.458   6.601   4.102
  132OSM   H17S14191   6.414   6.528   4.030
  132OSM   H17T14192   6.395   6.582   4.191
  132OSM   C18S14193   6.607   6.592   4.133
  132OSM   H18S14194   6.657   6.639   4.046
  132OSM   H18T14195   6.647   6.490   4.149
  132OSM   H18U14196   6.628   6.642   4.230
  132OSM    C1F14197   6.374   6.786   2.818
  132OSM     OF14198   6.464   6.864   2.782
  132OSM    C2F14199   6.396   6.659   2.877
  132OSM    H2F14200   6.296   6.612   2.895
  132OSM    H2G14201   6.426   6.665   2.984
  132OSM    C3F14202   6.485   6.565   2.795
  132OSM    H3F14203   6.580   6.618   2.773
  132OSM    H3G14204   6.441   6.542   2.696
  132OSM    C4F14205   6.510   6.422   2.861
  132OSM    H4F14206   6.552   6.344   2.794
  132OSM    H4G14207   6.409   6.380   2.879
  132OSM    C5F14208   6.568   6.410   2.997
  132OSM    H5F14209   6.496   6.451   3.071
  132OSM    H5G14210   6.669   6.454   3.015
  132OSM    C6F14211   6.577   6.262   3.041
  132OSM    H6F14212   6.656   6.221   2.974
  132OSM    H6G14213   6.476   6.222   3.017
  132OSM    C7F14214   6.613   6.245   3.188
  132OSM    H7F14215   6.548   6.303   3.257
  132OSM    H7G14216   6.713   6.286   3.216
  132OSM    C8F14217   6.611   6.097   3.209
  132OSM    H8F14218   6.675   6.047   3.133
  132OSM    H8G14219   6.506   6.062   3.200
  132OSM    C9F14220   6.655   6.058   3.354
  132OSM    H9F14221   6.591   6.090   3.437
  132OSM   C10F14222   6.764   5.976   3.373
  132OSM   H10F14223   6.791   5.945   3.474
  132OSM   C11F14224   6.853   5.912   3.273
  132OSM   H11F14225   6.786   5.875   3.192
  132OSM   H11G14226   0.016   5.814   3.308
  132OSM   C12F14227   0.091   5.982   3.208
  132OSM   H12F14228   0.120   5.906   3.132
  132OSM   H12G14229   0.179   5.998   3.274
  132OSM   C13F14230   0.064   6.112   3.128
  132OSM   H13F14231   0.033   6.188   3.203
  132OSM   H13G14232   6.860   6.098   3.053
  132OSM   C14F14233   0.181   6.178   3.049
  132OSM   H14F14234   0.221   6.107   2.974
  132OSM   H14G14235   0.265   6.198   3.118
  132OSM   C15F14236   0.141   6.313   2.992
  132OSM   H15F14237   0.099   6.378   3.073
  132OSM   H15G14238   0.061   6.283   2.921
  132OSM   C16F14239   0.256   6.393   2.925
  132OSM   H16F14240   0.216   6.479   2.868
  132OSM   H16G14241   0.309   6.332   2.848
  132OSM   C17F14242   0.362   6.462   3.026
  132OSM   H17F14243   0.384   6.391   3.109
  132OSM   H17G14244   0.296   6.538   3.072
  132OSM   C18F14245   0.483   6.518   2.965
  132OSM   H18F14246   0.449   6.589   2.886
  132OSM   H18G14247   0.533   6.440   2.904
  132OSM   H18H14248   0.561   6.562   3.031
  133OSM      N14249   5.275   3.030   1.657
  133OSM    C1514250   5.400   2.957   1.607
  133OSM   H15A14251   5.490   3.007   1.642
  133OSM   H15B14252   5.392   2.945   1.500
  133OSM   H15C14253   5.411   2.861   1.654
  133OSM    C1414254   5.286   3.175   1.624
  133OSM   H14A14255   5.191   3.227   1.628
  133OSM   H14B14256   5.325   3.177   1.523
  133OSM   H14C14257   5.359   3.232   1.679
  133OSM    C1314258   5.154   2.970   1.589
  133OSM   H13A14259   5.066   3.012   1.634
  133OSM   H13B14260   5.149   2.864   1.610
  133OSM   H13C14261   5.155   2.977   1.481
  133OSM    C1214262   5.264   3.012   1.808
  133OSM   H12A14263   5.353   3.052   1.854
  133OSM   H12B14264   5.253   2.910   1.840
  133OSM    C1114265   5.147   3.088   1.870
  133OSM   H11A14266   5.123   3.186   1.822
  133OSM   H11B14267   5.171   3.111   1.976
  133OSM      P14268   5.009   2.880   1.959
  133OSM    O1314269   4.866   2.830   1.955
  133OSM    O1414270   5.118   2.787   1.930
  133OSM    O1114271   5.027   2.947   2.106
  133OSM    O1214272   5.026   3.009   1.866
  133OSM    C1S14273   4.958   2.925   2.226
  133OSM    H1S14274   5.013   2.842   2.275
  133OSM    H1T14275   4.858   2.885   2.201
  133OSM     NF14276   4.927   3.010   2.449
  133OSM    HNF14277   4.832   3.022   2.478
  133OSM    C2S14278   4.956   3.050   2.315
  133OSM    H2S14279   5.056   3.098   2.316
  133OSM    C3S14280   4.876   3.165   2.253
  133OSM    H3S14281   4.766   3.150   2.255
  133OSM     O314282   4.899   3.177   2.112
  133OSM    HO314283   4.932   3.090   2.090
  133OSM    C4S14284   4.896   3.300   2.323
  133OSM    H4S14285   4.996   3.345   2.332
  133OSM    C5S14286   4.791   3.361   2.380
  133OSM    H5S14287   4.697   3.308   2.355
  133OSM    C6S14288   4.778   3.481   2.466
  133OSM    H6S14289   4.673   3.517   2.476
  133OSM    H6T14290   4.839   3.554   2.409
  133OSM    C7S14291   4.847   3.457   2.606
  133OSM    H7S14292   4.857   3.554   2.658
  133OSM    H7T14293   4.950   3.437   2.569
  133OSM    C8S14294   4.779   3.354   2.701
  133OSM    H8S14295   4.778   3.260   2.642
  133OSM    H8T14296   4.675   3.390   2.719
  133OSM    C9S14297   4.855   3.336   2.834
  133OSM    H9S14298   4.861   3.437   2.879
  133OSM    H9T14299   4.953   3.296   2.799
  133OSM   C10S14300   4.787   3.234   2.935
  133OSM   H10S14301   4.778   3.138   2.881
  133OSM   H10T14302   4.686   3.272   2.959
  133OSM   C11S14303   4.870   3.244   3.068
  133OSM   H11S14304   4.876   3.350   3.102
  133OSM   H11T14305   4.975   3.210   3.061
  133OSM   C12S14306   4.809   3.165   3.187
  133OSM   H12S14307   4.798   3.059   3.155
  133OSM   H12T14308   4.700   3.182   3.196
  133OSM   C13S14309   4.883   3.169   3.322
  133OSM   H13S14310   4.892   3.278   3.342
  133OSM   H13T14311   4.984   3.125   3.312
  133OSM   C14S14312   4.816   3.106   3.438
  133OSM   H14S14313   4.816   2.996   3.424
  133OSM   H14T14314   4.711   3.143   3.441
  133OSM   C15S14315   4.864   3.153   3.571
  133OSM   H15S14316   4.830   3.257   3.586
  133OSM   H15T14317   4.974   3.165   3.562
  133OSM   C16S14318   4.828   3.074   3.699
  133OSM   H16S14319   4.890   2.983   3.711
  133OSM   H16T14320   4.722   3.044   3.689
  133OSM   C17S14321   4.865   3.154   3.826
  133OSM   H17S14322   4.811   3.251   3.824
  133OSM   H17T14323   4.974   3.173   3.831
  133OSM   C18S14324   4.836   3.079   3.957
  133OSM   H18S14325   4.875   2.975   3.953
  133OSM   H18T14326   4.725   3.085   3.971
  133OSM   H18U14327   4.886   3.130   4.042
  133OSM    C1F14328   4.995   2.939   2.535
  133OSM     OF14329   5.103   2.897   2.511
  133OSM    C2F14330   4.916   2.912   2.666
  133OSM    H2F14331   4.841   2.831   2.651
  133OSM    H2G14332   4.864   3.007   2.692
  133OSM    C3F14333   5.009   2.874   2.785
  133OSM    H3F14334   5.074   2.956   2.821
  133OSM    H3G14335   5.074   2.788   2.759
  133OSM    C4F14336   4.924   2.823   2.906
  133OSM    H4F14337   4.861   2.733   2.884
  133OSM    H4G14338   4.845   2.899   2.927
  133OSM    C5F14339   5.006   2.784   3.032
  133OSM    H5F14340   5.052   2.881   3.060
  133OSM    H5G14341   5.078   2.704   3.005
  133OSM    C6F14342   4.932   2.723   3.148
  133OSM    H6F14343   4.926   2.613   3.137
  133OSM    H6G14344   4.832   2.768   3.163
  133OSM    C7F14345   5.002   2.743   3.281
  133OSM    H7F14346   5.008   2.853   3.298
  133OSM    H7G14347   5.107   2.706   3.276
  133OSM    C8F14348   4.932   2.679   3.398
  133OSM    H8F14349   4.830   2.716   3.375
  133OSM    H8G14350   4.979   2.733   3.483
  133OSM    C9F14351   4.930   2.529   3.399
  133OSM    H9F14352   4.888   2.479   3.311
  133OSM   C10F14353   4.974   2.452   3.498
  133OSM   H10F14354   4.980   2.343   3.486
  133OSM   C11F14355   5.050   2.507   3.620
  133OSM   H11F14356   5.103   2.599   3.586
  133OSM   H11G14357   5.130   2.437   3.650
  133OSM   C12F14358   4.968   2.547   3.747
  133OSM   H12F14359   4.941   2.450   3.795
  133OSM   H12G14360   4.875   2.605   3.734
  133OSM   C13F14361   5.061   2.606   3.857
  133OSM   H13F14362   5.091   2.709   3.831
  133OSM   H13G14363   5.148   2.538   3.874
  133OSM   C14F14364   4.994   2.608   3.994
  133OSM   H14F14365   4.991   2.506   4.039
  133OSM   H14G14366   4.883   2.621   3.991
  133OSM   C15F14367   5.066   2.709   4.081
  133OSM   H15F14368   5.029   2.810   4.051
  133OSM   H15G14369   5.174   2.684   4.073
  133OSM   C16F14370   5.022   2.698   4.228
  133OSM   H16F14371   5.072   2.608   4.270
  133OSM   H16G14372   4.914   2.673   4.229
  133OSM   C17F14373   5.039   2.815   4.328
  133OSM   H17F14374   5.137   2.863   4.309
  133OSM   H17G14375   5.035   2.779   4.433
  133OSM   C18F14376   4.919   2.917   4.309
  133OSM   H18F14377   4.872   2.945   4.406
  133OSM   H18G14378   4.846   2.891   4.229
  133OSM   H18H14379   4.966   3.014   4.285
  134OSM      N14380   5.479   5.461   2.024
  134OSM    C1514381   5.417   5.398   1.905
  134OSM   H15A14382   5.338   5.460   1.865
  134OSM   H15B14383   5.381   5.296   1.910
  134OSM   H15C14384   5.495   5.389   1.830
  134OSM    C1414385   5.587   5.367   2.069
  134OSM   H14A14386   5.646   5.415   2.145
  134OSM   H14B14387   5.655   5.341   1.989
  134OSM   H14C14388   5.551   5.273   2.108
  134OSM    C1314389   5.534   5.593   1.984
  134OSM   H13A14390   5.441   5.646   1.965
  134OSM   H13B14391   5.587   5.594   1.890
  134OSM   H13C14392   5.597   5.639   2.059
  134OSM    C1214393   5.364   5.483   2.124
  134OSM   H12A14394   5.310   5.390   2.139
  134OSM   H12B14395   5.295   5.558   2.090
  134OSM    C1114396   5.406   5.525   2.265
  134OSM   H11A14397   5.478   5.448   2.300
  134OSM   H11B14398   5.319   5.515   2.332
  134OSM      P14399   5.401   5.784   2.279
  134OSM    O1314400   5.459   5.876   2.181
  134OSM    O1414401   5.255   5.758   2.259
  134OSM    O1114402   5.421   5.844   2.424
  134OSM    O1214403   5.478   5.647   2.272
  134OSM    C1S14404   5.327   5.810   2.529
  134OSM    H1S14405   5.220   5.817   2.500
  134OSM    H1T14406   5.331   5.897   2.597
  134OSM     NF14407   5.269   5.653   2.712
  134OSM    HNF14408   5.297   5.685   2.802
  134OSM    C2S14409   5.367   5.684   2.610
  134OSM    H2S14410   5.367   5.600   2.538
  134OSM    C3S14411   5.514   5.695   2.665
  134OSM    H3S14412   5.528   5.777   2.740
  134OSM     O314413   5.606   5.729   2.561
  134OSM    HO314414   5.546   5.770   2.498
  134OSM    C4S14415   5.547   5.569   2.741
  134OSM    H4S14416   5.500   5.571   2.840
  134OSM    C5S14417   5.611   5.462   2.705
  134OSM    H5S14418   5.667   5.456   2.610
  134OSM    C6S14419   5.661   5.352   2.808
  134OSM    H6S14420   5.772   5.350   2.816
  134OSM    H6T14421   5.627   5.250   2.780
  134OSM    C7S14422   5.611   5.368   2.957
  134OSM    H7S14423   5.505   5.336   2.950
  134OSM    H7T14424   5.604   5.473   2.991
  134OSM    C8S14425   5.662   5.267   3.068
  134OSM    H8S14426   5.696   5.170   3.026
  134OSM    H8T14427   5.570   5.239   3.124
  134OSM    C9S14428   5.777   5.316   3.155
  134OSM    H9S14429   5.870   5.326   3.096
  134OSM    H9T14430   5.789   5.239   3.234
  134OSM   C10S14431   5.743   5.451   3.230
  134OSM   H10S14432   5.637   5.444   3.265
  134OSM   H10T14433   5.741   5.535   3.157
  134OSM   C11S14434   5.841   5.481   3.345
  134OSM   H11S14435   5.815   5.583   3.382
  134OSM   H11T14436   5.946   5.494   3.309
  134OSM   C12S14437   5.836   5.372   3.456
  134OSM   H12S14438   5.905   5.295   3.415
  134OSM   H12T14439   5.735   5.327   3.451
  134OSM   C13S14440   5.861   5.434   3.594
  134OSM   H13S14441   5.791   5.520   3.604
  134OSM   H13T14442   5.957   5.489   3.582
  134OSM   C14S14443   5.859   5.333   3.714
  134OSM   H14S14444   5.923   5.248   3.682
  134OSM   H14T14445   5.753   5.306   3.735
  134OSM   C15S14446   5.914   5.407   3.841
  134OSM   H15S14447   5.864   5.505   3.859
  134OSM   H15T14448   6.020   5.430   3.817
  134OSM   C16S14449   5.905   5.318   3.968
  134OSM   H16S14450   5.944   5.216   3.946
  134OSM   H16T14451   5.804   5.294   4.007
  134OSM   C17S14452   6.002   5.367   4.081
  134OSM   H17S14453   6.101   5.383   4.034
  134OSM   H17T14454   6.018   5.278   4.146
  134OSM   C18S14455   5.967   5.491   4.154
  134OSM   H18S14456   5.876   5.489   4.217
  134OSM   H18T14457   5.945   5.571   4.080
  134OSM   H18U14458   6.045   5.514   4.230
  134OSM    C1F14459   5.142   5.616   2.691
  134OSM     OF14460   5.105   5.576   2.580
  134OSM    C2F14461   5.051   5.633   2.807
  134OSM    H2F14462   5.082   5.726   2.860
  134OSM    H2G14463   5.067   5.545   2.874
  134OSM    C3F14464   4.900   5.635   2.774
  134OSM    H3F14465   4.877   5.556   2.700
  134OSM    H3G14466   4.886   5.733   2.722
  134OSM    C4F14467   4.808   5.614   2.888
  134OSM    H4F14468   4.820   5.515   2.937
  134OSM    H4G14469   4.701   5.617   2.858
  134OSM    C5F14470   4.828   5.717   3.010
  134OSM    H5F14471   4.778   5.811   2.979
  134OSM    H5G14472   4.937   5.737   3.019
  134OSM    C6F14473   4.784   5.682   3.148
  134OSM    H6F14474   4.839   5.592   3.183
  134OSM    H6G14475   4.676   5.661   3.152
  134OSM    C7F14476   4.808   5.801   3.246
  134OSM    H7F14477   4.737   5.882   3.216
  134OSM    H7G14478   4.911   5.841   3.247
  134OSM    C8F14479   4.775   5.749   3.384
  134OSM    H8F14480   4.863   5.684   3.404
  134OSM    H8G14481   4.686   5.683   3.383
  134OSM    C9F14482   4.750   5.853   3.488
  134OSM    H9F14483   4.663   5.920   3.472
  134OSM   C10F14484   4.817   5.866   3.606
  134OSM   H10F14485   4.796   5.940   3.685
  134OSM   C11F14486   4.939   5.784   3.644
  134OSM   H11F14487   5.034   5.835   3.619
  134OSM   H11G14488   4.948   5.691   3.584
  134OSM   C12F14489   4.961   5.758   3.795
  134OSM   H12F14490   4.974   5.850   3.855
  134OSM   H12G14491   5.046   5.690   3.820
  134OSM   C13F14492   4.839   5.680   3.855
  134OSM   H13F14493   4.824   5.586   3.798
  134OSM   H13G14494   4.751   5.742   3.828
  134OSM   C14F14495   4.852   5.645   4.006
  134OSM   H14F14496   4.756   5.596   4.032
  134OSM   H14G14497   4.862   5.738   4.067
  134OSM   C15F14498   4.971   5.550   4.024
  134OSM   H15F14499   5.052   5.625   4.034
  134OSM   H15G14500   4.978   5.492   3.930
  134OSM   C16F14501   4.967   5.466   4.147
  134OSM   H16F14502   5.060   5.406   4.139
  134OSM   H16G14503   4.884   5.391   4.142
  134OSM   C17F14504   4.953   5.546   4.282
  134OSM   H17F14505   4.983   5.475   4.361
  134OSM   H17G14506   4.849   5.583   4.291
  134OSM   C18F14507   5.041   5.670   4.287
  134OSM   H18F14508   5.005   5.759   4.231
  134OSM   H18G14509   5.141   5.644   4.247
  134OSM   H18H14510   5.049   5.712   4.390
  135OSM      N14511   0.190   0.766   1.892
  135OSM    C1514512   0.126   0.634   1.866
  135OSM   H15A14513   0.163   0.562   1.937
  135OSM   H15B14514   0.137   0.592   1.768
  135OSM   H15C14515   0.019   0.641   1.883
  135OSM    C1414516   0.332   0.758   1.855
  135OSM   H14A14517   0.342   0.720   1.754
  135OSM   H14B14518   0.393   0.710   1.931
  135OSM   H14C14519   0.385   0.850   1.874
  135OSM    C1314520   0.139   0.862   1.791
  135OSM   H13A14521   0.173   0.963   1.809
  135OSM   H13B14522   0.031   0.860   1.792
  135OSM   H13C14523   0.176   0.837   1.693
  135OSM    C1214524   0.176   0.806   2.037
  135OSM   H12A14525   0.206   0.909   2.045
  135OSM   H12B14526   0.240   0.742   2.097
  135OSM    C1114527   0.036   0.791   2.104
  135OSM   H11A14528   0.049   0.835   2.205
  135OSM   H11B14529   6.873   0.689   2.120
  135OSM      P14530   6.782   1.009   2.041
  135OSM    O1314531   6.822   1.093   1.925
  135OSM    O1414532   6.634   1.009   2.072
  135OSM    O1114533   6.875   1.050   2.166
  135OSM    O1214534   6.818   0.861   2.027
  135OSM    C1S14535   6.817   1.100   2.286
  135OSM    H1S14536   6.762   1.021   2.340
  135OSM    H1T14537   6.744   1.180   2.261
  135OSM     NF14538   6.856   1.141   2.535
  135OSM    HNF14539   6.820   1.226   2.573
  135OSM    C2S14540   0.040   1.149   2.403
  135OSM    H2S14541   0.129   1.082   2.395
  135OSM    C3S14542   0.087   1.298   2.376
  135OSM    H3S14543   0.003   1.370   2.386
  135OSM     O314544   0.135   1.320   2.247
  135OSM    HO314545   0.099   1.245   2.198
  135OSM    C4S14546   0.193   1.342   2.474
  135OSM    H4S14547   0.264   1.260   2.489
  135OSM    C5S14548   0.180   1.453   2.550
  135OSM    H5S14549   0.077   1.492   2.542
  135OSM    C6S14550   0.276   1.478   2.658
  135OSM    H6S14551   0.326   1.575   2.636
  135OSM    H6T14552   0.341   1.391   2.682
  135OSM    C7S14553   0.205   1.512   2.782
  135OSM    H7S14554   0.152   1.608   2.764
  135OSM    H7T14555   0.279   1.537   2.861
  135OSM    C8S14556   0.107   1.415   2.850
  135OSM    H8S14557   0.163   1.320   2.859
  135OSM    H8T14558   0.015   1.401   2.789
  135OSM    C9S14559   0.071   1.459   2.993
  135OSM    H9S14560   0.021   1.558   2.990
  135OSM    H9T14561   0.161   1.468   3.056
  135OSM   C10S14562   6.858   1.356   3.069
  135OSM   H10S14563   0.017   1.251   3.075
  135OSM   H10T14564   6.765   1.337   3.012
  135OSM   C11S14565   6.815   1.395   3.218
  135OSM   H11S14566   6.716   1.351   3.242
  135OSM   H11T14567   6.809   1.506   3.223
  135OSM   C12S14568   0.045   1.340   3.325
  135OSM   H12S14569   0.136   1.403   3.320
  135OSM   H12T14570   0.070   1.234   3.307
  135OSM   C13S14571   0.003   1.347   3.469
  135OSM   H13S14572   0.089   1.321   3.534
  135OSM   H13T14573   6.805   1.268   3.488
  135OSM   C14S14574   6.840   1.490   3.511
  135OSM   H14S14575   6.766   1.529   3.438
  135OSM   H14T14576   0.051   1.556   3.499
  135OSM   C15S14577   6.796   1.498   3.659
  135OSM   H15S14578   6.877   1.463   3.727
  135OSM   H15T14579   6.702   1.443   3.682
  135OSM   C16S14580   6.761   1.641   3.710
  135OSM   H16S14581   6.664   1.679   3.671
  135OSM   H16T14582   6.842   1.704   3.668
  135OSM   C17S14583   6.758   1.658   3.862
  135OSM   H17S14584   6.846   1.615   3.914
  135OSM   H17T14585   6.669   1.609   3.909
  135OSM   C18S14586   6.767   1.809   3.892
  135OSM   H18S14587   6.863   1.861   3.873
  135OSM   H18T14588   6.735   1.832   3.996
  135OSM   H18U14589   6.696   1.868   3.831
  135OSM    C1F14590   6.815   1.030   2.591
  135OSM     OF14591   6.821   0.925   2.530
  135OSM    C2F14592   6.751   1.045   2.725
  135OSM    H2F14593   6.675   1.126   2.722
  135OSM    H2G14594   6.830   1.084   2.793
  135OSM    C3F14595   6.681   0.911   2.781
  135OSM    H3F14596   6.757   0.832   2.771
  135OSM    H3G14597   6.599   0.892   2.708
  135OSM    C4F14598   6.627   0.919   2.926
  135OSM    H4F14599   6.560   0.832   2.945
  135OSM    H4G14600   6.570   1.015   2.933
  135OSM    C5F14601   6.734   0.904   3.038
  135OSM    H5F14602   6.828   0.957   3.014
  135OSM    H5G14603   6.768   0.798   3.032
  135OSM    C6F14604   6.688   0.967   3.170
  135OSM    H6F14605   6.595   0.911   3.198
  135OSM    H6G14606   6.672   1.074   3.148
  135OSM    C7F14607   6.793   0.955   3.277
  135OSM    H7F14608   6.816   1.051   3.328
  135OSM    H7G14609   0.011   0.934   3.224
  135OSM    C8F14610   6.778   0.845   3.382
  135OSM    H8F14611   6.874   0.838   3.436
  135OSM    H8G14612   6.759   0.752   3.323
  135OSM    C9F14613   6.660   0.874   3.466
  135OSM    H9F14614   6.562   0.880   3.416
  135OSM   C10F14615   6.667   0.881   3.597
  135OSM   H10F14616   6.581   0.932   3.643
  135OSM   C11F14617   6.790   0.888   3.683
  135OSM   H11F14618   6.803   0.995   3.710
  135OSM   H11G14619   0.011   0.879   3.632
  135OSM   C12F14620   6.773   0.798   3.809
  135OSM   H12F14621   6.782   0.693   3.775
  135OSM   H12G14622   6.670   0.804   3.850
  135OSM   C13F14623   0.004   0.830   3.917
  135OSM   H13F14624   6.849   0.913   3.984
  135OSM   H13G14625   0.100   0.867   3.873
  135OSM   C14F14626   0.041   0.714   4.018
  135OSM   H14F14627   0.110   0.761   4.092
  135OSM   H14G14628   0.089   0.632   3.961
  135OSM   C15F14629   6.797   0.663   4.093
  135OSM   H15F14630   6.723   0.625   4.019
  135OSM   H15G14631   6.747   0.733   4.164
  135OSM   C16F14632   6.827   0.533   4.175
  135OSM   H16F14633   0.003   0.460   4.111
  135OSM   H16G14634   6.730   0.483   4.194
  135OSM   C17F14635   0.021   0.565   4.306
  135OSM   H17F14636   6.819   0.620   4.361
  135OSM   H17G14637   0.107   0.629   4.278
  135OSM   C18F14638   0.062   0.445   4.387
  135OSM   H18F14639   6.848   0.409   4.437
  135OSM   H18G14640   0.127   0.483   4.469
  135OSM   H18H14641   0.122   0.366   4.337
  136OSM      N14642   1.933   4.638   1.517
  136OSM    C1514643   1.928   4.596   1.376
  136OSM   H15A14644   1.870   4.506   1.377
  136OSM   H15B14645   2.029   4.577   1.341
  136OSM   H15C14646   1.885   4.676   1.317
  136OSM    C1414647   1.984   4.773   1.522
  136OSM   H14A14648   1.996   4.808   1.624
  136OSM   H14B14649   1.909   4.838   1.481
  136OSM   H14C14650   2.083   4.784   1.480
  136OSM    C1314651   1.790   4.629   1.574
  136OSM   H13A14652   1.752   4.529   1.558
  136OSM   H13B14653   1.722   4.698   1.526
  136OSM   H13C14654   1.794   4.648   1.680
  136OSM    C1214655   2.028   4.545   1.603
  136OSM   H12A14656   2.130   4.546   1.569
  136OSM   H12B14657   1.997   4.444   1.584
  136OSM    C1114658   2.026   4.561   1.754
  136OSM   H11A14659   2.083   4.474   1.795
  136OSM   H11B14660   1.920   4.555   1.785
  136OSM      P14661   2.238   4.699   1.810
  136OSM    O1314662   2.303   4.594   1.727
  136OSM    O1414663   2.286   4.836   1.799
  136OSM    O1114664   2.249   4.662   1.962
  136OSM    O1214665   2.082   4.686   1.799
  136OSM    C1S14666   2.150   4.703   2.059
  136OSM    H1S14667   2.069   4.627   2.051
  136OSM    H1T14668   2.112   4.806   2.041
  136OSM     NF14669   2.103   4.779   2.284
  136OSM    HNF14670   2.113   4.874   2.313
  136OSM    C2S14671   2.203   4.703   2.207
  136OSM    H2S14672   2.198   4.601   2.252
  136OSM    C3S14673   2.352   4.755   2.222
  136OSM    H3S14674   2.353   4.864   2.204
  136OSM     O314675   2.446   4.697   2.128
  136OSM    HO314676   2.394   4.671   2.052
  136OSM    C4S14677   2.399   4.741   2.367
  136OSM    H4S14678   2.361   4.823   2.430
  136OSM    C5S14679   2.478   4.643   2.415
  136OSM    H5S14680   2.521   4.571   2.344
  136OSM    C6S14681   2.511   4.622   2.560
  136OSM    H6S14682   2.414   4.597   2.610
  136OSM    H6T14683   2.533   4.717   2.613
  136OSM    C7S14684   2.610   4.500   2.584
  136OSM    H7S14685   2.691   4.512   2.508
  136OSM    H7T14686   2.572   4.398   2.562
  136OSM    C8S14687   2.671   4.494   2.720
  136OSM    H8S14688   2.731   4.587   2.731
  136OSM    H8T14689   2.751   4.417   2.711
  136OSM    C9S14690   2.570   4.478   2.833
  136OSM    H9S14691   2.516   4.385   2.806
  136OSM    H9T14692   2.506   4.569   2.835
  136OSM   C10S14693   2.635   4.461   2.969
  136OSM   H10S14694   2.712   4.540   2.986
  136OSM   H10T14695   2.702   4.373   2.960
  136OSM   C11S14696   2.536   4.446   3.086
  136OSM   H11S14697   2.471   4.356   3.085
  136OSM   H11T14698   2.463   4.529   3.092
  136OSM   C12S14699   2.627   4.427   3.206
  136OSM   H12S14700   2.671   4.527   3.227
  136OSM   H12T14701   2.717   4.364   3.187
  136OSM   C13S14702   2.547   4.396   3.325
  136OSM   H13S14703   2.499   4.297   3.310
  136OSM   H13T14704   2.476   4.475   3.356
  136OSM   C14S14705   2.646   4.386   3.450
  136OSM   H14S14706   2.707   4.479   3.452
  136OSM   H14T14707   2.720   4.307   3.427
  136OSM   C15S14708   2.567   4.362   3.579
  136OSM   H15S14709   2.512   4.266   3.569
  136OSM   H15T14710   2.488   4.439   3.595
  136OSM   C16S14711   2.651   4.357   3.705
  136OSM   H16S14712   2.576   4.374   3.785
  136OSM   H16T14713   2.718   4.445   3.716
  136OSM   C17S14714   2.737   4.233   3.723
  136OSM   H17S14715   2.779   4.238   3.826
  136OSM   H17T14716   2.818   4.235   3.647
  136OSM   C18S14717   2.657   4.108   3.713
  136OSM   H18S14718   2.719   4.021   3.742
  136OSM   H18T14719   2.637   4.086   3.606
  136OSM   H18U14720   2.559   4.110   3.767
  136OSM    C1F14721   1.981   4.732   2.304
  136OSM     OF14722   1.954   4.619   2.266
  136OSM    C2F14723   1.880   4.821   2.352
  136OSM    H2F14724   1.807   4.831   2.269
  136OSM    H2G14725   1.931   4.919   2.364
  136OSM    C3F14726   1.800   4.775   2.474
  136OSM    H3F14727   1.756   4.674   2.459
  136OSM    H3G14728   1.724   4.852   2.496
  136OSM    C4F14729   1.885   4.771   2.602
  136OSM    H4F14730   1.814   4.758   2.685
  136OSM    H4G14731   1.931   4.871   2.610
  136OSM    C5F14732   1.980   4.651   2.609
  136OSM    H5F14733   2.068   4.668   2.543
  136OSM    H5G14734   1.938   4.557   2.568
  136OSM    C6F14735   2.024   4.612   2.755
  136OSM    H6F14736   2.092   4.686   2.803
  136OSM    H6G14737   2.092   4.525   2.743
  136OSM    C7F14738   1.905   4.559   2.839
  136OSM    H7F14739   1.872   4.465   2.791
  136OSM    H7G14740   1.821   4.631   2.835
  136OSM    C8F14741   1.954   4.523   2.982
  136OSM    H8F14742   2.047   4.465   2.969
  136OSM    H8G14743   1.884   4.458   3.039
  136OSM    C9F14744   1.985   4.650   3.062
  136OSM    H9F14745   1.997   4.736   2.995
  136OSM   C10F14746   2.021   4.659   3.191
  136OSM   H10F14747   2.039   4.758   3.234
  136OSM   C11F14748   2.019   4.552   3.289
  136OSM   H11F14749   2.004   4.457   3.234
  136OSM   H11G14750   1.929   4.567   3.353
  136OSM   C12F14751   2.138   4.521   3.378
  136OSM   H12F14752   2.225   4.501   3.313
  136OSM   H12G14753   2.129   4.428   3.439
  136OSM   C13F14754   2.172   4.634   3.485
  136OSM   H13F14755   2.186   4.728   3.429
  136OSM   H13G14756   2.262   4.601   3.540
  136OSM   C14F14757   2.063   4.653   3.581
  136OSM   H14F14758   2.031   4.555   3.623
  136OSM   H14G14759   1.969   4.692   3.536
  136OSM   C15F14760   2.115   4.737   3.698
  136OSM   H15F14761   2.186   4.818   3.671
  136OSM   H15G14762   2.177   4.660   3.749
  136OSM   C16F14763   2.006   4.790   3.788
  136OSM   H16F14764   1.920   4.837   3.736
  136OSM   H16G14765   2.051   4.873   3.847
  136OSM   C17F14766   1.936   4.698   3.892
  136OSM   H17F14767   1.869   4.627   3.839
  136OSM   H17G14768   1.876   4.767   3.956
  136OSM   C18F14769   2.034   4.618   3.968
  136OSM   H18F14770   2.088   4.544   3.904
  136OSM   H18G14771   1.988   4.558   4.050
  136OSM   H18H14772   2.106   4.688   4.015
  137OSM      N14773   0.458   1.716   1.900
  137OSM    C1514774   0.481   1.782   2.032
  137OSM   H15A14775   0.468   1.887   2.014
  137OSM   H15B14776   0.578   1.762   2.076
  137OSM   H15C14777   0.410   1.744   2.105
  137OSM    C1414778   0.442   1.565   1.909
  137OSM   H14A14779   0.394   1.544   1.815
  137OSM   H14B14780   0.377   1.539   1.992
  137OSM   H14C14781   0.535   1.512   1.920
  137OSM    C1314782   0.325   1.772   1.848
  137OSM   H13A14783   0.300   1.729   1.753
  137OSM   H13B14784   0.344   1.877   1.832
  137OSM   H13C14785   0.248   1.759   1.922
  137OSM    C1214786   0.557   1.749   1.802
  137OSM   H12A14787   0.557   1.856   1.787
  137OSM   H12B14788   0.544   1.712   1.701
  137OSM    C1114789   0.705   1.718   1.832
  137OSM   H11A14790   0.762   1.715   1.736
  137OSM   H11B14791   0.721   1.615   1.871
  137OSM      P14792   0.833   1.940   1.881
  137OSM    O1314793   0.972   1.915   1.825
  137OSM    O1414794   0.738   2.023   1.795
  137OSM    O1114795   0.854   2.020   2.018
  137OSM    O1214796   0.767   1.802   1.927
  137OSM    C1S14797   0.732   2.037   2.095
  137OSM    H1S14798   0.696   1.936   2.121
  137OSM    H1T14799   0.662   2.101   2.037
  137OSM     NF14800   0.632   2.124   2.303
  137OSM    HNF14801   0.587   2.213   2.306
  137OSM    C2S14802   0.754   2.116   2.224
  137OSM    H2S14803   0.831   2.051   2.270
  137OSM    C3S14804   0.821   2.260   2.189
  137OSM    H3S14805   0.752   2.321   2.126
  137OSM     O314806   0.933   2.256   2.102
  137OSM    HO314807   0.926   2.163   2.078
  137OSM    C4S14808   0.846   2.346   2.306
  137OSM    H4S14809   0.759   2.407   2.335
  137OSM    C5S14810   0.961   2.354   2.378
  137OSM    H5S14811   1.051   2.309   2.335
  137OSM    C6S14812   0.987   2.454   2.484
  137OSM    H6S14813   0.908   2.531   2.470
  137OSM    H6T14814   1.084   2.500   2.457
  137OSM    C7S14815   0.967   2.405   2.625
  137OSM    H7S14816   1.029   2.314   2.641
  137OSM    H7T14817   0.862   2.372   2.643
  137OSM    C8S14818   1.007   2.512   2.723
  137OSM    H8S14819   0.976   2.611   2.683
  137OSM    H8T14820   1.116   2.503   2.742
  137OSM    C9S14821   0.943   2.503   2.866
  137OSM    H9S14822   0.832   2.504   2.855
  137OSM    H9T14823   0.981   2.592   2.920
  137OSM   C10S14824   0.986   2.378   2.956
  137OSM   H10S14825   1.097   2.387   2.961
  137OSM   H10T14826   0.962   2.278   2.915
  137OSM   C11S14827   0.927   2.368   3.096
  137OSM   H11S14828   0.968   2.280   3.149
  137OSM   H11T14829   0.816   2.368   3.094
  137OSM   C12S14830   0.968   2.491   3.191
  137OSM   H12S14831   0.913   2.582   3.159
  137OSM   H12T14832   1.074   2.517   3.168
  137OSM   C13S14833   0.934   2.457   3.339
  137OSM   H13S14834   0.965   2.550   3.391
  137OSM   H13T14835   0.994   2.376   3.384
  137OSM   C14S14836   0.784   2.439   3.374
  137OSM   H14S14837   0.740   2.351   3.321
  137OSM   H14T14838   0.719   2.525   3.348
  137OSM   C15S14839   0.759   2.416   3.525
  137OSM   H15S14840   0.798   2.317   3.553
  137OSM   H15T14841   0.649   2.414   3.543
  137OSM   C16S14842   0.829   2.520   3.615
  137OSM   H16S14843   0.799   2.619   3.574
  137OSM   H16T14844   0.940   2.512   3.614
  137OSM   C17S14845   0.781   2.503   3.762
  137OSM   H17S14846   0.789   2.397   3.793
  137OSM   H17T14847   0.675   2.534   3.767
  137OSM   C18S14848   0.852   2.589   3.867
  137OSM   H18S14849   0.961   2.565   3.865
  137OSM   H18T14850   0.803   2.579   3.966
  137OSM   H18U14851   0.846   2.698   3.845
  137OSM    C1F14852   0.576   2.012   2.361
  137OSM     OF14853   0.638   1.905   2.357
  137OSM    C2F14854   0.441   2.027   2.438
  137OSM    H2F14855   0.353   1.989   2.382
  137OSM    H2G14856   0.434   2.137   2.449
  137OSM    C3F14857   0.455   1.955   2.573
  137OSM    H3F14858   0.475   1.847   2.558
  137OSM    H3G14859   0.350   1.958   2.608
  137OSM    C4F14860   0.559   2.015   2.668
  137OSM    H4F14861   0.655   2.038   2.616
  137OSM    H4G14862   0.573   1.942   2.750
  137OSM    C5F14863   0.500   2.149   2.730
  137OSM    H5F14864   0.413   2.116   2.791
  137OSM    H5G14865   0.458   2.193   2.638
  137OSM    C6F14866   0.593   2.241   2.808
  137OSM    H6F14867   0.673   2.292   2.750
  137OSM    H6G14868   0.631   2.173   2.888
  137OSM    C7F14869   0.517   2.360   2.874
  137OSM    H7F14870   0.457   2.410   2.796
  137OSM    H7G14871   0.600   2.432   2.893
  137OSM    C8F14872   0.446   2.327   3.004
  137OSM    H8F14873   0.518   2.301   3.085
  137OSM    H8G14874   0.401   2.231   2.972
  137OSM    C9F14875   0.329   2.407   3.035
  137OSM    H9F14876   0.267   2.437   2.949
  137OSM   C10F14877   0.293   2.459   3.152
  137OSM   H10F14878   0.195   2.508   3.161
  137OSM   C11F14879   0.364   2.424   3.285
  137OSM   H11F14880   0.425   2.512   3.312
  137OSM   H11G14881   0.444   2.347   3.292
  137OSM   C12F14882   0.283   2.379   3.395
  137OSM   H12F14883   0.232   2.284   3.368
  137OSM   H12G14884   0.206   2.451   3.430
  137OSM   C13F14885   0.373   2.365   3.520
  137OSM   H13F14886   0.408   2.470   3.529
  137OSM   H13G14887   0.460   2.296   3.515
  137OSM   C14F14888   0.307   2.334   3.652
  137OSM   H14F14889   0.226   2.409   3.665
  137OSM   H14G14890   0.388   2.340   3.728
  137OSM   C15F14891   0.243   2.196   3.662
  137OSM   H15F14892   0.317   2.116   3.640
  137OSM   H15G14893   0.165   2.183   3.583
  137OSM   C16F14894   0.185   2.176   3.807
  137OSM   H16F14895   0.124   2.083   3.805
  137OSM   H16G14896   0.121   2.266   3.819
  137OSM   C17F14897   0.299   2.169   3.913
  137OSM   H17F14898   0.371   2.254   3.913
  137OSM   H17G14899   0.364   2.080   3.898
  137OSM   C18F14900   0.237   2.175   4.052
  137OSM   H18F14901   0.155   2.250   4.057
  137OSM   H18G14902   0.310   2.196   4.132
  137OSM   H18H14903   0.189   2.078   4.075
  138OSM      N14904   5.969   6.320   2.262
  138OSM    C1514905   6.103   6.293   2.329
  138OSM   H15A14906   6.135   6.190   2.317
  138OSM   H15B14907   6.094   6.307   2.436
  138OSM   H15C14908   6.178   6.366   2.303
  138OSM    C1414909   5.975   6.322   2.109
  138OSM   H14A14910   5.883   6.341   2.056
  138OSM   H14B14911   6.028   6.236   2.071
  138OSM   H14C14912   6.036   6.402   2.067
  138OSM    C1314913   5.865   6.216   2.302
  138OSM   H13A14914   5.901   6.114   2.296
  138OSM   H13B14915   5.784   6.232   2.232
  138OSM   H13C14916   5.840   6.228   2.406
  138OSM    C1214917   5.907   6.451   2.309
  138OSM   H12A14918   5.835   6.491   2.239
  138OSM   H12B14919   5.979   6.531   2.318
  138OSM    C1114920   5.810   6.449   2.442
  138OSM   H11A14921   5.721   6.384   2.428
  138OSM   H11B14922   5.778   6.554   2.458
  138OSM      P14923   6.005   6.471   2.619
  138OSM    O1314924   6.112   6.372   2.631
  138OSM    O1414925   6.032   6.594   2.534
  138OSM    O1114926   5.945   6.512   2.755
  138OSM    O1214927   5.875   6.398   2.557
  138OSM    C1S14928   5.808   6.552   2.761
  138OSM    H1S14929   5.738   6.467   2.745
  138OSM    H1T14930   5.785   6.630   2.686
  138OSM     NF14931   5.618   6.636   2.897
  138OSM    HNF14932   5.591   6.732   2.897
  138OSM    C2S14933   5.762   6.600   2.899
  138OSM    H2S14934   5.779   6.515   2.968
  138OSM    C3S14935   5.850   6.722   2.953
  138OSM    H3S14936   5.845   6.819   2.899
  138OSM     O314937   5.988   6.690   2.951
  138OSM    HO314938   5.993   6.606   2.904
  138OSM    C4S14939   5.801   6.754   3.094
  138OSM    H4S14940   5.717   6.824   3.104
  138OSM    C5S14941   5.830   6.684   3.206
  138OSM    H5S14942   5.887   6.591   3.199
  138OSM    C6S14943   5.764   6.716   3.338
  138OSM    H6S14944   5.729   6.619   3.380
  138OSM    H6T14945   5.674   6.780   3.331
  138OSM    C7S14946   5.859   6.786   3.437
  138OSM    H7S14947   5.900   0.002   3.394
  138OSM    H7T14948   5.950   6.732   3.471
  138OSM    C8S14949   5.789   6.819   3.566
  138OSM    H8S14950   5.752   6.722   3.606
  138OSM    H8T14951   5.693   6.875   3.559
  138OSM    C9S14952   5.884   0.010   3.668
  138OSM    H9S14953   5.898   0.115   3.635
  138OSM    H9T14954   5.975   6.824   3.656
  138OSM   C10S14955   5.836   6.868   3.812
  138OSM   H10S14956   5.725   6.860   3.809
  138OSM   H10T14957   5.851   0.085   3.867
  138OSM   C11S14958   5.886   6.743   3.889
  138OSM   H11S14959   5.997   6.751   3.899
  138OSM   H11T14960   5.864   6.660   3.818
  138OSM   C12S14961   5.821   6.724   4.023
  138OSM   H12S14962   5.860   6.628   4.064
  138OSM   H12T14963   5.712   6.712   4.007
  138OSM   C13S14964   5.845   6.848   4.122
  138OSM   H13S14965   5.850   0.071   4.076
  138OSM   H13T14966   5.941   6.830   4.175
  138OSM   C14S14967   5.746   6.846   4.234
  138OSM   H14S14968   5.757   6.754   4.295
  138OSM   H14T14969   5.642   6.825   4.203
  138OSM   C15S14970   5.747   0.091   4.329
  138OSM   H15S14971   5.691   0.175   4.284
  138OSM   H15T14972   5.854   0.122   4.339
  138OSM   C16S14973   5.700   0.062   4.475
  138OSM   H16S14974   5.742   6.845   4.514
  138OSM   H16T14975   5.589   0.066   4.482
  138OSM   C17S14976   5.747   0.161   4.593
  138OSM   H17S14977   5.747   0.264   4.551
  138OSM   H17T14978   5.848   0.140   4.632
  138OSM   C18S14979   5.649   0.151   4.717
  138OSM   H18S14980   5.545   0.168   4.684
  138OSM   H18T14981   5.673   0.236   4.784
  138OSM   H18U14982   5.655   0.053   4.769
  138OSM    C1F14983   5.522   6.548   2.914
  138OSM     OF14984   5.558   6.431   2.920
  138OSM    C2F14985   5.374   6.587   2.901
  138OSM    H2F14986   5.324   6.522   2.825
  138OSM    H2G14987   5.371   6.692   2.865
  138OSM    C3F14988   5.293   6.554   3.033
  138OSM    H3F14989   5.304   6.451   3.073
  138OSM    H3G14990   5.183   6.554   3.017
  138OSM    C4F14991   5.331   6.659   3.141
  138OSM    H4F14992   5.257   6.742   3.143
  138OSM    H4G14993   5.433   6.700   3.124
  138OSM    C5F14994   5.333   6.581   3.273
  138OSM    H5F14995   5.412   6.504   3.262
  138OSM    H5G14996   5.233   6.544   3.303
  138OSM    C6F14997   5.378   6.668   3.393
  138OSM    H6F14998   5.294   6.738   3.415
  138OSM    H6G14999   5.464   6.730   3.358
  138OSM    C7F15000   5.432   6.596   3.520
  138OSM    H7F15001   5.522   6.538   3.487
  138OSM    H7G15002   5.372   6.508   3.553
  138OSM    C8F15003   5.465   6.684   3.643
  138OSM    H8F15004   5.501   6.781   3.602
  138OSM    H8G15005   5.545   6.646   3.710
  138OSM    C9F15006   5.341   6.712   3.721
  138OSM    H9F15007   5.309   6.817   3.728
  138OSM   C10F15008   5.270   6.624   3.797
  138OSM   H10F15009   5.187   6.659   3.861
  138OSM   C11F15010   5.293   6.477   3.821
  138OSM   H11F15011   5.384   6.446   3.766
  138OSM   H11G15012   5.208   6.412   3.790
  138OSM   C12F15013   5.316   6.447   3.975
  138OSM   H12F15014   5.315   6.337   3.992
  138OSM   H12G15015   5.235   6.493   4.035
  138OSM   C13F15016   5.448   6.514   4.008
  138OSM   H13F15017   5.453   6.624   3.991
  138OSM   H13G15018   5.526   6.455   3.955
  138OSM   C14F15019   5.490   6.496   4.166
  138OSM   H14F15020   5.586   6.548   4.188
  138OSM   H14G15021   5.509   6.387   4.178
  138OSM   C15F15022   5.379   6.545   4.255
  138OSM   H15F15023   5.288   6.488   4.228
  138OSM   H15G15024   5.341   6.648   4.235
  138OSM   C16F15025   5.413   6.549   4.406
  138OSM   H16F15026   5.479   6.631   4.440
  138OSM   H16G15027   5.462   6.451   4.426
  138OSM   C17F15028   5.285   6.551   4.498
  138OSM   H17F15029   5.230   6.646   4.485
  138OSM   H17G15030   5.325   6.556   4.602
  138OSM   C18F15031   5.188   6.429   4.483
  138OSM   H18F15032   5.087   6.459   4.518
  138OSM   H18G15033   5.208   6.334   4.537
  138OSM   H18H15034   5.168   6.407   4.376
  139OSM      N15035   1.037   1.301   1.658
  139OSM    C1515036   1.043   1.151   1.683
  139OSM   H15A15037   0.954   1.105   1.643
  139OSM   H15B15038   1.037   1.135   1.789
  139OSM   H15C15039   1.131   1.104   1.641
  139OSM    C1415040   1.077   1.314   1.514
  139OSM   H14A15041   1.012   1.253   1.453
  139OSM   H14B15042   1.179   1.285   1.493
  139OSM   H14C15043   1.074   1.417   1.481
  139OSM    C1315044   0.895   1.349   1.667
  139OSM   H13A15045   0.880   1.447   1.625
  139OSM   H13B15046   0.858   1.355   1.768
  139OSM   H13C15047   0.825   1.280   1.622
  139OSM    C1215048   1.133   1.370   1.751
  139OSM   H12A15049   1.138   1.475   1.728
  139OSM   H12B15050   1.234   1.341   1.724
  139OSM    C1115051   1.110   1.361   1.905
  139OSM   H11A15052   1.020   1.420   1.932
  139OSM   H11B15053   1.185   1.419   1.962
  139OSM      P15054   1.005   1.184   2.068
  139OSM    O1315055   0.869   1.170   2.006
  139OSM    O1415056   1.058   1.070   2.147
  139OSM    O1115057   0.994   1.319   2.143
  139OSM    O1215058   1.105   1.227   1.951
  139OSM    C1S15059   0.895   1.331   2.247
  139OSM    H1S15060   0.828   1.244   2.262
  139OSM    H1T15061   0.829   1.416   2.220
  139OSM     NF15062   0.839   1.418   2.467
  139OSM    HNF15063   0.809   1.513   2.467
  139OSM    C2S15064   0.952   1.378   2.388
  139OSM    H2S15065   0.995   1.286   2.434
  139OSM    C3S15066   1.067   1.483   2.374
  139OSM    H3S15067   1.048   1.580   2.324
  139OSM     O315068   1.179   1.425   2.315
  139OSM    HO315069   1.151   1.350   2.262
  139OSM    C4S15070   1.107   1.526   2.510
  139OSM    H4S15071   1.018   1.559   2.566
  139OSM    C5S15072   1.222   1.528   2.579
  139OSM    H5S15073   1.301   1.498   2.508
  139OSM    C6S15074   1.256   1.567   2.720
  139OSM    H6S15075   1.301   1.668   2.711
  139OSM    H6T15076   1.326   1.505   2.781
  139OSM    C7S15077   1.135   1.573   2.809
  139OSM    H7S15078   1.080   1.477   2.805
  139OSM    H7T15079   1.072   1.654   2.766
  139OSM    C8S15080   1.168   1.606   2.960
  139OSM    H8S15081   1.070   1.641   2.999
  139OSM    H8T15082   1.236   1.693   2.972
  139OSM    C9S15083   1.213   1.489   3.038
  139OSM    H9S15084   1.314   1.459   3.004
  139OSM    H9T15085   1.155   1.394   3.040
  139OSM   C10S15086   1.251   1.532   3.185
  139OSM   H10S15087   1.313   1.624   3.178
  139OSM   H10T15088   1.298   1.449   3.241
  139OSM   C11S15089   1.129   1.573   3.269
  139OSM   H11S15090   1.054   1.491   3.264
  139OSM   H11T15091   1.098   1.669   3.223
  139OSM   C12S15092   1.157   1.594   3.415
  139OSM   H12S15093   1.241   1.665   3.425
  139OSM   H12T15094   1.196   1.507   3.472
  139OSM   C13S15095   1.032   1.649   3.485
  139OSM   H13S15096   0.964   1.568   3.451
  139OSM   H13T15097   0.983   1.743   3.450
  139OSM   C14S15098   1.045   1.648   3.643
  139OSM   H14S15099   1.033   1.541   3.669
  139OSM   H14T15100   0.958   1.700   3.689
  139OSM   C15S15101   1.173   1.702   3.705
  139OSM   H15S15102   1.196   1.795   3.650
  139OSM   H15T15103   1.258   1.630   3.701
  139OSM   C16S15104   1.137   1.721   3.853
  139OSM   H16S15105   1.099   1.625   3.894
  139OSM   H16T15106   1.053   1.793   3.854
  139OSM   C17S15107   1.250   1.769   3.939
  139OSM   H17S15108   1.286   1.871   3.914
  139OSM   H17T15109   1.332   1.694   3.939
  139OSM   C18S15110   1.220   1.774   4.090
  139OSM   H18S15111   1.126   1.828   4.115
  139OSM   H18T15112   1.300   1.822   4.150
  139OSM   H18U15113   1.208   1.670   4.127
  139OSM    C1F15114   0.757   1.325   2.524
  139OSM     OF15115   0.781   1.203   2.513
  139OSM    C2F15116   0.649   1.376   2.605
  139OSM    H2F15117   0.551   1.334   2.574
  139OSM    H2G15118   0.651   1.487   2.604
  139OSM    C3F15119   0.686   1.348   2.755
  139OSM    H3F15120   0.791   1.381   2.773
  139OSM    H3G15121   0.700   1.239   2.773
  139OSM    C4F15122   0.595   1.422   2.849
  139OSM    H4F15123   0.495   1.374   2.854
  139OSM    H4G15124   0.587   1.522   2.800
  139OSM    C5F15125   0.657   1.432   2.990
  139OSM    H5F15126   0.757   1.481   2.982
  139OSM    H5G15127   0.681   1.329   3.021
  139OSM    C6F15128   0.575   1.504   3.106
  139OSM    H6F15129   0.472   1.465   3.117
  139OSM    H6G15130   0.552   1.609   3.081
  139OSM    C7F15131   0.647   1.507   3.245
  139OSM    H7F15132   0.742   1.562   3.232
  139OSM    H7G15133   0.675   1.403   3.270
  139OSM    C8F15134   0.564   1.579   3.356
  139OSM    H8F15135   0.473   1.516   3.354
  139OSM    H8G15136   0.542   1.683   3.325
  139OSM    C9F15137   0.634   1.563   3.490
  139OSM    H9F15138   0.738   1.599   3.478
  139OSM   C10F15139   0.587   1.499   3.601
  139OSM   H10F15140   0.646   1.522   3.691
  139OSM   C11F15141   0.445   1.447   3.617
  139OSM   H11F15142   0.449   1.363   3.689
  139OSM   H11G15143   0.406   1.414   3.519
  139OSM   C12F15144   0.347   1.553   3.667
  139OSM   H12F15145   0.245   1.509   3.664
  139OSM   H12G15146   0.351   1.644   3.603
  139OSM   C13F15147   0.373   1.595   3.808
  139OSM   H13F15148   0.478   1.629   3.817
  139OSM   H13G15149   0.361   1.508   3.875
  139OSM   C14F15150   0.282   1.704   3.864
  139OSM   H14F15151   0.175   1.681   3.846
  139OSM   H14G15152   0.305   1.798   3.809
  139OSM   C15F15153   0.311   1.726   4.005
  139OSM   H15F15154   0.284   1.831   4.032
  139OSM   H15G15155   0.419   1.710   4.029
  139OSM   C16F15156   0.238   1.637   4.096
  139OSM   H16F15157   0.264   1.531   4.076
  139OSM   H16G15158   0.130   1.652   4.075
  139OSM   C17F15159   0.270   1.668   4.241
  139OSM   H17F15160   0.190   1.637   4.312
  139OSM   H17G15161   0.275   1.778   4.250
  139OSM   C18F15162   0.405   1.605   4.281
  139OSM   H18F15163   0.418   1.498   4.256
  139OSM   H18G15164   0.406   1.601   4.392
  139OSM   H18H15165   0.492   1.659   4.238
  140OSM      N15166   4.548   0.411   2.000
  140OSM    C1515167   4.580   0.423   1.852
  140OSM   H15A15168   4.676   0.380   1.828
  140OSM   H15B15169   4.570   0.527   1.825
  140OSM   H15C15170   4.505   0.371   1.794
  140OSM    C1415171   4.649   0.478   2.087
  140OSM   H14A15172   4.649   0.586   2.077
  140OSM   H14B15173   4.746   0.446   2.051
  140OSM   H14C15174   4.633   0.442   2.187
  140OSM    C1315175   4.414   0.471   2.028
  140OSM   H13A15176   4.398   0.495   2.132
  140OSM   H13B15177   4.333   0.413   1.987
  140OSM   H13C15178   4.416   0.566   1.975
  140OSM    C1215179   4.544   0.268   2.041
  140OSM   H12A15180   4.453   0.230   1.998
  140OSM   H12B15181   4.523   0.265   2.147
  140OSM    C1115182   4.663   0.172   2.017
  140OSM   H11A15183   4.684   0.184   1.908
  140OSM   H11B15184   4.638   0.066   2.038
  140OSM      P15185   4.837   0.121   2.200
  140OSM    O1315186   4.845   6.863   2.137
  140OSM    O1415187   4.956   0.173   2.273
  140OSM    O1115188   4.714   0.126   2.295
  140OSM    O1215189   4.790   0.211   2.079
  140OSM    C1S15190   4.710   0.030   2.407
  140OSM    H1S15191   4.783   6.825   2.396
  140OSM    H1T15192   4.609   6.860   2.406
  140OSM     NF15193   4.769   0.002   2.650
  140OSM    HNF15194   4.694   6.847   2.706
  140OSM    C2S15195   4.748   0.098   2.541
  140OSM    H2S15196   4.849   0.142   2.521
  140OSM    C3S15197   4.651   0.222   2.559
  140OSM    H3S15198   4.548   0.180   2.562
  140OSM     O315199   4.661   0.327   2.461
  140OSM    HO315200   4.696   0.289   2.380
  140OSM    C4S15201   4.681   0.260   2.700
  140OSM    H4S15202   4.602   0.230   2.771
  140OSM    C5S15203   4.777   0.337   2.742
  140OSM    H5S15204   4.840   0.386   2.666
  140OSM    C6S15205   4.806   0.372   2.886
  140OSM    H6S15206   4.813   0.482   2.887
  140OSM    H6T15207   4.914   0.353   2.907
  140OSM    C7S15208   4.713   0.337   3.006
  140OSM    H7S15209   4.726   0.228   3.022
  140OSM    H7T15210   4.604   0.353   2.991
  140OSM    C8S15211   4.765   0.408   3.134
  140OSM    H8S15212   4.766   0.518   3.119
  140OSM    H8T15213   4.869   0.373   3.147
  140OSM    C9S15214   4.683   0.371   3.261
  140OSM    H9S15215   4.653   0.264   3.261
  140OSM    H9T15216   4.589   0.428   3.250
  140OSM   C10S15217   4.743   0.417   3.394
  140OSM   H10S15218   4.756   0.527   3.383
  140OSM   H10T15219   4.843   0.372   3.413
  140OSM   C11S15220   4.655   0.365   3.514
  140OSM   H11S15221   4.643   0.255   3.502
  140OSM   H11T15222   4.551   0.405   3.507
  140OSM   C12S15223   4.703   0.409   3.656
  140OSM   H12S15224   4.725   0.518   3.657
  140OSM   H12T15225   4.798   0.357   3.683
  140OSM   C13S15226   4.608   0.392   3.766
  140OSM   H13S15227   4.598   0.281   3.769
  140OSM   H13T15228   4.515   0.447   3.738
  140OSM   C14S15229   4.646   0.439   3.904
  140OSM   H14S15230   4.686   0.541   3.889
  140OSM   H14T15231   4.725   0.376   3.950
  140OSM   C15S15232   4.524   0.436   3.991
  140OSM   H15S15233   4.540   0.435   4.101
  140OSM   H15T15234   4.459   0.347   3.980
  140OSM   C16S15235   4.424   0.550   3.970
  140OSM   H16S15236   4.383   0.540   3.867
  140OSM   H16T15237   4.484   0.643   3.980
  140OSM   C17S15238   4.311   0.537   4.080
  140OSM   H17S15239   4.352   0.542   4.183
  140OSM   H17T15240   4.259   0.439   4.070
  140OSM   C18S15241   4.203   0.651   4.067
  140OSM   H18S15242   4.153   0.628   3.971
  140OSM   H18T15243   4.261   0.745   4.053
  140OSM   H18U15244   4.136   0.655   4.156
  140OSM    C1F15245   4.876   6.800   2.649
  140OSM     OF15246   4.969   6.827   2.582
  140OSM    C2F15247   4.877   6.669   2.726
  140OSM    H2F15248   4.901   6.581   2.661
  140OSM    H2G15249   4.773   6.649   2.757
  140OSM    C3F15250   4.967   6.679   2.846
  140OSM    H3F15251   5.075   6.701   2.834
  140OSM    H3G15252   4.955   6.583   2.901
  140OSM    C4F15253   4.919   6.788   2.946
  140OSM    H4F15254   4.818   6.756   2.978
  140OSM    H4G15255   4.920   0.014   2.907
  140OSM    C5F15256   5.011   6.798   3.071
  140OSM    H5F15257   5.116   6.806   3.034
  140OSM    H5G15258   4.993   6.715   3.143
  140OSM    C6F15259   4.993   0.056   3.140
  140OSM    H6F15260   4.884   0.070   3.153
  140OSM    H6G15261   5.020   0.122   3.055
  140OSM    C7F15262   5.075   0.088   3.263
  140OSM    H7F15263   5.063   0.197   3.282
  140OSM    H7G15264   5.182   0.074   3.238
  140OSM    C8F15265   5.034   0.014   3.395
  140OSM    H8F15266   5.125   0.007   3.458
  140OSM    H8G15267   5.006   6.787   3.369
  140OSM    C9F15268   4.912   0.068   3.468
  140OSM    H9F15269   4.828   0.099   3.403
  140OSM   C10F15270   4.912   0.084   3.596
  140OSM   H10F15271   4.816   0.114   3.641
  140OSM   C11F15272   5.015   0.031   3.698
  140OSM   H11F15273   5.111   0.079   3.667
  140OSM   H11G15274   5.034   6.802   3.676
  140OSM   C12F15275   4.998   0.062   3.845
  140OSM   H12F15276   5.013   0.170   3.867
  140OSM   H12G15277   5.081   0.000   3.886
  140OSM   C13F15278   4.869   0.010   3.911
  140OSM   H13F15279   4.834   6.807   3.843
  140OSM   H13G15280   4.797   0.094   3.906
  140OSM   C14F15281   4.887   6.838   4.051
  140OSM   H14F15282   4.938   0.045   4.102
  140OSM   H14G15283   4.961   6.755   4.053
  140OSM   C15F15284   4.758   6.794   4.120
  140OSM   H15F15285   4.715   6.707   4.067
  140OSM   H15G15286   4.688   0.003   4.124
  140OSM   C16F15287   4.771   6.739   4.266
  140OSM   H16F15288   4.832   6.647   4.260
  140OSM   H16G15289   4.668   6.707   4.294
  140OSM   C17F15290   4.837   6.840   4.364
  140OSM   H17F15291   4.800   0.066   4.352
  140OSM   H17G15292   4.946   6.838   4.345
  140OSM   C18F15293   4.804   6.807   4.506
  140OSM   H18F15294   4.810   6.698   4.525
  140OSM   H18G15295   4.695   6.826   4.514
  140OSM   H18H15296   4.858   6.850   4.593
  141OSM      N15297   6.753   4.405   1.837
  141OSM    C1515298   6.795   4.551   1.822
  141OSM   H15A15299   6.709   4.615   1.836
  141OSM   H15B15300   6.835   4.569   1.723
  141OSM   H15C15301   6.856   4.579   1.907
  141OSM    C1415302   6.634   4.384   1.747
  141OSM   H14A15303   6.595   4.285   1.766
  141OSM   H14B15304   6.667   4.405   1.647
  141OSM   H14C15305   6.557   4.457   1.767
  141OSM    C1315306   6.871   4.326   1.786
  141OSM   H13A15307   0.021   4.346   1.684
  141OSM   H13B15308   6.854   4.220   1.788
  141OSM   H13C15309   0.076   4.341   1.854
  141OSM    C1215310   6.716   4.370   1.981
  141OSM   H12A15311   6.721   4.263   1.990
  141OSM   H12B15312   6.614   4.402   1.994
  141OSM    C1115313   6.811   4.426   2.091
  141OSM   H11A15314   6.782   4.388   2.191
  141OSM   H11B15315   6.813   4.537   2.098
  141OSM      P15316   0.198   4.447   2.092
  141OSM    O1315317   0.303   4.393   2.005
  141OSM    O1415318   0.173   4.593   2.086
  141OSM    O1115319   0.229   4.404   2.245
  141OSM    O1215320   0.060   4.374   2.063
  141OSM    C1S15321   0.285   4.274   2.287
  141OSM    H1S15322   0.341   4.223   2.206
  141OSM    H1T15323   0.210   4.197   2.317
  141OSM     NF15324   0.453   4.151   2.424
  141OSM    HNF15325   0.424   4.088   2.495
  141OSM    C2S15326   0.392   4.286   2.399
  141OSM    H2S15327   0.472   4.351   2.358
  141OSM    C3S15328   0.346   4.366   2.535
  141OSM    H3S15329   0.280   4.293   2.587
  141OSM     O315330   0.273   4.484   2.504
  141OSM    HO315331   0.237   4.472   2.415
  141OSM    C4S15332   0.468   4.407   2.615
  141OSM    H4S15333   0.518   4.496   2.573
  141OSM    C5S15334   0.499   4.360   2.737
  141OSM    H5S15335   0.429   4.293   2.789
  141OSM    C6S15336   0.614   4.407   2.829
  141OSM    H6S15337   0.645   4.513   2.817
  141OSM    H6T15338   0.716   4.364   2.812
  141OSM    C7S15339   0.573   4.382   2.976
  141OSM    H7S15340   0.666   4.386   3.038
  141OSM    H7T15341   0.543   4.275   2.985
  141OSM    C8S15342   0.475   4.484   3.034
  141OSM    H8S15343   0.386   4.483   2.966
  141OSM    H8T15344   0.523   4.585   3.034
  141OSM    C9S15345   0.413   4.454   3.174
  141OSM    H9S15346   0.338   4.375   3.152
  141OSM    H9T15347   0.373   4.552   3.207
  141OSM   C10S15348   0.509   4.409   3.280
  141OSM   H10S15349   0.605   4.466   3.286
  141OSM   H10T15350   0.533   4.303   3.259
  141OSM   C11S15351   0.436   4.409   3.421
  141OSM   H11S15352   0.488   4.342   3.493
  141OSM   H11T15353   0.330   4.380   3.407
  141OSM   C12S15354   0.431   4.559   3.476
  141OSM   H12S15355   0.370   4.621   3.407
  141OSM   H12T15356   0.538   4.590   3.469
  141OSM   C13S15357   0.374   4.576   3.618
  141OSM   H13S15358   0.387   4.683   3.646
  141OSM   H13T15359   0.437   4.514   3.684
  141OSM   C14S15360   0.223   4.551   3.630
  141OSM   H14S15361   0.203   4.450   3.588
  141OSM   H14T15362   0.163   4.623   3.570
  141OSM   C15S15363   0.182   4.577   3.775
  141OSM   H15S15364   0.085   4.632   3.782
  141OSM   H15T15365   0.247   4.657   3.816
  141OSM   C16S15366   0.184   4.452   3.865
  141OSM   H16S15367   0.280   4.398   3.850
  141OSM   H16T15368   0.108   4.387   3.817
  141OSM   C17S15369   0.154   4.474   4.014
  141OSM   H17S15370   0.170   4.376   4.063
  141OSM   H17T15371   0.049   4.506   4.032
  141OSM   C18S15372   0.244   4.567   4.088
  141OSM   H18S15373   0.239   4.668   4.041
  141OSM   H18T15374   0.344   4.522   4.069
  141OSM   H18U15375   0.236   4.582   4.197
  141OSM    C1F15376   0.533   4.096   2.332
  141OSM     OF15377   0.561   4.156   2.231
  141OSM    C2F15378   0.593   3.953   2.359
  141OSM    H2F15379   0.697   3.959   2.320
  141OSM    H2G15380   0.533   3.891   2.289
  141OSM    C3F15381   0.584   3.909   2.511
  141OSM    H3F15382   0.608   3.803   2.530
  141OSM    H3G15383   0.479   3.910   2.549
  141OSM    C4F15384   0.677   3.992   2.597
  141OSM    H4F15385   0.630   4.085   2.634
  141OSM    H4G15386   0.769   4.015   2.540
  141OSM    C5F15387   0.706   3.924   2.733
  141OSM    H5F15388   0.794   3.858   2.721
  141OSM    H5G15389   0.613   3.874   2.768
  141OSM    C6F15390   0.760   4.016   2.841
  141OSM    H6F15391   0.682   4.088   2.874
  141OSM    H6G15392   0.844   4.077   2.804
  141OSM    C7F15393   0.799   3.940   2.968
  141OSM    H7F15394   0.899   3.895   2.948
  141OSM    H7G15395   0.724   3.861   2.986
  141OSM    C8F15396   0.808   4.031   3.091
  141OSM    H8F15397   0.714   4.087   3.111
  141OSM    H8G15398   0.883   4.109   3.067
  141OSM    C9F15399   0.853   3.946   3.209
  141OSM    H9F15400   0.935   3.875   3.190
  141OSM   C10F15401   0.802   3.950   3.339
  141OSM   H10F15402   0.839   3.881   3.417
  141OSM   C11F15403   0.697   4.047   3.390
  141OSM   H11F15404   0.597   3.998   3.382
  141OSM   H11G15405   0.687   4.129   3.316
  141OSM   C12F15406   0.717   4.096   3.529
  141OSM   H12F15407   0.638   4.169   3.559
  141OSM   H12G15408   0.817   4.143   3.533
  141OSM   C13F15409   0.736   3.985   3.636
  141OSM   H13F15410   0.828   3.928   3.615
  141OSM   H13G15411   0.650   3.917   3.620
  141OSM   C14F15412   0.725   4.052   3.774
  141OSM   H14F15413   0.627   4.105   3.780
  141OSM   H14G15414   0.792   4.141   3.783
  141OSM   C15F15415   0.741   3.964   3.886
  141OSM   H15F15416   0.719   4.008   3.986
  141OSM   H15G15417   0.844   3.923   3.892
  141OSM   C16F15418   0.640   3.852   3.878
  141OSM   H16F15419   0.672   3.787   3.794
  141OSM   H16G15420   0.543   3.899   3.851
  141OSM   C17F15421   0.623   3.777   4.010
  141OSM   H17F15422   0.601   3.839   4.099
  141OSM   H17G15423   0.723   3.731   4.023
  141OSM   C18F15424   0.515   3.663   4.005
  141OSM   H18F15425   0.478   3.627   4.103
  141OSM   H18G15426   0.554   3.577   3.946
  141OSM   H18H15427   0.434   3.709   3.944
  142OSM      N15428   1.493   5.249   1.795
  142OSM    C1515429   1.483   5.377   1.724
  142OSM   H15A15430   1.572   5.437   1.737
  142OSM   H15B15431   1.414   5.434   1.785
  142OSM   H15C15432   1.453   5.380   1.621
  142OSM    C1415433   1.355   5.191   1.813
  142OSM   H14A15434   1.352   5.084   1.831
  142OSM   H14B15435   1.288   5.207   1.730
  142OSM   H14C15436   1.302   5.239   1.894
  142OSM    C1315437   1.577   5.150   1.716
  142OSM   H13A15438   1.562   5.142   1.609
  142OSM   H13B15439   1.581   5.050   1.755
  142OSM   H13C15440   1.679   5.180   1.733
  142OSM    C1215441   1.551   5.262   1.933
  142OSM   H12A15442   1.656   5.285   1.922
  142OSM   H12B15443   1.544   5.166   1.982
  142OSM    C1115444   1.487   5.373   2.026
  142OSM   H11A15445   1.513   5.352   2.132
  142OSM   H11B15446   1.376   5.365   2.023
  142OSM      P15447   1.447   5.630   2.023
  142OSM    O1315448   1.510   5.747   1.954
  142OSM    O1415449   1.302   5.604   2.012
  142OSM    O1115450   1.479   5.658   2.176
  142OSM    O1215451   1.529   5.497   1.988
  142OSM    C1S15452   1.598   5.639   2.236
  142OSM    H1S15453   1.672   5.716   2.206
  142OSM    H1T15454   1.638   5.543   2.194
  142OSM     NF15455   1.718   5.635   2.450
  142OSM    HNF15456   1.767   5.550   2.466
  142OSM    C2S15457   1.584   5.638   2.388
  142OSM    H2S15458   1.537   5.733   2.420
  142OSM    C3S15459   1.494   5.514   2.429
  142OSM    H3S15460   1.554   5.423   2.404
  142OSM     O315461   1.367   5.503   2.363
  142OSM    HO315462   1.376   5.564   2.289
  142OSM    C4S15463   1.482   5.511   2.581
  142OSM    H4S15464   1.565   5.461   2.632
  142OSM    C5S15465   1.382   5.562   2.657
  142OSM    H5S15466   1.307   5.626   2.607
  142OSM    C6S15467   1.385   5.576   2.807
  142OSM    H6S15468   1.289   5.542   2.852
  142OSM    H6T15469   1.386   5.687   2.821
  142OSM    C7S15470   1.499   5.507   2.882
  142OSM    H7S15471   1.601   5.533   2.849
  142OSM    H7T15472   1.497   5.400   2.853
  142OSM    C8S15473   1.499   5.517   3.038
  142OSM    H8S15474   1.586   5.458   3.072
  142OSM    H8T15475   1.411   5.454   3.065
  142OSM    C9S15476   1.502   5.654   3.094
  142OSM    H9S15477   1.404   5.705   3.082
  142OSM    H9T15478   1.577   5.703   3.028
  142OSM   C10S15479   1.542   5.670   3.243
  142OSM   H10S15480   1.649   5.695   3.263
  142OSM   H10T15481   1.541   5.566   3.283
  142OSM   C11S15482   1.442   5.746   3.333
  142OSM   H11S15483   1.346   5.697   3.305
  142OSM   H11T15484   1.435   5.854   3.310
  142OSM   C12S15485   1.479   5.739   3.488
  142OSM   H12S15486   1.534   5.645   3.507
  142OSM   H12T15487   1.380   5.723   3.536
  142OSM   C13S15488   1.549   5.858   3.534
  142OSM   H13S15489   1.499   5.950   3.497
  142OSM   H13T15490   1.653   5.862   3.494
  142OSM   C14S15491   1.563   5.861   3.685
  142OSM   H14S15492   1.624   5.772   3.715
  142OSM   H14T15493   1.468   5.873   3.740
  142OSM   C15S15494   1.648   5.977   3.736
  142OSM   H15S15495   1.602   6.073   3.706
  142OSM   H15T15496   1.746   5.969   3.684
  142OSM   C16S15497   1.664   5.966   3.888
  142OSM   H16S15498   1.745   6.036   3.918
  142OSM   H16T15499   1.693   5.867   3.929
  142OSM   C17S15500   1.535   5.996   3.959
  142OSM   H17S15501   1.457   5.923   3.928
  142OSM   H17T15502   1.497   6.096   3.930
  142OSM   C18S15503   1.556   5.978   4.107
  142OSM   H18S15504   1.469   6.015   4.166
  142OSM   H18T15505   1.633   6.046   4.150
  142OSM   H18U15506   1.589   5.873   4.124
  142OSM    C1F15507   1.794   5.747   2.460
  142OSM     OF15508   1.751   5.855   2.436
  142OSM    C2F15509   1.939   5.735   2.494
  142OSM    H2F15510   2.007   5.773   2.414
  142OSM    H2G15511   1.965   5.628   2.506
  142OSM    C3F15512   1.967   5.816   2.625
  142OSM    H3F15513   1.953   5.926   2.619
  142OSM    H3G15514   2.077   5.806   2.641
  142OSM    C4F15515   1.897   5.766   2.757
  142OSM    H4F15516   1.920   5.658   2.772
  142OSM    H4G15517   1.788   5.784   2.750
  142OSM    C5F15518   1.945   5.843   2.885
  142OSM    H5F15519   1.938   5.946   2.844
  142OSM    H5G15520   2.051   5.815   2.903
  142OSM    C6F15521   1.869   5.835   3.016
  142OSM    H6F15522   1.873   5.727   3.039
  142OSM    H6G15523   1.766   5.873   2.998
  142OSM    C7F15524   1.929   5.921   3.131
  142OSM    H7F15525   1.913   6.026   3.098
  142OSM    H7G15526   2.038   5.898   3.135
  142OSM    C8F15527   1.871   5.902   3.276
  142OSM    H8F15528   1.865   5.795   3.303
  142OSM    H8G15529   1.771   5.946   3.292
  142OSM    C9F15530   1.963   5.974   3.364
  142OSM    H9F15531   1.952   6.083   3.359
  142OSM   C10F15532   2.056   5.925   3.450
  142OSM   H10F15533   2.116   5.997   3.508
  142OSM   C11F15534   2.072   5.779   3.482
  142OSM   H11F15535   2.178   5.747   3.476
  142OSM   H11G15536   2.017   5.722   3.403
  142OSM   C12F15537   2.018   5.723   3.617
  142OSM   H12F15538   2.045   5.616   3.604
  142OSM   H12G15539   1.909   5.717   3.634
  142OSM   C13F15540   2.094   5.782   3.744
  142OSM   H13F15541   2.073   5.891   3.745
  142OSM   H13G15542   2.204   5.771   3.729
  142OSM   C14F15543   2.060   5.719   3.874
  142OSM   H14F15544   2.079   5.610   3.873
  142OSM   H14G15545   1.950   5.730   3.883
  142OSM   C15F15546   2.129   5.795   3.992
  142OSM   H15F15547   2.087   5.770   4.091
  142OSM   H15G15548   2.127   5.905   3.975
  142OSM   C16F15549   2.274   5.735   4.002
  142OSM   H16F15550   2.339   5.768   3.918
  142OSM   H16G15551   2.276   5.624   3.993
  142OSM   C17F15552   2.359   5.775   4.123
  142OSM   H17F15553   2.463   5.736   4.117
  142OSM   H17G15554   2.332   5.711   4.209
  142OSM   C18F15555   2.363   5.921   4.157
  142OSM   H18F15556   2.425   5.933   4.249
  142OSM   H18G15557   2.262   5.955   4.191
  142OSM   H18H15558   2.401   5.989   4.078
  143OSM      N15559   0.729   4.812   1.834
  143OSM    C1515560   0.862   4.866   1.778
  143OSM   H15A15561   0.894   4.942   1.848
  143OSM   H15B15562   0.867   4.907   1.679
  143OSM   H15C15563   0.930   4.782   1.774
  143OSM    C1415564   0.640   4.933   1.833
  143OSM   H14A15565   0.618   4.961   1.731
  143OSM   H14B15566   0.683   5.022   1.876
  143OSM   H14C15567   0.544   4.911   1.878
  143OSM    C1315568   0.666   4.709   1.739
  143OSM   H13A15569   0.689   4.604   1.750
  143OSM   H13B15570   0.687   4.726   1.634
  143OSM   H13C15571   0.559   4.727   1.737
  143OSM    C1215572   0.745   4.758   1.979
  143OSM   H12A15573   0.806   4.669   1.981
  143OSM   H12B15574   0.648   4.734   2.019
  143OSM    C1115575   0.813   4.857   2.081
  143OSM   H11A15576   0.806   4.796   2.173
  143OSM   H11B15577   0.757   4.953   2.089
  143OSM      P15578   1.079   4.838   2.073
  143OSM    O1315579   1.050   4.715   2.138
  143OSM    O1415580   1.165   4.843   1.953
  143OSM    O1115581   1.140   4.944   2.178
  143OSM    O1215582   0.935   4.900   2.038
  143OSM    C1S15583   1.078   4.963   2.300
  143OSM    H1S15584   0.970   4.939   2.299
  143OSM    H1T15585   1.089   5.072   2.321
  143OSM     NF15586   1.079   4.920   2.547
  143OSM    HNF15587   1.135   4.968   2.613
  143OSM    C2S15588   1.150   4.898   2.423
  143OSM    H2S15589   1.144   4.790   2.398
  143OSM    C3S15590   1.299   4.930   2.436
  143OSM    H3S15591   1.302   5.041   2.445
  143OSM     O315592   1.369   4.893   2.319
  143OSM    HO315593   1.298   4.902   2.255
  143OSM    C4S15594   1.357   4.870   2.564
  143OSM    H4S15595   1.351   4.940   2.649
  143OSM    C5S15596   1.415   4.752   2.591
  143OSM    H5S15597   1.424   4.677   2.510
  143OSM    C6S15598   1.465   4.700   2.719
  143OSM    H6S15599   1.568   4.660   2.707
  143OSM    H6T15600   1.402   4.616   2.757
  143OSM    C7S15601   1.477   4.791   2.844
  143OSM    H7S15602   1.382   4.840   2.874
  143OSM    H7T15603   1.540   4.879   2.818
  143OSM    C8S15604   1.528   4.703   2.957
  143OSM    H8S15605   1.608   4.641   2.911
  143OSM    H8T15606   1.450   4.628   2.981
  143OSM    C9S15607   1.567   4.762   3.086
  143OSM    H9S15608   1.483   4.818   3.134
  143OSM    H9T15609   1.653   4.831   3.072
  143OSM   C10S15610   1.621   4.659   3.190
  143OSM   H10S15611   1.714   4.613   3.150
  143OSM   H10T15612   1.542   4.582   3.204
  143OSM   C11S15613   1.634   4.710   3.337
  143OSM   H11S15614   1.535   4.759   3.354
  143OSM   H11T15615   1.710   4.790   3.351
  143OSM   C12S15616   1.645   4.601   3.451
  143OSM   H12S15617   1.743   4.562   3.417
  143OSM   H12T15618   1.570   4.521   3.433
  143OSM   C13S15619   1.634   4.646   3.588
  143OSM   H13S15620   1.659   4.755   3.592
  143OSM   H13T15621   1.692   4.593   3.666
  143OSM   C14S15622   1.492   4.628   3.638
  143OSM   H14S15623   1.455   4.527   3.610
  143OSM   H14T15624   1.431   4.711   3.595
  143OSM   C15S15625   1.496   4.632   3.787
  143OSM   H15S15626   1.511   4.737   3.821
  143OSM   H15T15627   1.576   4.565   3.825
  143OSM   C16S15628   1.378   4.586   3.863
  143OSM   H16S15629   1.358   4.480   3.836
  143OSM   H16T15630   1.295   4.647   3.822
  143OSM   C17S15631   1.404   4.615   4.011
  143OSM   H17S15632   1.442   4.719   4.027
  143OSM   H17T15633   1.478   4.538   4.039
  143OSM   C18S15634   1.284   4.580   4.107
  143OSM   H18S15635   1.331   4.574   4.207
  143OSM   H18T15636   1.225   4.489   4.082
  143OSM   H18U15637   1.215   4.667   4.107
  143OSM    C1F15638   0.959   4.863   2.568
  143OSM     OF15639   0.919   4.775   2.499
  143OSM    C2F15640   0.878   4.918   2.681
  143OSM    H2F15641   0.841   5.018   2.650
  143OSM    H2G15642   0.939   4.922   2.774
  143OSM    C3F15643   0.756   4.828   2.716
  143OSM    H3F15644   0.777   4.719   2.718
  143OSM    H3G15645   0.684   4.845   2.632
  143OSM    C4F15646   0.673   4.868   2.840
  143OSM    H4F15647   0.580   4.809   2.829
  143OSM    H4G15648   0.648   4.977   2.841
  143OSM    C5F15649   0.747   4.825   2.967
  143OSM    H5F15650   0.843   4.880   2.974
  143OSM    H5G15651   0.755   4.715   2.954
  143OSM    C6F15652   0.663   4.850   3.095
  143OSM    H6F15653   0.574   4.786   3.080
  143OSM    H6G15654   0.642   4.959   3.097
  143OSM    C7F15655   0.734   4.786   3.212
  143OSM    H7F15656   0.836   4.830   3.216
  143OSM    H7G15657   0.722   4.676   3.202
  143OSM    C8F15658   0.654   4.830   3.339
  143OSM    H8F15659   0.549   4.796   3.334
  143OSM    H8G15660   0.651   4.940   3.324
  143OSM    C9F15661   0.712   4.774   3.459
  143OSM    H9F15662   0.804   4.715   3.447
  143OSM   C10F15663   0.684   4.819   3.588
  143OSM   H10F15664   0.746   4.769   3.664
  143OSM   C11F15665   0.571   4.908   3.627
  143OSM   H11F15666   0.482   4.896   3.561
  143OSM   H11G15667   0.605   5.013   3.618
  143OSM   C12F15668   0.526   4.893   3.773
  143OSM   H12F15669   0.485   4.793   3.799
  143OSM   H12G15670   0.454   4.974   3.797
  143OSM   C13F15671   0.651   4.925   3.859
  143OSM   H13F15672   0.716   5.010   3.828
  143OSM   H13G15673   0.724   4.842   3.856
  143OSM   C14F15674   0.618   4.943   4.005
  143OSM   H14F15675   0.557   4.858   4.043
  143OSM   H14G15676   0.540   5.022   4.017
  143OSM   C15F15677   0.741   4.966   4.099
  143OSM   H15F15678   0.792   5.061   4.070
  143OSM   H15G15679   0.813   4.882   4.086
  143OSM   C16F15680   0.707   4.974   4.248
  143OSM   H16F15681   0.635   4.892   4.267
  143OSM   H16G15682   0.656   5.073   4.257
  143OSM   C17F15683   0.837   4.974   4.331
  143OSM   H17F15684   0.835   5.046   4.417
  143OSM   H17G15685   0.928   4.997   4.271
  143OSM   C18F15686   0.864   4.837   4.397
  143OSM   H18F15687   0.958   4.846   4.456
  143OSM   H18G15688   0.879   4.753   4.326
  143OSM   H18H15689   0.783   4.812   4.469
  144OSM      N15690   0.703   5.560   1.854
  144OSM    C1515691   0.722   5.613   1.718
  144OSM   H15A15692   0.798   5.688   1.707
  144OSM   H15B15693   0.634   5.658   1.675
  144OSM   H15C15694   0.747   5.531   1.652
  144OSM    C1415695   0.829   5.514   1.915
  144OSM   H14A15696   0.887   5.442   1.860
  144OSM   H14B15697   0.817   5.476   2.015
  144OSM   H14C15698   0.899   5.596   1.927
  144OSM    C1315699   0.651   5.683   1.933
  144OSM   H13A15700   0.636   5.665   2.039
  144OSM   H13B15701   0.555   5.714   1.895
  144OSM   H13C15702   0.713   5.772   1.941
  144OSM    C1215703   0.598   5.450   1.865
  144OSM   H12A15704   0.629   5.355   1.822
  144OSM   H12B15705   0.517   5.482   1.801
  144OSM    C1115706   0.548   5.413   2.007
  144OSM   H11A15707   0.470   5.338   1.982
  144OSM   H11B15708   0.507   5.504   2.054
  144OSM      P15709   0.622   5.292   2.227
  144OSM    O1315710   0.486   5.229   2.231
  144OSM    O1415711   0.736   5.202   2.263
  144OSM    O1115712   0.626   5.401   2.336
  144OSM    O1215713   0.648   5.353   2.080
  144OSM    C1S15714   0.668   5.537   2.307
  144OSM    H1S15715   0.585   5.584   2.250
  144OSM    H1T15716   0.757   5.533   2.241
  144OSM     NF15717   0.702   5.764   2.416
  144OSM    HNF15718   0.792   5.807   2.424
  144OSM    C2S15719   0.688   5.617   2.444
  144OSM    H2S15720   0.594   5.601   2.500
  144OSM    C3S15721   0.809   5.548   2.516
  144OSM    H3S15722   0.896   5.584   2.457
  144OSM     O315723   0.817   5.403   2.518
  144OSM    HO315724   0.753   5.380   2.451
  144OSM    C4S15725   0.836   5.602   2.655
  144OSM    H4S15726   0.740   5.606   2.709
  144OSM    C5S15727   0.946   5.631   2.721
  144OSM    H5S15728   1.044   5.608   2.677
  144OSM    C6S15729   0.925   5.704   2.851
  144OSM    H6S15730   0.825   5.749   2.870
  144OSM    H6T15731   1.001   5.785   2.861
  144OSM    C7S15732   0.950   5.615   2.962
  144OSM    H7S15733   1.056   5.581   2.957
  144OSM    H7T15734   0.885   5.525   2.962
  144OSM    C8S15735   0.928   5.699   3.082
  144OSM    H8S15736   0.827   5.744   3.088
  144OSM    H8T15737   1.007   5.777   3.075
  144OSM    C9S15738   0.948   5.621   3.213
  144OSM    H9S15739   1.031   5.551   3.189
  144OSM    H9T15740   0.868   5.545   3.229
  144OSM   C10S15741   0.969   5.713   3.336
  144OSM   H10S15742   0.878   5.777   3.348
  144OSM   H10T15743   1.055   5.780   3.318
  144OSM   C11S15744   0.994   5.627   3.463
  144OSM   H11S15745   1.091   5.578   3.443
  144OSM   H11T15746   0.911   5.555   3.482
  144OSM   C12S15747   1.017   5.726   3.575
  144OSM   H12S15748   0.926   5.785   3.601
  144OSM   H12T15749   1.089   5.806   3.551
  144OSM   C13S15750   1.066   5.653   3.702
  144OSM   H13S15751   1.027   5.549   3.702
  144OSM   H13T15752   1.007   5.703   3.782
  144OSM   C14S15753   1.216   5.661   3.732
  144OSM   H14S15754   1.259   5.755   3.689
  144OSM   H14T15755   1.257   5.580   3.668
  144OSM   C15S15756   1.249   5.629   3.881
  144OSM   H15S15757   1.178   5.547   3.908
  144OSM   H15T15758   1.229   5.711   3.953
  144OSM   C16S15759   1.395   5.582   3.910
  144OSM   H16S15760   1.470   5.663   3.900
  144OSM   H16T15761   1.424   5.500   3.841
  144OSM   C17S15762   1.421   5.529   4.050
  144OSM   H17S15763   1.393   5.611   4.120
  144OSM   H17T15764   1.529   5.504   4.053
  144OSM   C18S15765   1.335   5.395   4.072
  144OSM   H18S15766   1.353   5.354   4.173
  144OSM   H18T15767   1.356   5.316   3.996
  144OSM   H18U15768   1.226   5.415   4.069
  144OSM    C1F15769   0.594   5.839   2.383
  144OSM     OF15770   0.492   5.775   2.359
  144OSM    C2F15771   0.611   5.991   2.376
  144OSM    H2F15772   0.648   6.015   2.275
  144OSM    H2G15773   0.676   6.019   2.461
  144OSM    C3F15774   0.475   6.068   2.397
  144OSM    H3F15775   0.413   6.015   2.472
  144OSM    H3G15776   0.406   6.053   2.311
  144OSM    C4F15777   0.498   6.224   2.407
  144OSM    H4F15778   0.399   6.274   2.397
  144OSM    H4G15779   0.564   6.263   2.327
  144OSM    C5F15780   0.549   6.255   2.550
  144OSM    H5F15781   0.640   6.193   2.563
  144OSM    H5G15782   0.476   6.220   2.627
  144OSM    C6F15783   0.560   6.407   2.573
  144OSM    H6F15784   0.548   6.428   2.681
  144OSM    H6G15785   0.475   6.450   2.515
  144OSM    C7F15786   0.696   6.464   2.530
  144OSM    H7F15787   0.697   6.510   2.428
  144OSM    H7G15788   0.767   6.379   2.521
  144OSM    C8F15789   0.745   6.570   2.631
  144OSM    H8F15790   0.661   6.636   2.661
  144OSM    H8G15791   0.822   6.635   2.584
  144OSM    C9F15792   0.820   6.509   2.742
  144OSM    H9F15793   0.800   6.401   2.751
  144OSM   C10F15794   0.879   6.576   2.841
  144OSM   H10F15795   0.940   6.526   2.918
  144OSM   C11F15796   0.885   6.723   2.855
  144OSM   H11F15797   0.872   6.770   2.755
  144OSM   H11G15798   0.983   6.753   2.899
  144OSM   C12F15799   0.769   6.789   2.935
  144OSM   H12F15800   0.671   6.755   2.895
  144OSM   H12G15801   0.780   0.016   2.902
  144OSM   C13F15802   0.778   6.785   3.089
  144OSM   H13F15803   0.885   6.764   3.109
  144OSM   H13G15804   0.720   6.695   3.119
  144OSM   C14F15805   0.718   0.027   3.167
  144OSM   H14F15806   0.622   0.059   3.123
  144OSM   H14G15807   0.791   0.111   3.165
  144OSM   C15F15808   0.703   6.855   3.310
  144OSM   H15F15809   0.799   6.812   3.344
  144OSM   H15G15810   0.627   6.773   3.313
  144OSM   C16F15811   0.653   0.088   3.405
  144OSM   H16F15812   0.562   0.139   3.367
  144OSM   H16G15813   0.726   0.171   3.405
  144OSM   C17F15814   0.628   0.038   3.551
  144OSM   H17F15815   0.723   6.872   3.587
  144OSM   H17G15816   0.566   6.824   3.553
  144OSM   C18F15817   0.579   0.146   3.647
  144OSM   H18F15818   0.648   0.232   3.657
  144OSM   H18G15819   0.563   0.099   3.746
  144OSM   H18H15820   0.488   0.187   3.600
  145SAPE     N15821   1.308   1.198   6.731
  145SAPE   HN115822   1.366   1.283   6.745
  145SAPE   HN215823   1.230   1.226   6.669
  145SAPE   HN315824   1.268   1.171   6.823
  145SAPE   C1215825   1.378   1.092   6.657
  145SAPE  H12A15826   1.433   1.029   6.730
  145SAPE  H12B15827   1.468   1.132   6.604
  145SAPE   C1115828   1.290   1.004   6.567
  145SAPE  H11A15829   1.349   0.917   6.532
  145SAPE  H11B15830   1.269   1.068   6.479
  145SAPE     P15831   1.081   0.848   6.568
  145SAPE   O1315832   1.161   0.727   6.593
  145SAPE   O1415833   0.948   0.854   6.623
  145SAPE   O1215834   1.170   0.965   6.634
  145SAPE   O1115835   1.085   0.883   6.410
  145SAPE    C115836   0.992   0.985   6.372
  145SAPE    HA15837   0.959   1.051   6.455
  145SAPE    HB15838   1.035   1.043   6.288
  145SAPE    C215839   0.874   0.915   6.305
  145SAPE    HS15840   0.810   0.855   6.374
  145SAPE   O2115841   0.923   0.836   6.194
  145SAPE   C2115842   0.910   0.700   6.191
  145SAPE   O2215843   0.870   0.631   6.284
  145SAPE   C2215844   0.952   0.646   6.055
  145SAPE   H2R15845   0.945   0.727   5.979
  145SAPE   H2S15846   1.062   0.631   6.068
  145SAPE    C315847   0.774   1.016   6.244
  145SAPE    HX15848   0.830   1.110   6.222
  145SAPE    HY15849   0.708   1.047   6.328
  145SAPE   O3115850   0.699   0.969   6.130
  145SAPE   C3115851   0.731   1.009   6.008
  145SAPE   O3215852   0.794   1.109   5.986
  145SAPE   C3215853   0.666   0.921   5.905
  145SAPE   H2X15854   0.556   0.934   5.897
  145SAPE   H2Y15855   0.663   0.817   5.942
  145SAPE   C2315856   0.891   0.507   6.025
  145SAPE   H3R15857   0.782   0.505   6.043
  145SAPE   H3S15858   0.933   0.429   6.093
  145SAPE   C2415859   0.902   0.477   5.876
  145SAPE   H4R15860   0.859   0.555   5.810
  145SAPE   H4S15861   0.833   0.392   5.859
  145SAPE   C2515862   1.048   0.443   5.843
  145SAPE   H5R15863   1.113   0.459   5.930
  145SAPE   C2615864   1.098   0.391   5.730
  145SAPE   H6R15865   1.206   0.372   5.721
  145SAPE   C2715866   1.009   0.347   5.610
  145SAPE   H7R15867   0.902   0.344   5.638
  145SAPE   H7S15868   1.034   0.241   5.587
  145SAPE   C2815869   1.036   0.437   5.490
  145SAPE   H8R15870   1.023   0.543   5.519
  145SAPE   C2915871   1.071   0.396   5.365
  145SAPE   H9R15872   1.070   0.478   5.292
  145SAPE  C21015873   1.061   0.256   5.311
  145SAPE  H10R15874   0.967   0.254   5.253
  145SAPE  H10S15875   1.032   0.175   5.381
  145SAPE  C21115876   1.178   0.223   5.215
  145SAPE  H11R15877   1.259   0.296   5.205
  145SAPE  C21215878   1.200   0.099   5.166
  145SAPE  H12R15879   1.283   0.071   5.099
  145SAPE  C21315880   1.112   6.862   5.188
  145SAPE  H13R15881   1.076   6.859   5.293
  145SAPE  H13S15882   1.166   6.766   5.173
  145SAPE  C21415883   0.993   0.000   5.100
  145SAPE  H14R15884   0.910   0.065   5.133
  145SAPE  C21515885   0.978   6.807   4.987
  145SAPE  H15R15886   0.882   6.817   4.933
  145SAPE  C21615887   1.086   6.712   4.927
  145SAPE  H16R15888   1.041   6.628   4.870
  145SAPE  H16S15889   1.152   6.667   5.005
  145SAPE  C21715890   1.161   6.786   4.807
  145SAPE  H17R15891   1.207   0.004   4.839
  145SAPE  H17S15892   1.091   6.803   4.722
  145SAPE  C21815893   1.275   6.691   4.755
  145SAPE  H18R15894   1.237   6.587   4.745
  145SAPE  H18S15895   1.351   6.696   4.836
  145SAPE  C21915896   1.344   6.727   4.620
  145SAPE  H19R15897   1.422   6.649   4.604
  145SAPE  H19S15898   1.401   6.820   4.639
  145SAPE  C22015899   1.237   6.732   4.508
  145SAPE  H20R15900   1.282   6.727   4.406
  145SAPE  H20S15901   1.186   6.830   4.511
  145SAPE  H20T15902   1.163   6.649   4.509
  145SAPE   C3315903   0.739   0.943   5.769
  145SAPE   H3X15904   0.849   0.926   5.777
  145SAPE   H3Y15905   0.723   1.045   5.728
  145SAPE   C3415906   0.697   0.844   5.668
  145SAPE   H4X15907   0.594   0.860   5.629
  145SAPE   H4Y15908   0.687   0.754   5.732
  145SAPE   C3515909   0.804   0.830   5.558
  145SAPE   H5X15910   0.892   0.788   5.610
  145SAPE   H5Y15911   0.825   0.933   5.522
  145SAPE   C3615912   0.777   0.723   5.454
  145SAPE   H6X15913   0.679   0.740   5.403
  145SAPE   H6Y15914   0.779   0.623   5.503
  145SAPE   C3715915   0.875   0.730   5.330
  145SAPE   H7X15916   0.980   0.705   5.356
  145SAPE   H7Y15917   0.872   0.836   5.295
  145SAPE   C3815918   0.825   0.633   5.221
  145SAPE   H8X15919   0.719   0.651   5.191
  145SAPE   H8Y15920   0.819   0.534   5.270
  145SAPE   C3915921   0.919   0.617   5.098
  145SAPE   H9X15922   1.019   0.626   5.147
  145SAPE   H9Y15923   0.902   0.711   5.043
  145SAPE  C31015924   0.914   0.485   5.027
  145SAPE  H10X15925   0.807   0.472   5.001
  145SAPE  H10Y15926   0.938   0.400   5.095
  145SAPE  C31115927   1.010   0.486   4.910
  145SAPE  H11X15928   1.102   0.536   4.947
  145SAPE  H11Y15929   0.976   0.557   4.831
  145SAPE  C31215930   1.034   0.358   4.835
  145SAPE  H12X15931   0.928   0.332   4.815
  145SAPE  H12Y15932   1.081   0.282   4.900
  145SAPE  C31315933   1.116   0.376   4.708
  145SAPE  H13X15934   1.177   0.469   4.711
  145SAPE  H13Y15935   1.056   0.406   4.619
  145SAPE  C31415936   1.218   0.268   4.680
  145SAPE  H14X15937   1.172   0.168   4.693
  145SAPE  H14Y15938   1.289   0.284   4.764
  145SAPE  C31515939   1.294   0.280   4.548
  145SAPE  H15X15940   1.222   0.274   4.464
  145SAPE  H15Y15941   1.367   0.196   4.547
  145SAPE  C31615942   1.374   0.416   4.517
  145SAPE  H16X15943   1.455   0.417   4.594
  145SAPE  H16Y15944   1.314   0.508   4.535
  145SAPE  C31715945   1.430   0.410   4.373
  145SAPE  H17X15946   1.467   0.509   4.338
  145SAPE  H17Y15947   1.354   0.372   4.302
  145SAPE  C31815948   1.540   0.302   4.369
  145SAPE  H18X15949   1.581   0.311   4.266
  145SAPE  H18Y15950   1.501   0.198   4.377
  145SAPE  H18Z15951   1.619   0.328   4.442
  146SAPE     N15952   4.433   6.672   6.530
  146SAPE   HN115953   4.496   6.728   6.589
  146SAPE   HN215954   4.437   6.577   6.573
  146SAPE   HN315955   4.464   6.664   6.431
  146SAPE   C1215956   4.304   6.748   6.544
  146SAPE  H12A15957   4.261   6.744   6.646
  146SAPE  H12B15958   4.233   6.707   6.469
  146SAPE   C1115959   4.329   0.022   6.528
  146SAPE  H11A15960   4.371   0.062   6.623
  146SAPE  H11B15961   4.230   0.069   6.518
  146SAPE     P15962   4.428   0.206   6.376
  146SAPE   O1315963   4.405   0.295   6.492
  146SAPE   O1415964   4.554   0.225   6.299
  146SAPE   O1215965   4.420   0.057   6.423
  146SAPE   O1115966   4.306   0.214   6.286
  146SAPE    C115967   4.274   0.097   6.212
  146SAPE    HA15968   4.251   0.009   6.277
  146SAPE    HB15969   4.185   0.129   6.153
  146SAPE    C215970   4.361   0.067   6.087
  146SAPE    HS15971   4.459   0.024   6.115
  146SAPE   O2115972   4.387   0.196   6.025
  146SAPE   C2115973   4.487   0.194   5.938
  146SAPE   O2215974   4.548   0.102   5.897
  146SAPE   C2215975   4.500   0.336   5.867
  146SAPE   H2R15976   4.460   0.411   5.939
  146SAPE   H2S15977   4.606   0.360   5.847
  146SAPE    C315978   4.281   6.846   5.997
  146SAPE    HX15979   4.187   0.010   5.956
  146SAPE    HY15980   4.242   6.767   6.065
  146SAPE   O3115981   4.353   6.787   5.889
  146SAPE   C3115982   4.443   6.685   5.902
  146SAPE   O3215983   4.492   6.645   6.003
  146SAPE   C3215984   4.490   6.629   5.772
  146SAPE   H2X15985   4.599   6.607   5.779
  146SAPE   H2Y15986   4.485   6.708   5.694
  146SAPE   C2315987   4.428   0.333   5.729
  146SAPE   H3R15988   4.321   0.309   5.744
  146SAPE   H3S15989   4.480   0.259   5.664
  146SAPE   C2415990   4.429   0.472   5.653
  146SAPE   H4R15991   4.381   0.460   5.554
  146SAPE   H4S15992   4.533   0.504   5.630
  146SAPE   C2515993   4.351   0.582   5.712
  146SAPE   H5R15994   4.407   0.638   5.789
  146SAPE   C2615995   4.221   0.608   5.678
  146SAPE   H6R15996   4.169   0.678   5.745
  146SAPE   C2715997   4.127   0.540   5.575
  146SAPE   H7R15998   4.149   0.431   5.582
  146SAPE   H7S15999   4.141   0.583   5.474
  146SAPE   C2816000   3.977   0.550   5.615
  146SAPE   H8R16001   3.951   0.512   5.715
  146SAPE   C2916002   3.878   0.589   5.537
  146SAPE   H9R16003   3.773   0.579   5.568
  146SAPE  C21016004   3.880   0.636   5.391
  146SAPE  H10R16005   3.789   0.592   5.343
  146SAPE  H10S16006   3.969   0.598   5.337
  146SAPE  C21116007   3.864   0.785   5.371
  146SAPE  H11R16008   3.860   0.839   5.467
  146SAPE  C21216009   3.889   0.851   5.252
  146SAPE  H12R16010   3.863   0.958   5.259
  146SAPE  C21316011   3.938   0.809   5.117
  146SAPE  H13R16012   3.937   0.698   5.111
  146SAPE  H13S16013   4.042   0.846   5.103
  146SAPE  C21416014   3.840   0.860   5.007
  146SAPE  H14R16015   3.734   0.842   5.031
  146SAPE  C21516016   3.867   0.883   4.877
  146SAPE  H15R16017   3.787   0.923   4.813
  146SAPE  C21616018   4.008   0.901   4.809
  146SAPE  H16R16019   4.004   0.862   4.705
  146SAPE  H16S16020   4.071   0.835   4.873
  146SAPE  C21716021   4.064   1.041   4.821
  146SAPE  H17R16022   3.975   1.107   4.813
  146SAPE  H17S16023   4.118   1.051   4.725
  146SAPE  C21816024   4.140   1.057   4.951
  146SAPE  H18R16025   4.222   0.988   4.978
  146SAPE  H18S16026   4.071   1.041   5.037
  146SAPE  C21916027   4.214   1.191   4.955
  146SAPE  H19R16028   4.226   1.212   5.063
  146SAPE  H19S16029   4.146   1.275   4.927
  146SAPE  C22016030   4.346   1.195   4.876
  146SAPE  H20R16031   4.416   1.122   4.921
  146SAPE  H20S16032   4.374   1.302   4.887
  146SAPE  H20T16033   4.317   1.190   4.769
  146SAPE   C3316034   4.407   6.510   5.713
  146SAPE   H3X16035   4.303   6.551   5.720
  146SAPE   H3Y16036   4.412   6.415   5.770
  146SAPE   C3416037   4.427   6.472   5.568
  146SAPE   H4X16038   4.447   6.562   5.508
  146SAPE   H4Y16039   4.330   6.423   5.543
  146SAPE   C3516040   4.542   6.377   5.542
  146SAPE   H5X16041   4.543   6.288   5.608
  146SAPE   H5Y16042   4.642   6.424   5.556
  146SAPE   C3616043   4.527   6.323   5.398
  146SAPE   H6X16044   4.575   6.394   5.328
  146SAPE   H6Y16045   4.419   6.320   5.374
  146SAPE   C3716046   4.597   6.181   5.388
  146SAPE   H7X16047   4.559   6.107   5.462
  146SAPE   H7Y16048   4.707   6.184   5.400
  146SAPE   C3816049   4.566   6.125   5.247
  146SAPE   H8X16050   4.605   6.200   5.175
  146SAPE   H8Y16051   4.455   6.130   5.246
  146SAPE   C3916052   4.629   5.989   5.217
  146SAPE   H9X16053   4.587   5.911   5.284
  146SAPE   H9Y16054   4.735   5.985   5.251
  146SAPE  C31016055   4.640   5.969   5.070
  146SAPE  H10X16056   4.704   5.879   5.061
  146SAPE  H10Y16057   4.681   6.058   5.017
  146SAPE  C31116058   4.502   5.951   4.996
  146SAPE  H11X16059   4.453   6.050   5.003
  146SAPE  H11Y16060   4.446   5.876   5.056
  146SAPE  C31216061   4.506   5.897   4.851
  146SAPE  H12X16062   4.582   5.817   4.850
  146SAPE  H12Y16063   4.554   5.977   4.792
  146SAPE  C31316064   4.373   5.847   4.788
  146SAPE  H13X16065   4.300   5.838   4.871
  146SAPE  H13Y16066   4.388   5.747   4.742
  146SAPE  C31416067   4.313   5.942   4.687
  146SAPE  H14X16068   4.238   5.890   4.623
  146SAPE  H14Y16069   4.394   5.993   4.631
  146SAPE  C31516070   4.229   6.053   4.750
  146SAPE  H15X16071   4.292   6.133   4.795
  146SAPE  H15Y16072   4.162   6.011   4.829
  146SAPE  C31616073   4.141   6.122   4.644
  146SAPE  H16X16074   4.066   6.051   4.601
  146SAPE  H16Y16075   4.201   6.167   4.562
  146SAPE  C31716076   4.065   6.243   4.706
  146SAPE  H17X16077   4.133   6.323   4.742
  146SAPE  H17Y16078   4.013   6.206   4.797
  146SAPE  C31816079   3.974   6.302   4.601
  146SAPE  H18X16080   3.917   6.216   4.559
  146SAPE  H18Y16081   4.032   6.349   4.519
  146SAPE  H18Z16082   3.905   6.379   4.644
  147SAPE     N16083   4.444   5.188   6.354
  147SAPE   HN116084   4.514   5.199   6.278
  147SAPE   HN216085   4.439   5.087   6.377
  147SAPE   HN316086   4.351   5.215   6.316
  147SAPE   C1216087   4.481   5.264   6.480
  147SAPE  H12A16088   4.546   5.211   6.553
  147SAPE  H12B16089   4.385   5.289   6.530
  147SAPE   C1116090   4.556   5.392   6.440
  147SAPE  H11A16091   4.557   5.462   6.526
  147SAPE  H11B16092   4.504   5.441   6.355
  147SAPE     P16093   4.813   5.369   6.488
  147SAPE   O1316094   4.829   5.505   6.544
  147SAPE   O1416095   4.816   5.264   6.597
  147SAPE   O1216096   4.687   5.359   6.397
  147SAPE   O1116097   4.925   5.330   6.395
  147SAPE    C116098   4.913   5.230   6.295
  147SAPE    HA16099   4.990   5.152   6.314
  147SAPE    HB16100   4.809   5.192   6.287
  147SAPE    C216101   4.930   5.295   6.156
  147SAPE    HS16102   5.030   5.343   6.152
  147SAPE   O2116103   4.818   5.388   6.123
  147SAPE   C2116104   4.848   5.514   6.144
  147SAPE   O2216105   4.950   5.565   6.184
  147SAPE   C2216106   4.722   5.596   6.106
  147SAPE   H2R16107   4.641   5.525   6.080
  147SAPE   H2S16108   4.689   5.657   6.193
  147SAPE    C316109   4.935   5.179   6.051
  147SAPE    HX16110   4.852   5.108   6.070
  147SAPE    HY16111   5.030   5.124   6.069
  147SAPE   O3116112   4.949   5.227   5.915
  147SAPE   C3116113   4.837   5.236   5.842
  147SAPE   O3216114   4.725   5.229   5.889
  147SAPE   C3216115   4.878   5.253   5.694
  147SAPE   H2X16116   4.908   5.153   5.655
  147SAPE   H2Y16117   4.970   5.315   5.696
  147SAPE   C2316118   4.747   5.675   5.984
  147SAPE   H3R16119   4.818   5.756   6.012
  147SAPE   H3S16120   4.653   5.726   5.953
  147SAPE   C2416121   4.792   5.602   5.850
  147SAPE   H4R16122   4.706   5.539   5.820
  147SAPE   H4S16123   4.892   5.554   5.864
  147SAPE   C2516124   4.805   5.702   5.733
  147SAPE   H5R16125   4.713   5.762   5.724
  147SAPE   C2616126   4.904   5.716   5.642
  147SAPE   H6R16127   4.907   5.801   5.572
  147SAPE   C2716128   5.026   5.624   5.637
  147SAPE   H7R16129   5.000   5.526   5.591
  147SAPE   H7S16130   5.065   5.606   5.739
  147SAPE   C2816131   5.136   5.681   5.554
  147SAPE   H8R16132   5.221   5.712   5.617
  147SAPE   C2916133   5.154   5.684   5.419
  147SAPE   H9R16134   5.241   5.738   5.378
  147SAPE  C21016135   5.048   5.637   5.322
  147SAPE  H10R16136   4.954   5.611   5.375
  147SAPE  H10S16137   5.074   5.536   5.282
  147SAPE  C21116138   5.018   5.732   5.206
  147SAPE  H11R16139   4.975   5.831   5.228
  147SAPE  C21216140   5.062   5.714   5.081
  147SAPE  H12R16141   5.036   5.797   5.013
  147SAPE  C21316142   5.143   5.599   5.012
  147SAPE  H13R16143   5.128   5.504   5.066
  147SAPE  H13S16144   5.248   5.624   5.037
  147SAPE  C21416145   5.114   5.580   4.865
  147SAPE  H14R16146   5.011   5.549   4.844
  147SAPE  C21516147   5.204   5.614   4.768
  147SAPE  H15R16148   5.170   5.590   4.666
  147SAPE  C21616149   5.339   5.670   4.789
  147SAPE  H16R16150   5.413   5.596   4.826
  147SAPE  H16S16151   5.336   5.749   4.867
  147SAPE  C21716152   5.393   5.720   4.657
  147SAPE  H17R16153   5.487   5.775   4.680
  147SAPE  H17S16154   5.335   5.803   4.612
  147SAPE  C21816155   5.422   5.605   4.559
  147SAPE  H18R16156   5.339   5.586   4.488
  147SAPE  H18S16157   5.440   5.507   4.607
  147SAPE  C21916158   5.550   5.627   4.482
  147SAPE  H19R16159   5.636   5.614   4.552
  147SAPE  H19S16160   5.555   5.727   4.433
  147SAPE  C22016161   5.577   5.522   4.371
  147SAPE  H20R16162   5.584   5.424   4.423
  147SAPE  H20S16163   5.671   5.560   4.327
  147SAPE  H20T16164   5.505   5.513   4.287
  147SAPE   C3316165   4.766   5.317   5.596
  147SAPE   H3X16166   4.750   5.424   5.621
  147SAPE   H3Y16167   4.665   5.270   5.600
  147SAPE   C3416168   4.818   5.313   5.459
  147SAPE   H4X16169   4.843   5.206   5.439
  147SAPE   H4Y16170   4.905   5.381   5.446
  147SAPE   C3516171   4.719   5.359   5.357
  147SAPE   H5X16172   4.694   5.466   5.374
  147SAPE   H5Y16173   4.623   5.306   5.375
  147SAPE   C3616174   4.774   5.338   5.215
  147SAPE   H6X16175   4.812   5.234   5.203
  147SAPE   H6Y16176   4.870   5.394   5.208
  147SAPE   C3716177   4.678   5.387   5.102
  147SAPE   H7X16178   4.617   5.472   5.139
  147SAPE   H7Y16179   4.603   5.308   5.079
  147SAPE   C3816180   4.739   5.438   4.970
  147SAPE   H8X16181   4.801   5.354   4.930
  147SAPE   H8Y16182   4.812   5.520   4.987
  147SAPE   C3916183   4.631   5.476   4.869
  147SAPE   H9X16184   4.577   5.567   4.904
  147SAPE   H9Y16185   4.561   5.390   4.863
  147SAPE  C31016186   4.691   5.499   4.733
  147SAPE  H10X16187   4.720   5.401   4.689
  147SAPE  H10Y16188   4.781   5.563   4.745
  147SAPE  C31116189   4.598   5.565   4.642
  147SAPE  H11X16190   4.574   5.671   4.667
  147SAPE  H11Y16191   4.497   5.518   4.640
  147SAPE  C31216192   4.651   5.568   4.501
  147SAPE  H12X16193   4.636   5.464   4.463
  147SAPE  H12Y16194   4.759   5.590   4.513
  147SAPE  C31316195   4.594   5.675   4.402
  147SAPE  H13X16196   4.483   5.680   4.397
  147SAPE  H13Y16197   4.621   5.621   4.309
  147SAPE  C31416198   4.664   5.812   4.400
  147SAPE  H14X16199   4.772   5.792   4.415
  147SAPE  H14Y16200   4.640   5.854   4.500
  147SAPE  C31516201   4.633   5.910   4.287
  147SAPE  H15X16202   4.631   5.851   4.193
  147SAPE  H15Y16203   4.717   5.981   4.271
  147SAPE  C31616204   4.500   5.968   4.305
  147SAPE  H16X16205   4.495   6.021   4.402
  147SAPE  H16Y16206   4.429   5.882   4.309
  147SAPE  C31716207   4.447   6.056   4.187
  147SAPE  H17X16208   4.506   6.150   4.183
  147SAPE  H17Y16209   4.340   6.082   4.201
  147SAPE  C31816210   4.460   5.994   4.048
  147SAPE  H18X16211   4.565   5.967   4.023
  147SAPE  H18Y16212   4.426   6.067   3.972
  147SAPE  H18Z16213   4.393   5.905   4.043
  148SAPE     N16214   1.724   0.215   6.686
  148SAPE   HN116215   1.624   0.197   6.706
  148SAPE   HN216216   1.781   0.141   6.731
  148SAPE   HN316217   1.748   0.312   6.716
  148SAPE   C1216218   1.749   0.210   6.537
  148SAPE  H12A16219   1.855   0.182   6.518
  148SAPE  H12B16220   1.725   0.311   6.495
  148SAPE   C1116221   1.668   0.096   6.459
  148SAPE  H11A16222   1.669   0.119   6.351
  148SAPE  H11B16223   1.563   0.105   6.495
  148SAPE     P16224   1.832   6.767   6.425
  148SAPE   O1316225   1.940   6.774   6.530
  148SAPE   O1416226   1.791   6.636   6.369
  148SAPE   O1216227   1.712   6.841   6.490
  148SAPE   O1116228   1.872   6.871   6.314
  148SAPE    C116229   1.831   0.014   6.179
  148SAPE    HA16230   1.725   6.861   6.165
  148SAPE    HB16231   1.846   0.120   6.150
  148SAPE    C216232   1.917   6.799   6.090
  148SAPE    HS16233   1.902   6.694   6.124
  148SAPE   O2116234   2.060   6.834   6.105
  148SAPE   C2116235   2.143   6.735   6.079
  148SAPE   O2216236   2.114   6.624   6.039
  148SAPE   C2216237   2.289   6.774   6.123
  148SAPE   H2R16238   2.297   0.007   6.117
  148SAPE   H2S16239   2.303   6.742   6.228
  148SAPE    C316240   1.869   6.813   5.941
  148SAPE    HX16241   1.903   0.034   5.903
  148SAPE    HY16242   1.759   6.819   5.934
  148SAPE   O3116243   1.917   6.714   5.861
  148SAPE   C3116244   1.849   6.596   5.869
  148SAPE   O3216245   1.743   6.578   5.929
  148SAPE   C3216246   1.910   6.506   5.755
  148SAPE   H2X16247   1.945   6.416   5.810
  148SAPE   H2Y16248   2.001   6.550   5.709
  148SAPE   C2316249   2.399   6.711   6.039
  148SAPE   H3R16250   2.407   6.601   6.045
  148SAPE   H3S16251   2.497   6.749   6.077
  148SAPE   C2416252   2.409   6.748   5.885
  148SAPE   H4R16253   2.326   6.695   5.834
  148SAPE   H4S16254   2.501   6.708   5.837
  148SAPE   C2516255   2.402   0.016   5.859
  148SAPE   H5R16256   2.479   0.072   5.914
  148SAPE   C2616257   2.316   0.083   5.783
  148SAPE   H6R16258   2.312   0.192   5.796
  148SAPE   C2716259   2.214   0.021   5.686
  148SAPE   H7R16260   2.126   6.860   5.742
  148SAPE   H7S16261   2.267   6.813   5.638
  148SAPE   C2816262   2.167   0.124   5.582
  148SAPE   H8R16263   2.181   0.230   5.609
  148SAPE   C2916264   2.112   0.090   5.465
  148SAPE   H9R16265   2.095   0.173   5.396
  148SAPE  C21016266   2.086   6.833   5.397
  148SAPE  H10R16267   2.090   6.751   5.472
  148SAPE  H10S16268   2.171   6.830   5.326
  148SAPE  C21116269   1.952   6.828   5.330
  148SAPE  H11R16270   1.866   6.830   5.398
  148SAPE  C21216271   1.930   6.848   5.197
  148SAPE  H12R16272   1.826   6.854   5.163
  148SAPE  C21316273   2.036   6.850   5.087
  148SAPE  H13R16274   2.131   0.004   5.137
  148SAPE  H13S16275   2.009   0.048   5.011
  148SAPE  C21416276   2.060   6.719   5.023
  148SAPE  H14R16277   1.969   6.657   5.018
  148SAPE  C21516278   2.177   6.683   4.958
  148SAPE  H15R16279   2.178   6.588   4.903
  148SAPE  C21616280   2.291   6.774   4.936
  148SAPE  H16R16281   2.386   6.730   4.973
  148SAPE  H16S16282   2.277   6.874   4.981
  148SAPE  C21716283   2.322   6.801   4.784
  148SAPE  H17R16284   2.406   6.873   4.791
  148SAPE  H17S16285   2.241   6.846   4.723
  148SAPE  C21816286   2.361   6.675   4.710
  148SAPE  H18R16287   2.279   6.600   4.713
  148SAPE  H18S16288   2.453   6.636   4.760
  148SAPE  C21916289   2.397   6.704   4.563
  148SAPE  H19R16290   2.463   6.794   4.563
  148SAPE  H19S16291   2.308   6.741   4.507
  148SAPE  C22016292   2.451   6.583   4.492
  148SAPE  H20R16293   2.359   6.524   4.471
  148SAPE  H20S16294   2.527   6.532   4.556
  148SAPE  H20T16295   2.495   6.612   4.395
  148SAPE   C3316296   1.810   6.465   5.651
  148SAPE   H3X16297   1.787   6.554   5.588
  148SAPE   H3Y16298   1.715   6.424   5.691
  148SAPE   C3416299   1.871   6.360   5.555
  148SAPE   H4X16300   1.786   6.309   5.504
  148SAPE   H4Y16301   1.925   6.279   5.608
  148SAPE   C3516302   1.971   6.416   5.452
  148SAPE   H5X16303   2.066   6.453   5.495
  148SAPE   H5Y16304   1.932   6.505   5.398
  148SAPE   C3616305   1.989   6.300   5.353
  148SAPE   H6X16306   1.894   6.258   5.314
  148SAPE   H6Y16307   2.037   6.215   5.408
  148SAPE   C3716308   2.077   6.358   5.244
  148SAPE   H7X16309   2.169   6.393   5.296
  148SAPE   H7Y16310   2.015   6.445   5.212
  148SAPE   C3816311   2.110   6.263   5.128
  148SAPE   H8X16312   2.025   6.198   5.099
  148SAPE   H8Y16313   2.195   6.205   5.171
  148SAPE   C3916314   2.139   6.335   5.001
  148SAPE   H9X16315   2.207   6.416   5.033
  148SAPE   H9Y16316   2.052   6.382   4.951
  148SAPE  C31016317   2.192   6.234   4.896
  148SAPE  H10X16318   2.153   6.131   4.904
  148SAPE  H10Y16319   2.301   6.222   4.917
  148SAPE  C31116320   2.166   6.273   4.750
  148SAPE  H11X16321   2.232   6.360   4.729
  148SAPE  H11Y16322   2.061   6.309   4.744
  148SAPE  C31216323   2.187   6.159   4.644
  148SAPE  H12X16324   2.155   6.189   4.543
  148SAPE  H12Y16325   2.125   6.074   4.683
  148SAPE  C31316326   2.332   6.114   4.645
  148SAPE  H13X16327   2.350   6.013   4.605
  148SAPE  H13Y16328   2.377   6.107   4.747
  148SAPE  C31416329   2.405   6.221   4.558
  148SAPE  H14X16330   2.354   6.320   4.563
  148SAPE  H14Y16331   2.395   6.184   4.453
  148SAPE  C31516332   2.550   6.236   4.592
  148SAPE  H15X16333   2.574   6.254   4.699
  148SAPE  H15Y16334   2.582   6.317   4.523
  148SAPE  C31616335   2.632   6.111   4.549
  148SAPE  H16X16336   2.637   6.091   4.440
  148SAPE  H16Y16337   2.584   6.022   4.595
  148SAPE  C31716338   2.779   6.101   4.600
  148SAPE  H17X16339   2.832   6.018   4.549
  148SAPE  H17Y16340   2.780   6.103   4.711
  148SAPE  C31816341   2.861   6.215   4.555
  148SAPE  H18X16342   2.860   6.228   4.445
  148SAPE  H18Y16343   2.970   6.194   4.567
  148SAPE  H18Z16344   2.820   6.311   4.592
  149SAPE     N16345   2.199   1.779   6.130
  149SAPE   HN116346   2.244   1.728   6.052
  149SAPE   HN216347   2.253   1.868   6.140
  149SAPE   HN316348   2.212   1.730   6.221
  149SAPE   C1216349   2.059   1.795   6.091
  149SAPE  H12A16350   2.008   1.696   6.093
  149SAPE  H12B16351   2.068   1.821   5.983
  149SAPE   C1116352   1.983   1.891   6.184
  149SAPE  H11A16353   1.877   1.884   6.153
  149SAPE  H11B16354   2.001   1.998   6.160
  149SAPE     P16355   1.916   1.780   6.424
  149SAPE   O1316356   2.001   1.743   6.543
  149SAPE   O1416357   1.792   1.859   6.448
  149SAPE   O1216358   2.009   1.869   6.323
  149SAPE   O1116359   1.878   1.644   6.352
  149SAPE    C116360   1.744   1.630   6.296
  149SAPE    HA16361   1.676   1.602   6.379
  149SAPE    HB16362   1.707   1.726   6.255
  149SAPE    C216363   1.731   1.527   6.180
  149SAPE    HS16364   1.683   1.432   6.213
  149SAPE   O2116365   1.863   1.495   6.124
  149SAPE   C2116366   1.916   1.382   6.169
  149SAPE   O2216367   1.868   1.313   6.260
  149SAPE   C2216368   2.019   1.343   6.067
  149SAPE   H2R16369   1.992   1.381   5.966
  149SAPE   H2S16370   2.112   1.393   6.100
  149SAPE    C316371   1.630   1.584   6.070
  149SAPE    HX16372   1.664   1.679   6.023
  149SAPE    HY16373   1.534   1.616   6.116
  149SAPE   O3116374   1.597   1.478   5.975
  149SAPE   C3116375   1.674   1.473   5.870
  149SAPE   O3216376   1.735   1.572   5.831
  149SAPE   C3216377   1.667   1.334   5.817
  149SAPE   H2X16378   1.642   1.255   5.891
  149SAPE   H2Y16379   1.763   1.309   5.767
  149SAPE   C2316380   2.060   1.192   6.070
  149SAPE   H3R16381   1.980   1.126   6.030
  149SAPE   H3S16382   2.063   1.158   6.176
  149SAPE   C2416383   2.191   1.172   5.997
  149SAPE   H4R16384   2.261   1.174   6.083
  149SAPE   H4S16385   2.229   1.252   5.930
  149SAPE   C2516386   2.208   1.034   5.941
  149SAPE   H5R16387   2.203   0.957   6.020
  149SAPE   C2616388   2.196   0.996   5.813
  149SAPE   H6R16389   2.222   0.892   5.789
  149SAPE   C2716390   2.201   1.080   5.688
  149SAPE   H7R16391   2.231   1.024   5.597
  149SAPE   H7S16392   2.285   1.151   5.693
  149SAPE   C2816393   2.066   1.151   5.678
  149SAPE   H8R16394   2.026   1.209   5.763
  149SAPE   C2916395   1.993   1.167   5.564
  149SAPE   H9R16396   1.897   1.219   5.573
  149SAPE  C21016397   2.015   1.110   5.425
  149SAPE  H10R16398   1.985   1.003   5.429
  149SAPE  H10S16399   2.122   1.099   5.398
  149SAPE  C21116400   1.922   1.185   5.335
  149SAPE  H11R16401   1.873   1.278   5.368
  149SAPE  C21216402   1.910   1.157   5.205
  149SAPE  H12R16403   1.828   1.208   5.153
  149SAPE  C21316404   1.973   1.035   5.133
  149SAPE  H13R16405   1.993   0.960   5.212
  149SAPE  H13S16406   2.073   1.076   5.107
  149SAPE  C21416407   1.890   0.984   5.024
  149SAPE  H14R16408   1.795   0.945   5.064
  149SAPE  C21516409   1.927   0.968   4.895
  149SAPE  H15R16410   1.850   0.926   4.830
  149SAPE  C21616411   2.048   1.031   4.831
  149SAPE  H16R16412   2.098   0.959   4.764
  149SAPE  H16S16413   2.133   1.037   4.903
  149SAPE  C21716414   2.022   1.165   4.760
  149SAPE  H17R16415   2.113   1.218   4.725
  149SAPE  H17S16416   1.962   1.231   4.826
  149SAPE  C21816417   1.934   1.138   4.643
  149SAPE  H18R16418   1.878   1.232   4.627
  149SAPE  H18S16419   1.859   1.063   4.676
  149SAPE  C21916420   2.009   1.100   4.510
  149SAPE  H19R16421   2.083   1.020   4.534
  149SAPE  H19S16422   2.076   1.185   4.484
  149SAPE  C22016423   1.915   1.058   4.397
  149SAPE  H20R16424   1.871   0.962   4.432
  149SAPE  H20S16425   1.965   1.041   4.300
  149SAPE  H20T16426   1.833   1.132   4.388
  149SAPE   C3316427   1.553   1.320   5.709
  149SAPE   H3X16428   1.454   1.362   5.735
  149SAPE   H3Y16429   1.536   1.211   5.692
  149SAPE   C3416430   1.605   1.379   5.577
  149SAPE   H4X16431   1.710   1.352   5.556
  149SAPE   H4Y16432   1.603   1.487   5.606
  149SAPE   C3516433   1.508   1.361   5.459
  149SAPE   H5X16434   1.419   1.427   5.472
  149SAPE   H5Y16435   1.464   1.260   5.470
  149SAPE   C3616436   1.566   1.399   5.323
  149SAPE   H6X16437   1.656   1.338   5.301
  149SAPE   H6Y16438   1.603   1.503   5.308
  149SAPE   C3716439   1.462   1.361   5.217
  149SAPE   H7X16440   1.368   1.412   5.248
  149SAPE   H7Y16441   1.443   1.253   5.236
  149SAPE   C3816442   1.504   1.387   5.075
  149SAPE   H8X16443   1.585   1.464   5.073
  149SAPE   H8Y16444   1.417   1.421   5.015
  149SAPE   C3916445   1.548   1.259   5.000
  149SAPE   H9X16446   1.471   1.179   5.006
  149SAPE   H9Y16447   1.637   1.220   5.055
  149SAPE  C31016448   1.594   1.278   4.853
  149SAPE  H10X16449   1.705   1.288   4.850
  149SAPE  H10Y16450   1.547   1.367   4.807
  149SAPE  C31116451   1.565   1.151   4.771
  149SAPE  H11X16452   1.586   1.067   4.840
  149SAPE  H11Y16453   1.623   1.141   4.677
  149SAPE  C31216454   1.421   1.148   4.717
  149SAPE  H12X16455   1.355   1.152   4.807
  149SAPE  H12Y16456   1.410   1.042   4.685
  149SAPE  C31316457   1.396   1.244   4.604
  149SAPE  H13X16458   1.436   1.207   4.507
  149SAPE  H13Y16459   1.452   1.340   4.615
  149SAPE  C31416460   1.248   1.262   4.585
  149SAPE  H14X16461   1.203   1.281   4.685
  149SAPE  H14Y16462   1.199   1.171   4.545
  149SAPE  C31516463   1.212   1.370   4.484
  149SAPE  H15X16464   1.273   1.363   4.391
  149SAPE  H15Y16465   1.217   1.470   4.531
  149SAPE  C31616466   1.069   1.357   4.436
  149SAPE  H16X16467   1.001   1.373   4.522
  149SAPE  H16Y16468   1.047   1.256   4.396
  149SAPE  C31716469   1.013   1.466   4.328
  149SAPE  H17X16470   1.085   1.550   4.320
  149SAPE  H17Y16471   0.916   1.508   4.360
  149SAPE  C31816472   1.009   1.418   4.186
  149SAPE  H18X16473   0.927   1.347   4.164
  149SAPE  H18Y16474   1.110   1.376   4.166
  149SAPE  H18Z16475   0.991   1.501   4.115
  150SAPE     N16476   4.319   2.803   6.704
  150SAPE   HN116477   4.374   2.874   6.650
  150SAPE   HN216478   4.267   2.865   6.769
  150SAPE   HN316479   4.391   2.745   6.752
  150SAPE   C1216480   4.240   2.735   6.594
  150SAPE  H12A16481   4.172   2.811   6.549
  150SAPE  H12B16482   4.177   2.651   6.628
  150SAPE   C1116483   4.336   2.687   6.488
  150SAPE  H11A16484   4.384   2.772   6.436
  150SAPE  H11B16485   4.275   2.640   6.408
  150SAPE     P16486   4.437   2.447   6.541
  150SAPE   O1316487   4.553   2.404   6.622
  150SAPE   O1416488   4.301   2.404   6.578
  150SAPE   O1216489   4.440   2.605   6.542
  150SAPE   O1116490   4.457   2.422   6.389
  150SAPE    C116491   4.568   2.450   6.301
  150SAPE    HA16492   4.610   2.552   6.317
  150SAPE    HB16493   4.651   2.377   6.314
  150SAPE    C216494   4.538   2.438   6.149
  150SAPE    HS16495   4.523   2.330   6.127
  150SAPE   O2116496   4.653   2.497   6.082
  150SAPE   C2116497   4.735   2.416   6.019
  150SAPE   O2216498   4.721   2.298   6.009
  150SAPE   C2216499   4.851   2.496   5.968
  150SAPE   H2R16500   4.807   2.589   5.928
  150SAPE   H2S16501   4.921   2.511   6.053
  150SAPE    C316502   4.411   2.523   6.119
  150SAPE    HX16503   4.433   2.624   6.158
  150SAPE    HY16504   4.314   2.500   6.167
  150SAPE   O3116505   4.394   2.539   5.981
  150SAPE   C3116506   4.362   2.433   5.910
  150SAPE   O3216507   4.325   2.328   5.960
  150SAPE   C3216508   4.385   2.470   5.768
  150SAPE   H2X16509   4.491   2.501   5.762
  150SAPE   H2Y16510   4.333   2.564   5.739
  150SAPE   C2316511   4.926   2.425   5.844
  150SAPE   H3R16512   4.959   2.327   5.885
  150SAPE   H3S16513   5.009   2.492   5.814
  150SAPE   C2416514   4.831   2.401   5.722
  150SAPE   H4R16515   4.729   2.377   5.761
  150SAPE   H4S16516   4.872   2.311   5.672
  150SAPE   C2516517   4.807   2.522   5.630
  150SAPE   H5R16518   4.759   2.610   5.676
  150SAPE   C2616519   4.824   2.529   5.500
  150SAPE   H6R16520   4.792   2.623   5.453
  150SAPE   C2716521   4.892   2.429   5.409
  150SAPE   H7R16522   4.825   2.364   5.349
  150SAPE   H7S16523   4.958   2.362   5.468
  150SAPE   C2816524   4.978   2.505   5.309
  150SAPE   H8R16525   5.050   2.576   5.353
  150SAPE   C2916526   4.978   2.495   5.177
  150SAPE   H9R16527   5.038   2.571   5.124
  150SAPE  C21016528   4.879   2.422   5.090
  150SAPE  H10R16529   4.857   2.327   5.142
  150SAPE  H10S16530   4.928   2.394   4.994
  150SAPE  C21116531   4.747   2.501   5.085
  150SAPE  H11R16532   4.691   2.505   5.180
  150SAPE  C21216533   4.693   2.555   4.971
  150SAPE  H12R16534   4.597   2.607   4.974
  150SAPE  C21316535   4.749   2.546   4.829
  150SAPE  H13R16536   4.670   2.515   4.757
  150SAPE  H13S16537   4.836   2.477   4.830
  150SAPE  C21416538   4.805   2.682   4.798
  150SAPE  H14R16539   4.866   2.725   4.879
  150SAPE  C21516540   4.800   2.739   4.679
  150SAPE  H15R16541   4.862   2.830   4.669
  150SAPE  C21616542   4.735   2.700   4.545
  150SAPE  H16R16543   4.813   2.674   4.471
  150SAPE  H16S16544   4.684   2.789   4.503
  150SAPE  C21716545   4.628   2.591   4.520
  150SAPE  H17R16546   4.548   2.596   4.598
  150SAPE  H17S16547   4.683   2.495   4.533
  150SAPE  C21816548   4.556   2.603   4.384
  150SAPE  H18R16549   4.633   2.601   4.304
  150SAPE  H18S16550   4.518   2.706   4.367
  150SAPE  C21916551   4.464   2.493   4.353
  150SAPE  H19R16552   4.396   2.479   4.440
  150SAPE  H19S16553   4.508   2.391   4.359
  150SAPE  C22016554   4.395   2.505   4.223
  150SAPE  H20R16555   4.318   2.585   4.218
  150SAPE  H20S16556   4.338   2.410   4.227
  150SAPE  H20T16557   4.463   2.501   4.135
  150SAPE   C3316558   4.364   2.357   5.670
  150SAPE   H3X16559   4.256   2.331   5.677
  150SAPE   H3Y16560   4.429   2.272   5.700
  150SAPE   C3416561   4.396   2.394   5.528
  150SAPE   H4X16562   4.488   2.455   5.518
  150SAPE   H4Y16563   4.303   2.444   5.491
  150SAPE   C3516564   4.418   2.279   5.434
  150SAPE   H5X16565   4.333   2.207   5.439
  150SAPE   H5Y16566   4.501   2.215   5.470
  150SAPE   C3616567   4.436   2.317   5.284
  150SAPE   H6X16568   4.443   2.227   5.220
  150SAPE   H6Y16569   4.534   2.369   5.277
  150SAPE   C3716570   4.336   2.421   5.235
  150SAPE   H7X16571   4.321   2.515   5.291
  150SAPE   H7Y16572   4.237   2.370   5.238
  150SAPE   C3816573   4.348   2.458   5.090
  150SAPE   H8X16574   4.366   2.372   5.023
  150SAPE   H8Y16575   4.445   2.513   5.097
  150SAPE   C3916576   4.234   2.540   5.026
  150SAPE   H9X16577   4.235   2.641   5.071
  150SAPE   H9Y16578   4.136   2.488   5.036
  150SAPE  C31016579   4.263   2.563   4.873
  150SAPE  H10X16580   4.244   2.467   4.820
  150SAPE  H10Y16581   4.368   2.599   4.867
  150SAPE  C31116582   4.168   2.667   4.805
  150SAPE  H11X16583   4.187   2.753   4.872
  150SAPE  H11Y16584   4.062   2.635   4.822
  150SAPE  C31216585   4.194   2.704   4.662
  150SAPE  H12X16586   4.160   2.624   4.593
  150SAPE  H12Y16587   4.304   2.715   4.653
  150SAPE  C31316588   4.123   2.842   4.627
  150SAPE  H13X16589   4.174   2.875   4.534
  150SAPE  H13Y16590   4.144   2.907   4.715
  150SAPE  C31416591   3.970   2.839   4.605
  150SAPE  H14X16592   3.922   2.825   4.704
  150SAPE  H14Y16593   3.945   2.759   4.532
  150SAPE  C31516594   3.915   2.968   4.548
  150SAPE  H15X16595   3.913   2.964   4.437
  150SAPE  H15Y16596   3.978   3.051   4.586
  150SAPE  C31616597   3.763   2.983   4.570
  150SAPE  H16X16598   3.737   2.996   4.677
  150SAPE  H16Y16599   3.709   2.896   4.529
  150SAPE  C31716600   3.718   3.113   4.503
  150SAPE  H17X16601   3.743   3.110   4.395
  150SAPE  H17Y16602   3.770   3.200   4.547
  150SAPE  C31816603   3.565   3.111   4.525
  150SAPE  H18X16604   3.515   3.024   4.476
  150SAPE  H18Y16605   3.524   3.206   4.484
  150SAPE  H18Z16606   3.530   3.099   4.629
  151SAPE     N16607   4.993   6.384   6.379
  151SAPE   HN116608   5.073   6.318   6.378
  151SAPE   HN216609   5.019   6.453   6.452
  151SAPE   HN316610   4.902   6.339   6.402
  151SAPE   C1216611   5.000   6.461   6.249
  151SAPE  H12A16612   4.908   6.524   6.243
  151SAPE  H12B16613   4.988   6.390   6.163
  151SAPE   C1116614   5.114   6.561   6.247
  151SAPE  H11A16615   5.109   6.629   6.159
  151SAPE  H11B16616   5.214   6.513   6.249
  151SAPE     P16617   5.229   6.744   6.377
  151SAPE   O1316618   5.178   6.850   6.466
  151SAPE   O1416619   5.348   6.666   6.413
  151SAPE   O1216620   5.103   6.650   6.359
  151SAPE   O1116621   5.245   6.816   6.227
  151SAPE    C116622   5.379   6.847   6.171
  151SAPE    HA16623   5.385   0.074   6.135
  151SAPE    HB16624   5.463   6.836   6.242
  151SAPE    C216625   5.409   6.756   6.047
  151SAPE    HS16626   5.494   6.798   5.989
  151SAPE   O2116627   5.299   6.742   5.951
  151SAPE   C2116628   5.269   6.858   5.889
  151SAPE   O2216629   5.332   0.087   5.894
  151SAPE   C2216630   5.138   6.837   5.815
  151SAPE   H2R16631   5.098   6.738   5.845
  151SAPE   H2S16632   5.068   0.031   5.863
  151SAPE    C316633   5.463   6.609   6.082
  151SAPE    HX16634   5.389   6.549   6.140
  151SAPE    HY16635   5.554   6.621   6.145
  151SAPE   O3116636   5.496   6.532   5.964
  151SAPE   C3116637   5.388   6.469   5.912
  151SAPE   O3216638   5.280   6.462   5.963
  151SAPE   C3216639   5.430   6.408   5.774
  151SAPE   H2X16640   5.376   6.315   5.746
  151SAPE   H2Y16641   5.541   6.404   5.770
  151SAPE   C2316642   5.150   6.877   5.670
  151SAPE   H3R16643   5.228   6.815   5.622
  151SAPE   H3S16644   5.185   0.104   5.672
  151SAPE   C2416645   5.017   6.850   5.597
  151SAPE   H4R16646   4.945   0.026   5.661
  151SAPE   H4S16647   4.991   6.742   5.586
  151SAPE   C2516648   5.027   0.032   5.460
  151SAPE   H5R16649   5.118   0.013   5.402
  151SAPE   C2616650   4.923   0.100   5.406
  151SAPE   H6R16651   4.932   0.140   5.304
  151SAPE   C2716652   4.798   0.136   5.479
  151SAPE   H7R16653   4.833   0.181   5.575
  151SAPE   H7S16654   4.739   0.045   5.507
  151SAPE   C2816655   4.714   0.229   5.394
  151SAPE   H8R16656   4.762   0.323   5.363
  151SAPE   C2916657   4.582   0.220   5.375
  151SAPE   H9R16658   4.531   0.303   5.325
  151SAPE  C21016659   4.489   0.112   5.416
  151SAPE  H10R16660   4.413   0.159   5.482
  151SAPE  H10S16661   4.546   0.032   5.468
  151SAPE  C21116662   4.413   0.041   5.298
  151SAPE  H11R16663   4.304   0.053   5.308
  151SAPE  C21216664   4.463   6.823   5.221
  151SAPE  H12R16665   4.397   6.777   5.146
  151SAPE  C21316666   4.607   6.773   5.231
  151SAPE  H13R16667   4.608   6.680   5.291
  151SAPE  H13S16668   4.670   6.840   5.294
  151SAPE  C21416669   4.675   6.737   5.106
  151SAPE  H14R16670   4.702   6.630   5.112
  151SAPE  C21516671   4.709   6.814   5.001
  151SAPE  H15R16672   4.752   6.766   4.912
  151SAPE  C21616673   4.675   0.086   4.986
  151SAPE  H16R16674   4.639   0.128   5.082
  151SAPE  H16S16675   4.597   0.094   4.907
  151SAPE  C21716676   4.794   0.175   4.942
  151SAPE  H17R16677   4.883   0.167   5.009
  151SAPE  H17S16678   4.764   0.280   4.967
  151SAPE  C21816679   4.822   0.172   4.788
  151SAPE  H18R16680   4.728   0.153   4.731
  151SAPE  H18S16681   4.878   0.077   4.774
  151SAPE  C21916682   4.902   0.294   4.732
  151SAPE  H19R16683   4.932   0.271   4.628
  151SAPE  H19S16684   4.999   0.303   4.785
  151SAPE  C22016685   4.837   0.431   4.752
  151SAPE  H20R16686   4.750   0.424   4.821
  151SAPE  H20S16687   4.804   0.459   4.650
  151SAPE  H20T16688   4.910   0.506   4.790
  151SAPE   C3316689   5.407   6.513   5.661
  151SAPE   H3X16690   5.463   6.606   5.683
  151SAPE   H3Y16691   5.299   6.540   5.660
  151SAPE   C3416692   5.455   6.466   5.514
  151SAPE   H4X16693   5.403   6.372   5.485
  151SAPE   H4Y16694   5.559   6.427   5.520
  151SAPE   C3516695   5.455   6.571   5.403
  151SAPE   H5X16696   5.542   6.637   5.423
  151SAPE   H5Y16697   5.359   6.626   5.413
  151SAPE   C3616698   5.471   6.507   5.268
  151SAPE   H6X16699   5.385   6.439   5.255
  151SAPE   H6Y16700   5.567   6.452   5.257
  151SAPE   C3716701   5.471   6.608   5.156
  151SAPE   H7X16702   5.569   6.660   5.164
  151SAPE   H7Y16703   5.391   6.684   5.171
  151SAPE   C3816704   5.463   6.541   5.015
  151SAPE   H8X16705   5.428   6.617   4.942
  151SAPE   H8Y16706   5.377   6.472   5.008
  151SAPE   C3916707   5.587   6.464   4.974
  151SAPE   H9X16708   5.564   6.413   4.877
  151SAPE   H9Y16709   5.607   6.389   5.053
  151SAPE  C31016710   5.714   6.551   4.972
  151SAPE  H10X16711   5.804   6.488   4.955
  151SAPE  H10Y16712   5.726   6.606   5.068
  151SAPE  C31116713   5.712   6.650   4.853
  151SAPE  H11X16714   5.630   6.724   4.864
  151SAPE  H11Y16715   5.686   6.587   4.765
  151SAPE  C31216716   5.849   6.717   4.825
  151SAPE  H12X16717   5.857   6.805   4.893
  151SAPE  H12Y16718   5.851   6.760   4.723
  151SAPE  C31316719   5.977   6.628   4.842
  151SAPE  H13X16720   5.956   6.544   4.773
  151SAPE  H13Y16721   5.988   6.585   4.944
  151SAPE  C31416722   6.101   6.696   4.780
  151SAPE  H14X16723   6.190   6.639   4.817
  151SAPE  H14Y16724   6.111   6.795   4.830
  151SAPE  C31516725   6.099   6.713   4.628
  151SAPE  H15X16726   6.016   6.776   4.589
  151SAPE  H15Y16727   6.094   6.607   4.594
  151SAPE  C31616728   6.237   6.768   4.602
  151SAPE  H16X16729   6.312   6.706   4.655
  151SAPE  H16Y16730   6.251   6.868   4.649
  151SAPE  C31716731   6.279   6.790   4.454
  151SAPE  H17X16732   6.249   6.701   4.394
  151SAPE  H17Y16733   6.388   6.805   4.439
  151SAPE  C31816734   6.205   0.039   4.403
  151SAPE  H18X16735   6.098   0.025   4.428
  151SAPE  H18Y16736   6.216   0.064   4.295
  151SAPE  H18Z16737   6.236   0.118   4.475
  152SAPE     N16738   0.201   2.636   6.522
  152SAPE   HN116739   0.236   2.717   6.466
  152SAPE   HN216740   0.116   2.665   6.575
  152SAPE   HN316741   0.274   2.613   6.593
  152SAPE   C1216742   0.163   2.516   6.447
  152SAPE  H12A16743   0.247   2.464   6.396
  152SAPE  H12B16744   0.099   2.553   6.364
  152SAPE   C1116745   0.081   2.428   6.545
  152SAPE  H11A16746   0.063   2.325   6.506
  152SAPE  H11B16747   6.864   2.485   6.555
  152SAPE     P16748   0.267   2.322   6.687
  152SAPE   O1316749   0.390   2.401   6.697
  152SAPE   O1416750   0.229   2.220   6.792
  152SAPE   O1216751   0.152   2.424   6.669
  152SAPE   O1116752   0.278   2.246   6.553
  152SAPE    C116753   0.270   2.106   6.543
  152SAPE    HA16754   0.359   2.061   6.592
  152SAPE    HB16755   0.178   2.074   6.596
  152SAPE    C216756   0.267   2.073   6.396
  152SAPE    HS16757   0.174   2.114   6.352
  152SAPE   O2116758   0.289   1.929   6.380
  152SAPE   C2116759   0.213   1.876   6.284
  152SAPE   O2216760   0.108   1.928   6.254
  152SAPE   C2216761   0.265   1.747   6.219
  152SAPE   H2R16762   0.331   1.696   6.292
  152SAPE   H2S16763   0.179   1.679   6.202
  152SAPE    C316764   0.387   2.147   6.325
  152SAPE    HX16765   0.477   2.086   6.347
  152SAPE    HY16766   0.405   2.253   6.354
  152SAPE   O3116767   0.372   2.132   6.178
  152SAPE   C3116768   0.299   2.231   6.121
  152SAPE   O3216769   0.256   2.327   6.191
  152SAPE   C3216770   0.270   2.203   5.971
  152SAPE   H2X16771   0.300   2.097   5.960
  152SAPE   H2Y16772   0.345   2.272   5.925
  152SAPE   C2316773   0.349   1.782   6.097
  152SAPE   H3R16774   0.442   1.833   6.130
  152SAPE   H3S16775   0.290   1.858   6.042
  152SAPE   C2416776   0.389   1.662   6.015
  152SAPE   H4R16777   0.299   1.613   5.973
  152SAPE   H4S16778   0.448   1.584   6.067
  152SAPE   C2516779   0.482   1.703   5.900
  152SAPE   H5R16780   0.591   1.695   5.917
  152SAPE   C2616781   0.443   1.764   5.784
  152SAPE   H6R16782   0.517   1.793   5.708
  152SAPE   C2716783   0.299   1.793   5.740
  152SAPE   H7R16784   0.297   1.883   5.675
  152SAPE   H7S16785   0.225   1.822   5.818
  152SAPE   C2816786   0.229   1.678   5.676
  152SAPE   H8R16787   0.166   1.619   5.744
  152SAPE   C2916788   0.250   1.640   5.548
  152SAPE   H9R16789   0.184   1.562   5.507
  152SAPE  C21016790   0.334   1.712   5.447
  152SAPE  H10R16791   0.376   1.630   5.386
  152SAPE  H10S16792   0.413   1.775   5.494
  152SAPE  C21116793   0.248   1.791   5.349
  152SAPE  H11R16794   0.193   1.876   5.393
  152SAPE  C21216795   0.221   1.767   5.217
  152SAPE  H12R16796   0.147   1.832   5.168
  152SAPE  C21316797   0.268   1.649   5.127
  152SAPE  H13R16798   0.179   1.599   5.082
  152SAPE  H13S16799   0.320   1.572   5.188
  152SAPE  C21416800   0.369   1.691   5.027
  152SAPE  H14R16801   0.429   1.777   5.059
  152SAPE  C21516802   0.373   1.648   4.894
  152SAPE  H15R16803   0.459   1.692   4.841
  152SAPE  C21616804   0.299   1.530   4.834
  152SAPE  H16R16805   0.197   1.558   4.799
  152SAPE  H16S16806   0.277   1.457   4.914
  152SAPE  C21716807   0.386   1.477   4.717
  152SAPE  H17R16808   0.486   1.439   4.747
  152SAPE  H17S16809   0.406   1.564   4.651
  152SAPE  C21816810   0.304   1.384   4.628
  152SAPE  H18R16811   0.375   1.361   4.546
  152SAPE  H18S16812   0.213   1.426   4.582
  152SAPE  C21916813   0.254   1.248   4.689
  152SAPE  H19R16814   0.199   1.274   4.782
  152SAPE  H19S16815   0.348   1.195   4.716
  152SAPE  C22016816   0.170   1.162   4.590
  152SAPE  H20R16817   0.137   1.067   4.638
  152SAPE  H20S16818   0.230   1.133   4.502
  152SAPE  H20T16819   0.077   1.216   4.563
  152SAPE   C3316820   0.126   2.223   5.916
  152SAPE   H3X16821   0.083   2.326   5.922
  152SAPE   H3Y16822   0.051   2.162   5.971
  152SAPE   C3416823   0.140   2.171   5.774
  152SAPE   H4X16824   0.128   2.060   5.779
  152SAPE   H4Y16825   0.242   2.196   5.738
  152SAPE   C3516826   0.049   2.232   5.674
  152SAPE   H5X16827   0.056   2.342   5.663
  152SAPE   H5Y16828   6.823   2.220   5.712
  152SAPE   C3616829   0.054   2.165   5.535
  152SAPE   H6X16830   6.827   2.175   5.500
  152SAPE   H6Y16831   0.081   2.057   5.540
  152SAPE   C3716832   0.133   2.241   5.432
  152SAPE   H7X16833   0.242   2.222   5.443
  152SAPE   H7Y16834   0.130   2.352   5.445
  152SAPE   C3816835   0.082   2.192   5.295
  152SAPE   H8X16836   6.856   2.231   5.287
  152SAPE   H8Y16837   0.083   2.081   5.293
  152SAPE   C3916838   0.155   2.257   5.178
  152SAPE   H9X16839   0.265   2.240   5.178
  152SAPE   H9Y16840   0.142   2.367   5.186
  152SAPE  C31016841   0.112   2.220   5.032
  152SAPE  H10X16842   0.171   2.278   4.958
  152SAPE  H10Y16843   0.005   2.242   5.013
  152SAPE  C31116844   0.126   2.067   5.012
  152SAPE  H11X16845   0.074   2.013   5.094
  152SAPE  H11Y16846   0.231   2.030   5.016
  152SAPE  C31216847   0.074   2.034   4.872
  152SAPE  H12X16848   0.135   2.092   4.800
  152SAPE  H12Y16849   6.844   2.063   4.867
  152SAPE  C31316850   0.103   1.892   4.816
  152SAPE  H13X16851   0.078   1.832   4.906
  152SAPE  H13Y16852   0.211   1.882   4.793
  152SAPE  C31416853   0.027   1.840   4.693
  152SAPE  H14X16854   6.799   1.819   4.718
  152SAPE  H14Y16855   0.071   1.746   4.654
  152SAPE  C31516856   0.010   1.941   4.581
  152SAPE  H15X16857   0.110   1.963   4.539
  152SAPE  H15Y16858   6.842   2.024   4.639
  152SAPE  C31616859   6.788   1.901   4.464
  152SAPE  H16X16860   6.754   1.995   4.415
  152SAPE  H16Y16861   6.698   1.865   4.518
  152SAPE  C31716862   6.837   1.796   4.364
  152SAPE  H17X16863   6.874   1.714   4.430
  152SAPE  H17Y16864   0.037   1.836   4.296
  152SAPE  C31816865   6.730   1.736   4.261
  152SAPE  H18X16866   6.658   1.664   4.306
  152SAPE  H18Y16867   6.791   1.681   4.186
  152SAPE  H18Z16868   6.684   1.818   4.203
  153SAPE     N16869   6.486   1.792   6.667
  153SAPE   HN116870   6.409   1.765   6.731
  153SAPE   HN216871   6.560   1.847   6.717
  153SAPE   HN316872   6.449   1.858   6.595
  153SAPE   C1216873   6.537   1.667   6.599
  153SAPE  H12A16874   6.559   1.585   6.671
  153SAPE  H12B16875   6.630   1.696   6.546
  153SAPE   C1116876   6.441   1.602   6.500
  153SAPE  H11A16877   6.495   1.515   6.457
  153SAPE  H11B16878   6.426   1.672   6.415
  153SAPE     P16879   6.299   1.428   6.642
  153SAPE   O1316880   6.355   1.445   6.777
  153SAPE   O1416881   6.151   1.403   6.635
  153SAPE   O1216882   6.311   1.565   6.563
  153SAPE   O1116883   6.380   1.314   6.573
  153SAPE    C116884   6.325   1.215   6.484
  153SAPE    HA16885   6.404   1.136   6.478
  153SAPE    HB16886   6.230   1.173   6.522
  153SAPE    C216887   6.308   1.258   6.331
  153SAPE    HS16888   6.405   1.294   6.291
  153SAPE   O2116889   6.191   1.344   6.308
  153SAPE   C2116890   6.217   1.455   6.234
  153SAPE   O2216891   6.314   1.485   6.168
  153SAPE   C2216892   6.091   1.544   6.232
  153SAPE   H2R16893   6.030   1.500   6.150
  153SAPE   H2S16894   6.030   1.526   6.323
  153SAPE    C316895   6.279   1.131   6.251
  153SAPE    HX16896   6.196   1.081   6.305
  153SAPE    HY16897   6.369   1.066   6.263
  153SAPE   O3116898   6.235   1.154   6.110
  153SAPE   C3116899   6.342   1.185   6.043
  153SAPE   O3216900   6.458   1.161   6.066
  153SAPE   C3216901   6.299   1.275   5.922
  153SAPE   H2X16902   6.392   1.328   5.894
  153SAPE   H2Y16903   6.228   1.356   5.952
  153SAPE   C2316904   6.110   1.695   6.199
  153SAPE   H3R16905   6.165   1.683   6.103
  153SAPE   H3S16906   6.184   1.737   6.270
  153SAPE   C2416907   5.982   1.782   6.183
  153SAPE   H4R16908   6.016   1.881   6.146
  153SAPE   H4S16909   5.941   1.796   6.285
  153SAPE   C2516910   5.864   1.726   6.098
  153SAPE   H5R16911   5.795   1.668   6.161
  153SAPE   C2616912   5.843   1.723   5.965
  153SAPE   H6R16913   5.755   1.672   5.923
  153SAPE   C2716914   5.928   1.791   5.857
  153SAPE   H7R16915   5.989   1.873   5.901
  153SAPE   H7S16916   5.859   1.848   5.791
  153SAPE   C2816917   6.012   1.703   5.772
  153SAPE   H8R16918   6.035   1.606   5.819
  153SAPE   C2916919   6.064   1.721   5.650
  153SAPE   H9R16920   6.132   1.646   5.608
  153SAPE  C21016921   6.034   1.843   5.562
  153SAPE  H10R16922   5.967   1.920   5.605
  153SAPE  H10S16923   5.966   1.807   5.482
  153SAPE  C21116924   6.161   1.911   5.508
  153SAPE  H11R16925   6.248   1.911   5.575
  153SAPE  C21216926   6.166   1.975   5.393
  153SAPE  H12R16927   6.261   2.025   5.373
  153SAPE  C21316928   6.046   1.987   5.298
  153SAPE  H13R16929   6.005   1.884   5.286
  153SAPE  H13S16930   6.086   2.013   5.197
  153SAPE  C21416931   5.954   2.096   5.343
  153SAPE  H14R16932   5.927   2.099   5.450
  153SAPE  C21516933   5.904   2.188   5.256
  153SAPE  H15R16934   5.841   2.271   5.292
  153SAPE  C21616935   5.951   2.199   5.118
  153SAPE  H16R16936   6.061   2.186   5.104
  153SAPE  H16S16937   5.928   2.305   5.096
  153SAPE  C21716938   5.870   2.115   5.010
  153SAPE  H17R16939   5.777   2.157   4.965
  153SAPE  H17S16940   5.853   2.010   5.040
  153SAPE  C21816941   5.964   2.101   4.882
  153SAPE  H18R16942   6.052   2.040   4.915
  153SAPE  H18S16943   6.004   2.198   4.843
  153SAPE  C21916944   5.887   2.048   4.769
  153SAPE  H19R16945   5.792   2.104   4.757
  153SAPE  H19S16946   5.847   1.946   4.785
  153SAPE  C22016947   5.967   2.053   4.636
  153SAPE  H20R16948   6.006   2.154   4.612
  153SAPE  H20S16949   5.901   2.019   4.554
  153SAPE  H20T16950   6.061   1.994   4.627
  153SAPE   C3316951   6.253   1.191   5.797
  153SAPE   H3X16952   6.172   1.245   5.744
  153SAPE   H3Y16953   6.216   1.092   5.830
  153SAPE   C3416954   6.367   1.179   5.693
  153SAPE   H4X16955   6.449   1.119   5.736
  153SAPE   H4Y16956   6.399   1.285   5.687
  153SAPE   C3516957   6.325   1.135   5.546
  153SAPE   H5X16958   6.251   1.213   5.518
  153SAPE   H5Y16959   6.270   1.038   5.542
  153SAPE   C3616960   6.453   1.145   5.454
  153SAPE   H6X16961   6.533   1.083   5.499
  153SAPE   H6Y16962   6.496   1.247   5.442
  153SAPE   C3716963   6.426   1.096   5.308
  153SAPE   H7X16964   6.371   1.000   5.321
  153SAPE   H7Y16965   6.524   1.068   5.263
  153SAPE   C3816966   6.366   1.192   5.209
  153SAPE   H8X16967   6.430   1.283   5.203
  153SAPE   H8Y16968   6.268   1.230   5.245
  153SAPE   C3916969   6.367   1.127   5.074
  153SAPE   H9X16970   6.284   1.053   5.073
  153SAPE   H9Y16971   6.466   1.086   5.046
  153SAPE  C31016972   6.321   1.219   4.968
  153SAPE  H10X16973   6.367   1.321   4.966
  153SAPE  H10Y16974   6.215   1.247   4.986
  153SAPE  C31116975   6.327   1.154   4.828
  153SAPE  H11X16976   6.285   1.051   4.832
  153SAPE  H11Y16977   6.434   1.136   4.803
  153SAPE  C31216978   6.238   1.239   4.735
  153SAPE  H12X16979   6.248   1.348   4.756
  153SAPE  H12Y16980   6.134   1.202   4.749
  153SAPE  C31316981   6.286   1.223   4.592
  153SAPE  H13X16982   6.269   1.116   4.566
  153SAPE  H13Y16983   6.394   1.247   4.586
  153SAPE  C31416984   6.195   1.299   4.480
  153SAPE  H14X16985   6.206   1.410   4.489
  153SAPE  H14Y16986   6.088   1.275   4.497
  153SAPE  C31516987   6.230   1.250   4.339
  153SAPE  H15X16988   6.152   1.277   4.265
  153SAPE  H15Y16989   6.258   1.143   4.324
  153SAPE  C31616990   6.368   1.308   4.303
  153SAPE  H16X16991   6.446   1.263   4.367
  153SAPE  H16Y16992   6.362   1.416   4.329
  153SAPE  C31716993   6.410   1.300   4.157
  153SAPE  H17X16994   6.326   1.343   4.099
  153SAPE  H17Y16995   6.423   1.195   4.125
  153SAPE  C31816996   6.536   1.388   4.152
  153SAPE  H18X16997   6.618   1.339   4.208
  153SAPE  H18Y16998   6.529   1.491   4.192
  153SAPE  H18Z16999   6.573   1.390   4.048
  154SAPE     N17000   4.154   0.957   6.233
  154SAPE   HN117001   4.144   0.857   6.261
  154SAPE   HN217002   4.203   0.946   6.142
  154SAPE   HN317003   4.212   1.018   6.294
  154SAPE   C1217004   4.012   1.010   6.224
  154SAPE  H12A17005   4.000   1.097   6.156
  154SAPE  H12B17006   3.972   1.047   6.321
  154SAPE   C1117007   3.927   0.887   6.177
  154SAPE  H11A17008   3.963   0.833   6.086
  154SAPE  H11B17009   3.837   0.942   6.141
  154SAPE     P17010   3.827   0.655   6.255
  154SAPE   O1317011   3.933   0.558   6.299
  154SAPE   O1417012   3.696   0.659   6.326
  154SAPE   O1217013   3.898   0.796   6.281
  154SAPE   O1117014   3.824   0.645   6.097
  154SAPE    C117015   3.724   0.702   6.021
  154SAPE    HA17016   3.701   0.810   6.035
  154SAPE    HB17017   3.765   0.715   5.918
  154SAPE    C217018   3.594   0.604   6.003
  154SAPE    HS17019   3.551   0.609   6.105
  154SAPE   O2117020   3.645   0.476   5.971
  154SAPE   C2117021   3.569   0.374   5.972
  154SAPE   O2217022   3.444   0.372   6.000
  154SAPE   C2217023   3.648   0.248   5.934
  154SAPE   H2R17024   3.568   0.179   5.899
  154SAPE   H2S17025   3.713   0.271   5.847
  154SAPE    C317026   3.490   0.667   5.906
  154SAPE    HX17027   3.429   0.736   5.968
  154SAPE    HY17028   3.426   0.587   5.865
  154SAPE   O3117029   3.541   0.732   5.787
  154SAPE   C3117030   3.449   0.809   5.729
  154SAPE   O3217031   3.328   0.814   5.750
  154SAPE   C3217032   3.512   0.887   5.606
  154SAPE   H2X17033   3.619   0.857   5.604
  154SAPE   H2Y17034   3.502   0.995   5.630
  154SAPE   C2317035   3.726   0.192   6.053
  154SAPE   H3R17036   3.651   0.124   6.098
  154SAPE   H3S17037   3.751   0.263   6.134
  154SAPE   C2417038   3.846   0.109   5.997
  154SAPE   H4R17039   3.798   0.039   5.926
  154SAPE   H4S17040   3.879   0.044   6.081
  154SAPE   C2517041   3.962   0.177   5.923
  154SAPE   H5R17042   4.024   0.242   5.986
  154SAPE   C2617043   4.006   0.165   5.796
  154SAPE   H6R17044   4.090   0.227   5.761
  154SAPE   C2717045   3.940   0.074   5.697
  154SAPE   H7R17046   3.946   6.852   5.746
  154SAPE   H7S17047   4.010   0.061   5.611
  154SAPE   C2817048   3.805   0.111   5.637
  154SAPE   H8R17049   3.726   0.068   5.702
  154SAPE   C2917050   3.779   0.151   5.511
  154SAPE   H9R17051   3.675   0.171   5.479
  154SAPE  C21017052   3.875   0.195   5.405
  154SAPE  H10R17053   3.967   0.231   5.455
  154SAPE  H10S17054   3.831   0.280   5.346
  154SAPE  C21117055   3.910   0.086   5.306
  154SAPE  H11R17056   3.867   6.865   5.326
  154SAPE  C21217057   3.980   0.107   5.191
  154SAPE  H12R17058   3.987   0.024   5.120
  154SAPE  C21317059   4.033   0.245   5.153
  154SAPE  H13R17060   4.034   0.321   5.234
  154SAPE  H13S17061   3.979   0.281   5.063
  154SAPE  C21417062   4.176   0.223   5.111
  154SAPE  H14R17063   4.201   0.124   5.069
  154SAPE  C21517064   4.263   0.322   5.094
  154SAPE  H15R17065   4.368   0.291   5.084
  154SAPE  C21617066   4.244   0.471   5.123
  154SAPE  H16R17067   4.303   0.508   5.209
  154SAPE  H16S17068   4.142   0.505   5.150
  154SAPE  C21717069   4.273   0.571   5.012
  154SAPE  H17R17070   4.253   0.671   5.055
  154SAPE  H17S17071   4.209   0.554   4.923
  154SAPE  C21817072   4.420   0.565   4.950
  154SAPE  H18R17073   4.425   0.476   4.885
  154SAPE  H18S17074   4.503   0.568   5.024
  154SAPE  C21917075   4.443   0.687   4.860
  154SAPE  H19R17076   4.460   0.770   4.932
  154SAPE  H19S17077   4.353   0.705   4.797
  154SAPE  C22017078   4.560   0.691   4.767
  154SAPE  H20R17079   4.557   0.605   4.697
  154SAPE  H20S17080   4.656   0.699   4.822
  154SAPE  H20T17081   4.567   0.783   4.704
  154SAPE   C3317082   3.428   0.858   5.483
  154SAPE   H3X17083   3.319   0.873   5.492
  154SAPE   H3Y17084   3.438   0.749   5.460
  154SAPE   C3417085   3.479   0.940   5.361
  154SAPE   H4X17086   3.590   0.932   5.359
  154SAPE   H4Y17087   3.457   1.042   5.400
  154SAPE   C3517088   3.411   0.913   5.235
  154SAPE   H5X17089   3.300   0.912   5.250
  154SAPE   H5Y17090   3.444   0.814   5.200
  154SAPE   C3617091   3.432   1.015   5.131
  154SAPE   H6X17092   3.535   1.033   5.096
  154SAPE   H6Y17093   3.409   1.112   5.181
  154SAPE   C3717094   3.332   0.998   5.016
  154SAPE   H7X17095   3.232   1.033   5.050
  154SAPE   H7Y17096   3.332   0.888   5.000
  154SAPE   C3817097   3.395   1.075   4.897
  154SAPE   H8X17098   3.500   1.049   4.871
  154SAPE   H8Y17099   3.392   1.179   4.937
  154SAPE   C3917100   3.312   1.062   4.766
  154SAPE   H9X17101   3.206   1.091   4.783
  154SAPE   H9Y17102   3.313   0.955   4.737
  154SAPE  C31017103   3.369   1.153   4.659
  154SAPE  H10X17104   3.480   1.142   4.654
  154SAPE  H10Y17105   3.350   1.260   4.680
  154SAPE  C31117106   3.303   1.135   4.515
  154SAPE  H11X17107   3.307   1.028   4.486
  154SAPE  H11Y17108   3.369   1.189   4.444
  154SAPE  C31217109   3.156   1.181   4.512
  154SAPE  H12X17110   3.156   1.286   4.478
  154SAPE  H12Y17111   3.103   1.173   4.609
  154SAPE  C31317112   3.085   1.094   4.406
  154SAPE  H13X17113   3.084   0.990   4.446
  154SAPE  H13Y17114   3.145   1.085   4.313
  154SAPE  C31417115   2.939   1.134   4.374
  154SAPE  H14X17116   2.883   1.157   4.467
  154SAPE  H14Y17117   2.884   1.053   4.321
  154SAPE  C31517118   2.930   1.253   4.270
  154SAPE  H15X17119   3.003   1.235   4.188
  154SAPE  H15Y17120   2.948   1.348   4.323
  154SAPE  C31617121   2.785   1.255   4.214
  154SAPE  H16X17122   2.710   1.206   4.281
  154SAPE  H16Y17123   2.794   1.187   4.126
  154SAPE  C31717124   2.737   1.394   4.172
  154SAPE  H17X17125   2.820   1.432   4.109
  154SAPE  H17Y17126   2.732   1.456   4.264
  154SAPE  C31817127   2.599   1.400   4.109
  154SAPE  H18X17128   2.604   1.331   4.022
  154SAPE  H18Y17129   2.591   1.503   4.067
  154SAPE  H18Z17130   2.513   1.383   4.176
  155SAPE     N17131   5.246   5.702   6.600
  155SAPE   HN117132   5.209   5.668   6.691
  155SAPE   HN217133   5.172   5.669   6.535
  155SAPE   HN317134   5.334   5.660   6.563
  155SAPE   C1217135   5.268   5.852   6.604
  155SAPE  H12A17136   5.344   5.862   6.684
  155SAPE  H12B17137   5.174   5.902   6.637
  155SAPE   C1117138   5.316   5.916   6.480
  155SAPE  H11A17139   5.236   5.922   6.403
  155SAPE  H11B17140   5.400   5.865   6.428
  155SAPE     P17141   5.319   6.176   6.408
  155SAPE   O1317142   5.177   6.203   6.389
  155SAPE   O1417143   5.400   6.289   6.454
  155SAPE   O1217144   5.350   6.049   6.508
  155SAPE   O1117145   5.381   6.121   6.272
  155SAPE    C117146   5.521   6.102   6.272
  155SAPE    HA17147   5.576   6.191   6.310
  155SAPE    HB17148   5.532   6.019   6.346
  155SAPE    C217149   5.586   6.049   6.142
  155SAPE    HS17150   5.660   5.975   6.179
  155SAPE   O2117151   5.652   6.159   6.066
  155SAPE   C2117152   5.761   6.198   6.123
  155SAPE   O2217153   5.829   6.133   6.202
  155SAPE   C2217154   5.784   6.350   6.086
  155SAPE   H2R17155   5.699   6.410   6.126
  155SAPE   H2S17156   5.870   6.385   6.147
  155SAPE    C317157   5.481   5.980   6.047
  155SAPE    HX17158   5.417   6.067   6.019
  155SAPE    HY17159   5.418   5.911   6.107
  155SAPE   O3117160   5.537   5.936   5.922
  155SAPE   C3117161   5.610   5.822   5.926
  155SAPE   O3217162   5.632   5.764   6.027
  155SAPE   C3217163   5.656   5.771   5.786
  155SAPE   H2X17164   5.741   5.701   5.805
  155SAPE   H2Y17165   5.690   5.857   5.725
  155SAPE   C2317166   5.800   6.389   5.939
  155SAPE   H3R17167   5.836   6.493   5.923
  155SAPE   H3S17168   5.706   6.383   5.881
  155SAPE   C2417169   5.908   6.300   5.873
  155SAPE   H4R17170   5.891   6.190   5.879
  155SAPE   H4S17171   5.998   6.324   5.934
  155SAPE   C2517172   5.908   6.346   5.725
  155SAPE   H5R17173   5.937   6.449   5.697
  155SAPE   C2617174   5.863   6.278   5.621
  155SAPE   H6R17175   5.860   6.328   5.523
  155SAPE   C2717176   5.802   6.141   5.616
  155SAPE   H7R17177   5.866   6.055   5.646
  155SAPE   H7S17178   5.780   6.127   5.508
  155SAPE   C2817179   5.671   6.146   5.689
  155SAPE   H8R17180   5.682   6.174   5.794
  155SAPE   C2917181   5.548   6.123   5.639
  155SAPE   H9R17182   5.466   6.139   5.710
  155SAPE  C21017183   5.509   6.088   5.497
  155SAPE  H10R17184   5.559   5.995   5.461
  155SAPE  H10S17185   5.542   6.170   5.430
  155SAPE  C21117186   5.362   6.064   5.493
  155SAPE  H11R17187   5.311   6.045   5.589
  155SAPE  C21217188   5.297   6.014   5.382
  155SAPE  H12R17189   5.190   5.993   5.395
  155SAPE  C21317190   5.358   6.005   5.240
  155SAPE  H13R17191   5.408   6.099   5.208
  155SAPE  H13S17192   5.277   6.002   5.164
  155SAPE  C21417193   5.455   5.887   5.225
  155SAPE  H14R17194   5.465   5.816   5.308
  155SAPE  C21517195   5.539   5.863   5.124
  155SAPE  H15R17196   5.623   5.793   5.134
  155SAPE  C21617197   5.539   5.964   5.013
  155SAPE  H16R17198   5.482   6.057   5.033
  155SAPE  H16S17199   5.497   5.917   4.921
  155SAPE  C21717200   5.687   6.013   4.981
  155SAPE  H17R17201   5.758   5.931   4.959
  155SAPE  H17S17202   5.714   6.068   5.074
  155SAPE  C21817203   5.694   6.116   4.866
  155SAPE  H18R17204   5.604   6.178   4.887
  155SAPE  H18S17205   5.672   6.076   4.765
  155SAPE  C21917206   5.820   6.211   4.863
  155SAPE  H19R17207   5.837   6.247   4.967
  155SAPE  H19S17208   5.799   6.300   4.801
  155SAPE  C22017209   5.936   6.126   4.811
  155SAPE  H20R17210   5.914   6.082   4.712
  155SAPE  H20S17211   5.956   6.046   4.886
  155SAPE  H20T17212   6.031   6.181   4.793
  155SAPE   C3317213   5.549   5.700   5.705
  155SAPE   H3X17214   5.461   5.767   5.694
  155SAPE   H3Y17215   5.521   5.604   5.755
  155SAPE   C3417216   5.612   5.667   5.565
  155SAPE   H4X17217   5.721   5.650   5.578
  155SAPE   H4Y17218   5.605   5.755   5.497
  155SAPE   C3517219   5.547   5.541   5.496
  155SAPE   H5X17220   5.438   5.559   5.504
  155SAPE   H5Y17221   5.571   5.444   5.545
  155SAPE   C3617222   5.598   5.528   5.351
  155SAPE   H6X17223   5.702   5.491   5.343
  155SAPE   H6Y17224   5.601   5.629   5.305
  155SAPE   C3717225   5.518   5.426   5.265
  155SAPE   H7X17226   5.409   5.440   5.280
  155SAPE   H7Y17227   5.537   5.324   5.306
  155SAPE   C3817228   5.548   5.455   5.115
  155SAPE   H8X17229   5.657   5.470   5.104
  155SAPE   H8Y17230   5.503   5.550   5.080
  155SAPE   C3917231   5.503   5.339   5.023
  155SAPE   H9X17232   5.393   5.330   5.019
  155SAPE   H9Y17233   5.546   5.250   5.075
  155SAPE  C31017234   5.560   5.347   4.876
  155SAPE  H10X17235   5.671   5.334   4.875
  155SAPE  H10Y17236   5.544   5.452   4.843
  155SAPE  C31117237   5.512   5.236   4.780
  155SAPE  H11X17238   5.550   5.261   4.678
  155SAPE  H11Y17239   5.402   5.250   4.774
  155SAPE  C31217240   5.570   5.092   4.820
  155SAPE  H12X17241   5.565   5.062   4.926
  155SAPE  H12Y17242   5.680   5.102   4.805
  155SAPE  C31317243   5.527   4.976   4.733
  155SAPE  H13X17244   5.540   5.003   4.626
  155SAPE  H13Y17245   5.419   4.955   4.747
  155SAPE  C31417246   5.604   4.847   4.742
  155SAPE  H14X17247   5.700   4.878   4.694
  155SAPE  H14Y17248   5.563   4.770   4.673
  155SAPE  C31517249   5.648   4.802   4.883
  155SAPE  H15X17250   5.563   4.781   4.952
  155SAPE  H15Y17251   5.700   4.886   4.934
  155SAPE  C31617252   5.746   4.677   4.881
  155SAPE  H16X17253   5.687   4.594   4.836
  155SAPE  H16Y17254   5.770   4.654   4.987
  155SAPE  C31717255   5.872   4.689   4.793
  155SAPE  H17X17256   5.934   4.773   4.831
  155SAPE  H17Y17257   5.845   4.705   4.687
  155SAPE  C31817258   5.958   4.563   4.802
  155SAPE  H18X17259   6.061   4.602   4.789
  155SAPE  H18Y17260   5.943   4.490   4.720
  155SAPE  H18Z17261   5.943   4.523   4.904
  156SAPE     N17262   6.860   0.699   6.569
  156SAPE   HN117263   6.776   0.652   6.608
  156SAPE   HN217264   0.059   0.683   6.637
  156SAPE   HN317265   6.828   0.797   6.581
  156SAPE   C1217266   0.028   0.665   6.435
  156SAPE  H12A17267   6.823   0.685   6.364
  156SAPE  H12B17268   0.046   0.556   6.432
  156SAPE   C1117269   0.153   0.744   6.382
  156SAPE  H11A17270   0.126   0.851   6.383
  156SAPE  H11B17271   0.168   0.699   6.282
  156SAPE     P17272   0.393   0.824   6.466
  156SAPE   O1317273   0.351   0.968   6.457
  156SAPE   O1417274   0.484   0.791   6.575
  156SAPE   O1217275   0.263   0.723   6.480
  156SAPE   O1117276   0.465   0.787   6.330
  156SAPE    C117277   0.540   0.668   6.312
  156SAPE    HA17278   0.615   0.691   6.232
  156SAPE    HB17279   0.581   0.634   6.409
  156SAPE    C217280   0.456   0.549   6.258
  156SAPE    HS17281   0.535   0.477   6.228
  156SAPE   O2117282   0.364   0.586   6.155
  156SAPE   C2117283   0.416   0.632   6.043
  156SAPE   O2217284   0.534   0.618   6.013
  156SAPE   C2217285   0.313   0.702   5.958
  156SAPE   H2R17286   0.219   0.645   5.969
  156SAPE   H2S17287   0.304   0.803   6.005
  156SAPE    C317288   0.376   0.470   6.373
  156SAPE    HX17289   0.269   0.497   6.363
  156SAPE    HY17290   0.413   0.500   6.473
  156SAPE   O3117291   0.391   0.330   6.357
  156SAPE   C3117292   0.498   0.271   6.397
  156SAPE   O3217293   0.596   0.323   6.454
  156SAPE   C3217294   0.487   0.126   6.367
  156SAPE   H2X17295   0.386   0.085   6.390
  156SAPE   H2Y17296   0.569   0.073   6.419
  156SAPE   C2317297   0.348   0.732   5.814
  156SAPE   H3R17298   0.452   0.763   5.791
  156SAPE   H3S17299   0.288   0.818   5.776
  156SAPE   C2417300   0.307   0.625   5.712
  156SAPE   H4R17301   0.197   0.613   5.715
  156SAPE   H4S17302   0.345   0.531   5.756
  156SAPE   C2517303   0.358   0.646   5.571
  156SAPE   H5R17304   0.336   0.745   5.528
  156SAPE   C2617305   0.421   0.550   5.502
  156SAPE   H6R17306   0.459   0.580   5.403
  156SAPE   C2717307   0.456   0.414   5.548
  156SAPE   H7R17308   0.373   0.353   5.509
  156SAPE   H7S17309   0.456   0.404   5.659
  156SAPE   C2817310   0.589   0.370   5.500
  156SAPE   H8R17311   0.663   0.410   5.571
  156SAPE   C2917312   0.634   0.300   5.397
  156SAPE   H9R17313   0.739   0.269   5.398
  156SAPE  C21017314   0.543   0.250   5.286
  156SAPE  H10R17315   0.438   0.252   5.322
  156SAPE  H10S17316   0.557   0.140   5.278
  156SAPE  C21117317   0.552   0.323   5.154
  156SAPE  H11R17318   0.570   0.431   5.162
  156SAPE  C21217319   0.557   0.264   5.033
  156SAPE  H12R17320   0.562   0.329   4.944
  156SAPE  C21317321   0.559   0.118   4.998
  156SAPE  H13R17322   0.511   0.053   5.075
  156SAPE  H13S17323   0.659   0.072   4.983
  156SAPE  C21417324   0.465   0.097   4.881
  156SAPE  H14R17325   0.357   0.108   4.899
  156SAPE  C21517326   0.502   0.096   4.750
  156SAPE  H15R17327   0.424   0.086   4.674
  156SAPE  C21617328   0.642   0.106   4.689
  156SAPE  H16R17329   0.681   0.003   4.673
  156SAPE  H16S17330   0.711   0.161   4.756
  156SAPE  C21717331   0.642   0.177   4.552
  156SAPE  H17R17332   0.582   0.116   4.481
  156SAPE  H17S17333   0.743   0.163   4.508
  156SAPE  C21817334   0.598   0.324   4.573
  156SAPE  H18R17335   0.499   0.335   4.622
  156SAPE  H18S17336   0.583   0.353   4.466
  156SAPE  C21917337   0.714   0.405   4.630
  156SAPE  H19R17338   0.811   0.359   4.600
  156SAPE  H19S17339   0.711   0.386   4.740
  156SAPE  C22017340   0.726   0.555   4.586
  156SAPE  H20R17341   0.810   0.611   4.631
  156SAPE  H20S17342   0.633   0.610   4.612
  156SAPE  H20T17343   0.730   0.564   4.475
  156SAPE   C3317344   0.514   0.090   6.217
  156SAPE   H3X17345   0.541   6.861   6.205
  156SAPE   H3Y17346   0.609   0.144   6.197
  156SAPE   C3417347   0.400   0.119   6.117
  156SAPE   H4X17348   0.373   0.227   6.121
  156SAPE   H4Y17349   0.299   0.082   6.142
  156SAPE   C3517350   0.440   0.098   5.967
  156SAPE   H5X17351   0.474   6.872   5.950
  156SAPE   H5Y17352   0.530   0.158   5.940
  156SAPE   C3617353   0.335   0.135   5.861
  156SAPE   H6X17354   0.318   0.245   5.857
  156SAPE   H6Y17355   0.231   0.097   5.877
  156SAPE   C3717356   0.380   0.073   5.731
  156SAPE   H7X17357   0.396   6.841   5.728
  156SAPE   H7Y17358   0.472   0.127   5.699
  156SAPE   C3817359   0.270   0.096   5.632
  156SAPE   H8X17360   0.253   0.205   5.613
  156SAPE   H8Y17361   0.179   0.052   5.678
  156SAPE   C3917362   0.302   0.019   5.500
  156SAPE   H9X17363   0.314   6.790   5.528
  156SAPE   H9Y17364   0.400   0.058   5.465
  156SAPE  C31017365   0.190   0.017   5.390
  156SAPE  H10X17366   0.163   0.121   5.362
  156SAPE  H10Y17367   0.098   6.858   5.441
  156SAPE  C31117368   0.220   6.791   5.273
  156SAPE  H11X17369   0.206   6.692   5.323
  156SAPE  H11Y17370   0.328   6.798   5.250
  156SAPE  C31217371   0.111   6.796   5.155
  156SAPE  H12X17372   0.160   6.714   5.098
  156SAPE  H12Y17373   0.116   0.018   5.106
  156SAPE  C31317374   6.846   6.756   5.199
  156SAPE  H13X17375   6.795   6.841   5.248
  156SAPE  H13Y17376   6.861   6.667   5.264
  156SAPE  C31417377   6.765   6.711   5.075
  156SAPE  H14X17378   6.691   6.634   5.104
  156SAPE  H14Y17379   6.835   6.665   5.002
  156SAPE  C31517380   6.696   6.831   5.010
  156SAPE  H15X17381   6.775   0.031   5.011
  156SAPE  H15Y17382   6.607   6.869   5.065
  156SAPE  C31617383   6.669   6.808   4.860
  156SAPE  H16X17384   6.579   6.744   4.848
  156SAPE  H16Y17385   6.758   6.769   4.807
  156SAPE  C31717386   6.644   0.059   4.785
  156SAPE  H17X17387   6.578   0.121   4.850
  156SAPE  H17Y17388   6.590   0.030   4.693
  156SAPE  C31817389   6.775   0.130   4.746
  156SAPE  H18X17390   6.755   0.214   4.676
  156SAPE  H18Y17391   6.836   0.045   4.708
  156SAPE  H18Z17392   6.830   0.174   4.833
  157SAPE     N17393   1.078   5.663   6.730
  157SAPE   HN117394   1.175   5.628   6.744
  157SAPE   HN217395   1.059   5.692   6.632
  157SAPE   HN317396   1.056   5.747   6.787
  157SAPE   C1217397   0.976   5.553   6.761
  157SAPE  H12A17398   1.035   5.476   6.815
  157SAPE  H12B17399   0.928   5.521   6.666
  157SAPE   C1117400   0.860   5.609   6.846
  157SAPE  H11A17401   0.901   5.640   6.944
  157SAPE  H11B17402   0.783   5.529   6.852
  157SAPE     P17403   0.824   5.874   6.818
  157SAPE   O1317404   0.727   5.911   6.926
  157SAPE   O1417405   0.971   5.888   6.838
  157SAPE   O1217406   0.798   5.724   6.783
  157SAPE   O1117407   0.786   5.948   6.682
  157SAPE    C117408   0.655   5.951   6.620
  157SAPE    HA17409   0.647   5.920   6.513
  157SAPE    HB17410   0.588   5.878   6.669
  157SAPE    C217411   0.585   6.095   6.632
  157SAPE    HS17412   0.616   6.132   6.731
  157SAPE   O2117413   0.447   6.068   6.621
  157SAPE   C2117414   0.369   6.167   6.674
  157SAPE   O2217415   0.412   6.259   6.739
  157SAPE   C2217416   0.229   6.152   6.618
  157SAPE   H2R17417   0.203   6.045   6.629
  157SAPE   H2S17418   0.156   6.200   6.687
  157SAPE    C317419   0.647   6.202   6.532
  157SAPE    HX17420   0.756   6.200   6.550
  157SAPE    HY17421   0.611   6.304   6.560
  157SAPE   O3117422   0.622   6.164   6.399
  157SAPE   C3117423   0.621   6.253   6.311
  157SAPE   O3217424   0.635   6.375   6.333
  157SAPE   C3217425   0.580   6.191   6.174
  157SAPE   H2X17426   0.493   6.246   6.134
  157SAPE   H2Y17427   0.530   6.092   6.182
  157SAPE   C2317428   0.218   6.186   6.472
  157SAPE   H3R17429   0.160   6.115   6.410
  157SAPE   H3S17430   0.318   6.177   6.426
  157SAPE   C2417431   0.153   6.323   6.446
  157SAPE   H4R17432   0.047   6.314   6.478
  157SAPE   H4S17433   0.152   6.333   6.336
  157SAPE   C2517434   0.217   6.448   6.502
  157SAPE   H5R17435   0.239   6.435   6.609
  157SAPE   C2617436   0.259   6.560   6.443
  157SAPE   H6R17437   0.294   6.648   6.500
  157SAPE   C2717438   0.240   6.597   6.305
  157SAPE   H7R17439   0.208   6.702   6.290
  157SAPE   H7S17440   0.155   6.544   6.258
  157SAPE   C2817441   0.370   6.578   6.231
  157SAPE   H8R17442   0.461   6.600   6.289
  157SAPE   C2917443   0.379   6.528   6.111
  157SAPE   H9R17444   0.480   6.506   6.074
  157SAPE  C21017445   0.277   6.492   6.009
  157SAPE  H10R17446   0.175   6.486   6.053
  157SAPE  H10S17447   0.285   6.384   5.988
  157SAPE  C21117448   0.254   6.591   5.898
  157SAPE  H11R17449   0.260   6.696   5.931
  157SAPE  C21217450   0.238   6.567   5.767
  157SAPE  H12R17451   0.226   6.655   5.702
  157SAPE  C21317452   0.230   6.435   5.710
  157SAPE  H13R17453   0.195   6.362   5.786
  157SAPE  H13S17454   0.334   6.403   5.691
  157SAPE  C21417455   0.132   6.422   5.594
  157SAPE  H14R17456   0.025   6.423   5.616
  157SAPE  C21517457   0.175   6.445   5.470
  157SAPE  H15R17458   0.097   6.431   5.393
  157SAPE  C21617459   0.317   6.454   5.410
  157SAPE  H16R17460   0.389   6.409   5.481
  157SAPE  H16S17461   0.348   6.560   5.400
  157SAPE  C21717462   0.326   6.378   5.273
  157SAPE  H17R17463   0.273   6.281   5.275
  157SAPE  H17S17464   0.434   6.353   5.264
  157SAPE  C21817465   0.288   6.466   5.157
  157SAPE  H18R17466   0.361   6.549   5.165
  157SAPE  H18S17467   0.184   6.505   5.155
  157SAPE  C21917468   0.313   6.391   5.025
  157SAPE  H19R17469   0.268   6.290   5.037
  157SAPE  H19S17470   0.423   6.379   5.012
  157SAPE  C22017471   0.236   6.450   4.899
  157SAPE  H20R17472   0.132   6.411   4.898
  157SAPE  H20S17473   0.284   6.409   4.808
  157SAPE  H20T17474   0.250   6.559   4.913
  157SAPE   C3317475   0.686   6.206   6.067
  157SAPE   H3X17476   0.777   6.165   6.115
  157SAPE   H3Y17477   0.714   6.312   6.052
  157SAPE   C3417478   0.665   6.139   5.930
  157SAPE   H4X17479   0.619   6.038   5.942
  157SAPE   H4Y17480   0.764   6.128   5.880
  157SAPE   C3517481   0.579   6.227   5.838
  157SAPE   H5X17482   0.645   6.314   5.813
  157SAPE   H5Y17483   0.485   6.260   5.886
  157SAPE   C3617484   0.547   6.160   5.704
  157SAPE   H6X17485   0.465   6.214   5.651
  157SAPE   H6Y17486   0.507   6.060   5.731
  157SAPE   C3717487   0.671   6.155   5.618
  157SAPE   H7X17488   0.740   6.075   5.652
  157SAPE   H7Y17489   0.732   6.248   5.611
  157SAPE   C3817490   0.637   6.103   5.476
  157SAPE   H8X17491   0.562   6.173   5.434
  157SAPE   H8Y17492   0.594   6.001   5.480
  157SAPE   C3917493   0.763   6.102   5.380
  157SAPE   H9X17494   0.838   6.044   5.439
  157SAPE   H9Y17495   0.811   6.199   5.357
  157SAPE  C31017496   0.731   6.039   5.244
  157SAPE  H10X17497   0.681   5.940   5.243
  157SAPE  H10Y17498   0.833   6.034   5.200
  157SAPE  C31117499   0.642   6.136   5.163
  157SAPE  H11X17500   0.681   6.239   5.177
  157SAPE  H11Y17501   0.534   6.139   5.187
  157SAPE  C31217502   0.653   6.093   5.015
  157SAPE  H12X17503   0.573   6.149   4.961
  157SAPE  H12Y17504   0.633   5.985   5.004
  157SAPE  C31317505   0.782   6.145   4.959
  157SAPE  H13X17506   0.868   6.082   4.991
  157SAPE  H13Y17507   0.800   6.248   4.998
  157SAPE  C31417508   0.793   6.152   4.802
  157SAPE  H14X17509   0.897   6.167   4.765
  157SAPE  H14Y17510   0.730   6.239   4.771
  157SAPE  C31517511   0.743   6.023   4.743
  157SAPE  H15X17512   0.648   5.990   4.789
  157SAPE  H15Y17513   0.808   5.936   4.766
  157SAPE  C31617514   0.751   6.023   4.595
  157SAPE  H16X17515   0.842   6.078   4.563
  157SAPE  H16Y17516   0.666   6.087   4.563
  157SAPE  C31717517   0.723   5.885   4.524
  157SAPE  H17X17518   0.624   5.856   4.564
  157SAPE  H17Y17519   0.793   5.806   4.558
  157SAPE  C31817520   0.725   5.887   4.370
  157SAPE  H18X17521   0.641   5.952   4.336
  157SAPE  H18Y17522   0.703   5.785   4.332
  157SAPE  H18Z17523   0.821   5.925   4.330
  158SAPE     N17524   3.122   4.591   6.492
  158SAPE   HN117525   3.024   4.624   6.480
  158SAPE   HN217526   3.196   4.636   6.435
  158SAPE   HN317527   3.121   4.491   6.462
  158SAPE   C1217528   3.161   4.602   6.635
  158SAPE  H12A17529   3.249   4.536   6.647
  158SAPE  H12B17530   3.079   4.563   6.699
  158SAPE   C1117531   3.195   4.741   6.670
  158SAPE  H11A17532   3.260   4.784   6.591
  158SAPE  H11B17533   3.248   4.755   6.766
  158SAPE     P17534   3.080   4.970   6.712
  158SAPE   O1317535   2.934   5.009   6.723
  158SAPE   O1417536   3.176   4.995   6.821
  158SAPE   O1217537   3.075   4.815   6.677
  158SAPE   O1117538   3.134   5.035   6.576
  158SAPE    C117539   3.222   5.152   6.584
  158SAPE    HA17540   3.173   5.241   6.628
  158SAPE    HB17541   3.313   5.120   6.638
  158SAPE    C217542   3.271   5.182   6.437
  158SAPE    HS17543   3.337   5.270   6.449
  158SAPE   O2117544   3.167   5.216   6.352
  158SAPE   C2117545   3.184   5.307   6.260
  158SAPE   O2217546   3.289   5.355   6.225
  158SAPE   C2217547   3.047   5.333   6.198
  158SAPE   H2R17548   2.989   5.239   6.204
  158SAPE   H2S17549   2.990   5.402   6.263
  158SAPE    C317550   3.351   5.064   6.386
  158SAPE    HX17551   3.288   4.974   6.394
  158SAPE    HY17552   3.433   5.045   6.459
  158SAPE   O3117553   3.410   5.079   6.251
  158SAPE   C3117554   3.333   5.036   6.154
  158SAPE   O3217555   3.218   4.995   6.170
  158SAPE   C3217556   3.404   5.068   6.028
  158SAPE   H2X17557   3.481   4.992   6.004
  158SAPE   H2Y17558   3.448   5.170   6.030
  158SAPE   C2317559   3.060   5.385   6.055
  158SAPE   H3R17560   3.123   5.317   5.995
  158SAPE   H3S17561   3.122   5.477   6.053
  158SAPE   C2417562   2.929   5.410   5.989
  158SAPE   H4R17563   2.889   5.308   5.972
  158SAPE   H4S17564   2.952   5.443   5.886
  158SAPE   C2517565   2.833   5.511   6.049
  158SAPE   H5R17566   2.767   5.470   6.127
  158SAPE   C2617567   2.791   5.631   6.006
  158SAPE   H6R17568   2.722   5.687   6.070
  158SAPE   C2717569   2.847   5.707   5.891
  158SAPE   H7R17570   2.768   5.774   5.849
  158SAPE   H7S17571   2.868   5.632   5.812
  158SAPE   C2817572   2.967   5.798   5.932
  158SAPE   H8R17573   2.985   5.818   6.039
  158SAPE   C2917574   3.050   5.869   5.848
  158SAPE   H9R17575   3.131   5.921   5.901
  158SAPE  C21017576   3.033   5.873   5.700
  158SAPE  H10R17577   2.927   5.853   5.676
  158SAPE  H10S17578   3.097   5.796   5.652
  158SAPE  C21117579   3.074   6.005   5.638
  158SAPE  H11R17580   3.105   6.080   5.712
  158SAPE  C21217581   3.078   6.029   5.508
  158SAPE  H12R17582   3.115   6.128   5.477
  158SAPE  C21317583   3.036   5.934   5.391
  158SAPE  H13R17584   3.061   5.830   5.418
  158SAPE  H13S17585   3.095   5.957   5.299
  158SAPE  C21417586   2.892   5.926   5.364
  158SAPE  H14R17587   2.834   5.910   5.456
  158SAPE  C21517588   2.829   5.936   5.248
  158SAPE  H15R17589   2.720   5.927   5.254
  158SAPE  C21617590   2.887   5.959   5.115
  158SAPE  H16R17591   2.862   5.872   5.050
  158SAPE  H16S17592   2.997   5.962   5.107
  158SAPE  C21717593   2.834   6.085   5.035
  158SAPE  H17R17594   2.876   6.094   4.932
  158SAPE  H17S17595   2.857   6.182   5.084
  158SAPE  C21817596   2.683   6.069   5.010
  158SAPE  H18R17597   2.633   6.026   5.100
  158SAPE  H18S17598   2.679   5.996   4.926
  158SAPE  C21917599   2.614   6.197   4.960
  158SAPE  H19R17600   2.524   6.165   4.904
  158SAPE  H19S17601   2.690   6.240   4.892
  158SAPE  C22017602   2.578   6.289   5.073
  158SAPE  H20R17603   2.525   6.238   5.156
  158SAPE  H20S17604   2.530   6.376   5.022
  158SAPE  H20T17605   2.670   6.314   5.130
  158SAPE   C3317606   3.300   5.062   5.909
  158SAPE   H3X17607   3.213   5.128   5.928
  158SAPE   H3Y17608   3.266   4.956   5.905
  158SAPE   C3417609   3.371   5.085   5.771
  158SAPE   H4X17610   3.473   5.042   5.762
  158SAPE   H4Y17611   3.388   5.193   5.753
  158SAPE   C3517612   3.274   5.029   5.656
  158SAPE   H5X17613   3.176   5.081   5.664
  158SAPE   H5Y17614   3.243   4.923   5.659
  158SAPE   C3617615   3.328   5.039   5.508
  158SAPE   H6X17616   3.425   4.985   5.498
  158SAPE   H6Y17617   3.367   5.142   5.490
  158SAPE   C3717618   3.228   4.995   5.402
  158SAPE   H7X17619   3.162   4.916   5.445
  158SAPE   H7Y17620   3.289   4.951   5.320
  158SAPE   C3817621   3.141   5.101   5.344
  158SAPE   H8X17622   3.189   5.201   5.346
  158SAPE   H8Y17623   3.048   5.106   5.403
  158SAPE   C3917624   3.111   5.072   5.196
  158SAPE   H9X17625   3.047   4.981   5.186
  158SAPE   H9Y17626   3.202   5.046   5.138
  158SAPE  C31017627   3.043   5.181   5.120
  158SAPE  H10X17628   3.098   5.277   5.131
  158SAPE  H10Y17629   2.942   5.209   5.159
  158SAPE  C31117630   3.046   5.143   4.970
  158SAPE  H11X17631   3.015   5.037   4.964
  158SAPE  H11Y17632   3.148   5.136   4.927
  158SAPE  C31217633   2.958   5.246   4.892
  158SAPE  H12X17634   3.034   5.326   4.882
  158SAPE  H12Y17635   2.863   5.271   4.943
  158SAPE  C31317636   2.932   5.181   4.756
  158SAPE  H13X17637   2.894   5.082   4.790
  158SAPE  H13Y17638   3.031   5.161   4.710
  158SAPE  C31417639   2.836   5.267   4.670
  158SAPE  H14X17640   2.884   5.340   4.602
  158SAPE  H14Y17641   2.761   5.322   4.731
  158SAPE  C31517642   2.749   5.186   4.569
  158SAPE  H15X17643   2.691   5.263   4.514
  158SAPE  H15Y17644   2.685   5.122   4.633
  158SAPE  C31617645   2.823   5.108   4.457
  158SAPE  H16X17646   2.900   5.045   4.506
  158SAPE  H16Y17647   2.871   5.181   4.388
  158SAPE  C31717648   2.729   5.013   4.380
  158SAPE  H17X17649   2.663   5.093   4.341
  158SAPE  H17Y17650   2.668   4.951   4.449
  158SAPE  C31817651   2.801   4.933   4.274
  158SAPE  H18X17652   2.836   5.005   4.197
  158SAPE  H18Y17653   2.739   4.855   4.225
  158SAPE  H18Z17654   2.882   4.875   4.324
  159SAPE     N17655   5.346   2.855   2.402
  159SAPE   HN117656   5.378   2.783   2.470
  159SAPE   HN217657   5.422   2.925   2.411
  159SAPE   HN317658   5.261   2.891   2.450
  159SAPE   C1217659   5.315   2.817   2.256
  159SAPE  H12A17660   5.205   2.819   2.249
  159SAPE  H12B17661   5.352   2.712   2.246
  159SAPE   C1117662   5.369   2.930   2.163
  159SAPE  H11A17663   5.314   3.023   2.190
  159SAPE  H11B17664   5.344   2.898   2.060
  159SAPE     P17665   5.585   3.055   2.093
  159SAPE   O1317666   5.684   2.972   2.022
  159SAPE   O1417667   5.487   3.126   2.010
  159SAPE   O1217668   5.508   2.952   2.190
  159SAPE   O1117669   5.639   3.164   2.194
  159SAPE    C117670   5.727   3.119   2.300
  159SAPE    HA17671   5.699   3.015   2.328
  159SAPE    HB17672   5.831   3.117   2.261
  159SAPE    C217673   5.725   3.210   2.424
  159SAPE    HS17674   5.732   3.133   2.504
  159SAPE   O2117675   5.600   3.281   2.433
  159SAPE   C2117676   5.486   3.215   2.446
  159SAPE   O2217677   5.478   3.096   2.458
  159SAPE   C2217678   5.376   3.310   2.470
  159SAPE   H2R17679   5.399   3.384   2.550
  159SAPE   H2S17680   5.367   3.367   2.376
  159SAPE    C317681   5.840   3.316   2.429
  159SAPE    HX17682   5.827   3.393   2.350
  159SAPE    HY17683   5.931   3.263   2.397
  159SAPE   O3117684   5.855   3.386   2.563
  159SAPE   C3117685   5.911   3.309   2.652
  159SAPE   O3217686   5.943   3.194   2.629
  159SAPE   C3217687   5.912   3.374   2.791
  159SAPE   H2X17688   5.809   3.403   2.819
  159SAPE   H2Y17689   5.991   3.451   2.781
  159SAPE   C2317690   5.235   3.246   2.496
  159SAPE   H3R17691   5.240   3.147   2.447
  159SAPE   H3S17692   5.154   3.316   2.465
  159SAPE   C2417693   5.214   3.207   2.645
  159SAPE   H4R17694   5.270   3.114   2.668
  159SAPE   H4S17695   5.114   3.163   2.666
  159SAPE   C2517696   5.240   3.320   2.744
  159SAPE   H5R17697   5.179   3.411   2.735
  159SAPE   C2617698   5.317   3.308   2.851
  159SAPE   H6R17699   5.337   3.389   2.922
  159SAPE   C2717700   5.404   3.184   2.885
  159SAPE   H7R17701   5.498   3.206   2.939
  159SAPE   H7S17702   5.434   3.135   2.790
  159SAPE   C2817703   5.327   3.083   2.962
  159SAPE   H8R17704   5.272   3.013   2.897
  159SAPE   C2917705   5.331   3.065   3.096
  159SAPE   H9R17706   5.280   2.977   3.139
  159SAPE  C21017707   5.401   3.154   3.201
  159SAPE  H10R17708   5.458   3.239   3.159
  159SAPE  H10S17709   5.481   3.089   3.242
  159SAPE  C21117710   5.305   3.215   3.291
  159SAPE  H11R17711   5.279   3.320   3.270
  159SAPE  C21217712   5.273   3.172   3.414
  159SAPE  H12R17713   5.200   3.231   3.471
  159SAPE  C21317714   5.317   3.039   3.478
  159SAPE  H13R17715   5.400   3.060   3.549
  159SAPE  H13S17716   5.364   2.972   3.403
  159SAPE  C21417717   5.198   2.961   3.533
  159SAPE  H14R17718   5.113   2.958   3.464
  159SAPE  C21517719   5.183   2.928   3.659
  159SAPE  H15R17720   5.092   2.870   3.684
  159SAPE  C21617721   5.276   2.934   3.772
  159SAPE  H16R17722   5.379   2.964   3.741
  159SAPE  H16S17723   5.290   2.828   3.802
  159SAPE  C21717724   5.230   3.012   3.894
  159SAPE  H17R17725   5.130   2.972   3.921
  159SAPE  H17S17726   5.217   3.115   3.855
  159SAPE  C21817727   5.320   2.996   4.015
  159SAPE  H18R17728   5.421   3.033   3.987
  159SAPE  H18S17729   5.337   2.892   4.049
  159SAPE  C21917730   5.283   3.100   4.133
  159SAPE  H19R17731   5.185   3.067   4.175
  159SAPE  H19S17732   5.279   3.203   4.092
  159SAPE  C22017733   5.380   3.092   4.253
  159SAPE  H20R17734   5.360   3.169   4.331
  159SAPE  H20S17735   5.481   3.115   4.214
  159SAPE  H20T17736   5.378   2.992   4.300
  159SAPE   C3317737   5.976   3.275   2.887
  159SAPE   H3X17738   6.084   3.291   2.867
  159SAPE   H3Y17739   5.943   3.168   2.886
  159SAPE   C3417740   5.964   3.318   3.038
  159SAPE   H4X17741   6.019   3.247   3.103
  159SAPE   H4Y17742   5.856   3.302   3.060
  159SAPE   C3517743   6.000   3.469   3.073
  159SAPE   H5X17744   5.928   3.539   3.026
  159SAPE   H5Y17745   6.103   3.491   3.038
  159SAPE   C3617746   5.991   3.489   3.225
  159SAPE   H6X17747   6.065   3.424   3.276
  159SAPE   H6Y17748   5.889   3.450   3.245
  159SAPE   C3717749   6.005   3.634   3.273
  159SAPE   H7X17750   6.042   3.632   3.378
  159SAPE   H7Y17751   5.900   3.669   3.265
  159SAPE   C3817752   6.089   3.736   3.197
  159SAPE   H8X17753   6.072   3.835   3.244
  159SAPE   H8Y17754   6.067   3.742   3.088
  159SAPE   C3917755   6.239   3.701   3.204
  159SAPE   H9X17756   6.294   3.771   3.137
  159SAPE   H9Y17757   6.258   3.601   3.160
  159SAPE  C31017758   6.302   3.714   3.343
  159SAPE  H10X17759   6.247   3.653   3.418
  159SAPE  H10Y17760   6.295   3.818   3.381
  159SAPE  C31117761   6.446   3.668   3.336
  159SAPE  H11X17762   6.504   3.734   3.268
  159SAPE  H11Y17763   6.446   3.570   3.283
  159SAPE  C31217764   6.509   3.638   3.473
  159SAPE  H12X17765   6.607   3.587   3.456
  159SAPE  H12Y17766   6.445   3.574   3.537
  159SAPE  C31317767   6.542   3.759   3.565
  159SAPE  H13X17768   6.449   3.819   3.573
  159SAPE  H13Y17769   6.614   3.822   3.509
  159SAPE  C31417770   6.600   3.708   3.700
  159SAPE  H14X17771   6.521   3.641   3.740
  159SAPE  H14Y17772   6.619   3.794   3.768
  159SAPE  C31517773   6.725   3.625   3.695
  159SAPE  H15X17774   6.804   3.672   3.634
  159SAPE  H15Y17775   6.702   3.529   3.644
  159SAPE  C31617776   6.786   3.597   3.829
  159SAPE  H16X17777   6.702   3.577   3.898
  159SAPE  H16Y17778   6.836   3.686   3.871
  159SAPE  C31717779   0.005   3.478   3.840
  159SAPE  H17X17780   6.838   3.392   3.787
  159SAPE  H17Y17781   0.017   3.455   3.948
  159SAPE  C31817782   0.133   3.509   3.768
  159SAPE  H18X17783   0.162   3.607   3.811
  159SAPE  H18Y17784   0.124   3.525   3.659
  159SAPE  H18Z17785   0.208   3.428   3.784
  160SAPE     N17786   5.415   2.347   2.098
  160SAPE   HN117787   5.504   2.326   2.049
  160SAPE   HN217788   5.373   2.427   2.047
  160SAPE   HN317789   5.442   2.375   2.195
  160SAPE   C1217790   5.315   2.233   2.129
  160SAPE  H12A17791   5.378   2.171   2.197
  160SAPE  H12B17792   5.285   2.187   2.033
  160SAPE   C1117793   5.201   2.296   2.203
  160SAPE  H11A17794   5.253   2.353   2.283
  160SAPE  H11B17795   5.148   2.211   2.251
  160SAPE     P17796   4.974   2.322   2.067
  160SAPE   O1317797   4.892   2.432   2.030
  160SAPE   O1417798   4.982   2.208   1.976
  160SAPE   O1217799   5.113   2.372   2.120
  160SAPE   O1117800   4.919   2.272   2.199
  160SAPE    C117801   4.844   2.355   2.296
  160SAPE    HA17802   4.881   2.459   2.290
  160SAPE    HB17803   4.736   2.349   2.273
  160SAPE    C217804   4.857   2.314   2.446
  160SAPE    HS17805   4.793   2.370   2.517
  160SAPE   O2117806   4.993   2.328   2.494
  160SAPE   C2117807   5.022   2.442   2.538
  160SAPE   O2217808   4.948   2.539   2.554
  160SAPE   C2217809   5.175   2.440   2.569
  160SAPE   H2R17810   5.218   2.356   2.511
  160SAPE   H2S17811   5.214   2.534   2.524
  160SAPE    C317812   4.823   2.162   2.461
  160SAPE    HX17813   4.902   2.112   2.401
  160SAPE    HY17814   4.727   2.142   2.410
  160SAPE   O3117815   4.821   2.100   2.594
  160SAPE   C3117816   4.736   2.012   2.616
  160SAPE   O3217817   4.652   1.966   2.541
  160SAPE   C3217818   4.759   1.953   2.754
  160SAPE   H2X17819   4.726   2.027   2.830
  160SAPE   H2Y17820   4.866   1.931   2.772
  160SAPE   C2317821   5.203   2.430   2.724
  160SAPE   H3R17822   5.135   2.490   2.786
  160SAPE   H3S17823   5.300   2.478   2.751
  160SAPE   C2417824   5.217   2.282   2.775
  160SAPE   H4R17825   5.266   2.278   2.874
  160SAPE   H4S17826   5.268   2.223   2.695
  160SAPE   C2517827   5.080   2.219   2.796
  160SAPE   H5R17828   5.031   2.182   2.704
  160SAPE   C2617829   5.002   2.201   2.908
  160SAPE   H6R17830   4.901   2.156   2.907
  160SAPE   C2717831   5.032   2.262   3.043
  160SAPE   H7R17832   4.938   2.266   3.102
  160SAPE   H7S17833   5.067   2.367   3.041
  160SAPE   C2817834   5.127   2.173   3.128
  160SAPE   H8R17835   5.229   2.213   3.138
  160SAPE   C2917836   5.085   2.073   3.209
  160SAPE   H9R17837   5.164   2.015   3.259
  160SAPE  C21017838   4.943   2.034   3.228
  160SAPE  H10R17839   4.873   2.100   3.173
  160SAPE  H10S17840   4.920   2.060   3.334
  160SAPE  C21117841   4.898   1.901   3.182
  160SAPE  H11R17842   4.897   1.893   3.072
  160SAPE  C21217843   4.838   1.806   3.258
  160SAPE  H12R17844   4.803   1.716   3.204
  160SAPE  C21317845   4.816   1.819   3.405
  160SAPE  H13R17846   4.716   1.776   3.427
  160SAPE  H13S17847   4.800   1.922   3.442
  160SAPE  C21417848   4.923   1.748   3.491
  160SAPE  H14R17849   4.916   1.639   3.503
  160SAPE  C21517850   5.019   1.807   3.556
  160SAPE  H15R17851   5.080   1.743   3.622
  160SAPE  C21617852   5.032   1.958   3.567
  160SAPE  H16R17853   4.934   2.006   3.545
  160SAPE  H16S17854   5.110   1.998   3.499
  160SAPE  C21717855   5.086   1.998   3.707
  160SAPE  H17R17856   5.170   1.932   3.737
  160SAPE  H17S17857   5.012   1.988   3.789
  160SAPE  C21817858   5.126   2.146   3.712
  160SAPE  H18R17859   5.041   2.195   3.660
  160SAPE  H18S17860   5.211   2.165   3.643
  160SAPE  C21917861   5.147   2.202   3.857
  160SAPE  H19R17862   5.057   2.185   3.921
  160SAPE  H19S17863   5.159   2.311   3.838
  160SAPE  C22017864   5.278   2.147   3.924
  160SAPE  H20R17865   5.293   2.207   4.017
  160SAPE  H20S17866   5.361   2.154   3.851
  160SAPE  H20T17867   5.250   2.042   3.943
  160SAPE   C3317868   4.668   1.829   2.776
  160SAPE   H3X17869   4.569   1.855   2.732
  160SAPE   H3Y17870   4.637   1.813   2.881
  160SAPE   C3417871   4.727   1.705   2.722
  160SAPE   H4X17872   4.822   1.693   2.777
  160SAPE   H4Y17873   4.752   1.707   2.613
  160SAPE   C3517874   4.645   1.571   2.733
  160SAPE   H5X17875   4.705   1.485   2.695
  160SAPE   H5Y17876   4.557   1.588   2.668
  160SAPE   C3617877   4.599   1.522   2.874
  160SAPE   H6X17878   4.676   1.524   2.953
  160SAPE   H6Y17879   4.564   1.417   2.868
  160SAPE   C3717880   4.467   1.581   2.922
  160SAPE   H7X17881   4.388   1.548   2.851
  160SAPE   H7Y17882   4.473   1.692   2.914
  160SAPE   C3817883   4.436   1.540   3.071
  160SAPE   H8X17884   4.413   1.431   3.074
  160SAPE   H8Y17885   4.337   1.584   3.095
  160SAPE   C3917886   4.535   1.579   3.191
  160SAPE   H9X17887   4.542   1.690   3.190
  160SAPE   H9Y17888   4.643   1.558   3.174
  160SAPE  C31017889   4.495   1.526   3.331
  160SAPE  H10X17890   4.573   1.553   3.405
  160SAPE  H10Y17891   4.488   1.415   3.324
  160SAPE  C31117892   4.360   1.580   3.383
  160SAPE  H11X17893   4.277   1.550   3.315
  160SAPE  H11Y17894   4.369   1.690   3.392
  160SAPE  C31217895   4.332   1.524   3.520
  160SAPE  H12X17896   4.377   1.423   3.526
  160SAPE  H12Y17897   4.225   1.507   3.546
  160SAPE  C31317898   4.383   1.625   3.628
  160SAPE  H13X17899   4.314   1.711   3.615
  160SAPE  H13Y17900   4.482   1.660   3.593
  160SAPE  C31417901   4.412   1.574   3.770
  160SAPE  H14X17902   4.500   1.510   3.748
  160SAPE  H14Y17903   4.328   1.512   3.808
  160SAPE  C31517904   4.470   1.685   3.865
  160SAPE  H15X17905   4.430   1.788   3.852
  160SAPE  H15Y17906   4.579   1.696   3.849
  160SAPE  C31617907   4.453   1.645   4.015
  160SAPE  H16X17908   4.344   1.637   4.039
  160SAPE  H16Y17909   4.491   1.728   4.079
  160SAPE  C31717910   4.521   1.509   4.048
  160SAPE  H17X17911   4.628   1.516   4.017
  160SAPE  H17Y17912   4.464   1.431   3.994
  160SAPE  C31817913   4.531   1.476   4.198
  160SAPE  H18X17914   4.431   1.465   4.246
  160SAPE  H18Y17915   4.576   1.556   4.262
  160SAPE  H18Z17916   4.586   1.381   4.217
  161SAPE     N17917   1.833   3.905   1.677
  161SAPE   HN117918   1.742   3.894   1.726
  161SAPE   HN217919   1.861   4.003   1.698
  161SAPE   HN317920   1.818   3.894   1.575
  161SAPE   C1217921   1.947   3.824   1.715
  161SAPE  H12A17922   2.006   3.808   1.623
  161SAPE  H12B17923   1.910   3.731   1.764
  161SAPE   C1117924   2.043   3.894   1.814
  161SAPE  H11A17925   2.136   3.834   1.819
  161SAPE  H11B17926   1.999   3.879   1.915
  161SAPE     P17927   2.179   4.092   1.692
  161SAPE   O1317928   2.240   3.984   1.615
  161SAPE   O1417929   2.145   4.215   1.621
  161SAPE   O1217930   2.053   4.038   1.777
  161SAPE   O1117931   2.281   4.128   1.811
  161SAPE    C117932   2.247   4.189   1.940
  161SAPE    HA17933   2.170   4.267   1.921
  161SAPE    HB17934   2.200   4.106   1.997
  161SAPE    C217935   2.367   4.255   2.005
  161SAPE    HS17936   2.415   4.308   1.920
  161SAPE   O2117937   2.464   4.162   2.057
  161SAPE   C2117938   2.582   4.211   2.087
  161SAPE   O2217939   2.622   4.327   2.070
  161SAPE   C2217940   2.670   4.098   2.123
  161SAPE   H2R17941   2.613   4.003   2.130
  161SAPE   H2S17942   2.744   4.070   2.044
  161SAPE    C317943   2.323   4.356   2.118
  161SAPE    HX17944   2.266   4.439   2.071
  161SAPE    HY17945   2.403   4.417   2.165
  161SAPE   O3117946   2.248   4.294   2.219
  161SAPE   C3117947   2.292   4.305   2.347
  161SAPE   O3217948   2.398   4.349   2.375
  161SAPE   C3217949   2.190   4.246   2.440
  161SAPE   H2X17950   2.165   4.148   2.393
  161SAPE   H2Y17951   2.099   4.310   2.441
  161SAPE   C2317952   2.753   4.121   2.261
  161SAPE   H3R17953   2.777   4.228   2.275
  161SAPE   H3S17954   2.851   4.070   2.247
  161SAPE   C2417955   2.688   4.067   2.389
  161SAPE   H4R17956   2.678   3.957   2.386
  161SAPE   H4S17957   2.588   4.115   2.394
  161SAPE   C2517958   2.779   4.114   2.495
  161SAPE   H5R17959   2.865   4.174   2.462
  161SAPE   C2617960   2.736   4.125   2.623
  161SAPE   H6R17961   2.802   4.183   2.690
  161SAPE   C2717962   2.609   4.074   2.686
  161SAPE   H7R17963   2.519   4.063   2.622
  161SAPE   H7S17964   2.571   4.144   2.763
  161SAPE   C2817965   2.644   3.950   2.756
  161SAPE   H8R17966   2.610   3.859   2.705
  161SAPE   C2917967   2.711   3.935   2.876
  161SAPE   H9R17968   2.720   3.835   2.921
  161SAPE  C21017969   2.768   4.049   2.963
  161SAPE  H10R17970   2.756   4.145   2.909
  161SAPE  H10S17971   2.878   4.030   2.965
  161SAPE  C21117972   2.707   4.063   3.101
  161SAPE  H11R17973   2.646   4.154   3.113
  161SAPE  C21217974   2.723   3.995   3.215
  161SAPE  H12R17975   2.675   4.017   3.312
  161SAPE  C21317976   2.806   3.870   3.217
  161SAPE  H13R17977   2.882   3.885   3.296
  161SAPE  H13S17978   2.858   3.846   3.121
  161SAPE  C21417979   2.713   3.759   3.257
  161SAPE  H14R17980   2.675   3.700   3.173
  161SAPE  C21517981   2.694   3.710   3.379
  161SAPE  H15R17982   2.630   3.622   3.396
  161SAPE  C21617983   2.759   3.758   3.509
  161SAPE  H16R17984   2.673   3.752   3.579
  161SAPE  H16S17985   2.778   3.867   3.494
  161SAPE  C21717986   2.888   3.686   3.547
  161SAPE  H17R17987   2.930   3.736   3.637
  161SAPE  H17S17988   2.961   3.711   3.467
  161SAPE  C21817989   2.879   3.532   3.576
  161SAPE  H18R17990   2.960   3.508   3.649
  161SAPE  H18S17991   2.885   3.466   3.487
  161SAPE  C21917992   2.755   3.499   3.664
  161SAPE  H19R17993   2.664   3.519   3.603
  161SAPE  H19S17994   2.751   3.580   3.740
  161SAPE  C22017995   2.743   3.357   3.719
  161SAPE  H20R17996   2.762   3.279   3.643
  161SAPE  H20S17997   2.636   3.351   3.747
  161SAPE  H20T17998   2.795   3.333   3.814
  161SAPE   C3317999   2.246   4.245   2.584
  161SAPE   H3X18000   2.306   4.335   2.609
  161SAPE   H3Y18001   2.325   4.168   2.596
  161SAPE   C3418002   2.141   4.213   2.688
  161SAPE   H4X18003   2.106   4.110   2.669
  161SAPE   H4Y18004   2.067   4.296   2.675
  161SAPE   C3518005   2.202   4.224   2.825
  161SAPE   H5X18006   2.201   4.333   2.847
  161SAPE   H5Y18007   2.307   4.188   2.829
  161SAPE   C3618008   2.118   4.161   2.940
  161SAPE   H6X18009   2.082   4.058   2.919
  161SAPE   H6Y18010   2.032   4.230   2.954
  161SAPE   C3718011   2.198   4.160   3.074
  161SAPE   H7X18012   2.235   4.264   3.089
  161SAPE   H7Y18013   2.288   4.103   3.044
  161SAPE   C3818014   2.122   4.095   3.184
  161SAPE   H8X18015   2.109   3.987   3.163
  161SAPE   H8Y18016   2.019   4.132   3.202
  161SAPE   C3918017   2.196   4.096   3.323
  161SAPE   H9X18018   2.223   4.201   3.349
  161SAPE   H9Y18019   2.292   4.041   3.313
  161SAPE  C31018020   2.106   4.025   3.427
  161SAPE  H10X18021   2.089   3.922   3.391
  161SAPE  H10Y18022   2.014   4.083   3.451
  161SAPE  C31118023   2.201   4.006   3.550
  161SAPE  H11X18024   2.225   4.110   3.581
  161SAPE  H11Y18025   2.301   3.969   3.519
  161SAPE  C31218026   2.138   3.924   3.658
  161SAPE  H12X18027   2.091   3.834   3.613
  161SAPE  H12Y18028   2.057   3.974   3.715
  161SAPE  C31318029   2.240   3.874   3.765
  161SAPE  H13X18030   2.326   3.840   3.703
  161SAPE  H13Y18031   2.207   3.786   3.825
  161SAPE  C31418032   2.277   3.980   3.873
  161SAPE  H14X18033   2.335   4.059   3.821
  161SAPE  H14Y18034   2.357   3.936   3.936
  161SAPE  C31518035   2.163   4.032   3.966
  161SAPE  H15X18036   2.106   3.947   4.008
  161SAPE  H15Y18037   2.098   4.092   3.899
  161SAPE  C31618038   2.217   4.127   4.077
  161SAPE  H16X18039   2.263   4.055   4.149
  161SAPE  H16Y18040   2.134   4.176   4.134
  161SAPE  C31718041   2.302   4.243   4.027
  161SAPE  H17X18042   2.261   4.294   3.938
  161SAPE  H17Y18043   2.403   4.205   4.001
  161SAPE  C31818044   2.327   4.337   4.144
  161SAPE  H18X18045   2.225   4.354   4.187
  161SAPE  H18Y18046   2.380   4.430   4.116
  161SAPE  H18Z18047   2.392   4.289   4.221
  162SAPE     N18048   2.349   0.685   2.185
  162SAPE   HN118049   2.440   0.728   2.162
  162SAPE   HN218050   2.329   0.630   2.098
  162SAPE   HN318051   2.274   0.756   2.194
  162SAPE   C1218052   2.340   0.594   2.300
  162SAPE  H12A18053   2.318   0.657   2.388
  162SAPE  H12B18054   2.439   0.550   2.324
  162SAPE   C1118055   2.223   0.499   2.284
  162SAPE  H11A18056   2.133   0.563   2.271
  162SAPE  H11B18057   2.206   0.433   2.371
  162SAPE     P18058   2.322   0.284   2.159
  162SAPE   O1318059   2.262   0.209   2.048
  162SAPE   O1418060   2.466   0.318   2.157
  162SAPE   O1218061   2.243   0.417   2.168
  162SAPE   O1118062   2.296   0.204   2.287
  162SAPE    C118063   2.172   0.148   2.333
  162SAPE    HA18064   2.096   0.229   2.342
  162SAPE    HB18065   2.136   0.080   2.253
  162SAPE    C218066   2.185   0.051   2.458
  162SAPE    HS18067   2.089   0.002   2.485
  162SAPE   O2118068   2.215   0.124   2.575
  162SAPE   C2118069   2.118   0.198   2.631
  162SAPE   O2218070   2.008   0.224   2.586
  162SAPE   C2218071   2.163   0.227   2.773
  162SAPE   H2R18072   2.267   0.189   2.785
  162SAPE   H2S18073   2.159   0.336   2.794
  162SAPE    C318074   2.288   6.810   2.427
  162SAPE    HX18075   2.376   6.875   2.406
  162SAPE    HY18076   2.260   6.764   2.330
  162SAPE   O3118077   2.309   6.722   2.540
  162SAPE   C3118078   2.405   6.767   2.617
  162SAPE   O3218079   2.476   6.865   2.605
  162SAPE   C3218080   2.403   6.692   2.753
  162SAPE   H2X18081   2.473   6.751   2.817
  162SAPE   H2Y18082   2.458   6.601   2.720
  162SAPE   C2318083   2.071   0.155   2.880
  162SAPE   H3R18084   2.087   0.045   2.875
  162SAPE   H3S18085   1.968   0.182   2.848
  162SAPE   C2418086   2.112   0.205   3.017
  162SAPE   H4R18087   2.027   0.199   3.088
  162SAPE   H4S18088   2.135   0.313   3.005
  162SAPE   C2518089   2.233   0.138   3.074
  162SAPE   H5R18090   2.303   0.110   2.994
  162SAPE   C2618091   2.261   0.106   3.202
  162SAPE   H6R18092   2.350   0.043   3.217
  162SAPE   C2718093   2.187   0.127   3.331
  162SAPE   H7R18094   2.174   0.236   3.343
  162SAPE   H7S18095   2.248   0.089   3.417
  162SAPE   C2818096   2.054   0.058   3.341
  162SAPE   H8R18097   2.013   0.031   3.243
  162SAPE   C2918098   1.993   0.011   3.454
  162SAPE   H9R18099   1.893   6.843   3.448
  162SAPE  C21018100   2.052   0.022   3.594
  162SAPE  H10R18101   2.061   0.131   3.617
  162SAPE  H10S18102   2.155   6.857   3.588
  162SAPE  C21118103   1.971   6.835   3.695
  162SAPE  H11R18104   1.867   6.806   3.672
  162SAPE  C21218105   2.016   6.800   3.817
  162SAPE  H12R18106   1.952   6.737   3.881
  162SAPE  C21318107   2.161   6.829   3.861
  162SAPE  H13R18108   2.152   0.014   3.952
  162SAPE  H13S18109   2.225   0.004   3.787
  162SAPE  C21418110   2.238   6.695   3.875
  162SAPE  H14R18111   2.262   6.635   3.786
  162SAPE  C21518112   2.293   6.654   3.986
  162SAPE  H15R18113   2.350   6.560   3.982
  162SAPE  C21618114   2.297   6.707   4.125
  162SAPE  H16R18115   2.294   6.617   4.190
  162SAPE  H16S18116   2.203   6.764   4.143
  162SAPE  C21718117   2.415   6.801   4.150
  162SAPE  H17R18118   2.505   6.738   4.162
  162SAPE  H17S18119   2.407   6.840   4.254
  162SAPE  C21818120   2.443   0.034   4.052
  162SAPE  H18R18121   2.355   0.102   4.054
  162SAPE  H18S18122   2.458   6.874   3.948
  162SAPE  C21918123   2.560   0.116   4.098
  162SAPE  H19R18124   2.644   0.046   4.119
  162SAPE  H19S18125   2.536   0.156   4.199
  162SAPE  C22018126   2.601   0.226   4.004
  162SAPE  H20R18127   2.515   0.296   4.000
  162SAPE  H20S18128   2.626   0.181   3.905
  162SAPE  H20T18129   2.683   0.289   4.046
  162SAPE   C3318130   2.273   6.651   2.824
  162SAPE   H3X18131   2.208   6.601   2.749
  162SAPE   H3Y18132   2.228   6.750   2.847
  162SAPE   C3418133   2.295   6.575   2.964
  162SAPE   H4X18134   2.205   6.526   3.005
  162SAPE   H4Y18135   2.324   6.651   3.040
  162SAPE   C3518136   2.390   6.459   2.947
  162SAPE   H5X18137   2.494   6.489   2.919
  162SAPE   H5Y18138   2.356   6.386   2.870
  162SAPE   C3618139   2.402   6.372   3.071
  162SAPE   H6X18140   2.301   6.367   3.116
  162SAPE   H6Y18141   2.467   6.423   3.145
  162SAPE   C3718142   2.450   6.230   3.044
  162SAPE   H7X18143   2.545   6.247   2.989
  162SAPE   H7Y18144   2.389   6.155   2.990
  162SAPE   C3818145   2.496   6.163   3.177
  162SAPE   H8X18146   2.409   6.131   3.238
  162SAPE   H8Y18147   2.548   6.246   3.227
  162SAPE   C3918148   2.596   6.041   3.159
  162SAPE   H9X18149   2.617   6.010   3.264
  162SAPE   H9Y18150   2.687   6.079   3.109
  162SAPE  C31018151   2.543   5.926   3.076
  162SAPE  H10X18152   2.513   5.962   2.975
  162SAPE  H10Y18153   2.449   5.901   3.130
  162SAPE  C31118154   2.625   5.801   3.074
  162SAPE  H11X18155   2.719   5.838   3.029
  162SAPE  H11Y18156   2.577   5.722   3.013
  162SAPE  C31218157   2.650   5.732   3.216
  162SAPE  H12X18158   2.560   5.667   3.228
  162SAPE  H12Y18159   2.636   5.804   3.300
  162SAPE  C31318160   2.772   5.643   3.238
  162SAPE  H13X18161   2.865   5.702   3.224
  162SAPE  H13Y18162   2.786   5.563   3.162
  162SAPE  C31418163   2.775   5.584   3.379
  162SAPE  H14X18164   2.699   5.504   3.388
  162SAPE  H14Y18165   2.746   5.662   3.454
  162SAPE  C31518166   2.914   5.529   3.411
  162SAPE  H15X18167   2.992   5.607   3.417
  162SAPE  H15Y18168   2.941   5.461   3.328
  162SAPE  C31618169   2.923   5.444   3.542
  162SAPE  H16X18170   3.006   5.376   3.514
  162SAPE  H16Y18171   2.835   5.386   3.576
  162SAPE  C31718172   2.966   5.528   3.664
  162SAPE  H17X18173   2.890   5.602   3.698
  162SAPE  H17Y18174   3.051   5.593   3.632
  162SAPE  C31818175   3.021   5.454   3.788
  162SAPE  H18X18176   3.059   5.530   3.860
  162SAPE  H18Y18177   3.110   5.392   3.763
  162SAPE  H18Z18178   2.935   5.399   3.833
  163SAPE     N18179   0.999   3.604   1.715
  163SAPE   HN118180   0.918   3.579   1.655
  163SAPE   HN218181   0.999   3.701   1.753
  163SAPE   HN318182   1.082   3.607   1.653
  163SAPE   C1218183   1.010   3.502   1.825
  163SAPE  H12A18184   1.031   3.403   1.779
  163SAPE  H12B18185   0.913   3.486   1.875
  163SAPE   C1118186   1.111   3.544   1.939
  163SAPE  H11A18187   1.125   3.461   2.011
  163SAPE  H11B18188   1.055   3.623   1.993
  163SAPE     P18189   1.347   3.485   1.837
  163SAPE   O1318190   1.272   3.374   1.777
  163SAPE   O1418191   1.436   3.566   1.754
  163SAPE   O1218192   1.241   3.592   1.892
  163SAPE   O1118193   1.411   3.450   1.974
  163SAPE    C118194   1.482   3.538   2.061
  163SAPE    HA18195   1.590   3.514   2.051
  163SAPE    HB18196   1.478   3.644   2.029
  163SAPE    C218197   1.447   3.525   2.207
  163SAPE    HS18198   1.476   3.424   2.244
  163SAPE   O2118199   1.311   3.560   2.224
  163SAPE   C2118200   1.243   3.477   2.304
  163SAPE   O2218201   1.296   3.381   2.354
  163SAPE   C2218202   1.097   3.509   2.300
  163SAPE   H2R18203   1.086   3.597   2.233
  163SAPE   H2S18204   1.040   3.424   2.258
  163SAPE    C318205   1.526   3.620   2.291
  163SAPE    HX18206   1.489   3.720   2.262
  163SAPE    HY18207   1.634   3.608   2.267
  163SAPE   O3118208   1.498   3.604   2.430
  163SAPE   C3118209   1.551   3.507   2.502
  163SAPE   O3218210   1.636   3.431   2.468
  163SAPE   C3218211   1.480   3.506   2.645
  163SAPE   H2X18212   1.432   3.605   2.661
  163SAPE   H2Y18213   1.565   3.494   2.716
  163SAPE   C2318214   1.035   3.541   2.443
  163SAPE   H3R18215   1.099   3.492   2.519
  163SAPE   H3S18216   0.933   3.498   2.440
  163SAPE   C2418217   1.013   3.693   2.471
  163SAPE   H4R18218   0.963   3.712   2.569
  163SAPE   H4S18219   0.936   3.722   2.397
  163SAPE   C2518220   1.142   3.773   2.448
  163SAPE   H5R18221   1.166   3.791   2.342
  163SAPE   C2618222   1.229   3.807   2.538
  163SAPE   H6R18223   1.319   3.865   2.512
  163SAPE   C2718224   1.197   3.785   2.687
  163SAPE   H7R18225   1.286   3.726   2.716
  163SAPE   H7S18226   1.106   3.726   2.711
  163SAPE   C2818227   1.186   3.920   2.749
  163SAPE   H8R18228   1.192   4.002   2.676
  163SAPE   C2918229   1.188   3.950   2.877
  163SAPE   H9R18230   1.193   4.057   2.902
  163SAPE  C21018231   1.195   3.854   2.988
  163SAPE  H10R18232   1.219   3.750   2.958
  163SAPE  H10S18233   1.094   3.848   3.033
  163SAPE  C21118234   1.294   3.888   3.089
  163SAPE  H11R18235   1.386   3.934   3.050
  163SAPE  C21218236   1.295   3.874   3.221
  163SAPE  H12R18237   1.387   3.904   3.273
  163SAPE  C21318238   1.198   3.803   3.308
  163SAPE  H13R18239   1.242   3.727   3.376
  163SAPE  H13S18240   1.110   3.770   3.248
  163SAPE  C21418241   1.147   3.912   3.405
  163SAPE  H14R18242   1.102   4.005   3.367
  163SAPE  C21518243   1.135   3.905   3.542
  163SAPE  H15R18244   1.082   3.982   3.601
  163SAPE  C21618245   1.180   3.794   3.632
  163SAPE  H16R18246   1.289   3.811   3.641
  163SAPE  H16S18247   1.150   3.696   3.589
  163SAPE  C21718248   1.112   3.805   3.777
  163SAPE  H17R18249   1.009   3.774   3.749
  163SAPE  H17S18250   1.114   3.907   3.820
  163SAPE  C21818251   1.161   3.701   3.877
  163SAPE  H18R18252   1.178   3.601   3.831
  163SAPE  H18S18253   1.080   3.678   3.949
  163SAPE  C21918254   1.281   3.740   3.954
  163SAPE  H19R18255   1.259   3.847   3.977
  163SAPE  H19S18256   1.373   3.737   3.893
  163SAPE  C22018257   1.308   3.683   4.093
  163SAPE  H20R18258   1.218   3.665   4.155
  163SAPE  H20S18259   1.376   3.745   4.155
  163SAPE  H20T18260   1.352   3.581   4.090
  163SAPE   C3318261   1.359   3.403   2.659
  163SAPE   H3X18262   1.399   3.301   2.645
  163SAPE   H3Y18263   1.282   3.437   2.587
  163SAPE   C3418264   1.283   3.406   2.797
  163SAPE   H4X18265   1.194   3.340   2.783
  163SAPE   H4Y18266   1.253   3.509   2.824
  163SAPE   C3518267   1.368   3.339   2.909
  163SAPE   H5X18268   1.471   3.378   2.892
  163SAPE   H5Y18269   1.372   3.228   2.905
  163SAPE   C3618270   1.302   3.363   3.045
  163SAPE   H6X18271   1.206   3.307   3.047
  163SAPE   H6Y18272   1.266   3.468   3.045
  163SAPE   C3718273   1.401   3.377   3.158
  163SAPE   H7X18274   1.470   3.464   3.155
  163SAPE   H7Y18275   1.453   3.279   3.170
  163SAPE   C3818276   1.337   3.385   3.295
  163SAPE   H8X18277   1.269   3.298   3.314
  163SAPE   H8Y18278   1.277   3.476   3.313
  163SAPE   C3918279   1.436   3.380   3.409
  163SAPE   H9X18280   1.504   3.467   3.420
  163SAPE   H9Y18281   1.512   3.300   3.396
  163SAPE  C31018282   1.357   3.369   3.543
  163SAPE  H10X18283   1.284   3.285   3.536
  163SAPE  H10Y18284   1.316   3.466   3.575
  163SAPE  C31118285   1.439   3.332   3.663
  163SAPE  H11X18286   1.530   3.395   3.671
  163SAPE  H11Y18287   1.480   3.235   3.628
  163SAPE  C31218288   1.360   3.325   3.788
  163SAPE  H12X18289   1.267   3.267   3.772
  163SAPE  H12Y18290   1.319   3.421   3.827
  163SAPE  C31318291   1.430   3.261   3.903
  163SAPE  H13X18292   1.461   3.158   3.874
  163SAPE  H13Y18293   1.353   3.243   3.981
  163SAPE  C31418294   1.558   3.326   3.954
  163SAPE  H14X18295   1.542   3.428   3.995
  163SAPE  H14Y18296   1.632   3.348   3.873
  163SAPE  C31518297   1.618   3.244   4.065
  163SAPE  H15X18298   1.644   3.148   4.015
  163SAPE  H15Y18299   1.540   3.228   4.143
  163SAPE  C31618300   1.743   3.303   4.124
  163SAPE  H16X18301   1.719   3.380   4.200
  163SAPE  H16Y18302   1.793   3.349   4.036
  163SAPE  C31718303   1.833   3.194   4.180
  163SAPE  H17X18304   1.931   3.236   4.209
  163SAPE  H17Y18305   1.849   3.117   4.102
  163SAPE  C31818306   1.770   3.126   4.297
  163SAPE  H18X18307   1.827   3.035   4.326
  163SAPE  H18Y18308   1.669   3.085   4.278
  163SAPE  H18Z18309   1.765   3.189   4.389
  164SAPE     N18310   6.165   4.018   1.988
  164SAPE   HN118311   6.067   3.998   1.960
  164SAPE   HN218312   6.181   4.118   1.965
  164SAPE   HN318313   6.220   3.951   1.930
  164SAPE   C1218314   6.208   3.989   2.132
  164SAPE  H12A18315   6.314   3.956   2.125
  164SAPE  H12B18316   6.150   3.905   2.176
  164SAPE   C1118317   6.190   4.103   2.221
  164SAPE  H11A18318   6.217   4.076   2.325
  164SAPE  H11B18319   6.086   4.141   2.218
  164SAPE     P18320   6.415   4.243   2.187
  164SAPE   O1318321   6.486   4.139   2.107
  164SAPE   O1418322   6.447   4.385   2.159
  164SAPE   O1218323   6.264   4.219   2.173
  164SAPE   O1118324   6.438   4.217   2.344
  164SAPE    C118325   6.426   4.319   2.438
  164SAPE    HA18326   6.334   4.376   2.413
  164SAPE    HB18327   6.410   4.274   2.538
  164SAPE    C218328   6.548   4.410   2.439
  164SAPE    HS18329   6.589   4.426   2.337
  164SAPE   O2118330   6.644   4.347   2.529
  164SAPE   C2118331   6.769   4.393   2.523
  164SAPE   O2218332   6.804   4.487   2.453
  164SAPE   C2218333   6.861   4.328   2.631
  164SAPE   H2R18334   6.791   4.272   2.698
  164SAPE   H2S18335   0.057   4.259   2.585
  164SAPE    C318336   6.510   4.551   2.477
  164SAPE    HX18337   6.441   4.595   2.402
  164SAPE    HY18338   6.604   4.611   2.474
  164SAPE   O3118339   6.456   4.559   2.608
  164SAPE   C3118340   6.323   4.582   2.625
  164SAPE   O3218341   6.251   4.600   2.528
  164SAPE   C3218342   6.279   4.564   2.764
  164SAPE   H2X18343   6.208   4.645   2.788
  164SAPE   H2Y18344   6.367   4.580   2.830
  164SAPE   C2318345   0.052   4.429   2.734
  164SAPE   H3R18346   0.089   4.518   2.679
  164SAPE   H3S18347   0.139   4.375   2.777
  164SAPE   C2418348   6.832   4.476   2.839
  164SAPE   H4R18349   0.014   4.497   2.929
  164SAPE   H4S18350   6.778   4.386   2.875
  164SAPE   C2518351   6.744   4.594   2.809
  164SAPE   H5R18352   6.709   4.592   2.705
  164SAPE   C2618353   6.688   4.676   2.894
  164SAPE   H6R18354   6.630   4.762   2.857
  164SAPE   C2718355   6.707   4.671   3.040
  164SAPE   H7R18356   6.676   4.775   3.065
  164SAPE   H7S18357   6.815   4.666   3.066
  164SAPE   C2818358   6.618   4.579   3.126
  164SAPE   H8R18359   6.553   4.513   3.067
  164SAPE   C2918360   6.645   4.562   3.250
  164SAPE   H9R18361   6.590   4.483   3.304
  164SAPE  C21018362   6.754   4.621   3.334
  164SAPE  H10R18363   6.711   4.629   3.436
  164SAPE  H10S18364   6.773   4.728   3.311
  164SAPE  C21118365   0.002   4.540   3.327
  164SAPE  H11R18366   0.075   4.582   3.256
  164SAPE  C21218367   0.028   4.412   3.374
  164SAPE  H12R18368   0.125   4.367   3.350
  164SAPE  C21318369   6.804   4.333   3.449
  164SAPE  H13R18370   6.824   4.224   3.436
  164SAPE  H13S18371   6.701   4.342   3.409
  164SAPE  C21418372   6.803   4.358   3.598
  164SAPE  H14R18373   0.026   4.361   3.641
  164SAPE  C21518374   6.694   4.385   3.671
  164SAPE  H15R18375   6.701   4.390   3.780
  164SAPE  C21618376   6.552   4.372   3.636
  164SAPE  H16R18377   6.543   4.393   3.527
  164SAPE  H16S18378   6.485   4.443   3.689
  164SAPE  C21718379   6.489   4.228   3.668
  164SAPE  H17R18380   6.538   4.154   3.602
  164SAPE  H17S18381   6.384   4.237   3.634
  164SAPE  C21818382   6.505   4.190   3.812
  164SAPE  H18R18383   6.472   4.278   3.871
  164SAPE  H18S18384   6.614   4.178   3.826
  164SAPE  C21918385   6.415   4.074   3.850
  164SAPE  H19R18386   6.445   3.984   3.793
  164SAPE  H19S18387   6.310   4.096   3.822
  164SAPE  C22018388   6.418   4.046   4.004
  164SAPE  H20R18389   6.518   4.079   4.040
  164SAPE  H20S18390   6.407   3.937   4.021
  164SAPE  H20T18391   6.327   4.092   4.048
  164SAPE   C3318392   6.201   4.438   2.799
  164SAPE   H3X18393   6.255   4.365   2.735
  164SAPE   H3Y18394   6.096   4.437   2.765
  164SAPE   C3418395   6.212   4.393   2.948
  164SAPE   H4X18396   6.318   4.383   2.980
  164SAPE   H4Y18397   6.170   4.291   2.965
  164SAPE   C3518398   6.155   4.495   3.042
  164SAPE   H5X18399   6.045   4.479   3.051
  164SAPE   H5Y18400   6.169   4.603   3.023
  164SAPE   C3618401   6.224   4.482   3.177
  164SAPE   H6X18402   6.328   4.519   3.183
  164SAPE   H6Y18403   6.232   4.374   3.200
  164SAPE   C3718404   6.146   4.545   3.296
  164SAPE   H7X18405   6.125   4.652   3.276
  164SAPE   H7Y18406   6.211   4.543   3.385
  164SAPE   C3818407   6.009   4.485   3.327
  164SAPE   H8X18408   6.017   4.376   3.311
  164SAPE   H8Y18409   5.940   4.516   3.245
  164SAPE   C3918410   5.949   4.529   3.466
  164SAPE   H9X18411   5.843   4.508   3.490
  164SAPE   H9Y18412   5.964   4.639   3.466
  164SAPE  C31018413   6.026   4.451   3.579
  164SAPE  H10X18414   6.127   4.496   3.588
  164SAPE  H10Y18415   6.032   4.346   3.544
  164SAPE  C31118416   5.956   4.462   3.716
  164SAPE  H11X18417   5.856   4.414   3.711
  164SAPE  H11Y18418   5.945   4.571   3.737
  164SAPE  C31218419   6.028   4.386   3.828
  164SAPE  H12X18420   6.133   4.423   3.819
  164SAPE  H12Y18421   6.020   4.277   3.809
  164SAPE  C31318422   5.966   4.410   3.964
  164SAPE  H13X18423   5.865   4.363   3.972
  164SAPE  H13Y18424   5.959   4.520   3.981
  164SAPE  C31418425   6.054   4.356   4.083
  164SAPE  H14X18426   6.154   4.390   4.049
  164SAPE  H14Y18427   6.063   4.245   4.081
  164SAPE  C31518428   6.010   4.417   4.217
  164SAPE  H15X18429   6.011   4.528   4.222
  164SAPE  H15Y18430   6.062   4.358   4.295
  164SAPE  C31618431   5.866   4.387   4.250
  164SAPE  H16X18432   5.855   4.279   4.226
  164SAPE  H16Y18433   5.799   4.450   4.188
  164SAPE  C31718434   5.828   4.399   4.396
  164SAPE  H17X18435   5.914   4.377   4.463
  164SAPE  H17Y18436   5.748   4.331   4.433
  164SAPE  C31818437   5.772   4.537   4.426
  164SAPE  H18X18438   5.766   4.547   4.537
  164SAPE  H18Y18439   5.675   4.561   4.379
  164SAPE  H18Z18440   5.842   4.618   4.394
  165SAPE     N18441   5.564   0.454   2.625
  165SAPE   HN118442   5.553   0.551   2.588
  165SAPE   HN218443   5.567   0.456   2.729
  165SAPE   HN318444   5.652   0.416   2.585
  165SAPE   C1218445   5.455   0.361   2.563
  165SAPE  H12A18446   5.462   0.365   2.452
  165SAPE  H12B18447   5.353   0.391   2.595
  165SAPE   C1118448   5.480   0.220   2.621
  165SAPE  H11A18449   5.581   0.186   2.591
  165SAPE  H11B18450   5.400   0.160   2.571
  165SAPE     P18451   5.436   0.094   2.855
  165SAPE   O1318452   5.325   0.026   2.788
  165SAPE   O1418453   5.559   0.023   2.887
  165SAPE   O1218454   5.476   0.220   2.762
  165SAPE   O1118455   5.388   0.167   2.989
  165SAPE    C118456   5.271   0.252   2.983
  165SAPE    HA18457   5.201   0.230   2.900
  165SAPE    HB18458   5.218   0.215   3.074
  165SAPE    C218459   5.307   0.396   2.974
  165SAPE    HS18460   5.317   0.409   2.864
  165SAPE   O2118461   5.423   0.431   3.050
  165SAPE   C2118462   5.490   0.534   2.996
  165SAPE   O2218463   5.485   0.572   2.884
  165SAPE   C2218464   5.594   0.582   3.101
  165SAPE   H2R18465   5.545   0.587   3.200
  165SAPE   H2S18466   5.671   0.503   3.091
  165SAPE    C318467   5.181   0.477   3.030
  165SAPE    HX18468   5.097   0.437   2.970
  165SAPE    HY18469   5.195   0.586   3.014
  165SAPE   O3118470   5.153   0.453   3.175
  165SAPE   C3118471   5.198   0.549   3.255
  165SAPE   O3218472   5.273   0.642   3.223
  165SAPE   C3218473   5.153   0.538   3.400
  165SAPE   H2X18474   5.059   0.479   3.408
  165SAPE   H2Y18475   5.122   0.640   3.431
  165SAPE   C2318476   5.664   0.712   3.064
  165SAPE   H3R18477   5.600   0.799   3.039
  165SAPE   H3S18478   5.720   0.703   2.969
  165SAPE   C2418479   5.766   0.758   3.166
  165SAPE   H4R18480   5.819   0.849   3.131
  165SAPE   H4S18481   5.834   0.670   3.170
  165SAPE   C2518482   5.687   0.778   3.295
  165SAPE   H5R18483   5.605   0.850   3.278
  165SAPE   C2618484   5.714   0.708   3.412
  165SAPE   H6R18485   5.650   0.726   3.499
  165SAPE   C2718486   5.824   0.612   3.452
  165SAPE   H7R18487   5.874   0.655   3.541
  165SAPE   H7S18488   5.902   0.607   3.373
  165SAPE   C2818489   5.774   0.477   3.478
  165SAPE   H8R18490   5.749   0.411   3.393
  165SAPE   C2918491   5.768   0.412   3.594
  165SAPE   H9R18492   5.732   0.308   3.596
  165SAPE  C21018493   5.802   0.461   3.734
  165SAPE  H10R18494   5.733   0.428   3.815
  165SAPE  H10S18495   5.796   0.572   3.737
  165SAPE  C21118496   5.940   0.420   3.768
  165SAPE  H11R18497   6.010   0.423   3.683
  165SAPE  C21218498   6.002   0.402   3.887
  165SAPE  H12R18499   6.107   0.368   3.893
  165SAPE  C21318500   5.929   0.408   4.020
  165SAPE  H13R18501   5.822   0.382   4.009
  165SAPE  H13S18502   5.921   0.516   4.047
  165SAPE  C21418503   6.000   0.323   4.128
  165SAPE  H14R18504   5.990   0.213   4.122
  165SAPE  C21518505   6.075   0.362   4.226
  165SAPE  H15R18506   6.123   0.279   4.280
  165SAPE  C21618507   6.103   0.507   4.260
  165SAPE  H16R18508   6.061   0.582   4.191
  165SAPE  H16S18509   6.211   0.525   4.242
  165SAPE  C21718510   6.079   0.558   4.405
  165SAPE  H17R18511   6.132   0.655   4.421
  165SAPE  H17S18512   6.112   0.479   4.475
  165SAPE  C21818513   5.935   0.572   4.453
  165SAPE  H18R18514   5.883   0.481   4.414
  165SAPE  H18S18515   5.899   0.666   4.405
  165SAPE  C21918516   5.918   0.585   4.607
  165SAPE  H19R18517   5.943   0.690   4.633
  165SAPE  H19S18518   5.998   0.527   4.657
  165SAPE  C22018519   5.779   0.559   4.664
  165SAPE  H20R18520   5.757   0.621   4.753
  165SAPE  H20S18521   5.761   0.453   4.693
  165SAPE  H20T18522   5.703   0.589   4.588
  165SAPE   C3318523   5.271   0.486   3.484
  165SAPE   H3X18524   5.251   0.508   3.591
  165SAPE   H3Y18525   5.371   0.528   3.459
  165SAPE   C3418526   5.291   0.329   3.478
  165SAPE   H4X18527   5.310   0.309   3.370
  165SAPE   H4Y18528   5.200   0.278   3.516
  165SAPE   C3518529   5.407   0.286   3.556
  165SAPE   H5X18530   5.500   0.315   3.504
  165SAPE   H5Y18531   5.402   0.175   3.556
  165SAPE   C3618532   5.412   0.318   3.711
  165SAPE   H6X18533   5.313   0.329   3.761
  165SAPE   H6Y18534   5.459   0.418   3.719
  165SAPE   C3718535   5.504   0.221   3.790
  165SAPE   H7X18536   5.597   0.208   3.731
  165SAPE   H7Y18537   5.452   0.123   3.787
  165SAPE   C3818538   5.531   0.278   3.931
  165SAPE   H8X18539   5.541   0.387   3.916
  165SAPE   H8Y18540   5.631   0.237   3.957
  165SAPE   C3918541   5.418   0.256   4.032
  165SAPE   H9X18542   5.329   0.316   4.003
  165SAPE   H9Y18543   5.454   0.294   4.130
  165SAPE  C31018544   5.376   0.112   4.049
  165SAPE  H10X18545   5.466   0.047   4.055
  165SAPE  H10Y18546   5.325   0.079   3.956
  165SAPE  C31118547   5.267   0.092   4.160
  165SAPE  H11X18548   5.236   6.863   4.150
  165SAPE  H11Y18549   5.177   0.152   4.136
  165SAPE  C31218550   5.309   0.113   4.302
  165SAPE  H12X18551   5.322   0.222   4.316
  165SAPE  H12Y18552   5.417   0.083   4.305
  165SAPE  C31318553   5.224   0.047   4.412
  165SAPE  H13X18554   5.204   6.819   4.382
  165SAPE  H13Y18555   5.122   0.092   4.416
  165SAPE  C31418556   5.297   0.038   4.546
  165SAPE  H14X18557   5.338   0.134   4.583
  165SAPE  H14Y18558   5.385   6.848   4.537
  165SAPE  C31518559   5.194   6.871   4.644
  165SAPE  H15X18560   5.138   6.784   4.603
  165SAPE  H15Y18561   5.135   0.086   4.650
  165SAPE  C31618562   5.253   6.832   4.779
  165SAPE  H16X18563   5.318   0.034   4.820
  165SAPE  H16Y18564   5.325   6.748   4.771
  165SAPE  C31718565   5.145   6.812   4.883
  165SAPE  H17X18566   5.079   0.022   4.900
  165SAPE  H17Y18567   5.198   6.775   4.973
  165SAPE  C31818568   5.049   6.700   4.837
  165SAPE  H18X18569   5.000   6.661   4.928
  165SAPE  H18Y18570   5.108   6.619   4.788
  165SAPE  H18Z18571   4.982   6.735   4.756
  166SAPE     N18572   0.267   5.367   2.294
  166SAPE   HN118573   0.221   5.384   2.203
  166SAPE   HN218574   0.347   5.305   2.270
  166SAPE   HN318575   0.193   5.325   2.354
  166SAPE   C1218576   0.304   5.499   2.351
  166SAPE  H12A18577   0.354   5.556   2.270
  166SAPE  H12B18578   0.388   5.488   2.422
  166SAPE   C1118579   0.188   5.581   2.411
  166SAPE  H11A18580   0.235   5.676   2.444
  166SAPE  H11B18581   0.149   5.528   2.500
  166SAPE     P18582   6.849   5.698   2.360
  166SAPE   O1318583   0.018   5.840   2.359
  166SAPE   O1418584   6.739   5.662   2.265
  166SAPE   O1218585   0.088   5.604   2.318
  166SAPE   O1118586   6.816   5.647   2.502
  166SAPE    C118587   6.726   5.733   2.574
  166SAPE    HA18588   6.637   5.762   2.514
  166SAPE    HB18589   6.691   5.676   2.663
  166SAPE    C218590   6.788   5.858   2.625
  166SAPE    HS18591   6.791   5.931   2.542
  166SAPE   O2118592   0.044   5.833   2.678
  166SAPE   C2118593   0.113   5.935   2.696
  166SAPE   O2218594   0.083   6.047   2.656
  166SAPE   C2218595   0.241   5.908   2.786
  166SAPE   H2R18596   0.276   6.008   2.821
  166SAPE   H2S18597   0.204   5.859   2.878
  166SAPE    C318598   6.701   5.931   2.732
  166SAPE    HX18599   6.628   5.986   2.668
  166SAPE    HY18600   6.764   6.008   2.782
  166SAPE   O3118601   6.647   5.838   2.834
  166SAPE   C3118602   6.540   5.884   2.892
  166SAPE   O3218603   6.493   5.992   2.873
  166SAPE   C3218604   6.519   5.786   3.012
  166SAPE   H2X18605   6.589   5.834   3.084
  166SAPE   H2Y18606   6.550   5.685   2.978
  166SAPE   C2318607   0.343   5.818   2.712
  166SAPE   H3R18608   0.350   5.854   2.607
  166SAPE   H3S18609   0.318   5.710   2.712
  166SAPE   C2418610   0.487   5.815   2.780
  166SAPE   H4R18611   0.550   5.742   2.725
  166SAPE   H4S18612   0.471   5.767   2.879
  166SAPE   C2518613   0.551   5.953   2.768
  166SAPE   H5R18614   0.580   5.970   2.663
  166SAPE   C2618615   0.540   6.046   2.859
  166SAPE   H6R18616   0.570   6.150   2.841
  166SAPE   C2718617   0.491   6.022   3.004
  166SAPE   H7R18618   0.390   5.977   3.007
  166SAPE   H7S18619   0.485   6.123   3.050
  166SAPE   C2818620   0.585   5.946   3.091
  166SAPE   H8R18621   0.688   5.950   3.051
  166SAPE   C2918622   0.567   5.868   3.202
  166SAPE   H9R18623   0.655   5.811   3.235
  166SAPE  C21018624   0.436   5.843   3.275
  166SAPE  H10R18625   0.357   5.834   3.198
  166SAPE  H10S18626   0.401   5.923   3.344
  166SAPE  C21118627   0.426   5.714   3.359
  166SAPE  H11R18628   0.509   5.644   3.341
  166SAPE  C21218629   0.348   5.698   3.469
  166SAPE  H12R18630   0.345   5.601   3.520
  166SAPE  C21318631   0.253   5.793   3.537
  166SAPE  H13R18632   0.214   5.871   3.468
  166SAPE  H13S18633   0.307   5.861   3.606
  166SAPE  C21418634   0.136   5.729   3.612
  166SAPE  H14R18635   0.038   5.725   3.562
  166SAPE  C21518636   0.140   5.665   3.732
  166SAPE  H15R18637   0.050   5.617   3.773
  166SAPE  C21618638   0.271   5.647   3.807
  166SAPE  H16R18639   0.354   5.691   3.748
  166SAPE  H16S18640   0.296   5.541   3.825
  166SAPE  C21718641   0.265   5.709   3.946
  166SAPE  H17R18642   0.182   5.668   4.008
  166SAPE  H17S18643   0.248   5.818   3.934
  166SAPE  C21818644   0.398   5.683   4.022
  166SAPE  H18R18645   0.479   5.721   3.957
  166SAPE  H18S18646   0.405   5.573   4.040
  166SAPE  C21918647   0.413   5.753   4.167
  166SAPE  H19R18648   0.407   5.861   4.141
  166SAPE  H19S18649   0.515   5.737   4.209
  166SAPE  C22018650   0.304   5.710   4.267
  166SAPE  H20R18651   0.205   5.744   4.229
  166SAPE  H20S18652   0.324   5.751   4.368
  166SAPE  H20T18653   0.308   5.599   4.271
  166SAPE   C3318654   6.374   5.796   3.078
  166SAPE   H3X18655   6.300   5.737   3.019
  166SAPE   H3Y18656   6.347   5.904   3.077
  166SAPE   C3418657   6.378   5.767   3.230
  166SAPE   H4X18658   6.459   5.818   3.286
  166SAPE   H4Y18659   6.406   5.660   3.241
  166SAPE   C3518660   6.243   5.788   3.298
  166SAPE   H5X18661   6.176   5.708   3.259
  166SAPE   H5Y18662   6.200   5.889   3.280
  166SAPE   C3618663   6.262   5.771   3.450
  166SAPE   H6X18664   6.322   5.855   3.490
  166SAPE   H6Y18665   6.320   5.680   3.475
  166SAPE   C3718666   6.123   5.774   3.521
  166SAPE   H7X18667   6.047   5.705   3.478
  166SAPE   H7Y18668   6.083   5.876   3.503
  166SAPE   C3818669   6.124   5.734   3.679
  166SAPE   H8X18670   6.125   5.624   3.694
  166SAPE   H8Y18671   6.027   5.773   3.716
  166SAPE   C3918672   6.237   5.794   3.765
  166SAPE   H9X18673   6.241   5.897   3.725
  166SAPE   H9Y18674   6.325   5.746   3.719
  166SAPE  C31018675   6.216   5.793   3.916
  166SAPE  H10X18676   6.214   5.688   3.952
  166SAPE  H10Y18677   6.113   5.825   3.943
  166SAPE  C31118678   6.310   5.875   3.997
  166SAPE  H11X18679   6.304   5.980   3.961
  166SAPE  H11Y18680   6.415   5.844   3.975
  166SAPE  C31218681   6.270   5.859   4.151
  166SAPE  H12X18682   6.258   5.749   4.157
  166SAPE  H12Y18683   6.174   5.914   4.161
  166SAPE  C31318684   6.381   5.905   4.249
  166SAPE  H13X18685   6.486   5.879   4.222
  166SAPE  H13Y18686   6.358   5.856   4.346
  166SAPE  C31418687   6.388   6.062   4.270
  166SAPE  H14X18688   6.289   6.092   4.312
  166SAPE  H14Y18689   6.391   6.111   4.171
  166SAPE  C31518690   6.489   6.121   4.363
  166SAPE  H15X18691   6.595   6.110   4.330
  166SAPE  H15Y18692   6.469   6.051   4.447
  166SAPE  C31618693   6.448   6.264   4.407
  166SAPE  H16X18694   6.357   6.251   4.470
  166SAPE  H16Y18695   6.434   6.329   4.317
  166SAPE  C31718696   6.554   6.331   4.487
  166SAPE  H17X18697   6.649   6.322   4.431
  166SAPE  H17Y18698   6.566   6.274   4.582
  166SAPE  C31818699   6.513   6.479   4.527
  166SAPE  H18X18700   6.479   6.525   4.432
  166SAPE  H18Y18701   6.597   6.529   4.580
  166SAPE  H18Z18702   6.423   6.469   4.592
  167SAPE     N18703   6.710   3.657   1.625
  167SAPE   HN118704   6.746   3.697   1.714
  167SAPE   HN218705   6.794   3.635   1.567
  167SAPE   HN318706   6.660   3.735   1.578
  167SAPE   C1218707   6.632   3.537   1.631
  167SAPE  H12A18708   6.702   3.452   1.617
  167SAPE  H12B18709   6.560   3.538   1.547
  167SAPE   C1118710   6.560   3.541   1.763
  167SAPE  H11A18711   6.623   3.528   1.854
  167SAPE  H11B18712   6.494   3.451   1.767
  167SAPE     P18713   6.336   3.670   1.840
  167SAPE   O1318714   6.272   3.810   1.828
  167SAPE   O1418715   6.242   3.564   1.796
  167SAPE   O1218716   6.475   3.659   1.773
  167SAPE   O1118717   6.371   3.636   1.989
  167SAPE    C118718   6.474   3.706   2.060
  167SAPE    HA18719   6.570   3.684   2.009
  167SAPE    HB18720   6.460   3.815   2.048
  167SAPE    C218721   6.470   3.671   2.208
  167SAPE    HS18722   6.468   3.560   2.201
  167SAPE   O2118723   6.341   3.721   2.257
  167SAPE   C2118724   6.286   3.647   2.348
  167SAPE   O2218725   6.329   3.540   2.393
  167SAPE   C2218726   6.149   3.713   2.375
  167SAPE   H2R18727   6.163   3.823   2.390
  167SAPE   H2S18728   6.092   3.700   2.281
  167SAPE    C318729   6.585   3.718   2.302
  167SAPE    HX18730   6.571   3.824   2.330
  167SAPE    HY18731   6.683   3.710   2.250
  167SAPE   O3118732   6.600   3.652   2.434
  167SAPE   C3118733   6.628   3.521   2.443
  167SAPE   O3218734   6.656   3.455   2.344
  167SAPE   C3218735   6.616   3.477   2.591
  167SAPE   H2X18736   6.509   3.451   2.604
  167SAPE   H2Y18737   6.622   3.574   2.644
  167SAPE   C2318738   6.058   3.661   2.483
  167SAPE   H3R18739   6.084   3.553   2.493
  167SAPE   H3S18740   5.951   3.668   2.452
  167SAPE   C2418741   6.074   3.712   2.628
  167SAPE   H4R18742   5.985   3.674   2.682
  167SAPE   H4S18743   6.062   3.822   2.618
  167SAPE   C2518744   6.196   3.673   2.707
  167SAPE   H5R18745   6.225   3.567   2.714
  167SAPE   C2618746   6.279   3.759   2.773
  167SAPE   H6R18747   6.373   3.725   2.820
  167SAPE   C2718748   6.257   3.904   2.781
  167SAPE   H7R18749   6.300   3.943   2.876
  167SAPE   H7S18750   6.151   3.936   2.789
  167SAPE   C2818751   6.306   3.973   2.655
  167SAPE   H8R18752   6.238   3.984   2.569
  167SAPE   C2918753   6.436   4.018   2.646
  167SAPE   H9R18754   6.475   4.058   2.551
  167SAPE  C21018755   6.545   4.015   2.744
  167SAPE  H10R18756   6.510   4.015   2.850
  167SAPE  H10S18757   6.596   4.112   2.730
  167SAPE  C21118758   6.656   3.913   2.724
  167SAPE  H11R18759   6.719   3.930   2.635
  167SAPE  C21218760   6.688   3.812   2.801
  167SAPE  H12R18761   6.769   3.744   2.769
  167SAPE  C21318762   6.618   3.775   2.934
  167SAPE  H13R18763   6.565   3.680   2.915
  167SAPE  H13S18764   6.534   3.838   2.969
  167SAPE  C21418765   6.712   3.758   3.049
  167SAPE  H14R18766   6.741   3.657   3.081
  167SAPE  C21518767   6.767   3.866   3.111
  167SAPE  H15R18768   6.816   3.850   3.208
  167SAPE  C21618769   6.737   4.009   3.085
  167SAPE  H16R18770   6.662   4.023   3.005
  167SAPE  H16S18771   6.833   4.045   3.040
  167SAPE  C21718772   6.686   4.096   3.204
  167SAPE  H17R18773   6.709   4.201   3.178
  167SAPE  H17S18774   6.744   4.062   3.292
  167SAPE  C21818775   6.546   4.088   3.249
  167SAPE  H18R18776   6.524   4.147   3.340
  167SAPE  H18S18777   6.526   3.982   3.277
  167SAPE  C21918778   6.444   4.131   3.135
  167SAPE  H19R18779   6.467   4.087   3.035
  167SAPE  H19S18780   6.458   4.239   3.117
  167SAPE  C22018781   6.299   4.090   3.176
  167SAPE  H20R18782   6.253   4.146   3.260
  167SAPE  H20S18783   6.299   3.987   3.217
  167SAPE  H20T18784   6.235   4.092   3.086
  167SAPE   C3318785   6.717   3.380   2.645
  167SAPE   H3X18786   6.814   3.368   2.592
  167SAPE   H3Y18787   6.677   3.281   2.616
  167SAPE   C3418788   6.724   3.387   2.798
  167SAPE   H4X18789   6.791   3.466   2.839
  167SAPE   H4Y18790   6.764   3.286   2.823
  167SAPE   C3518791   6.587   3.377   2.867
  167SAPE   H5X18792   6.521   3.304   2.816
  167SAPE   H5Y18793   6.538   3.476   2.861
  167SAPE   C3618794   6.597   3.341   3.021
  167SAPE   H6X18795   6.651   3.421   3.076
  167SAPE   H6Y18796   6.654   3.246   3.024
  167SAPE   C3718797   6.452   3.322   3.080
  167SAPE   H7X18798   6.399   3.257   3.007
  167SAPE   H7Y18799   6.395   3.417   3.078
  167SAPE   C3818800   6.454   3.258   3.222
  167SAPE   H8X18801   6.540   3.301   3.277
  167SAPE   H8Y18802   6.475   3.150   3.210
  167SAPE   C3918803   6.329   3.287   3.294
  167SAPE   H9X18804   6.243   3.236   3.245
  167SAPE   H9Y18805   6.309   3.396   3.291
  167SAPE  C31018806   6.335   3.256   3.442
  167SAPE  H10X18807   6.403   3.335   3.483
  167SAPE  H10Y18808   6.375   3.154   3.458
  167SAPE  C31118809   6.198   3.278   3.517
  167SAPE  H11X18810   6.119   3.222   3.462
  167SAPE  H11Y18811   6.177   3.386   3.501
  167SAPE  C31218812   6.202   3.265   3.673
  167SAPE  H12X18813   6.228   3.159   3.692
  167SAPE  H12Y18814   6.105   3.305   3.710
  167SAPE  C31318815   6.319   3.340   3.736
  167SAPE  H13X18816   6.310   3.447   3.706
  167SAPE  H13Y18817   6.420   3.309   3.701
  167SAPE  C31418818   6.325   3.323   3.890
  167SAPE  H14X18819   6.361   3.222   3.916
  167SAPE  H14Y18820   6.223   3.313   3.933
  167SAPE  C31518821   6.416   3.433   3.943
  167SAPE  H15X18822   6.391   3.534   3.904
  167SAPE  H15Y18823   6.519   3.413   3.908
  167SAPE  C31618824   6.398   3.449   4.096
  167SAPE  H16X18825   6.424   3.352   4.145
  167SAPE  H16Y18826   6.291   3.473   4.112
  167SAPE  C31718827   6.489   3.564   4.159
  167SAPE  H17X18828   6.481   3.655   4.096
  167SAPE  H17Y18829   6.592   3.523   4.153
  167SAPE  C31818830   6.473   3.585   4.309
  167SAPE  H18X18831   6.439   3.500   4.372
  167SAPE  H18Y18832   6.396   3.664   4.329
  167SAPE  H18Z18833   6.562   3.627   4.360
  168SAPE     N18834   3.089   5.547   1.966
  168SAPE   HN118835   3.095   5.648   1.943
  168SAPE   HN218836   3.050   5.525   2.060
  168SAPE   HN318837   3.179   5.496   1.963
  168SAPE   C1218838   3.003   5.491   1.866
  168SAPE  H12A18839   3.001   5.381   1.878
  168SAPE  H12B18840   3.037   5.519   1.764
  168SAPE   C1118841   2.863   5.551   1.882
  168SAPE  H11A18842   2.785   5.492   1.830
  168SAPE  H11B18843   2.854   5.655   1.845
  168SAPE     P18844   2.709   5.452   2.081
  168SAPE   O1318845   2.574   5.464   2.016
  168SAPE   O1418846   2.770   5.317   2.075
  168SAPE   O1218847   2.812   5.555   2.020
  168SAPE   O1118848   2.706   5.513   2.229
  168SAPE    C118849   2.623   5.628   2.255
  168SAPE    HA18850   2.665   5.727   2.227
  168SAPE    HB18851   2.515   5.620   2.228
  168SAPE    C218852   2.607   5.641   2.407
  168SAPE    HS18853   2.528   5.717   2.424
  168SAPE   O2118854   2.733   5.682   2.459
  168SAPE   C2118855   2.722   5.768   2.557
  168SAPE   O2218856   2.614   5.800   2.600
  168SAPE   C2218857   2.859   5.815   2.611
  168SAPE   H2R18858   2.951   5.764   2.574
  168SAPE   H2S18859   2.875   5.923   2.590
  168SAPE    C318860   2.575   5.499   2.462
  168SAPE    HX18861   2.673   5.447   2.455
  168SAPE    HY18862   2.506   5.437   2.401
  168SAPE   O3118863   2.540   5.514   2.605
  168SAPE   C3118864   2.408   5.528   2.619
  168SAPE   O3218865   2.323   5.528   2.533
  168SAPE   C3218866   2.375   5.520   2.772
  168SAPE   H2X18867   2.446   5.594   2.817
  168SAPE   H2Y18868   2.406   5.419   2.805
  168SAPE   C2318869   2.863   5.792   2.765
  168SAPE   H3R18870   2.777   5.854   2.798
  168SAPE   H3S18871   2.958   5.829   2.808
  168SAPE   C2418872   2.832   5.653   2.817
  168SAPE   H4R18873   2.729   5.621   2.790
  168SAPE   H4S18874   2.841   5.649   2.928
  168SAPE   C2518875   2.933   5.566   2.746
  168SAPE   H5R18876   2.910   5.518   2.649
  168SAPE   C2618877   3.051   5.532   2.800
  168SAPE   H6R18878   3.120   5.472   2.739
  168SAPE   C2718879   3.106   5.581   2.930
  168SAPE   H7R18880   3.048   5.669   2.966
  168SAPE   H7S18881   3.207   5.623   2.910
  168SAPE   C2818882   3.107   5.483   3.044
  168SAPE   H8R18883   3.020   5.416   3.037
  168SAPE   C2918884   3.196   5.476   3.145
  168SAPE   H9R18885   3.182   5.396   3.219
  168SAPE  C21018886   3.309   5.563   3.170
  168SAPE  H10R18887   3.360   5.600   3.078
  168SAPE  H10S18888   3.387   5.497   3.213
  168SAPE  C21118889   3.274   5.686   3.258
  168SAPE  H11R18890   3.220   5.666   3.352
  168SAPE  C21218891   3.313   5.812   3.246
  168SAPE  H12R18892   3.278   5.888   3.317
  168SAPE  C21318893   3.395   5.861   3.120
  168SAPE  H13R18894   3.374   5.807   3.025
  168SAPE  H13S18895   3.504   5.849   3.136
  168SAPE  C21418896   3.373   6.013   3.114
  168SAPE  H14R18897   3.320   6.061   3.030
  168SAPE  C21518898   3.423   6.106   3.194
  168SAPE  H15R18899   3.395   6.211   3.175
  168SAPE  C21618900   3.501   6.083   3.320
  168SAPE  H16R18901   3.592   6.028   3.288
  168SAPE  H16S18902   3.447   6.020   3.394
  168SAPE  C21718903   3.565   6.197   3.396
  168SAPE  H17R18904   3.633   6.257   3.332
  168SAPE  H17S18905   3.628   6.151   3.476
  168SAPE  C21818906   3.463   6.295   3.454
  168SAPE  H18R18907   3.403   6.242   3.531
  168SAPE  H18S18908   3.397   6.329   3.372
  168SAPE  C21918909   3.531   6.417   3.521
  168SAPE  H19R18910   3.609   6.459   3.455
  168SAPE  H19S18911   3.575   6.383   3.617
  168SAPE  C22018912   3.427   6.520   3.553
  168SAPE  H20R18913   3.476   6.608   3.600
  168SAPE  H20S18914   3.345   6.477   3.614
  168SAPE  H20T18915   3.378   6.559   3.462
  168SAPE   C3318916   2.237   5.564   2.814
  168SAPE   H3X18917   2.169   5.485   2.778
  168SAPE   H3Y18918   2.207   5.657   2.761
  168SAPE   C3418919   2.221   5.584   2.967
  168SAPE   H4X18920   2.120   5.617   2.999
  168SAPE   H4Y18921   2.281   5.676   2.986
  168SAPE   C3518922   2.269   5.472   3.064
  168SAPE   H5X18923   2.377   5.458   3.041
  168SAPE   H5Y18924   2.207   5.382   3.044
  168SAPE   C3618925   2.246   5.514   3.211
  168SAPE   H6X18926   2.136   5.525   3.223
  168SAPE   H6Y18927   2.293   5.609   3.242
  168SAPE   C3718928   2.296   5.413   3.311
  168SAPE   H7X18929   2.405   5.407   3.286
  168SAPE   H7Y18930   2.255   5.313   3.286
  168SAPE   C3818931   2.284   5.452   3.457
  168SAPE   H8X18932   2.180   5.463   3.494
  168SAPE   H8Y18933   2.330   5.552   3.473
  168SAPE   C3918934   2.360   5.347   3.546
  168SAPE   H9X18935   2.460   5.327   3.504
  168SAPE   H9Y18936   2.311   5.248   3.539
  168SAPE  C31018937   2.355   5.399   3.695
  168SAPE  H10X18938   2.428   5.344   3.759
  168SAPE  H10Y18939   2.257   5.373   3.740
  168SAPE  C31118940   2.396   5.547   3.715
  168SAPE  H11X18941   2.391   5.571   3.824
  168SAPE  H11Y18942   2.317   5.613   3.672
  168SAPE  C31218943   2.538   5.582   3.670
  168SAPE  H12X18944   2.539   5.579   3.559
  168SAPE  H12Y18945   2.602   5.497   3.702
  168SAPE  C31318946   2.579   5.716   3.717
  168SAPE  H13X18947   2.690   5.726   3.723
  168SAPE  H13Y18948   2.539   5.716   3.821
  168SAPE  C31418949   2.523   5.847   3.647
  168SAPE  H14X18950   2.413   5.846   3.658
  168SAPE  H14Y18951   2.549   5.833   3.540
  168SAPE  C31518952   2.576   5.985   3.695
  168SAPE  H15X18953   2.517   6.062   3.641
  168SAPE  H15Y18954   2.684   6.002   3.672
  168SAPE  C31618955   2.553   6.016   3.847
  168SAPE  H16X18956   2.622   5.951   3.904
  168SAPE  H16Y18957   2.446   6.001   3.872
  168SAPE  C31718958   2.576   6.153   3.905
  168SAPE  H17X18959   2.559   6.145   4.014
  168SAPE  H17Y18960   2.507   6.231   3.867
  168SAPE  C31818961   2.717   6.208   3.888
  168SAPE  H18X18962   2.720   6.314   3.921
  168SAPE  H18Y18963   2.736   6.205   3.778
  168SAPE  H18Z18964   2.795   6.144   3.936
  169SAPE     N18965   6.165   3.344   1.957
  169SAPE   HN118966   6.211   3.254   1.931
  169SAPE   HN218967   6.061   3.341   1.950
  169SAPE   HN318968   6.192   3.419   1.890
  169SAPE   C1218969   6.205   3.388   2.086
  169SAPE  H12A18970   6.176   3.492   2.111
  169SAPE  H12B18971   6.316   3.388   2.084
  169SAPE   C1118972   6.164   3.299   2.201
  169SAPE  H11A18973   6.054   3.308   2.199
  169SAPE  H11B18974   6.202   3.341   2.297
  169SAPE     P18975   6.211   3.067   2.297
  169SAPE   O1318976   6.068   3.047   2.335
  169SAPE   O1418977   6.289   2.943   2.261
  169SAPE   O1218978   6.214   3.166   2.173
  169SAPE   O1118979   6.290   3.149   2.401
  169SAPE    C118980   6.429   3.120   2.412
  169SAPE    HA18981   6.479   3.084   2.319
  169SAPE    HB18982   6.475   3.210   2.458
  169SAPE    C218983   6.446   3.018   2.522
  169SAPE    HS18984   6.414   2.920   2.481
  169SAPE   O2118985   6.372   3.060   2.638
  169SAPE   C2118986   6.302   2.959   2.694
  169SAPE   O2218987   6.304   2.844   2.656
  169SAPE   C2218988   6.204   3.025   2.790
  169SAPE   H2R18989   6.251   3.115   2.833
  169SAPE   H2S18990   6.116   3.061   2.732
  169SAPE    C318991   6.588   2.993   2.573
  169SAPE    HX18992   6.621   3.088   2.620
  169SAPE    HY18993   6.654   2.976   2.485
  169SAPE   O3118994   6.596   2.883   2.670
  169SAPE   C3118995   6.616   2.763   2.624
  169SAPE   O3218996   6.623   2.727   2.505
  169SAPE   C3218997   6.634   2.681   2.746
  169SAPE   H2X18998   6.685   2.744   2.822
  169SAPE   H2Y18999   6.695   2.596   2.707
  169SAPE   C2319000   6.163   2.943   2.914
  169SAPE   H3R19001   6.161   2.834   2.893
  169SAPE   H3S19002   6.064   2.980   2.948
  169SAPE   C2419003   6.269   2.969   3.023
  169SAPE   H4R19004   6.233   2.913   3.112
  169SAPE   H4S19005   6.253   3.076   3.048
  169SAPE   C2519006   6.409   2.921   2.994
  169SAPE   H5R19007   6.464   2.950   2.904
  169SAPE   C2619008   6.480   2.851   3.080
  169SAPE   H6R19009   6.574   2.821   3.032
  169SAPE   C2719010   6.445   2.776   3.208
  169SAPE   H7R19011   6.530   2.705   3.220
  169SAPE   H7S19012   6.355   2.712   3.199
  169SAPE   C2819013   6.440   2.857   3.336
  169SAPE   H8R19014   6.442   2.966   3.324
  169SAPE   C2919015   6.463   2.796   3.456
  169SAPE   H9R19016   6.470   2.854   3.549
  169SAPE  C21019017   6.461   2.644   3.479
  169SAPE  H10R19018   6.460   2.582   3.388
  169SAPE  H10S19019   6.373   2.613   3.539
  169SAPE  C21119020   6.584   2.610   3.559
  169SAPE  H11R19021   6.669   2.585   3.494
  169SAPE  C21219022   6.600   2.626   3.690
  169SAPE  H12R19023   6.687   2.569   3.726
  169SAPE  C21319024   6.503   2.667   3.801
  169SAPE  H13R19025   6.396   2.679   3.773
  169SAPE  H13S19026   6.536   2.769   3.829
  169SAPE  C21419027   6.504   2.573   3.923
  169SAPE  H14R19028   6.418   2.506   3.931
  169SAPE  C21519029   6.599   2.565   4.021
  169SAPE  H15R19030   6.587   2.503   4.111
  169SAPE  C21619031   6.722   2.657   4.033
  169SAPE  H16R19032   6.736   2.725   3.947
  169SAPE  H16S19033   6.812   2.593   4.037
  169SAPE  C21719034   6.700   2.754   4.151
  169SAPE  H17R19035   6.654   2.701   4.237
  169SAPE  H17S19036   6.625   2.836   4.138
  169SAPE  C21819037   6.828   2.791   4.212
  169SAPE  H18R19038   0.008   2.840   4.131
  169SAPE  H18S19039   6.877   2.693   4.234
  169SAPE  C21919040   6.831   2.860   4.352
  169SAPE  H19R19041   6.793   2.964   4.340
  169SAPE  H19S19042   0.060   2.873   4.379
  169SAPE  C22019043   6.761   2.795   4.475
  169SAPE  H20R19044   6.768   2.685   4.465
  169SAPE  H20S19045   6.654   2.827   4.467
  169SAPE  H20T19046   6.807   2.808   4.575
  169SAPE   C3319047   6.515   2.611   2.808
  169SAPE   H3X19048   6.463   2.547   2.732
  169SAPE   H3Y19049   6.444   2.680   2.858
  169SAPE   C3419050   6.547   2.517   2.930
  169SAPE   H4X19051   6.447   2.495   2.975
  169SAPE   H4Y19052   6.619   2.560   3.003
  169SAPE   C3519053   6.612   2.379   2.899
  169SAPE   H5X19054   6.700   2.413   2.840
  169SAPE   H5Y19055   6.547   2.323   2.829
  169SAPE   C3619056   6.662   2.291   3.014
  169SAPE   H6X19057   6.699   2.191   2.983
  169SAPE   H6Y19058   6.584   2.264   3.089
  169SAPE   C3719059   6.778   2.354   3.097
  169SAPE   H7X19060   6.756   2.461   3.115
  169SAPE   H7Y19061   6.859   2.365   3.021
  169SAPE   C3819062   6.815   2.291   3.232
  169SAPE   H8X19063   0.029   2.343   3.266
  169SAPE   H8Y19064   6.848   2.190   3.200
  169SAPE   C3919065   6.706   2.294   3.339
  169SAPE   H9X19066   6.617   2.234   3.312
  169SAPE   H9Y19067   6.674   2.400   3.331
  169SAPE  C31019068   6.773   2.267   3.472
  169SAPE  H10X19069   6.842   2.345   3.510
  169SAPE  H10Y19070   6.836   2.175   3.465
  169SAPE  C31119071   6.666   2.235   3.571
  169SAPE  H11X19072   6.617   2.142   3.535
  169SAPE  H11Y19073   6.596   2.320   3.570
  169SAPE  C31219074   6.715   2.217   3.716
  169SAPE  H12X19075   6.780   2.299   3.755
  169SAPE  H12Y19076   6.780   2.127   3.731
  169SAPE  C31319077   6.604   2.204   3.818
  169SAPE  H13X19078   6.539   2.118   3.793
  169SAPE  H13Y19079   6.544   2.298   3.819
  169SAPE  C31419080   6.664   2.194   3.967
  169SAPE  H14X19081   6.727   2.283   3.989
  169SAPE  H14Y19082   6.723   2.100   3.966
  169SAPE  C31519083   6.544   2.187   4.061
  169SAPE  H15X19084   6.492   2.091   4.042
  169SAPE  H15Y19085   6.478   2.277   4.069
  169SAPE  C31619086   6.581   2.176   4.205
  169SAPE  H16X19087   6.654   2.250   4.243
  169SAPE  H16Y19088   6.631   2.080   4.231
  169SAPE  C31719089   6.451   2.164   4.303
  169SAPE  H17X19090   6.400   2.067   4.285
  169SAPE  H17Y19091   6.394   2.258   4.286
  169SAPE  C31819092   6.488   2.166   4.450
  169SAPE  H18X19093   6.571   2.095   4.472
  169SAPE  H18Y19094   6.401   2.135   4.512
  169SAPE  H18Z19095   6.520   2.267   4.483
  170SAPE     N19096   0.162   3.505   1.820
  170SAPE   HN119097   0.073   3.456   1.842
  170SAPE   HN219098   0.160   3.607   1.796
  170SAPE   HN319099   0.212   3.457   1.743
  170SAPE   C1219100   0.259   3.503   1.940
  170SAPE  H12A19101   0.355   3.553   1.914
  170SAPE  H12B19102   0.280   3.399   1.971
  170SAPE   C1119103   0.202   3.594   2.057
  170SAPE  H11A19104   0.281   3.587   2.135
  170SAPE  H11B19105   0.109   3.545   2.092
  170SAPE     P19106   0.287   3.838   2.064
  170SAPE   O1319107   0.408   3.811   1.996
  170SAPE   O1419108   0.217   3.969   2.046
  170SAPE   O1219109   0.188   3.730   2.009
  170SAPE   O1119110   0.281   3.806   2.213
  170SAPE    C119111   0.160   3.842   2.290
  170SAPE    HA19112   0.134   3.949   2.278
  170SAPE    HB19113   0.072   3.781   2.261
  170SAPE    C219114   0.179   3.813   2.441
  170SAPE    HS19115   0.281   3.845   2.470
  170SAPE   O2119116   0.157   3.677   2.458
  170SAPE   C2119117   0.259   3.598   2.426
  170SAPE   O2219118   0.376   3.627   2.406
  170SAPE   C2219119   0.182   3.461   2.405
  170SAPE   H2R19120   0.115   3.443   2.491
  170SAPE   H2S19121   0.119   3.471   2.314
  170SAPE    C319122   0.076   3.885   2.524
  170SAPE    HX19123   6.856   3.838   2.499
  170SAPE    HY19124   0.077   3.993   2.500
  170SAPE   O3119125   0.095   3.868   2.665
  170SAPE   C3119126   0.195   3.934   2.711
  170SAPE   O3219127   0.265   4.014   2.644
  170SAPE   C3219128   0.197   3.932   2.865
  170SAPE   H2X19129   0.101   3.888   2.901
  170SAPE   H2Y19130   0.210   4.040   2.884
  170SAPE   C2319131   0.279   3.355   2.383
  170SAPE   H3R19132   0.366   3.373   2.316
  170SAPE   H3S19133   0.225   3.268   2.341
  170SAPE   C2419134   0.349   3.307   2.515
  170SAPE   H4R19135   0.412   3.394   2.540
  170SAPE   H4S19136   0.417   3.223   2.487
  170SAPE   C2519137   0.237   3.256   2.602
  170SAPE   H5R19138   0.180   3.178   2.550
  170SAPE   C2619139   0.205   3.300   2.726
  170SAPE   H6R19140   0.125   3.252   2.783
  170SAPE   C2719141   0.282   3.405   2.801
  170SAPE   H7R19142   0.365   3.456   2.749
  170SAPE   H7S19143   0.336   3.354   2.884
  170SAPE   C2819144   0.190   3.513   2.844
  170SAPE   H8R19145   0.188   3.598   2.775
  170SAPE   C2919146   0.137   3.520   2.967
  170SAPE   H9R19147   0.061   3.599   2.981
  170SAPE  C21019148   0.143   3.426   3.081
  170SAPE  H10R19149   0.223   3.354   3.055
  170SAPE  H10S19150   0.052   3.362   3.086
  170SAPE  C21119151   0.171   3.484   3.223
  170SAPE  H11R19152   0.263   3.544   3.226
  170SAPE  C21219153   0.096   3.467   3.339
  170SAPE  H12R19154   0.141   3.503   3.432
  170SAPE  C21319155   6.854   3.386   3.357
  170SAPE  H13R19156   6.779   3.433   3.289
  170SAPE  H13S19157   6.812   3.407   3.458
  170SAPE  C21419158   6.872   3.238   3.349
  170SAPE  H14R19159   0.063   3.205   3.271
  170SAPE  C21519160   6.808   3.147   3.422
  170SAPE  H15R19161   6.822   3.040   3.401
  170SAPE  C21619162   6.722   3.182   3.541
  170SAPE  H16R19163   6.614   3.185   3.515
  170SAPE  H16S19164   6.741   3.279   3.592
  170SAPE  C21719165   6.741   3.081   3.654
  170SAPE  H17R19166   6.850   3.062   3.667
  170SAPE  H17S19167   6.701   2.982   3.624
  170SAPE  C21819168   6.657   3.116   3.781
  170SAPE  H18R19169   6.549   3.113   3.755
  170SAPE  H18S19170   6.678   3.223   3.799
  170SAPE  C21919171   6.709   3.056   3.907
  170SAPE  H19R19172   6.820   3.045   3.902
  170SAPE  H19S19173   6.672   2.952   3.912
  170SAPE  C22019174   6.663   3.129   4.025
  170SAPE  H20R19175   6.725   3.221   4.030
  170SAPE  H20S19176   6.697   3.075   4.115
  170SAPE  H20T19177   6.552   3.141   4.030
  170SAPE   C3319178   0.321   3.867   2.934
  170SAPE   H3X19179   0.410   3.915   2.888
  170SAPE   H3Y19180   0.323   3.759   2.910
  170SAPE   C3419181   0.328   3.904   3.085
  170SAPE   H4X19182   0.433   3.888   3.118
  170SAPE   H4Y19183   0.268   3.817   3.121
  170SAPE   C3519184   0.277   4.037   3.141
  170SAPE   H5X19185   0.170   4.051   3.118
  170SAPE   H5Y19186   0.338   4.114   3.089
  170SAPE   C3619187   0.292   4.060   3.293
  170SAPE   H6X19188   0.293   4.169   3.314
  170SAPE   H6Y19189   0.389   4.027   3.335
  170SAPE   C3719190   0.189   3.999   3.378
  170SAPE   H7X19191   0.170   3.891   3.358
  170SAPE   H7Y19192   0.097   4.056   3.351
  170SAPE   C3819193   0.214   4.020   3.528
  170SAPE   H8X19194   0.210   4.130   3.545
  170SAPE   H8Y19195   0.320   3.991   3.539
  170SAPE   C3919196   0.124   3.940   3.624
  170SAPE   H9X19197   0.120   3.837   3.584
  170SAPE   H9Y19198   0.023   3.986   3.621
  170SAPE  C31019199   0.169   3.931   3.767
  170SAPE  H10X19200   0.227   3.837   3.776
  170SAPE  H10Y19201   0.081   3.915   3.834
  170SAPE  C31119202   0.252   4.055   3.814
  170SAPE  H11X19203   0.204   4.150   3.780
  170SAPE  H11Y19204   0.351   4.060   3.763
  170SAPE  C31219205   0.289   4.038   3.961
  170SAPE  H12X19206   0.334   3.936   3.966
  170SAPE  H12Y19207   0.193   4.040   4.017
  170SAPE  C31319208   0.398   4.142   4.015
  170SAPE  H13X19209   0.374   4.249   4.000
  170SAPE  H13Y19210   0.496   4.123   3.966
  170SAPE  C31419211   0.433   4.130   4.164
  170SAPE  H14X19212   0.444   4.021   4.180
  170SAPE  H14Y19213   0.349   4.179   4.217
  170SAPE  C31519214   0.568   4.193   4.209
  170SAPE  H15X19215   0.559   4.302   4.230
  170SAPE  H15Y19216   0.634   4.176   4.121
  170SAPE  C31619217   0.642   4.119   4.322
  170SAPE  H16X19218   0.657   4.011   4.303
  170SAPE  H16Y19219   0.587   4.114   4.418
  170SAPE  C31719220   0.778   4.179   4.348
  170SAPE  H17X19221   0.835   4.123   4.426
  170SAPE  H17Y19222   0.756   4.282   4.382
  170SAPE  C31819223   0.880   4.194   4.225
  170SAPE  H18X19224   0.959   4.262   4.264
  170SAPE  H18Y19225   0.837   4.235   4.131
  170SAPE  H18Z19226   0.915   4.091   4.203
  171SAPE     N19227   6.749   2.704   2.240
  171SAPE   HN119228   6.797   2.777   2.185
  171SAPE   HN219229   6.662   2.677   2.189
  171SAPE   HN319230   6.722   2.761   2.323
  171SAPE   C1219231   6.844   2.599   2.278
  171SAPE  H12A19232   0.009   2.566   2.181
  171SAPE  H12B19233   6.790   2.520   2.334
  171SAPE   C1119234   0.083   2.654   2.357
  171SAPE  H11A19235   0.146   2.564   2.374
  171SAPE  H11B19236   0.032   2.681   2.452
  171SAPE     P19237   0.113   2.912   2.333
  171SAPE   O1319238   0.225   2.999   2.287
  171SAPE   O1419239   6.853   2.941   2.292
  171SAPE   O1219240   0.148   2.765   2.302
  171SAPE   O1119241   0.117   2.919   2.493
  171SAPE    C119242   0.226   2.876   2.574
  171SAPE    HA19243   0.284   2.791   2.532
  171SAPE    HB19244   0.283   2.969   2.596
  171SAPE    C219245   0.180   2.820   2.713
  171SAPE    HS19246   0.267   2.801   2.779
  171SAPE   O2119247   0.113   2.697   2.690
  171SAPE   C2119248   0.192   2.595   2.676
  171SAPE   O2219249   0.316   2.599   2.681
  171SAPE   C2219250   0.101   2.467   2.676
  171SAPE   H2R19251   0.034   2.487   2.762
  171SAPE   H2S19252   0.047   2.469   2.579
  171SAPE    C319253   0.082   2.908   2.782
  171SAPE    HX19254   6.870   2.948   2.731
  171SAPE    HY19255   0.144   3.000   2.797
  171SAPE   O3119256   0.044   2.851   2.915
  171SAPE   C3119257   0.015   2.949   2.998
  171SAPE   O3219258   0.029   3.069   2.976
  171SAPE   C3219259   6.853   2.888   3.135
  171SAPE   H2X19260   6.745   2.907   3.151
  171SAPE   H2Y19261   0.035   2.945   3.209
  171SAPE   C2319262   0.175   2.335   2.686
  171SAPE   H3R19263   0.259   2.343   2.757
  171SAPE   H3S19264   0.222   2.321   2.586
  171SAPE   C2419265   0.081   2.221   2.736
  171SAPE   H4R19266   0.006   2.276   2.796
  171SAPE   H4S19267   0.131   2.153   2.809
  171SAPE   C2519268   0.011   2.132   2.634
  171SAPE   H5R19269   6.855   2.181   2.541
  171SAPE   C2619270   6.837   2.008   2.655
  171SAPE   H6R19271   6.766   1.977   2.578
  171SAPE   C2719272   6.862   1.929   2.779
  171SAPE   H7R19273   6.788   1.847   2.770
  171SAPE   H7S19274   6.835   1.991   2.867
  171SAPE   C2819275   0.125   1.874   2.797
  171SAPE   H8R19276   0.170   1.833   2.706
  171SAPE   C2919277   0.209   1.886   2.902
  171SAPE   H9R19278   0.309   1.843   2.886
  171SAPE  C21019279   0.175   1.939   3.038
  171SAPE  H10R19280   0.120   2.035   3.025
  171SAPE  H10S19281   0.277   1.963   3.074
  171SAPE  C21119282   0.094   1.844   3.126
  171SAPE  H11R19283   0.037   1.772   3.066
  171SAPE  C21219284   0.086   1.835   3.255
  171SAPE  H12R19285   0.035   1.747   3.296
  171SAPE  C21319286   0.155   1.931   3.355
  171SAPE  H13R19287   0.089   1.947   3.443
  171SAPE  H13S19288   0.173   2.031   3.310
  171SAPE  C21419289   0.281   1.869   3.409
  171SAPE  H14R19290   0.275   1.768   3.453
  171SAPE  C21519291   0.398   1.926   3.401
  171SAPE  H15R19292   0.487   1.874   3.441
  171SAPE  C21619293   0.439   2.044   3.315
  171SAPE  H16R19294   0.376   2.131   3.344
  171SAPE  H16S19295   0.414   2.015   3.211
  171SAPE  C21719296   0.587   2.088   3.328
  171SAPE  H17R19297   0.614   2.132   3.426
  171SAPE  H17S19298   0.594   2.170   3.253
  171SAPE  C21819299   0.698   1.984   3.292
  171SAPE  H18R19300   0.716   1.901   3.363
  171SAPE  H18S19301   0.793   2.042   3.297
  171SAPE  C21919302   0.673   1.925   3.151
  171SAPE  H19R19303   0.654   2.001   3.072
  171SAPE  H19S19304   0.577   1.869   3.146
  171SAPE  C22019305   0.784   1.836   3.098
  171SAPE  H20R19306   0.776   1.734   3.142
  171SAPE  H20S19307   0.882   1.888   3.105
  171SAPE  H20T19308   0.763   1.819   2.990
  171SAPE   C3319309   0.007   2.743   3.158
  171SAPE   H3X19310   0.116   2.723   3.159
  171SAPE   H3Y19311   6.840   2.669   3.088
  171SAPE   C3419312   6.849   2.707   3.300
  171SAPE   H4X19313   6.825   2.599   3.312
  171SAPE   H4Y19314   6.757   2.762   3.330
  171SAPE   C3519315   0.070   2.743   3.412
  171SAPE   H5X19316   0.099   2.849   3.396
  171SAPE   H5Y19317   0.156   2.674   3.401
  171SAPE   C3619318   0.024   2.718   3.556
  171SAPE   H6X19319   0.010   2.609   3.571
  171SAPE   H6Y19320   6.813   2.772   3.594
  171SAPE   C3719321   0.147   2.737   3.657
  171SAPE   H7X19322   0.165   2.845   3.671
  171SAPE   H7Y19323   0.230   2.680   3.611
  171SAPE   C3819324   0.135   2.692   3.801
  171SAPE   H8X19325   0.099   2.587   3.805
  171SAPE   H8Y19326   0.071   2.759   3.863
  171SAPE   C3919327   0.266   2.682   3.869
  171SAPE   H9X19328   0.316   2.781   3.885
  171SAPE   H9Y19329   0.336   2.630   3.800
  171SAPE  C31019330   0.268   2.609   4.007
  171SAPE  H10X19331   0.215   2.511   4.005
  171SAPE  H10Y19332   0.203   2.663   4.079
  171SAPE  C31119333   0.412   2.599   4.069
  171SAPE  H11X19334   0.447   2.701   4.093
  171SAPE  H11Y19335   0.470   2.551   3.987
  171SAPE  C31219336   0.412   2.519   4.206
  171SAPE  H12X19337   0.368   2.420   4.183
  171SAPE  H12Y19338   0.353   2.578   4.280
  171SAPE  C31319339   0.555   2.490   4.258
  171SAPE  H13X19340   0.591   2.588   4.297
  171SAPE  H13Y19341   0.622   2.459   4.175
  171SAPE  C31419342   0.567   2.385   4.376
  171SAPE  H14X19343   0.495   2.419   4.453
  171SAPE  H14Y19344   0.668   2.404   4.416
  171SAPE  C31519345   0.534   2.244   4.329
  171SAPE  H15X19346   0.611   2.188   4.271
  171SAPE  H15Y19347   0.434   2.241   4.281
  171SAPE  C31619348   0.502   2.157   4.454
  171SAPE  H16X19349   0.430   2.210   4.519
  171SAPE  H16Y19350   0.595   2.159   4.515
  171SAPE  C31719351   0.457   2.018   4.404
  171SAPE  H17X19352   0.533   1.975   4.334
  171SAPE  H17Y19353   0.362   2.023   4.348
  171SAPE  C31819354   0.414   1.927   4.511
  171SAPE  H18X19355   0.495   1.857   4.542
  171SAPE  H18Y19356   0.330   1.863   4.476
  171SAPE  H18Z19357   0.375   1.972   4.605
  172SAPE     N19358   0.034   4.714   2.346
  172SAPE   HN119359   6.875   4.719   2.249
  172SAPE   HN219360   0.039   4.610   2.354
  172SAPE   HN319361   6.846   4.752   2.416
  172SAPE   C1219362   0.169   4.782   2.362
  172SAPE  H12A19363   0.238   4.728   2.294
  172SAPE  H12B19364   0.190   4.774   2.471
  172SAPE   C1119365   0.153   4.917   2.304
  172SAPE  H11A19366   0.124   4.900   2.199
  172SAPE  H11B19367   0.253   4.967   2.302
  172SAPE     P19368   0.077   5.090   2.484
  172SAPE   O1319369   0.089   5.226   2.435
  172SAPE   O1419370   6.853   5.072   2.588
  172SAPE   O1219371   0.051   4.989   2.366
  172SAPE   O1119372   0.212   5.036   2.540
  172SAPE    C119373   0.340   5.092   2.527
  172SAPE    HA19374   0.403   5.006   2.496
  172SAPE    HB19375   0.352   5.166   2.445
  172SAPE    C219376   0.411   5.144   2.661
  172SAPE    HS19377   0.458   5.056   2.709
  172SAPE   O2119378   0.315   5.200   2.754
  172SAPE   C2119379   0.248   5.304   2.715
  172SAPE   O2219380   0.272   5.373   2.618
  172SAPE   C2219381   0.145   5.347   2.816
  172SAPE   H2R19382   0.118   5.269   2.891
  172SAPE   H2S19383   0.194   5.434   2.864
  172SAPE    C319384   0.536   5.228   2.629
  172SAPE    HX19385   0.500   5.330   2.602
  172SAPE    HY19386   0.580   5.193   2.534
  172SAPE   O3119387   0.626   5.220   2.744
  172SAPE   C3119388   0.625   5.330   2.825
  172SAPE   O3219389   0.572   5.435   2.796
  172SAPE   C3219390   0.685   5.293   2.958
  172SAPE   H2X19391   0.794   5.309   2.946
  172SAPE   H2Y19392   0.677   5.183   2.971
  172SAPE   C2319393   0.017   5.391   2.748
  172SAPE   H3R19394   6.849   5.307   2.692
  172SAPE   H3S19395   0.050   5.471   2.679
  172SAPE   C2419396   6.785   5.444   2.842
  172SAPE   H4R19397   6.758   5.363   2.914
  172SAPE   H4S19398   6.690   5.456   2.785
  172SAPE   C2519399   6.830   5.568   2.913
  172SAPE   H5R19400   6.844   5.657   2.851
  172SAPE   C2619401   6.836   5.589   3.046
  172SAPE   H6R19402   6.860   5.692   3.076
  172SAPE   C2719403   6.804   5.491   3.152
  172SAPE   H7R19404   6.838   5.392   3.113
  172SAPE   H7S19405   6.694   5.485   3.162
  172SAPE   C2819406   6.869   5.504   3.285
  172SAPE   H8R19407   0.100   5.511   3.273
  172SAPE   C2919408   6.807   5.527   3.401
  172SAPE   H9R19409   6.861   5.512   3.496
  172SAPE  C21019410   6.659   5.537   3.423
  172SAPE  H10R19411   6.617   5.448   3.475
  172SAPE  H10S19412   6.599   5.533   3.329
  172SAPE  C21119413   6.627   5.664   3.502
  172SAPE  H11R19414   6.589   5.748   3.442
  172SAPE  C21219415   6.627   5.682   3.635
  172SAPE  H12R19416   6.585   5.776   3.674
  172SAPE  C21319417   6.645   5.571   3.739
  172SAPE  H13R19418   6.699   5.605   3.830
  172SAPE  H13S19419   6.720   5.504   3.694
  172SAPE  C21419420   6.519   5.497   3.776
  172SAPE  H14R19421   6.460   5.450   3.695
  172SAPE  C21519422   6.464   5.489   3.898
  172SAPE  H15R19423   6.366   5.440   3.906
  172SAPE  C21619424   6.517   5.563   4.025
  172SAPE  H16R19425   6.426   5.608   4.070
  172SAPE  H16S19426   6.589   5.644   4.001
  172SAPE  C21719427   6.580   5.464   4.122
  172SAPE  H17R19428   6.616   5.522   4.211
  172SAPE  H17S19429   6.662   5.412   4.069
  172SAPE  C21819430   6.489   5.358   4.186
  172SAPE  H18R19431   6.549   5.302   4.260
  172SAPE  H18S19432   6.461   5.292   4.102
  172SAPE  C21919433   6.362   5.408   4.260
  172SAPE  H19R19434   6.282   5.427   4.185
  172SAPE  H19S19435   6.374   5.503   4.317
  172SAPE  C22019436   6.317   5.303   4.363
  172SAPE  H20R19437   6.392   5.284   4.442
  172SAPE  H20S19438   6.278   5.207   4.322
  172SAPE  H20T19439   6.228   5.346   4.414
  172SAPE   C3319440   0.626   5.378   3.074
  172SAPE   H3X19441   0.521   5.406   3.054
  172SAPE   H3Y19442   0.681   5.475   3.070
  172SAPE   C3419443   0.636   5.309   3.211
  172SAPE   H4X19444   0.741   5.272   3.223
  172SAPE   H4Y19445   0.567   5.222   3.214
  172SAPE   C3519446   0.599   5.395   3.342
  172SAPE   H5X19447   0.494   5.433   3.336
  172SAPE   H5Y19448   0.660   5.487   3.336
  172SAPE   C3619449   0.599   5.310   3.472
  172SAPE   H6X19450   0.699   5.262   3.477
  172SAPE   H6Y19451   0.538   5.222   3.445
  172SAPE   C3719452   0.565   5.380   3.600
  172SAPE   H7X19453   0.549   5.297   3.673
  172SAPE   H7Y19454   0.467   5.430   3.581
  172SAPE   C3819455   0.669   5.479   3.635
  172SAPE   H8X19456   0.667   5.570   3.572
  172SAPE   H8Y19457   0.760   5.419   3.612
  172SAPE   C3919458   0.688   5.526   3.780
  172SAPE   H9X19459   0.592   5.553   3.830
  172SAPE   H9Y19460   0.744   5.621   3.774
  172SAPE  C31019461   0.765   5.429   3.869
  172SAPE  H10X19462   0.862   5.430   3.816
  172SAPE  H10Y19463   0.717   5.329   3.861
  172SAPE  C31119464   0.771   5.466   4.015
  172SAPE  H11X19465   0.673   5.489   4.060
  172SAPE  H11Y19466   0.827   5.562   4.027
  172SAPE  C31219467   0.822   5.349   4.103
  172SAPE  H12X19468   0.919   5.305   4.072
  172SAPE  H12Y19469   0.744   5.270   4.094
  172SAPE  C31319470   0.838   5.404   4.245
  172SAPE  H13X19471   0.856   5.513   4.248
  172SAPE  H13Y19472   0.914   5.353   4.307
  172SAPE  C31419473   0.709   5.384   4.327
  172SAPE  H14X19474   0.692   5.281   4.364
  172SAPE  H14Y19475   0.626   5.406   4.256
  172SAPE  C31519476   0.700   5.482   4.453
  172SAPE  H15X19477   0.682   5.589   4.428
  172SAPE  H15Y19478   0.793   5.471   4.512
  172SAPE  C31619479   0.582   5.450   4.546
  172SAPE  H16X19480   0.613   5.351   4.587
  172SAPE  H16Y19481   0.489   5.438   4.485
  172SAPE  C31719482   0.553   5.558   4.651
  172SAPE  H17X19483   0.478   5.515   4.721
  172SAPE  H17Y19484   0.516   5.648   4.597
  172SAPE  C31819485   0.678   5.596   4.731
  172SAPE  H18X19486   0.670   5.688   4.792
  172SAPE  H18Y19487   0.768   5.624   4.671
  172SAPE  H18Z19488   0.710   5.517   4.802
  173SLPC     N19489   6.303   6.453   7.208
  173SLPC   C1319490   6.237   6.323   7.223
  173SLPC  H13A19491   6.170   6.322   7.308
  173SLPC  H13B19492   6.170   6.295   7.144
  173SLPC  H13C19493   6.309   6.243   7.234
  173SLPC   C1419494   6.397   6.450   7.095
  173SLPC  H14A19495   6.349   6.440   6.999
  173SLPC  H14B19496   6.458   6.539   7.083
  173SLPC  H14C19497   6.468   6.371   7.117
  173SLPC   C1519498   6.379   6.491   7.323
  173SLPC  H15A19499   6.424   6.588   7.306
  173SLPC  H15B19500   6.329   6.501   7.418
  173SLPC  H15C19501   6.464   6.427   7.341
  173SLPC   C1219502   6.202   6.564   7.193
  173SLPC  H12A19503   6.160   6.577   7.291
  173SLPC  H12B19504   6.138   6.519   7.119
  173SLPC   C1119505   6.251   6.695   7.137
  173SLPC  H11A19506   6.314   6.690   7.045
  173SLPC  H11B19507   6.318   6.731   7.218
  173SLPC     P19508   6.021   6.744   7.018
  173SLPC   O1319509   5.992   6.596   7.023
  173SLPC   O1419510   5.904   6.830   7.040
  173SLPC   O1219511   6.142   6.790   7.115
  173SLPC   O1119512   6.076   6.774   6.878
  173SLPC    C119513   6.143   0.024   6.856
  173SLPC    HA19514   6.133   0.097   6.939
  173SLPC    HB19515   6.252   0.007   6.838
  173SLPC    C219516   6.096   0.089   6.717
  173SLPC    HS19517   5.995   0.135   6.720
  173SLPC   O2119518   6.100   6.873   6.609
  173SLPC   C2119519   5.995   6.797   6.617
  173SLPC   O2219520   5.881   6.819   6.668
  173SLPC   C2219521   6.014   6.671   6.537
  173SLPC   H2R19522   6.109   6.625   6.571
  173SLPC   H2S19523   5.928   6.603   6.557
  173SLPC    C319524   6.194   0.201   6.681
  173SLPC    HX19525   6.286   0.154   6.639
  173SLPC    HY19526   6.213   0.249   6.779
  173SLPC   O3119527   6.139   0.295   6.590
  173SLPC   C3119528   6.223   0.389   6.552
  173SLPC   O3219529   6.333   0.401   6.608
  173SLPC   C3219530   6.165   0.470   6.443
  173SLPC   H2X19531   6.082   0.525   6.493
  173SLPC   H2Y19532   6.127   0.405   6.361
  173SLPC   C2319533   6.028   6.680   6.386
  173SLPC   H3R19534   6.094   6.769   6.376
  173SLPC   H3S19535   5.936   6.707   6.331
  173SLPC   C2419536   6.091   6.557   6.331
  173SLPC   H4R19537   6.017   6.474   6.336
  173SLPC   H4S19538   6.184   6.521   6.380
  173SLPC   C2519539   6.138   6.582   6.184
  173SLPC   H5R19540   6.221   6.656   6.185
  173SLPC   H5S19541   6.059   6.626   6.119
  173SLPC   C2619542   6.181   6.447   6.122
  173SLPC   H6R19543   6.091   6.384   6.106
  173SLPC   H6S19544   6.248   6.399   6.196
  173SLPC   C2719545   6.262   6.464   5.992
  173SLPC   H7R19546   6.345   6.536   6.004
  173SLPC   H7S19547   6.196   6.498   5.910
  173SLPC   C2819548   6.325   6.329   5.952
  173SLPC   H8R19549   6.251   6.257   5.912
  173SLPC   H8S19550   6.359   6.284   6.048
  173SLPC   C2919551   6.439   6.351   5.859
  173SLPC   H9R19552   6.536   6.364   5.910
  173SLPC  C21019553   6.430   6.365   5.729
  173SLPC  H10R19554   6.526   6.386   5.681
  173SLPC  C21119555   6.312   6.363   5.636
  173SLPC  H11R19556   6.296   6.460   5.585
  173SLPC  H11S19557   6.219   6.345   5.693
  173SLPC  C21219558   6.326   6.262   5.525
  173SLPC  H12R19559   6.338   6.162   5.569
  173SLPC  C21319560   6.309   6.280   5.395
  173SLPC  H13R19561   6.307   6.194   5.327
  173SLPC  C21419562   6.282   6.414   5.325
  173SLPC  H14R19563   6.341   6.410   5.231
  173SLPC  H14S19564   6.318   6.501   5.385
  173SLPC  C21519565   6.133   6.432   5.283
  173SLPC  H15R19566   6.121   6.520   5.216
  173SLPC  H15S19567   6.083   6.471   5.374
  173SLPC  C21619568   6.065   6.312   5.217
  173SLPC  H16R19569   5.964   6.337   5.179
  173SLPC  H16S19570   6.053   6.221   5.281
  173SLPC  C21719571   6.135   6.254   5.094
  173SLPC  H17R19572   6.071   6.171   5.055
  173SLPC  H17S19573   6.225   6.195   5.119
  173SLPC  C21819574   6.176   6.359   4.989
  173SLPC  H18R19575   6.092   6.401   4.929
  173SLPC  H18S19576   6.242   6.307   4.916
  173SLPC  H18T19577   6.250   6.433   5.026
  173SLPC   C3319578   6.278   0.561   6.381
  173SLPC   H3X19579   6.358   0.493   6.343
  173SLPC   H3Y19580   6.315   0.628   6.462
  173SLPC   C3419581   6.238   0.638   6.248
  173SLPC   H4X19582   6.144   0.688   6.281
  173SLPC   H4Y19583   6.223   0.553   6.178
  173SLPC   C3519584   6.342   0.745   6.209
  173SLPC   H5X19585   6.440   0.692   6.203
  173SLPC   H5Y19586   6.349   0.820   6.291
  173SLPC   C3619587   6.305   0.810   6.074
  173SLPC   H6X19588   6.368   0.897   6.046
  173SLPC   H6Y19589   6.199   0.844   6.073
  173SLPC   C3719590   6.334   0.702   5.969
  173SLPC   H7X19591   6.267   0.617   5.992
  173SLPC   H7Y19592   6.436   0.660   5.985
  173SLPC   C3819593   6.327   0.754   5.828
  173SLPC   H8X19594   6.402   0.836   5.828
  173SLPC   H8Y19595   6.231   0.804   5.803
  173SLPC   C3919596   6.376   0.657   5.722
  173SLPC   H9X19597   6.307   0.570   5.716
  173SLPC   H9Y19598   6.473   0.614   5.755
  173SLPC  C31019599   6.382   0.721   5.584
  173SLPC  H10X19600   6.458   0.801   5.574
  173SLPC  H10Y19601   6.289   0.783   5.581
  173SLPC  C31119602   6.385   0.624   5.465
  173SLPC  H11X19603   6.311   0.542   5.485
  173SLPC  H11Y19604   6.488   0.583   5.459
  173SLPC  C31219605   6.349   0.695   5.334
  173SLPC  H12X19606   6.430   0.768   5.315
  173SLPC  H12Y19607   6.251   0.745   5.348
  173SLPC  C31319608   6.354   0.616   5.204
  173SLPC  H13X19609   6.270   0.543   5.205
  173SLPC  H13Y19610   6.447   0.556   5.195
  173SLPC  C31419611   6.355   0.700   5.076
  173SLPC  H14X19612   6.434   0.777   5.087
  173SLPC  H14Y19613   6.266   0.766   5.081
  173SLPC  C31519614   6.378   0.610   4.954
  173SLPC  H15X19615   6.307   0.526   4.962
  173SLPC  H15Y19616   6.475   0.557   4.966
  173SLPC  C31619617   6.377   0.675   4.816
  173SLPC  H16X19618   6.411   0.613   4.730
  173SLPC  H16Y19619   6.457   0.752   4.822
  173SLPC  C31719620   6.245   0.748   4.791
  173SLPC  H17X19621   6.241   0.832   4.863
  173SLPC  H17Y19622   6.170   0.670   4.816
  173SLPC  C31819623   6.232   0.799   4.647
  173SLPC  H18X19624   6.126   0.820   4.624
  173SLPC  H18Y19625   6.252   0.720   4.571
  173SLPC  H18Z19626   6.296   0.889   4.628
  174SLPC     N19627   2.683   1.524   6.715
  174SLPC   C1319628   2.823   1.533   6.760
  174SLPC  H13A19629   2.863   1.628   6.727
  174SLPC  H13B19630   2.844   1.517   6.864
  174SLPC  H13C19631   2.891   1.467   6.709
  174SLPC   C1419632   2.593   1.561   6.827
  174SLPC  H14A19633   2.489   1.561   6.798
  174SLPC  H14B19634   2.601   1.506   6.919
  174SLPC  H14C19635   2.607   1.666   6.852
  174SLPC   C1519636   2.651   1.382   6.673
  174SLPC  H15A19637   2.712   1.353   6.589
  174SLPC  H15B19638   2.660   1.324   6.764
  174SLPC  H15C19639   2.552   1.362   6.634
  174SLPC   C1219640   2.658   1.616   6.602
  174SLPC  H12A19641   2.660   1.716   6.644
  174SLPC  H12B19642   2.563   1.592   6.558
  174SLPC   C1119643   2.772   1.615   6.494
  174SLPC  H11A19644   2.727   1.684   6.420
  174SLPC  H11B19645   2.766   1.516   6.444
  174SLPC     P19646   3.024   1.606   6.449
  174SLPC   O1319647   3.144   1.610   6.534
  174SLPC   O1419648   2.985   1.471   6.401
  174SLPC   O1219649   2.903   1.658   6.530
  174SLPC   O1119650   3.042   1.709   6.332
  174SLPC    C119651   2.938   1.801   6.297
  174SLPC    HA19652   2.866   1.756   6.225
  174SLPC    HB19653   2.881   1.836   6.385
  174SLPC    C219654   3.008   1.918   6.222
  174SLPC    HS19655   2.939   2.004   6.207
  174SLPC   O2119656   3.072   1.880   6.104
  174SLPC   C2119657   3.069   1.970   6.010
  174SLPC   O2219658   3.014   2.078   6.018
  174SLPC   C2219659   3.127   1.908   5.890
  174SLPC   H2R19660   3.234   1.881   5.902
  174SLPC   H2S19661   3.076   1.812   5.864
  174SLPC    C319662   3.125   1.975   6.311
  174SLPC    HX19663   3.197   1.891   6.322
  174SLPC    HY19664   3.087   1.989   6.414
  174SLPC   O3119665   3.179   2.099   6.262
  174SLPC   C3119666   3.303   2.095   6.210
  174SLPC   O3219667   3.370   1.992   6.191
  174SLPC   C3219668   3.350   2.237   6.173
  174SLPC   H2X19669   3.399   2.277   6.264
  174SLPC   H2Y19670   3.259   2.300   6.160
  174SLPC   C2319671   3.107   1.991   5.766
  174SLPC   H3R19672   3.166   2.083   5.785
  174SLPC   H3S19673   2.998   2.003   5.750
  174SLPC   C2419674   3.153   1.915   5.639
  174SLPC   H4R19675   3.092   1.822   5.636
  174SLPC   H4S19676   3.257   1.884   5.664
  174SLPC   C2519677   3.139   1.996   5.512
  174SLPC   H5R19678   3.200   2.089   5.514
  174SLPC   H5S19679   3.036   2.037   5.514
  174SLPC   C2619680   3.165   1.914   5.386
  174SLPC   H6R19681   3.088   1.833   5.380
  174SLPC   H6S19682   3.267   1.870   5.381
  174SLPC   C2719683   3.134   2.001   5.266
  174SLPC   H7R19684   3.181   2.100   5.284
  174SLPC   H7S19685   3.027   2.029   5.259
  174SLPC   C2819686   3.181   1.949   5.129
  174SLPC   H8R19687   3.284   1.912   5.146
  174SLPC   H8S19688   3.204   2.020   5.048
  174SLPC   C2919689   3.105   1.827   5.081
  174SLPC   H9R19690   3.089   1.752   5.160
  174SLPC  C21019691   3.055   1.797   4.957
  174SLPC  H10R19692   3.003   1.701   4.940
  174SLPC  C21119693   3.049   1.883   4.837
  174SLPC  H11R19694   3.063   1.991   4.859
  174SLPC  H11S19695   2.942   1.874   4.808
  174SLPC  C21219696   3.145   1.859   4.727
  174SLPC  H12R19697   3.209   1.770   4.723
  174SLPC  C21319698   3.150   1.932   4.616
  174SLPC  H13R19699   3.222   1.901   4.539
  174SLPC  C21419700   3.061   2.046   4.579
  174SLPC  H14R19701   3.120   2.120   4.520
  174SLPC  H14S19702   3.034   2.091   4.677
  174SLPC  C21519703   2.937   1.997   4.495
  174SLPC  H15R19704   2.892   1.912   4.551
  174SLPC  H15S19705   2.957   1.977   4.387
  174SLPC  C21619706   2.821   2.102   4.511
  174SLPC  H16R19707   2.794   2.123   4.617
  174SLPC  H16S19708   2.722   2.078   4.467
  174SLPC  C21719709   2.860   2.237   4.431
  174SLPC  H17R19710   2.888   2.192   4.333
  174SLPC  H17S19711   2.946   2.293   4.475
  174SLPC  C21819712   2.735   2.325   4.420
  174SLPC  H18R19713   2.751   2.415   4.356
  174SLPC  H18S19714   2.702   2.352   4.523
  174SLPC  H18T19715   2.651   2.271   4.371
  174SLPC   C3319716   3.451   2.234   6.058
  174SLPC   H3X19717   3.532   2.159   6.071
  174SLPC   H3Y19718   3.495   2.336   6.052
  174SLPC   C3419719   3.384   2.203   5.921
  174SLPC   H4X19720   3.306   2.282   5.919
  174SLPC   H4Y19721   3.338   2.102   5.918
  174SLPC   C3519722   3.485   2.213   5.808
  174SLPC   H5X19723   3.576   2.150   5.823
  174SLPC   H5Y19724   3.502   2.321   5.792
  174SLPC   C3619725   3.426   2.169   5.672
  174SLPC   H6X19726   3.351   2.248   5.654
  174SLPC   H6Y19727   3.384   2.068   5.689
  174SLPC   C3719728   3.530   2.186   5.556
  174SLPC   H7X19729   3.625   2.130   5.571
  174SLPC   H7Y19730   3.560   2.291   5.537
  174SLPC   C3819731   3.459   2.141   5.423
  174SLPC   H8X19732   3.360   2.190   5.418
  174SLPC   H8Y19733   3.446   2.031   5.429
  174SLPC   C3919734   3.545   2.170   5.294
  174SLPC   H9X19735   3.640   2.112   5.290
  174SLPC   H9Y19736   3.579   2.276   5.301
  174SLPC  C31019737   3.458   2.154   5.162
  174SLPC  H10X19738   3.361   2.204   5.182
  174SLPC  H10Y19739   3.444   2.044   5.158
  174SLPC  C31119740   3.533   2.204   5.033
  174SLPC  H11X19741   3.632   2.154   5.042
  174SLPC  H11Y19742   3.552   2.313   5.043
  174SLPC  C31219743   3.453   2.171   4.907
  174SLPC  H12X19744   3.358   2.227   4.924
  174SLPC  H12Y19745   3.431   2.064   4.890
  174SLPC  C31319746   3.527   2.219   4.778
  174SLPC  H13X19747   3.632   2.182   4.782
  174SLPC  H13Y19748   3.546   2.328   4.786
  174SLPC  C31419749   3.458   2.173   4.653
  174SLPC  H14X19750   3.399   2.251   4.601
  174SLPC  H14Y19751   3.403   2.077   4.667
  174SLPC  C31519752   3.575   2.149   4.545
  174SLPC  H15X19753   3.648   2.087   4.602
  174SLPC  H15Y19754   3.621   2.247   4.517
  174SLPC  C31619755   3.537   2.063   4.426
  174SLPC  H16X19756   3.505   1.961   4.456
  174SLPC  H16Y19757   3.632   2.041   4.372
  174SLPC  C31719758   3.428   2.117   4.331
  174SLPC  H17X19759   3.468   2.204   4.274
  174SLPC  H17Y19760   3.346   2.149   4.398
  174SLPC  C31819761   3.371   2.002   4.243
  174SLPC  H18X19762   3.361   1.910   4.304
  174SLPC  H18Y19763   3.436   1.978   4.156
  174SLPC  H18Z19764   3.274   2.034   4.199
  175SLPC     N19765   6.172   2.414   6.776
  175SLPC   C1319766   6.147   2.427   6.922
  175SLPC  H13A19767   6.232   2.380   6.969
  175SLPC  H13B19768   6.139   2.533   6.943
  175SLPC  H13C19769   6.053   2.382   6.952
  175SLPC   C1419770   6.046   2.464   6.710
  175SLPC  H14A19771   6.009   2.561   6.743
  175SLPC  H14B19772   6.068   2.459   6.605
  175SLPC  H14C19773   5.963   2.398   6.731
  175SLPC   C1519774   6.199   2.270   6.738
  175SLPC  H15A19775   6.196   2.249   6.633
  175SLPC  H15B19776   6.295   2.234   6.772
  175SLPC  H15C19777   6.125   2.209   6.789
  175SLPC   C1219778   6.297   2.500   6.734
  175SLPC  H12A19779   6.274   2.523   6.630
  175SLPC  H12B19780   6.385   2.438   6.729
  175SLPC   C1119781   6.330   2.628   6.816
  175SLPC  H11A19782   6.438   2.648   6.803
  175SLPC  H11B19783   6.332   2.610   6.926
  175SLPC     P19784   6.131   2.812   6.850
  175SLPC   O1319785   6.088   2.744   6.972
  175SLPC   O1419786   6.175   2.954   6.860
  175SLPC   O1219787   6.251   2.739   6.772
  175SLPC   O1119788   6.011   2.811   6.748
  175SLPC    C119789   6.034   2.837   6.611
  175SLPC    HA19790   6.107   2.920   6.601
  175SLPC    HB19791   6.088   2.752   6.564
  175SLPC    C219792   5.914   2.875   6.529
  175SLPC    HS19793   5.855   2.782   6.515
  175SLPC   O2119794   5.947   2.929   6.408
  175SLPC   C2119795   5.999   2.841   6.320
  175SLPC   O2219796   5.999   2.725   6.334
  175SLPC   C2219797   6.051   2.920   6.202
  175SLPC   H2R19798   5.964   2.970   6.153
  175SLPC   H2S19799   6.118   2.995   6.248
  175SLPC    C319800   5.824   2.978   6.597
  175SLPC    HX19801   5.878   3.074   6.580
  175SLPC    HY19802   5.818   2.948   6.704
  175SLPC   O3119803   5.696   2.998   6.539
  175SLPC   C3119804   5.602   2.904   6.551
  175SLPC   O3219805   5.619   2.800   6.617
  175SLPC   C3219806   5.481   2.957   6.479
  175SLPC   H2X19807   5.480   3.068   6.483
  175SLPC   H2Y19808   5.395   2.924   6.541
  175SLPC   C2319809   6.125   2.825   6.101
  175SLPC   H3R19810   6.053   2.744   6.079
  175SLPC   H3S19811   6.213   2.776   6.148
  175SLPC   C2419812   6.152   2.907   5.980
  175SLPC   H4R19813   6.190   3.003   6.022
  175SLPC   H4S19814   6.051   2.930   5.939
  175SLPC   C2519815   6.240   2.840   5.870
  175SLPC   H5R19816   6.342   2.831   5.911
  175SLPC   H5S19817   6.256   2.921   5.795
  175SLPC   C2619818   6.188   2.714   5.803
  175SLPC   H6R19819   6.093   2.727   5.747
  175SLPC   H6S19820   6.170   2.635   5.879
  175SLPC   C2719821   6.296   2.669   5.699
  175SLPC   H7R19822   6.319   2.564   5.725
  175SLPC   H7S19823   6.392   2.723   5.712
  175SLPC   C2819824   6.241   2.658   5.554
  175SLPC   H8R19825   6.150   2.595   5.559
  175SLPC   H8S19826   6.315   2.598   5.497
  175SLPC   C2919827   6.212   2.792   5.497
  175SLPC   H9R19828   6.194   2.874   5.568
  175SLPC  C21019829   6.209   2.821   5.368
  175SLPC  H10R19830   6.185   2.920   5.326
  175SLPC  C21119831   6.232   2.732   5.253
  175SLPC  H11R19832   6.167   2.776   5.174
  175SLPC  H11S19833   6.200   2.629   5.277
  175SLPC  C21219834   6.377   2.721   5.200
  175SLPC  H12R19835   6.453   2.719   5.280
  175SLPC  C21319836   6.410   2.709   5.067
  175SLPC  H13R19837   6.517   2.689   5.047
  175SLPC  C21419838   6.315   2.713   4.946
  175SLPC  H14R19839   6.284   2.819   4.934
  175SLPC  H14S19840   6.228   2.646   4.957
  175SLPC  C21519841   6.391   2.690   4.814
  175SLPC  H15R19842   6.412   2.583   4.792
  175SLPC  H15S19843   6.490   2.739   4.814
  175SLPC  C21619844   6.302   2.735   4.695
  175SLPC  H16R19845   6.324   2.844   4.693
  175SLPC  H16S19846   6.194   2.717   4.714
  175SLPC  C21719847   6.346   2.687   4.547
  175SLPC  H17R19848   6.457   2.682   4.556
  175SLPC  H17S19849   6.315   2.759   4.469
  175SLPC  C21819850   6.302   2.542   4.518
  175SLPC  H18R19851   6.304   2.529   4.408
  175SLPC  H18S19852   6.197   2.528   4.553
  175SLPC  H18T19853   6.373   2.468   4.562
  175SLPC   C3319854   5.465   2.914   6.333
  175SLPC   H3X19855   5.369   2.955   6.296
  175SLPC   H3Y19856   5.449   2.804   6.336
  175SLPC   C3419857   5.577   2.959   6.244
  175SLPC   H4X19858   5.672   2.910   6.275
  175SLPC   H4Y19859   5.597   3.069   6.245
  175SLPC   C3519860   5.552   2.930   6.089
  175SLPC   H5X19861   5.474   2.995   6.044
  175SLPC   H5Y19862   5.524   2.823   6.081
  175SLPC   C3619863   5.674   2.970   6.010
  175SLPC   H6X19864   5.763   2.918   6.052
  175SLPC   H6Y19865   5.697   3.078   6.022
  175SLPC   C3719866   5.650   2.936   5.859
  175SLPC   H7X19867   5.559   2.985   5.818
  175SLPC   H7Y19868   5.626   2.827   5.858
  175SLPC   C3819869   5.765   2.978   5.775
  175SLPC   H8X19870   5.865   2.938   5.803
  175SLPC   H8Y19871   5.770   3.089   5.774
  175SLPC   C3919872   5.727   2.929   5.630
  175SLPC   H9X19873   5.644   2.988   5.585
  175SLPC   H9Y19874   5.693   2.824   5.619
  175SLPC  C31019875   5.856   2.945   5.544
  175SLPC  H10X19876   5.927   2.862   5.563
  175SLPC  H10Y19877   5.901   3.044   5.567
  175SLPC  C31119878   5.828   2.931   5.398
  175SLPC  H11X19879   5.746   2.857   5.386
  175SLPC  H11Y19880   5.911   2.887   5.339
  175SLPC  C31219881   5.792   3.060   5.313
  175SLPC  H12X19882   5.877   3.132   5.322
  175SLPC  H12Y19883   5.701   3.115   5.346
  175SLPC  C31319884   5.772   3.039   5.165
  175SLPC  H13X19885   5.685   2.973   5.147
  175SLPC  H13Y19886   5.854   2.979   5.120
  175SLPC  C31419887   5.762   3.172   5.092
  175SLPC  H14X19888   5.849   3.237   5.115
  175SLPC  H14Y19889   5.671   3.230   5.118
  175SLPC  C31519890   5.768   3.149   4.942
  175SLPC  H15X19891   5.682   3.084   4.914
  175SLPC  H15Y19892   5.858   3.092   4.913
  175SLPC  C31619893   5.757   3.285   4.874
  175SLPC  H16X19894   5.851   3.344   4.890
  175SLPC  H16Y19895   5.677   3.347   4.919
  175SLPC  C31719896   5.734   3.265   4.725
  175SLPC  H17X19897   5.646   3.197   4.714
  175SLPC  H17Y19898   5.831   3.229   4.685
  175SLPC  C31819899   5.708   3.406   4.648
  175SLPC  H18X19900   5.604   3.437   4.672
  175SLPC  H18Y19901   5.727   3.383   4.541
  175SLPC  H18Z19902   5.781   3.482   4.681
  176SLPC     N19903   5.728   1.605   7.048
  176SLPC   C1319904   5.618   1.637   7.142
  176SLPC  H13A19905   5.563   1.726   7.114
  176SLPC  H13B19906   5.544   1.559   7.146
  176SLPC  H13C19907   5.653   1.654   7.243
  176SLPC   C1419908   5.801   1.479   7.099
  176SLPC  H14A19909   5.735   1.396   7.122
  176SLPC  H14B19910   5.878   1.456   7.026
  176SLPC  H14C19911   5.850   1.496   7.194
  176SLPC   C1519912   5.825   1.722   7.038
  176SLPC  H15A19913   5.901   1.698   6.965
  176SLPC  H15B19914   5.782   1.811   6.993
  176SLPC  H15C19915   5.871   1.751   7.131
  176SLPC   C1219916   5.667   1.568   6.918
  176SLPC  H12A19917   5.597   1.645   6.888
  176SLPC  H12B19918   5.597   1.486   6.923
  176SLPC   C1119919   5.748   1.544   6.793
  176SLPC  H11A19920   5.810   1.635   6.776
  176SLPC  H11B19921   5.686   1.546   6.701
  176SLPC     P19922   5.763   1.278   6.792
  176SLPC   O1319923   5.851   1.179   6.856
  176SLPC   O1419924   5.626   1.277   6.833
  176SLPC   O1219925   5.832   1.419   6.810
  176SLPC   O1119926   5.764   1.253   6.637
  176SLPC    C119927   5.761   1.351   6.537
  176SLPC    HA19928   5.657   1.391   6.537
  176SLPC    HB19929   5.827   1.439   6.555
  176SLPC    C219930   5.810   1.281   6.408
  176SLPC    HS19931   5.877   1.356   6.361
  176SLPC   O2119932   5.702   1.259   6.320
  176SLPC   C2119933   5.666   1.364   6.248
  176SLPC   O2219934   5.719   1.476   6.253
  176SLPC   C2219935   5.546   1.329   6.165
  176SLPC   H2R19936   5.487   1.248   6.213
  176SLPC   H2S19937   5.481   1.419   6.162
  176SLPC    C319938   5.886   1.147   6.433
  176SLPC    HX19939   5.814   1.081   6.487
  176SLPC    HY19940   5.968   1.179   6.500
  176SLPC   O3119941   5.933   1.078   6.314
  176SLPC   C3119942   5.862   0.979   6.267
  176SLPC   O3219943   5.755   0.939   6.309
  176SLPC   C3219944   5.938   0.921   6.144
  176SLPC   H2X19945   5.944   0.811   6.158
  176SLPC   H2Y19946   6.036   0.972   6.132
  176SLPC   C2319947   5.578   1.278   6.024
  176SLPC   H3R19948   5.479   1.269   5.973
  176SLPC   H3S19949   5.622   1.178   6.038
  176SLPC   C2419950   5.656   1.366   5.930
  176SLPC   H4R19951   5.726   1.430   5.988
  176SLPC   H4S19952   5.585   1.428   5.871
  176SLPC   C2519953   5.745   1.283   5.839
  176SLPC   H5R19954   5.676   1.226   5.771
  176SLPC   H5S19955   5.809   1.209   5.891
  176SLPC   C2619956   5.840   1.378   5.759
  176SLPC   H6R19957   5.918   1.424   5.823
  176SLPC   H6S19958   5.779   1.461   5.718
  176SLPC   C2719959   5.899   1.315   5.628
  176SLPC   H7R19960   5.805   1.293   5.572
  176SLPC   H7S19961   5.955   1.223   5.655
  176SLPC   C2819962   5.973   1.404   5.526
  176SLPC   H8R19963   6.078   1.411   5.562
  176SLPC   H8S19964   5.932   1.508   5.525
  176SLPC   C2919965   5.977   1.333   5.392
  176SLPC   H9R19966   5.995   1.225   5.397
  176SLPC  C21019967   5.970   1.396   5.274
  176SLPC  H10R19968   5.993   1.337   5.184
  176SLPC  C21119969   5.982   1.546   5.262
  176SLPC  H11R19970   5.915   1.597   5.335
  176SLPC  H11S19971   5.936   1.582   5.168
  176SLPC  C21219972   6.123   1.592   5.256
  176SLPC  H12R19973   6.195   1.568   5.336
  176SLPC  C21319974   6.173   1.669   5.160
  176SLPC  H13R19975   6.279   1.695   5.175
  176SLPC  C21419976   6.118   1.724   5.031
  176SLPC  H14R19977   6.142   1.832   5.021
  176SLPC  H14S19978   6.009   1.712   5.017
  176SLPC  C21519979   6.185   1.652   4.904
  176SLPC  H15R19980   6.189   1.543   4.925
  176SLPC  H15S19981   6.291   1.687   4.899
  176SLPC  C21619982   6.115   1.680   4.774
  176SLPC  H16R19983   6.105   1.791   4.774
  176SLPC  H16S19984   6.013   1.637   4.776
  176SLPC  C21719985   6.185   1.636   4.649
  176SLPC  H17R19986   6.137   1.549   4.599
  176SLPC  H17S19987   6.289   1.605   4.674
  176SLPC  C21819988   6.184   1.740   4.538
  176SLPC  H18R19989   6.212   1.834   4.588
  176SLPC  H18S19990   6.078   1.741   4.504
  176SLPC  H18T19991   6.259   1.716   4.460
  176SLPC   C3319992   5.851   0.940   6.018
  176SLPC   H3X19993   5.829   1.049   6.012
  176SLPC   H3Y19994   5.757   0.881   6.028
  176SLPC   C3419995   5.933   0.902   5.894
  176SLPC   H4X19996   5.978   0.801   5.906
  176SLPC   H4Y19997   6.027   0.961   5.880
  176SLPC   C3519998   5.858   0.909   5.759
  176SLPC   H5X19999   5.813   1.011   5.765
  176SLPC   H5Y20000   5.768   0.845   5.768
  176SLPC   C3620001   5.945   0.903   5.626
  176SLPC   H6X20002   5.997   0.805   5.621
  176SLPC   H6Y20003   6.017   0.987   5.639
  176SLPC   C3720004   5.870   0.930   5.491
  176SLPC   H7X20005   5.833   1.034   5.493
  176SLPC   H7Y20006   5.784   0.861   5.474
  176SLPC   C3820007   5.968   0.902   5.381
  176SLPC   H8X20008   5.998   0.795   5.374
  176SLPC   H8Y20009   6.060   0.960   5.406
  176SLPC   C3920010   5.924   0.951   5.241
  176SLPC   H9X20011   5.912   1.062   5.247
  176SLPC   H9Y20012   5.817   0.923   5.229
  176SLPC  C31020013   6.017   0.912   5.126
  176SLPC  H10X20014   6.002   0.802   5.116
  176SLPC  H10Y20015   6.123   0.926   5.153
  176SLPC  C31120016   5.991   0.998   4.998
  176SLPC  H11X20017   6.043   0.954   4.910
  176SLPC  H11Y20018   6.046   1.094   5.008
  176SLPC  C31220019   5.848   1.012   4.952
  176SLPC  H12X20020   5.784   1.050   5.035
  176SLPC  H12Y20021   5.805   0.911   4.937
  176SLPC  C31320022   5.830   1.089   4.816
  176SLPC  H13X20023   5.914   1.162   4.811
  176SLPC  H13Y20024   5.733   1.141   4.802
  176SLPC  C31420025   5.834   0.995   4.696
  176SLPC  H14X20026   5.767   0.907   4.706
  176SLPC  H14Y20027   5.934   0.947   4.703
  176SLPC  C31520028   5.798   1.055   4.561
  176SLPC  H15X20029   5.880   1.118   4.521
  176SLPC  H15Y20030   5.714   1.126   4.578
  176SLPC  C31620031   5.754   0.938   4.463
  176SLPC  H16X20032   5.659   0.899   4.505
  176SLPC  H16Y20033   5.828   0.855   4.454
  176SLPC  C31720034   5.716   0.994   4.326
  176SLPC  H17X20035   5.618   1.045   4.329
  176SLPC  H17Y20036   5.695   0.907   4.261
  176SLPC  C31820037   5.821   1.086   4.256
  176SLPC  H18X20038   5.790   1.102   4.151
  176SLPC  H18Y20039   5.927   1.055   4.268
  176SLPC  H18Z20040   5.819   1.186   4.305
  177SLPC     N20041   4.760   1.476   6.581
  177SLPC   C1320042   4.664   1.530   6.481
  177SLPC  H13A20043   4.694   1.498   6.383
  177SLPC  H13B20044   4.563   1.498   6.503
  177SLPC  H13C20045   4.673   1.638   6.483
  177SLPC   C1420046   4.738   1.328   6.584
  177SLPC  H14A20047   4.804   1.283   6.657
  177SLPC  H14B20048   4.636   1.312   6.617
  177SLPC  H14C20049   4.763   1.279   6.491
  177SLPC   C1520050   4.729   1.530   6.717
  177SLPC  H15A20051   4.766   1.631   6.726
  177SLPC  H15B20052   4.623   1.538   6.738
  177SLPC  H15C20053   4.780   1.463   6.784
  177SLPC   C1220054   4.911   1.506   6.549
  177SLPC  H12A20055   4.924   1.452   6.457
  177SLPC  H12B20056   4.976   1.468   6.627
  177SLPC   C1120057   4.941   1.655   6.536
  177SLPC  H11A20058   4.853   1.717   6.510
  177SLPC  H11B20059   5.002   1.661   6.443
  177SLPC     P20060   5.125   1.695   6.709
  177SLPC   O1320061   5.137   1.797   6.816
  177SLPC   O1420062   5.147   1.551   6.742
  177SLPC   O1220063   4.978   1.717   6.655
  177SLPC   O1120064   5.206   1.729   6.578
  177SLPC    C120065   5.242   1.862   6.549
  177SLPC    HA20066   5.197   1.946   6.607
  177SLPC    HB20067   5.352   1.881   6.550
  177SLPC    C220068   5.213   1.901   6.402
  177SLPC    HS20069   5.105   1.926   6.397
  177SLPC   O2120070   5.237   1.785   6.312
  177SLPC   C2120071   5.163   1.775   6.203
  177SLPC   O2220072   5.067   1.844   6.177
  177SLPC   C2220073   5.234   1.678   6.105
  177SLPC   H2R20074   5.315   1.613   6.146
  177SLPC   H2S20075   5.148   1.615   6.072
  177SLPC    C320076   5.293   2.024   6.349
  177SLPC    HX20077   5.275   2.101   6.427
  177SLPC    HY20078   5.250   2.057   6.252
  177SLPC   O3120079   5.437   1.989   6.347
  177SLPC   C3120080   5.513   2.066   6.274
  177SLPC   O3220081   5.474   2.157   6.200
  177SLPC   C3220082   5.657   2.019   6.266
  177SLPC   H2X20083   5.656   1.933   6.195
  177SLPC   H2Y20084   5.687   1.979   6.366
  177SLPC   C2320085   5.291   1.763   5.989
  177SLPC   H3R20086   5.345   1.849   6.034
  177SLPC   H3S20087   5.205   1.804   5.932
  177SLPC   C2420088   5.386   1.685   5.906
  177SLPC   H4R20089   5.345   1.586   5.875
  177SLPC   H4S20090   5.476   1.653   5.963
  177SLPC   C2520091   5.454   1.772   5.795
  177SLPC   H5R20092   5.525   1.841   5.845
  177SLPC   H5S20093   5.376   1.830   5.741
  177SLPC   C2620094   5.524   1.690   5.679
  177SLPC   H6R20095   5.455   1.610   5.644
  177SLPC   H6S20096   5.609   1.637   5.727
  177SLPC   C2720097   5.559   1.774   5.559
  177SLPC   H7R20098   5.625   1.856   5.597
  177SLPC   H7S20099   5.464   1.809   5.513
  177SLPC   C2820100   5.626   1.704   5.441
  177SLPC   H8R20101   5.556   1.641   5.382
  177SLPC   H8S20102   5.693   1.630   5.488
  177SLPC   C2920103   5.704   1.801   5.361
  177SLPC   H9R20104   5.752   1.884   5.415
  177SLPC  C21020105   5.713   1.810   5.230
  177SLPC  H10R20106   5.776   1.887   5.184
  177SLPC  C21120107   5.656   1.705   5.136
  177SLPC  H11R20108   5.649   1.610   5.194
  177SLPC  H11S20109   5.733   1.693   5.057
  177SLPC  C21220110   5.515   1.749   5.090
  177SLPC  H12R20111   5.431   1.735   5.160
  177SLPC  C21320112   5.481   1.790   4.965
  177SLPC  H13R20113   5.380   1.831   4.959
  177SLPC  C21420114   5.578   1.799   4.849
  177SLPC  H14R20115   5.682   1.781   4.883
  177SLPC  H14S20116   5.570   1.905   4.814
  177SLPC  C21520117   5.530   1.705   4.737
  177SLPC  H15R20118   5.420   1.716   4.731
  177SLPC  H15S20119   5.547   1.600   4.768
  177SLPC  C21620120   5.601   1.730   4.606
  177SLPC  H16R20121   5.598   1.841   4.597
  177SLPC  H16S20122   5.541   1.697   4.518
  177SLPC  C21720123   5.749   1.685   4.604
  177SLPC  H17R20124   5.798   1.737   4.689
  177SLPC  H17S20125   5.795   1.738   4.517
  177SLPC  C21820126   5.774   1.539   4.605
  177SLPC  H18R20127   5.723   1.497   4.515
  177SLPC  H18S20128   5.757   1.488   4.702
  177SLPC  H18T20129   5.884   1.534   4.588
  177SLPC   C3320130   5.762   2.123   6.216
  177SLPC   H3X20131   5.864   2.087   6.241
  177SLPC   H3Y20132   5.744   2.223   6.261
  177SLPC   C3420133   5.751   2.146   6.062
  177SLPC   H4X20134   5.654   2.195   6.039
  177SLPC   H4Y20135   5.750   2.056   5.997
  177SLPC   C3520136   5.867   2.235   6.010
  177SLPC   H5X20137   5.868   2.329   6.070
  177SLPC   H5Y20138   5.852   2.269   5.906
  177SLPC   C3620139   6.007   2.170   6.013
  177SLPC   H6X20140   6.013   2.061   5.992
  177SLPC   H6Y20141   6.049   2.179   6.116
  177SLPC   C3720142   6.105   2.244   5.918
  177SLPC   H7X20143   6.206   2.228   5.962
  177SLPC   H7Y20144   6.086   2.353   5.931
  177SLPC   C3820145   6.104   2.203   5.773
  177SLPC   H8X20146   6.005   2.218   5.723
  177SLPC   H8Y20147   6.124   2.094   5.760
  177SLPC   C3920148   6.203   2.276   5.683
  177SLPC   H9X20149   6.200   2.379   5.723
  177SLPC   H9Y20150   6.162   2.286   5.581
  177SLPC  C31020151   6.348   2.229   5.708
  177SLPC  H10X20152   6.350   2.118   5.713
  177SLPC  H10Y20153   6.381   2.257   5.811
  177SLPC  C31120154   6.436   2.288   5.596
  177SLPC  H11X20155   6.542   2.258   5.607
  177SLPC  H11Y20156   6.424   2.398   5.606
  177SLPC  C31220157   6.405   2.246   5.448
  177SLPC  H12X20158   6.298   2.235   5.421
  177SLPC  H12Y20159   6.446   2.143   5.439
  177SLPC  C31320160   6.489   2.331   5.342
  177SLPC  H13X20161   6.595   2.298   5.345
  177SLPC  H13Y20162   6.491   2.439   5.366
  177SLPC  C31420163   6.445   2.315   5.198
  177SLPC  H14X20164   6.505   2.388   5.139
  177SLPC  H14Y20165   6.336   2.339   5.197
  177SLPC  C31520166   6.464   2.172   5.139
  177SLPC  H15X20167   6.445   2.083   5.203
  177SLPC  H15Y20168   6.571   2.168   5.111
  177SLPC  C31620169   6.379   2.162   5.015
  177SLPC  H16X20170   6.405   2.252   4.956
  177SLPC  H16Y20171   6.272   2.159   5.044
  177SLPC  C31720172   6.418   2.033   4.939
  177SLPC  H17X20173   6.397   1.951   5.010
  177SLPC  H17Y20174   6.527   2.044   4.918
  177SLPC  C31820175   6.351   1.996   4.808
  177SLPC  H18X20176   6.367   2.057   4.716
  177SLPC  H18Y20177   6.242   1.999   4.827
  177SLPC  H18Z20178   6.382   1.894   4.776
  178SLPC     N20179   2.797   6.233   6.496
  178SLPC   C1320180   2.907   6.262   6.590
  178SLPC  H13A20181   2.951   6.167   6.616
  178SLPC  H13B20182   2.981   6.326   6.544
  178SLPC  H13C20183   2.870   6.311   6.679
  178SLPC   C1420184   2.760   6.360   6.432
  178SLPC  H14A20185   2.847   6.404   6.386
  178SLPC  H14B20186   2.689   6.338   6.353
  178SLPC  H14C20187   2.729   6.429   6.508
  178SLPC   C1520188   2.673   6.180   6.571
  178SLPC  H15A20189   2.601   6.131   6.507
  178SLPC  H15B20190   2.695   6.118   6.656
  178SLPC  H15C20191   2.628   6.265   6.620
  178SLPC   C1220192   2.839   6.130   6.390
  178SLPC  H12A20193   2.864   6.043   6.448
  178SLPC  H12B20194   2.927   6.163   6.337
  178SLPC   C1120195   2.730   6.083   6.297
  178SLPC  H11A20196   2.780   6.011   6.229
  178SLPC  H11B20197   2.700   6.167   6.231
  178SLPC     P20198   2.479   6.004   6.300
  178SLPC   O1320199   2.432   5.868   6.301
  178SLPC   O1420200   2.410   6.109   6.378
  178SLPC   O1220201   2.627   6.007   6.353
  178SLPC   O1120202   2.477   6.058   6.154
  178SLPC    C120203   2.541   6.003   6.040
  178SLPC    HA20204   2.626   5.937   6.064
  178SLPC    HB20205   2.468   5.933   5.996
  178SLPC    C220206   2.583   6.108   5.934
  178SLPC    HS20207   2.625   6.197   5.986
  178SLPC   O2120208   2.465   6.141   5.852
  178SLPC   C2120209   2.473   6.261   5.800
  178SLPC   O2220210   2.568   6.339   5.812
  178SLPC   C2220211   2.344   6.299   5.733
  178SLPC   H2R20212   2.311   6.217   5.665
  178SLPC   H2S20213   2.270   6.295   5.816
  178SLPC    C320214   2.692   6.058   5.842
  178SLPC    HX20215   2.654   5.982   5.770
  178SLPC    HY20216   2.767   6.008   5.906
  178SLPC   O3120217   2.758   6.174   5.779
  178SLPC   C3120218   2.749   6.180   5.647
  178SLPC   O3220219   2.695   6.100   5.571
  178SLPC   C3220220   2.825   6.301   5.599
  178SLPC   H2X20221   2.928   6.285   5.639
  178SLPC   H2Y20222   2.779   6.394   5.638
  178SLPC   C2320223   2.335   6.433   5.655
  178SLPC   H3R20224   2.377   6.518   5.713
  178SLPC   H3S20225   2.230   6.461   5.631
  178SLPC   C2420226   2.394   6.422   5.510
  178SLPC   H4R20227   2.337   6.349   5.449
  178SLPC   H4S20228   2.494   6.376   5.512
  178SLPC   C2520229   2.403   6.559   5.428
  178SLPC   H5R20230   2.301   6.599   5.407
  178SLPC   H5S20231   2.452   6.547   5.329
  178SLPC   C2620232   2.497   6.666   5.498
  178SLPC   H6R20233   2.601   6.629   5.489
  178SLPC   H6S20234   2.457   6.682   5.601
  178SLPC   C2720235   2.502   6.794   5.410
  178SLPC   H7R20236   2.401   6.833   5.386
  178SLPC   H7S20237   2.553   6.757   5.318
  178SLPC   C2820238   2.577   0.030   5.485
  178SLPC   H8R20239   2.533   0.031   5.587
  178SLPC   H8S20240   2.552   0.133   5.454
  178SLPC   C2920241   2.722   6.871   5.501
  178SLPC   H9R20242   2.743   6.774   5.547
  178SLPC  C21020243   2.825   0.067   5.460
  178SLPC  H10R20244   2.925   0.021   5.465
  178SLPC  C21120245   2.807   0.210   5.393
  178SLPC  H11R20246   2.778   0.284   5.471
  178SLPC  H11S20247   2.730   0.221   5.313
  178SLPC  C21220248   2.940   0.254   5.327
  178SLPC  H12R20249   3.033   0.242   5.384
  178SLPC  C21320250   2.959   0.313   5.208
  178SLPC  H13R20251   3.061   0.334   5.174
  178SLPC  C21420252   2.848   0.328   5.103
  178SLPC  H14R20253   2.860   0.413   5.034
  178SLPC  H14S20254   2.749   0.350   5.148
  178SLPC  C21520255   2.834   0.199   5.010
  178SLPC  H15R20256   2.835   0.107   5.072
  178SLPC  H15S20257   2.934   0.200   4.962
  178SLPC  C21620258   2.715   0.204   4.919
  178SLPC  H16R20259   2.635   0.274   4.950
  178SLPC  H16S20260   2.662   0.107   4.925
  178SLPC  C21720261   2.749   0.214   4.768
  178SLPC  H17R20262   2.832   0.149   4.734
  178SLPC  H17S20263   2.786   0.316   4.747
  178SLPC  C21820264   2.626   0.197   4.679
  178SLPC  H18R20265   2.538   0.239   4.732
  178SLPC  H18S20266   2.602   0.090   4.661
  178SLPC  H18T20267   2.632   0.245   4.579
  178SLPC   C3320268   2.846   6.299   5.445
  178SLPC   H3X20269   2.757   6.276   5.382
  178SLPC   H3Y20270   2.917   6.217   5.422
  178SLPC   C3420271   2.932   6.417   5.389
  178SLPC   H4X20272   2.998   6.383   5.307
  178SLPC   H4Y20273   3.009   6.441   5.465
  178SLPC   C3520274   2.854   6.548   5.367
  178SLPC   H5X20275   2.845   6.602   5.464
  178SLPC   H5Y20276   2.748   6.523   5.346
  178SLPC   C3620277   2.918   6.649   5.272
  178SLPC   H6X20278   2.842   6.730   5.271
  178SLPC   H6Y20279   2.915   6.612   5.167
  178SLPC   C3720280   3.065   6.688   5.307
  178SLPC   H7X20281   3.144   6.612   5.292
  178SLPC   H7Y20282   3.070   6.714   5.416
  178SLPC   C3820283   3.114   6.815   5.232
  178SLPC   H8X20284   3.088   0.017   5.304
  178SLPC   H8Y20285   3.054   6.827   5.139
  178SLPC   C3920286   3.268   6.826   5.208
  178SLPC   H9X20287   3.307   6.758   5.130
  178SLPC   H9Y20288   3.325   6.807   5.301
  178SLPC  C31020289   3.320   0.086   5.174
  178SLPC  H10X20290   3.320   0.151   5.264
  178SLPC  H10Y20291   3.253   0.122   5.093
  178SLPC  C31120292   3.462   0.070   5.106
  178SLPC  H11X20293   3.461   6.855   5.045
  178SLPC  H11Y20294   3.540   0.057   5.184
  178SLPC  C31220295   3.505   0.192   5.019
  178SLPC  H12X20296   3.521   0.268   5.098
  178SLPC  H12Y20297   3.413   0.214   4.961
  178SLPC  C31320298   3.623   0.168   4.928
  178SLPC  H13X20299   3.619   0.070   4.877
  178SLPC  H13Y20300   3.709   0.168   4.999
  178SLPC  C31420301   3.647   0.287   4.834
  178SLPC  H14X20302   3.654   0.371   4.907
  178SLPC  H14Y20303   3.567   0.299   4.758
  178SLPC  C31520304   3.782   0.271   4.760
  178SLPC  H15X20305   3.787   0.192   4.682
  178SLPC  H15Y20306   3.856   0.243   4.838
  178SLPC  C31620307   3.827   0.410   4.702
  178SLPC  H16X20308   3.823   0.465   4.798
  178SLPC  H16Y20309   3.763   0.456   4.623
  178SLPC  C31720310   3.975   0.406   4.658
  178SLPC  H17X20311   3.983   0.341   4.568
  178SLPC  H17Y20312   4.036   0.353   4.735
  178SLPC  C31820313   4.042   0.543   4.642
  178SLPC  H18X20314   4.034   0.590   4.742
  178SLPC  H18Y20315   3.989   0.605   4.567
  178SLPC  H18Z20316   4.151   0.536   4.619
  179SLPC     N20317   4.392   1.875   2.232
  179SLPC   C1320318   4.324   1.976   2.147
  179SLPC  H13A20319   4.391   1.996   2.064
  179SLPC  H13B20320   4.228   1.944   2.109
  179SLPC  H13C20321   4.307   2.067   2.201
  179SLPC   C1420322   4.497   1.953   2.306
  179SLPC  H14A20323   4.583   1.986   2.251
  179SLPC  H14B20324   4.463   2.039   2.363
  179SLPC  H14C20325   4.542   1.882   2.374
  179SLPC   C1520326   4.451   1.765   2.146
  179SLPC  H15A20327   4.382   1.746   2.065
  179SLPC  H15B20328   4.544   1.800   2.104
  179SLPC  H15C20329   4.467   1.679   2.209
  179SLPC   C1220330   4.293   1.809   2.330
  179SLPC  H12A20331   4.198   1.798   2.281
  179SLPC  H12B20332   4.277   1.890   2.400
  179SLPC   C1120333   4.330   1.686   2.416
  179SLPC  H11A20334   4.262   1.684   2.503
  179SLPC  H11B20335   4.432   1.704   2.454
  179SLPC     P20336   4.206   1.505   2.259
  179SLPC   O1320337   4.148   1.607   2.167
  179SLPC   O1420338   4.230   1.373   2.198
  179SLPC   O1220339   4.334   1.563   2.342
  179SLPC   O1120340   4.096   1.475   2.370
  179SLPC    C120341   4.120   1.414   2.501
  179SLPC    HA20342   4.226   1.417   2.535
  179SLPC    HB20343   4.068   1.474   2.579
  179SLPC    C220344   4.078   1.265   2.511
  179SLPC    HS20345   4.117   1.213   2.421
  179SLPC   O2120346   3.937   1.266   2.518
  179SLPC   C2120347   3.882   1.142   2.504
  179SLPC   O2220348   3.948   1.041   2.480
  179SLPC   C2220349   3.724   1.148   2.509
  179SLPC   H2R20350   3.692   1.244   2.464
  179SLPC   H2S20351   3.682   1.063   2.450
  179SLPC    C320352   4.151   1.205   2.631
  179SLPC    HX20353   4.260   1.211   2.607
  179SLPC    HY20354   4.130   1.097   2.645
  179SLPC   O3120355   4.130   1.279   2.755
  179SLPC   C3120356   4.035   1.239   2.837
  179SLPC   O3220357   3.950   1.156   2.810
  179SLPC   C3220358   4.041   1.314   2.963
  179SLPC   H2X20359   4.051   1.423   2.944
  179SLPC   H2Y20360   4.137   1.283   3.010
  179SLPC   C2320361   3.666   1.139   2.647
  179SLPC   H3R20362   3.724   1.208   2.713
  179SLPC   H3S20363   3.676   1.038   2.692
  179SLPC   C2420364   3.520   1.182   2.654
  179SLPC   H4R20365   3.478   1.115   2.575
  179SLPC   H4S20366   3.511   1.287   2.620
  179SLPC   C2520367   3.461   1.158   2.791
  179SLPC   H5R20368   3.522   1.216   2.864
  179SLPC   H5S20369   3.483   1.053   2.820
  179SLPC   C2620370   3.313   1.178   2.805
  179SLPC   H6R20371   3.266   1.094   2.750
  179SLPC   H6S20372   3.285   1.279   2.767
  179SLPC   C2720373   3.262   1.174   2.955
  179SLPC   H7R20374   3.302   1.080   2.999
  179SLPC   H7S20375   3.153   1.151   2.954
  179SLPC   C2820376   3.315   1.287   3.046
  179SLPC   H8R20377   3.271   1.378   3.000
  179SLPC   H8S20378   3.426   1.295   3.050
  179SLPC   C2920379   3.257   1.259   3.186
  179SLPC   H9R20380   3.292   1.163   3.225
  179SLPC  C21020381   3.165   1.336   3.248
  179SLPC  H10R20382   3.128   1.298   3.344
  179SLPC  C21120383   3.109   1.467   3.201
  179SLPC  H11R20384   3.091   1.466   3.091
  179SLPC  H11S20385   3.178   1.549   3.231
  179SLPC  C21220386   2.978   1.495   3.261
  179SLPC  H12R20387   2.883   1.489   3.205
  179SLPC  C21320388   2.965   1.551   3.381
  179SLPC  H13R20389   2.862   1.566   3.419
  179SLPC  C21420390   3.077   1.588   3.473
  179SLPC  H14R20391   3.170   1.537   3.442
  179SLPC  H14S20392   3.043   1.549   3.572
  179SLPC  C21520393   3.091   1.738   3.482
  179SLPC  H15R20394   3.004   1.805   3.464
  179SLPC  H15S20395   3.166   1.763   3.403
  179SLPC  C21620396   3.151   1.777   3.619
  179SLPC  H16R20397   3.201   1.877   3.622
  179SLPC  H16S20398   3.216   1.690   3.642
  179SLPC  C21720399   3.037   1.779   3.733
  179SLPC  H17R20400   2.971   1.690   3.734
  179SLPC  H17S20401   2.961   1.856   3.710
  179SLPC  C21820402   3.087   1.807   3.875
  179SLPC  H18R20403   3.166   1.883   3.892
  179SLPC  H18S20404   3.126   1.712   3.919
  179SLPC  H18T20405   3.007   1.837   3.945
  179SLPC   C3320406   3.918   1.284   3.053
  179SLPC   H3X20407   3.919   1.181   3.094
  179SLPC   H3Y20408   3.825   1.287   2.992
  179SLPC   C3420409   3.911   1.357   3.188
  179SLPC   H4X20410   3.882   1.463   3.176
  179SLPC   H4Y20411   4.017   1.364   3.221
  179SLPC   C3520412   3.823   1.288   3.292
  179SLPC   H5X20413   3.722   1.286   3.247
  179SLPC   H5Y20414   3.852   1.182   3.304
  179SLPC   C3620415   3.844   1.366   3.422
  179SLPC   H6X20416   3.755   1.356   3.488
  179SLPC   H6Y20417   3.850   1.475   3.400
  179SLPC   C3720418   3.968   1.327   3.506
  179SLPC   H7X20419   4.056   1.346   3.442
  179SLPC   H7Y20420   3.982   1.217   3.518
  179SLPC   C3820421   3.979   1.390   3.646
  179SLPC   H8X20422   3.948   1.497   3.641
  179SLPC   H8Y20423   4.088   1.397   3.667
  179SLPC   C3920424   3.901   1.341   3.756
  179SLPC   H9X20425   3.868   1.239   3.728
  179SLPC   H9Y20426   3.819   1.414   3.770
  179SLPC  C31020427   3.973   1.340   3.887
  179SLPC  H10X20428   4.071   1.295   3.863
  179SLPC  H10Y20429   3.905   1.289   3.959
  179SLPC  C31120430   3.998   1.483   3.940
  179SLPC  H11X20431   3.899   1.530   3.955
  179SLPC  H11Y20432   4.052   1.545   3.865
  179SLPC  C31220433   4.090   1.495   4.068
  179SLPC  H12X20434   4.106   1.599   4.102
  179SLPC  H12Y20435   4.188   1.469   4.023
  179SLPC  C31320436   4.061   1.384   4.178
  179SLPC  H13X20437   4.137   1.388   4.259
  179SLPC  H13Y20438   4.074   1.285   4.130
  179SLPC  C31420439   3.921   1.390   4.229
  179SLPC  H14X20440   3.848   1.373   4.147
  179SLPC  H14Y20441   3.903   1.495   4.260
  179SLPC  C31520442   3.909   1.294   4.350
  179SLPC  H15X20443   3.951   1.196   4.318
  179SLPC  H15Y20444   3.799   1.289   4.364
  179SLPC  C31620445   3.970   1.350   4.484
  179SLPC  H16X20446   3.935   1.455   4.484
  179SLPC  H16Y20447   4.081   1.353   4.470
  179SLPC  C31720448   3.937   1.285   4.617
  179SLPC  H17X20449   4.032   1.302   4.672
  179SLPC  H17Y20450   3.913   1.177   4.604
  179SLPC  C31820451   3.816   1.356   4.679
  179SLPC  H18X20452   3.722   1.332   4.624
  179SLPC  H18Y20453   3.833   1.466   4.675
  179SLPC  H18Z20454   3.820   1.325   4.785
  180SLPC     N20455   1.550   1.344   2.183
  180SLPC   C1320456   1.589   1.327   2.320
  180SLPC  H13A20457   1.571   1.230   2.364
  180SLPC  H13B20458   1.696   1.340   2.330
  180SLPC  H13C20459   1.528   1.385   2.388
  180SLPC   C1420460   1.407   1.310   2.169
  180SLPC  H14A20461   1.339   1.371   2.226
  180SLPC  H14B20462   1.381   1.310   2.065
  180SLPC  H14C20463   1.390   1.214   2.215
  180SLPC   C1520464   1.616   1.250   2.092
  180SLPC  H15A20465   1.610   1.147   2.123
  180SLPC  H15B20466   1.577   1.248   1.991
  180SLPC  H15C20467   1.721   1.273   2.085
  180SLPC   C1220468   1.556   1.484   2.129
  180SLPC  H12A20469   1.475   1.540   2.175
  180SLPC  H12B20470   1.525   1.479   2.026
  180SLPC   C1120471   1.684   1.561   2.159
  180SLPC  H11A20472   1.696   1.564   2.269
  180SLPC  H11B20473   1.690   1.667   2.125
  180SLPC     P20474   1.923   1.447   2.162
  180SLPC   O1320475   1.930   1.303   2.138
  180SLPC   O1420476   2.036   1.526   2.109
  180SLPC   O1220477   1.795   1.495   2.094
  180SLPC   O1120478   1.920   1.468   2.323
  180SLPC    C120479   1.977   1.579   2.384
  180SLPC    HA20480   1.972   1.664   2.313
  180SLPC    HB20481   1.920   1.611   2.474
  180SLPC    C220482   2.120   1.560   2.448
  180SLPC    HS20483   2.185   1.518   2.367
  180SLPC   O2120484   2.105   1.473   2.566
  180SLPC   C2120485   2.216   1.409   2.593
  180SLPC   O2220486   2.315   1.408   2.522
  180SLPC   C2220487   2.219   1.356   2.738
  180SLPC   H2R20488   2.276   1.428   2.800
  180SLPC   H2S20489   2.117   1.352   2.781
  180SLPC    C320490   2.178   1.699   2.491
  180SLPC    HX20491   2.159   1.758   2.399
  180SLPC    HY20492   2.287   1.683   2.505
  180SLPC   O3120493   2.113   1.760   2.606
  180SLPC   C3120494   2.162   1.737   2.726
  180SLPC   O3220495   2.268   1.681   2.752
  180SLPC   C3220496   2.063   1.792   2.833
  180SLPC   H2X20497   1.969   1.776   2.776
  180SLPC   H2Y20498   2.075   1.902   2.843
  180SLPC   C2320499   2.294   1.223   2.750
  180SLPC   H3R20500   2.402   1.236   2.728
  180SLPC   H3S20501   2.258   1.146   2.679
  180SLPC   C2420502   2.273   1.170   2.890
  180SLPC   H4R20503   2.175   1.120   2.900
  180SLPC   H4S20504   2.270   1.256   2.960
  180SLPC   C2520505   2.378   1.070   2.954
  180SLPC   H5R20506   2.485   1.100   2.945
  180SLPC   H5S20507   2.378   0.973   2.901
  180SLPC   C2620508   2.350   1.054   3.102
  180SLPC   H6R20509   2.336   1.152   3.153
  180SLPC   H6S20510   2.434   1.003   3.153
  180SLPC   C2720511   2.228   0.959   3.131
  180SLPC   H7R20512   2.235   0.857   3.086
  180SLPC   H7S20513   2.137   1.008   3.090
  180SLPC   C2820514   2.192   0.938   3.277
  180SLPC   H8R20515   2.101   0.874   3.276
  180SLPC   H8S20516   2.169   1.035   3.325
  180SLPC   C2920517   2.303   0.874   3.351
  180SLPC   H9R20518   2.351   0.793   3.293
  180SLPC  C21020519   2.366   0.909   3.463
  180SLPC  H10R20520   2.456   0.858   3.499
  180SLPC  C21120521   2.336   1.030   3.544
  180SLPC  H11R20522   2.303   0.990   3.642
  180SLPC  H11S20523   2.249   1.082   3.501
  180SLPC  C21220524   2.453   1.124   3.558
  180SLPC  H12R20525   2.496   1.156   3.462
  180SLPC  C21320526   2.523   1.156   3.670
  180SLPC  H13R20527   2.602   1.232   3.662
  180SLPC  C21420528   2.495   1.107   3.814
  180SLPC  H14R20529   2.391   1.138   3.841
  180SLPC  H14S20530   2.560   1.164   3.884
  180SLPC  C21520531   2.509   0.954   3.844
  180SLPC  H15R20532   2.608   0.922   3.806
  180SLPC  H15S20533   2.430   0.896   3.791
  180SLPC  C21620534   2.500   0.925   3.993
  180SLPC  H16R20535   2.460   0.823   4.013
  180SLPC  H16S20536   2.425   1.000   4.024
  180SLPC  C21720537   2.616   0.945   4.088
  180SLPC  H17R20538   2.600   1.038   4.146
  180SLPC  H17S20539   2.706   0.960   4.025
  180SLPC  C21820540   2.656   0.832   4.188
  180SLPC  H18R20541   2.758   0.862   4.220
  180SLPC  H18S20542   2.633   0.735   4.139
  180SLPC  H18T20543   2.587   0.827   4.274
  180SLPC   C3320544   2.055   1.704   2.962
  180SLPC   H3X20545   2.026   1.764   3.050
  180SLPC   H3Y20546   2.160   1.674   2.984
  180SLPC   C3420547   1.956   1.590   2.957
  180SLPC   H4X20548   1.985   1.546   2.859
  180SLPC   H4Y20549   1.854   1.635   2.955
  180SLPC   C3520550   1.960   1.497   3.080
  180SLPC   H5X20551   1.886   1.414   3.078
  180SLPC   H5Y20552   1.947   1.569   3.163
  180SLPC   C3620553   2.086   1.419   3.101
  180SLPC   H6X20554   2.174   1.487   3.088
  180SLPC   H6Y20555   2.091   1.344   3.019
  180SLPC   C3720556   2.103   1.359   3.245
  180SLPC   H7X20557   2.198   1.301   3.251
  180SLPC   H7Y20558   2.025   1.281   3.249
  180SLPC   C3820559   2.091   1.447   3.367
  180SLPC   H8X20560   1.994   1.501   3.372
  180SLPC   H8Y20561   2.175   1.519   3.360
  180SLPC   C3920562   2.097   1.362   3.495
  180SLPC   H9X20563   2.190   1.303   3.491
  180SLPC   H9Y20564   2.017   1.286   3.484
  180SLPC  C31020565   2.099   1.440   3.619
  180SLPC  H10X20566   2.002   1.486   3.646
  180SLPC  H10Y20567   2.149   1.535   3.589
  180SLPC  C31120568   2.180   1.374   3.733
  180SLPC  H11X20569   2.239   1.448   3.790
  180SLPC  H11Y20570   2.257   1.310   3.686
  180SLPC  C31220571   2.093   1.291   3.823
  180SLPC  H12X20572   2.151   1.206   3.865
  180SLPC  H12Y20573   2.027   1.228   3.760
  180SLPC  C31320574   2.022   1.371   3.929
  180SLPC  H13X20575   1.952   1.441   3.880
  180SLPC  H13Y20576   2.102   1.420   3.988
  180SLPC  C31420577   1.930   1.298   4.027
  180SLPC  H14X20578   1.903   1.358   4.116
  180SLPC  H14Y20579   1.995   1.215   4.060
  180SLPC  C31520580   1.802   1.235   3.964
  180SLPC  H15X20581   1.823   1.209   3.858
  180SLPC  H15Y20582   1.711   1.296   3.978
  180SLPC  C31620583   1.756   1.109   4.026
  180SLPC  H16X20584   1.750   1.134   4.134
  180SLPC  H16Y20585   1.823   1.020   4.024
  180SLPC  C31720586   1.609   1.070   3.993
  180SLPC  H17X20587   1.593   1.063   3.883
  180SLPC  H17Y20588   1.540   1.155   4.014
  180SLPC  C31820589   1.563   0.941   4.064
  180SLPC  H18X20590   1.559   0.971   4.170
  180SLPC  H18Y20591   1.618   0.846   4.050
  180SLPC  H18Z20592   1.459   0.925   4.027
  181SLPC     N20593   0.689   6.851   2.242
  181SLPC   C1320594   0.728   6.710   2.207
  181SLPC  H13A20595   0.644   6.643   2.220
  181SLPC  H13B20596   0.757   6.699   2.104
  181SLPC  H13C20597   0.810   6.675   2.269
  181SLPC   C1420598   0.592   6.847   2.358
  181SLPC  H14A20599   0.501   6.809   2.314
  181SLPC  H14B20600   0.633   6.784   2.436
  181SLPC  H14C20601   0.568   0.071   2.386
  181SLPC   C1520602   0.606   0.016   2.114
  181SLPC  H15A20603   0.524   6.829   2.087
  181SLPC  H15B20604   0.558   0.110   2.137
  181SLPC  H15C20605   0.673   0.026   2.030
  181SLPC   C1220606   0.805   0.065   2.265
  181SLPC  H12A20607   0.774   0.168   2.266
  181SLPC  H12B20608   0.876   0.042   2.188
  181SLPC   C1120609   0.885   0.040   2.394
  181SLPC  H11A20610   0.828   0.053   2.488
  181SLPC  H11B20611   0.966   0.115   2.405
  181SLPC     P20612   1.077   6.761   2.294
  181SLPC   O1320613   1.045   6.645   2.213
  181SLPC   O1420614   1.120   0.008   2.229
  181SLPC   O1220615   0.957   6.794   2.386
  181SLPC   O1120616   1.185   6.715   2.402
  181SLPC    C120617   1.148   6.705   2.541
  181SLPC    HA20618   1.087   6.790   2.579
  181SLPC    HB20619   1.087   6.616   2.567
  181SLPC    C220620   1.267   6.693   2.638
  181SLPC    HS20621   1.305   6.592   2.609
  181SLPC   O2120622   1.215   6.698   2.774
  181SLPC   C2120623   1.299   6.630   2.856
  181SLPC   O2220624   1.376   6.537   2.831
  181SLPC   C2220625   1.272   6.673   2.995
  181SLPC   H2R20626   1.371   6.696   3.040
  181SLPC   H2S20627   1.198   6.756   2.997
  181SLPC    C320628   1.377   6.802   2.612
  181SLPC    HX20629   1.339   0.006   2.676
  181SLPC    HY20630   1.377   6.817   2.502
  181SLPC   O3120631   1.502   6.765   2.665
  181SLPC   C3120632   1.573   6.865   2.709
  181SLPC   O3220633   1.543   0.107   2.711
  181SLPC   C3220634   1.692   6.813   2.783
  181SLPC   H2X20635   1.776   6.804   2.711
  181SLPC   H2Y20636   1.661   6.718   2.833
  181SLPC   C2320637   1.220   6.559   3.080
  181SLPC   H3R20638   1.309   6.498   3.105
  181SLPC   H3S20639   1.142   6.499   3.029
  181SLPC   C2420640   1.160   6.608   3.216
  181SLPC   H4R20641   1.054   6.630   3.190
  181SLPC   H4S20642   1.208   6.706   3.238
  181SLPC   C2520643   1.189   6.506   3.326
  181SLPC   H5R20644   1.299   6.500   3.326
  181SLPC   H5S20645   1.139   6.410   3.302
  181SLPC   C2620646   1.137   6.551   3.466
  181SLPC   H6R20647   1.177   6.654   3.477
  181SLPC   H6S20648   1.173   6.478   3.541
  181SLPC   C2720649   0.981   6.575   3.475
  181SLPC   H7R20650   0.933   6.476   3.456
  181SLPC   H7S20651   0.945   6.639   3.392
  181SLPC   C2820652   0.926   6.639   3.606
  181SLPC   H8R20653   0.819   6.666   3.594
  181SLPC   H8S20654   0.973   6.734   3.637
  181SLPC   C2920655   0.940   6.538   3.715
  181SLPC   H9R20656   1.034   6.481   3.724
  181SLPC  C21020657   0.837   6.487   3.792
  181SLPC  H10R20658   0.870   6.404   3.857
  181SLPC  C21120659   0.695   6.535   3.795
  181SLPC  H11R20660   0.629   6.455   3.836
  181SLPC  H11S20661   0.663   6.568   3.694
  181SLPC  C21220662   0.675   6.666   3.870
  181SLPC  H12R20663   0.709   6.751   3.809
  181SLPC  C21320664   0.614   6.683   3.990
  181SLPC  H13R20665   0.608   6.785   4.030
  181SLPC  C21420666   0.551   6.568   4.070
  181SLPC  H14R20667   0.522   6.478   4.010
  181SLPC  H14S20668   0.454   6.587   4.119
  181SLPC  C21520669   0.643   6.528   4.188
  181SLPC  H15R20670   0.731   6.467   4.156
  181SLPC  H15S20671   0.575   6.465   4.250
  181SLPC  C21620672   0.688   6.642   4.278
  181SLPC  H16R20673   0.599   6.695   4.319
  181SLPC  H16S20674   0.740   6.718   4.216
  181SLPC  C21720675   0.772   6.593   4.396
  181SLPC  H17R20676   0.855   6.523   4.372
  181SLPC  H17S20677   0.697   6.543   4.460
  181SLPC  C21820678   0.844   6.716   4.465
  181SLPC  H18R20679   0.918   6.685   4.542
  181SLPC  H18S20680   0.774   6.793   4.505
  181SLPC  H18T20681   0.902   6.765   4.384
  181SLPC   C3320682   1.730   0.029   2.911
  181SLPC   H3X20683   1.744   0.129   2.865
  181SLPC   H3Y20684   1.831   6.874   2.943
  181SLPC   C3420685   1.619   0.006   3.025
  181SLPC   H4X20686   1.620   6.776   3.051
  181SLPC   H4Y20687   1.517   0.035   2.994
  181SLPC   C3520688   1.658   0.095   3.145
  181SLPC   H5X20689   1.674   0.202   3.121
  181SLPC   H5Y20690   1.762   0.073   3.180
  181SLPC   C3620691   1.558   0.090   3.257
  181SLPC   H6X20692   1.523   6.869   3.293
  181SLPC   H6Y20693   1.462   0.133   3.219
  181SLPC   C3720694   1.597   0.162   3.382
  181SLPC   H7X20695   1.630   0.266   3.366
  181SLPC   H7Y20696   1.681   0.116   3.438
  181SLPC   C3820697   1.492   0.169   3.497
  181SLPC   H8X20698   1.399   0.208   3.449
  181SLPC   H8Y20699   1.509   0.237   3.583
  181SLPC   C3920700   1.447   0.033   3.556
  181SLPC   H9X20701   1.395   6.846   3.482
  181SLPC   H9Y20702   1.371   0.064   3.631
  181SLPC  C31020703   1.559   6.836   3.623
  181SLPC  H10X20704   1.623   0.035   3.671
  181SLPC  H10Y20705   1.623   6.798   3.540
  181SLPC  C31120706   1.516   6.711   3.700
  181SLPC  H11X20707   1.427   6.662   3.655
  181SLPC  H11Y20708   1.489   6.737   3.805
  181SLPC  C31220709   1.625   6.602   3.711
  181SLPC  H12X20710   1.698   6.641   3.785
  181SLPC  H12Y20711   1.680   6.585   3.617
  181SLPC  C31320712   1.582   6.464   3.783
  181SLPC  H13X20713   1.531   6.405   3.704
  181SLPC  H13Y20714   1.507   6.471   3.864
  181SLPC  C31420715   1.704   6.384   3.850
  181SLPC  H14X20716   1.659   6.294   3.898
  181SLPC  H14Y20717   1.734   6.454   3.931
  181SLPC  C31520718   1.828   6.364   3.766
  181SLPC  H15X20719   1.879   6.449   3.717
  181SLPC  H15Y20720   1.808   6.289   3.686
  181SLPC  C31620721   1.937   6.312   3.865
  181SLPC  H16X20722   1.931   6.204   3.891
  181SLPC  H16Y20723   1.937   6.376   3.956
  181SLPC  C31720724   2.081   6.335   3.815
  181SLPC  H17X20725   2.109   6.439   3.788
  181SLPC  H17Y20726   2.092   6.273   3.723
  181SLPC  C31820727   2.192   6.273   3.898
  181SLPC  H18X20728   2.202   6.321   3.998
  181SLPC  H18Y20729   2.295   6.282   3.856
  181SLPC  H18Z20730   2.167   6.166   3.907
  182SLPC     N20731   2.314   0.101   1.654
  182SLPC   C1320732   2.364   6.855   1.588
  182SLPC  H13A20733   2.312   6.849   1.494
  182SLPC  H13B20734   2.472   6.857   1.578
  182SLPC  H13C20735   2.337   6.765   1.641
  182SLPC   C1420736   2.165   0.102   1.668
  182SLPC  H14A20737   2.117   0.127   1.575
  182SLPC  H14B20738   2.126   0.008   1.704
  182SLPC  H14C20739   2.137   0.172   1.746
  182SLPC   C1520740   2.353   0.224   1.572
  182SLPC  H15A20741   2.323   0.225   1.468
  182SLPC  H15B20742   2.304   0.309   1.617
  182SLPC  H15C20743   2.460   0.234   1.582
  182SLPC   C1220744   2.370   0.116   1.796
  182SLPC  H12A20745   2.335   0.033   1.855
  182SLPC  H12B20746   2.325   0.203   1.843
  182SLPC   C1120747   2.526   0.129   1.804
  182SLPC  H11A20748   2.556   0.166   1.904
  182SLPC  H11B20749   2.548   0.199   1.721
  182SLPC     P20750   2.620   6.760   1.864
  182SLPC   O1320751   2.576   6.634   1.801
  182SLPC   O1420752   2.763   6.760   1.909
  182SLPC   O1220753   2.594   0.003   1.772
  182SLPC   O1120754   2.531   6.791   1.986
  182SLPC    C120755   2.591   6.825   2.114
  182SLPC    HA20756   2.684   0.007   2.108
  182SLPC    HB20757   2.513   0.008   2.166
  182SLPC    C220758   2.607   6.691   2.200
  182SLPC    HS20759   2.693   6.631   2.163
  182SLPC   O2120760   2.482   6.621   2.194
  182SLPC   C2120761   2.477   6.494   2.171
  182SLPC   O2220762   2.581   6.427   2.178
  182SLPC   C2220763   2.345   6.438   2.114
  182SLPC   H2R20764   2.333   6.472   2.009
  182SLPC   H2S20765   2.358   6.327   2.112
  182SLPC    C320766   2.632   6.737   2.340
  182SLPC    HX20767   2.569   6.825   2.363
  182SLPC    HY20768   2.737   6.774   2.342
  182SLPC   O3120769   2.619   6.624   2.429
  182SLPC   C3120770   2.733   6.557   2.450
  182SLPC   O3220771   2.842   6.578   2.397
  182SLPC   C3220772   2.720   6.473   2.573
  182SLPC   H2X20773   2.666   6.377   2.560
  182SLPC   H2Y20774   2.661   6.529   2.648
  182SLPC   C2320775   2.220   6.474   2.200
  182SLPC   H3R20776   2.134   6.423   2.151
  182SLPC   H3S20777   2.198   6.583   2.200
  182SLPC   C2420778   2.217   6.421   2.343
  182SLPC   H4R20779   2.297   6.479   2.394
  182SLPC   H4S20780   2.252   6.316   2.356
  182SLPC   C2520781   2.086   6.452   2.404
  182SLPC   H5R20782   2.011   6.417   2.329
  182SLPC   H5S20783   2.075   6.563   2.412
  182SLPC   C2620784   2.053   6.387   2.536
  182SLPC   H6R20785   2.122   6.424   2.614
  182SLPC   H6S20786   2.071   6.277   2.536
  182SLPC   C2720787   1.908   6.413   2.572
  182SLPC   H7R20788   1.844   6.385   2.486
  182SLPC   H7S20789   1.897   6.523   2.587
  182SLPC   C2820790   1.874   6.332   2.699
  182SLPC   H8R20791   1.951   6.356   2.775
  182SLPC   H8S20792   1.889   6.224   2.674
  182SLPC   C2920793   1.739   6.363   2.753
  182SLPC   H9R20794   1.655   6.367   2.682
  182SLPC  C21020795   1.718   6.410   2.874
  182SLPC  H10R20796   1.617   6.440   2.904
  182SLPC  C21120797   1.820   6.423   2.990
  182SLPC  H11R20798   1.920   6.459   2.958
  182SLPC  H11S20799   1.826   6.318   3.026
  182SLPC  C21220800   1.763   6.497   3.106
  182SLPC  H12R20801   1.694   6.580   3.087
  182SLPC  C21320802   1.802   6.467   3.232
  182SLPC  H13R20803   1.753   6.522   3.313
  182SLPC  C21420804   1.893   6.346   3.267
  182SLPC  H14R20805   1.954   6.308   3.182
  182SLPC  H14S20806   1.834   6.257   3.297
  182SLPC  C21520807   1.984   6.366   3.388
  182SLPC  H15R20808   2.031   6.279   3.438
  182SLPC  H15S20809   1.928   6.420   3.467
  182SLPC  C21620810   2.102   6.457   3.349
  182SLPC  H16R20811   2.064   6.559   3.329
  182SLPC  H16S20812   2.146   6.424   3.252
  182SLPC  C21720813   2.216   6.463   3.451
  182SLPC  H17R20814   2.289   6.380   3.444
  182SLPC  H17S20815   2.176   6.467   3.554
  182SLPC  C21820816   2.305   6.592   3.441
  182SLPC  H18R20817   2.248   6.685   3.422
  182SLPC  H18S20818   2.387   6.568   3.370
  182SLPC  H18T20819   2.350   6.599   3.543
  182SLPC   C3320820   2.854   6.429   2.640
  182SLPC   H3X20821   2.907   6.520   2.676
  182SLPC   H3Y20822   2.914   6.370   2.567
  182SLPC   C3420823   2.817   6.332   2.755
  182SLPC   H4X20824   2.746   6.258   2.711
  182SLPC   H4Y20825   2.763   6.394   2.829
  182SLPC   C3520826   2.935   6.272   2.835
  182SLPC   H5X20827   3.011   6.351   2.854
  182SLPC   H5Y20828   2.984   6.202   2.763
  182SLPC   C3620829   2.889   6.200   2.962
  182SLPC   H6X20830   2.801   6.136   2.941
  182SLPC   H6Y20831   2.867   6.281   3.034
  182SLPC   C3720832   3.008   6.129   3.031
  182SLPC   H7X20833   3.086   6.208   3.025
  182SLPC   H7Y20834   3.031   6.039   2.971
  182SLPC   C3820835   2.977   6.069   3.168
  182SLPC   H8X20836   3.064   6.002   3.187
  182SLPC   H8Y20837   2.883   6.012   3.154
  182SLPC   C3920838   2.945   6.166   3.277
  182SLPC   H9X20839   2.870   6.238   3.238
  182SLPC   H9Y20840   3.040   6.216   3.306
  182SLPC  C31020841   2.884   6.106   3.405
  182SLPC  H10X20842   2.798   6.041   3.378
  182SLPC  H10Y20843   2.845   6.182   3.476
  182SLPC  C31120844   2.981   6.013   3.477
  182SLPC  H11X20845   3.032   5.950   3.401
  182SLPC  H11Y20846   2.915   5.953   3.544
  182SLPC  C31220847   3.080   6.089   3.560
  182SLPC  H12X20848   3.030   6.182   3.594
  182SLPC  H12Y20849   3.168   6.118   3.499
  182SLPC  C31320850   3.125   6.006   3.680
  182SLPC  H13X20851   3.178   5.922   3.630
  182SLPC  H13Y20852   3.036   5.962   3.727
  182SLPC  C31420853   3.207   6.080   3.792
  182SLPC  H14X20854   3.315   6.083   3.769
  182SLPC  H14Y20855   3.187   6.022   3.884
  182SLPC  C31520856   3.150   6.222   3.818
  182SLPC  H15X20857   3.039   6.223   3.812
  182SLPC  H15Y20858   3.202   6.277   3.737
  182SLPC  C31620859   3.197   6.282   3.954
  182SLPC  H16X20860   3.195   6.198   4.027
  182SLPC  H16Y20861   3.123   6.361   3.980
  182SLPC  C31720862   3.343   6.340   3.950
  182SLPC  H17X20863   3.402   6.280   3.878
  182SLPC  H17Y20864   3.397   6.327   4.046
  182SLPC  C31820865   3.341   6.486   3.906
  182SLPC  H18X20866   3.305   6.555   3.984
  182SLPC  H18Y20867   3.273   6.501   3.819
  182SLPC  H18Z20868   3.442   6.512   3.865
  183SLPC     N20869   5.960   2.620   2.337
  183SLPC   C1320870   6.073   2.574   2.426
  183SLPC  H13A20871   6.144   2.521   2.363
  183SLPC  H13B20872   6.132   2.654   2.470
  183SLPC  H13C20873   6.034   2.501   2.496
  183SLPC   C1420874   5.915   2.513   2.252
  183SLPC  H14A20875   5.996   2.454   2.210
  183SLPC  H14B20876   5.865   2.444   2.318
  183SLPC  H14C20877   5.854   2.544   2.168
  183SLPC   C1520878   6.017   2.737   2.252
  183SLPC  H15A20879   5.936   2.771   2.189
  183SLPC  H15B20880   6.047   2.815   2.320
  183SLPC  H15C20881   6.088   2.687   2.188
  183SLPC   C1220882   5.847   2.684   2.421
  183SLPC  H12A20883   5.890   2.761   2.484
  183SLPC  H12B20884   5.825   2.614   2.500
  183SLPC   C1120885   5.717   2.735   2.351
  183SLPC  H11A20886   5.735   2.809   2.270
  183SLPC  H11B20887   5.668   2.793   2.431
  183SLPC     P20888   5.557   2.537   2.418
  183SLPC   O1320889   5.487   2.633   2.505
  183SLPC   O1420890   5.473   2.430   2.352
  183SLPC   O1220891   5.643   2.615   2.314
  183SLPC   O1120892   5.669   2.464   2.491
  183SLPC    C120893   5.653   2.382   2.612
  183SLPC    HA20894   5.550   2.378   2.651
  183SLPC    HB20895   5.679   2.278   2.583
  183SLPC    C220896   5.733   2.448   2.734
  183SLPC    HS20897   5.673   2.413   2.822
  183SLPC   O2120898   5.738   2.591   2.716
  183SLPC   C2120899   5.681   2.657   2.811
  183SLPC   O2220900   5.635   2.614   2.916
  183SLPC   C2220901   5.695   2.810   2.784
  183SLPC   H2R20902   5.794   2.822   2.733
  183SLPC   H2S20903   5.617   2.839   2.711
  183SLPC    C320904   5.881   2.403   2.734
  183SLPC    HX20905   5.930   2.456   2.650
  183SLPC    HY20906   5.891   2.292   2.732
  183SLPC   O3120907   5.935   2.451   2.857
  183SLPC   C3120908   6.063   2.466   2.865
  183SLPC   O3220909   6.144   2.446   2.777
  183SLPC   C3220910   6.087   2.544   2.993
  183SLPC   H2X20911   6.066   2.644   2.949
  183SLPC   H2Y20912   6.197   2.542   3.010
  183SLPC   C2320913   5.675   2.903   2.905
  183SLPC   H3R20914   5.574   2.883   2.945
  183SLPC   H3S20915   5.672   3.007   2.867
  183SLPC   C2420916   5.783   2.887   3.006
  183SLPC   H4R20917   5.881   2.901   2.957
  183SLPC   H4S20918   5.784   2.786   3.051
  183SLPC   C2520919   5.776   3.002   3.106
  183SLPC   H5R20920   5.676   3.011   3.154
  183SLPC   H5S20921   5.777   3.099   3.051
  183SLPC   C2620922   5.879   2.982   3.224
  183SLPC   H6R20923   5.985   2.969   3.192
  183SLPC   H6S20924   5.848   2.894   3.283
  183SLPC   C2720925   5.879   3.093   3.326
  183SLPC   H7R20926   5.952   3.170   3.295
  183SLPC   H7S20927   5.927   3.042   3.413
  183SLPC   C2820928   5.738   3.155   3.360
  183SLPC   H8R20929   5.671   3.072   3.388
  183SLPC   H8S20930   5.690   3.196   3.268
  183SLPC   C2920931   5.746   3.276   3.453
  183SLPC   H9R20932   5.749   3.371   3.397
  183SLPC  C21020933   5.755   3.276   3.586
  183SLPC  H10R20934   5.774   3.368   3.643
  183SLPC  C21120935   5.768   3.153   3.668
  183SLPC  H11R20936   5.858   3.164   3.732
  183SLPC  H11S20937   5.787   3.054   3.621
  183SLPC  C21220938   5.651   3.150   3.764
  183SLPC  H12R20939   5.569   3.082   3.738
  183SLPC  C21320940   5.644   3.204   3.884
  183SLPC  H13R20941   5.547   3.201   3.935
  183SLPC  C21420942   5.751   3.293   3.954
  183SLPC  H14R20943   5.701   3.382   3.997
  183SLPC  H14S20944   5.820   3.343   3.882
  183SLPC  C21520945   5.833   3.218   4.057
  183SLPC  H15R20946   5.920   3.178   4.000
  183SLPC  H15S20947   5.775   3.129   4.088
  183SLPC  C21620948   5.853   3.297   4.186
  183SLPC  H16R20949   5.876   3.222   4.265
  183SLPC  H16S20950   5.759   3.350   4.209
  183SLPC  C21720951   5.963   3.405   4.175
  183SLPC  H17R20952   5.961   3.454   4.075
  183SLPC  H17S20953   6.058   3.348   4.181
  183SLPC  C21820954   5.949   3.509   4.288
  183SLPC  H18R20955   5.938   3.459   4.387
  183SLPC  H18S20956   5.866   3.580   4.271
  183SLPC  H18T20957   6.039   3.574   4.293
  183SLPC   C3320958   6.002   2.513   3.110
  183SLPC   H3X20959   6.011   2.403   3.120
  183SLPC   H3Y20960   5.892   2.524   3.101
  183SLPC   C3420961   6.048   2.584   3.234
  183SLPC   H4X20962   6.034   2.694   3.236
  183SLPC   H4Y20963   6.159   2.578   3.243
  183SLPC   C3520964   5.978   2.530   3.357
  183SLPC   H5X20965   5.985   2.419   3.356
  183SLPC   H5Y20966   5.873   2.562   3.340
  183SLPC   C3620967   6.021   2.574   3.496
  183SLPC   H6X20968   6.127   2.546   3.514
  183SLPC   H6Y20969   5.956   2.537   3.579
  183SLPC   C3720970   6.033   2.730   3.499
  183SLPC   H7X20971   5.931   2.765   3.472
  183SLPC   H7Y20972   6.104   2.770   3.424
  183SLPC   C3820973   6.075   2.780   3.635
  183SLPC   H8X20974   6.178   2.741   3.653
  183SLPC   H8Y20975   6.016   2.720   3.707
  183SLPC   C3920976   6.092   2.928   3.646
  183SLPC   H9X20977   6.005   2.966   3.588
  183SLPC   H9Y20978   6.183   2.957   3.590
  183SLPC  C31020979   6.091   2.965   3.795
  183SLPC  H10X20980   6.009   2.906   3.841
  183SLPC  H10Y20981   6.073   3.073   3.811
  183SLPC  C31120982   6.215   2.909   3.868
  183SLPC  H11X20983   6.298   2.942   3.803
  183SLPC  H11Y20984   6.202   2.798   3.872
  183SLPC  C31220985   6.215   2.954   4.019
  183SLPC  H12X20986   6.113   2.929   4.053
  183SLPC  H12Y20987   6.224   3.065   4.023
  183SLPC  C31320988   6.332   2.907   4.099
  183SLPC  H13X20989   6.421   2.936   4.039
  183SLPC  H13Y20990   6.332   2.796   4.107
  183SLPC  C31420991   6.341   2.964   4.241
  183SLPC  H14X20992   6.386   3.061   4.211
  183SLPC  H14Y20993   6.407   2.913   4.314
  183SLPC  C31520994   6.211   2.993   4.320
  183SLPC  H15X20995   6.151   2.900   4.330
  183SLPC  H15Y20996   6.148   3.056   4.254
  183SLPC  C31620997   6.227   3.063   4.455
  183SLPC  H16X20998   6.333   3.044   4.483
  183SLPC  H16Y20999   6.159   3.005   4.520
  183SLPC  C31721000   6.197   3.212   4.453
  183SLPC  H17X21001   6.099   3.230   4.404
  183SLPC  H17Y21002   6.264   3.268   4.385
  183SLPC  C31821003   6.193   3.268   4.596
  183SLPC  H18X21004   6.106   3.216   4.642
  183SLPC  H18Y21005   6.172   3.377   4.588
  183SLPC  H18Z21006   6.280   3.241   4.659
  184SLPC     N21007   6.381   1.441   1.765
  184SLPC   C1321008   6.295   1.325   1.712
  184SLPC  H13A21009   6.317   1.305   1.609
  184SLPC  H13B21010   6.319   1.240   1.774
  184SLPC  H13C21011   6.189   1.346   1.718
  184SLPC   C1421012   6.348   1.556   1.685
  184SLPC  H14A21013   6.375   1.553   1.581
  184SLPC  H14B21014   6.241   1.575   1.685
  184SLPC  H14C21015   6.400   1.641   1.725
  184SLPC   C1521016   6.523   1.405   1.753
  184SLPC  H15A21017   6.543   1.316   1.811
  184SLPC  H15B21018   6.545   1.379   1.651
  184SLPC  H15C21019   6.584   1.487   1.787
  184SLPC   C1221020   6.355   1.473   1.915
  184SLPC  H12A21021   6.353   1.383   1.973
  184SLPC  H12B21022   6.257   1.518   1.924
  184SLPC   C1121023   6.448   1.570   1.998
  184SLPC  H11A21024   6.547   1.522   2.014
  184SLPC  H11B21025   6.403   1.569   2.100
  184SLPC     P21026   6.340   1.811   1.969
  184SLPC   O1321027   6.387   1.941   1.911
  184SLPC   O1421028   6.219   1.749   1.907
  184SLPC   O1221029   6.452   1.703   1.950
  184SLPC   O1121030   6.324   1.824   2.126
  184SLPC    C121031   6.440   1.833   2.210
  184SLPC    HA21032   6.498   1.740   2.190
  184SLPC    HB21033   6.506   1.916   2.177
  184SLPC    C221034   6.394   1.851   2.353
  184SLPC    HS21035   6.484   1.837   2.417
  184SLPC   O2121036   6.301   1.761   2.402
  184SLPC   C2121037   6.326   1.630   2.407
  184SLPC   O2221038   6.427   1.578   2.375
  184SLPC   C2221039   6.205   1.568   2.474
  184SLPC   H2R21040   6.132   1.640   2.516
  184SLPC   H2S21041   6.159   1.487   2.412
  184SLPC    C321042   6.334   1.996   2.352
  184SLPC    HX21043   6.266   1.989   2.264
  184SLPC    HY21044   6.420   2.054   2.312
  184SLPC   O3121045   6.277   2.041   2.478
  184SLPC   C3121046   6.376   2.076   2.558
  184SLPC   O3221047   6.498   2.061   2.531
  184SLPC   C3221048   6.331   2.125   2.694
  184SLPC   H2X21049   6.291   2.228   2.683
  184SLPC   H2Y21050   6.419   2.119   2.762
  184SLPC   C2321051   6.259   1.478   2.592
  184SLPC   H3R21052   6.315   1.389   2.555
  184SLPC   H3S21053   6.174   1.427   2.641
  184SLPC   C2421054   6.347   1.550   2.695
  184SLPC   H4R21055   6.268   1.619   2.734
  184SLPC   H4S21056   6.428   1.606   2.644
  184SLPC   C2521057   6.406   1.449   2.788
  184SLPC   H5R21058   6.443   1.365   2.726
  184SLPC   H5S21059   6.314   1.408   2.836
  184SLPC   C2621060   6.514   1.500   2.899
  184SLPC   H6R21061   6.610   1.518   2.847
  184SLPC   H6S21062   6.527   1.416   2.971
  184SLPC   C2721063   6.471   1.622   2.975
  184SLPC   H7R21064   6.363   1.611   2.999
  184SLPC   H7S21065   6.471   1.709   2.907
  184SLPC   C2821066   6.557   1.654   3.096
  184SLPC   H8R21067   6.665   1.648   3.070
  184SLPC   H8S21068   6.549   1.570   3.167
  184SLPC   C2921069   6.508   1.781   3.160
  184SLPC   H9R21070   6.473   1.854   3.086
  184SLPC  C21021071   6.529   1.828   3.284
  184SLPC  H10R21072   6.450   1.902   3.303
  184SLPC  C21121073   6.596   1.754   3.397
  184SLPC  H11R21074   6.656   1.822   3.462
  184SLPC  H11S21075   6.661   1.671   3.362
  184SLPC  C21221076   6.475   1.694   3.468
  184SLPC  H12R21077   6.446   1.599   3.421
  184SLPC  C21321078   6.402   1.751   3.561
  184SLPC  H13R21079   6.337   1.683   3.619
  184SLPC  C21421080   6.425   1.881   3.622
  184SLPC  H14R21081   6.391   1.957   3.548
  184SLPC  H14S21082   6.534   1.892   3.642
  184SLPC  C21521083   6.350   1.903   3.754
  184SLPC  H15R21084   6.244   1.874   3.762
  184SLPC  H15S21085   6.368   2.012   3.766
  184SLPC  C21621086   6.415   1.836   3.881
  184SLPC  H16R21087   6.496   1.905   3.912
  184SLPC  H16S21088   6.452   1.735   3.854
  184SLPC  C21721089   6.318   1.839   4.003
  184SLPC  H17R21090   6.228   1.777   3.984
  184SLPC  H17S21091   6.293   1.945   4.022
  184SLPC  C21821092   6.389   1.785   4.129
  184SLPC  H18R21093   6.421   1.678   4.126
  184SLPC  H18S21094   6.314   1.788   4.211
  184SLPC  H18T21095   6.472   1.849   4.165
  184SLPC   C3321096   6.223   2.026   2.742
  184SLPC   H3X21097   6.234   1.931   2.685
  184SLPC   H3Y21098   6.119   2.059   2.721
  184SLPC   C3421099   6.247   2.003   2.890
  184SLPC   H4X21100   6.352   1.968   2.905
  184SLPC   H4Y21101   6.175   1.932   2.936
  184SLPC   C3521102   6.236   2.128   2.977
  184SLPC   H5X21103   6.133   2.166   2.960
  184SLPC   H5Y21104   6.304   2.207   2.938
  184SLPC   C3621105   6.256   2.102   3.126
  184SLPC   H6X21106   6.367   2.096   3.130
  184SLPC   H6Y21107   6.201   2.008   3.146
  184SLPC   C3721108   6.219   2.211   3.230
  184SLPC   H7X21109   6.109   2.212   3.245
  184SLPC   H7Y21110   6.272   2.305   3.204
  184SLPC   C3821111   6.284   2.182   3.367
  184SLPC   H8X21112   6.394   2.179   3.351
  184SLPC   H8Y21113   6.253   2.081   3.401
  184SLPC   C3921114   6.247   2.287   3.479
  184SLPC   H9X21115   6.137   2.302   3.477
  184SLPC   H9Y21116   6.292   2.385   3.451
  184SLPC  C31021117   6.272   2.239   3.625
  184SLPC  H10X21118   6.373   2.268   3.660
  184SLPC  H10Y21119   6.241   2.134   3.643
  184SLPC  C31121120   6.183   2.314   3.722
  184SLPC  H11X21121   6.074   2.301   3.705
  184SLPC  H11Y21122   6.195   2.424   3.707
  184SLPC  C31221123   6.219   2.292   3.870
  184SLPC  H12X21124   6.326   2.323   3.874
  184SLPC  H12Y21125   6.212   2.183   3.892
  184SLPC  C31321126   6.129   2.369   3.960
  184SLPC  H13X21127   6.026   2.338   3.931
  184SLPC  H13Y21128   6.134   2.480   3.953
  184SLPC  C31421129   6.151   2.337   4.113
  184SLPC  H14X21130   6.252   2.376   4.139
  184SLPC  H14Y21131   6.156   2.227   4.125
  184SLPC  C31521132   6.050   2.413   4.206
  184SLPC  H15X21133   6.054   2.522   4.186
  184SLPC  H15Y21134   6.086   2.392   4.309
  184SLPC  C31621135   5.902   2.373   4.184
  184SLPC  H16X21136   5.883   2.379   4.074
  184SLPC  H16Y21137   5.829   2.441   4.232
  184SLPC  C31721138   5.861   2.231   4.232
  184SLPC  H17X21139   5.876   2.226   4.342
  184SLPC  H17Y21140   5.927   2.160   4.178
  184SLPC  C31821141   5.713   2.195   4.217
  184SLPC  H18X21142   5.651   2.267   4.274
  184SLPC  H18Y21143   5.697   2.092   4.255
  184SLPC  H18Z21144   5.662   2.197   4.118
  185POPC     N21145   1.899   6.050   6.379
  185POPC   C1221146   1.756   6.081   6.429
  185POPC  H12A21147   1.707   6.134   6.349
  185POPC  H12B21148   1.763   6.145   6.516
  185POPC   C1321149   1.903   5.930   6.298
  185POPC  H13A21150   2.001   5.889   6.284
  185POPC  H13B21151   1.828   5.869   6.346
  185POPC  H13C21152   1.861   5.952   6.201
  185POPC   C1421153   1.953   6.171   6.301
  185POPC  H14A21154   2.060   6.161   6.298
  185POPC  H14B21155   1.918   6.191   6.201
  185POPC  H14C21156   1.934   6.261   6.357
  185POPC   C1521157   1.977   6.037   6.506
  185POPC  H15A21158   2.083   6.024   6.492
  185POPC  H15B21159   1.935   5.954   6.562
  185POPC  H15C21160   1.962   6.118   6.576
  185POPC   C1121161   1.656   5.966   6.464
  185POPC  H11A21162   1.566   6.015   6.508
  185POPC  H11B21163   1.704   5.899   6.538
  185POPC     P21164   1.573   5.745   6.357
  185POPC   O1321165   1.478   5.738   6.468
  185POPC   O1421166   1.692   5.658   6.358
  185POPC   O1221167   1.619   5.896   6.346
  185POPC   O1121168   1.503   5.724   6.222
  185POPC    C121169   1.573   5.735   6.097
  185POPC    HA21170   1.662   5.670   6.105
  185POPC    HB21171   1.615   5.838   6.090
  185POPC    C221172   1.485   5.693   5.975
  185POPC    HS21173   1.382   5.735   5.976
  185POPC   O2121174   1.469   5.551   5.977
  185POPC   C2121175   1.373   5.496   6.052
  185POPC   O2221176   1.292   5.564   6.113
  185POPC   C2221177   1.376   5.344   6.050
  185POPC   H2R21178   1.323   5.316   6.143
  185POPC   H2S21179   1.485   5.320   6.051
  185POPC    C321180   1.555   5.728   5.839
  185POPC    HX21181   1.508   5.665   5.760
  185POPC    HY21182   1.663   5.700   5.844
  185POPC   O3121183   1.535   5.868   5.805
  185POPC   C3121184   1.643   5.948   5.842
  185POPC   O3221185   1.738   5.906   5.903
  185POPC   C3221186   1.624   6.092   5.798
  185POPC   H2X21187   1.722   6.135   5.769
  185POPC   H2Y21188   1.581   6.147   5.885
  185POPC   C2321189   1.295   5.295   5.931
  185POPC   H3R21190   1.250   5.389   5.891
  185POPC   H3S21191   1.200   5.247   5.962
  185POPC   C2421192   1.360   5.227   5.817
  185POPC   H4R21193   1.285   5.176   5.753
  185POPC   H4S21194   1.423   5.139   5.844
  185POPC   C2521195   1.443   5.328   5.740
  185POPC   H5R21196   1.508   5.388   5.808
  185POPC   H5S21197   1.367   5.395   5.694
  185POPC   C2621198   1.531   5.253   5.638
  185POPC   H6R21199   1.460   5.225   5.557
  185POPC   H6S21200   1.583   5.161   5.674
  185POPC   C2721201   1.642   5.339   5.566
  185POPC   H7R21202   1.712   5.273   5.511
  185POPC   H7S21203   1.699   5.394   5.644
  185POPC   C2821204   1.584   5.452   5.483
  185POPC   H8R21205   1.510   5.506   5.546
  185POPC   H8S21206   1.531   5.397   5.402
  185POPC   C2921207   1.687   5.546   5.427
  185POPC   H9121208   1.765   5.574   5.500
  185POPC  C21021209   1.699   5.598   5.303
  185POPC  H10121210   1.772   5.679   5.289
  185POPC  C21121211   1.612   5.577   5.181
  185POPC  H11R21212   1.611   5.664   5.112
  185POPC  H11S21213   1.507   5.560   5.210
  185POPC  C21221214   1.661   5.458   5.095
  185POPC  H12R21215   1.627   5.359   5.133
  185POPC  H12S21216   1.771   5.459   5.080
  185POPC  C21321217   1.623   5.481   4.945
  185POPC  H13R21218   1.639   5.585   4.910
  185POPC  H13S21219   1.514   5.461   4.935
  185POPC  C21421220   1.694   5.379   4.852
  185POPC  H14R21221   1.800   5.400   4.877
  185POPC  H14S21222   1.677   5.415   4.748
  185POPC  C21521223   1.650   5.234   4.861
  185POPC  H15R21224   1.654   5.185   4.961
  185POPC  H15S21225   1.723   5.175   4.801
  185POPC  C21621226   1.510   5.212   4.809
  185POPC  H16R21227   1.496   5.237   4.702
  185POPC  H16S21228   1.441   5.274   4.871
  185POPC  C21721229   1.452   5.075   4.848
  185POPC  H17R21230   1.485   5.050   4.951
  185POPC  H17S21231   1.478   4.990   4.781
  185POPC  C21821232   1.293   5.067   4.842
  185POPC  H18R21233   1.263   5.073   4.736
  185POPC  H18S21234   1.250   5.147   4.906
  185POPC  H18T21235   1.253   4.970   4.879
  185POPC   C3321236   1.546   6.114   5.672
  185POPC   H3X21237   1.536   6.223   5.651
  185POPC   H3Y21238   1.446   6.068   5.681
  185POPC   C3421239   1.616   6.041   5.556
  185POPC   H4X21240   1.564   5.943   5.556
  185POPC   H4Y21241   1.722   6.022   5.584
  185POPC   C3521242   1.592   6.109   5.419
  185POPC   H5X21243   1.615   6.217   5.417
  185POPC   H5Y21244   1.486   6.091   5.393
  185POPC   C3621245   1.676   6.043   5.313
  185POPC   H6X21246   1.667   5.933   5.327
  185POPC   H6Y21247   1.782   6.072   5.332
  185POPC   C3721248   1.634   6.085   5.169
  185POPC   H7X21249   1.698   6.168   5.132
  185POPC   H7Y21250   1.533   6.130   5.160
  185POPC   C3821251   1.649   5.959   5.078
  185POPC   H8X21252   1.583   5.882   5.125
  185POPC   H8Y21253   1.753   5.922   5.075
  185POPC   C3921254   1.624   5.996   4.930
  185POPC   H9X21255   1.699   6.071   4.896
  185POPC   H9Y21256   1.527   6.049   4.917
  185POPC  C31021257   1.640   5.878   4.831
  185POPC  H10X21258   1.551   5.813   4.830
  185POPC  H10Y21259   1.727   5.815   4.861
  185POPC  C31121260   1.651   5.923   4.674
  185POPC  H11X21261   1.739   5.991   4.670
  185POPC  H11Y21262   1.560   5.973   4.635
  185POPC  C31221263   1.677   5.794   4.593
  185POPC  H12X21264   1.594   5.720   4.593
  185POPC  H12Y21265   1.773   5.748   4.624
  185POPC  C31321266   1.687   5.830   4.441
  185POPC  H13X21267   1.599   5.888   4.405
  185POPC  H13Y21268   1.689   5.738   4.378
  185POPC  C31421269   1.787   5.925   4.387
  185POPC  H14X21270   1.776   6.034   4.405
  185POPC  H14Y21271   1.781   5.917   4.277
  185POPC  C31521272   1.932   5.872   4.409
  185POPC  H15X21273   1.931   5.766   4.378
  185POPC  H15Y21274   1.965   5.879   4.515
  185POPC  C31621275   2.037   5.951   4.328
  185POPC  H16X21276   1.990   6.014   4.249
  185POPC  H16Y21277   2.110   5.878   4.287
  185POPC  H16Z21278   2.092   6.019   4.397
  186POPC     N21279   3.804   5.495   6.874
  186POPC   C1221280   3.763   5.502   6.723
  186POPC  H12A21281   3.776   5.605   6.694
  186POPC  H12B21282   3.660   5.481   6.701
  186POPC   C1321283   3.853   5.360   6.911
  186POPC  H13A21284   3.777   5.283   6.903
  186POPC  H13B21285   3.933   5.336   6.842
  186POPC  H13C21286   3.890   5.360   7.012
  186POPC   C1421287   3.919   5.592   6.893
  186POPC  H14A21288   3.992   5.556   6.823
  186POPC  H14B21289   3.893   5.687   6.850
  186POPC  H14C21290   3.968   5.606   6.988
  186POPC   C1521291   3.686   5.529   6.960
  186POPC  H15A21292   3.710   5.520   7.065
  186POPC  H15B21293   3.595   5.474   6.944
  186POPC  H15C21294   3.657   5.632   6.943
  186POPC   C1121295   3.839   5.430   6.611
  186POPC  H11A21296   3.795   5.442   6.509
  186POPC  H11B21297   3.825   5.323   6.640
  186POPC     P21298   4.050   5.563   6.535
  186POPC   O1321299   4.175   5.510   6.471
  186POPC   O1421300   4.061   5.681   6.619
  186POPC   O1221301   3.985   5.446   6.620
  186POPC   O1121302   3.946   5.602   6.425
  186POPC    C121303   3.991   5.673   6.309
  186POPC    HA21304   4.099   5.661   6.285
  186POPC    HB21305   3.965   5.781   6.317
  186POPC    C221306   3.919   5.620   6.179
  186POPC    HS21307   3.809   5.631   6.190
  186POPC   O2121308   3.954   5.488   6.141
  186POPC   C2121309   3.854   5.411   6.099
  186POPC   O2221310   3.743   5.452   6.081
  186POPC   C2221311   3.900   5.265   6.082
  186POPC   H2R21312   3.942   5.243   6.183
  186POPC   H2S21313   3.976   5.268   6.001
  186POPC    C321314   3.976   5.709   6.065
  186POPC    HX21315   4.087   5.714   6.060
  186POPC    HY21316   3.956   5.814   6.095
  186POPC   O3121317   3.924   5.669   5.930
  186POPC   C3121318   3.878   5.775   5.861
  186POPC   O3221319   3.901   5.888   5.894
  186POPC   C3221320   3.803   5.738   5.732
  186POPC   H2X21321   3.708   5.795   5.725
  186POPC   H2Y21322   3.780   5.629   5.735
  186POPC   C2321323   3.802   5.164   6.031
  186POPC   H3R21324   3.731   5.137   6.112
  186POPC   H3S21325   3.853   5.068   6.008
  186POPC   C2421326   3.730   5.201   5.899
  186POPC   H4R21327   3.674   5.297   5.905
  186POPC   H4S21328   3.649   5.127   5.882
  186POPC   C2521329   3.816   5.218   5.772
  186POPC   H5R21330   3.886   5.132   5.763
  186POPC   H5S21331   3.873   5.313   5.770
  186POPC   C2621332   3.731   5.214   5.646
  186POPC   H6R21333   3.647   5.286   5.658
  186POPC   H6S21334   3.687   5.112   5.638
  186POPC   C2721335   3.820   5.256   5.522
  186POPC   H7R21336   3.912   5.194   5.522
  186POPC   H7S21337   3.862   5.359   5.530
  186POPC   C2821338   3.760   5.230   5.389
  186POPC   H8R21339   3.710   5.131   5.395
  186POPC   H8S21340   3.836   5.216   5.309
  186POPC   C2921341   3.656   5.341   5.347
  186POPC   H9121342   3.669   5.438   5.398
  186POPC  C21021343   3.556   5.339   5.257
  186POPC  H10121344   3.495   5.427   5.232
  186POPC  C21121345   3.522   5.219   5.176
  186POPC  H11R21346   3.468   5.148   5.242
  186POPC  H11S21347   3.610   5.157   5.152
  186POPC  C21221348   3.432   5.248   5.056
  186POPC  H12R21349   3.338   5.296   5.091
  186POPC  H12S21350   3.398   5.154   5.008
  186POPC  C21321351   3.499   5.326   4.944
  186POPC  H13R21352   3.601   5.287   4.923
  186POPC  H13S21353   3.510   5.429   4.984
  186POPC  C21421354   3.418   5.324   4.812
  186POPC  H14R21355   3.433   5.417   4.754
  186POPC  H14S21356   3.313   5.302   4.843
  186POPC  C21521357   3.466   5.204   4.726
  186POPC  H15R21358   3.483   5.116   4.792
  186POPC  H15S21359   3.569   5.227   4.693
  186POPC  C21621360   3.372   5.176   4.611
  186POPC  H16R21361   3.274   5.156   4.658
  186POPC  H16S21362   3.396   5.078   4.564
  186POPC  C21721363   3.366   5.291   4.515
  186POPC  H17R21364   3.463   5.310   4.464
  186POPC  H17S21365   3.350   5.382   4.577
  186POPC  C21821366   3.265   5.274   4.398
  186POPC  H18R21367   3.311   5.232   4.306
  186POPC  H18S21368   3.234   5.378   4.374
  186POPC  H18T21369   3.183   5.211   4.437
  186POPC   C3321370   3.890   5.777   5.605
  186POPC   H3X21371   3.992   5.734   5.612
  186POPC   H3Y21372   3.904   5.887   5.603
  186POPC   C3421373   3.825   5.718   5.477
  186POPC   H4X21374   3.724   5.763   5.474
  186POPC   H4Y21375   3.804   5.610   5.492
  186POPC   C3521376   3.890   5.743   5.340
  186POPC   H5X21377   3.995   5.707   5.346
  186POPC   H5Y21378   3.888   5.849   5.308
  186POPC   C3621379   3.819   5.658   5.230
  186POPC   H6X21380   3.710   5.679   5.235
  186POPC   H6Y21381   3.839   5.550   5.246
  186POPC   C3721382   3.868   5.692   5.093
  186POPC   H7X21383   3.975   5.664   5.083
  186POPC   H7Y21384   3.857   5.802   5.080
  186POPC   C3821385   3.800   5.634   4.976
  186POPC   H8X21386   3.690   5.640   4.985
  186POPC   H8Y21387   3.816   5.525   4.987
  186POPC   C3921388   3.851   5.671   4.833
  186POPC   H9X21389   3.796   5.596   4.772
  186POPC   H9Y21390   3.959   5.677   4.807
  186POPC  C31021391   3.819   5.819   4.800
  186POPC  H10X21392   3.888   5.890   4.852
  186POPC  H10Y21393   3.721   5.838   4.847
  186POPC  C31121394   3.815   5.868   4.659
  186POPC  H11X21395   3.902   5.829   4.602
  186POPC  H11Y21396   3.821   5.979   4.653
  186POPC  C31221397   3.674   5.828   4.603
  186POPC  H12X21398   3.601   5.907   4.633
  186POPC  H12Y21399   3.639   5.730   4.641
  186POPC  C31321400   3.661   5.828   4.448
  186POPC  H13X21401   3.744   5.768   4.405
  186POPC  H13Y21402   3.673   5.932   4.410
  186POPC  C31421403   3.525   5.775   4.398
  186POPC  H14X21404   3.450   5.848   4.436
  186POPC  H14Y21405   3.514   5.676   4.447
  186POPC  C31521406   3.522   5.764   4.244
  186POPC  H15X21407   3.428   5.714   4.211
  186POPC  H15Y21408   3.612   5.707   4.213
  186POPC  C31621409   3.516   5.901   4.163
  186POPC  H16X21410   3.620   5.932   4.138
  186POPC  H16Y21411   3.452   5.971   4.221
  186POPC  H16Z21412   3.467   5.881   4.065
  187POPC     N21413   6.633   5.320   2.305
  187POPC   C1221414   6.497   5.379   2.268
  187POPC  H12A21415   6.496   5.484   2.293
  187POPC  H12B21416   6.430   5.334   2.340
  187POPC   C1321417   6.614   5.179   2.353
  187POPC  H13A21418   6.712   5.152   2.389
  187POPC  H13B21419   6.546   5.175   2.437
  187POPC  H13C21420   6.580   5.122   2.268
  187POPC   C1421421   6.730   5.316   2.183
  187POPC  H14A21422   6.824   5.271   2.211
  187POPC  H14B21423   6.682   5.260   2.104
  187POPC  H14C21424   6.755   5.417   2.154
  187POPC   C1521425   6.694   5.386   2.432
  187POPC  H15A21426   6.629   5.386   2.518
  187POPC  H15B21427   6.722   5.485   2.398
  187POPC  H15C21428   6.793   5.348   2.452
  187POPC   C1121429   6.445   5.357   2.129
  187POPC  H11A21430   6.516   5.397   2.054
  187POPC  H11B21431   6.360   5.427   2.112
  187POPC     P21432   6.272   5.154   2.147
  187POPC   O1321433   6.283   5.011   2.176
  187POPC   O1421434   6.173   5.192   2.050
  187POPC   O1221435   6.413   5.214   2.112
  187POPC   O1121436   6.245   5.227   2.282
  187POPC    C121437   6.191   5.162   2.393
  187POPC    HA21438   6.232   5.060   2.414
  187POPC    HB21439   6.083   5.154   2.369
  187POPC    C221440   6.208   5.239   2.520
  187POPC    HS21441   6.314   5.251   2.550
  187POPC   O2121442   6.127   5.197   2.636
  187POPC   C2121443   6.159   5.076   2.685
  187POPC   O2221444   6.248   5.004   2.658
  187POPC   C2221445   6.048   5.034   2.784
  187POPC   H2R21446   5.957   5.011   2.725
  187POPC   H2S21447   6.021   5.118   2.852
  187POPC    C321448   6.154   5.380   2.493
  187POPC    HX21449   6.057   5.370   2.440
  187POPC    HY21450   6.223   5.432   2.423
  187POPC   O3121451   6.141   5.467   2.609
  187POPC   C3121452   6.026   5.511   2.645
  187POPC   O3221453   5.918   5.472   2.596
  187POPC   C3221454   6.038   5.605   2.763
  187POPC   H2X21455   6.093   5.687   2.711
  187POPC   H2Y21456   6.090   5.558   2.849
  187POPC   C2321457   6.068   4.893   2.855
  187POPC   H3R21458   6.172   4.869   2.886
  187POPC   H3S21459   6.050   4.830   2.765
  187POPC   C2421460   5.950   4.864   2.948
  187POPC   H4R21461   5.926   4.756   2.954
  187POPC   H4S21462   5.859   4.904   2.899
  187POPC   C2521463   5.970   4.917   3.087
  187POPC   H5R21464   5.984   5.026   3.072
  187POPC   H5S21465   6.062   4.875   3.132
  187POPC   C2621466   5.848   4.891   3.176
  187POPC   H6R21467   5.819   4.784   3.174
  187POPC   H6S21468   5.765   4.942   3.122
  187POPC   C2721469   5.863   4.958   3.310
  187POPC   H7R21470   5.870   5.066   3.284
  187POPC   H7S21471   5.953   4.930   3.369
  187POPC   C2821472   5.731   4.940   3.398
  187POPC   H8R21473   5.731   4.832   3.424
  187POPC   H8S21474   5.639   4.945   3.337
  187POPC   C2921475   5.720   5.017   3.524
  187POPC   H9121476   5.696   5.122   3.506
  187POPC  C21021477   5.712   4.967   3.648
  187POPC  H10121478   5.704   5.042   3.729
  187POPC  C21121479   5.732   4.824   3.694
  187POPC  H11R21480   5.768   4.749   3.620
  187POPC  H11S21481   5.639   4.790   3.745
  187POPC  C21221482   5.831   4.794   3.814
  187POPC  H12R21483   5.929   4.814   3.766
  187POPC  H12S21484   5.819   4.687   3.841
  187POPC  C21321485   5.819   4.882   3.939
  187POPC  H13R21486   5.842   4.987   3.913
  187POPC  H13S21487   5.886   4.839   4.017
  187POPC  C21421488   5.683   4.858   4.010
  187POPC  H14R21489   5.662   4.749   4.002
  187POPC  H14S21490   5.596   4.897   3.952
  187POPC  C21521491   5.690   4.891   4.162
  187POPC  H15R21492   5.756   4.809   4.195
  187POPC  H15S21493   5.588   4.888   4.206
  187POPC  C21621494   5.753   5.025   4.195
  187POPC  H16R21495   5.703   5.107   4.139
  187POPC  H16S21496   5.863   5.031   4.177
  187POPC  C21721497   5.737   5.069   4.344
  187POPC  H17R21498   5.800   4.995   4.398
  187POPC  H17S21499   5.633   5.067   4.382
  187POPC  C21821500   5.819   5.198   4.374
  187POPC  H18R21501   5.814   5.233   4.479
  187POPC  H18S21502   5.774   5.284   4.318
  187POPC  H18T21503   5.922   5.180   4.337
  187POPC   C3321504   5.898   5.646   2.819
  187POPC   H3X21505   5.837   5.560   2.851
  187POPC   H3Y21506   5.836   5.691   2.739
  187POPC   C3421507   5.914   5.744   2.939
  187POPC   H4X21508   5.986   5.821   2.905
  187POPC   H4Y21509   5.974   5.699   3.022
  187POPC   C3521510   5.787   5.811   2.990
  187POPC   H5X21511   5.703   5.739   3.000
  187POPC   H5Y21512   5.758   5.876   2.904
  187POPC   C3621513   5.804   5.898   3.114
  187POPC   H6X21514   5.717   5.967   3.108
  187POPC   H6Y21515   5.895   5.961   3.120
  187POPC   C3721516   5.788   5.808   3.243
  187POPC   H7X21517   5.871   5.734   3.248
  187POPC   H7Y21518   5.693   5.753   3.229
  187POPC   C3821519   5.775   5.900   3.366
  187POPC   H8X21520   5.708   5.986   3.344
  187POPC   H8Y21521   5.871   5.955   3.372
  187POPC   C3921522   5.731   5.843   3.502
  187POPC   H9X21523   5.818   5.797   3.553
  187POPC   H9Y21524   5.654   5.764   3.490
  187POPC  C31021525   5.689   5.947   3.607
  187POPC  H10X21526   5.580   5.933   3.622
  187POPC  H10Y21527   5.704   6.050   3.567
  187POPC  C31121528   5.753   5.936   3.745
  187POPC  H11X21529   5.719   6.026   3.802
  187POPC  H11Y21530   5.862   5.955   3.746
  187POPC  C31221531   5.725   5.803   3.814
  187POPC  H12X21532   5.747   5.714   3.750
  187POPC  H12Y21533   5.618   5.793   3.841
  187POPC  C31321534   5.801   5.784   3.946
  187POPC  H13X21535   5.909   5.783   3.920
  187POPC  H13Y21536   5.769   5.681   3.972
  187POPC  C31421537   5.764   5.886   4.054
  187POPC  H14X21538   5.657   5.897   4.080
  187POPC  H14Y21539   5.801   5.986   4.024
  187POPC  C31521540   5.841   5.842   4.179
  187POPC  H15X21541   5.941   5.802   4.152
  187POPC  H15Y21542   5.776   5.761   4.220
  187POPC  C31621543   5.862   5.951   4.281
  187POPC  H16X21544   5.932   6.020   4.228
  187POPC  H16Y21545   5.916   5.915   4.371
  187POPC  H16Z21546   5.769   6.004   4.310
  188POPC     N21547   5.374   4.735   1.542
  188POPC   C1221548   5.250   4.806   1.601
  188POPC  H12A21549   5.232   4.794   1.707
  188POPC  H12B21550   5.167   4.751   1.560
  188POPC   C1321551   5.385   4.760   1.397
  188POPC  H13A21552   5.304   4.711   1.345
  188POPC  H13B21553   5.373   4.865   1.374
  188POPC  H13C21554   5.471   4.711   1.354
  188POPC   C1421555   5.499   4.791   1.604
  188POPC  H14A21556   5.485   4.898   1.598
  188POPC  H14B21557   5.502   4.774   1.711
  188POPC  H14C21558   5.595   4.760   1.566
  188POPC   C1521559   5.374   4.587   1.570
  188POPC  H15A21560   5.310   4.518   1.517
  188POPC  H15B21561   5.364   4.585   1.678
  188POPC  H15C21562   5.473   4.545   1.566
  188POPC   C1121563   5.232   4.954   1.563
  188POPC  H11A21564   5.134   4.985   1.607
  188POPC  H11B21565   5.231   4.966   1.452
  188POPC     P21566   5.316   5.086   1.768
  188POPC   O1321567   5.217   5.192   1.773
  188POPC   O1421568   5.451   5.115   1.812
  188POPC   O1221569   5.337   5.031   1.617
  188POPC   O1121570   5.262   4.962   1.847
  188POPC    C121571   5.141   4.978   1.924
  188POPC    HA21572   5.119   4.878   1.966
  188POPC    HB21573   5.056   5.009   1.860
  188POPC    C221574   5.138   5.055   2.055
  188POPC    HS21575   5.153   5.163   2.031
  188POPC   O2121576   5.228   5.004   2.160
  188POPC   C2121577   5.264   5.101   2.248
  188POPC   O2221578   5.237   5.218   2.235
  188POPC   C2221579   5.326   5.034   2.373
  188POPC   H2R21580   5.424   4.991   2.344
  188POPC   H2S21581   5.259   4.951   2.402
  188POPC    C321582   4.994   5.037   2.108
  188POPC    HX21583   4.970   4.928   2.113
  188POPC    HY21584   4.920   5.069   2.032
  188POPC   O3121585   4.974   5.095   2.241
  188POPC   C3121586   4.918   5.208   2.234
  188POPC   O3221587   4.878   5.268   2.134
  188POPC   C3221588   4.918   5.274   2.373
  188POPC   H2X21589   4.845   5.357   2.360
  188POPC   H2Y21590   5.018   5.321   2.381
  188POPC   C2321591   5.343   5.143   2.482
  188POPC   H3R21592   5.254   5.206   2.503
  188POPC   H3S21593   5.403   5.222   2.432
  188POPC   C2421594   5.410   5.092   2.613
  188POPC   H4R21595   5.464   5.177   2.661
  188POPC   H4S21596   5.496   5.030   2.579
  188POPC   C2521597   5.307   5.028   2.700
  188POPC   H5R21598   5.275   4.927   2.665
  188POPC   H5S21599   5.220   5.093   2.679
  188POPC   C2621600   5.334   5.014   2.853
  188POPC   H6R21601   5.231   5.003   2.894
  188POPC   H6S21602   5.370   5.113   2.888
  188POPC   C2721603   5.432   4.906   2.888
  188POPC   H7R21604   5.530   4.926   2.840
  188POPC   H7S21605   5.394   4.812   2.843
  188POPC   C2821606   5.450   4.883   3.036
  188POPC   H8R21607   5.476   4.975   3.093
  188POPC   H8S21608   5.539   4.820   3.053
  188POPC   C2921609   5.339   4.807   3.090
  188POPC   H9121610   5.330   4.706   3.048
  188POPC  C21021611   5.263   4.844   3.199
  188POPC  H10121612   5.178   4.777   3.220
  188POPC  C21121613   5.272   4.980   3.271
  188POPC  H11R21614   5.216   5.057   3.213
  188POPC  H11S21615   5.380   5.004   3.273
  188POPC  C21221616   5.198   4.970   3.401
  188POPC  H12R21617   5.099   4.922   3.388
  188POPC  H12S21618   5.178   5.074   3.436
  188POPC  C21321619   5.284   4.891   3.504
  188POPC  H13R21620   5.386   4.936   3.510
  188POPC  H13S21621   5.287   4.791   3.456
  188POPC  C21421622   5.219   4.875   3.648
  188POPC  H14R21623   5.111   4.847   3.645
  188POPC  H14S21624   5.215   4.968   3.709
  188POPC  C21521625   5.285   4.765   3.730
  188POPC  H15R21626   5.392   4.773   3.703
  188POPC  H15S21627   5.269   4.664   3.686
  188POPC  C21621628   5.264   4.783   3.878
  188POPC  H16R21629   5.159   4.752   3.901
  188POPC  H16S21630   5.270   4.889   3.910
  188POPC  C21721631   5.361   4.700   3.966
  188POPC  H17R21632   5.467   4.717   3.936
  188POPC  H17S21633   5.342   4.592   3.950
  188POPC  C21821634   5.346   4.728   4.119
  188POPC  H18R21635   5.401   4.658   4.186
  188POPC  H18S21636   5.244   4.705   4.156
  188POPC  H18T21637   5.376   4.831   4.147
  188POPC   C3321638   4.886   5.186   2.502
  188POPC   H3X21639   4.957   5.101   2.492
  188POPC   H3Y21640   4.782   5.146   2.509
  188POPC   C3421641   4.934   5.253   2.636
  188POPC   H4X21642   4.866   5.338   2.657
  188POPC   H4Y21643   5.032   5.300   2.612
  188POPC   C3521644   4.944   5.159   2.755
  188POPC   H5X21645   5.003   5.068   2.730
  188POPC   H5Y21646   4.838   5.137   2.778
  188POPC   C3621647   5.010   5.236   2.876
  188POPC   H6X21648   4.978   5.343   2.871
  188POPC   H6Y21649   5.121   5.236   2.866
  188POPC   C3721650   4.973   5.186   3.019
  188POPC   H7X21651   5.043   5.108   3.054
  188POPC   H7Y21652   4.877   5.130   3.019
  188POPC   C3821653   4.957   5.300   3.123
  188POPC   H8X21654   4.859   5.349   3.109
  188POPC   H8Y21655   5.034   5.374   3.092
  188POPC   C3921656   4.950   5.258   3.273
  188POPC   H9X21657   5.043   5.205   3.299
  188POPC   H9Y21658   4.871   5.181   3.284
  188POPC  C31021659   4.926   5.369   3.375
  188POPC  H10X21660   4.819   5.388   3.354
  188POPC  H10Y21661   4.989   5.458   3.351
  188POPC  C31121662   4.942   5.330   3.525
  188POPC  H11X21663   4.902   5.408   3.593
  188POPC  H11Y21664   5.051   5.330   3.547
  188POPC  C31221665   4.881   5.197   3.561
  188POPC  H12X21666   4.908   5.115   3.492
  188POPC  H12Y21667   4.772   5.217   3.557
  188POPC  C31321668   4.920   5.155   3.703
  188POPC  H13X21669   5.030   5.167   3.705
  188POPC  H13Y21670   4.896   5.048   3.720
  188POPC  C31421671   4.853   5.241   3.817
  188POPC  H14X21672   4.747   5.263   3.790
  188POPC  H14Y21673   4.910   5.337   3.814
  188POPC  C31521674   4.861   5.171   3.954
  188POPC  H15X21675   4.791   5.085   3.964
  188POPC  H15Y21676   4.820   5.242   4.028
  188POPC  C31621677   5.002   5.128   4.001
  188POPC  H16X21678   4.992   5.119   4.111
  188POPC  H16Y21679   5.075   5.210   3.985
  188POPC  H16Z21680   5.035   5.033   3.954
  189SAPI   C1221681   2.676   5.102   7.097
  189SAPI    H221682   2.605   5.023   7.129
  189SAPI    O221683   2.630   5.225   7.151
  189SAPI   HO221684   2.557   5.247   7.093
  189SAPI   C1321685   2.813   5.070   7.167
  189SAPI    H321686   2.848   4.981   7.110
  189SAPI    O321687   2.797   5.022   7.303
  189SAPI   HO321688   2.726   5.074   7.340
  189SAPI   C1421689   2.914   5.184   7.154
  189SAPI    H421690   2.871   5.262   7.221
  189SAPI    O421691   3.043   5.155   7.209
  189SAPI   HO421692   3.075   5.073   7.170
  189SAPI   C1521693   2.920   5.237   7.009
  189SAPI    H521694   2.994   5.166   6.967
  189SAPI    O521695   2.987   5.367   7.007
  189SAPI   HO521696   3.027   5.390   6.923
  189SAPI   C1621697   2.794   5.229   6.915
  189SAPI    H621698   2.745   5.322   6.950
  189SAPI    O621699   2.824   5.230   6.774
  189SAPI   HO621700   2.864   5.147   6.749
  189SAPI   C1121701   2.681   5.124   6.945
  189SAPI    H121702   2.706   5.025   6.903
  189SAPI     P21703   2.438   5.059   6.834
  189SAPI   O1321704   2.318   5.054   6.921
  189SAPI   O1421705   2.501   4.929   6.801
  189SAPI   O1221706   2.554   5.167   6.890
  189SAPI   O1121707   2.388   5.124   6.699
  189SAPI    C121708   2.470   5.203   6.614
  189SAPI    HA21709   2.427   5.303   6.596
  189SAPI    HB21710   2.570   5.231   6.652
  189SAPI    C221711   2.496   5.136   6.472
  189SAPI    HS21712   2.565   5.209   6.425
  189SAPI   O2121713   2.379   5.116   6.395
  189SAPI   C2121714   2.315   5.231   6.357
  189SAPI   O2221715   2.359   5.342   6.374
  189SAPI   C2221716   2.179   5.194   6.308
  189SAPI   H2R21717   2.184   5.139   6.212
  189SAPI   H2S21718   2.134   5.122   6.379
  189SAPI    C321719   2.574   4.999   6.472
  189SAPI    HX21720   2.504   4.927   6.519
  189SAPI    HY21721   2.664   5.010   6.537
  189SAPI   O3121722   2.608   4.955   6.339
  189SAPI   C3121723   2.696   5.021   6.272
  189SAPI   O3221724   2.778   5.106   6.317
  189SAPI   C3221725   2.676   5.001   6.121
  189SAPI   H2X21726   2.606   4.915   6.110
  189SAPI   H2Y21727   2.774   4.961   6.086
  189SAPI   C2321728   2.076   5.314   6.286
  189SAPI   H3R21729   2.082   5.382   6.374
  189SAPI   H3S21730   1.976   5.268   6.272
  189SAPI   C2421731   2.115   5.388   6.156
  189SAPI   H4R21732   2.102   5.325   6.065
  189SAPI   H4S21733   2.220   5.420   6.172
  189SAPI   C2521734   2.033   5.516   6.144
  189SAPI   H5R21735   2.058   5.590   6.221
  189SAPI   C2621736   1.928   5.534   6.058
  189SAPI   H6R21737   1.865   5.624   6.051
  189SAPI   C2721738   1.885   5.436   5.958
  189SAPI   H7R21739   1.979   5.390   5.920
  189SAPI   H7S21740   1.836   5.475   5.866
  189SAPI   C2821741   1.799   5.327   6.017
  189SAPI   H8R21742   1.750   5.359   6.110
  189SAPI   C2921743   1.789   5.198   5.976
  189SAPI   H9R21744   1.728   5.125   6.031
  189SAPI  C21021745   1.834   5.143   5.844
  189SAPI  H10R21746   1.803   5.210   5.760
  189SAPI  H10S21747   1.762   5.060   5.830
  189SAPI  C21121748   1.982   5.097   5.835
  189SAPI  H11R21749   2.042   5.098   5.927
  189SAPI  C21221750   2.048   5.094   5.720
  189SAPI  H12R21751   2.157   5.083   5.717
  189SAPI  C21321752   1.992   5.113   5.580
  189SAPI  H13R21753   1.883   5.132   5.589
  189SAPI  H13S21754   2.014   5.028   5.512
  189SAPI  C21421755   2.038   5.238   5.506
  189SAPI  H14R21756   2.127   5.285   5.550
  189SAPI  C21521757   2.015   5.280   5.382
  189SAPI  H15R21758   2.066   5.368   5.340
  189SAPI  C21621759   1.910   5.229   5.285
  189SAPI  H16R21760   1.827   5.301   5.300
  189SAPI  H16S21761   1.872   5.128   5.312
  189SAPI  C21721762   1.948   5.235   5.135
  189SAPI  H17R21763   1.984   5.336   5.103
  189SAPI  H17S21764   1.859   5.211   5.073
  189SAPI  C21821765   2.057   5.134   5.100
  189SAPI  H18R21766   2.023   5.034   5.134
  189SAPI  H18S21767   2.145   5.156   5.165
  189SAPI  C21921768   2.092   5.131   4.947
  189SAPI  H19R21769   2.004   5.080   4.902
  189SAPI  H19S21770   2.176   5.059   4.937
  189SAPI  C22021771   2.119   5.258   4.866
  189SAPI  H20R21772   2.017   5.300   4.851
  189SAPI  H20S21773   2.169   5.229   4.771
  189SAPI  H20T21774   2.193   5.325   4.916
  189SAPI   C3321775   2.647   5.130   6.046
  189SAPI   H3X21776   2.661   5.113   5.938
  189SAPI   H3Y21777   2.725   5.200   6.084
  189SAPI   C3421778   2.505   5.179   6.074
  189SAPI   H4X21779   2.495   5.208   6.180
  189SAPI   H4Y21780   2.435   5.097   6.047
  189SAPI   C3521781   2.473   5.305   5.996
  189SAPI   H5X21782   2.576   5.345   5.981
  189SAPI   H5Y21783   2.419   5.379   6.059
  189SAPI   C3621784   2.389   5.283   5.874
  189SAPI   H6X21785   2.344   5.383   5.855
  189SAPI   H6Y21786   2.290   5.235   5.885
  189SAPI   C3721787   2.457   5.244   5.740
  189SAPI   H7X21788   2.368   5.249   5.673
  189SAPI   H7Y21789   2.494   5.141   5.755
  189SAPI   C3821790   2.570   5.343   5.712
  189SAPI   H8X21791   2.661   5.294   5.753
  189SAPI   H8Y21792   2.572   5.443   5.761
  189SAPI   C3921793   2.588   5.381   5.562
  189SAPI   H9X21794   2.501   5.434   5.517
  189SAPI   H9Y21795   2.590   5.287   5.504
  189SAPI  C31021796   2.718   5.461   5.533
  189SAPI  H10X21797   2.813   5.411   5.563
  189SAPI  H10Y21798   2.704   5.559   5.583
  189SAPI  C31121799   2.714   5.476   5.380
  189SAPI  H11X21800   2.612   5.518   5.369
  189SAPI  H11Y21801   2.721   5.374   5.336
  189SAPI  C31221802   2.815   5.569   5.327
  189SAPI  H12X21803   2.915   5.546   5.370
  189SAPI  H12Y21804   2.792   5.674   5.352
  189SAPI  C31321805   2.841   5.551   5.179
  189SAPI  H13X21806   2.878   5.447   5.167
  189SAPI  H13Y21807   2.925   5.622   5.161
  189SAPI  C31421808   2.726   5.567   5.083
  189SAPI  H14X21809   2.682   5.667   5.101
  189SAPI  H14Y21810   2.647   5.494   5.112
  189SAPI  C31521811   2.764   5.567   4.939
  189SAPI  H15X21812   2.820   5.475   4.914
  189SAPI  H15Y21813   2.833   5.652   4.922
  189SAPI  C31621814   2.637   5.591   4.854
  189SAPI  H16X21815   2.583   5.679   4.894
  189SAPI  H16Y21816   2.577   5.501   4.876
  189SAPI  C31721817   2.667   5.608   4.706
  189SAPI  H17X21818   2.578   5.574   4.649
  189SAPI  H17Y21819   2.747   5.538   4.673
  189SAPI  C31821820   2.695   5.748   4.657
  189SAPI  H18X21821   2.599   5.803   4.668
  189SAPI  H18Y21822   2.719   5.739   4.549
  189SAPI  H18Z21823   2.782   5.796   4.706
  190SAPI   C1221824   1.262   3.084   6.670
  190SAPI    H221825   1.214   3.107   6.573
  190SAPI    O221826   1.393   3.037   6.644
  190SAPI   HO221827   1.392   2.977   6.569
  190SAPI   C1321828   1.270   3.204   6.761
  190SAPI    H321829   1.168   3.219   6.803
  190SAPI    O321830   1.291   3.326   6.693
  190SAPI   HO321831   1.369   3.312   6.639
  190SAPI   C1421832   1.368   3.175   6.881
  190SAPI    H421833   1.467   3.150   6.836
  190SAPI    O421834   1.396   3.290   6.961
  190SAPI   HO421835   1.491   3.302   6.970
  190SAPI   C1521836   1.314   3.055   6.959
  190SAPI    H521837   1.257   3.101   7.043
  190SAPI    O521838   1.416   2.985   7.026
  190SAPI   HO521839   1.488   2.958   6.968
  190SAPI   C1621840   1.218   2.953   6.882
  190SAPI    H621841   1.284   2.864   6.872
  190SAPI    O621842   1.116   2.906   6.967
  190SAPI   HO621843   1.069   2.837   6.920
  190SAPI   C1121844   1.178   2.980   6.740
  190SAPI    H121845   1.078   3.027   6.745
  190SAPI     P21846   1.033   2.763   6.664
  190SAPI   O1321847   0.955   2.784   6.785
  190SAPI   O1421848   1.067   2.623   6.644
  190SAPI   O1221849   1.170   2.856   6.665
  190SAPI   O1121850   0.951   2.815   6.540
  190SAPI    C121851   0.875   2.738   6.449
  190SAPI    HA21852   0.811   2.663   6.500
  190SAPI    HB21853   0.809   2.811   6.397
  190SAPI    C221854   0.958   2.678   6.334
  190SAPI    HS21855   1.033   2.621   6.393
  190SAPI   O2121856   1.011   2.788   6.258
  190SAPI   C2121857   1.142   2.802   6.268
  190SAPI   O2221858   1.207   2.739   6.346
  190SAPI   C2221859   1.210   2.910   6.183
  190SAPI   H2R21860   1.226   3.001   6.244
  190SAPI   H2S21861   1.308   2.870   6.147
  190SAPI    C321862   0.883   2.572   6.240
  190SAPI    HX21863   0.781   2.614   6.226
  190SAPI    HY21864   0.860   2.480   6.298
  190SAPI   O3121865   0.943   2.555   6.107
  190SAPI   C3121866   1.032   2.458   6.092
  190SAPI   O3221867   1.077   2.386   6.181
  190SAPI   C3221868   1.068   2.440   5.947
  190SAPI   H2X21869   1.088   2.539   5.900
  190SAPI   H2Y21870   0.990   2.379   5.896
  190SAPI   C2321871   1.130   2.948   6.059
  190SAPI   H3R21872   1.194   3.023   6.008
  190SAPI   H3S21873   1.035   2.996   6.090
  190SAPI   C2421874   1.084   2.833   5.965
  190SAPI   H4R21875   1.019   2.876   5.886
  190SAPI   H4S21876   1.029   2.759   6.027
  190SAPI   C2521877   1.199   2.772   5.889
  190SAPI   H5R21878   1.271   2.713   5.948
  190SAPI   C2621879   1.222   2.766   5.752
  190SAPI   H6R21880   1.324   2.740   5.719
  190SAPI   C2721881   1.133   2.829   5.640
  190SAPI   H7R21882   1.190   2.894   5.571
  190SAPI   H7S21883   1.062   2.897   5.691
  190SAPI   C2821884   1.061   2.709   5.571
  190SAPI   H8R21885   0.970   2.677   5.625
  190SAPI   C2921886   1.093   2.640   5.465
  190SAPI   H9R21887   1.021   2.565   5.432
  190SAPI  C21021888   1.203   2.662   5.375
  190SAPI  H10R21889   1.292   2.599   5.398
  190SAPI  H10S21890   1.239   2.767   5.382
  190SAPI  C21121891   1.162   2.626   5.236
  190SAPI  H11R21892   1.091   2.541   5.233
  190SAPI  C21221893   1.188   2.701   5.126
  190SAPI  H12R21894   1.141   2.672   5.030
  190SAPI  C21321895   1.277   2.819   5.119
  190SAPI  H13R21896   1.350   2.816   5.202
  190SAPI  H13S21897   1.214   2.908   5.138
  190SAPI  C21421898   1.353   2.821   4.989
  190SAPI  H14R21899   1.439   2.753   5.000
  190SAPI  C21521900   1.325   2.879   4.871
  190SAPI  H15R21901   1.400   2.862   4.793
  190SAPI  C21621902   1.200   2.948   4.827
  190SAPI  H16R21903   1.228   3.050   4.793
  190SAPI  H16S21904   1.132   2.967   4.913
  190SAPI  C21721905   1.120   2.891   4.716
  190SAPI  H17R21906   1.060   2.800   4.736
  190SAPI  H17S21907   1.185   2.886   4.625
  190SAPI  C21821908   1.033   3.002   4.652
  190SAPI  H18R21909   1.013   2.981   4.544
  190SAPI  H18S21910   1.088   3.098   4.656
  190SAPI  C21921911   0.907   3.022   4.740
  190SAPI  H19R21912   0.946   3.081   4.826
  190SAPI  H19S21913   0.861   2.924   4.763
  190SAPI  C22021914   0.806   3.104   4.670
  190SAPI  H20R21915   0.799   3.096   4.559
  190SAPI  H20S21916   0.787   3.204   4.715
  190SAPI  H20T21917   0.707   3.058   4.691
  190SAPI   C3321918   1.194   2.345   5.934
  190SAPI   H3X21919   1.166   2.248   5.981
  190SAPI   H3Y21920   1.273   2.382   6.003
  190SAPI   C3421921   1.225   2.316   5.784
  190SAPI   H4X21922   1.325   2.268   5.777
  190SAPI   H4Y21923   1.231   2.410   5.725
  190SAPI   C3521924   1.132   2.230   5.701
  190SAPI   H5X21925   1.025   2.261   5.712
  190SAPI   H5Y21926   1.137   2.128   5.743
  190SAPI   C3621927   1.162   2.227   5.556
  190SAPI   H6X21928   1.261   2.178   5.540
  190SAPI   H6Y21929   1.170   2.328   5.510
  190SAPI   C3721930   1.048   2.165   5.473
  190SAPI   H7X21931   0.959   2.231   5.485
  190SAPI   H7Y21932   1.029   2.061   5.505
  190SAPI   C3821933   1.090   2.179   5.329
  190SAPI   H8X21934   1.178   2.119   5.297
  190SAPI   H8Y21935   1.120   2.284   5.307
  190SAPI   C3921936   0.973   2.146   5.240
  190SAPI   H9X21937   0.885   2.189   5.294
  190SAPI   H9Y21938   0.961   2.038   5.220
  190SAPI  C31021939   0.981   2.227   5.109
  190SAPI  H10X21940   0.974   2.337   5.121
  190SAPI  H10Y21941   0.886   2.196   5.060
  190SAPI  C31121942   1.097   2.192   5.006
  190SAPI  H11X21943   1.099   2.082   4.994
  190SAPI  H11Y21944   1.201   2.215   5.038
  190SAPI  C31221945   1.075   2.238   4.860
  190SAPI  H12X21946   0.991   2.185   4.811
  190SAPI  H12Y21947   1.166   2.198   4.810
  190SAPI  C31321948   1.069   2.392   4.856
  190SAPI  H13X21949   1.134   2.430   4.938
  190SAPI  H13Y21950   0.967   2.425   4.887
  190SAPI  C31421951   1.106   2.450   4.715
  190SAPI  H14X21952   1.190   2.390   4.673
  190SAPI  H14Y21953   1.121   2.560   4.719
  190SAPI  C31521954   1.002   2.401   4.612
  190SAPI  H15X21955   0.904   2.429   4.655
  190SAPI  H15Y21956   1.017   2.291   4.599
  190SAPI  C31621957   1.019   2.458   4.477
  190SAPI  H16X21958   0.969   2.392   4.402
  190SAPI  H16Y21959   1.122   2.488   4.450
  190SAPI  C31721960   0.945   2.596   4.464
  190SAPI  H17X21961   1.002   2.668   4.527
  190SAPI  H17Y21962   0.838   2.598   4.494
  190SAPI  C31821963   0.937   2.632   4.322
  190SAPI  H18X21964   0.912   2.740   4.327
  190SAPI  H18Y21965   0.851   2.586   4.269
  190SAPI  H18Z21966   1.035   2.608   4.276
  191SAPI   C1221967   4.408   4.475   2.108
  191SAPI    H221968   4.513   4.442   2.127
  191SAPI    O221969   4.380   4.550   2.218
  191SAPI   HO221970   4.369   4.497   2.296
  191SAPI   C1321971   4.400   4.556   1.980
  191SAPI    H321972   4.398   4.485   1.894
  191SAPI    O321973   4.509   4.644   1.962
  191SAPI   HO321974   4.504   4.687   1.876
  191SAPI   C1421975   4.265   4.629   1.982
  191SAPI    H421976   4.243   4.690   2.072
  191SAPI    O421977   4.251   4.719   1.875
  191SAPI   HO421978   4.223   4.808   1.898
  191SAPI   C1521979   4.151   4.527   1.984
  191SAPI    H521980   4.143   4.497   1.877
  191SAPI    O521981   4.023   4.585   2.028
  191SAPI   HO521982   3.971   4.589   1.947
  191SAPI   C1621983   4.183   4.385   2.053
  191SAPI    H621984   4.139   4.408   2.153
  191SAPI    O621985   4.107   4.281   2.009
  191SAPI   HO621986   4.065   4.251   2.090
  191SAPI   C1121987   4.329   4.350   2.086
  191SAPI    H121988   4.364   4.304   1.991
  191SAPI     P21989   4.487   4.181   2.220
  191SAPI   O1321990   4.578   4.206   2.104
  191SAPI   O1421991   4.469   4.044   2.265
  191SAPI   O1221992   4.342   4.258   2.197
  191SAPI   O1121993   4.532   4.275   2.340
  191SAPI    C121994   4.655   4.329   2.364
  191SAPI    HA21995   4.684   4.396   2.281
  191SAPI    HB21996   4.650   4.393   2.455
  191SAPI    C221997   4.767   4.226   2.379
  191SAPI    HS21998   4.791   4.186   2.279
  191SAPI   O2121999   4.719   4.106   2.452
  191SAPI   C2122000   4.786   3.994   2.428
  191SAPI   O2222001   4.881   3.978   2.351
  191SAPI   C2222002   4.713   3.875   2.493
  191SAPI   H2R22003   4.638   3.844   2.417
  191SAPI   H2S22004   4.786   3.791   2.487
  191SAPI    C322005   4.892   4.280   2.450
  191SAPI    HX22006   4.921   4.371   2.394
  191SAPI    HY22007   4.976   4.208   2.441
  191SAPI   O3122008   4.871   4.311   2.590
  191SAPI   C3122009   4.902   4.221   2.685
  191SAPI   O3222010   4.965   4.115   2.666
  191SAPI   C3222011   4.835   4.265   2.820
  191SAPI   H2X22012   4.728   4.274   2.792
  191SAPI   H2Y22013   4.875   4.362   2.856
  191SAPI   C2322014   4.665   3.900   2.639
  191SAPI   H3R22015   4.626   4.004   2.649
  191SAPI   H3S22016   4.755   3.902   2.704
  191SAPI   C2422017   4.576   3.783   2.680
  191SAPI   H4R22018   4.635   3.692   2.705
  191SAPI   H4S22019   4.506   3.756   2.598
  191SAPI   C2522020   4.497   3.821   2.804
  191SAPI   H5R22021   4.399   3.866   2.788
  191SAPI   C2622022   4.540   3.795   2.929
  191SAPI   H6R22023   4.470   3.834   3.005
  191SAPI   C2722024   4.664   3.717   2.970
  191SAPI   H7R22025   4.707   3.761   3.063
  191SAPI   H7S22026   4.741   3.733   2.891
  191SAPI   C2822027   4.643   3.567   2.993
  191SAPI   H8R22028   4.687   3.503   2.915
  191SAPI   C2922029   4.585   3.522   3.101
  191SAPI   H9R22030   4.573   3.412   3.100
  191SAPI  C21022031   4.531   3.582   3.231
  191SAPI  H10R22032   4.560   3.690   3.228
  191SAPI  H10S22033   4.567   3.524   3.318
  191SAPI  C21122034   4.384   3.566   3.221
  191SAPI  H11R22035   4.337   3.594   3.126
  191SAPI  C21222036   4.305   3.555   3.330
  191SAPI  H12R22037   4.197   3.538   3.315
  191SAPI  C21322038   4.354   3.560   3.477
  191SAPI  H13R22039   4.433   3.482   3.484
  191SAPI  H13S22040   4.265   3.531   3.537
  191SAPI  C21422041   4.399   3.694   3.530
  191SAPI  H14R22042   4.441   3.765   3.457
  191SAPI  C21522043   4.400   3.729   3.660
  191SAPI  H15R22044   4.438   3.829   3.687
  191SAPI  C21622045   4.339   3.657   3.777
  191SAPI  H16R22046   4.329   3.548   3.756
  191SAPI  H16S22047   4.237   3.699   3.784
  191SAPI  C21722048   4.423   3.665   3.908
  191SAPI  H17R22049   4.520   3.617   3.881
  191SAPI  H17S22050   4.378   3.604   3.990
  191SAPI  C21822051   4.418   3.816   3.949
  191SAPI  H18R22052   4.368   3.875   3.869
  191SAPI  H18S22053   4.524   3.852   3.952
  191SAPI  C21922054   4.349   3.829   4.080
  191SAPI  H19R22055   4.399   3.758   4.149
  191SAPI  H19S22056   4.247   3.790   4.058
  191SAPI  C22022057   4.351   3.971   4.132
  191SAPI  H20R22058   4.308   4.035   4.052
  191SAPI  H20S22059   4.457   3.987   4.160
  191SAPI  H20T22060   4.294   3.985   4.227
  191SAPI   C3322061   4.834   4.140   2.922
  191SAPI   H3X22062   4.937   4.103   2.937
  191SAPI   H3Y22063   4.764   4.064   2.881
  191SAPI   C3422064   4.770   4.167   3.064
  191SAPI   H4X22065   4.662   4.181   3.043
  191SAPI   H4Y22066   4.807   4.256   3.119
  191SAPI   C3522067   4.788   4.050   3.165
  191SAPI   H5X22068   4.895   4.057   3.196
  191SAPI   H5Y22069   4.772   3.949   3.121
  191SAPI   C3622070   4.697   4.065   3.283
  191SAPI   H6X22071   4.594   4.079   3.244
  191SAPI   H6Y22072   4.739   4.156   3.333
  191SAPI   C3722073   4.709   3.952   3.381
  191SAPI   H7X22074   4.816   3.922   3.385
  191SAPI   H7Y22075   4.651   3.873   3.330
  191SAPI   C3822076   4.649   3.987   3.514
  191SAPI   H8X22077   4.609   3.892   3.556
  191SAPI   H8Y22078   4.563   4.056   3.503
  191SAPI   C3922079   4.751   4.043   3.618
  191SAPI   H9X22080   4.777   4.138   3.568
  191SAPI   H9Y22081   4.844   3.985   3.636
  191SAPI  C31022082   4.685   4.064   3.754
  191SAPI  H10X22083   4.761   4.088   3.832
  191SAPI  H10Y22084   4.645   3.970   3.796
  191SAPI  C31122085   4.583   4.181   3.765
  191SAPI  H11X22086   4.495   4.138   3.711
  191SAPI  H11Y22087   4.619   4.264   3.701
  191SAPI  C31222088   4.556   4.227   3.908
  191SAPI  H12X22089   4.644   4.275   3.957
  191SAPI  H12Y22090   4.548   4.136   3.971
  191SAPI  C31322091   4.418   4.302   3.909
  191SAPI  H13X22092   4.335   4.245   3.863
  191SAPI  H13Y22093   4.432   4.384   3.836
  191SAPI  C31422094   4.380   4.361   4.043
  191SAPI  H14X22095   4.471   4.406   4.089
  191SAPI  H14Y22096   4.348   4.286   4.119
  191SAPI  C31522097   4.268   4.469   4.044
  191SAPI  H15X22098   4.183   4.412   4.001
  191SAPI  H15Y22099   4.290   4.547   3.968
  191SAPI  C31622100   4.239   4.528   4.184
  191SAPI  H16X22101   4.319   4.602   4.208
  191SAPI  H16Y22102   4.266   4.441   4.248
  191SAPI  C31722103   4.095   4.585   4.203
  191SAPI  H17X22104   4.021   4.507   4.175
  191SAPI  H17Y22105   4.084   4.667   4.128
  191SAPI  C31822106   4.064   4.631   4.351
  191SAPI  H18X22107   3.957   4.661   4.361
  191SAPI  H18Y22108   4.137   4.703   4.395
  191SAPI  H18Z22109   4.060   4.539   4.413
  192SAPI   C1222110   0.142   6.317   2.049
  192SAPI    H222111   0.204   6.364   1.970
  192SAPI    O222112   0.008   6.353   2.015
  192SAPI   HO222113   0.016   6.435   1.967
  192SAPI   C1322114   0.170   6.171   2.044
  192SAPI    H322115   0.280   6.162   2.057
  192SAPI    O322116   0.150   6.107   1.917
  192SAPI   HO322117   0.070   6.148   1.883
  192SAPI   C1422118   0.111   6.086   2.164
  192SAPI    H422119   0.007   6.064   2.133
  192SAPI    O422120   0.179   5.958   2.181
  192SAPI   HO422121   0.127   5.903   2.242
  192SAPI   C1522122   0.093   6.156   2.298
  192SAPI    H522123   0.181   6.123   2.358
  192SAPI    O522124   6.859   6.097   2.362
  192SAPI   HO522125   0.003   6.007   2.389
  192SAPI   C1622126   0.103   6.315   2.303
  192SAPI    H622127   0.004   6.364   2.293
  192SAPI    O622128   0.153   6.365   2.429
  192SAPI   HO622129   0.185   6.455   2.420
  192SAPI   C1122130   0.188   6.374   2.186
  192SAPI    H122131   0.295   6.346   2.180
  192SAPI     P22132   0.295   6.619   2.231
  192SAPI   O1322133   0.262   6.758   2.191
  192SAPI   O1422134   0.428   6.571   2.190
  192SAPI   O1222135   0.177   6.518   2.186
  192SAPI   O1122136   0.285   6.609   2.393
  192SAPI    C122137   0.169   6.673   2.466
  192SAPI    HA22138   0.153   6.778   2.435
  192SAPI    HB22139   0.076   6.613   2.460
  192SAPI    C222140   0.214   6.688   2.616
  192SAPI    HS22141   0.223   6.589   2.665
  192SAPI   O2122142   0.122   6.753   2.693
  192SAPI   C2122143   6.869   6.745   2.691
  192SAPI   O2222144   6.793   6.706   2.600
  192SAPI   C2222145   6.803   6.819   2.810
  192SAPI   H2R22146   6.839   0.046   2.812
  192SAPI   H2S22147   6.694   6.816   2.790
  192SAPI    C322148   0.362   6.760   2.605
  192SAPI    HX22149   0.357   6.861   2.561
  192SAPI    HY22150   0.440   6.704   2.549
  192SAPI   O3122151   0.414   6.780   2.742
  192SAPI   C3122152   0.364   0.003   2.807
  192SAPI   O3222153   0.301   0.094   2.755
  192SAPI   C3222154   0.376   6.864   2.958
  192SAPI   H2X22155   0.479   6.825   2.970
  192SAPI   H2Y22156   0.304   6.783   2.984
  192SAPI   C2322157   6.853   6.764   2.942
  192SAPI   H3R22158   0.082   6.788   2.958
  192SAPI   H3S22159   6.830   6.655   2.934
  192SAPI   C2422160   6.777   6.808   3.072
  192SAPI   H4R22161   6.666   6.809   3.062
  192SAPI   H4S22162   6.808   0.035   3.092
  192SAPI   C2522163   6.828   6.729   3.192
  192SAPI   H5R22164   0.058   6.745   3.210
  192SAPI   C2622165   6.757   6.654   3.275
  192SAPI   H6R22166   6.809   6.610   3.362
  192SAPI   C2722167   6.611   6.633   3.268
  192SAPI   H7R22168   6.607   6.528   3.305
  192SAPI   H7S22169   6.582   6.629   3.161
  192SAPI   C2822170   6.526   6.711   3.363
  192SAPI   H8R22171   6.541   6.820   3.367
  192SAPI   C2922172   6.445   6.663   3.458
  192SAPI   H9R22173   6.386   6.731   3.522
  192SAPI  C21022174   6.419   6.517   3.493
  192SAPI  H10R22175   6.505   6.454   3.461
  192SAPI  H10S22176   6.334   6.475   3.436
  192SAPI  C21122177   6.401   6.498   3.648
  192SAPI  H11R22178   6.313   6.557   3.678
  192SAPI  C21222179   6.457   6.403   3.718
  192SAPI  H12R22180   6.420   6.387   3.820
  192SAPI  C21322181   6.563   6.300   3.670
  192SAPI  H13R22182   6.657   6.309   3.728
  192SAPI  H13S22183   6.592   6.304   3.563
  192SAPI  C21422184   6.518   6.157   3.694
  192SAPI  H14R22185   6.410   6.139   3.691
  192SAPI  C21522186   6.597   6.058   3.737
  192SAPI  H15R22187   6.533   5.969   3.747
  192SAPI  C21622188   6.747   6.057   3.752
  192SAPI  H16R22189   6.811   6.140   3.714
  192SAPI  H16S22190   6.786   5.964   3.707
  192SAPI  C21722191   6.780   6.059   3.900
  192SAPI  H17R22192   6.735   6.147   3.951
  192SAPI  H17S22193   0.013   6.058   3.898
  192SAPI  C21822194   6.740   5.937   3.979
  192SAPI  H18R22195   6.783   5.845   3.933
  192SAPI  H18S22196   6.631   5.919   3.977
  192SAPI  C21922197   6.805   5.915   4.122
  192SAPI  H19R22198   6.778   5.998   4.191
  192SAPI  H19S22199   0.038   5.922   4.111
  192SAPI  C22022200   6.785   5.780   4.176
  192SAPI  H20R22201   6.869   5.756   4.245
  192SAPI  H20S22202   6.781   5.704   4.095
  192SAPI  H20T22203   6.691   5.767   4.233
  192SAPI   C3322204   0.340   0.104   3.051
  192SAPI   H3X22205   0.245   0.147   3.013
  192SAPI   H3Y22206   0.412   0.188   3.046
  192SAPI   C3422207   0.315   0.051   3.193
  192SAPI   H4X22208   0.412   0.011   3.233
  192SAPI   H4Y22209   0.236   6.851   3.198
  192SAPI   C3522210   0.268   0.160   3.288
  192SAPI   H5X22211   0.170   0.206   3.263
  192SAPI   H5Y22212   0.345   0.241   3.295
  192SAPI   C3622213   0.257   0.114   3.440
  192SAPI   H6X22214   0.230   0.200   3.505
  192SAPI   H6Y22215   0.358   0.069   3.450
  192SAPI   C3722216   0.162   0.001   3.463
  192SAPI   H7X22217   0.192   6.780   3.421
  192SAPI   H7Y22218   0.065   0.030   3.417
  192SAPI   C3822219   0.138   6.869   3.617
  192SAPI   H8X22220   0.134   0.092   3.664
  192SAPI   H8Y22221   0.225   6.823   3.668
  192SAPI   C3922222   0.007   6.791   3.654
  192SAPI   H9X22223   6.867   6.707   3.583
  192SAPI   H9Y22224   6.795   6.851   3.630
  192SAPI  C31022225   0.000   6.739   3.802
  192SAPI  H10X22226   6.773   6.707   3.817
  192SAPI  H10Y22227   0.023   6.825   3.869
  192SAPI  C31122228   0.091   6.623   3.827
  192SAPI  H11X22229   0.199   6.650   3.833
  192SAPI  H11Y22230   0.066   6.557   3.741
  192SAPI  C31222231   0.057   6.557   3.966
  192SAPI  H12X22232   6.837   6.506   3.950
  192SAPI  H12Y22233   0.046   6.639   4.041
  192SAPI  C31322234   0.161   6.456   4.006
  192SAPI  H13X22235   0.257   6.513   4.003
  192SAPI  H13Y22236   0.164   6.378   3.926
  192SAPI  C31422237   0.135   6.394   4.140
  192SAPI  H14X22238   0.054   6.318   4.137
  192SAPI  H14Y22239   0.100   6.471   4.212
  192SAPI  C31522240   0.262   6.330   4.199
  192SAPI  H15X22241   0.337   6.409   4.219
  192SAPI  H15Y22242   0.318   6.272   4.123
  192SAPI  C31622243   0.247   6.247   4.318
  192SAPI  H16X22244   0.171   6.168   4.299
  192SAPI  H16Y22245   0.201   6.313   4.395
  192SAPI  C31722246   0.378   6.197   4.372
  192SAPI  H17X22247   0.443   6.285   4.391
  192SAPI  H17Y22248   0.432   6.141   4.293
  192SAPI  C31822249   0.372   6.111   4.502
  192SAPI  H18X22250   0.453   6.035   4.499
  192SAPI  H18Y22251   0.282   6.047   4.508
  192SAPI  H18Z22252   0.378   6.180   4.589
  193SOD    SOD22253   4.275   4.682   1.643
  194SOD    SOD22254   4.852   5.008   7.407
  195SOD    SOD22255   2.276   5.983   7.604
  196SOD    SOD22256   4.467   2.289   1.128
  197SOD    SOD22257   2.379   0.414   6.506
  198SOD    SOD22258   4.671   6.031   8.457
  199SOD    SOD22259   0.691   1.428   0.474
  200SOD    SOD22260   3.879   2.667   0.910
  201SOD    SOD22261   4.692   6.373   0.857
  202SOD    SOD22262   3.464   6.658   1.886
  203SOD    SOD22263   4.292   4.412   6.899
  204SOD    SOD22264   2.309   4.904   7.554
  205SOD    SOD22265   3.335   3.312   6.536
  206SOD    SOD22266   5.295   2.986   0.470
  207SOD    SOD22267   4.859   3.832   1.908
  208SOD    SOD22268   3.302   0.414   6.402
  209SOD    SOD22269   3.665   2.644   1.992
  210SOD    SOD22270   0.645   1.159   6.724
  211SOD    SOD22271   0.646   4.249   8.164
  212SOD    SOD22272   6.463   6.470   2.364
  213SOD    SOD22273   2.328   3.004   7.013
  214SOD    SOD22274   2.154   3.409   1.601
  215SOD    SOD22275   4.610   4.737   2.158
  216SOD    SOD22276   5.498   6.721   7.064
  217SOD    SOD22277   2.896   0.310   6.779
  218SOD    SOD22278   5.808   5.841   1.428
  219SOD    SOD22279   5.025   3.405   6.921
  220SOD    SOD22280   1.989   4.885   6.639
  221SOD    SOD22281   0.196   3.516   8.286
  222SOD    SOD22282   1.861   2.949   8.377
  223SOD    SOD22283   5.133   6.781   2.403
  224SOD    SOD22284   6.070   6.493   8.201
  225SOD    SOD22285   5.672   6.770   6.719
  226SOD    SOD22286   1.295   6.244   8.386
  227SOD    SOD22287   3.688   2.624   7.142
  228SOD    SOD22288   4.591   0.082   0.900
  229SOD    SOD22289   1.316   3.019   8.170
  230SOD    SOD22290   6.343   0.830   1.753
  231SOD    SOD22291   1.327   6.773   7.800
  232SOD    SOD22292   6.411   1.952   8.527
  233SOD    SOD22293   2.463   1.725   2.175
  234CLA    CLA22294   3.459   3.982   6.998
  235CLA    CLA22295   5.233   6.831   8.113
  236CLA    CLA22296   4.988   2.326   7.263
  237CLA    CLA22297   1.618   1.060   0.051
  238CLA    CLA22298   0.351   3.705   8.376
  239CLA    CLA22299   2.185   3.934   7.983
  240CLA    CLA22300   1.762   3.493   0.189
  241CLA    CLA22301   6.613   6.440   8.101
  242CLA    CLA22302   5.003   5.130   1.161
  243CLA    CLA22303   1.486   2.835   0.153
  244CLA    CLA22304   6.244   0.470   0.040
  245CLA    CLA22305   1.106   3.584   1.257
  246CLA    CLA22306   3.602   1.451   7.992
  247CLA    CLA22307   6.249   2.588   8.611
  248CLA    CLA22308   0.884   6.238   8.114
  249CLA    CLA22309   1.857   5.760   7.357
  250CLA    CLA22310   3.790   6.160   0.199
  251TIP3   OH222311   5.575   2.169   7.719
  251TIP3    H122312   5.480   2.159   7.727
  251TIP3    H222313   5.592   2.260   7.742
  252TIP3   OH222314   6.579   1.750   0.860
  252TIP3    H122315   6.657   1.726   0.909
  252TIP3    H222316   6.506   1.716   0.912
  253TIP3   OH222317   2.688   4.124   7.981
  253TIP3    H122318   2.747   4.056   7.948
  253TIP3    H222319   2.611   4.077   8.012
  254TIP3   OH222320   5.589   3.324   1.869
  254TIP3    H122321   5.586   3.289   1.780
  254TIP3    H222322   5.544   3.258   1.923
  255TIP3   OH222323   0.598   3.064   6.799
  255TIP3    H122324   0.633   2.979   6.771
  255TIP3    H222325   0.627   3.126   6.733
  256TIP3   OH222326   2.967   3.465   7.952
  256TIP3    H122327   2.914   3.457   8.031
  256TIP3    H222328   3.031   3.534   7.973
  257TIP3   OH222329   2.190   1.998   7.046
  257TIP3    H122330   2.105   2.040   7.057
  257TIP3    H222331   2.180   1.912   7.087
  258TIP3   OH222332   5.488   1.741   8.430
  258TIP3    H122333   5.418   1.788   8.386
  258TIP3    H222334   5.447   1.659   8.458
  259TIP3   OH222335   2.922   5.539   7.982
  259TIP3    H122336   2.964   5.455   7.999
  259TIP3    H222337   2.937   5.590   8.062
  260TIP3   OH222338   1.642   3.652   6.923
  260TIP3    H122339   1.613   3.719   6.985
  260TIP3    H222340   1.566   3.595   6.910
  261TIP3   OH222341   2.623   1.696   7.622
  261TIP3    H122342   2.701   1.715   7.674
  261TIP3    H222343   2.572   1.777   7.626
  262TIP3   OH222344   5.799   4.087   8.539
  262TIP3    H122345   5.834   4.079   8.450
  262TIP3    H222346   5.775   4.179   8.547
  263TIP3   OH222347   4.235   3.717   8.040
  263TIP3    H122348   4.211   3.728   7.948
  263TIP3    H222349   4.234   3.623   8.054
  264TIP3   OH222350   3.785   3.140   6.711
  264TIP3    H122351   3.831   3.219   6.682
  264TIP3    H222352   3.855   3.081   6.738
  265TIP3   OH222353   0.678   3.393   7.152
  265TIP3    H122354   0.760   3.422   7.192
  265TIP3    H222355   0.630   3.474   7.133
  266TIP3   OH222356   0.929   1.241   0.041
  266TIP3    H122357   0.903   1.160   8.649
  266TIP3    H222358   1.018   1.258   0.010
  267TIP3   OH222359   4.531   0.430   8.239
  267TIP3    H122360   4.569   0.513   8.209
  267TIP3    H222361   4.538   0.434   8.334
  268TIP3   OH222362   4.803   5.982   0.017
  268TIP3    H122363   4.840   5.904   8.627
  268TIP3    H222364   4.878   6.026   0.057
  269TIP3   OH222365   3.607   1.869   8.538
  269TIP3    H122366   3.541   1.937   8.557
  269TIP3    H222367   3.557   1.798   8.498
  270TIP3   OH222368   5.081   1.838   7.762
  270TIP3    H122369   5.065   1.748   7.733
  270TIP3    H222370   5.154   1.831   7.823
  271TIP3   OH222371   4.893   0.361   8.075
  271TIP3    H122372   4.915   0.304   8.149
  271TIP3    H222373   4.975   0.406   8.054
  272TIP3   OH222374   2.722   2.151   8.515
  272TIP3    H122375   2.811   2.116   8.514
  272TIP3    H222376   2.716   2.203   8.434
  273TIP3   OH222377   2.321   3.620   7.115
  273TIP3    H122378   2.378   3.582   7.048
  273TIP3    H222379   2.316   3.713   7.092
  274TIP3   OH222380   3.052   2.761   7.273
  274TIP3    H122381   3.109   2.736   7.345
  274TIP3    H222382   2.968   2.719   7.292
  275TIP3   OH222383   0.088   0.528   8.458
  275TIP3    H122384   0.001   0.505   8.425
  275TIP3    H222385   0.148   0.499   8.390
  276TIP3   OH222386   0.301   1.863   1.463
  276TIP3    H122387   0.326   1.945   1.419
  276TIP3    H222388   0.228   1.830   1.412
  277TIP3   OH222389   5.856   0.929   6.770
  277TIP3    H122390   5.783   0.922   6.708
  277TIP3    H222391   5.842   1.014   6.813
  278TIP3   OH222392   2.842   4.691   1.521
  278TIP3    H122393   2.759   4.655   1.491
  278TIP3    H222394   2.873   4.744   1.448
  279TIP3   OH222395   3.490   3.680   8.150
  279TIP3    H122396   3.439   3.654   8.227
  279TIP3    H222397   3.554   3.743   8.184
  280TIP3   OH222398   6.851   3.806   0.408
  280TIP3    H122399   0.040   3.863   0.446
  280TIP3    H222400   6.770   3.857   0.416
  281TIP3   OH222401   0.975   2.157   6.466
  281TIP3    H122402   1.038   2.154   6.394
  281TIP3    H222403   1.028   2.182   6.542
  282TIP3   OH222404   3.207   5.392   7.717
  282TIP3    H122405   3.207   5.487   7.709
  282TIP3    H222406   3.229   5.375   7.808
  283TIP3   OH222407   1.920   5.993   0.532
  283TIP3    H122408   1.878   5.967   0.614
  283TIP3    H222409   1.852   6.041   0.485
  284TIP3   OH222410   2.391   5.142   1.563
  284TIP3    H122411   2.372   5.058   1.521
  284TIP3    H222412   2.324   5.201   1.528
  285TIP3   OH222413   2.081   0.975   8.030
  285TIP3    H122414   2.040   1.060   8.049
  285TIP3    H222415   2.175   0.992   8.036
  286TIP3   OH222416   4.352   4.081   1.847
  286TIP3    H122417   4.324   4.121   1.929
  286TIP3    H222418   4.278   4.028   1.818
  287TIP3   OH222419   0.873   0.214   7.661
  287TIP3    H122420   0.822   0.229   7.740
  287TIP3    H222421   0.922   0.296   7.648
  288TIP3   OH222422   0.762   1.221   0.297
  288TIP3    H122423   0.831   1.176   0.248
  288TIP3    H222424   0.692   1.235   0.233
  289TIP3   OH222425   4.254   5.563   1.941
  289TIP3    H122426   4.271   5.578   1.848
  289TIP3    H222427   4.328   5.604   1.985
  290TIP3   OH222428   5.208   0.570   0.393
  290TIP3    H122429   5.183   0.488   0.435
  290TIP3    H222430   5.290   0.550   0.348
  291TIP3   OH222431   1.535   6.848   2.026
  291TIP3    H122432   1.495   6.762   2.013
  291TIP3    H222433   1.493   0.005   2.105
  292TIP3   OH222434   5.238   2.280   0.501
  292TIP3    H122435   5.326   2.274   0.464
  292TIP3    H222436   5.202   2.360   0.464
  293TIP3   OH222437   4.033   1.656   1.063
  293TIP3    H122438   3.996   1.579   1.105
  293TIP3    H222439   3.973   1.676   0.992
  294TIP3   OH222440   4.970   3.736   7.167
  294TIP3    H122441   4.885   3.777   7.180
  294TIP3    H222442   5.033   3.807   7.179
  295TIP3   OH222443   5.692   6.820   0.595
  295TIP3    H122444   5.696   6.804   0.689
  295TIP3    H222445   5.758   0.010   0.579
  296TIP3   OH222446   5.381   5.594   8.088
  296TIP3    H122447   5.397   5.686   8.067
  296TIP3    H222448   5.391   5.548   8.004
  297TIP3   OH222449   0.861   6.233   8.410
  297TIP3    H122450   0.860   6.218   8.316
  297TIP3    H222451   0.952   6.255   8.430
  298TIP3   OH222452   3.781   6.621   0.197
  298TIP3    H122453   3.843   6.633   0.269
  298TIP3    H222454   3.837   6.610   0.120
  299TIP3   OH222455   0.132   2.419   0.746
  299TIP3    H122456   0.059   2.441   0.805
  299TIP3    H222457   0.206   2.470   0.780
  300TIP3   OH222458   1.908   4.542   7.733
  300TIP3    H122459   1.932   4.582   7.817
  300TIP3    H222460   1.900   4.616   7.673
  301TIP3   OH222461   3.786   6.421   7.129
  301TIP3    H122462   3.742   6.506   7.121
  301TIP3    H222463   3.849   6.420   7.057
  302TIP3   OH222464   1.174   5.196   2.056
  302TIP3    H122465   1.096   5.230   2.099
  302TIP3    H222466   1.187   5.109   2.093
  303TIP3   OH222467   2.883   3.132   1.982
  303TIP3    H122468   2.906   3.165   2.068
  303TIP3    H222469   2.846   3.207   1.936
  304TIP3   OH222470   1.241   6.137   7.114
  304TIP3    H122471   1.216   6.053   7.074
  304TIP3    H222472   1.187   6.142   7.193
  305TIP3   OH222473   0.535   5.423   0.986
  305TIP3    H122474   0.553   5.408   0.893
  305TIP3    H222475   0.441   5.439   0.990
  306TIP3   OH222476   6.847   4.828   1.778
  306TIP3    H122477   0.043   4.801   1.831
  306TIP3    H222478   6.840   4.923   1.793
  307TIP3   OH222479   3.585   5.073   7.872
  307TIP3    H122480   3.569   5.077   7.967
  307TIP3    H222481   3.507   5.113   7.833
  308TIP3   OH222482   4.017   6.214   0.741
  308TIP3    H122483   3.999   6.217   0.647
  308TIP3    H222484   3.938   6.251   0.781
  309TIP3   OH222485   3.189   6.012   1.237
  309TIP3    H122486   3.203   6.058   1.319
  309TIP3    H222487   3.121   6.063   1.192
  310TIP3   OH222488   5.111   1.834   0.637
  310TIP3    H122489   5.048   1.765   0.658
  310TIP3    H222490   5.057   1.912   0.620
  311TIP3   OH222491   4.536   4.824   0.559
  311TIP3    H122492   4.459   4.784   0.599
  311TIP3    H222493   4.610   4.781   0.602
  312TIP3   OH222494   4.764   2.996   1.520
  312TIP3    H122495   4.756   3.014   1.613
  312TIP3    H222496   4.797   2.906   1.515
  313TIP3   OH222497   6.782   0.394   0.931
  313TIP3    H122498   6.826   0.447   0.865
  313TIP3    H222499   6.833   0.313   0.935
  314TIP3   OH222500   1.781   5.551   1.902
  314TIP3    H122501   1.694   5.533   1.939
  314TIP3    H222502   1.804   5.471   1.855
  315TIP3   OH222503   3.454   2.365   0.454
  315TIP3    H122504   3.407   2.353   0.371
  315TIP3    H222505   3.533   2.312   0.444
  316TIP3   OH222506   4.606   5.177   7.770
  316TIP3    H122507   4.551   5.125   7.828
  316TIP3    H222508   4.678   5.207   7.826
  317TIP3   OH222509   4.361   0.757   8.521
  317TIP3    H122510   4.296   0.811   8.475
  317TIP3    H222511   4.444   0.801   8.505
  318TIP3   OH222512   3.886   1.144   0.128
  318TIP3    H122513   3.829   1.220   0.144
  318TIP3    H222514   3.835   1.069   0.156
  319TIP3   OH222515   4.446   3.360   7.872
  319TIP3    H122516   4.496   3.438   7.897
  319TIP3    H222517   4.440   3.364   7.777
  320TIP3   OH222518   0.942   2.471   1.535
  320TIP3    H122519   0.911   2.393   1.582
  320TIP3    H222520   0.968   2.532   1.604
  321TIP3   OH222521   5.849   0.467   0.417
  321TIP3    H122522   5.805   0.521   0.350
  321TIP3    H222523   5.818   0.378   0.399
  322TIP3   OH222524   3.074   5.983   7.905
  322TIP3    H122525   3.007   6.029   7.955
  322TIP3    H222526   3.029   5.905   7.872
  323TIP3   OH222527   6.358   1.978   6.498
  323TIP3    H122528   6.280   2.032   6.511
  323TIP3    H222529   6.366   1.970   6.403
  324TIP3   OH222530   2.611   6.316   7.235
  324TIP3    H122531   2.651   6.276   7.158
  324TIP3    H222532   2.536   6.364   7.202
  325TIP3   OH222533   6.404   0.928   7.260
  325TIP3    H122534   6.373   0.906   7.172
  325TIP3    H222535   6.326   0.960   7.305
  326TIP3   OH222536   3.800   6.286   2.413
  326TIP3    H122537   3.847   6.208   2.385
  326TIP3    H222538   3.766   6.263   2.500
  327TIP3   OH222539   6.193   5.079   0.881
  327TIP3    H122540   6.265   5.016   0.874
  327TIP3    H222541   6.144   5.052   0.958
  328TIP3   OH222542   6.506   3.191   1.665
  328TIP3    H122543   6.542   3.128   1.603
  328TIP3    H222544   6.444   3.243   1.614
  329TIP3   OH222545   4.487   0.761   7.171
  329TIP3    H122546   4.507   0.672   7.142
  329TIP3    H222547   4.491   0.814   7.092
  330TIP3   OH222548   0.762   0.335   7.957
  330TIP3    H122549   0.728   0.418   7.924
  330TIP3    H222550   0.709   0.316   8.035
  331TIP3   OH222551   2.584   6.391   6.779
  331TIP3    H122552   2.504   6.364   6.733
  331TIP3    H222553   2.612   6.470   6.733
  332TIP3   OH222554   5.425   1.836   6.831
  332TIP3    H122555   5.447   1.827   6.924
  332TIP3    H222556   5.332   1.817   6.826
  333TIP3   OH222557   1.691   1.187   8.240
  333TIP3    H122558   1.665   1.279   8.240
  333TIP3    H222559   1.735   1.175   8.324
  334TIP3   OH222560   3.520   6.549   1.234
  334TIP3    H122561   3.510   6.500   1.152
  334TIP3    H222562   3.435   6.539   1.277
  335TIP3   OH222563   5.952   0.735   6.551
  335TIP3    H122564   5.872   0.788   6.558
  335TIP3    H222565   5.944   0.691   6.467
  336TIP3   OH222566   0.791   4.440   1.865
  336TIP3    H122567   0.855   4.473   1.928
  336TIP3    H222568   0.761   4.357   1.902
  337TIP3   OH222569   1.376   2.855   1.507
  337TIP3    H122570   1.289   2.869   1.469
  337TIP3    H222571   1.358   2.817   1.593
  338TIP3   OH222572   5.844   1.702   7.904
  338TIP3    H122573   5.823   1.772   7.842
  338TIP3    H222574   5.780   1.712   7.974
  339TIP3   OH222575   4.166   6.705   1.973
  339TIP3    H122576   4.213   6.742   2.048
  339TIP3    H222577   4.144   6.616   1.999
  340TIP3   OH222578   2.963   4.718   8.326
  340TIP3    H122579   2.977   4.692   8.417
  340TIP3    H222580   2.920   4.643   8.285
  341TIP3   OH222581   6.020   1.972   6.831
  341TIP3    H122582   5.937   2.004   6.867
  341TIP3    H222583   5.994   1.921   6.754
  342TIP3   OH222584   6.835   0.032   1.127
  342TIP3    H122585   6.746   0.020   1.160
  342TIP3    H222586   6.872   6.822   1.123
  343TIP3   OH222587   4.253   6.422   6.807
  343TIP3    H122588   4.321   6.490   6.818
  343TIP3    H222589   4.181   6.468   6.764
  344TIP3   OH222590   4.696   1.923   0.102
  344TIP3    H122591   4.601   1.909   0.103
  344TIP3    H222592   4.722   1.906   0.011
  345TIP3   OH222593   3.556   5.221   6.627
  345TIP3    H122594   3.552   5.186   6.716
  345TIP3    H222595   3.502   5.300   6.630
  346TIP3   OH222596   4.102   4.537   0.567
  346TIP3    H122597   4.068   4.509   0.652
  346TIP3    H222598   4.163   4.468   0.541
  347TIP3   OH222599   3.770   2.326   7.676
  347TIP3    H122600   3.752   2.349   7.767
  347TIP3    H222601   3.790   2.409   7.633
  348TIP3   OH222602   5.370   5.267   7.632
  348TIP3    H122603   5.367   5.348   7.581
  348TIP3    H222604   5.280   5.256   7.664
  349TIP3   OH222605   6.271   4.626   1.196
  349TIP3    H122606   6.310   4.639   1.282
  349TIP3    H222607   6.191   4.678   1.198
  350TIP3   OH222608   3.739   2.588   0.746
  350TIP3    H122609   3.656   2.635   0.746
  350TIP3    H222610   3.743   2.547   0.659
  351TIP3   OH222611   4.675   5.405   7.629
  351TIP3    H122612   4.618   5.347   7.680
  351TIP3    H222613   4.617   5.475   7.599
  352TIP3   OH222614   3.170   6.532   7.271
  352TIP3    H122615   3.150   6.587   7.347
  352TIP3    H222616   3.102   6.554   7.208
  353TIP3   OH222617   6.445   6.342   6.706
  353TIP3    H122618   6.395   6.415   6.743
  353TIP3    H222619   6.380   6.291   6.658
  354TIP3   OH222620   4.894   2.277   0.844
  354TIP3    H122621   4.920   2.207   0.904
  354TIP3    H222622   4.905   2.357   0.894
  355TIP3   OH222623   2.582   4.112   7.018
  355TIP3    H122624   2.552   4.164   6.944
  355TIP3    H222625   2.656   4.061   6.984
  356TIP3   OH222626   1.234   1.084   2.350
  356TIP3    H122627   1.315   1.038   2.327
  356TIP3    H222628   1.184   1.088   2.268
  357TIP3   OH222629   4.114   1.767   7.779
  357TIP3    H122630   4.156   1.840   7.734
  357TIP3    H222631   4.091   1.802   7.866
  358TIP3   OH222632   3.279   6.220   0.014
  358TIP3    H122633   3.242   6.245   8.581
  358TIP3    H222634   3.372   6.208   8.648
  359TIP3   OH222635   6.790   2.126   0.911
  359TIP3    H122636   6.740   2.085   0.840
  359TIP3    H222637   0.003   2.102   0.893
  360TIP3   OH222638   2.387   4.482   8.191
  360TIP3    H122639   2.424   4.553   8.139
  360TIP3    H222640   2.293   4.500   8.191
  361TIP3   OH222641   4.543   2.078   1.967
  361TIP3    H122642   4.513   2.113   1.883
  361TIP3    H222643   4.507   2.138   2.032
  362TIP3   OH222644   5.563   1.255   7.147
  362TIP3    H122645   5.507   1.180   7.168
  362TIP3    H222646   5.518   1.298   7.074
  363TIP3   OH222647   4.680   6.335   8.075
  363TIP3    H122648   4.743   6.405   8.064
  363TIP3    H222649   4.701   6.273   8.005
  364TIP3   OH222650   1.619   5.222   6.951
  364TIP3    H122651   1.615   5.313   6.923
  364TIP3    H222652   1.624   5.172   6.869
  365TIP3   OH222653   3.703   2.362   0.262
  365TIP3    H122654   3.693   2.303   0.337
  365TIP3    H222655   3.650   2.439   0.284
  366TIP3   OH222656   5.199   3.556   1.360
  366TIP3    H122657   5.187   3.470   1.399
  366TIP3    H222658   5.111   3.585   1.338
  367TIP3   OH222659   1.263   0.885   6.909
  367TIP3    H122660   1.240   0.878   6.816
  367TIP3    H222661   1.242   0.975   6.933
  368TIP3   OH222662   3.851   0.641   6.810
  368TIP3    H122663   3.923   0.622   6.870
  368TIP3    H222664   3.817   0.726   6.839
  369TIP3   OH222665   1.034   3.659   8.027
  369TIP3    H122666   1.107   3.721   8.022
  369TIP3    H222667   0.961   3.710   8.063
  370TIP3   OH222668   5.762   0.410   1.256
  370TIP3    H122669   5.711   0.436   1.332
  370TIP3    H222670   5.734   0.469   1.186
  371TIP3   OH222671   6.514   4.835   1.345
  371TIP3    H122672   6.568   4.858   1.420
  371TIP3    H222673   6.505   4.916   1.295
  372TIP3   OH222674   0.880   0.924   7.116
  372TIP3    H122675   0.868   0.879   7.032
  372TIP3    H222676   0.795   0.916   7.159
  373TIP3   OH222677   5.204   1.513   8.027
  373TIP3    H122678   5.197   1.496   7.933
  373TIP3    H222679   5.118   1.491   8.062
  374TIP3   OH222680   4.401   3.676   6.427
  374TIP3    H122681   4.308   3.662   6.410
  374TIP3    H222682   4.434   3.590   6.453
  375TIP3   OH222683   2.313   4.616   8.509
  375TIP3    H122684   2.219   4.617   8.524
  375TIP3    H222685   2.323   4.627   8.415
  376TIP3   OH222686   5.233   2.635   1.575
  376TIP3    H122687   5.190   2.595   1.650
  376TIP3    H222688   5.326   2.631   1.596
  377TIP3   OH222689   6.217   4.373   7.163
  377TIP3    H122690   6.210   4.439   7.094
  377TIP3    H222691   6.153   4.306   7.137
  378TIP3   OH222692   3.341   0.701   1.199
  378TIP3    H122693   3.388   0.730   1.121
  378TIP3    H222694   3.375   0.613   1.216
  379TIP3   OH222695   0.592   5.373   6.703
  379TIP3    H122696   0.555   5.291   6.735
  379TIP3    H222697   0.558   5.440   6.762
  380TIP3   OH222698   6.767   5.134   8.101
  380TIP3    H122699   6.751   5.116   8.193
  380TIP3    H222700   6.727   5.219   8.085
  381TIP3   OH222701   0.561   0.593   1.681
  381TIP3    H122702   0.515   0.640   1.611
  381TIP3    H222703   0.623   0.535   1.635
  382TIP3   OH222704   6.331   4.562   8.455
  382TIP3    H122705   6.393   4.615   8.505
  382TIP3    H222706   6.385   4.494   8.414
  383TIP3   OH222707   0.465   2.297   1.237
  383TIP3    H122708   0.376   2.320   1.263
  383TIP3    H222709   0.511   2.282   1.319
  384TIP3   OH222710   4.401   0.634   1.013
  384TIP3    H122711   4.423   0.727   1.006
  384TIP3    H222712   4.310   0.629   0.983
  385TIP3   OH222713   5.893   2.385   0.867
  385TIP3    H122714   5.882   2.304   0.917
  385TIP3    H222715   5.879   2.360   0.776
  386TIP3   OH222716   3.673   4.705   1.082
  386TIP3    H122717   3.662   4.703   1.177
  386TIP3    H222718   3.637   4.622   1.053
  387TIP3   OH222719   6.752   0.031   1.711
  387TIP3    H122720   6.703   6.832   1.682
  387TIP3    H222721   6.753   0.024   1.807
  388TIP3   OH222722   0.891   0.991   8.587
  388TIP3    H122723   0.831   0.919   8.610
  388TIP3    H222724   0.936   0.961   8.508
  389TIP3   OH222725   4.979   3.256   0.420
  389TIP3    H122726   5.049   3.314   0.451
  389TIP3    H222727   4.974   3.187   0.485
  390TIP3   OH222728   2.462   6.005   0.416
  390TIP3    H122729   2.380   5.961   0.393
  390TIP3    H222730   2.495   5.955   0.491
  391TIP3   OH222731   6.005   1.603   1.852
  391TIP3    H122732   5.940   1.660   1.811
  391TIP3    H222733   6.084   1.657   1.858
  392TIP3   OH222734   4.287   2.560   8.386
  392TIP3    H122735   4.380   2.582   8.378
  392TIP3    H222736   4.242   2.644   8.391
  393TIP3   OH222737   6.438   0.165   1.687
  393TIP3    H122738   6.477   0.180   1.601
  393TIP3    H222739   6.470   0.237   1.741
  394TIP3   OH222740   1.731   1.088   7.110
  394TIP3    H122741   1.813   1.056   7.149
  394TIP3    H222742   1.754   1.108   7.020
  395TIP3   OH222743   2.957   1.916   8.146
  395TIP3    H122744   2.889   1.947   8.087
  395TIP3    H222745   3.017   1.867   8.090
  396TIP3   OH222746   4.928   0.238   0.968
  396TIP3    H122747   4.967   0.310   1.019
  396TIP3    H222748   4.890   0.281   0.891
  397TIP3   OH222749   6.271   2.182   7.861
  397TIP3    H122750   6.359   2.220   7.860
  397TIP3    H222751   6.213   2.254   7.835
  398TIP3   OH222752   4.419   1.732   8.059
  398TIP3    H122753   4.356   1.687   8.003
  398TIP3    H222754   4.422   1.679   8.139
  399TIP3   OH222755   1.456   1.655   8.118
  399TIP3    H122756   1.386   1.693   8.172
  399TIP3    H222757   1.511   1.729   8.095
  400TIP3   OH222758   0.600   5.113   7.630
  400TIP3    H122759   0.684   5.115   7.584
  400TIP3    H222760   0.622   5.134   7.721
  401TIP3   OH222761   1.039   4.998   7.788
  401TIP3    H122762   1.055   5.088   7.819
  401TIP3    H222763   1.078   4.995   7.701
  402TIP3   OH222764   6.127   2.267   2.475
  402TIP3    H122765   6.157   2.176   2.476
  402TIP3    H222766   6.032   2.260   2.463
  403TIP3   OH222767   5.900   3.630   1.394
  403TIP3    H122768   5.936   3.553   1.437
  403TIP3    H222769   5.816   3.601   1.358
  404TIP3   OH222770   3.921   1.003   8.495
  404TIP3    H122771   3.835   0.960   8.501
  404TIP3    H222772   3.916   1.075   8.558
  405TIP3   OH222773   0.800   1.423   8.523
  405TIP3    H122774   0.864   1.364   8.563
  405TIP3    H222775   0.733   1.366   8.488
  406TIP3   OH222776   3.128   4.901   7.964
  406TIP3    H122777   3.142   4.852   7.883
  406TIP3    H222778   3.034   4.917   7.966
  407TIP3   OH222779   4.015   3.986   0.224
  407TIP3    H122780   4.040   4.077   0.209
  407TIP3    H222781   4.058   3.938   0.153
  408TIP3   OH222782   2.131   2.166   1.224
  408TIP3    H122783   2.156   2.208   1.306
  408TIP3    H222784   2.213   2.157   1.176
  409TIP3   OH222785   5.188   5.032   6.674
  409TIP3    H122786   5.093   5.042   6.673
  409TIP3    H222787   5.203   4.938   6.663
  410TIP3   OH222788   0.821   4.468   0.137
  410TIP3    H122789   0.840   4.404   0.204
  410TIP3    H222790   0.905   4.507   0.115
  411TIP3   OH222791   5.837   3.565   1.042
  411TIP3    H122792   5.864   3.589   0.954
  411TIP3    H222793   5.821   3.648   1.086
  412TIP3   OH222794   1.660   4.116   7.651
  412TIP3    H122795   1.727   4.175   7.685
  412TIP3    H222796   1.600   4.173   7.602
  413TIP3   OH222797   0.202   6.327   7.764
  413TIP3    H122798   0.264   6.394   7.735
  413TIP3    H222799   0.130   6.376   7.802
  414TIP3   OH222800   6.421   4.396   8.265
  414TIP3    H122801   6.405   4.303   8.284
  414TIP3    H222802   6.493   4.395   8.203
  415TIP3   OH222803   1.506   3.935   7.768
  415TIP3    H122804   1.551   3.985   7.700
  415TIP3    H222805   1.525   3.843   7.746
  416TIP3   OH222806   2.988   6.406   2.189
  416TIP3    H122807   3.036   6.450   2.119
  416TIP3    H222808   2.952   6.477   2.242
  417TIP3   OH222809   0.574   2.773   2.268
  417TIP3    H122810   0.619   2.753   2.350
  417TIP3    H222811   0.594   2.865   2.251
  418TIP3   OH222812   4.094   3.931   1.282
  418TIP3    H122813   4.081   3.838   1.303
  418TIP3    H222814   4.065   3.977   1.361
  419TIP3   OH222815   4.365   3.510   8.422
  419TIP3    H122816   4.331   3.454   8.353
  419TIP3    H222817   4.433   3.458   8.465
  420TIP3   OH222818   6.252   6.227   6.544
  420TIP3    H122819   6.253   6.171   6.466
  420TIP3    H222820   6.166   6.214   6.582
  421TIP3   OH222821   1.463   0.188   7.596
  421TIP3    H122822   1.500   0.233   7.672
  421TIP3    H222823   1.456   0.256   7.529
  422TIP3   OH222824   2.399   0.886   2.409
  422TIP3    H122825   2.414   0.981   2.408
  422TIP3    H222826   2.328   0.875   2.472
  423TIP3   OH222827   2.204   5.745   1.149
  423TIP3    H122828   2.192   5.811   1.082
  423TIP3    H222829   2.127   5.752   1.205
  424TIP3   OH222830   5.633   5.491   0.098
  424TIP3    H122831   5.721   5.484   0.061
  424TIP3    H222832   5.608   5.582   0.082
  425TIP3   OH222833   6.072   3.828   7.837
  425TIP3    H122834   5.999   3.888   7.850
  425TIP3    H222835   6.131   3.845   7.911
  426TIP3   OH222836   3.715   3.383   8.367
  426TIP3    H122837   3.755   3.296   8.361
  426TIP3    H222838   3.662   3.380   8.447
  427TIP3   OH222839   6.857   5.082   0.223
  427TIP3    H122840   0.048   5.134   0.264
  427TIP3    H222841   6.838   5.014   0.287
  428TIP3   OH222842   3.064   6.059   6.109
  428TIP3    H122843   3.063   5.970   6.143
  428TIP3    H222844   3.139   6.100   6.151
  429TIP3   OH222845   1.865   0.778   6.114
  429TIP3    H122846   1.889   0.686   6.118
  429TIP3    H222847   1.770   0.778   6.124
  430TIP3   OH222848   1.251   0.427   8.302
  430TIP3    H122849   1.161   0.431   8.270
  430TIP3    H222850   1.251   0.354   8.364
  431TIP3   OH222851   3.424   0.288   8.613
  431TIP3    H122852   3.431   0.359   8.550
  431TIP3    H222853   3.341   0.245   8.592
  432TIP3   OH222854   0.728   1.293   7.455
  432TIP3    H122855   0.649   1.347   7.448
  432TIP3    H222856   0.800   1.356   7.457
  433TIP3   OH222857   5.942   1.172   1.600
  433TIP3    H122858   5.960   1.258   1.562
  433TIP3    H222859   5.981   1.177   1.688
  434TIP3   OH222860   2.700   2.228   1.480
  434TIP3    H122861   2.718   2.199   1.390
  434TIP3    H222862   2.638   2.301   1.469
  435TIP3   OH222863   1.556   3.664   0.840
  435TIP3    H122864   1.562   3.572   0.865
  435TIP3    H222865   1.562   3.712   0.923
  436TIP3   OH222866   0.372   5.048   2.066
  436TIP3    H122867   0.413   4.962   2.075
  436TIP3    H222868   0.422   5.104   2.125
  437TIP3   OH222869   5.148   3.752   0.151
  437TIP3    H122870   5.127   3.663   0.179
  437TIP3    H222871   5.207   3.785   0.218
  438TIP3   OH222872   3.596   2.911   1.786
  438TIP3    H122873   3.557   2.839   1.837
  438TIP3    H222874   3.590   2.987   1.844
  439TIP3   OH222875   4.965   3.926   7.721
  439TIP3    H122876   4.966   4.018   7.696
  439TIP3    H222877   4.917   3.925   7.804
  440TIP3   OH222878   4.437   6.122   0.074
  440TIP3    H122879   4.349   6.119   0.113
  440TIP3    H222880   4.492   6.075   0.136
  441TIP3   OH222881   0.237   2.687   1.632
  441TIP3    H122882   0.245   2.701   1.726
  441TIP3    H222883   0.143   2.682   1.615
  442TIP3   OH222884   5.477   4.922   0.375
  442TIP3    H122885   5.515   4.955   0.293
  442TIP3    H222886   5.544   4.940   0.441
  443TIP3   OH222887   1.880   4.469   6.983
  443TIP3    H122888   1.826   4.447   7.058
  443TIP3    H222889   1.889   4.564   6.987
  444TIP3   OH222890   2.682   4.232   6.269
  444TIP3    H122891   2.596   4.207   6.236
  444TIP3    H222892   2.678   4.327   6.278
  445TIP3   OH222893   2.394   6.709   6.895
  445TIP3    H122894   2.371   6.800   6.879
  445TIP3    H222895   2.487   6.711   6.917
  446TIP3   OH222896   2.206   5.346   1.505
  446TIP3    H122897   2.257   5.425   1.488
  446TIP3    H222898   2.144   5.372   1.573
  447TIP3   OH222899   0.021   4.685   1.377
  447TIP3    H122900   0.062   4.620   1.435
  447TIP3    H222901   6.847   4.633   1.315
  448TIP3   OH222902   4.894   3.290   8.343
  448TIP3    H122903   4.988   3.307   8.340
  448TIP3    H222904   4.887   3.194   8.347
  449TIP3   OH222905   1.862   5.825   6.751
  449TIP3    H122906   1.854   5.865   6.838
  449TIP3    H222907   1.956   5.821   6.736
  450TIP3   OH222908   5.262   0.782   7.416
  450TIP3    H122909   5.333   0.767   7.478
  450TIP3    H222910   5.278   0.870   7.382
  451TIP3   OH222911   0.058   4.253   7.537
  451TIP3    H122912   0.146   4.282   7.561
  451TIP3    H222913   0.003   4.274   7.613
  452TIP3   OH222914   2.752   2.022   6.897
  452TIP3    H122915   2.831   2.042   6.846
  452TIP3    H222916   2.699   1.967   6.839
  453TIP3   OH222917   3.674   1.150   7.178
  453TIP3    H122918   3.623   1.231   7.184
  453TIP3    H222919   3.720   1.144   7.262
  454TIP3   OH222920   1.852   6.481   0.640
  454TIP3    H122921   1.871   6.392   0.668
  454TIP3    H222922   1.938   6.521   0.628
  455TIP3   OH222923   4.090   5.248   0.823
  455TIP3    H122924   4.080   5.273   0.915
  455TIP3    H222925   4.177   5.210   0.818
  456TIP3   OH222926   5.937   3.117   1.369
  456TIP3    H122927   5.909   3.043   1.422
  456TIP3    H222928   5.870   3.125   1.301
  457TIP3   OH222929   1.333   6.398   1.101
  457TIP3    H122930   1.347   6.339   1.174
  457TIP3    H222931   1.419   6.406   1.059
  458TIP3   OH222932   5.705   0.836   6.550
  458TIP3    H122933   5.708   0.878   6.464
  458TIP3    H222934   5.612   0.833   6.572
  459TIP3   OH222935   6.347   2.877   0.085
  459TIP3    H122936   6.365   2.851   0.175
  459TIP3    H222937   6.326   2.796   0.040
  460TIP3   OH222938   5.562   5.097   1.471
  460TIP3    H122939   5.600   5.051   1.547
  460TIP3    H222940   5.469   5.104   1.492
  461TIP3   OH222941   2.031   0.170   1.961
  461TIP3    H122942   1.987   0.114   2.025
  461TIP3    H222943   2.121   0.176   1.993
  462TIP3   OH222944   3.324   5.124   7.813
  462TIP3    H122945   3.271   5.060   7.859
  462TIP3    H222946   3.272   5.148   7.736
  463TIP3   OH222947   6.740   1.644   8.133
  463TIP3    H122948   6.826   1.611   8.157
  463TIP3    H222949   6.734   1.629   8.038
  464TIP3   OH222950   5.478   3.141   6.864
  464TIP3    H122951   5.502   3.118   6.953
  464TIP3    H222952   5.555   3.185   6.828
  465TIP3   OH222953   1.781   5.233   7.863
  465TIP3    H122954   1.822   5.171   7.802
  465TIP3    H222955   1.851   5.294   7.885
  466TIP3   OH222956   2.935   3.957   7.910
  466TIP3    H122957   2.985   4.011   7.848
  466TIP3    H222958   2.867   3.917   7.857
  467TIP3   OH222959   2.034   2.679   6.317
  467TIP3    H122960   1.973   2.606   6.330
  467TIP3    H222961   2.120   2.639   6.319
  468TIP3   OH222962   6.129   4.097   7.309
  468TIP3    H122963   6.114   4.132   7.396
  468TIP3    H222964   6.144   4.004   7.323
  469TIP3   OH222965   3.872   2.143   2.476
  469TIP3    H122966   3.862   2.212   2.411
  469TIP3    H222967   3.796   2.086   2.464
  470TIP3   OH222968   0.231   1.628   6.904
  470TIP3    H122969   0.275   1.545   6.887
  470TIP3    H222970   0.215   1.666   6.818
  471TIP3   OH222971   5.576   2.930   7.413
  471TIP3    H122972   5.611   2.887   7.335
  471TIP3    H222973   5.581   3.023   7.393
  472TIP3   OH222974   5.711   4.767   1.382
  472TIP3    H122975   5.764   4.791   1.458
  472TIP3    H222976   5.714   4.672   1.379
  473TIP3   OH222977   0.462   4.650   7.514
  473TIP3    H122978   0.510   4.666   7.432
  473TIP3    H222979   0.518   4.690   7.581
  474TIP3   OH222980   1.429   5.085   0.852
  474TIP3    H122981   1.380   5.167   0.838
  474TIP3    H222982   1.381   5.020   0.801
  475TIP3   OH222983   3.775   4.068   0.341
  475TIP3    H122984   3.845   4.080   0.277
  475TIP3    H222985   3.775   3.973   0.358
  476TIP3   OH222986   2.412   0.971   7.448
  476TIP3    H122987   2.433   0.988   7.356
  476TIP3    H222988   2.443   0.882   7.464
  477TIP3   OH222989   6.526   0.286   1.912
  477TIP3    H122990   6.615   0.296   1.947
  477TIP3    H222991   6.479   0.236   1.978
  478TIP3   OH222992   0.053   2.343   1.056
  478TIP3    H122993   6.874   2.277   1.016
  478TIP3    H222994   0.082   2.303   1.138
  479TIP3   OH222995   5.760   6.016   0.966
  479TIP3    H122996   5.787   5.931   1.002
  479TIP3    H222997   5.825   6.034   0.897
  480TIP3   OH222998   5.053   2.364   7.554
  480TIP3    H122999   4.987   2.306   7.592
  480TIP3    H223000   5.036   2.361   7.460
  481TIP3   OH223001   0.019   5.906   7.443
  481TIP3    H123002   6.817   5.868   7.408
  481TIP3    H223003   0.089   5.867   7.390
  482TIP3   OH223004   1.731   1.857   1.342
  482TIP3    H123005   1.642   1.889   1.327
  482TIP3    H223006   1.787   1.930   1.313
  483TIP3   OH223007   2.857   0.046   7.331
  483TIP3    H123008   2.831   0.090   7.412
  483TIP3    H223009   2.782   0.057   7.273
  484TIP3   OH223010   1.079   2.057   7.702
  484TIP3    H123011   1.080   1.989   7.769
  484TIP3    H223012   1.073   2.139   7.751
  485TIP3   OH223013   6.439   0.171   7.356
  485TIP3    H123014   6.517   0.119   7.335
  485TIP3    H223015   6.457   0.257   7.319
  486TIP3   OH223016   2.730   5.563   7.399
  486TIP3    H123017   2.818   5.537   7.428
  486TIP3    H223018   2.734   5.559   7.304
  487TIP3   OH223019   6.229   0.905   0.050
  487TIP3    H123020   6.293   0.841   0.082
  487TIP3    H223021   6.156   0.897   0.111
  488TIP3   OH223022   4.307   3.504   6.152
  488TIP3    H123023   4.342   3.567   6.090
  488TIP3    H223024   4.215   3.529   6.163
  489TIP3   OH223025   2.950   5.441   1.199
  489TIP3    H123026   2.887   5.370   1.208
  489TIP3    H223027   3.035   5.401   1.220
  490TIP3   OH223028   1.650   6.473   6.528
  490TIP3    H123029   1.568   6.518   6.550
  490TIP3    H223030   1.692   6.530   6.463
  491TIP3   OH223031   5.388   0.134   0.296
  491TIP3    H123032   5.439   0.175   0.366
  491TIP3    H223033   5.355   0.207   0.244
  492TIP3   OH223034   6.647   5.928   0.557
  492TIP3    H123035   6.556   5.958   0.554
  492TIP3    H223036   6.649   5.853   0.497
  493TIP3   OH223037   5.937   6.303   0.861
  493TIP3    H123038   5.994   6.351   0.921
  493TIP3    H223039   5.848   6.331   0.884
  494TIP3   OH223040   3.066   0.152   2.215
  494TIP3    H123041   3.015   0.124   2.292
  494TIP3    H223042   3.080   0.246   2.228
  495TIP3   OH223043   5.126   6.869   0.958
  495TIP3    H123044   5.077   0.066   0.923
  495TIP3    H223045   5.177   0.028   1.030
  496TIP3   OH223046   1.836   0.621   7.883
  496TIP3    H123047   1.843   0.558   7.955
  496TIP3    H223048   1.750   0.604   7.845
  497TIP3   OH223049   6.566   4.330   6.311
  497TIP3    H123050   6.584   4.396   6.378
  497TIP3    H223051   6.478   4.351   6.280
  498TIP3   OH223052   3.321   2.982   8.151
  498TIP3    H123053   3.373   3.062   8.147
  498TIP3    H223054   3.242   3.006   8.200
  499TIP3   OH223055   3.999   1.380   7.835
  499TIP3    H123056   3.990   1.296   7.789
  499TIP3    H223057   4.094   1.396   7.837
  500TIP3   OH223058   4.861   2.217   1.751
  500TIP3    H123059   4.907   2.188   1.830
  500TIP3    H223060   4.857   2.312   1.759
  501TIP3   OH223061   4.504   3.701   1.154
  501TIP3    H123062   4.495   3.648   1.233
  501TIP3    H223063   4.454   3.780   1.172
  502TIP3   OH223064   3.396   2.124   1.977
  502TIP3    H123065   3.442   2.042   1.963
  502TIP3    H223066   3.306   2.106   1.951
  503TIP3   OH223067   2.115   0.650   6.713
  503TIP3    H123068   2.198   0.686   6.683
  503TIP3    H223069   2.050   0.718   6.695
  504TIP3   OH223070   6.190   6.553   8.398
  504TIP3    H123071   6.141   6.577   8.476
  504TIP3    H223072   6.248   6.482   8.426
  505TIP3   OH223073   3.268   6.833   1.486
  505TIP3    H123074   3.173   6.827   1.475
  505TIP3    H223075   3.280   0.004   1.567
  506TIP3   OH223076   2.816   1.229   7.163
  506TIP3    H123077   2.910   1.236   7.144
  506TIP3    H223078   2.780   1.184   7.087
  507TIP3   OH223079   3.070   2.849   0.451
  507TIP3    H123080   3.132   2.819   0.384
  507TIP3    H223081   2.996   2.788   0.444
  508TIP3   OH223082   0.202   1.461   7.888
  508TIP3    H123083   0.146   1.428   7.818
  508TIP3    H223084   0.245   1.538   7.852
  509TIP3   OH223085   3.525   1.313   0.746
  509TIP3    H123086   3.611   1.350   0.768
  509TIP3    H223087   3.464   1.385   0.759
  510TIP3   OH223088   6.470   1.630   7.260
  510TIP3    H123089   6.402   1.661   7.319
  510TIP3    H223090   6.442   1.542   7.235
  511TIP3   OH223091   4.762   1.279   1.106
  511TIP3    H123092   4.854   1.286   1.134
  511TIP3    H223093   4.741   1.186   1.114
  512TIP3   OH223094   6.004   6.496   1.042
  512TIP3    H123095   6.024   6.563   0.977
  512TIP3    H223096   5.964   6.545   1.115
  513TIP3   OH223097   2.614   1.642   1.618
  513TIP3    H123098   2.521   1.660   1.631
  513TIP3    H223099   2.659   1.709   1.669
  514TIP3   OH223100   4.147   4.093   6.106
  514TIP3    H123101   4.200   4.030   6.156
  514TIP3    H223102   4.149   4.059   6.017
  515TIP3   OH223103   4.361   3.807   0.678
  515TIP3    H123104   4.415   3.842   0.749
  515TIP3    H223105   4.342   3.883   0.624
  516TIP3   OH223106   5.428   2.352   1.488
  516TIP3    H123107   5.395   2.374   1.575
  516TIP3    H223108   5.350   2.338   1.435
  517TIP3   OH223109   6.042   6.411   7.973
  517TIP3    H123110   6.098   6.336   7.954
  517TIP3    H223111   6.006   6.437   7.888
  518TIP3   OH223112   4.241   3.574   6.852
  518TIP3    H123113   4.198   3.498   6.811
  518TIP3    H223114   4.301   3.606   6.784
  519TIP3   OH223115   1.074   3.120   7.855
  519TIP3    H123116   1.158   3.158   7.828
  519TIP3    H223117   1.064   3.043   7.799
  520TIP3   OH223118   6.169   6.018   2.129
  520TIP3    H123119   6.248   6.064   2.156
  520TIP3    H223120   6.132   5.985   2.211
  521TIP3   OH223121   1.238   5.865   6.425
  521TIP3    H123122   1.327   5.830   6.433
  521TIP3    H223123   1.229   5.888   6.333
  522TIP3   OH223124   1.151   5.983   0.106
  522TIP3    H123125   1.106   6.059   0.144
  522TIP3    H223126   1.084   5.915   0.104
  523TIP3   OH223127   5.390   4.044   7.248
  523TIP3    H123128   5.396   4.121   7.191
  523TIP3    H223129   5.409   4.077   7.336
  524TIP3   OH223130   5.485   3.392   8.429
  524TIP3    H123131   5.496   3.308   8.385
  524TIP3    H223132   5.535   3.384   8.510
  525TIP3   OH223133   3.950   5.697   7.382
  525TIP3    H123134   3.993   5.782   7.392
  525TIP3    H223135   3.877   5.714   7.322
  526TIP3   OH223136   3.968   5.406   2.035
  526TIP3    H123137   4.001   5.318   2.053
  526TIP3    H223138   3.993   5.457   2.112
  527TIP3   OH223139   3.035   3.402   2.246
  527TIP3    H123140   3.012   3.392   2.338
  527TIP3    H223141   3.129   3.421   2.247
  528TIP3   OH223142   3.178   5.797   2.240
  528TIP3    H123143   3.262   5.762   2.270
  528TIP3    H223144   3.114   5.730   2.265
  529TIP3   OH223145   4.394   4.215   1.592
  529TIP3    H123146   4.387   4.131   1.547
  529TIP3    H223147   4.402   4.192   1.684
  530TIP3   OH223148   0.088   3.308   7.851
  530TIP3    H123149   0.026   3.370   7.814
  530TIP3    H223150   0.038   3.227   7.863
  531TIP3   OH223151   6.010   0.325   1.352
  531TIP3    H123152   5.928   0.366   1.326
  531TIP3    H223153   5.984   0.242   1.393
  532TIP3   OH223154   1.102   1.178   7.452
  532TIP3    H123155   1.183   1.133   7.428
  532TIP3    H223156   1.048   1.110   7.493
  533TIP3   OH223157   2.948   0.016   0.475
  533TIP3    H123158   3.028   6.863   0.518
  533TIP3    H223159   2.883   0.021   0.545
  534TIP3   OH223160   1.741   6.651   8.439
  534TIP3    H123161   1.755   6.692   8.353
  534TIP3    H223162   1.776   6.714   8.501
  535TIP3   OH223163   1.293   2.330   2.052
  535TIP3    H123164   1.305   2.385   1.974
  535TIP3    H223165   1.207   2.290   2.040
  536TIP3   OH223166   4.278   4.275   1.223
  536TIP3    H123167   4.262   4.200   1.166
  536TIP3    H223168   4.209   4.269   1.290
  537TIP3   OH223169   3.541   4.509   0.655
  537TIP3    H123170   3.454   4.470   0.659
  537TIP3    H223171   3.555   4.528   0.562
  538TIP3   OH223172   6.264   1.372   8.058
  538TIP3    H123173   6.203   1.428   8.011
  538TIP3    H223174   6.241   1.283   8.030
  539TIP3   OH223175   4.501   5.387   1.865
  539TIP3    H123176   4.457   5.370   1.948
  539TIP3    H223177   4.594   5.373   1.884
  540TIP3   OH223178   5.162   3.308   7.603
  540TIP3    H123179   5.093   3.313   7.536
  540TIP3    H223180   5.158   3.218   7.635
  541TIP3   OH223181   0.166   4.650   0.328
  541TIP3    H123182   0.106   4.654   0.254
  541TIP3    H223183   0.200   4.739   0.337
  542TIP3   OH223184   1.456   4.900   1.870
  542TIP3    H123185   1.494   4.812   1.866
  542TIP3    H223186   1.387   4.893   1.935
  543TIP3   OH223187   5.343   0.492   0.696
  543TIP3    H123188   5.433   0.465   0.715
  543TIP3    H223189   5.346   0.524   0.606
  544TIP3   OH223190   5.476   0.040   1.015
  544TIP3    H123191   5.413   0.084   0.958
  544TIP3    H223192   5.426   0.016   1.093
  545TIP3   OH223193   3.355   0.603   7.003
  545TIP3    H123194   3.440   0.559   7.006
  545TIP3    H223195   3.348   0.648   7.087
  546TIP3   OH223196   3.986   1.156   1.324
  546TIP3    H123197   4.065   1.189   1.281
  546TIP3    H223198   3.925   1.230   1.320
  547TIP3   OH223199   4.933   3.632   0.576
  547TIP3    H123200   4.894   3.595   0.497
  547TIP3    H223201   4.902   3.723   0.578
  548TIP3   OH223202   6.820   0.486   7.448
  548TIP3    H123203   6.831   0.420   7.380
  548TIP3    H223204   0.020   0.542   7.438
  549TIP3   OH223205   1.180   1.956   8.500
  549TIP3    H123206   1.146   1.870   8.525
  549TIP3    H223207   1.261   1.937   8.452
  550TIP3   OH223208   0.790   6.215   0.098
  550TIP3    H123209   0.763   6.243   0.185
  550TIP3    H223210   0.858   6.149   0.114
  551TIP3   OH223211   6.547   4.881   8.091
  551TIP3    H123212   6.478   4.844   8.146
  551TIP3    H223213   6.626   4.876   8.146
  552TIP3   OH223214   3.289   4.221   7.127
  552TIP3    H123215   3.325   4.140   7.090
  552TIP3    H223216   3.247   4.265   7.052
  553TIP3   OH223217   6.638   6.759   0.506
  553TIP3    H123218   6.713   6.712   0.471
  553TIP3    H223219   6.666   6.786   0.594
  554TIP3   OH223220   1.601   4.599   1.048
  554TIP3    H123221   1.516   4.559   1.067
  554TIP3    H223222   1.631   4.632   1.133
  555TIP3   OH223223   0.482   6.433   7.454
  555TIP3    H123224   0.484   6.391   7.368
  555TIP3    H223225   0.401   6.484   7.453
  556TIP3   OH223226   4.997   3.630   8.284
  556TIP3    H123227   5.081   3.589   8.263
  556TIP3    H223228   4.975   3.596   8.371
  557TIP3   OH223229   2.777   3.315   0.221
  557TIP3    H123230   2.818   3.229   0.231
  557TIP3    H223231   2.772   3.350   0.310
  558TIP3   OH223232   3.006   5.701   1.279
  558TIP3    H123233   3.001   5.609   1.254
  558TIP3    H223234   2.978   5.748   1.200
  559TIP3   OH223235   3.150   4.487   1.149
  559TIP3    H123236   3.149   4.494   1.054
  559TIP3    H223237   3.121   4.397   1.166
  560TIP3   OH223238   6.827   1.603   1.749
  560TIP3    H123239   6.832   1.560   1.834
  560TIP3    H223240   6.826   1.532   1.686
  561TIP3   OH223241   3.816   5.647   0.695
  561TIP3    H123242   3.766   5.572   0.662
  561TIP3    H223243   3.845   5.693   0.616
  562TIP3   OH223244   0.642   6.398   8.561
  562TIP3    H123245   0.681   6.337   8.623
  562TIP3    H223246   0.641   6.351   8.477
  563TIP3   OH223247   5.735   2.565   6.710
  563TIP3    H123248   5.694   2.510   6.643
  563TIP3    H223249   5.702   2.653   6.691
  564TIP3   OH223250   5.664   4.817   0.026
  564TIP3    H123251   5.755   4.807   8.649
  564TIP3    H223252   5.627   4.729   0.020
  565TIP3   OH223253   3.243   1.336   0.089
  565TIP3    H123254   3.250   1.241   0.079
  565TIP3    H223255   3.172   1.348   0.153
  566TIP3   OH223256   4.677   4.802   1.255
  566TIP3    H123257   4.741   4.757   1.310
  566TIP3    H223258   4.670   4.747   1.177
  567TIP3   OH223259   0.244   3.047   2.036
  567TIP3    H123260   0.214   3.017   2.122
  567TIP3    H223261   0.307   3.117   2.056
  568TIP3   OH223262   2.304   5.885   1.806
  568TIP3    H123263   2.247   5.867   1.731
  568TIP3    H223264   2.380   5.829   1.792
  569TIP3   OH223265   0.343   5.775   7.772
  569TIP3    H123266   0.405   5.711   7.805
  569TIP3    H223267   0.317   5.826   7.849
  570TIP3   OH223268   0.506   3.579   0.926
  570TIP3    H123269   0.575   3.516   0.948
  570TIP3    H223270   0.455   3.536   0.857
  571TIP3   OH223271   0.719   1.382   1.994
  571TIP3    H123272   0.784   1.315   2.015
  571TIP3    H223273   0.648   1.368   2.056
  572TIP3   OH223274   0.578   3.502   1.403
  572TIP3    H123275   0.514   3.527   1.336
  572TIP3    H223276   0.593   3.409   1.389
  573TIP3   OH223277   5.305   4.927   7.349
  573TIP3    H123278   5.322   4.971   7.266
  573TIP3    H223279   5.365   4.852   7.349
  574TIP3   OH223280   2.814   2.675   1.522
  574TIP3    H123281   2.873   2.750   1.528
  574TIP3    H223282   2.866   2.607   1.478
  575TIP3   OH223283   2.697   2.252   0.103
  575TIP3    H123284   2.632   2.316   0.075
  575TIP3    H223285   2.726   2.210   0.022
  576TIP3   OH223286   4.598   5.285   0.402
  576TIP3    H123287   4.517   5.293   0.452
  576TIP3    H223288   4.631   5.198   0.423
  577TIP3   OH223289   6.155   0.661   0.290
  577TIP3    H123290   6.088   0.699   0.234
  577TIP3    H223291   6.195   0.592   0.236
  578TIP3   OH223292   3.218   1.717   8.187
  578TIP3    H123293   3.307   1.691   8.165
  578TIP3    H223294   3.166   1.689   8.111
  579TIP3   OH223295   0.212   4.282   7.025
  579TIP3    H123296   0.215   4.243   6.937
  579TIP3    H223297   0.163   4.363   7.014
  580TIP3   OH223298   1.280   0.080   0.746
  580TIP3    H123299   1.199   0.084   0.695
  580TIP3    H223300   1.299   0.171   0.768
  581TIP3   OH223301   1.455   1.032   7.178
  581TIP3    H123302   1.540   1.034   7.136
  581TIP3    H223303   1.464   1.089   7.255
  582TIP3   OH223304   4.325   2.239   7.317
  582TIP3    H123305   4.395   2.301   7.296
  582TIP3    H223306   4.280   2.225   7.233
  583TIP3   OH223307   3.017   2.005   7.528
  583TIP3    H123308   3.104   2.043   7.516
  583TIP3    H223309   3.033   1.914   7.553
  584TIP3   OH223310   1.905   6.460   7.212
  584TIP3    H123311   1.882   6.552   7.194
  584TIP3    H223312   1.871   6.412   7.137
  585TIP3   OH223313   3.621   3.604   0.264
  585TIP3    H123314   3.632   3.686   0.311
  585TIP3    H223315   3.696   3.600   0.205
  586TIP3   OH223316   1.066   4.756   0.839
  586TIP3    H123317   1.020   4.840   0.848
  586TIP3    H223318   1.147   4.768   0.889
  587TIP3   OH223319   5.340   1.310   8.616
  587TIP3    H123320   5.307   1.396   8.591
  587TIP3    H223321   5.429   1.307   8.581
  588TIP3   OH223322   6.226   1.610   0.524
  588TIP3    H123323   6.252   1.525   0.489
  588TIP3    H223324   6.301   1.637   0.577
  589TIP3   OH223325   4.599   3.583   1.659
  589TIP3    H123326   4.530   3.604   1.723
  589TIP3    H223327   4.621   3.492   1.676
  590TIP3   OH223328   6.293   1.348   0.420
  590TIP3    H123329   6.344   1.404   0.363
  590TIP3    H223330   6.268   1.273   0.365
  591TIP3   OH223331   1.055   5.637   0.992
  591TIP3    H123332   0.997   5.633   0.916
  591TIP3    H223333   1.123   5.700   0.967
  592TIP3   OH223334   4.760   4.910   8.200
  592TIP3    H123335   4.730   4.958   8.277
  592TIP3    H223336   4.779   4.822   8.234
  593TIP3   OH223337   3.321   4.336   1.996
  593TIP3    H123338   3.371   4.417   1.993
  593TIP3    H223339   3.230   4.363   1.985
  594TIP3   OH223340   5.487   6.042   8.431
  594TIP3    H123341   5.488   6.053   8.526
  594TIP3    H223342   5.443   5.958   8.417
  595TIP3   OH223343   2.382   0.234   0.462
  595TIP3    H123344   2.341   0.170   0.520
  595TIP3    H223345   2.475   0.211   0.463
  596TIP3   OH223346   5.173   0.686   8.645
  596TIP3    H123347   5.089   0.716   0.028
  596TIP3    H223348   5.179   0.594   0.019
  597TIP3   OH223349   6.537   4.032   0.168
  597TIP3    H123350   6.460   4.085   0.146
  597TIP3    H223351   6.504   3.943   0.176
  598TIP3   OH223352   1.834   4.267   1.466
  598TIP3    H123353   1.814   4.237   1.554
  598TIP3    H223354   1.751   4.258   1.418
  599TIP3   OH223355   6.271   6.582   8.088
  599TIP3    H123356   6.257   6.663   8.038
  599TIP3    H223357   6.337   6.534   8.038
  600TIP3   OH223358   0.800   0.769   6.873
  600TIP3    H123359   0.714   0.795   6.839
  600TIP3    H223360   0.857   0.768   6.797
  601TIP3   OH223361   0.308   5.067   7.808
  601TIP3    H123362   0.321   5.159   7.786
  601TIP3    H223363   0.305   5.065   7.903
  602TIP3   OH223364   2.099   4.229   1.368
  602TIP3    H123365   2.119   4.223   1.461
  602TIP3    H223366   2.003   4.234   1.364
  603TIP3   OH223367   6.077   3.188   7.236
  603TIP3    H123368   6.126   3.108   7.215
  603TIP3    H223369   6.140   3.258   7.224
  604TIP3   OH223370   2.123   2.008   2.334
  604TIP3    H123371   2.199   1.975   2.382
  604TIP3    H223372   2.122   2.102   2.353
  605TIP3   OH223373   4.462   0.854   0.419
  605TIP3    H123374   4.371   0.828   0.409
  605TIP3    H223375   4.494   0.803   0.494
  606TIP3   OH223376   4.074   6.383   1.440
  606TIP3    H123377   4.146   6.335   1.400
  606TIP3    H223378   4.002   6.320   1.441
  607TIP3   OH223379   4.549   0.988   1.739
  607TIP3    H123380   4.464   1.018   1.771
  607TIP3    H223381   4.611   1.054   1.768
  608TIP3   OH223382   5.796   4.536   0.789
  608TIP3    H123383   5.885   4.512   0.765
  608TIP3    H223384   5.806   4.617   0.840
  609TIP3   OH223385   2.352   5.799   7.848
  609TIP3    H123386   2.277   5.858   7.853
  609TIP3    H223387   2.330   5.726   7.906
  610TIP3   OH223388   6.805   6.792   0.723
  610TIP3    H123389   0.001   6.831   0.676
  610TIP3    H223390   6.831   6.701   0.737
  611TIP3   OH223391   2.599   1.768   8.175
  611TIP3    H123392   2.576   1.840   8.116
  611TIP3    H223393   2.645   1.705   8.119
  612TIP3   OH223394   0.197   5.284   8.111
  612TIP3    H123395   0.134   5.246   8.172
  612TIP3    H223396   0.258   5.212   8.093
  613TIP3   OH223397   4.215   6.270   7.321
  613TIP3    H123398   4.260   6.238   7.243
  613TIP3    H223399   4.136   6.216   7.328
  614TIP3   OH223400   2.407   6.196   0.692
  614TIP3    H123401   2.345   6.171   0.623
  614TIP3    H223402   2.396   6.129   0.760
  615TIP3   OH223403   6.823   3.229   0.260
  615TIP3    H123404   6.831   3.154   0.201
  615TIP3    H223405   6.803   3.190   0.345
  616TIP3   OH223406   6.453   0.400   1.340
  616TIP3    H123407   6.464   0.434   1.251
  616TIP3    H223408   6.479   0.308   1.334
  617TIP3   OH223409   0.397   0.129   0.536
  617TIP3    H123410   0.461   0.107   0.604
  617TIP3    H223411   0.319   0.078   0.559
  618TIP3   OH223412   5.036   3.552   7.350
  618TIP3    H123413   5.057   3.588   7.436
  618TIP3    H223414   4.988   3.622   7.305
  619TIP3   OH223415   3.032   2.318   7.094
  619TIP3    H123416   3.062   2.257   7.161
  619TIP3    H223417   2.965   2.371   7.137
  620TIP3   OH223418   4.677   6.708   7.931
  620TIP3    H123419   4.597   6.726   7.881
  620TIP3    H223420   4.743   6.765   7.892
  621TIP3   OH223421   0.116   5.244   7.491
  621TIP3    H123422   0.132   5.338   7.504
  621TIP3    H223423   0.202   5.208   7.469
  622TIP3   OH223424   3.425   2.640   0.066
  622TIP3    H123425   3.514   2.608   0.084
  622TIP3    H223426   3.439   2.718   0.012
  623TIP3   OH223427   4.748   2.231   6.571
  623TIP3    H123428   4.680   2.297   6.563
  623TIP3    H223429   4.706   2.149   6.545
  624TIP3   OH223430   5.596   0.228   1.936
  624TIP3    H123431   5.598   0.248   2.030
  624TIP3    H223432   5.503   0.221   1.915
  625TIP3   OH223433   4.303   0.310   7.012
  625TIP3    H123434   4.306   0.384   6.951
  625TIP3    H223435   4.392   0.303   7.045
  626TIP3   OH223436   5.302   6.755   2.583
  626TIP3    H123437   5.398   6.759   2.575
  626TIP3    H223438   5.283   6.806   2.661
  627TIP3   OH223439   3.342   0.582   0.084
  627TIP3    H123440   3.253   0.560   0.056
  627TIP3    H223441   3.332   0.613   0.174
  628TIP3   OH223442   0.386   1.543   8.389
  628TIP3    H123443   0.324   1.470   8.383
  628TIP3    H223444   0.349   1.612   8.335
  629TIP3   OH223445   3.617   1.452   1.725
  629TIP3    H123446   3.711   1.442   1.738
  629TIP3    H223447   3.609   1.527   1.665
  630TIP3   OH223448   0.122   3.589   7.156
  630TIP3    H123449   0.043   3.540   7.177
  630TIP3    H223450   0.110   3.616   7.065
  631TIP3   OH223451   0.149   6.169   1.563
  631TIP3    H123452   0.199   6.113   1.622
  631TIP3    H223453   0.169   6.136   1.475
  632TIP3   OH223454   5.157   0.673   1.909
  632TIP3    H123455   5.071   0.661   1.949
  632TIP3    H223456   5.139   0.727   1.832
  633TIP3   OH223457   1.933   3.455   1.582
  633TIP3    H123458   1.881   3.466   1.661
  633TIP3    H223459   1.908   3.528   1.526
  634TIP3   OH223460   2.355   6.657   6.629
  634TIP3    H123461   2.448   6.637   6.620
  634TIP3    H223462   2.345   6.686   6.720
  635TIP3   OH223463   3.095   5.929   7.052
  635TIP3    H123464   3.031   5.861   7.075
  635TIP3    H223465   3.142   5.945   7.134
  636TIP3   OH223466   0.288   0.448   8.289
  636TIP3    H123467   0.284   0.417   8.198
  636TIP3    H223468   0.353   0.391   8.331
  637TIP3   OH223469   4.041   3.674   0.376
  637TIP3    H123470   3.946   3.661   0.387
  637TIP3    H223471   4.064   3.735   0.446
  638TIP3   OH223472   4.953   2.809   7.579
  638TIP3    H123473   5.041   2.847   7.587
  638TIP3    H223474   4.961   2.746   7.508
  639TIP3   OH223475   5.918   4.699   8.581
  639TIP3    H123476   5.957   4.694   8.494
  639TIP3    H223477   5.976   4.647   8.636
  640TIP3   OH223478   0.309   1.484   0.999
  640TIP3    H123479   0.240   1.514   1.059
  640TIP3    H223480   0.315   1.553   0.933
  641TIP3   OH223481   1.207   4.014   7.060
  641TIP3    H123482   1.283   4.043   7.110
  641TIP3    H223483   1.136   4.011   7.124
  642TIP3   OH223484   1.594   3.282   0.369
  642TIP3    H123485   1.597   3.312   0.460
  642TIP3    H223486   1.653   3.341   0.322
  643TIP3   OH223487   2.178   5.340   1.199
  643TIP3    H123488   2.227   5.351   1.281
  643TIP3    H223489   2.240   5.300   1.139
  644TIP3   OH223490   2.925   4.444   1.651
  644TIP3    H123491   2.892   4.526   1.613
  644TIP3    H223492   2.862   4.422   1.720
  645TIP3   OH223493   3.494   4.845   7.429
  645TIP3    H123494   3.552   4.769   7.436
  645TIP3    H223495   3.536   4.912   7.482
  646TIP3   OH223496   0.342   3.489   1.240
  646TIP3    H123497   0.388   3.421   1.191
  646TIP3    H223498   0.277   3.523   1.178
  647TIP3   OH223499   2.287   5.689   0.398
  647TIP3    H123500   2.281   5.638   0.317
  647TIP3    H223501   2.378   5.680   0.425
  648TIP3   OH223502   4.602   4.277   1.835
  648TIP3    H123503   4.562   4.289   1.921
  648TIP3    H223504   4.587   4.184   1.814
  649TIP3   OH223505   1.742   3.108   6.585
  649TIP3    H123506   1.768   3.016   6.581
  649TIP3    H223507   1.794   3.151   6.518
  650TIP3   OH223508   3.313   2.572   1.651
  650TIP3    H123509   3.293   2.482   1.626
  650TIP3    H223510   3.241   2.624   1.615
  651TIP3   OH223511   6.742   0.567   2.437
  651TIP3    H123512   6.710   0.653   2.466
  651TIP3    H223513   6.709   0.506   2.502
  652TIP3   OH223514   5.542   0.583   8.582
  652TIP3    H123515   5.472   0.550   8.638
  652TIP3    H223516   5.580   0.505   8.541
  653TIP3   OH223517   2.209   5.464   6.568
  653TIP3    H123518   2.145   5.513   6.516
  653TIP3    H223519   2.282   5.449   6.508
  654TIP3   OH223520   0.256   6.730   0.946
  654TIP3    H123521   0.341   6.690   0.963
  654TIP3    H223522   0.272   6.825   0.953
  655TIP3   OH223523   2.897   1.262   6.513
  655TIP3    H123524   2.923   1.330   6.450
  655TIP3    H223525   2.905   1.180   6.464
  656TIP3   OH223526   5.964   1.654   0.602
  656TIP3    H123527   5.939   1.738   0.565
  656TIP3    H223528   6.046   1.632   0.557
  657TIP3   OH223529   1.343   3.906   0.784
  657TIP3    H123530   1.431   3.886   0.815
  657TIP3    H223531   1.286   3.887   0.858
  658TIP3   OH223532   3.247   2.411   6.442
  658TIP3    H123533   3.288   2.457   6.514
  658TIP3    H223534   3.292   2.326   6.438
  659TIP3   OH223535   5.490   0.224   6.908
  659TIP3    H123536   5.512   0.213   6.816
  659TIP3    H223537   5.431   0.299   6.910
  660TIP3   OH223538   3.035   3.159   8.607
  660TIP3    H123539   3.038   3.249   8.638
  660TIP3    H223540   2.989   3.111   0.026
  661TIP3   OH223541   1.569   5.577   7.116
  661TIP3    H123542   1.561   5.663   7.158
  661TIP3    H223543   1.537   5.591   7.027
  662TIP3   OH223544   5.036   5.198   7.032
  662TIP3    H123545   5.096   5.272   7.021
  662TIP3    H223546   4.972   5.209   6.961
  663TIP3   OH223547   0.048   4.158   0.822
  663TIP3    H123548   0.080   4.153   0.912
  663TIP3    H223549   0.107   4.220   0.778
  664TIP3   OH223550   3.809   6.685   6.823
  664TIP3    H123551   3.836   6.705   6.733
  664TIP3    H223552   3.835   6.594   6.836
  665TIP3   OH223553   3.529   3.698   8.616
  665TIP3    H123554   3.583   3.629   8.577
  665TIP3    H223555   3.477   3.653   0.031
  666TIP3   OH223556   5.842   0.512   0.755
  666TIP3    H123557   5.863   0.594   0.710
  666TIP3    H223558   5.924   0.486   0.797
  667TIP3   OH223559   5.527   6.630   8.378
  667TIP3    H123560   5.526   6.614   8.284
  667TIP3    H223561   5.496   6.720   8.387
  668TIP3   OH223562   4.548   0.830   8.295
  668TIP3    H123563   4.632   0.833   8.250
  668TIP3    H223564   4.490   0.782   8.235
  669TIP3   OH223565   6.228   6.765   1.908
  669TIP3    H123566   6.232   6.680   1.863
  669TIP3    H223567   6.317   6.800   1.899
  670TIP3   OH223568   3.143   2.898   1.240
  670TIP3    H123569   3.049   2.908   1.222
  670TIP3    H223570   3.185   2.924   1.158
  671TIP3   OH223571   0.044   2.772   0.163
  671TIP3    H123572   0.063   2.708   0.094
  671TIP3    H223573   0.018   2.851   0.116
  672TIP3   OH223574   5.783   4.728   7.697
  672TIP3    H123575   5.815   4.815   7.676
  672TIP3    H223576   5.771   4.729   7.792
  673TIP3   OH223577   1.631   5.503   0.020
  673TIP3    H123578   1.632   5.588   8.628
  673TIP3    H223579   1.538   5.482   0.027
  674TIP3   OH223580   4.326   5.276   0.581
  674TIP3    H123581   4.314   5.234   0.666
  674TIP3    H223582   4.278   5.358   0.588
  675TIP3   OH223583   1.799   6.755   7.647
  675TIP3    H123584   1.819   6.704   7.726
  675TIP3    H223585   1.855   6.718   7.579
  676TIP3   OH223586   5.766   2.138   7.528
  676TIP3    H123587   5.692   2.136   7.588
  676TIP3    H223588   5.844   2.127   7.583
  677TIP3   OH223589   2.493   1.965   6.545
  677TIP3    H123590   2.519   2.053   6.520
  677TIP3    H223591   2.399   1.962   6.530
  678TIP3   OH223592   5.371   1.584   0.803
  678TIP3    H123593   5.411   1.642   0.738
  678TIP3    H223594   5.435   1.578   0.873
  679TIP3   OH223595   4.523   1.094   0.560
  679TIP3    H123596   4.509   1.016   0.507
  679TIP3    H223597   4.436   1.117   0.593
  680TIP3   OH223598   2.484   1.950   7.103
  680TIP3    H123599   2.523   1.862   7.100
  680TIP3    H223600   2.406   1.943   7.049
  681TIP3   OH223601   4.849   2.793   8.550
  681TIP3    H123602   4.872   2.803   8.643
  681TIP3    H223603   4.797   2.713   8.548
  682TIP3   OH223604   3.336   5.015   0.076
  682TIP3    H123605   3.250   5.059   0.075
  682TIP3    H223606   3.344   4.979   8.639
  683TIP3   OH223607   4.331   2.581   0.057
  683TIP3    H123608   4.368   2.655   0.008
  683TIP3    H223609   4.249   2.614   0.092
  684TIP3   OH223610   5.050   0.951   6.395
  684TIP3    H123611   5.012   0.868   6.368
  684TIP3    H223612   5.143   0.932   6.408
  685TIP3   OH223613   4.364   5.535   1.537
  685TIP3    H123614   4.292   5.591   1.567
  685TIP3    H223615   4.443   5.582   1.564
  686TIP3   OH223616   3.679   2.398   8.543
  686TIP3    H123617   3.743   2.361   8.603
  686TIP3    H223618   3.594   2.378   8.583
  687TIP3   OH223619   4.494   3.285   8.503
  687TIP3    H123620   4.578   3.272   8.547
  687TIP3    H223621   4.429   3.275   8.572
  688TIP3   OH223622   1.497   6.262   6.346
  688TIP3    H123623   1.549   6.331   6.306
  688TIP3    H223624   1.419   6.307   6.378
  689TIP3   OH223625   3.828   6.136   8.373
  689TIP3    H123626   3.806   6.106   8.285
  689TIP3    H223627   3.916   6.173   8.365
  690TIP3   OH223628   0.086   1.916   1.091
  690TIP3    H123629   0.179   1.931   1.105
  690TIP3    H223630   0.076   1.913   0.996
  691TIP3   OH223631   2.442   6.556   7.688
  691TIP3    H123632   2.463   6.521   7.775
  691TIP3    H223633   2.366   6.612   7.703
  692TIP3   OH223634   6.400   5.652   1.156
  692TIP3    H123635   6.338   5.665   1.227
  692TIP3    H223636   6.350   5.610   1.086
  693TIP3   OH223637   4.093   3.702   0.908
  693TIP3    H123638   4.015   3.738   0.950
  693TIP3    H223639   4.117   3.767   0.842
  694TIP3   OH223640   5.653   4.017   0.924
  694TIP3    H123641   5.711   4.067   0.867
  694TIP3    H223642   5.565   4.037   0.892
  695TIP3   OH223643   1.582   3.655   0.418
  695TIP3    H123644   1.635   3.600   0.360
  695TIP3    H223645   1.617   3.640   0.505
  696TIP3   OH223646   3.288   6.324   1.134
  696TIP3    H123647   3.287   6.291   1.224
  696TIP3    H223648   3.206   6.292   1.096
  697TIP3   OH223649   1.538   5.816   7.245
  697TIP3    H123650   1.610   5.825   7.307
  697TIP3    H223651   1.577   5.841   7.161
  698TIP3   OH223652   6.212   3.621   8.159
  698TIP3    H123653   6.216   3.716   8.146
  698TIP3    H223654   6.303   3.596   8.178
  699TIP3   OH223655   5.035   5.787   0.355
  699TIP3    H123656   4.987   5.851   0.408
  699TIP3    H223657   5.002   5.702   0.384
  700TIP3   OH223658   3.505   2.630   1.826
  700TIP3    H123659   3.415   2.606   1.805
  700TIP3    H223660   3.556   2.596   1.752
  701TIP3   OH223661   4.646   3.648   8.452
  701TIP3    H123662   4.602   3.728   8.425
  701TIP3    H223663   4.641   3.591   8.375
  702TIP3   OH223664   6.358   2.145   0.102
  702TIP3    H123665   6.437   2.195   0.087
  702TIP3    H223666   6.370   2.108   0.190
  703TIP3   OH223667   5.005   0.610   7.267
  703TIP3    H123668   4.981   0.690   7.220
  703TIP3    H223669   4.976   0.625   7.357
  704TIP3   OH223670   5.637   6.250   0.114
  704TIP3    H123671   5.571   6.318   0.116
  704TIP3    H223672   5.698   6.273   0.185
  705TIP3   OH223673   0.601   1.242   0.090
  705TIP3    H123674   0.569   1.315   0.036
  705TIP3    H223675   0.536   1.173   0.076
  706TIP3   OH223676   1.818   0.684   6.597
  706TIP3    H123677   1.821   0.631   6.518
  706TIP3    H223678   1.874   0.760   6.578
  707TIP3   OH223679   5.857   4.954   7.551
  707TIP3    H123680   5.886   5.042   7.574
  707TIP3    H223681   5.805   4.965   7.472
  708TIP3   OH223682   3.046   3.779   5.849
  708TIP3    H123683   2.981   3.736   5.794
  708TIP3    H223684   3.106   3.822   5.788
  709TIP3   OH223685   2.260   6.254   7.229
  709TIP3    H123686   2.221   6.263   7.142
  709TIP3    H223687   2.350   6.286   7.219
  710TIP3   OH223688   1.868   4.919   6.429
  710TIP3    H123689   1.849   4.841   6.377
  710TIP3    H223690   1.782   4.959   6.445
  711TIP3   OH223691   4.155   0.838   1.755
  711TIP3    H123692   4.075   0.888   1.745
  711TIP3    H223693   4.142   0.787   1.835
  712TIP3   OH223694   5.536   3.774   6.694
  712TIP3    H123695   5.459   3.816   6.732
  712TIP3    H223696   5.608   3.831   6.718
  713TIP3   OH223697   1.342   4.927   8.203
  713TIP3    H123698   1.406   4.994   8.178
  713TIP3    H223699   1.360   4.912   8.296
  714TIP3   OH223700   0.258   6.220   7.518
  714TIP3    H123701   0.238   6.233   7.610
  714TIP3    H223702   0.351   6.241   7.509
  715TIP3   OH223703   1.749   1.745   8.335
  715TIP3    H123704   1.656   1.754   8.354
  715TIP3    H223705   1.777   1.834   8.312
  716TIP3   OH223706   0.383   6.763   6.882
  716TIP3    H123707   0.348   6.846   6.851
  716TIP3    H223708   0.468   6.755   6.840
  717TIP3   OH223709   3.789   5.713   0.095
  717TIP3    H123710   3.806   5.619   0.089
  717TIP3    H223711   3.745   5.735   0.013
  718TIP3   OH223712   1.086   3.906   8.377
  718TIP3    H123713   1.107   3.971   8.310
  718TIP3    H223714   1.042   3.956   8.446
  719TIP3   OH223715   5.983   4.994   0.224
  719TIP3    H123716   6.007   5.035   0.141
  719TIP3    H223717   5.887   4.998   0.225
  720TIP3   OH223718   6.564   0.164   1.456
  720TIP3    H123719   6.632   0.098   1.438
  720TIP3    H223720   6.495   0.144   1.392
  721TIP3   OH223721   1.493   3.537   1.130
  721TIP3    H123722   1.423   3.496   1.079
  721TIP3    H223723   1.447   3.584   1.200
  722TIP3   OH223724   2.572   0.592   1.376
  722TIP3    H123725   2.626   0.607   1.298
  722TIP3    H223726   2.613   0.518   1.419
  723TIP3   OH223727   6.570   1.850   8.080
  723TIP3    H123728   6.542   1.805   8.000
  723TIP3    H223729   6.619   1.785   8.129
  724TIP3   OH223730   6.786   0.284   2.028
  724TIP3    H123731   6.742   0.255   2.107
  724TIP3    H223732   6.867   0.233   2.024
  725TIP3   OH223733   2.433   4.062   8.133
  725TIP3    H123734   2.493   3.990   8.115
  725TIP3    H223735   2.351   4.037   8.091
  726TIP3   OH223736   0.823   3.866   7.447
  726TIP3    H123737   0.852   3.780   7.479
  726TIP3    H223738   0.738   3.849   7.406
  727TIP3   OH223739   6.538   5.623   7.914
  727TIP3    H123740   6.589   5.676   7.853
  727TIP3    H223741   6.479   5.686   7.956
  728TIP3   OH223742   0.262   1.688   0.825
  728TIP3    H123743   0.180   1.731   0.848
  728TIP3    H223744   0.310   1.754   0.773
  729TIP3   OH223745   3.494   4.793   7.796
  729TIP3    H123746   3.476   4.887   7.789
  729TIP3    H223747   3.529   4.783   7.885
  730TIP3   OH223748   3.836   0.158   1.822
  730TIP3    H123749   3.786   0.149   1.903
  730TIP3    H223750   3.909   0.095   1.832
  731TIP3   OH223751   0.785   6.783   8.423
  731TIP3    H123752   0.734   6.774   8.342
  731TIP3    H223753   0.729   6.746   8.491
  732TIP3   OH223754   5.102   6.790   7.201
  732TIP3    H123755   5.008   6.808   7.199
  732TIP3    H223756   5.138   6.853   7.264
  733TIP3   OH223757   3.452   0.404   1.354
  733TIP3    H123758   3.371   0.377   1.398
  733TIP3    H223759   3.521   0.356   1.401
  734TIP3   OH223760   4.375   0.460   1.238
  734TIP3    H123761   4.387   0.508   1.156
  734TIP3    H223762   4.443   0.495   1.295
  735TIP3   OH223763   6.413   1.131   0.072
  735TIP3    H123764   6.351   1.065   0.040
  735TIP3    H223765   6.378   1.157   0.157
  736TIP3   OH223766   4.648   1.074   2.074
  736TIP3    H123767   4.641   1.143   2.008
  736TIP3    H223768   4.603   1.110   2.150
  737TIP3   OH223769   6.315   1.070   0.341
  737TIP3    H123770   6.246   1.004   0.332
  737TIP3    H223771   6.356   1.049   0.425
  738TIP3   OH223772   2.295   5.791   8.381
  738TIP3    H123773   2.340   5.710   8.406
  738TIP3    H223774   2.365   5.855   8.369
  739TIP3   OH223775   6.493   5.315   0.949
  739TIP3    H123776   6.405   5.349   0.940
  739TIP3    H223777   6.499   5.284   1.039
  740TIP3   OH223778   5.537   2.668   7.279
  740TIP3    H123779   5.528   2.583   7.237
  740TIP3    H223780   5.631   2.687   7.276
  741TIP3   OH223781   1.752   5.164   0.298
  741TIP3    H123782   1.713   5.250   0.314
  741TIP3    H223783   1.777   5.133   0.384
  742TIP3   OH223784   3.005   3.981   8.599
  742TIP3    H123785   2.912   3.960   8.592
  742TIP3    H223786   3.012   4.032   0.029
  743TIP3   OH223787   3.713   1.636   8.301
  743TIP3    H123788   3.734   1.543   8.296
  743TIP3    H223789   3.620   1.638   8.327
  744TIP3   OH223790   2.804   1.670   1.402
  744TIP3    H123791   2.793   1.763   1.421
  744TIP3    H223792   2.748   1.626   1.466
  745TIP3   OH223793   5.926   1.358   7.460
  745TIP3    H123794   6.016   1.390   7.458
  745TIP3    H223795   5.885   1.407   7.532
  746TIP3   OH223796   3.349   3.627   8.368
  746TIP3    H123797   3.351   3.564   8.440
  746TIP3    H223798   3.284   3.692   8.395
  747TIP3   OH223799   4.559   6.672   6.265
  747TIP3    H123800   4.561   6.578   6.246
  747TIP3    H223801   4.533   6.712   6.182
  748TIP3   OH223802   6.872   0.615   8.043
  748TIP3    H123803   0.054   0.681   8.009
  748TIP3    H223804   0.022   0.533   8.001
  749TIP3   OH223805   1.834   6.376   1.849
  749TIP3    H123806   1.889   6.324   1.908
  749TIP3    H223807   1.881   6.376   1.766
  750TIP3   OH223808   0.405   6.508   7.739
  750TIP3    H123809   0.466   6.518   7.812
  750TIP3    H223810   0.460   6.480   7.666
  751TIP3   OH223811   1.101   1.485   0.120
  751TIP3    H123812   1.023   1.439   0.151
  751TIP3    H223813   1.105   1.465   0.027
  752TIP3   OH223814   1.017   1.719   8.199
  752TIP3    H123815   1.049   1.673   8.122
  752TIP3    H223816   0.943   1.771   8.167
  753TIP3   OH223817   5.195   6.064   7.093
  753TIP3    H123818   5.284   6.076   7.061
  753TIP3    H223819   5.165   6.152   7.115
  754TIP3   OH223820   6.520   4.581   7.834
  754TIP3    H123821   6.543   4.669   7.804
  754TIP3    H223822   6.570   4.522   7.777
  755TIP3   OH223823   4.549   5.239   8.539
  755TIP3    H123824   4.583   5.283   8.617
  755TIP3    H223825   4.460   5.213   8.564
  756TIP3   OH223826   4.579   0.193   1.112
  756TIP3    H123827   4.614   0.281   1.121
  756TIP3    H223828   4.495   0.195   1.157
  757TIP3   OH223829   2.176   3.248   0.230
  757TIP3    H123830   2.096   3.242   0.283
  757TIP3    H223831   2.221   3.325   0.264
  758TIP3   OH223832   4.785   0.781   8.506
  758TIP3    H123833   4.704   0.778   8.456
  758TIP3    H223834   4.815   0.690   8.508
  759TIP3   OH223835   3.614   4.130   8.607
  759TIP3    H123836   3.659   4.202   8.650
  759TIP3    H223837   3.637   4.052   0.007
  760TIP3   OH223838   5.037   3.360   1.490
  760TIP3    H123839   4.945   3.333   1.487
  760TIP3    H223840   5.043   3.413   1.570
  761TIP3   OH223841   3.517   3.506   0.941
  761TIP3    H123842   3.587   3.517   1.006
  761TIP3    H223843   3.548   3.556   0.865
  762TIP3   OH223844   4.916   0.528   0.800
  762TIP3    H123845   4.988   0.589   0.815
  762TIP3    H223846   4.844   0.561   0.854
  763TIP3   OH223847   1.231   2.075   8.029
  763TIP3    H123848   1.167   2.127   7.982
  763TIP3    H223849   1.186   1.993   8.049
  764TIP3   OH223850   3.436   3.144   1.674
  764TIP3    H123851   3.502   3.200   1.714
  764TIP3    H223852   3.356   3.164   1.722
  765TIP3   OH223853   5.251   6.024   1.386
  765TIP3    H123854   5.209   6.027   1.472
  765TIP3    H223855   5.249   5.932   1.361
  766TIP3   OH223856   4.090   3.572   7.398
  766TIP3    H123857   4.039   3.616   7.330
  766TIP3    H223858   4.181   3.596   7.378
  767TIP3   OH223859   6.784   1.269   8.360
  767TIP3    H123860   6.706   1.215   8.347
  767TIP3    H223861   6.824   1.277   8.274
  768TIP3   OH223862   1.364   2.941   1.932
  768TIP3    H123863   1.343   2.886   1.857
  768TIP3    H223864   1.457   2.924   1.950
  769TIP3   OH223865   0.084   4.950   7.771
  769TIP3    H123866   0.092   4.952   7.866
  769TIP3    H223867   0.174   4.946   7.739
  770TIP3   OH223868   5.131   1.106   8.631
  770TIP3    H123869   5.110   1.080   8.541
  770TIP3    H223870   5.215   1.150   8.624
  771TIP3   OH223871   3.083   2.865   6.905
  771TIP3    H123872   3.034   2.944   6.883
  771TIP3    H223873   3.101   2.824   6.821
  772TIP3   OH223874   4.919   2.511   8.184
  772TIP3    H123875   4.852   2.468   8.236
  772TIP3    H223876   4.997   2.456   8.195
  773TIP3   OH223877   4.958   4.253   7.272
  773TIP3    H123878   4.986   4.299   7.193
  773TIP3    H223879   4.999   4.166   7.265
  774TIP3   OH223880   2.146   4.604   0.338
  774TIP3    H123881   2.237   4.619   0.365
  774TIP3    H223882   2.093   4.653   0.401
  775TIP3   OH223883   2.484   3.237   8.456
  775TIP3    H123884   2.507   3.327   8.479
  775TIP3    H223885   2.393   3.242   8.427
  776TIP3   OH223886   6.794   6.093   6.860
  776TIP3    H123887   6.863   6.159   6.859
  776TIP3    H223888   6.807   6.045   6.942
  777TIP3   OH223889   3.588   5.389   1.220
  777TIP3    H123890   3.676   5.406   1.252
  777TIP3    H223891   3.584   5.294   1.209
  778TIP3   OH223892   6.614   0.700   6.697
  778TIP3    H123893   6.558   0.654   6.760
  778TIP3    H223894   6.554   0.755   6.647
  779TIP3   OH223895   2.884   4.411   1.297
  779TIP3    H123896   2.948   4.482   1.289
  779TIP3    H223897   2.801   4.456   1.315
  780TIP3   OH223898   3.907   4.528   5.989
  780TIP3    H123899   3.994   4.489   5.981
  780TIP3    H223900   3.852   4.458   6.023
  781TIP3   OH223901   3.573   4.574   0.406
  781TIP3    H123902   3.647   4.514   0.408
  781TIP3    H223903   3.599   4.642   0.343
  782TIP3   OH223904   5.272   6.567   0.687
  782TIP3    H123905   5.318   6.650   0.678
  782TIP3    H223906   5.192   6.588   0.735
  783TIP3   OH223907   1.237   4.737   8.055
  783TIP3    H123908   1.259   4.813   8.110
  783TIP3    H223909   1.289   4.749   7.976
  784TIP3   OH223910   0.252   5.244   0.674
  784TIP3    H123911   0.260   5.162   0.723
  784TIP3    H223912   0.158   5.265   0.679
  785TIP3   OH223913   6.819   1.185   1.678
  785TIP3    H123914   6.833   1.143   1.763
  785TIP3    H223915   0.002   1.259   1.678
  786TIP3   OH223916   5.918   4.974   7.919
  786TIP3    H123917   5.838   5.023   7.934
  786TIP3    H223918   5.893   4.882   7.927
  787TIP3   OH223919   4.554   3.841   2.089
  787TIP3    H123920   4.478   3.789   2.061
  787TIP3    H223921   4.519   3.903   2.153
  788TIP3   OH223922   1.712   5.468   7.645
  788TIP3    H123923   1.776   5.483   7.714
  788TIP3    H223924   1.757   5.413   7.581
  789TIP3   OH223925   0.657   1.217   1.274
  789TIP3    H123926   0.631   1.206   1.365
  789TIP3    H223927   0.592   1.278   1.238
  790TIP3   OH223928   3.512   6.597   7.031
  790TIP3    H123929   3.595   6.641   7.050
  790TIP3    H223930   3.447   6.667   7.029
  791TIP3   OH223931   6.126   0.404   7.112
  791TIP3    H123932   6.199   0.454   7.150
  791TIP3    H223933   6.157   0.313   7.113
  792TIP3   OH223934   1.918   6.198   0.221
  792TIP3    H123935   1.834   6.233   0.191
  792TIP3    H223936   1.957   6.158   0.143
  793TIP3   OH223937   2.792   3.841   8.297
  793TIP3    H123938   2.740   3.866   8.374
  793TIP3    H223939   2.830   3.923   8.267
  794TIP3   OH223940   6.754   1.347   0.875
  794TIP3    H123941   6.661   1.369   0.879
  794TIP3    H223942   6.781   1.371   0.786
  795TIP3   OH223943   4.605   4.018   7.731
  795TIP3    H123944   4.664   3.976   7.794
  795TIP3    H223945   4.607   4.111   7.755
  796TIP3   OH223946   4.232   2.206   1.234
  796TIP3    H123947   4.189   2.275   1.284
  796TIP3    H223948   4.172   2.132   1.239
  797TIP3   OH223949   3.522   4.167   6.524
  797TIP3    H123950   3.526   4.187   6.430
  797TIP3    H223951   3.453   4.223   6.558
  798TIP3   OH223952   5.005   0.585   1.479
  798TIP3    H123953   4.953   0.611   1.555
  798TIP3    H223954   4.987   0.652   1.413
  799TIP3   OH223955   0.730   2.370   1.120
  799TIP3    H123956   0.800   2.333   1.172
  799TIP3    H223957   0.650   2.337   1.160
  800TIP3   OH223958   3.454   3.772   1.528
  800TIP3    H123959   3.487   3.682   1.536
  800TIP3    H223960   3.443   3.802   1.618
  801TIP3   OH223961   5.740   1.853   7.713
  801TIP3    H123962   5.717   1.905   7.636
  801TIP3    H223963   5.715   1.908   7.787
  802TIP3   OH223964   6.515   1.763   1.194
  802TIP3    H123965   6.478   1.760   1.282
  802TIP3    H223966   6.446   1.805   1.141
  803TIP3   OH223967   0.290   1.621   1.573
  803TIP3    H123968   0.373   1.577   1.553
  803TIP3    H223969   0.302   1.711   1.543
  804TIP3   OH223970   4.983   4.807   1.486
  804TIP3    H123971   4.973   4.892   1.443
  804TIP3    H223972   4.899   4.793   1.530
  805TIP3   OH223973   3.824   6.070   6.088
  805TIP3    H123974   3.732   6.049   6.100
  805TIP3    H223975   3.850   6.021   6.010
  806TIP3   OH223976   6.391   0.818   6.605
  806TIP3    H123977   6.318   0.867   6.565
  806TIP3    H223978   6.349   0.747   6.653
  807TIP3   OH223979   4.241   0.503   0.744
  807TIP3    H123980   4.304   0.564   0.707
  807TIP3    H223981   4.193   0.554   0.809
  808TIP3   OH223982   3.626   3.922   0.126
  808TIP3    H123983   3.543   3.913   0.080
  808TIP3    H223984   3.684   3.857   0.085
  809TIP3   OH223985   5.025   0.232   8.265
  809TIP3    H123986   4.996   0.234   8.356
  809TIP3    H223987   5.113   0.271   8.267
  810TIP3   OH223988   6.520   2.421   8.573
  810TIP3    H123989   6.440   2.474   8.575
  810TIP3    H223990   6.579   2.466   8.633
  811TIP3   OH223991   4.666   4.198   1.408
  811TIP3    H123992   4.674   4.147   1.328
  811TIP3    H223993   4.589   4.253   1.393
  812TIP3   OH223994   4.836   4.822   8.545
  812TIP3    H123995   4.908   4.765   8.572
  812TIP3    H223996   4.802   4.781   8.465
  813TIP3   OH223997   6.241   6.848   1.631
  813TIP3    H123998   6.304   0.041   1.641
  813TIP3    H223999   6.206   6.835   1.719
  814TIP3   OH224000   5.572   2.017   7.214
  814TIP3    H124001   5.548   2.041   7.124
  814TIP3    H224002   5.488   1.997   7.257
  815TIP3   OH224003   2.079   2.385   8.463
  815TIP3    H124004   2.072   2.425   8.550
  815TIP3    H224005   2.162   2.417   8.428
  816TIP3   OH224006   0.833   1.659   7.306
  816TIP3    H124007   0.767   1.594   7.283
  816TIP3    H224008   0.813   1.682   7.397
  817TIP3   OH224009   1.299   0.765   1.549
  817TIP3    H124010   1.318   0.676   1.579
  817TIP3    H224011   1.264   0.810   1.627
  818TIP3   OH224012   1.430   5.201   2.656
  818TIP3    H124013   1.433   5.253   2.575
  818TIP3    H224014   1.337   5.197   2.678
  819TIP3   OH224015   6.280   1.936   0.642
  819TIP3    H124016   6.344   2.004   0.663
  819TIP3    H224017   6.333   1.862   0.614
  820TIP3   OH224018   0.338   3.645   7.326
  820TIP3    H124019   0.360   3.737   7.311
  820TIP3    H224020   0.245   3.638   7.302
  821TIP3   OH224021   3.309   2.232   1.504
  821TIP3    H124022   3.265   2.255   1.423
  821TIP3    H224023   3.246   2.177   1.551
  822TIP3   OH224024   1.608   1.440   8.261
  822TIP3    H124025   1.529   1.494   8.248
  822TIP3    H224026   1.675   1.485   8.210
  823TIP3   OH224027   0.080   4.104   0.012
  823TIP3    H124028   0.041   4.018   8.647
  823TIP3    H224029   0.095   4.107   0.106
  824TIP3   OH224030   3.148   0.259   1.957
  824TIP3    H124031   3.087   0.188   1.936
  824TIP3    H224032   3.222   0.215   1.997
  825TIP3   OH224033   2.955   4.678   2.163
  825TIP3    H124034   2.870   4.635   2.172
  825TIP3    H224035   2.939   4.748   2.100
  826TIP3   OH224036   5.450   2.717   1.878
  826TIP3    H124037   5.377   2.667   1.915
  826TIP3    H224038   5.523   2.701   1.938
  827TIP3   OH224039   1.036   5.305   1.740
  827TIP3    H124040   0.990   5.291   1.657
  827TIP3    H224041   1.006   5.234   1.797
  828TIP3   OH224042   4.363   1.945   7.273
  828TIP3    H124043   4.332   1.941   7.183
  828TIP3    H224044   4.360   2.038   7.296
  829TIP3   OH224045   1.701   5.160   2.187
  829TIP3    H124046   1.741   5.247   2.185
  829TIP3    H224047   1.766   5.102   2.147
  830TIP3   OH224048   0.240   0.674   0.528
  830TIP3    H124049   0.182   0.614   0.482
  830TIP3    H224050   0.302   0.617   0.575
  831TIP3   OH224051   0.400   2.387   7.542
  831TIP3    H124052   0.323   2.343   7.506
  831TIP3    H224053   0.472   2.327   7.524
  832TIP3   OH224054   1.321   3.185   7.756
  832TIP3    H124055   1.343   3.114   7.695
  832TIP3    H224056   1.315   3.263   7.701
  833TIP3   OH224057   4.739   0.702   0.650
  833TIP3    H124058   4.741   0.606   0.654
  833TIP3    H224059   4.801   0.724   0.581
  834TIP3   OH224060   0.674   0.604   7.054
  834TIP3    H124061   0.623   0.563   6.984
  834TIP3    H224062   0.734   0.664   7.009
  835TIP3   OH224063   5.669   6.861   6.927
  835TIP3    H124064   5.636   0.072   6.936
  835TIP3    H224065   5.741   6.855   6.990
  836TIP3   OH224066   2.807   3.328   7.083
  836TIP3    H124067   2.870   3.257   7.094
  836TIP3    H224068   2.819   3.382   7.161
  837TIP3   OH224069   0.920   4.255   7.379
  837TIP3    H124070   0.949   4.281   7.292
  837TIP3    H224071   0.972   4.178   7.400
  838TIP3   OH224072   5.126   6.446   0.298
  838TIP3    H124073   5.074   6.369   0.323
  838TIP3    H224074   5.175   6.468   0.377
  839TIP3   OH224075   0.216   1.502   0.613
  839TIP3    H124076   0.126   1.513   0.643
  839TIP3    H224077   0.269   1.551   0.676
  840TIP3   OH224078   2.703   2.174   7.106
  840TIP3    H124079   2.750   2.134   7.033
  840TIP3    H224080   2.619   2.128   7.108
  841TIP3   OH224081   0.243   3.019   7.844
  841TIP3    H124082   0.291   2.972   7.775
  841TIP3    H224083   0.157   2.976   7.847
  842TIP3   OH224084   3.971   5.235   7.634
  842TIP3    H124085   3.993   5.321   7.597
  842TIP3    H224086   4.019   5.173   7.579
  843TIP3   OH224087   0.104   3.082   1.006
  843TIP3    H124088   0.159   3.019   1.052
  843TIP3    H224089   0.015   3.054   1.023
  844TIP3   OH224090   0.007   1.013   0.812
  844TIP3    H124091   0.055   0.952   0.869
  844TIP3    H224092   0.064   1.025   0.736
  845TIP3   OH224093   0.960   6.325   1.852
  845TIP3    H124094   0.980   6.405   1.803
  845TIP3    H224095   1.033   6.316   1.913
  846TIP3   OH224096   0.222   3.459   6.588
  846TIP3    H124097   0.226   3.537   6.532
  846TIP3    H224098   0.260   3.389   6.534
  847TIP3   OH224099   1.565   4.223   0.251
  847TIP3    H124100   1.639   4.166   0.231
  847TIP3    H224101   1.536   4.196   0.339
  848TIP3   OH224102   2.484   4.068   8.406
  848TIP3    H124103   2.483   4.075   8.311
  848TIP3    H224104   2.470   4.158   8.437
  849TIP3   OH224105   6.763   6.300   0.007
  849TIP3    H124106   6.820   6.261   8.592
  849TIP3    H224107   6.689   6.336   8.607
  850TIP3   OH224108   5.800   6.767   2.180
  850TIP3    H124109   5.707   6.786   2.191
  850TIP3    H224110   5.838   6.782   2.267
  851TIP3   OH224111   6.696   2.842   1.501
  851TIP3    H124112   6.747   2.921   1.483
  851TIP3    H224113   6.746   2.795   1.568
  852TIP3   OH224114   5.797   5.095   1.342
  852TIP3    H124115   5.763   5.071   1.428
  852TIP3    H224116   5.729   5.067   1.281
  853TIP3   OH224117   2.587   5.154   7.422
  853TIP3    H124118   2.557   5.175   7.334
  853TIP3    H224119   2.569   5.232   7.474
  854TIP3   OH224120   5.606   6.133   7.976
  854TIP3    H124121   5.688   6.118   8.023
  854TIP3    H224122   5.582   6.223   7.997
  855TIP3   OH224123   1.346   4.460   1.096
  855TIP3    H124124   1.340   4.524   1.025
  855TIP3    H224125   1.313   4.379   1.058
  856TIP3   OH224126   2.971   1.073   0.332
  856TIP3    H124127   2.928   1.043   0.412
  856TIP3    H224128   2.963   0.998   0.272
  857TIP3   OH224129   5.466   3.872   8.042
  857TIP3    H124130   5.505   3.860   8.129
  857TIP3    H224131   5.462   3.967   8.031
  858TIP3   OH224132   5.250   2.258   1.049
  858TIP3    H124133   5.217   2.170   1.067
  858TIP3    H224134   5.203   2.285   0.970
  859TIP3   OH224135   1.217   3.702   1.509
  859TIP3    H124136   1.181   3.658   1.433
  859TIP3    H224137   1.196   3.794   1.496
  860TIP3   OH224138   6.799   1.685   7.862
  860TIP3    H124139   6.845   1.665   7.780
  860TIP3    H224140   6.868   1.704   7.925
  861TIP3   OH224141   6.162   2.061   7.527
  861TIP3    H124142   6.206   2.127   7.473
  861TIP3    H224143   6.231   1.997   7.546
  862TIP3   OH224144   4.824   0.442   0.212
  862TIP3    H124145   4.816   0.364   0.267
  862TIP3    H224146   4.764   0.506   0.250
  863TIP3   OH224147   1.055   3.956   1.139
  863TIP3    H124148   0.960   3.953   1.129
  863TIP3    H224149   1.088   3.890   1.078
  864TIP3   OH224150   1.886   5.064   2.005
  864TIP3    H124151   1.886   4.973   1.975
  864TIP3    H224152   1.969   5.074   2.051
  865TIP3   OH224153   5.516   3.724   7.815
  865TIP3    H124154   5.611   3.716   7.826
  865TIP3    H224155   5.486   3.764   7.896
  866TIP3   OH224156   3.292   2.362   1.013
  866TIP3    H124157   3.353   2.370   1.086
  866TIP3    H224158   3.210   2.398   1.046
  867TIP3   OH224159   5.705   2.574   0.970
  867TIP3    H124160   5.718   2.643   0.905
  867TIP3    H224161   5.755   2.499   0.937
  868TIP3   OH224162   0.669   6.552   1.487
  868TIP3    H124163   0.582   6.528   1.520
  868TIP3    H224164   0.722   6.472   1.500
  869TIP3   OH224165   0.266   1.091   8.164
  869TIP3    H124166   0.204   1.027   8.199
  869TIP3    H224167   0.344   1.040   8.143
  870TIP3   OH224168   2.257   3.228   7.077
  870TIP3    H124169   2.220   3.259   7.159
  870TIP3    H224170   2.207   3.275   7.009
  871TIP3   OH224171   5.598   2.792   7.785
  871TIP3    H124172   5.574   2.882   7.762
  871TIP3    H224173   5.660   2.766   7.717
  872TIP3   OH224174   3.038   3.478   0.900
  872TIP3    H124175   2.983   3.411   0.859
  872TIP3    H224176   3.125   3.438   0.903
  873TIP3   OH224177   2.242   0.967   2.022
  873TIP3    H124178   2.181   0.929   2.086
  873TIP3    H224179   2.188   0.985   1.945
  874TIP3   OH224180   4.710   4.296   0.549
  874TIP3    H124181   4.715   4.386   0.583
  874TIP3    H224182   4.641   4.255   0.601
  875TIP3   OH224183   6.857   2.400   1.461
  875TIP3    H124184   6.818   2.373   1.545
  875TIP3    H224185   6.804   2.356   1.395
  876TIP3   OH224186   1.320   5.004   0.069
  876TIP3    H124187   1.252   5.059   0.107
  876TIP3    H224188   1.390   5.004   0.133
  877TIP3   OH224189   2.665   2.605   0.204
  877TIP3    H124190   2.718   2.635   0.131
  877TIP3    H224191   2.707   2.526   0.235
  878TIP3   OH224192   1.194   1.445   0.997
  878TIP3    H124193   1.110   1.442   0.951
  878TIP3    H224194   1.257   1.474   0.931
  879TIP3   OH224195   2.047   4.411   8.393
  879TIP3    H124196   2.032   4.321   8.365
  879TIP3    H224197   2.088   4.453   8.318
  880TIP3   OH224198   1.185   5.525   6.460
  880TIP3    H124199   1.133   5.605   6.467
  880TIP3    H224200   1.124   5.459   6.428
  881TIP3   OH224201   0.459   0.255   6.925
  881TIP3    H124202   0.470   0.220   7.013
  881TIP3    H224203   0.367   0.238   6.904
  882TIP3   OH224204   6.395   5.341   0.127
  882TIP3    H124205   6.339   5.273   0.164
  882TIP3    H224206   6.465   5.293   0.083
  883TIP3   OH224207   6.403   3.478   8.595
  883TIP3    H124208   6.339   3.449   8.530
  883TIP3    H224209   6.369   3.561   8.627
  884TIP3   OH224210   2.020   2.549   1.319
  884TIP3    H124211   2.068   2.481   1.366
  884TIP3    H224212   2.000   2.510   1.234
  885TIP3   OH224213   6.766   5.568   2.014
  885TIP3    H124214   6.736   5.598   2.100
  885TIP3    H224215   6.818   5.641   1.980
  886TIP3   OH224216   0.973   5.716   6.491
  886TIP3    H124217   0.887   5.708   6.533
  886TIP3    H224218   0.962   5.786   6.427
  887TIP3   OH224219   6.829   2.693   8.067
  887TIP3    H124220   6.768   2.765   8.051
  887TIP3    H224221   6.829   2.683   8.162
  888TIP3   OH224222   4.776   6.548   1.890
  888TIP3    H124223   4.748   6.640   1.891
  888TIP3    H224224   4.724   6.509   1.819
  889TIP3   OH224225   3.145   4.445   8.058
  889TIP3    H124226   3.112   4.529   8.027
  889TIP3    H224227   3.084   4.381   8.022
  890TIP3   OH224228   1.157   3.199   8.120
  890TIP3    H124229   1.159   3.295   8.124
  890TIP3    H224230   1.093   3.180   8.051
  891TIP3   OH224231   1.862   4.996   0.472
  891TIP3    H124232   1.912   4.938   0.415
  891TIP3    H224233   1.783   4.946   0.493
  892TIP3   OH224234   3.934   4.782   8.098
  892TIP3    H124235   3.971   4.703   8.138
  892TIP3    H224236   3.973   4.854   8.145
  893TIP3   OH224237   5.708   0.496   1.550
  893TIP3    H124238   5.710   0.521   1.642
  893TIP3    H224239   5.659   0.566   1.507
  894TIP3   OH224240   6.297   1.587   0.956
  894TIP3    H124241   6.257   1.662   1.000
  894TIP3    H224242   6.234   1.562   0.888
  895TIP3   OH224243   1.817   0.517   8.456
  895TIP3    H124244   1.821   0.610   8.434
  895TIP3    H224245   1.843   0.513   8.548
  896TIP3   OH224246   6.511   1.527   8.492
  896TIP3    H124247   6.545   1.464   8.555
  896TIP3    H224248   6.501   1.477   8.410
  897TIP3   OH224249   3.781   5.422   0.529
  897TIP3    H124250   3.817   5.401   0.443
  897TIP3    H224251   3.819   5.356   0.588
  898TIP3   OH224252   4.873   0.354   6.033
  898TIP3    H124253   4.881   0.273   6.084
  898TIP3    H224254   4.782   0.382   6.047
  899TIP3   OH224255   6.487   5.326   8.452
  899TIP3    H124256   6.548   5.380   8.503
  899TIP3    H224257   6.452   5.386   8.386
  900TIP3   OH224258   4.706   4.895   7.250
  900TIP3    H124259   4.759   4.820   7.273
  900TIP3    H224260   4.739   4.923   7.165
  901TIP3   OH224261   4.556   6.399   6.226
  901TIP3    H124262   4.626   6.362   6.280
  901TIP3    H224263   4.475   6.362   6.262
  902TIP3   OH224264   0.559   0.430   0.580
  902TIP3    H124265   0.651   0.404   0.585
  902TIP3    H224266   0.559   0.522   0.605
  903TIP3   OH224267   6.626   6.295   1.344
  903TIP3    H124268   6.547   6.336   1.309
  903TIP3    H224269   6.609   6.201   1.336
  904TIP3   OH224270   4.844   5.459   1.624
  904TIP3    H124271   4.880   5.372   1.637
  904TIP3    H224272   4.916   5.519   1.644
  905TIP3   OH224273   2.656   5.546   1.126
  905TIP3    H124274   2.592   5.583   1.187
  905TIP3    H224275   2.716   5.496   1.181
  906TIP3   OH224276   6.627   6.160   0.323
  906TIP3    H124277   6.705   6.110   0.300
  906TIP3    H224278   6.614   6.142   0.416
  907TIP3   OH224279   3.577   6.566   6.628
  907TIP3    H124280   3.524   6.570   6.549
  907TIP3    H224281   3.563   6.651   6.671
  908TIP3   OH224282   1.544   1.382   0.167
  908TIP3    H124283   1.552   1.391   0.072
  908TIP3    H224284   1.472   1.320   0.179
  909TIP3   OH224285   3.507   2.786   1.524
  909TIP3    H124286   3.526   2.710   1.580
  909TIP3    H224287   3.518   2.861   1.583
  910TIP3   OH224288   1.660   0.704   1.621
  910TIP3    H124289   1.742   0.751   1.638
  910TIP3    H224290   1.593   0.754   1.667
  911TIP3   OH224291   1.931   1.641   0.824
  911TIP3    H124292   1.950   1.596   0.741
  911TIP3    H224293   2.009   1.627   0.877
  912TIP3   OH224294   4.351   0.460   7.312
  912TIP3    H124295   4.439   0.469   7.350
  912TIP3    H224296   4.348   0.370   7.280
  913TIP3   OH224297   4.484   3.880   0.909
  913TIP3    H124298   4.431   3.863   0.987
  913TIP3    H224299   4.555   3.816   0.913
  914TIP3   OH224300   5.093   5.478   6.981
  914TIP3    H124301   5.002   5.463   6.958
  914TIP3    H224302   5.099   5.573   6.997
  915TIP3   OH224303   5.602   1.367   0.734
  915TIP3    H124304   5.593   1.275   0.711
  915TIP3    H224305   5.517   1.406   0.712
  916TIP3   OH224306   0.028   1.217   1.055
  916TIP3    H124307   0.117   1.202   1.023
  916TIP3    H224308   6.855   1.236   0.977
  917TIP3   OH224309   2.099   0.352   7.303
  917TIP3    H124310   2.020   0.349   7.356
  917TIP3    H224311   2.157   0.287   7.343
  918TIP3   OH224312   4.586   5.975   8.266
  918TIP3    H124313   4.497   5.974   8.229
  918TIP3    H224314   4.643   5.958   8.191
  919TIP3   OH224315   3.986   3.986   2.234
  919TIP3    H124316   4.044   4.052   2.272
  919TIP3    H224317   4.001   3.907   2.286
  920TIP3   OH224318   0.755   4.577   8.173
  920TIP3    H124319   0.768   4.537   8.259
  920TIP3    H224320   0.663   4.560   8.152
  921TIP3   OH224321   6.242   3.873   8.087
  921TIP3    H124322   6.315   3.899   8.144
  921TIP3    H224323   6.175   3.940   8.103
  922TIP3   OH224324   2.319   4.630   7.846
  922TIP3    H124325   2.414   4.647   7.843
  922TIP3    H224326   2.312   4.535   7.857
  923TIP3   OH224327   5.763   2.974   1.504
  923TIP3    H124328   5.765   2.914   1.578
  923TIP3    H224329   5.753   2.917   1.427
  924TIP3   OH224330   1.254   3.527   6.015
  924TIP3    H124331   1.259   3.436   6.045
  924TIP3    H224332   1.174   3.532   5.963
  925TIP3   OH224333   2.040   6.600   8.113
  925TIP3    H124334   2.063   6.568   8.200
  925TIP3    H224335   2.040   6.521   8.058
  926TIP3   OH224336   4.643   6.821   0.323
  926TIP3    H124337   4.666   6.802   0.232
  926TIP3    H224338   4.551   6.795   0.331
  927TIP3   OH224339   0.228   4.891   0.540
  927TIP3    H124340   0.194   4.899   0.629
  927TIP3    H224341   0.320   4.871   0.551
  928TIP3   OH224342   6.570   0.936   7.466
  928TIP3    H124343   6.505   0.972   7.406
  928TIP3    H224344   6.553   0.842   7.468
  929TIP3   OH224345   2.575   0.432   0.967
  929TIP3    H124346   2.603   0.348   0.931
  929TIP3    H224347   2.496   0.413   1.016
  930TIP3   OH224348   2.015   5.337   0.300
  930TIP3    H124349   2.013   5.432   0.308
  930TIP3    H224350   1.989   5.320   0.209
  931TIP3   OH224351   5.165   3.008   7.582
  931TIP3    H124352   5.244   2.955   7.584
  931TIP3    H224353   5.156   3.035   7.490
  932TIP3   OH224354   1.022   5.317   2.667
  932TIP3    H124355   1.082   5.315   2.592
  932TIP3    H224356   0.940   5.350   2.631
  933TIP3   OH224357   5.678   1.530   1.431
  933TIP3    H124358   5.610   1.583   1.472
  933TIP3    H224359   5.710   1.474   1.502
  934TIP3   OH224360   4.976   1.087   0.212
  934TIP3    H124361   4.998   1.157   0.273
  934TIP3    H224362   5.020   1.113   0.131
  935TIP3   OH224363   4.289   4.391   7.126
  935TIP3    H124364   4.259   4.445   7.200
  935TIP3    H224365   4.321   4.311   7.167
  936TIP3   OH224366   2.776   2.072   7.662
  936TIP3    H124367   2.845   2.034   7.609
  936TIP3    H224368   2.741   2.143   7.609
  937TIP3   OH224369   6.371   1.334   8.305
  937TIP3    H124370   6.316   1.344   8.227
  937TIP3    H224371   6.458   1.314   8.270
  938TIP3   OH224372   6.190   4.624   2.274
  938TIP3    H124373   6.115   4.683   2.266
  938TIP3    H224374   6.214   4.628   2.367
  939TIP3   OH224375   3.052   4.217   1.744
  939TIP3    H124376   2.976   4.164   1.767
  939TIP3    H224377   3.018   4.305   1.733
  940TIP3   OH224378   4.610   3.058   1.295
  940TIP3    H124379   4.688   3.029   1.343
  940TIP3    H224380   4.551   3.091   1.363
  941TIP3   OH224381   2.045   1.320   1.208
  941TIP3    H124382   2.020   1.295   1.297
  941TIP3    H224383   2.002   1.256   1.152
  942TIP3   OH224384   3.570   3.297   6.633
  942TIP3    H124385   3.588   3.381   6.675
  942TIP3    H224386   3.640   3.239   6.666
  943TIP3   OH224387   1.206   1.810   0.788
  943TIP3    H124388   1.246   1.777   0.869
  943TIP3    H224389   1.152   1.884   0.817
  944TIP3   OH224390   2.586   5.287   0.955
  944TIP3    H124391   2.595   5.301   0.861
  944TIP3    H224392   2.642   5.353   0.995
  945TIP3   OH224393   1.057   3.136   2.178
  945TIP3    H124394   1.045   3.047   2.144
  945TIP3    H224395   1.150   3.154   2.165
  946TIP3   OH224396   3.105   0.136   7.124
  946TIP3    H124397   3.032   0.165   7.179
  946TIP3    H224398   3.178   0.191   7.151
  947TIP3   OH224399   4.635   1.481   0.633
  947TIP3    H124400   4.670   1.569   0.619
  947TIP3    H224401   4.622   1.446   0.545
  948TIP3   OH224402   2.716   1.781   7.076
  948TIP3    H124403   2.791   1.723   7.077
  948TIP3    H224404   2.749   1.863   7.039
  949TIP3   OH224405   1.618   6.344   2.229
  949TIP3    H124406   1.629   6.307   2.317
  949TIP3    H224407   1.524   6.353   2.217
  950TIP3   OH224408   6.382   5.242   6.707
  950TIP3    H124409   6.438   5.298   6.652
  950TIP3    H224410   6.440   5.210   6.776
  951TIP3   OH224411   6.333   4.644   0.883
  951TIP3    H124412   6.332   4.644   0.979
  951TIP3    H224413   6.367   4.730   0.859
  952TIP3   OH224414   1.535   1.418   1.797
  952TIP3    H124415   1.545   1.499   1.847
  952TIP3    H224416   1.539   1.445   1.705
  953TIP3   OH224417   2.253   3.760   8.229
  953TIP3    H124418   2.233   3.802   8.146
  953TIP3    H224419   2.325   3.700   8.209
  954TIP3   OH224420   5.340   6.647   7.228
  954TIP3    H124421   5.310   6.572   7.280
  954TIP3    H224422   5.259   6.694   7.205
  955TIP3   OH224423   2.176   6.237   1.096
  955TIP3    H124424   2.238   6.290   1.047
  955TIP3    H224425   2.230   6.192   1.162
  956TIP3   OH224426   2.607   4.293   0.075
  956TIP3    H124427   2.601   4.369   0.016
  956TIP3    H224428   2.700   4.288   0.098
  957TIP3   OH224429   4.117   0.991   0.223
  957TIP3    H124430   4.138   1.048   0.297
  957TIP3    H224431   4.032   1.023   0.192
  958TIP3   OH224432   4.443   3.665   6.691
  958TIP3    H124433   4.486   3.582   6.674
  958TIP3    H224434   4.418   3.698   6.604
  959TIP3   OH224435   6.388   3.188   1.038
  959TIP3    H124436   6.361   3.117   1.096
  959TIP3    H224437   6.332   3.180   0.962
  960TIP3   OH224438   5.943   3.393   1.777
  960TIP3    H124439   5.985   3.427   1.698
  960TIP3    H224440   5.908   3.308   1.750
  961TIP3   OH224441   3.984   0.133   7.249
  961TIP3    H124442   4.033   0.068   7.300
  961TIP3    H224443   3.969   0.205   7.311
  962TIP3   OH224444   6.443   0.541   1.112
  962TIP3    H124445   6.446   0.635   1.095
  962TIP3    H224446   6.490   0.501   1.039
  963TIP3   OH224447   1.459   2.542   0.044
  963TIP3    H124448   1.488   2.629   0.071
  963TIP3    H224449   1.493   2.483   0.111
  964TIP3   OH224450   3.121   1.205   2.479
  964TIP3    H124451   3.164   1.121   2.463
  964TIP3    H224452   3.153   1.262   2.409
  965TIP3   OH224453   2.692   4.407   7.180
  965TIP3    H124454   2.663   4.403   7.089
  965TIP3    H224455   2.769   4.349   7.184
  966TIP3   OH224456   3.893   0.486   0.845
  966TIP3    H124457   3.878   0.446   0.759
  966TIP3    H224458   3.865   0.577   0.834
  967TIP3   OH224459   0.410   3.523   7.557
  967TIP3    H124460   0.338   3.461   7.563
  967TIP3    H224461   0.391   3.576   7.480
  968TIP3   OH224462   2.177   4.875   1.220
  968TIP3    H124463   2.134   4.959   1.203
  968TIP3    H224464   2.199   4.841   1.133
  969TIP3   OH224465   1.182   6.354   8.201
  969TIP3    H124466   1.096   6.332   8.166
  969TIP3    H224467   1.242   6.338   8.128
  970TIP3   OH224468   5.585   6.483   1.460
  970TIP3    H124469   5.509   6.515   1.508
  970TIP3    H224470   5.616   6.560   1.411
  971TIP3   OH224471   0.498   2.550   2.496
  971TIP3    H124472   0.428   2.594   2.545
  971TIP3    H224473   0.578   2.592   2.527
  972TIP3   OH224474   5.481   4.478   8.305
  972TIP3    H124475   5.468   4.445   8.394
  972TIP3    H224476   5.557   4.535   8.312
  973TIP3   OH224477   6.613   0.938   1.376
  973TIP3    H124478   6.593   0.850   1.344
  973TIP3    H224479   6.544   0.993   1.340
  974TIP3   OH224480   3.862   2.684   2.109
  974TIP3    H124481   3.870   2.753   2.174
  974TIP3    H224482   3.953   2.659   2.090
  975TIP3   OH224483   5.809   1.043   7.088
  975TIP3    H124484   5.847   1.103   7.152
  975TIP3    H224485   5.810   1.091   7.006
  976TIP3   OH224486   1.081   2.200   8.405
  976TIP3    H124487   1.032   2.207   8.487
  976TIP3    H224488   1.137   2.123   8.416
  977TIP3   OH224489   0.967   0.379   6.955
  977TIP3    H124490   0.928   0.346   7.035
  977TIP3    H224491   1.015   0.458   6.982
  978TIP3   OH224492   5.199   5.405   0.138
  978TIP3    H124493   5.174   5.467   0.069
  978TIP3    H224494   5.285   5.373   0.111
  979TIP3   OH224495   5.773   4.614   6.436
  979TIP3    H124496   5.713   4.673   6.391
  979TIP3    H224497   5.741   4.527   6.415
  980TIP3   OH224498   6.400   3.605   7.268
  980TIP3    H124499   6.453   3.685   7.266
  980TIP3    H224500   6.391   3.585   7.361
  981TIP3   OH224501   0.266   0.659   6.930
  981TIP3    H124502   0.361   0.663   6.924
  981TIP3    H224503   0.248   0.645   7.023
  982TIP3   OH224504   2.601   5.040   8.487
  982TIP3    H124505   2.640   4.965   8.530
  982TIP3    H224506   2.530   5.067   8.545
  983TIP3   OH224507   2.187   4.870   7.745
  983TIP3    H124508   2.206   4.780   7.774
  983TIP3    H224509   2.215   4.925   7.817
  984TIP3   OH224510   5.034   2.623   7.379
  984TIP3    H124511   5.119   2.602   7.417
  984TIP3    H224512   5.018   2.553   7.316
  985TIP3   OH224513   0.236   2.312   7.895
  985TIP3    H124514   0.244   2.401   7.859
  985TIP3    H224515   0.150   2.311   7.936
  986TIP3   OH224516   2.186   6.116   0.568
  986TIP3    H124517   2.137   6.034   0.563
  986TIP3    H224518   2.203   6.139   0.477
  987TIP3   OH224519   5.782   0.701   0.544
  987TIP3    H124520   5.813   0.621   0.500
  987TIP3    H224521   5.687   0.688   0.553
  988TIP3   OH224522   6.576   6.815   0.893
  988TIP3    H124523   6.658   6.851   0.859
  988TIP3    H224524   6.528   6.787   0.815
  989TIP3   OH224525   3.418   1.552   0.358
  989TIP3    H124526   3.478   1.481   0.378
  989TIP3    H224527   3.435   1.572   0.266
  990TIP3   OH224528   5.955   5.875   2.601
  990TIP3    H124529   5.867   5.897   2.629
  990TIP3    H224530   6.011   5.936   2.649
  991TIP3   OH224531   0.875   0.244   7.253
  991TIP3    H124532   0.804   0.187   7.283
  991TIP3    H224533   0.844   0.333   7.271
  992TIP3   OH224534   5.442   0.003   8.331
  992TIP3    H124535   5.359   6.873   8.285
  992TIP3    H224536   5.504   0.035   8.266
  993TIP3   OH224537   1.892   5.683   7.057
  993TIP3    H124538   1.809   5.657   7.016
  993TIP3    H224539   1.868   5.715   7.144
  994TIP3   OH224540   3.627   6.099   8.128
  994TIP3    H124541   3.634   6.066   8.039
  994TIP3    H224542   3.633   6.194   8.119
  995TIP3   OH224543   3.960   6.141   7.329
  995TIP3    H124544   3.981   6.062   7.378
  995TIP3    H224545   3.910   6.110   7.253
  996TIP3   OH224546   5.721   6.425   7.418
  996TIP3    H124547   5.711   6.501   7.475
  996TIP3    H224548   5.633   6.409   7.383
  997TIP3   OH224549   6.401   3.439   1.165
  997TIP3    H124550   6.318   3.486   1.172
  997TIP3    H224551   6.381   3.365   1.108
  998TIP3   OH224552   2.846   3.815   7.523
  998TIP3    H124553   2.890   3.775   7.598
  998TIP3    H224554   2.911   3.815   7.453
  999TIP3   OH224555   3.717   2.385   7.146
  999TIP3    H124556   3.730   2.332   7.067
  999TIP3    H224557   3.648   2.341   7.194
 1000TIP3   OH224558   4.680   2.179   8.458
 1000TIP3    H124559   4.699   2.123   8.533
 1000TIP3    H224560   4.641   2.119   8.394
 1001TIP3   OH224561   4.496   3.520   0.209
 1001TIP3    H124562   4.425   3.583   0.200
 1001TIP3    H224563   4.532   3.536   0.296
 1002TIP3   OH224564   0.941   6.601   1.271
 1002TIP3    H124565   0.904   6.559   1.193
 1002TIP3    H224566   1.017   6.547   1.292
 1003TIP3   OH224567   2.333   6.051   1.220
 1003TIP3    H124568   2.394   6.080   1.288
 1003TIP3    H224569   2.281   5.983   1.264
 1004TIP3   OH224570   1.859   5.293   1.866
 1004TIP3    H124571   1.857   5.226   1.934
 1004TIP3    H224572   1.891   5.248   1.788
 1005TIP3   OH224573   1.516   1.877   8.368
 1005TIP3    H124574   1.450   1.808   8.367
 1005TIP3    H224575   1.482   1.943   8.307
 1006TIP3   OH224576   3.086   5.476   6.756
 1006TIP3    H124577   3.152   5.526   6.707
 1006TIP3    H224578   3.028   5.441   6.689
 1007TIP3   OH224579   3.555   0.114   7.428
 1007TIP3    H124580   3.535   0.119   7.335
 1007TIP3    H224581   3.470   0.113   7.471
 1008TIP3   OH224582   6.002   0.068   1.476
 1008TIP3    H124583   6.066   0.061   1.546
 1008TIP3    H224584   6.044   0.028   1.400
 1009TIP3   OH224585   3.229   0.736   0.279
 1009TIP3    H124586   3.287   0.790   0.333
 1009TIP3    H224587   3.195   0.797   0.214
 1010TIP3   OH224588   2.189   4.838   6.522
 1010TIP3    H124589   2.253   4.773   6.550
 1010TIP3    H224590   2.229   4.880   6.445
 1011TIP3   OH224591   4.758   1.242   6.298
 1011TIP3    H124592   4.743   1.319   6.242
 1011TIP3    H224593   4.671   1.220   6.332
 1012TIP3   OH224594   1.821   5.409   2.161
 1012TIP3    H124595   1.852   5.436   2.074
 1012TIP3    H224596   1.898   5.417   2.217
 1013TIP3   OH224597   4.660   2.086   0.698
 1013TIP3    H124598   4.669   2.097   0.604
 1013TIP3    H224599   4.744   2.113   0.734
 1014TIP3   OH224600   4.442   2.687   6.947
 1014TIP3    H124601   4.510   2.722   6.889
 1014TIP3    H224602   4.424   2.759   7.007
 1015TIP3   OH224603   0.412   6.339   0.124
 1015TIP3    H124604   0.398   6.336   0.218
 1015TIP3    H224605   0.447   6.426   0.107
 1016TIP3   OH224606   0.709   5.945   8.114
 1016TIP3    H124607   0.751   6.031   8.116
 1016TIP3    H224608   0.618   5.961   8.139
 1017TIP3   OH224609   3.712   5.735   1.753
 1017TIP3    H124610   3.717   5.692   1.667
 1017TIP3    H224611   3.648   5.682   1.801
 1018TIP3   OH224612   3.901   3.185   8.355
 1018TIP3    H124613   3.915   3.104   8.306
 1018TIP3    H224614   3.989   3.214   8.379
 1019TIP3   OH224615   6.653   6.508   0.150
 1019TIP3    H124616   6.576   6.523   0.095
 1019TIP3    H224617   6.681   6.419   0.129
 1020TIP3   OH224618   1.445   2.065   7.830
 1020TIP3    H124619   1.451   1.982   7.784
 1020TIP3    H224620   1.369   2.056   7.887
 1021TIP3   OH224621   5.527   4.250   1.452
 1021TIP3    H124622   5.598   4.237   1.516
 1021TIP3    H224623   5.563   4.217   1.370
 1022TIP3   OH224624   3.376   3.672   7.508
 1022TIP3    H124625   3.451   3.626   7.545
 1022TIP3    H224626   3.318   3.688   7.582
 1023TIP3   OH224627   0.178   2.721   0.429
 1023TIP3    H124628   0.260   2.765   0.407
 1023TIP3    H224629   0.130   2.717   0.346
 1024TIP3   OH224630   5.381   5.908   0.489
 1024TIP3    H124631   5.471   5.936   0.509
 1024TIP3    H224632   5.335   5.989   0.469
 1025TIP3   OH224633   0.210   1.321   8.356
 1025TIP3    H124634   0.252   1.267   8.289
 1025TIP3    H224635   0.144   1.264   8.395
 1026TIP3   OH224636   4.479   0.287   0.850
 1026TIP3    H124637   4.516   0.374   0.835
 1026TIP3    H224638   4.384   0.301   0.848
 1027TIP3   OH224639   6.365   3.156   1.897
 1027TIP3    H124640   6.390   3.169   1.806
 1027TIP3    H224641   6.433   3.200   1.948
 1028TIP3   OH224642   6.432   4.150   0.769
 1028TIP3    H124643   6.486   4.155   0.848
 1028TIP3    H224644   6.494   4.154   0.697
 1029TIP3   OH224645   1.676   6.826   2.344
 1029TIP3    H124646   1.681   6.732   2.361
 1029TIP3    H224647   1.588   6.840   2.309
 1030TIP3   OH224648   5.075   2.648   8.388
 1030TIP3    H124649   5.123   2.605   8.318
 1030TIP3    H224650   4.983   2.635   8.366
 1031TIP3   OH224651   4.966   1.654   7.230
 1031TIP3    H124652   4.949   1.651   7.324
 1031TIP3    H224653   5.026   1.728   7.219
 1032TIP3   OH224654   2.507   2.607   6.819
 1032TIP3    H124655   2.414   2.615   6.797
 1032TIP3    H224656   2.538   2.536   6.762
 1033TIP3   OH224657   1.392   6.676   1.401
 1033TIP3    H124658   1.395   6.644   1.491
 1033TIP3    H224659   1.470   6.731   1.393
 1034TIP3   OH224660   1.086   0.063   6.501
 1034TIP3    H124661   1.007   0.104   6.467
 1034TIP3    H224662   1.072   6.847   6.489
 1035TIP3   OH224663   1.728   2.187   6.803
 1035TIP3    H124664   1.698   2.140   6.725
 1035TIP3    H224665   1.662   2.254   6.817
 1036TIP3   OH224666   0.787   6.649   1.829
 1036TIP3    H124667   0.783   6.586   1.902
 1036TIP3    H224668   0.703   6.638   1.785
 1037TIP3   OH224669   1.828   5.797   1.684
 1037TIP3    H124670   1.875   5.879   1.695
 1037TIP3    H224671   1.799   5.773   1.772
 1038TIP3   OH224672   1.449   3.218   8.200
 1038TIP3    H124673   1.388   3.287   8.174
 1038TIP3    H224674   1.493   3.252   8.277
 1039TIP3   OH224675   4.221   3.215   1.086
 1039TIP3    H124676   4.303   3.239   1.129
 1039TIP3    H224677   4.164   3.292   1.100
 1040TIP3   OH224678   2.700   1.103   6.933
 1040TIP3    H124679   2.628   1.125   6.992
 1040TIP3    H224680   2.672   1.021   6.892
 1041TIP3   OH224681   0.750   5.818   0.695
 1041TIP3    H124682   0.717   5.905   0.672
 1041TIP3    H224683   0.694   5.757   0.648
 1042TIP3   OH224684   3.382   0.887   2.001
 1042TIP3    H124685   3.393   0.878   1.906
 1042TIP3    H224686   3.466   0.859   2.037
 1043TIP3   OH224687   3.440   5.728   7.081
 1043TIP3    H124688   3.397   5.723   7.166
 1043TIP3    H224689   3.427   5.819   7.053
 1044TIP3   OH224690   5.180   0.118   0.645
 1044TIP3    H124691   5.244   0.046   0.652
 1044TIP3    H224692   5.168   0.147   0.735
 1045TIP3   OH224693   1.435   4.289   8.231
 1045TIP3    H124694   1.434   4.356   8.162
 1045TIP3    H224695   1.520   4.246   8.221
 1046TIP3   OH224696   4.949   4.684   7.144
 1046TIP3    H124697   4.952   4.673   7.049
 1046TIP3    H224698   5.040   4.684   7.172
 1047TIP3   OH224699   0.924   3.213   6.716
 1047TIP3    H124700   0.937   3.250   6.804
 1047TIP3    H224701   0.836   3.242   6.691
 1048TIP3   OH224702   1.826   4.165   0.843
 1048TIP3    H124703   1.860   4.220   0.772
 1048TIP3    H224704   1.877   4.191   0.919
 1049TIP3   OH224705   5.319   6.194   1.161
 1049TIP3    H124706   5.388   6.136   1.127
 1049TIP3    H224707   5.283   6.146   1.236
 1050TIP3   OH224708   3.065   4.088   7.710
 1050TIP3    H124709   3.091   4.167   7.663
 1050TIP3    H224710   3.077   4.018   7.646
 1051TIP3   OH224711   6.206   5.251   8.485
 1051TIP3    H124712   6.297   5.268   8.460
 1051TIP3    H224713   6.166   5.212   8.408
 1052TIP3   OH224714   4.337   3.621   7.586
 1052TIP3    H124715   4.254   3.624   7.632
 1052TIP3    H224716   4.370   3.711   7.590
 1053TIP3   OH224717   4.240   4.113   8.226
 1053TIP3    H124718   4.190   4.067   8.158
 1053TIP3    H224719   4.323   4.134   8.184
 1054TIP3   OH224720   6.562   4.907   8.628
 1054TIP3    H124721   6.524   4.820   8.628
 1054TIP3    H224722   6.560   4.934   8.536
 1055TIP3   OH224723   4.865   5.939   8.376
 1055TIP3    H124724   4.948   5.985   8.388
 1055TIP3    H224725   4.888   5.859   8.329
 1056TIP3   OH224726   0.937   3.659   6.907
 1056TIP3    H124727   0.955   3.592   6.973
 1056TIP3    H224728   0.864   3.622   6.856
 1057TIP3   OH224729   0.999   4.547   7.815
 1057TIP3    H124730   1.038   4.523   7.899
 1057TIP3    H224731   1.008   4.469   7.760
 1058TIP3   OH224732   1.099   5.572   2.207
 1058TIP3    H124733   1.049   5.491   2.214
 1058TIP3    H224734   1.153   5.560   2.129
 1059TIP3   OH224735   2.729   2.826   8.365
 1059TIP3    H124736   2.655   2.886   8.377
 1059TIP3    H224737   2.745   2.827   8.271
 1060TIP3   OH224738   5.142   3.738   7.777
 1060TIP3    H124739   5.078   3.788   7.727
 1060TIP3    H224740   5.119   3.754   7.868
 1061TIP3   OH224741   0.455   4.787   2.092
 1061TIP3    H124742   0.457   4.777   2.187
 1061TIP3    H224743   0.482   4.702   2.058
 1062TIP3   OH224744   1.789   6.191   6.043
 1062TIP3    H124745   1.793   6.273   6.091
 1062TIP3    H224746   1.699   6.160   6.057
 1063TIP3   OH224747   6.807   4.388   0.248
 1063TIP3    H124748   0.003   4.340   0.285
 1063TIP3    H224749   6.848   4.448   0.185
 1064TIP3   OH224750   5.501   6.027   0.032
 1064TIP3    H124751   5.541   5.958   0.085
 1064TIP3    H224752   5.521   6.108   0.080
 1065TIP3   OH224753   6.854   5.371   7.871
 1065TIP3    H124754   6.796   5.354   7.945
 1065TIP3    H224755   6.830   5.306   7.806
 1066TIP3   OH224756   3.282   3.275   0.619
 1066TIP3    H124757   3.260   3.308   0.706
 1066TIP3    H224758   3.377   3.282   0.614
 1067TIP3   OH224759   4.765   0.114   6.156
 1067TIP3    H124760   4.783   0.035   6.206
 1067TIP3    H224761   4.682   0.146   6.191
 1068TIP3   OH224762   0.888   5.234   7.481
 1068TIP3    H124763   0.857   5.291   7.552
 1068TIP3    H224764   0.980   5.220   7.501
 1069TIP3   OH224765   0.332   3.005   0.692
 1069TIP3    H124766   0.420   2.966   0.694
 1069TIP3    H224767   0.338   3.074   0.626
 1070TIP3   OH224768   6.212   2.340   1.515
 1070TIP3    H124769   6.185   2.336   1.606
 1070TIP3    H224770   6.134   2.369   1.468
 1071TIP3   OH224771   5.849   2.822   1.129
 1071TIP3    H124772   5.881   2.846   1.042
 1071TIP3    H224773   5.776   2.882   1.145
 1072TIP3   OH224774   0.765   0.508   7.304
 1072TIP3    H124775   0.704   0.521   7.231
 1072TIP3    H224776   0.761   0.589   7.354
 1073TIP3   OH224777   3.668   3.087   0.373
 1073TIP3    H124778   3.649   3.007   0.324
 1073TIP3    H224779   3.590   3.141   0.361
 1074TIP3   OH224780   1.935   6.236   6.780
 1074TIP3    H124781   1.987   6.288   6.720
 1074TIP3    H224782   1.845   6.263   6.765
 1075TIP3   OH224783   2.155   0.624   7.731
 1075TIP3    H124784   2.102   0.680   7.674
 1075TIP3    H224785   2.114   0.633   7.817
 1076TIP3   OH224786   3.779   1.385   0.429
 1076TIP3    H124787   3.725   1.371   0.352
 1076TIP3    H224788   3.868   1.359   0.402
 1077TIP3   OH224789   2.140   4.039   0.923
 1077TIP3    H124790   2.139   3.943   0.926
 1077TIP3    H224791   2.227   4.063   0.956
 1078TIP3   OH224792   5.872   4.010   1.264
 1078TIP3    H124793   5.959   4.046   1.285
 1078TIP3    H224794   5.810   4.072   1.302
 1079TIP3   OH224795   5.915   6.371   6.706
 1079TIP3    H124796   5.858   6.297   6.684
 1079TIP3    H224797   5.983   6.333   6.762
 1080TIP3   OH224798   4.729   6.473   0.480
 1080TIP3    H124799   4.662   6.519   0.530
 1080TIP3    H224800   4.764   6.538   0.419
 1081TIP3   OH224801   1.933   2.748   8.305
 1081TIP3    H124802   2.027   2.736   8.291
 1081TIP3    H224803   1.900   2.661   8.328
 1082TIP3   OH224804   4.031   2.989   6.391
 1082TIP3    H124805   4.067   3.078   6.389
 1082TIP3    H224806   4.028   2.967   6.483
 1083TIP3   OH224807   0.414   3.162   7.589
 1083TIP3    H124808   0.412   3.066   7.594
 1083TIP3    H224809   0.333   3.185   7.544
 1084TIP3   OH224810   5.776   1.746   1.681
 1084TIP3    H124811   5.701   1.706   1.636
 1084TIP3    H224812   5.773   1.838   1.656
 1085TIP3   OH224813   6.828   0.001   1.963
 1085TIP3    H124814   6.804   6.815   2.030
 1085TIP3    H224815   0.036   0.032   1.989
 1086TIP3   OH224816   3.951   1.093   7.848
 1086TIP3    H124817   3.955   1.007   7.806
 1086TIP3    H224818   3.858   1.109   7.862
 1087TIP3   OH224819   0.319   1.145   7.027
 1087TIP3    H124820   0.255   1.201   7.070
 1087TIP3    H224821   0.306   1.058   7.066
 1088TIP3   OH224822   5.166   4.911   6.394
 1088TIP3    H124823   5.187   4.994   6.352
 1088TIP3    H224824   5.249   4.864   6.399
 1089TIP3   OH224825   2.458   5.840   0.644
 1089TIP3    H124826   2.448   5.746   0.657
 1089TIP3    H224827   2.420   5.879   0.722
 1090TIP3   OH224828   3.403   3.707   6.783
 1090TIP3    H124829   3.323   3.729   6.737
 1090TIP3    H224830   3.424   3.786   6.834
 1091TIP3   OH224831   4.898   3.334   0.705
 1091TIP3    H124832   4.921   3.317   0.796
 1091TIP3    H224833   4.968   3.391   0.673
 1092TIP3   OH224834   0.409   4.916   1.220
 1092TIP3    H124835   0.462   4.920   1.140
 1092TIP3    H224836   0.322   4.888   1.190
 1093TIP3   OH224837   0.233   3.152   8.081
 1093TIP3    H124838   0.267   3.131   7.994
 1093TIP3    H224839   0.277   3.234   8.105
 1094TIP3   OH224840   6.083   6.536   1.737
 1094TIP3    H124841   6.011   6.559   1.795
 1094TIP3    H224842   6.044   6.482   1.669
 1095TIP3   OH224843   2.675   0.236   2.669
 1095TIP3    H124844   2.689   0.316   2.618
 1095TIP3    H224845   2.583   0.214   2.654
 1096TIP3   OH224846   3.843   1.010   1.027
 1096TIP3    H124847   3.869   0.999   1.118
 1096TIP3    H224848   3.806   1.098   1.023
 1097TIP3   OH224849   3.522   5.111   8.130
 1097TIP3    H124850   3.540   5.029   8.176
 1097TIP3    H224851   3.563   5.179   8.183
 1098TIP3   OH224852   0.159   3.594   1.045
 1098TIP3    H124853   0.186   3.667   0.990
 1098TIP3    H224854   0.116   3.533   0.986
 1099TIP3   OH224855   2.982   5.243   7.904
 1099TIP3    H124856   2.946   5.159   7.876
 1099TIP3    H224857   2.970   5.301   7.829
 1100TIP3   OH224858   3.155   0.848   7.861
 1100TIP3    H124859   3.227   0.788   7.881
 1100TIP3    H224860   3.076   0.794   7.866
 1101TIP3   OH224861   5.456   6.616   8.641
 1101TIP3    H124862   5.469   6.538   8.586
 1101TIP3    H224863   5.408   6.677   8.585
 1102TIP3   OH224864   3.474   4.736   6.871
 1102TIP3    H124865   3.494   4.729   6.777
 1102TIP3    H224866   3.430   4.654   6.892
 1103TIP3   OH224867   4.832   3.150   1.766
 1103TIP3    H124868   4.897   3.092   1.805
 1103TIP3    H224869   4.851   3.236   1.804
 1104TIP3   OH224870   3.049   6.228   1.050
 1104TIP3    H124871   3.073   6.153   0.996
 1104TIP3    H224872   3.040   6.300   0.988
 1105TIP3   OH224873   1.856   5.078   7.426
 1105TIP3    H124874   1.841   5.166   7.393
 1105TIP3    H224875   1.835   5.021   7.351
 1106TIP3   OH224876   3.152   6.574   1.175
 1106TIP3    H124877   3.072   6.577   1.227
 1106TIP3    H224878   3.212   6.521   1.226
 1107TIP3   OH224879   6.853   2.398   6.205
 1107TIP3    H124880   0.047   2.336   6.215
 1107TIP3    H224881   0.012   2.470   6.154
 1108TIP3   OH224882   0.296   5.336   8.529
 1108TIP3    H124883   0.310   5.272   8.599
 1108TIP3    H224884   0.201   5.344   8.522
 1109TIP3   OH224885   5.016   1.486   1.855
 1109TIP3    H124886   5.047   1.455   1.770
 1109TIP3    H224887   4.932   1.442   1.867
 1110TIP3   OH224888   1.540   3.159   0.008
 1110TIP3    H124889   1.480   3.100   0.052
 1110TIP3    H224890   1.563   3.224   0.074
 1111TIP3   OH224891   5.144   2.216   7.009
 1111TIP3    H124892   5.091   2.249   7.082
 1111TIP3    H224893   5.185   2.294   6.972
 1112TIP3   OH224894   4.900   0.357   0.603
 1112TIP3    H124895   4.923   0.400   0.685
 1112TIP3    H224896   4.836   0.415   0.562
 1113TIP3   OH224897   2.435   2.681   7.524
 1113TIP3    H124898   2.353   2.677   7.475
 1113TIP3    H224899   2.497   2.722   7.464
 1114TIP3   OH224900   5.507   5.273   7.337
 1114TIP3    H124901   5.422   5.229   7.345
 1114TIP3    H224902   5.492   5.342   7.272
 1115TIP3   OH224903   0.128   5.619   0.456
 1115TIP3    H124904   0.180   5.596   0.533
 1115TIP3    H224905   0.188   5.668   0.400
 1116TIP3   OH224906   5.356   6.417   0.470
 1116TIP3    H124907   5.448   6.435   0.487
 1116TIP3    H224908   5.312   6.438   0.553
 1117TIP3   OH224909   6.438   4.876   2.343
 1117TIP3    H124910   6.375   4.907   2.278
 1117TIP3    H224911   6.506   4.833   2.291
 1118TIP3   OH224912   4.838   5.139   0.567
 1118TIP3    H124913   4.895   5.065   0.589
 1118TIP3    H224914   4.888   5.188   0.501
 1119TIP3   OH224915   4.184   0.587   1.878
 1119TIP3    H124916   4.117   0.554   1.939
 1119TIP3    H224917   4.145   0.573   1.791
 1120TIP3   OH224918   5.284   3.533   7.195
 1120TIP3    H124919   5.236   3.514   7.275
 1120TIP3    H224920   5.306   3.626   7.201
 1121TIP3   OH224921   2.384   0.948   6.826
 1121TIP3    H124922   2.398   0.990   6.910
 1121TIP3    H224923   2.295   0.913   6.831
 1122TIP3   OH224924   2.443   6.829   0.593
 1122TIP3    H124925   2.474   6.739   0.603
 1122TIP3    H224926   2.380   6.824   0.521
 1123TIP3   OH224927   0.871   2.007   0.378
 1123TIP3    H124928   0.957   2.041   0.352
 1123TIP3    H224929   0.869   2.018   0.473
 1124TIP3   OH224930   3.412   6.607   0.488
 1124TIP3    H124931   3.338   6.663   0.468
 1124TIP3    H224932   3.404   6.533   0.427
 1125TIP3   OH224933   1.601   5.240   7.400
 1125TIP3    H124934   1.587   5.247   7.305
 1125TIP3    H224935   1.549   5.312   7.437
 1126TIP3   OH224936   2.490   2.170   6.777
 1126TIP3    H124937   2.517   2.079   6.789
 1126TIP3    H224938   2.535   2.197   6.697
 1127TIP3   OH224939   6.723   5.076   1.762
 1127TIP3    H124940   6.634   5.100   1.787
 1127TIP3    H224941   6.735   5.114   1.675
 1128TIP3   OH224942   3.892   1.873   7.004
 1128TIP3    H124943   3.837   1.941   6.965
 1128TIP3    H224944   3.830   1.815   7.048
 1129TIP3   OH224945   6.719   1.916   6.777
 1129TIP3    H124946   6.745   2.008   6.771
 1129TIP3    H224947   6.796   1.867   6.747
 1130TIP3   OH224948   1.424   6.361   2.607
 1130TIP3    H124949   1.394   6.403   2.688
 1130TIP3    H224950   1.360   6.389   2.541
 1131TIP3   OH224951   5.032   5.422   1.231
 1131TIP3    H124952   4.997   5.469   1.155
 1131TIP3    H224953   5.030   5.330   1.206
 1132TIP3   OH224954   6.497   4.979   1.086
 1132TIP3    H124955   6.506   5.048   1.151
 1132TIP3    H224956   6.503   5.024   1.002
 1133TIP3   OH224957   1.391   0.642   6.533
 1133TIP3    H124958   1.305   0.677   6.556
 1133TIP3    H224959   1.404   0.570   6.595
 1134TIP3   OH224960   2.147   3.352   7.285
 1134TIP3    H124961   2.141   3.325   7.377
 1134TIP3    H224962   2.058   3.378   7.262
 1135TIP3   OH224963   6.257   5.338   7.418
 1135TIP3    H124964   6.253   5.268   7.483
 1135TIP3    H224965   6.315   5.303   7.349
 1136TIP3   OH224966   4.483   4.310   7.407
 1136TIP3    H124967   4.429   4.316   7.486
 1136TIP3    H224968   4.535   4.231   7.420
 1137TIP3   OH224969   0.894   5.351   7.878
 1137TIP3    H124970   0.846   5.420   7.833
 1137TIP3    H224971   0.979   5.348   7.834
 1138TIP3   OH224972   1.137   6.752   6.806
 1138TIP3    H124973   1.187   6.833   6.807
 1138TIP3    H224974   1.147   6.718   6.717
 1139TIP3   OH224975   6.876   2.583   7.499
 1139TIP3    H124976   6.827   2.660   7.472
 1139TIP3    H224977   0.089   2.604   7.478
 1140TIP3   OH224978   2.886   4.293   0.859
 1140TIP3    H124979   2.880   4.387   0.842
 1140TIP3    H224980   2.850   4.252   0.780
 1141TIP3   OH224981   6.856   6.118   7.823
 1141TIP3    H124982   0.036   6.063   7.876
 1141TIP3    H224983   0.016   6.206   7.830
 1142TIP3   OH224984   0.798   3.654   1.223
 1142TIP3    H124985   0.892   3.635   1.226
 1142TIP3    H224986   0.760   3.599   1.292
 1143TIP3   OH224987   3.246   0.608   6.294
 1143TIP3    H124988   3.201   0.692   6.303
 1143TIP3    H224989   3.231   0.582   6.203
 1144TIP3   OH224990   2.405   1.166   2.412
 1144TIP3    H124991   2.357   1.179   2.331
 1144TIP3    H224992   2.389   1.246   2.463
 1145TIP3   OH224993   1.214   0.092   7.766
 1145TIP3    H124994   1.153   0.163   7.746
 1145TIP3    H224995   1.284   0.134   7.816
 1146TIP3   OH224996   3.727   6.783   1.519
 1146TIP3    H124997   3.797   6.718   1.510
 1146TIP3    H224998   3.706   6.809   1.429
 1147TIP3   OH224999   3.116   5.831   1.913
 1147TIP3    H125000   3.183   5.899   1.923
 1147TIP3    H225001   3.055   5.847   1.985
 1148TIP3   OH225002   5.265   1.832   8.298
 1148TIP3    H125003   5.253   1.927   8.287
 1148TIP3    H225004   5.194   1.805   8.356
 1149TIP3   OH225005   6.717   6.374   6.678
 1149TIP3    H125006   6.629   6.355   6.710
 1149TIP3    H225007   6.725   6.324   6.597
 1150TIP3   OH225008   1.030   0.528   7.259
 1150TIP3    H125009   0.935   0.521   7.249
 1150TIP3    H225010   1.043   0.603   7.317
 1151TIP3   OH225011   2.048   0.715   1.927
 1151TIP3    H125012   2.029   0.629   1.965
 1151TIP3    H225013   1.987   0.774   1.970
 1152TIP3   OH225014   2.428   0.238   8.092
 1152TIP3    H125015   2.348   0.202   8.128
 1152TIP3    H225016   2.476   0.271   8.168
 1153TIP3   OH225017   1.363   4.215   1.453
 1153TIP3    H125018   1.289   4.239   1.397
 1153TIP3    H225019   1.387   4.296   1.498
 1154TIP3   OH225020   3.299   3.346   7.630
 1154TIP3    H125021   3.388   3.326   7.600
 1154TIP3    H225022   3.276   3.273   7.687
 1155TIP3   OH225023   0.920   5.612   7.802
 1155TIP3    H125024   0.926   5.685   7.863
 1155TIP3    H225025   1.010   5.596   7.775
 1156TIP3   OH225026   6.737   1.709   6.978
 1156TIP3    H125027   6.751   1.758   6.897
 1156TIP3    H225028   6.670   1.644   6.956
 1157TIP3   OH225029   1.202   3.291   6.123
 1157TIP3    H125030   1.120   3.283   6.172
 1157TIP3    H225031   1.267   3.247   6.178
 1158TIP3   OH225032   2.971   5.115   8.397
 1158TIP3    H125033   3.011   5.100   8.483
 1158TIP3    H225034   3.034   5.078   8.335
 1159TIP3   OH225035   0.042   5.586   1.128
 1159TIP3    H125036   6.861   5.632   1.067
 1159TIP3    H225037   0.003   5.599   1.214
 1160TIP3   OH225038   6.401   1.089   1.306
 1160TIP3    H125039   6.315   1.112   1.340
 1160TIP3    H225040   6.414   1.147   1.231
 1161TIP3   OH225041   1.324   2.666   0.822
 1161TIP3    H125042   1.274   2.653   0.902
 1161TIP3    H225043   1.410   2.627   0.841
 1162TIP3   OH225044   5.622   4.128   6.929
 1162TIP3    H125045   5.640   4.039   6.898
 1162TIP3    H225046   5.705   4.174   6.916
 1163TIP3   OH225047   4.148   6.270   1.735
 1163TIP3    H125048   4.069   6.232   1.697
 1163TIP3    H225049   4.218   6.211   1.707
 1164TIP3   OH225050   5.997   2.518   7.244
 1164TIP3    H125051   5.994   2.423   7.236
 1164TIP3    H225052   5.957   2.550   7.163
 1165TIP3   OH225053   3.015   4.579   7.503
 1165TIP3    H125054   2.939   4.607   7.453
 1165TIP3    H225055   3.087   4.633   7.469
 1166TIP3   OH225056   3.662   5.457   7.415
 1166TIP3    H125057   3.752   5.428   7.400
 1166TIP3    H225058   3.608   5.386   7.381
 1167TIP3   OH225059   6.033   1.535   8.349
 1167TIP3    H125060   5.951   1.582   8.331
 1167TIP3    H225061   6.102   1.593   8.317
 1168TIP3   OH225062   1.903   1.951   7.307
 1168TIP3    H125063   1.892   1.956   7.402
 1168TIP3    H225064   1.927   2.040   7.281
 1169TIP3   OH225065   5.565   1.105   2.525
 1169TIP3    H125066   5.525   1.132   2.607
 1169TIP3    H225067   5.659   1.113   2.540
 1170TIP3   OH225068   2.147   5.645   7.347
 1170TIP3    H125069   2.132   5.551   7.347
 1170TIP3    H225070   2.059   5.683   7.339
 1171TIP3   OH225071   3.994   2.206   7.497
 1171TIP3    H125072   3.938   2.228   7.571
 1171TIP3    H225073   4.035   2.289   7.473
 1172TIP3   OH225074   2.099   2.824   6.686
 1172TIP3    H125075   2.158   2.752   6.709
 1172TIP3    H225076   2.130   2.898   6.738
 1173TIP3   OH225077   3.615   5.101   1.198
 1173TIP3    H125078   3.706   5.071   1.200
 1173TIP3    H225079   3.566   5.033   1.244
 1174TIP3   OH225080   5.418   2.129   7.020
 1174TIP3    H125081   5.326   2.155   7.024
 1174TIP3    H225082   5.440   2.135   6.927
 1175TIP3   OH225083   6.095   0.435   0.891
 1175TIP3    H125084   6.178   0.432   0.842
 1175TIP3    H225085   6.121   0.461   0.980
 1176TIP3   OH225086   6.360   1.339   7.691
 1176TIP3    H125087   6.441   1.389   7.695
 1176TIP3    H225088   6.387   1.248   7.702
 1177TIP3   OH225089   3.959   6.685   0.384
 1177TIP3    H125090   3.988   6.776   0.390
 1177TIP3    H225091   4.039   6.634   0.371
 1178TIP3   OH225092   0.538   3.765   1.760
 1178TIP3    H125093   0.491   3.771   1.843
 1178TIP3    H225094   0.576   3.852   1.747
 1179TIP3   OH225095   0.387   5.741   2.114
 1179TIP3    H125096   0.433   5.739   2.198
 1179TIP3    H225097   0.314   5.800   2.129
 1180TIP3   OH225098   5.013   5.515   2.072
 1180TIP3    H125099   5.017   5.537   2.165
 1180TIP3    H225100   4.941   5.452   2.066
 1181TIP3   OH225101   0.400   5.993   7.598
 1181TIP3    H125102   0.366   5.914   7.639
 1181TIP3    H225103   0.323   6.040   7.567
 1182TIP3   OH225104   2.419   6.441   7.044
 1182TIP3    H125105   2.483   6.477   6.983
 1182TIP3    H225106   2.337   6.485   7.021
 1183TIP3   OH225107   6.858   4.970   6.724
 1183TIP3    H125108   0.044   4.899   6.727
 1183TIP3    H225109   6.777   4.932   6.756
 1184TIP3   OH225110   5.666   4.488   1.442
 1184TIP3    H125111   5.607   4.413   1.450
 1184TIP3    H225112   5.726   4.478   1.516
 1185TIP3   OH225113   2.853   0.339   1.477
 1185TIP3    H125114   2.855   0.278   1.403
 1185TIP3    H225115   2.909   0.300   1.543
 1186TIP3   OH225116   1.280   4.402   6.953
 1186TIP3    H125117   1.237   4.443   6.878
 1186TIP3    H225118   1.371   4.431   6.948
 1187TIP3   OH225119   0.331   0.754   8.285
 1187TIP3    H125120   0.284   0.671   8.271
 1187TIP3    H225121   0.285   0.795   8.358
 1188TIP3   OH225122   0.471   5.628   7.539
 1188TIP3    H125123   0.427   5.683   7.604
 1188TIP3    H225124   0.516   5.562   7.590
 1189TIP3   OH225125   4.387   5.635   0.823
 1189TIP3    H125126   4.406   5.595   0.908
 1189TIP3    H225127   4.306   5.593   0.794
 1190TIP3   OH225128   5.217   3.824   8.538
 1190TIP3    H125129   5.282   3.764   8.502
 1190TIP3    H225130   5.165   3.769   8.597
 1191TIP3   OH225131   5.907   3.871   1.555
 1191TIP3    H125132   5.897   3.805   1.487
 1191TIP3    H225133   5.998   3.900   1.548
 1192TIP3   OH225134   2.486   5.582   0.601
 1192TIP3    H125135   2.546   5.552   0.532
 1192TIP3    H225136   2.475   5.506   0.657
 1193TIP3   OH225137   2.359   1.757   8.352
 1193TIP3    H125138   2.399   1.818   8.414
 1193TIP3    H225139   2.433   1.710   8.313
 1194TIP3   OH225140   6.498   3.220   6.875
 1194TIP3    H125141   6.518   3.279   6.949
 1194TIP3    H225142   6.426   3.165   6.908
 1195TIP3   OH225143   5.060   3.468   0.252
 1195TIP3    H125144   4.988   3.493   0.311
 1195TIP3    H225145   5.020   3.404   0.192
 1196TIP3   OH225146   0.070   0.391   0.071
 1196TIP3    H125147   0.100   0.417   8.635
 1196TIP3    H225148   6.874   0.333   0.055
 1197TIP3   OH225149   4.137   6.647   2.422
 1197TIP3    H125150   4.198   6.719   2.410
 1197TIP3    H225151   4.053   6.679   2.387
 1198TIP3   OH225152   0.055   1.542   7.094
 1198TIP3    H125153   6.863   1.596   7.056
 1198TIP3    H225154   0.126   1.545   7.029
 1199TIP3   OH225155   4.746   6.496   6.010
 1199TIP3    H125156   4.720   6.483   5.919
 1199TIP3    H225157   4.663   6.510   6.056
 1200TIP3   OH225158   5.872   3.943   2.214
 1200TIP3    H125159   5.840   4.009   2.154
 1200TIP3    H225160   5.864   3.861   2.166
 1201TIP3   OH225161   3.193   4.020   0.437
 1201TIP3    H125162   3.264   4.045   0.378
 1201TIP3    H225163   3.238   3.987   0.515
 1202TIP3   OH225164   1.003   3.288   6.291
 1202TIP3    H125165   0.971   3.208   6.332
 1202TIP3    H225166   0.934   3.353   6.308
 1203TIP3   OH225167   4.431   4.699   1.093
 1203TIP3    H125168   4.352   4.705   1.039
 1203TIP3    H225169   4.419   4.618   1.143
 1204TIP3   OH225170   4.776   1.113   1.809
 1204TIP3    H125171   4.820   1.159   1.737
 1204TIP3    H225172   4.813   1.151   1.888
 1205TIP3   OH225173   1.776   4.049   0.149
 1205TIP3    H125174   1.799   3.994   0.223
 1205TIP3    H225175   1.738   3.989   0.085
 1206TIP3   OH225176   2.712   2.466   1.818
 1206TIP3    H125177   2.757   2.384   1.799
 1206TIP3    H225178   2.649   2.476   1.747
 1207TIP3   OH225179   1.759   3.715   7.507
 1207TIP3    H125180   1.677   3.720   7.557
 1207TIP3    H225181   1.814   3.658   7.560
 1208TIP3   OH225182   6.317   5.902   1.387
 1208TIP3    H125183   6.295   5.951   1.466
 1208TIP3    H225184   6.413   5.898   1.387
 1209TIP3   OH225185   0.550   1.165   7.837
 1209TIP3    H125186   0.466   1.166   7.792
 1209TIP3    H225187   0.558   1.252   7.875
 1210TIP3   OH225188   6.085   0.227   0.571
 1210TIP3    H125189   6.156   0.188   0.623
 1210TIP3    H225190   6.100   0.321   0.576
 1211TIP3   OH225191   6.150   3.955   1.629
 1211TIP3    H125192   6.207   3.948   1.706
 1211TIP3    H225193   6.065   3.983   1.663
 1212TIP3   OH225194   1.345   4.667   7.349
 1212TIP3    H125195   1.424   4.619   7.372
 1212TIP3    H225196   1.377   4.754   7.322
 1213TIP3   OH225197   4.181   4.845   7.517
 1213TIP3    H125198   4.093   4.831   7.552
 1213TIP3    H225199   4.229   4.766   7.542
 1214TIP3   OH225200   5.517   6.207   3.067
 1214TIP3    H125201   5.510   6.220   3.161
 1214TIP3    H225202   5.503   6.293   3.029
 1215TIP3   OH225203   4.793   0.167   0.326
 1215TIP3    H125204   4.738   0.089   0.324
 1215TIP3    H225205   4.874   0.138   0.368
 1216TIP3   OH225206   0.483   3.098   0.042
 1216TIP3    H125207   0.484   3.003   0.032
 1216TIP3    H225208   0.575   3.122   0.055
 1217TIP3   OH225209   5.603   4.557   0.127
 1217TIP3    H125210   5.690   4.573   0.164
 1217TIP3    H225211   5.543   4.589   0.193
 1218TIP3   OH225212   3.663   2.285   6.355
 1218TIP3    H125213   3.652   2.380   6.366
 1218TIP3    H225214   3.753   2.267   6.383
 1219TIP3   OH225215   6.208   4.317   8.540
 1219TIP3    H125216   6.202   4.412   8.536
 1219TIP3    H225217   6.264   4.293   8.467
 1220TIP3   OH225218   0.728   5.614   8.621
 1220TIP3    H125219   0.654   5.617   0.031
 1220TIP3    H225220   0.790   5.554   0.012
 1221TIP3   OH225221   3.904   6.693   2.282
 1221TIP3    H125222   3.945   6.774   2.248
 1221TIP3    H225223   3.813   6.718   2.298
 1222TIP3   OH225224   5.679   2.121   6.594
 1222TIP3    H125225   5.767   2.110   6.560
 1222TIP3    H225226   5.661   2.215   6.587
 1223TIP3   OH225227   0.947   4.044   2.160
 1223TIP3    H125228   1.035   4.023   2.191
 1223TIP3    H225229   0.934   4.136   2.186
 1224TIP3   OH225230   5.999   2.639   0.805
 1224TIP3    H125231   5.975   2.554   0.842
 1224TIP3    H225232   5.916   2.678   0.777
 1225TIP3   OH225233   6.091   0.861   0.478
 1225TIP3    H125234   6.097   0.811   0.559
 1225TIP3    H225235   6.112   0.798   0.409
 1226TIP3   OH225236   1.468   1.830   0.660
 1226TIP3    H125237   1.380   1.829   0.698
 1226TIP3    H225238   1.496   1.738   0.664
 1227TIP3   OH225239   1.637   1.059   7.408
 1227TIP3    H125240   1.679   1.139   7.374
 1227TIP3    H225241   1.666   0.990   7.348
 1228TIP3   OH225242   0.388   4.050   1.388
 1228TIP3    H125243   0.407   3.958   1.369
 1228TIP3    H225244   0.411   4.060   1.481
 1229TIP3   OH225245   1.823   0.549   7.151
 1229TIP3    H125246   1.818   0.479   7.216
 1229TIP3    H225247   1.872   0.510   7.078
 1230TIP3   OH225248   6.184   4.365   7.691
 1230TIP3    H125249   6.184   4.377   7.596
 1230TIP3    H225250   6.276   4.352   7.714
 1231TIP3   OH225251   5.344   0.024   7.002
 1231TIP3    H125252   5.416   0.078   6.971
 1231TIP3    H225253   5.286   0.015   6.927
 1232TIP3   OH225254   4.154   1.062   7.443
 1232TIP3    H125255   4.128   1.144   7.401
 1232TIP3    H225256   4.247   1.054   7.422
 1233TIP3   OH225257   3.085   3.056   1.799
 1233TIP3    H125258   3.030   3.098   1.865
 1233TIP3    H225259   3.124   2.981   1.844
 1234TIP3   OH225260   1.896   0.071   0.230
 1234TIP3    H125261   1.925   0.155   0.195
 1234TIP3    H225262   1.957   0.007   0.192
 1235TIP3   OH225263   5.152   1.892   0.297
 1235TIP3    H125264   5.080   1.829   0.304
 1235TIP3    H225265   5.222   1.843   0.255
 1236TIP3   OH225266   5.562   1.525   1.800
 1236TIP3    H125267   5.550   1.495   1.891
 1236TIP3    H225268   5.498   1.475   1.750
 1237TIP3   OH225269   0.299   4.799   1.671
 1237TIP3    H125270   0.318   4.804   1.577
 1237TIP3    H225271   0.295   4.890   1.699
 1238TIP3   OH225272   3.554   1.754   1.275
 1238TIP3    H125273   3.471   1.798   1.256
 1238TIP3    H225274   3.605   1.818   1.325
 1239TIP3   OH225275   5.565   2.649   0.048
 1239TIP3    H125276   5.630   2.700   0.097
 1239TIP3    H225277   5.481   2.681   0.081
 1240TIP3   OH225278   1.651   1.675   0.153
 1240TIP3    H125279   1.586   1.614   0.187
 1240TIP3    H225280   1.705   1.622   0.095
 1241TIP3   OH225281   4.724   1.880   7.641
 1241TIP3    H125282   4.692   1.883   7.731
 1241TIP3    H225283   4.688   1.958   7.600
 1242TIP3   OH225284   6.774   4.502   8.513
 1242TIP3    H125285   6.797   4.540   8.598
 1242TIP3    H225286   6.806   4.566   8.449
 1243TIP3   OH225287   1.872   4.866   7.255
 1243TIP3    H125288   1.862   4.777   7.287
 1243TIP3    H225289   1.913   4.856   7.169
 1244TIP3   OH225290   4.394   2.879   1.673
 1244TIP3    H125291   4.319   2.926   1.710
 1244TIP3    H225292   4.469   2.936   1.691
 1245TIP3   OH225293   0.835   5.575   7.318
 1245TIP3    H125294   0.810   5.515   7.247
 1245TIP3    H225295   0.777   5.650   7.307
 1246TIP3   OH225296   4.455   1.346   7.407
 1246TIP3    H125297   4.468   1.431   7.450
 1246TIP3    H225298   4.373   1.357   7.357
 1247TIP3   OH225299   2.565   4.673   7.181
 1247TIP3    H125300   2.583   4.579   7.182
 1247TIP3    H225301   2.527   4.689   7.095
 1248TIP3   OH225302   0.647   5.069   0.693
 1248TIP3    H125303   0.683   5.154   0.717
 1248TIP3    H225304   0.629   5.026   0.777
 1249TIP3   OH225305   3.571   5.115   1.942
 1249TIP3    H125306   3.558   5.109   2.037
 1249TIP3    H225307   3.580   5.209   1.925
 1250TIP3   OH225308   4.559   5.478   1.024
 1250TIP3    H125309   4.627   5.431   1.072
 1250TIP3    H225310   4.601   5.504   0.942
 1251TIP3   OH225311   4.731   4.457   7.939
 1251TIP3    H125312   4.811   4.510   7.938
 1251TIP3    H225313   4.663   4.517   7.969
 1252TIP3   OH225314   4.079   0.570   1.219
 1252TIP3    H125315   4.065   0.498   1.157
 1252TIP3    H225316   4.161   0.549   1.263
 1253TIP3   OH225317   2.966   4.683   6.912
 1253TIP3    H125318   2.989   4.751   6.976
 1253TIP3    H225319   2.885   4.714   6.873
 1254TIP3   OH225320   5.783   0.326   2.780
 1254TIP3    H125321   5.873   0.305   2.758
 1254TIP3    H225322   5.763   0.272   2.857
 1255TIP3   OH225323   3.517   1.330   8.606
 1255TIP3    H125324   3.466   1.374   8.539
 1255TIP3    H225325   3.459   1.260   8.638
 1256TIP3   OH225326   1.855   2.843   2.174
 1256TIP3    H125327   1.841   2.904   2.102
 1256TIP3    H225328   1.840   2.895   2.253
 1257TIP3   OH225329   1.057   4.638   0.074
 1257TIP3    H125330   1.069   4.684   8.641
 1257TIP3    H225331   1.145   4.608   0.096
 1258TIP3   OH225332   0.698   6.454   0.364
 1258TIP3    H125333   0.704   6.365   0.397
 1258TIP3    H225334   0.605   6.475   0.368
 1259TIP3   OH225335   4.026   5.909   1.148
 1259TIP3    H125336   4.038   5.944   1.060
 1259TIP3    H225337   4.114   5.902   1.184
 1260TIP3   OH225338   4.988   1.574   7.775
 1260TIP3    H125339   4.949   1.587   7.861
 1260TIP3    H225340   4.926   1.518   7.729
 1261TIP3   OH225341   6.824   2.286   1.979
 1261TIP3    H125342   6.817   2.194   1.953
 1261TIP3    H225343   0.015   2.288   2.044
 1262TIP3   OH225344   4.381   2.255   8.606
 1262TIP3    H125345   4.418   2.202   8.536
 1262TIP3    H225346   4.289   2.267   8.581
 1263TIP3   OH225347   1.912   5.869   0.274
 1263TIP3    H125348   1.994   5.866   0.226
 1263TIP3    H225349   1.929   5.931   0.346
 1264TIP3   OH225350   5.858   0.132   0.429
 1264TIP3    H125351   5.882   0.153   0.339
 1264TIP3    H225352   5.925   0.174   0.482
 1265TIP3   OH225353   0.047   0.176   1.351
 1265TIP3    H125354   0.026   0.192   1.258
 1265TIP3    H225355   0.080   0.086   1.353
 1266TIP3   OH225356   2.934   3.609   7.719
 1266TIP3    H125357   2.845   3.581   7.699
 1266TIP3    H225358   2.958   3.560   7.798
 1267TIP3   OH225359   0.711   1.390   1.029
 1267TIP3    H125360   0.756   1.306   1.035
 1267TIP3    H225361   0.633   1.371   0.976
 1268TIP3   OH225362   3.839   1.140   6.988
 1268TIP3    H125363   3.832   1.230   6.955
 1268TIP3    H225364   3.775   1.135   7.058
 1269TIP3   OH225365   2.032   5.807   8.344
 1269TIP3    H125366   1.984   5.757   8.410
 1269TIP3    H225367   2.121   5.814   8.380
 1270TIP3   OH225368   5.455   4.646   0.322
 1270TIP3    H125369   5.472   4.728   0.368
 1270TIP3    H225370   5.442   4.581   0.392
 1271TIP3   OH225371   6.545   2.201   7.939
 1271TIP3    H125372   6.545   2.291   7.907
 1271TIP3    H225373   6.492   2.205   8.019
 1272TIP3   OH225374   1.740   2.985   7.495
 1272TIP3    H125375   1.779   3.039   7.564
 1272TIP3    H225376   1.796   2.999   7.418
 1273TIP3   OH225377   4.431   2.835   1.212
 1273TIP3    H125378   4.362   2.852   1.276
 1273TIP3    H225379   4.499   2.898   1.234
 1274TIP3   OH225380   0.446   4.864   6.823
 1274TIP3    H125381   0.408   4.785   6.863
 1274TIP3    H225382   0.462   4.840   6.732
 1275TIP3   OH225383   4.724   3.829   7.190
 1275TIP3    H125384   4.672   3.826   7.270
 1275TIP3    H225385   4.671   3.782   7.126
 1276TIP3   OH225386   4.254   4.992   6.169
 1276TIP3    H125387   4.267   4.940   6.090
 1276TIP3    H225388   4.300   4.944   6.238
 1277TIP3   OH225389   6.655   2.099   6.532
 1277TIP3    H125390   6.702   2.044   6.470
 1277TIP3    H225391   6.588   2.143   6.480
 1278TIP3   OH225392   1.367   3.745   1.263
 1278TIP3    H125393   1.276   3.716   1.263
 1278TIP3    H225394   1.387   3.764   1.354
 1279TIP3   OH225395   5.329   4.158   1.217
 1279TIP3    H125396   5.300   4.243   1.185
 1279TIP3    H225397   5.425   4.165   1.222
 1280TIP3   OH225398   4.156   2.514   0.516
 1280TIP3    H125399   4.148   2.609   0.523
 1280TIP3    H225400   4.243   2.500   0.478
 1281TIP3   OH225401   2.746   4.446   8.446
 1281TIP3    H125402   2.802   4.404   8.512
 1281TIP3    H225403   2.807   4.484   8.383
 1282TIP3   OH225404   3.188   1.284   2.214
 1282TIP3    H125405   3.183   1.379   2.205
 1282TIP3    H225406   3.189   1.251   2.124
 1283TIP3   OH225407   2.604   0.401   1.585
 1283TIP3    H125408   2.606   0.432   1.675
 1283TIP3    H225409   2.696   0.391   1.561
 1284TIP3   OH225410   3.514   5.295   7.655
 1284TIP3    H125411   3.447   5.233   7.682
 1284TIP3    H225412   3.526   5.279   7.561
 1285TIP3   OH225413   4.396   6.223   7.538
 1285TIP3    H125414   4.362   6.255   7.455
 1285TIP3    H225415   4.435   6.139   7.517
 1286TIP3   OH225416   6.506   4.648   0.039
 1286TIP3    H125417   6.592   4.623   0.073
 1286TIP3    H225418   6.448   4.575   0.065
 1287TIP3   OH225419   1.515   2.798   1.261
 1287TIP3    H125420   1.512   2.887   1.226
 1287TIP3    H225421   1.464   2.802   1.342
 1288TIP3   OH225422   2.065   5.449   8.134
 1288TIP3    H125423   2.015   5.395   8.195
 1288TIP3    H225424   2.024   5.535   8.139
 1289TIP3   OH225425   4.082   6.547   6.616
 1289TIP3    H125426   4.017   6.615   6.602
 1289TIP3    H225427   4.080   6.494   6.536
 1290TIP3   OH225428   0.212   5.619   0.062
 1290TIP3    H125429   0.263   5.604   8.633
 1290TIP3    H225430   0.272   5.661   0.122
 1291TIP3   OH225431   6.012   5.763   7.315
 1291TIP3    H125432   6.089   5.706   7.309
 1291TIP3    H225433   6.036   5.840   7.263
 1292TIP3   OH225434   0.391   4.151   1.927
 1292TIP3    H125435   0.345   4.077   1.966
 1292TIP3    H225436   0.337   4.227   1.948
 1293TIP3   OH225437   4.106   5.928   0.637
 1293TIP3    H125438   4.114   5.857   0.573
 1293TIP3    H225439   4.031   5.980   0.607
 1294TIP3   OH225440   5.124   1.214   6.690
 1294TIP3    H125441   5.065   1.244   6.759
 1294TIP3    H225442   5.066   1.200   6.614
 1295TIP3   OH225443   2.719   1.151   1.428
 1295TIP3    H125444   2.788   1.192   1.480
 1295TIP3    H225445   2.709   1.063   1.464
 1296TIP3   OH225446   6.505   6.810   1.853
 1296TIP3    H125447   6.510   0.006   1.793
 1296TIP3    H225448   6.527   6.848   1.938
 1297TIP3   OH225449   4.287   1.718   0.615
 1297TIP3    H125450   4.316   1.666   0.540
 1297TIP3    H225451   4.324   1.805   0.599
 1298TIP3   OH225452   5.475   1.257   2.335
 1298TIP3    H125453   5.548   1.313   2.307
 1298TIP3    H225454   5.507   1.214   2.414
 1299TIP3   OH225455   0.197   2.150   0.181
 1299TIP3    H125456   0.231   2.067   0.215
 1299TIP3    H225457   0.275   2.205   0.171
 1300TIP3   OH225458   2.249   0.099   6.864
 1300TIP3    H125459   2.217   0.134   6.947
 1300TIP3    H225460   2.174   0.108   6.804
 1301TIP3   OH225461   0.169   3.248   7.245
 1301TIP3    H125462   0.091   3.195   7.265
 1301TIP3    H225463   0.143   3.300   7.169
 1302TIP3   OH225464   5.042   6.835   7.479
 1302TIP3    H125465   5.000   6.755   7.447
 1302TIP3    H225466   5.083   6.809   7.562
 1303TIP3   OH225467   3.330   5.242   1.788
 1303TIP3    H125468   3.339   5.271   1.878
 1303TIP3    H225469   3.402   5.285   1.742
 1304TIP3   OH225470   4.357   6.823   2.433
 1304TIP3    H125471   4.359   6.805   2.527
 1304TIP3    H225472   4.415   0.020   2.422
 1305TIP3   OH225473   2.363   5.563   1.530
 1305TIP3    H125474   2.317   5.645   1.551
 1305TIP3    H225475   2.432   5.557   1.596
 1306TIP3   OH225476   4.107   5.647   1.025
 1306TIP3    H125477   4.035   5.709   1.038
 1306TIP3    H225478   4.102   5.624   0.932
 1307TIP3   OH225479   0.463   2.606   1.131
 1307TIP3    H125480   0.447   2.570   1.218
 1307TIP3    H225481   0.498   2.694   1.147
 1308TIP3   OH225482   4.754   3.738   1.498
 1308TIP3    H125483   4.792   3.793   1.566
 1308TIP3    H225484   4.679   3.696   1.541
 1309TIP3   OH225485   2.350   0.965   8.105
 1309TIP3    H125486   2.385   0.883   8.141
 1309TIP3    H225487   2.356   0.953   8.010
 1310TIP3   OH225488   0.055   0.169   0.897
 1310TIP3    H125489   0.003   0.106   0.946
 1310TIP3    H225490   0.145   0.139   0.906
 1311TIP3   OH225491   2.673   2.775   0.794
 1311TIP3    H125492   2.706   2.864   0.781
 1311TIP3    H225493   2.617   2.759   0.717
 1312TIP3   OH225494   2.325   3.237   1.100
 1312TIP3    H125495   2.255   3.173   1.101
 1312TIP3    H225496   2.285   3.316   1.062
 1313TIP3   OH225497   3.588   0.578   0.850
 1313TIP3    H125498   3.607   0.559   0.941
 1313TIP3    H225499   3.555   0.496   0.814
 1314TIP3   OH225500   4.451   6.225   1.890
 1314TIP3    H125501   4.436   6.310   1.848
 1314TIP3    H225502   4.485   6.248   1.977
 1315TIP3   OH225503   1.125   4.203   6.820
 1315TIP3    H125504   1.155   4.124   6.866
 1315TIP3    H225505   1.105   4.265   6.889
 1316TIP3   OH225506   6.540   5.558   0.761
 1316TIP3    H125507   6.627   5.545   0.726
 1316TIP3    H225508   6.530   5.489   0.827
 1317TIP3   OH225509   5.878   5.567   1.002
 1317TIP3    H125510   5.941   5.632   1.031
 1317TIP3    H225511   5.879   5.500   1.071
 1318TIP3   OH225512   0.191   1.814   2.155
 1318TIP3    H125513   0.126   1.819   2.086
 1318TIP3    H225514   0.205   1.720   2.168
 1319TIP3   OH225515   4.255   2.558   1.103
 1319TIP3    H125516   4.249   2.481   1.048
 1319TIP3    H225517   4.340   2.550   1.147
 1320TIP3   OH225518   0.796   5.149   1.638
 1320TIP3    H125519   0.709   5.177   1.610
 1320TIP3    H225520   0.799   5.168   1.732
 1321TIP3   OH225521   3.693   1.837   6.535
 1321TIP3    H125522   3.725   1.754   6.501
 1321TIP3    H225523   3.676   1.890   6.457
 1322TIP3   OH225524   4.290   1.057   0.758
 1322TIP3    H125525   4.350   1.112   0.808
 1322TIP3    H225526   4.230   1.021   0.823
 1323TIP3   OH225527   4.709   4.432   1.244
 1323TIP3    H125528   4.772   4.389   1.302
 1323TIP3    H225529   4.739   4.410   1.156
 1324TIP3   OH225530   2.071   4.196   7.693
 1324TIP3    H125531   2.148   4.139   7.698
 1324TIP3    H225532   2.009   4.157   7.756
 1325TIP3   OH225533   3.790   3.699   1.661
 1325TIP3    H125534   3.861   3.667   1.716
 1325TIP3    H225535   3.788   3.793   1.677
 1326TIP3   OH225536   6.859   5.853   1.494
 1326TIP3    H125537   6.800   5.923   1.519
 1326TIP3    H225538   0.022   5.826   1.577
 1327TIP3   OH225539   2.265   1.494   0.549
 1327TIP3    H125540   2.216   1.524   0.473
 1327TIP3    H225541   2.354   1.528   0.536
 1328TIP3   OH225542   2.638   5.836   7.835
 1328TIP3    H125543   2.544   5.834   7.848
 1328TIP3    H225544   2.666   5.745   7.842
 1329TIP3   OH225545   6.608   1.839   7.177
 1329TIP3    H125546   6.647   1.802   7.098
 1329TIP3    H225547   6.563   1.764   7.218
 1330TIP3   OH225548   1.269   4.320   6.602
 1330TIP3    H125549   1.311   4.241   6.566
 1330TIP3    H225550   1.235   4.292   6.687
 1331TIP3   OH225551   1.219   3.265   0.803
 1331TIP3    H125552   1.271   3.184   0.804
 1331TIP3    H225553   1.202   3.281   0.710
 1332TIP3   OH225554   6.731   0.598   1.099
 1332TIP3    H125555   6.786   0.596   1.177
 1332TIP3    H225556   6.766   0.530   1.043
 1333TIP3   OH225557   4.127   6.478   0.260
 1333TIP3    H125558   4.088   6.441   0.181
 1333TIP3    H225559   4.221   6.478   0.242
 1334TIP3   OH225560   4.349   1.560   0.109
 1334TIP3    H125561   4.416   1.507   0.065
 1334TIP3    H225562   4.358   1.647   0.071
 1335TIP3   OH225563   6.200   5.293   1.163
 1335TIP3    H125564   6.164   5.205   1.152
 1335TIP3    H225565   6.231   5.295   1.254
 1336TIP3   OH225566   6.829   3.307   1.852
 1336TIP3    H125567   6.814   3.325   1.944
 1336TIP3    H225568   6.853   3.214   1.849
 1337TIP3   OH225569   2.006   2.535   0.022
 1337TIP3    H125570   1.919   2.572   0.038
 1337TIP3    H225571   2.063   2.612   0.014
 1338TIP3   OH225572   3.155   4.003   6.884
 1338TIP3    H125573   3.246   3.987   6.910
 1338TIP3    H225574   3.137   3.936   6.818
 1339TIP3   OH225575   4.654   4.895   1.510
 1339TIP3    H125576   4.635   4.888   1.417
 1339TIP3    H225577   4.736   4.945   1.514
 1340TIP3   OH225578   6.126   2.181   0.634
 1340TIP3    H125579   6.165   2.094   0.629
 1340TIP3    H225580   6.191   2.234   0.680
 1341TIP3   OH225581   6.436   5.778   2.175
 1341TIP3    H125582   6.439   5.824   2.258
 1341TIP3    H225583   6.350   5.737   2.173
 1342TIP3   OH225584   2.983   2.673   1.019
 1342TIP3    H125585   2.979   2.760   1.059
 1342TIP3    H225586   2.894   2.657   0.988
 1343TIP3   OH225587   5.885   1.914   6.568
 1343TIP3    H125588   5.795   1.898   6.595
 1343TIP3    H225589   5.917   1.828   6.540
 1344TIP3   OH225590   5.042   5.003   7.269
 1344TIP3    H125591   5.121   4.949   7.278
 1344TIP3    H225592   5.047   5.037   7.179
 1345TIP3   OH225593   4.561   4.017   8.056
 1345TIP3    H125594   4.500   4.082   8.021
 1345TIP3    H225595   4.593   4.054   8.138
 1346TIP3   OH225596   3.317   3.452   1.484
 1346TIP3    H125597   3.245   3.390   1.496
 1346TIP3    H225598   3.345   3.475   1.572
 1347TIP3   OH225599   3.588   0.917   8.461
 1347TIP3    H125600   3.610   0.917   8.554
 1347TIP3    H225601   3.540   0.834   8.448
 1348TIP3   OH225602   5.440   4.656   0.920
 1348TIP3    H125603   5.443   4.735   0.975
 1348TIP3    H225604   5.350   4.625   0.928
 1349TIP3   OH225605   4.311   4.729   8.106
 1349TIP3    H125606   4.326   4.764   8.194
 1349TIP3    H225607   4.232   4.677   8.114
 1350TIP3   OH225608   0.133   5.410   2.030
 1350TIP3    H125609   0.077   5.488   2.023
 1350TIP3    H225610   0.116   5.361   1.949
 1351TIP3   OH225611   0.421   1.060   1.157
 1351TIP3    H125612   0.381   1.107   1.084
 1351TIP3    H225613   0.466   1.128   1.208
 1352TIP3   OH225614   4.207   4.996   8.382
 1352TIP3    H125615   4.243   5.061   8.321
 1352TIP3    H225616   4.279   4.934   8.395
 1353TIP3   OH225617   6.299   6.561   0.891
 1353TIP3    H125618   6.243   6.629   0.855
 1353TIP3    H225619   6.239   6.495   0.927
 1354TIP3   OH225620   6.566   4.549   6.481
 1354TIP3    H125621   6.610   4.500   6.550
 1354TIP3    H225622   6.565   4.639   6.513
 1355TIP3   OH225623   2.337   5.348   0.334
 1355TIP3    H125624   2.298   5.322   0.418
 1355TIP3    H225625   2.404   5.282   0.317
 1356TIP3   OH225626   4.899   1.554   0.135
 1356TIP3    H125627   4.814   1.510   0.130
 1356TIP3    H225628   4.940   1.536   0.050
 1357TIP3   OH225629   1.338   6.810   1.082
 1357TIP3    H125630   1.268   6.873   1.063
 1357TIP3    H225631   1.340   6.804   1.177
 1358TIP3   OH225632   2.927   4.606   0.227
 1358TIP3    H125633   2.961   4.636   0.312
 1358TIP3    H225634   2.903   4.514   0.242
 1359TIP3   OH225635   2.550   3.505   6.994
 1359TIP3    H125636   2.577   3.561   7.067
 1359TIP3    H225637   2.599   3.538   6.919
 1360TIP3   OH225638   5.776   3.831   1.096
 1360TIP3    H125639   5.822   3.880   1.164
 1360TIP3    H225640   5.748   3.898   1.034
 1361TIP3   OH225641   2.235   6.866   1.294
 1361TIP3    H125642   2.213   6.850   1.203
 1361TIP3    H225643   2.158   0.031   1.331
 1362TIP3   OH225644   6.166   3.043   0.286
 1362TIP3    H125645   6.161   2.977   0.355
 1362TIP3    H225646   6.250   3.086   0.299
 1363TIP3   OH225647   4.371   3.851   7.146
 1363TIP3    H125648   4.381   3.905   7.067
 1363TIP3    H225649   4.424   3.896   7.212
 1364TIP3   OH225650   1.276   4.874   1.083
 1364TIP3    H125651   1.223   4.853   1.160
 1364TIP3    H225652   1.308   4.963   1.100
 1365TIP3   OH225653   3.167   4.882   1.199
 1365TIP3    H125654   3.109   4.956   1.217
 1365TIP3    H225655   3.171   4.878   1.103
 1366TIP3   OH225656   1.023   5.208   6.870
 1366TIP3    H125657   1.076   5.153   6.813
 1366TIP3    H225658   0.956   5.245   6.813
 1367TIP3   OH225659   3.966   1.545   8.242
 1367TIP3    H125660   3.872   1.565   8.234
 1367TIP3    H225661   3.989   1.574   8.330
 1368TIP3   OH225662   2.550   0.620   7.713
 1368TIP3    H125663   2.467   0.588   7.677
 1368TIP3    H225664   2.569   0.559   7.784
 1369TIP3   OH225665   5.798   0.599   8.337
 1369TIP3    H125666   5.881   0.632   8.300
 1369TIP3    H225667   5.752   0.678   8.366
 1370TIP3   OH225668   2.812   0.169   7.581
 1370TIP3    H125669   2.725   0.208   7.570
 1370TIP3    H225670   2.823   0.160   7.675
 1371TIP3   OH225671   0.021   1.863   1.957
 1371TIP3    H125672   6.871   1.941   1.909
 1371TIP3    H225673   6.820   1.811   1.968
 1372TIP3   OH225674   5.692   5.051   2.016
 1372TIP3    H125675   5.750   4.974   2.019
 1372TIP3    H225676   5.707   5.088   1.929
 1373TIP3   OH225677   3.719   1.522   1.216
 1373TIP3    H125678   3.666   1.597   1.244
 1373TIP3    H225679   3.722   1.529   1.121
 1374TIP3   OH225680   4.016   6.859   1.838
 1374TIP3    H125681   4.070   6.799   1.890
 1374TIP3    H225682   4.078   0.021   1.776
 1375TIP3   OH225683   2.010   2.040   8.638
 1375TIP3    H125684   2.007   2.080   0.074
 1375TIP3    H225685   1.967   1.955   8.649
 1376TIP3   OH225686   0.516   5.170   1.636
 1376TIP3    H125687   0.458   5.141   1.707
 1376TIP3    H225688   0.470   5.243   1.595
 1377TIP3   OH225689   2.479   2.023   1.112
 1377TIP3    H125690   2.492   2.011   1.018
 1377TIP3    H225691   2.423   1.949   1.137
 1378TIP3   OH225692   1.244   1.758   6.761
 1378TIP3    H125693   1.247   1.779   6.854
 1378TIP3    H225694   1.334   1.767   6.730
 1379TIP3   OH225695   1.668   5.744   8.537
 1379TIP3    H125696   1.653   5.809   8.606
 1379TIP3    H225697   1.593   5.753   8.479
 1380TIP3   OH225698   4.331   4.703   0.664
 1380TIP3    H125699   4.284   4.689   0.746
 1380TIP3    H225700   4.303   4.631   0.608
 1381TIP3   OH225701   0.102   3.326   0.480
 1381TIP3    H125702   0.048   3.263   0.526
 1381TIP3    H225703   0.096   3.300   0.388
 1382TIP3   OH225704   6.096   1.814   0.809
 1382TIP3    H125705   6.166   1.834   0.747
 1382TIP3    H225706   6.045   1.745   0.768
 1383TIP3   OH225707   5.462   4.896   8.518
 1383TIP3    H125708   5.398   4.937   8.576
 1383TIP3    H225709   5.541   4.887   8.572
 1384TIP3   OH225710   5.490   4.717   7.306
 1384TIP3    H125711   5.513   4.736   7.397
 1384TIP3    H225712   5.572   4.689   7.266
 1385TIP3   OH225713   2.070   2.845   0.818
 1385TIP3    H125714   2.097   2.884   0.901
 1385TIP3    H225715   2.001   2.783   0.841
 1386TIP3   OH225716   4.089   6.421   2.593
 1386TIP3    H125717   4.107   6.506   2.554
 1386TIP3    H225718   4.173   6.389   2.625
 1387TIP3   OH225719   3.905   5.715   8.160
 1387TIP3    H125720   3.810   5.728   8.164
 1387TIP3    H225721   3.915   5.627   8.124
 1388TIP3   OH225722   5.829   1.294   8.538
 1388TIP3    H125723   5.839   1.217   8.483
 1388TIP3    H225724   5.856   1.367   8.482
 1389TIP3   OH225725   6.420   3.885   1.214
 1389TIP3    H125726   6.412   3.978   1.196
 1389TIP3    H225727   6.368   3.842   1.146
 1390TIP3   OH225728   1.145   5.026   7.524
 1390TIP3    H125729   1.085   4.969   7.476
 1390TIP3    H225730   1.203   5.063   7.457
 1391TIP3   OH225731   1.046   5.409   7.068
 1391TIP3    H125732   0.996   5.351   7.126
 1391TIP3    H225733   1.055   5.359   6.987
 1392TIP3   OH225734   4.266   5.955   0.286
 1392TIP3    H125735   4.289   5.958   0.379
 1392TIP3    H225736   4.194   6.017   0.277
 1393TIP3   OH225737   3.416   0.913   8.104
 1393TIP3    H125738   3.368   0.836   8.135
 1393TIP3    H225739   3.378   0.986   8.154
 1394TIP3   OH225740   2.285   4.807   0.073
 1394TIP3    H125741   2.238   4.781   8.646
 1394TIP3    H225742   2.377   4.788   0.054
 1395TIP3   OH225743   6.604   0.833   2.431
 1395TIP3    H125744   6.525   0.873   2.468
 1395TIP3    H225745   6.676   0.878   2.475
 1396TIP3   OH225746   4.133   4.633   7.737
 1396TIP3    H125747   4.139   4.715   7.786
 1396TIP3    H225748   4.044   4.601   7.753
 1397TIP3   OH225749   0.681   3.902   0.136
 1397TIP3    H125750   0.625   3.841   0.184
 1397TIP3    H225751   0.738   3.845   0.084
 1398TIP3   OH225752   6.690   2.766   1.238
 1398TIP3    H125753   6.755   2.697   1.232
 1398TIP3    H225754   6.693   2.795   1.329
 1399TIP3   OH225755   0.731   0.041   1.210
 1399TIP3    H125756   0.761   0.045   1.301
 1399TIP3    H225757   0.766   6.836   1.177
 1400TIP3   OH225758   3.512   6.832   6.691
 1400TIP3    H125759   3.596   6.855   6.651
 1400TIP3    H225760   3.519   6.865   6.781
 1401TIP3   OH225761   2.808   2.649   7.366
 1401TIP3    H125762   2.810   2.589   7.440
 1401TIP3    H225763   2.776   2.595   7.293
 1402TIP3   OH225764   3.905   3.815   6.895
 1402TIP3    H125765   3.995   3.848   6.890
 1402TIP3    H225766   3.858   3.881   6.946
 1403TIP3   OH225767   5.560   5.231   0.059
 1403TIP3    H125768   5.554   5.208   8.617
 1403TIP3    H225769   5.578   5.324   0.061
 1404TIP3   OH225770   0.735   3.238   8.450
 1404TIP3    H125771   0.756   3.322   8.410
 1404TIP3    H225772   0.776   3.172   8.394
 1405TIP3   OH225773   2.670   1.939   6.187
 1405TIP3    H125774   2.668   1.929   6.282
 1405TIP3    H225775   2.585   1.976   6.165
 1406TIP3   OH225776   1.088   0.020   1.163
 1406TIP3    H125777   1.101   0.020   1.258
 1406TIP3    H225778   1.031   6.823   1.146
 1407TIP3   OH225779   6.246   1.151   2.496
 1407TIP3    H125780   6.180   1.139   2.428
 1407TIP3    H225781   6.259   1.063   2.533
 1408TIP3   OH225782   4.374   0.671   8.140
 1408TIP3    H125783   4.306   0.605   8.157
 1408TIP3    H225784   4.383   0.671   8.045
 1409TIP3   OH225785   2.852   4.217   7.212
 1409TIP3    H125786   2.916   4.194   7.280
 1409TIP3    H225787   2.828   4.133   7.173
 1410TIP3   OH225788   4.480   1.186   2.478
 1410TIP3    H125789   4.568   1.155   2.498
 1410TIP3    H225790   4.488   1.281   2.477
 1411TIP3   OH225791   6.614   5.149   6.844
 1411TIP3    H125792   6.635   5.058   6.863
 1411TIP3    H225793   6.697   5.186   6.810
 1412TIP3   OH225794   3.527   1.070   5.890
 1412TIP3    H125795   3.451   1.042   5.941
 1412TIP3    H225796   3.592   1.094   5.955
 1413TIP3   OH225797   6.124   2.088   0.360
 1413TIP3    H125798   6.165   2.141   0.429
 1413TIP3    H225799   6.181   2.012   0.351
 1414TIP3   OH225800   2.654   0.164   0.411
 1414TIP3    H125801   2.704   0.119   0.480
 1414TIP3    H225802   2.670   0.257   0.428
 1415TIP3   OH225803   3.107   1.236   8.397
 1415TIP3    H125804   3.044   1.219   8.328
 1415TIP3    H225805   3.056   1.276   8.468
 1416TIP3   OH225806   6.285   6.580   0.521
 1416TIP3    H125807   6.315   6.551   0.435
 1416TIP3    H225808   6.222   6.513   0.548
 1417TIP3   OH225809   0.736   2.499   7.606
 1417TIP3    H125810   0.687   2.478   7.686
 1417TIP3    H225811   0.816   2.447   7.611
 1418TIP3   OH225812   6.757   5.545   1.610
 1418TIP3    H125813   6.813   5.557   1.686
 1418TIP3    H225814   6.671   5.524   1.646
 1419TIP3   OH225815   1.803   2.724   7.573
 1419TIP3    H125816   1.768   2.804   7.534
 1419TIP3    H225817   1.865   2.691   7.507
 1420TIP3   OH225818   1.033   0.032   0.330
 1420TIP3    H125819   0.943   0.025   0.297
 1420TIP3    H225820   1.078   6.834   0.293
 1421TIP3   OH225821   3.644   5.729   7.493
 1421TIP3    H125822   3.591   5.796   7.451
 1421TIP3    H225823   3.615   5.647   7.452
 1422TIP3   OH225824   0.576   3.666   0.269
 1422TIP3    H125825   0.629   3.610   0.326
 1422TIP3    H225826   0.498   3.613   0.249
 1423TIP3   OH225827   1.398   0.680   7.681
 1423TIP3    H125828   1.478   0.676   7.630
 1423TIP3    H225829   1.367   0.770   7.670
 1424TIP3   OH225830   2.976   6.001   2.272
 1424TIP3    H125831   2.926   5.954   2.205
 1424TIP3    H225832   3.048   5.942   2.294
 1425TIP3   OH225833   3.871   3.262   7.022
 1425TIP3    H125834   3.841   3.324   7.089
 1425TIP3    H225835   3.880   3.314   6.943
 1426TIP3   OH225836   4.436   0.032   8.503
 1426TIP3    H125837   4.438   6.825   8.460
 1426TIP3    H225838   4.343   0.046   8.524
 1427TIP3   OH225839   5.523   3.086   0.420
 1427TIP3    H125840   5.611   3.061   0.447
 1427TIP3    H225841   5.536   3.152   0.352
 1428TIP3   OH225842   0.177   0.971   0.304
 1428TIP3    H125843   0.150   0.879   0.305
 1428TIP3    H225844   0.108   1.016   0.256
 1429TIP3   OH225845   1.964   5.602   1.566
 1429TIP3    H125846   1.892   5.540   1.553
 1429TIP3    H225847   1.923   5.680   1.602
 1430TIP3   OH225848   5.943   6.086   8.154
 1430TIP3    H125849   5.905   6.028   8.088
 1430TIP3    H225850   5.876   6.090   8.223
 1431TIP3   OH225851   0.345   1.457   7.532
 1431TIP3    H125852   0.331   1.537   7.482
 1431TIP3    H225853   0.440   1.450   7.541
 1432TIP3   OH225854   6.743   1.375   0.252
 1432TIP3    H125855   6.808   1.335   0.309
 1432TIP3    H225856   6.788   1.389   0.169
 1433TIP3   OH225857   3.241   4.787   0.943
 1433TIP3    H125858   3.312   4.835   0.899
 1433TIP3    H225859   3.226   4.711   0.888
 1434TIP3   OH225860   0.295   1.693   7.790
 1434TIP3    H125861   0.389   1.709   7.792
 1434TIP3    H225862   0.260   1.760   7.731
 1435TIP3   OH225863   3.688   3.745   6.284
 1435TIP3    H125864   3.769   3.695   6.292
 1435TIP3    H225865   3.689   3.805   6.359
 1436TIP3   OH225866   4.051   6.854   7.496
 1436TIP3    H125867   4.038   0.041   7.565
 1436TIP3    H225868   4.020   6.772   7.535
 1437TIP3   OH225869   2.397   2.390   7.840
 1437TIP3    H125870   2.473   2.335   7.859
 1437TIP3    H225871   2.381   2.376   7.746
 1438TIP3   OH225872   3.452   0.421   8.355
 1438TIP3    H125873   3.536   0.432   8.311
 1438TIP3    H225874   3.410   0.348   8.309
 1439TIP3   OH225875   1.074   2.592   7.561
 1439TIP3    H125876   0.989   2.568   7.596
 1439TIP3    H225877   1.127   2.512   7.571
 1440TIP3   OH225878   3.898   3.577   8.282
 1440TIP3    H125879   3.830   3.642   8.262
 1440TIP3    H225880   3.848   3.498   8.305
 1441TIP3   OH225881   4.553   5.063   1.158
 1441TIP3    H125882   4.553   5.037   1.066
 1441TIP3    H225883   4.594   4.990   1.204
 1442TIP3   OH225884   3.072   6.455   0.921
 1442TIP3    H125885   3.090   6.541   0.957
 1442TIP3    H225886   3.127   6.449   0.843
 1443TIP3   OH225887   4.755   2.608   7.804
 1443TIP3    H125888   4.830   2.665   7.786
 1443TIP3    H225889   4.717   2.592   7.718
 1444TIP3   OH225890   4.072   1.579   1.454
 1444TIP3    H125891   4.048   1.664   1.491
 1444TIP3    H225892   4.145   1.598   1.395
 1445TIP3   OH225893   6.287   0.160   7.121
 1445TIP3    H125894   6.336   0.172   7.202
 1445TIP3    H225895   6.256   0.070   7.124
 1446TIP3   OH225896   3.658   3.495   6.935
 1446TIP3    H125897   3.679   3.460   7.022
 1446TIP3    H225898   3.730   3.465   6.879
 1447TIP3   OH225899   4.083   2.454   7.444
 1447TIP3    H125900   4.160   2.458   7.388
 1447TIP3    H225901   4.090   2.532   7.499
 1448TIP3   OH225902   1.278   1.149   8.223
 1448TIP3    H125903   1.365   1.175   8.254
 1448TIP3    H225904   1.273   1.056   8.242
 1449TIP3   OH225905   5.939   5.522   8.134
 1449TIP3    H125906   5.859   5.569   8.112
 1449TIP3    H225907   5.909   5.440   8.173
 1450TIP3   OH225908   5.833   4.457   7.024
 1450TIP3    H125909   5.851   4.392   6.956
 1450TIP3    H225910   5.785   4.409   7.092
 1451TIP3   OH225911   4.295   6.471   8.512
 1451TIP3    H125912   4.214   6.470   8.563
 1451TIP3    H225913   4.338   6.388   8.533
 1452TIP3   OH225914   0.511   5.629   6.793
 1452TIP3    H125915   0.579   5.680   6.750
 1452TIP3    H225916   0.461   5.693   6.845
 1453TIP3   OH225917   0.713   3.522   7.908
 1453TIP3    H125918   0.636   3.546   7.958
 1453TIP3    H225919   0.697   3.558   7.820
 1454TIP3   OH225920   2.671   1.742   1.029
 1454TIP3    H125921   2.668   1.817   0.969
 1454TIP3    H225922   2.593   1.752   1.083
 1455TIP3   OH225923   5.706   6.215   2.645
 1455TIP3    H125924   5.764   6.282   2.610
 1455TIP3    H225925   5.712   6.143   2.582
 1456TIP3   OH225926   1.182   4.988   6.732
 1456TIP3    H125927   1.264   5.000   6.685
 1456TIP3    H225928   1.170   4.893   6.736
 1457TIP3   OH225929   5.046   6.268   7.311
 1457TIP3    H125930   5.000   6.301   7.389
 1457TIP3    H225931   4.998   6.305   7.238
 1458TIP3   OH225932   4.243   0.317   7.621
 1458TIP3    H125933   4.194   0.369   7.685
 1458TIP3    H225934   4.329   0.305   7.660
 1459TIP3   OH225935   2.403   3.875   7.023
 1459TIP3    H125936   2.455   3.869   6.943
 1459TIP3    H225937   2.459   3.922   7.085
 1460TIP3   OH225938   3.854   1.669   0.347
 1460TIP3    H125939   3.849   1.604   0.277
 1460TIP3    H225940   3.913   1.736   0.313
 1461TIP3   OH225941   4.651   3.591   7.790
 1461TIP3    H125942   4.722   3.567   7.850
 1461TIP3    H225943   4.593   3.646   7.842
 1462TIP3   OH225944   2.792   6.672   7.766
 1462TIP3    H125945   2.720   6.662   7.828
 1462TIP3    H225946   2.749   6.694   7.683
 1463TIP3   OH225947   5.924   1.468   8.014
 1463TIP3    H125948   5.961   1.521   8.085
 1463TIP3    H225949   5.893   1.531   7.950
 1464TIP3   OH225950   3.695   4.846   0.857
 1464TIP3    H125951   3.677   4.789   0.932
 1464TIP3    H225952   3.733   4.925   0.896
 1465TIP3   OH225953   1.637   2.837   6.226
 1465TIP3    H125954   1.612   2.786   6.149
 1465TIP3    H225955   1.577   2.809   6.295
 1466TIP3   OH225956   5.149   2.887   0.950
 1466TIP3    H125957   5.161   2.913   1.042
 1466TIP3    H225958   5.170   2.794   0.949
 1467TIP3   OH225959   3.159   3.202   0.400
 1467TIP3    H125960   3.210   3.230   0.476
 1467TIP3    H225961   3.212   3.133   0.360
 1468TIP3   OH225962   3.455   2.216   7.196
 1468TIP3    H125963   3.429   2.156   7.125
 1468TIP3    H225964   3.517   2.165   7.248
 1469TIP3   OH225965   2.291   1.934   7.704
 1469TIP3    H125966   2.382   1.957   7.723
 1469TIP3    H225967   2.288   1.838   7.712
 1470TIP3   OH225968   5.677   0.722   7.304
 1470TIP3    H125969   5.647   0.656   7.366
 1470TIP3    H225970   5.610   0.790   7.308
 1471TIP3   OH225971   5.583   3.761   1.566
 1471TIP3    H125972   5.513   3.706   1.602
 1471TIP3    H225973   5.616   3.713   1.490
 1472TIP3   OH225974   1.083   0.534   1.744
 1472TIP3    H125975   1.067   0.608   1.686
 1472TIP3    H225976   1.128   0.572   1.820
 1473TIP3   OH225977   1.271   1.130   7.012
 1473TIP3    H125978   1.335   1.075   7.058
 1473TIP3    H225979   1.263   1.208   7.066
 1474TIP3   OH225980   1.796   0.415   1.099
 1474TIP3    H125981   1.727   0.445   1.158
 1474TIP3    H225982   1.873   0.467   1.123
 1475TIP3   OH225983   5.255   1.597   8.537
 1475TIP3    H125984   5.259   1.620   8.630
 1475TIP3    H225985   5.163   1.603   8.515
 1476TIP3   OH225986   6.627   6.874   7.276
 1476TIP3    H125987   6.720   0.008   7.255
 1476TIP3    H225988   6.601   6.795   7.229
 1477TIP3   OH225989   5.434   3.554   1.705
 1477TIP3    H125990   5.451   3.500   1.782
 1477TIP3    H225991   5.392   3.633   1.740
 1478TIP3   OH225992   4.751   3.304   1.463
 1478TIP3    H125993   4.664   3.325   1.499
 1478TIP3    H225994   4.750   3.209   1.453
 1479TIP3   OH225995   5.411   5.048   8.154
 1479TIP3    H125996   5.360   4.992   8.214
 1479TIP3    H225997   5.376   5.026   8.067
 1480TIP3   OH225998   6.174   2.338   1.109
 1480TIP3    H125999   6.164   2.338   1.014
 1480TIP3    H226000   6.085   2.346   1.143
 1481TIP3   OH226001   1.164   3.122   1.855
 1481TIP3    H126002   1.201   3.210   1.855
 1481TIP3    H226003   1.237   3.065   1.881
 1482TIP3   OH226004   4.249   3.182   8.610
 1482TIP3    H126005   4.283   3.095   8.588
 1482TIP3    H226006   4.265   3.190   0.053
 1483TIP3   OH226007   2.366   1.767   7.400
 1483TIP3    H126008   2.424   1.842   7.413
 1483TIP3    H226009   2.424   1.697   7.370
 1484TIP3   OH226010   0.209   1.038   6.686
 1484TIP3    H126011   0.240   1.023   6.597
 1484TIP3    H226012   0.177   1.128   6.686
 1485TIP3   OH226013   0.333   1.758   8.622
 1485TIP3    H126014   0.305   1.804   8.543
 1485TIP3    H226015   0.419   1.796   8.643
 1486TIP3   OH226016   0.564   2.856   0.623
 1486TIP3    H126017   0.574   2.793   0.694
 1486TIP3    H226018   0.654   2.884   0.603
 1487TIP3   OH226019   0.548   2.252   6.872
 1487TIP3    H126020   0.488   2.178   6.883
 1487TIP3    H226021   0.508   2.307   6.806
 1488TIP3   OH226022   2.296   0.613   1.930
 1488TIP3    H126023   2.229   0.680   1.919
 1488TIP3    H226024   2.274   0.546   1.866
 1489TIP3   OH226025   2.484   4.337   8.407
 1489TIP3    H126026   2.575   4.364   8.398
 1489TIP3    H226027   2.437   4.386   8.339
 1490TIP3   OH226028   4.367   5.695   0.352
 1490TIP3    H126029   4.359   5.790   0.347
 1490TIP3    H226030   4.461   5.679   0.360
 1491TIP3   OH226031   5.430   5.118   6.527
 1491TIP3    H126032   5.474   5.190   6.572
 1491TIP3    H226033   5.343   5.116   6.566
 1492TIP3   OH226034   6.804   2.828   2.008
 1492TIP3    H126035   6.734   2.860   1.952
 1492TIP3    H226036   0.005   2.870   1.973
 1493TIP3   OH226037   6.148   0.698   0.718
 1493TIP3    H126038   6.163   0.606   0.694
 1493TIP3    H226039   6.214   0.717   0.784
 1494TIP3   OH226040   5.140   4.260   8.645
 1494TIP3    H126041   5.127   4.322   8.574
 1494TIP3    H226042   5.220   4.213   8.622
 1495TIP3   OH226043   3.899   3.784   1.091
 1495TIP3    H126044   3.840   3.719   1.130
 1495TIP3    H226045   3.935   3.831   1.166
 1496TIP3   OH226046   5.194   5.279   7.934
 1496TIP3    H126047   5.138   5.307   8.007
 1496TIP3    H226048   5.148   5.310   7.856
 1497TIP3   OH226049   3.254   0.498   6.614
 1497TIP3    H126050   3.164   0.514   6.642
 1497TIP3    H226051   3.294   0.450   6.686
 1498TIP3   OH226052   6.035   4.293   1.030
 1498TIP3    H126053   6.117   4.336   1.004
 1498TIP3    H226054   6.042   4.284   1.125
 1499TIP3   OH226055   1.143   6.032   7.696
 1499TIP3    H126056   1.233   6.002   7.693
 1499TIP3    H226057   1.099   5.981   7.627
 1500TIP3   OH226058   6.560   2.117   2.042
 1500TIP3    H126059   6.518   2.042   2.001
 1500TIP3    H226060   6.633   2.138   1.985
 1501TIP3   OH226061   1.585   6.792   7.277
 1501TIP3    H126062   1.627   6.859   7.223
 1501TIP3    H226063   1.582   6.829   7.365
 1502TIP3   OH226064   3.993   0.133   7.968
 1502TIP3    H126065   4.007   0.195   8.039
 1502TIP3    H226066   4.069   0.145   7.911
 1503TIP3   OH226067   3.863   1.005   8.144
 1503TIP3    H126068   3.837   1.065   8.074
 1503TIP3    H226069   3.826   1.044   8.223
 1504TIP3   OH226070   2.414   6.758   0.084
 1504TIP3    H126071   2.478   6.823   0.057
 1504TIP3    H226072   2.465   6.691   0.130
 1505TIP3   OH226073   2.438   1.989   0.453
 1505TIP3    H126074   2.344   2.005   0.442
 1505TIP3    H226075   2.469   1.964   0.365
 1506TIP3   OH226076   1.882   6.131   7.747
 1506TIP3    H126077   1.934   6.205   7.716
 1506TIP3    H226078   1.847   6.091   7.668
 1507TIP3   OH226079   4.188   2.948   8.199
 1507TIP3    H126080   4.244   2.935   8.122
 1507TIP3    H226081   4.103   2.971   8.163
 1508TIP3   OH226082   1.054   4.973   7.177
 1508TIP3    H126083   0.997   4.969   7.100
 1508TIP3    H226084   1.134   5.017   7.146
 1509TIP3   OH226085   6.176   4.653   7.954
 1509TIP3    H126086   6.147   4.565   7.931
 1509TIP3    H226087   6.199   4.693   7.871
 1510TIP3   OH226088   3.127   3.478   0.350
 1510TIP3    H126089   3.089   3.397   0.383
 1510TIP3    H226090   3.142   3.461   0.257
 1511TIP3   OH226091   5.804   5.939   6.574
 1511TIP3    H126092   5.726   5.987   6.603
 1511TIP3    H226093   5.806   5.861   6.628
 1512TIP3   OH226094   3.016   2.928   2.183
 1512TIP3    H126095   2.995   2.852   2.129
 1512TIP3    H226096   2.933   2.949   2.227
 1513TIP3   OH226097   5.733   5.656   7.997
 1513TIP3    H126098   5.710   5.709   7.921
 1513TIP3    H226099   5.669   5.680   8.064
 1514TIP3   OH226100   2.399   3.783   8.480
 1514TIP3    H126101   2.429   3.866   8.443
 1514TIP3    H226102   2.336   3.750   8.416
 1515TIP3   OH226103   6.059   5.272   6.585
 1515TIP3    H126104   6.071   5.367   6.588
 1515TIP3    H226105   5.966   5.259   6.606
 1516TIP3   OH226106   0.666   6.809   8.137
 1516TIP3    H126107   0.649   6.781   8.047
 1516TIP3    H226108   0.584   6.791   8.183
 1517TIP3   OH226109   5.621   3.213   0.191
 1517TIP3    H126110   5.597   3.172   0.108
 1517TIP3    H226111   5.710   3.181   0.209
 1518TIP3   OH226112   3.761   6.044   0.526
 1518TIP3    H126113   3.708   5.965   0.517
 1518TIP3    H226114   3.772   6.077   0.437
 1519TIP3   OH226115   3.222   5.503   0.422
 1519TIP3    H126116   3.251   5.585   0.382
 1519TIP3    H226117   3.146   5.528   0.475
 1520TIP3   OH226118   5.888   6.623   1.949
 1520TIP3    H126119   5.870   6.671   2.030
 1520TIP3    H226120   5.802   6.610   1.909
 1521TIP3   OH226121   0.566   0.921   7.166
 1521TIP3    H126122   0.588   0.990   7.228
 1521TIP3    H226123   0.470   0.915   7.171
 1522TIP3   OH226124   4.536   2.161   1.309
 1522TIP3    H126125   4.586   2.086   1.278
 1522TIP3    H226126   4.558   2.169   1.401
 1523TIP3   OH226127   3.452   2.591   7.581
 1523TIP3    H126128   3.357   2.585   7.568
 1523TIP3    H226129   3.462   2.646   7.658
 1524TIP3   OH226130   0.412   1.132   8.536
 1524TIP3    H126131   0.387   1.040   8.527
 1524TIP3    H226132   0.348   1.168   8.597
 1525TIP3   OH226133   1.544   1.239   1.405
 1525TIP3    H126134   1.523   1.204   1.492
 1525TIP3    H226135   1.543   1.334   1.417
 1526TIP3   OH226136   4.482   4.005   7.326
 1526TIP3    H126137   4.443   4.002   7.414
 1526TIP3    H226138   4.565   4.050   7.339
 1527TIP3   OH226139   1.502   0.862   1.791
 1527TIP3    H126140   1.508   0.951   1.758
 1527TIP3    H226141   1.544   0.866   1.877
 1528TIP3   OH226142   4.852   3.930   1.706
 1528TIP3    H126143   4.923   3.995   1.705
 1528TIP3    H226144   4.772   3.982   1.705
 1529TIP3   OH226145   5.844   5.351   0.300
 1529TIP3    H126146   5.909   5.378   0.236
 1529TIP3    H226147   5.834   5.427   0.358
 1530TIP3   OH226148   1.620   4.482   0.172
 1530TIP3    H126149   1.635   4.439   0.087
 1530TIP3    H226150   1.610   4.409   0.234
 1531TIP3   OH226151   2.144   2.533   0.459
 1531TIP3    H126152   2.222   2.588   0.463
 1531TIP3    H226153   2.098   2.550   0.542
 1532TIP3   OH226154   1.404   1.417   0.478
 1532TIP3    H126155   1.404   1.367   0.560
 1532TIP3    H226156   1.489   1.459   0.475
 1533TIP3   OH226157   0.259   0.165   1.551
 1533TIP3    H126158   0.242   0.169   1.645
 1533TIP3    H226159   0.172   0.157   1.511
 1534TIP3   OH226160   4.497   4.458   0.716
 1534TIP3    H126161   4.479   4.546   0.750
 1534TIP3    H226162   4.429   4.443   0.651
 1535TIP3   OH226163   1.607   2.071   6.556
 1535TIP3    H126164   1.639   2.011   6.489
 1535TIP3    H226165   1.629   2.158   6.522
 1536TIP3   OH226166   5.342   6.507   6.627
 1536TIP3    H126167   5.311   6.590   6.589
 1536TIP3    H226168   5.363   6.452   6.552
 1537TIP3   OH226169   0.999   2.668   1.769
 1537TIP3    H126170   1.090   2.697   1.766
 1537TIP3    H226171   0.999   2.597   1.833
 1538TIP3   OH226172   0.767   3.161   0.782
 1538TIP3    H126173   0.824   3.118   0.718
 1538TIP3    H226174   0.683   3.170   0.736
 1539TIP3   OH226175   0.604   5.786   7.327
 1539TIP3    H126176   0.551   5.768   7.249
 1539TIP3    H226177   0.546   5.768   7.400
 1540TIP3   OH226178   2.024   2.719   7.762
 1540TIP3    H126179   1.941   2.702   7.717
 1540TIP3    H226180   2.002   2.715   7.855
 1541TIP3   OH226181   6.150   6.762   7.851
 1541TIP3    H126182   6.220   6.782   7.913
 1541TIP3    H226183   6.102   6.844   7.842
 1542TIP3   OH226184   2.096   6.701   1.873
 1542TIP3    H126185   2.147   6.725   1.950
 1542TIP3    H226186   2.152   6.639   1.826
 1543TIP3   OH226187   4.501   4.135   6.345
 1543TIP3    H126188   4.486   4.049   6.305
 1543TIP3    H226189   4.596   4.148   6.339
 1544TIP3   OH226190   1.401   2.806   8.294
 1544TIP3    H126191   1.409   2.714   8.270
 1544TIP3    H226192   1.388   2.805   8.389
 1545TIP3   OH226193   0.507   2.335   0.495
 1545TIP3    H126194   0.468   2.274   0.557
 1545TIP3    H226195   0.433   2.381   0.456
 1546TIP3   OH226196   6.837   3.329   1.327
 1546TIP3    H126197   6.843   3.272   1.403
 1546TIP3    H226198   6.776   3.286   1.268
 1547TIP3   OH226199   2.490   1.620   0.063
 1547TIP3    H126200   2.482   1.588   0.153
 1547TIP3    H226201   2.402   1.644   0.037
 1548TIP3   OH226202   3.409   2.846   8.492
 1548TIP3    H126203   3.316   2.867   8.485
 1548TIP3    H226204   3.451   2.898   8.424
 1549TIP3   OH226205   2.114   5.400   6.816
 1549TIP3    H126206   2.022   5.382   6.794
 1549TIP3    H226207   2.159   5.400   6.732
 1550TIP3   OH226208   3.239   4.683   0.212
 1550TIP3    H126209   3.148   4.668   0.236
 1550TIP3    H226210   3.279   4.722   0.289
 1551TIP3   OH226211   2.916   0.311   0.698
 1551TIP3    H126212   2.943   0.297   0.789
 1551TIP3    H226213   2.983   0.266   0.646
 1552TIP3   OH226214   5.491   6.060   2.850
 1552TIP3    H126215   5.520   6.119   2.781
 1552TIP3    H226216   5.517   6.104   2.931
 1553TIP3   OH226217   3.584   5.706   8.025
 1553TIP3    H126218   3.636   5.636   7.987
 1553TIP3    H226219   3.493   5.681   8.006
 1554TIP3   OH226220   1.129   6.096   7.971
 1554TIP3    H126221   1.114   6.038   7.896
 1554TIP3    H226222   1.042   6.128   7.995
 1555TIP3   OH226223   6.742   4.608   0.433
 1555TIP3    H126224   6.729   4.684   0.376
 1555TIP3    H226225   6.763   4.537   0.373
 1556TIP3   OH226226   0.190   4.739   7.524
 1556TIP3    H126227   0.284   4.725   7.532
 1556TIP3    H226228   0.180   4.785   7.440
 1557TIP3   OH226229   5.797   4.226   7.903
 1557TIP3    H126230   5.750   4.301   7.939
 1557TIP3    H226231   5.889   4.242   7.924
 1558TIP3   OH226232   5.145   6.817   0.265
 1558TIP3    H126233   5.188   6.742   0.224
 1558TIP3    H226234   5.217   6.878   0.283
 1559TIP3   OH226235   2.848   3.209   8.403
 1559TIP3    H126236   2.787   3.149   8.446
 1559TIP3    H226237   2.914   3.228   8.470
 1560TIP3   OH226238   5.251   5.527   1.397
 1560TIP3    H126239   5.309   5.599   1.372
 1560TIP3    H226240   5.180   5.530   1.333
 1561TIP3   OH226241   1.460   6.262   6.994
 1561TIP3    H126242   1.425   6.325   6.931
 1561TIP3    H226243   1.385   6.238   7.049
 1562TIP3   OH226244   2.134   3.349   1.379
 1562TIP3    H126245   2.221   3.383   1.359
 1562TIP3    H226246   2.104   3.311   1.296
 1563TIP3   OH226247   6.500   5.358   0.578
 1563TIP3    H126248   6.418   5.384   0.536
 1563TIP3    H226249   6.510   5.418   0.652
 1564TIP3   OH226250   2.648   6.203   0.232
 1564TIP3    H126251   2.679   6.114   0.218
 1564TIP3    H226252   2.572   6.211   0.174
 1565TIP3   OH226253   6.183   6.853   8.544
 1565TIP3    H126254   6.249   0.025   8.592
 1565TIP3    H226255   6.120   6.826   8.611
 1566TIP3   OH226256   5.210   2.189   6.663
 1566TIP3    H126257   5.202   2.266   6.719
 1566TIP3    H226258   5.291   2.147   6.691
 1567TIP3   OH226259   3.486   4.410   8.584
 1567TIP3    H126260   3.580   4.391   8.587
 1567TIP3    H226261   3.467   4.449   0.019
 1568TIP3   OH226262   6.090   6.111   0.511
 1568TIP3    H126263   6.035   6.087   0.436
 1568TIP3    H226264   6.165   6.052   0.505
 1569TIP3   OH226265   1.999   3.548   0.012
 1569TIP3    H126266   1.951   3.530   8.582
 1569TIP3    H226267   1.937   3.529   0.082
 1570TIP3   OH226268   1.825   4.449   0.697
 1570TIP3    H126269   1.854   4.372   0.647
 1570TIP3    H226270   1.905   4.491   0.725
 1571TIP3   OH226271   3.076   3.769   7.383
 1571TIP3    H126272   3.103   3.678   7.375
 1571TIP3    H226273   3.152   3.819   7.352
 1572TIP3   OH226274   6.710   3.039   6.960
 1572TIP3    H126275   6.662   3.121   6.968
 1572TIP3    H226276   6.753   3.044   6.874
 1573TIP3   OH226277   4.885   2.213   8.272
 1573TIP3    H126278   4.832   2.236   8.196
 1573TIP3    H226279   4.829   2.232   8.347
 1574TIP3   OH226280   6.630   1.194   8.129
 1574TIP3    H126281   6.654   1.219   8.040
 1574TIP3    H226282   6.605   1.102   8.122
 1575TIP3   OH226283   6.020   4.933   6.955
 1575TIP3    H126284   6.023   4.839   6.972
 1575TIP3    H226285   5.948   4.944   6.892
 1576TIP3   OH226286   5.058   5.627   7.341
 1576TIP3    H126287   5.069   5.722   7.333
 1576TIP3    H226288   4.984   5.606   7.284
 1577TIP3   OH226289   2.562   2.208   0.607
 1577TIP3    H126290   2.475   2.196   0.646
 1577TIP3    H226291   2.545   2.217   0.513
 1578TIP3   OH226292   2.032   1.908   7.999
 1578TIP3    H126293   2.063   1.913   8.090
 1578TIP3    H226294   2.024   1.999   7.972
 1579TIP3   OH226295   4.472   2.247   2.406
 1579TIP3    H126296   4.490   2.331   2.448
 1579TIP3    H226297   4.466   2.267   2.313
 1580TIP3   OH226298   3.348   1.555   7.493
 1580TIP3    H126299   3.345   1.462   7.469
 1580TIP3    H226300   3.411   1.559   7.565
 1581TIP3   OH226301   4.153   3.503   1.100
 1581TIP3    H126302   4.125   3.578   1.047
 1581TIP3    H226303   4.245   3.490   1.076
 1582TIP3   OH226304   4.547   3.402   7.320
 1582TIP3    H126305   4.539   3.391   7.415
 1582TIP3    H226306   4.559   3.496   7.308
 1583TIP3   OH226307   5.407   1.736   7.551
 1583TIP3    H126308   5.374   1.818   7.513
 1583TIP3    H226309   5.408   1.752   7.645
 1584TIP3   OH226310   2.493   6.028   7.632
 1584TIP3    H126311   2.555   6.100   7.642
 1584TIP3    H226312   2.545   5.955   7.600
 1585TIP3   OH226313   2.280   1.625   7.638
 1585TIP3    H126314   2.308   1.679   7.564
 1585TIP3    H226315   2.244   1.546   7.597
 1586TIP3   OH226316   4.273   3.813   2.056
 1586TIP3    H126317   4.233   3.843   1.974
 1586TIP3    H226318   4.297   3.722   2.039
 1587TIP3   OH226319   1.767   5.339   2.520
 1587TIP3    H126320   1.767   5.256   2.568
 1587TIP3    H226321   1.837   5.330   2.456
 1588TIP3   OH226322   4.955   5.353   8.404
 1588TIP3    H126323   4.901   5.312   8.337
 1588TIP3    H226324   4.967   5.285   8.470
 1589TIP3   OH226325   4.649   0.883   2.364
 1589TIP3    H126326   4.581   0.915   2.423
 1589TIP3    H226327   4.729   0.884   2.416
 1590TIP3   OH226328   0.851   3.073   8.039
 1590TIP3    H126329   0.768   3.096   7.997
 1590TIP3    H226330   0.916   3.129   7.997
 1591TIP3   OH226331   1.783   0.898   7.898
 1591TIP3    H126332   1.863   0.926   7.941
 1591TIP3    H226333   1.788   0.802   7.899
 1592TIP3   OH226334   5.145   2.467   0.326
 1592TIP3    H126335   5.098   2.385   0.310
 1592TIP3    H226336   5.078   2.527   0.358
 1593TIP3   OH226337   0.957   0.815   1.728
 1593TIP3    H126338   0.902   0.844   1.801
 1593TIP3    H226339   1.046   0.833   1.757
 1594TIP3   OH226340   4.020   6.581   8.642
 1594TIP3    H126341   3.968   6.501   8.627
 1594TIP3    H226342   4.037   6.615   8.554
 1595TIP3   OH226343   1.350   5.944   1.220
 1595TIP3    H126344   1.265   5.905   1.199
 1595TIP3    H226345   1.341   5.975   1.310
 1596TIP3   OH226346   0.076   0.559   0.765
 1596TIP3    H126347   0.012   0.569   0.694
 1596TIP3    H226348   0.138   0.494   0.731
 1597TIP3   OH226349   6.778   0.680   6.958
 1597TIP3    H126350   6.830   0.742   6.907
 1597TIP3    H226351   6.756   0.610   6.896
 1598TIP3   OH226352   3.674   1.589   0.623
 1598TIP3    H126353   3.729   1.539   0.562
 1598TIP3    H226354   3.597   1.534   0.637
 1599TIP3   OH226355   4.886   1.045   2.221
 1599TIP3    H126356   4.798   1.024   2.191
 1599TIP3    H226357   4.918   0.964   2.261
 1600TIP3   OH226358   0.805   4.924   0.344
 1600TIP3    H126359   0.761   4.854   0.296
 1600TIP3    H226360   0.897   4.915   0.321
 1601TIP3   OH226361   3.837   6.395   7.833
 1601TIP3    H126362   3.838   6.447   7.753
 1601TIP3    H226363   3.924   6.355   7.837
 1602TIP3   OH226364   2.226   3.211   8.424
 1602TIP3    H126365   2.172   3.242   8.497
 1602TIP3    H226366   2.180   3.243   8.346
 1603TIP3   OH226367   6.594   3.005   0.222
 1603TIP3    H126368   6.593   3.078   0.159
 1603TIP3    H226369   6.522   3.025   0.281
 1604TIP3   OH226370   6.263   5.409   1.434
 1604TIP3    H126371   6.335   5.381   1.491
 1604TIP3    H226372   6.297   5.486   1.389
 1605TIP3   OH226373   2.391   5.186   7.954
 1605TIP3    H126374   2.300   5.217   7.956
 1605TIP3    H226375   2.383   5.091   7.952
 1606TIP3   OH226376   5.564   0.696   1.441
 1606TIP3    H126377   5.497   0.748   1.486
 1606TIP3    H226378   5.572   0.738   1.355
 1607TIP3   OH226379   4.225   0.445   8.072
 1607TIP3    H126380   4.297   0.385   8.054
 1607TIP3    H226381   4.158   0.390   8.113
 1608TIP3   OH226382   5.457   0.416   1.453
 1608TIP3    H126383   5.516   0.472   1.504
 1608TIP3    H226384   5.369   0.437   1.486
 1609TIP3   OH226385   3.416   2.985   0.574
 1609TIP3    H126386   3.368   2.922   0.628
 1609TIP3    H226387   3.355   3.006   0.503
 1610TIP3   OH226388   0.438   5.847   6.941
 1610TIP3    H126389   0.516   5.902   6.932
 1610TIP3    H226390   0.365   5.908   6.929
 1611TIP3   OH226391   2.741   5.935   0.666
 1611TIP3    H126392   2.651   5.908   0.679
 1611TIP3    H226393   2.793   5.872   0.714
 1612TIP3   OH226394   4.847   0.543   6.934
 1612TIP3    H126395   4.935   0.574   6.956
 1612TIP3    H226396   4.862   0.458   6.892
 1613TIP3   OH226397   1.047   6.231   1.376
 1613TIP3    H126398   1.085   6.311   1.339
 1613TIP3    H226399   1.047   6.169   1.304
 1614TIP3   OH226400   4.178   5.915   6.216
 1614TIP3    H126401   4.244   5.849   6.195
 1614TIP3    H226402   4.178   5.918   6.312
 1615TIP3   OH226403   5.421   3.291   6.638
 1615TIP3    H126404   5.446   3.235   6.712
 1615TIP3    H226405   5.472   3.371   6.650
 1616TIP3   OH226406   5.941   4.023   0.748
 1616TIP3    H126407   5.905   3.986   0.828
 1616TIP3    H226408   5.886   3.987   0.678
 1617TIP3   OH226409   0.192   3.760   1.680
 1617TIP3    H126410   0.268   3.746   1.622
 1617TIP3    H226411   0.169   3.852   1.665
 1618TIP3   OH226412   3.164   6.183   7.329
 1618TIP3    H126413   3.115   6.265   7.338
 1618TIP3    H226414   3.228   6.200   7.259
 1619TIP3   OH226415   1.128   1.827   7.838
 1619TIP3    H126416   1.174   1.796   7.760
 1619TIP3    H226417   1.109   1.747   7.888
 1620TIP3   OH226418   2.744   4.939   1.319
 1620TIP3    H126419   2.673   4.952   1.256
 1620TIP3    H226420   2.734   5.011   1.381
 1621TIP3   OH226421   3.121   0.269   0.206
 1621TIP3    H126422   3.027   0.250   0.203
 1621TIP3    H226423   3.139   0.312   0.123
 1622TIP3   OH226424   2.508   4.714   8.076
 1622TIP3    H126425   2.542   4.667   8.000
 1622TIP3    H226426   2.586   4.748   8.120
 1623TIP3   OH226427   3.640   2.047   7.595
 1623TIP3    H126428   3.692   2.041   7.675
 1623TIP3    H226429   3.596   2.132   7.601
 1624TIP3   OH226430   4.718   2.918   7.690
 1624TIP3    H126431   4.779   2.874   7.629
 1624TIP3    H226432   4.774   2.948   7.761
 1625TIP3   OH226433   0.929   5.877   1.944
 1625TIP3    H126434   0.908   5.825   2.021
 1625TIP3    H226435   1.023   5.866   1.931
 1626TIP3   OH226436   6.044   1.396   1.492
 1626TIP3    H126437   5.966   1.449   1.509
 1626TIP3    H226438   6.113   1.461   1.477
 1627TIP3   OH226439   5.859   0.218   7.027
 1627TIP3    H126440   5.890   0.128   7.044
 1627TIP3    H226441   5.816   0.244   7.108
 1628TIP3   OH226442   4.192   5.903   6.486
 1628TIP3    H126443   4.197   5.986   6.533
 1628TIP3    H226444   4.140   5.846   6.542
 1629TIP3   OH226445   3.813   4.769   6.557
 1629TIP3    H126446   3.840   4.845   6.506
 1629TIP3    H226447   3.884   4.755   6.619
 1630TIP3   OH226448   2.093   1.834   8.383
 1630TIP3    H126449   2.090   1.909   8.323
 1630TIP3    H226450   2.172   1.787   8.358
 1631TIP3   OH226451   1.849   0.505   0.110
 1631TIP3    H126452   1.902   0.574   0.150
 1631TIP3    H226453   1.903   0.426   0.117
 1632TIP3   OH226454   0.225   2.537   0.057
 1632TIP3    H126455   0.182   2.488   8.637
 1632TIP3    H226456   0.295   2.479   0.087
 1633TIP3   OH226457   3.938   2.365   0.449
 1633TIP3    H126458   3.890   2.447   0.435
 1633TIP3    H226459   4.030   2.391   0.449
 1634TIP3   OH226460   0.120   4.958   8.056
 1634TIP3    H126461   0.157   4.961   8.144
 1634TIP3    H226462   0.051   5.023   8.057
 1635TIP3   OH226463   6.399   3.105   8.599
 1635TIP3    H126464   6.349   3.181   8.627
 1635TIP3    H226465   6.369   3.034   0.005
 1636TIP3   OH226466   1.683   2.342   8.158
 1636TIP3    H126467   1.650   2.318   8.244
 1636TIP3    H226468   1.774   2.369   8.174
 1637TIP3   OH226469   1.195   0.439   7.889
 1637TIP3    H126470   1.114   0.454   7.841
 1637TIP3    H226471   1.202   0.514   7.948
 1638TIP3   OH226472   5.430   0.169   1.578
 1638TIP3    H126473   5.460   0.249   1.535
 1638TIP3    H226474   5.384   0.120   1.510
 1639TIP3   OH226475   1.043   4.210   0.203
 1639TIP3    H126476   1.137   4.224   0.199
 1639TIP3    H226477   1.012   4.273   0.269
 1640TIP3   OH226478   2.194   0.323   0.948
 1640TIP3    H126479   2.123   0.289   0.893
 1640TIP3    H226480   2.273   0.283   0.913
 1641TIP3   OH226481   4.179   5.385   7.190
 1641TIP3    H126482   4.088   5.364   7.209
 1641TIP3    H226483   4.187   5.478   7.208
 1642TIP3   OH226484   3.152   4.538   7.078
 1642TIP3    H126485   3.227   4.535   7.019
 1642TIP3    H226486   3.080   4.572   7.024
 1643TIP3   OH226487   0.991   0.437   7.662
 1643TIP3    H126488   0.954   0.487   7.736
 1643TIP3    H226489   0.994   0.500   7.590
 1644TIP3   OH226490   2.783   5.172   1.821
 1644TIP3    H126491   2.791   5.190   1.914
 1644TIP3    H226492   2.704   5.220   1.794
 1645TIP3   OH226493   5.900   0.240   0.929
 1645TIP3    H126494   5.959   0.313   0.914
 1645TIP3    H226495   5.813   0.276   0.916
 1646TIP3   OH226496   3.620   6.212   6.976
 1646TIP3    H126497   3.665   6.254   7.049
 1646TIP3    H226498   3.593   6.285   6.920
 1647TIP3   OH226499   5.327   5.101   1.176
 1647TIP3    H126500   5.234   5.121   1.165
 1647TIP3    H226501   5.368   5.184   1.198
 1648TIP3   OH226502   6.209   4.037   1.390
 1648TIP3    H126503   6.283   3.979   1.371
 1648TIP3    H226504   6.192   4.023   1.483
 1649TIP3   OH226505   4.828   3.398   1.964
 1649TIP3    H126506   4.738   3.368   1.950
 1649TIP3    H226507   4.865   3.335   2.026
 1650TIP3   OH226508   2.532   1.081   7.677
 1650TIP3    H126509   2.525   1.175   7.693
 1650TIP3    H226510   2.484   1.067   7.596
 1651TIP3   OH226511   0.968   3.021   7.173
 1651TIP3    H126512   0.887   3.048   7.131
 1651TIP3    H226513   1.013   2.969   7.107
 1652TIP3   OH226514   1.849   6.873   8.572
 1652TIP3    H126515   1.789   0.052   8.621
 1652TIP3    H226516   1.910   6.841   8.639
 1653TIP3   OH226517   4.316   0.454   0.429
 1653TIP3    H126518   4.394   0.423   0.476
 1653TIP3    H226519   4.349   0.517   0.366
 1654TIP3   OH226520   5.932   6.282   7.319
 1654TIP3    H126521   5.937   6.319   7.231
 1654TIP3    H226522   5.860   6.329   7.361
 1655TIP3   OH226523   0.406   3.785   1.499
 1655TIP3    H126524   0.464   3.715   1.468
 1655TIP3    H226525   0.458   3.832   1.564
 1656TIP3   OH226526   4.244   6.329   0.845
 1656TIP3    H126527   4.273   6.306   0.933
 1656TIP3    H226528   4.156   6.293   0.839
 1657TIP3   OH226529   4.057   2.690   2.346
 1657TIP3    H126530   4.123   2.700   2.415
 1657TIP3    H226531   4.069   2.766   2.289
 1658TIP3   OH226532   0.940   5.816   0.080
 1658TIP3    H126533   0.920   5.723   0.091
 1658TIP3    H226534   0.865   5.862   0.118
 1659TIP3   OH226535   3.623   2.707   1.290
 1659TIP3    H126536   3.610   2.710   1.385
 1659TIP3    H226537   3.685   2.778   1.272
 1660TIP3   OH226538   4.142   4.214   0.576
 1660TIP3    H126539   4.195   4.238   0.652
 1660TIP3    H226540   4.206   4.193   0.507
 1661TIP3   OH226541   4.414   6.751   1.012
 1661TIP3    H126542   4.401   6.731   1.104
 1661TIP3    H226543   4.463   6.676   0.978
 1662TIP3   OH226544   6.516   5.204   1.284
 1662TIP3    H126545   6.454   5.166   1.346
 1662TIP3    H226546   6.507   5.298   1.297
 1663TIP3   OH226547   0.789   1.279   0.638
 1663TIP3    H126548   0.871   1.249   0.598
 1663TIP3    H226549   0.747   1.198   0.667
 1664TIP3   OH226550   5.330   5.678   6.867
 1664TIP3    H126551   5.406   5.730   6.895
 1664TIP3    H226552   5.271   5.681   6.943
 1665TIP3   OH226553   2.904   6.536   1.758
 1665TIP3    H126554   2.874   6.619   1.797
 1665TIP3    H226555   2.829   6.477   1.769
 1666TIP3   OH226556   3.242   4.859   2.290
 1666TIP3    H126557   3.261   4.909   2.210
 1666TIP3    H226558   3.309   4.790   2.291
 1667TIP3   OH226559   4.672   0.471   0.471
 1667TIP3    H126560   4.623   0.400   0.512
 1667TIP3    H226561   4.608   0.515   0.415
 1668TIP3   OH226562   3.205   2.104   1.728
 1668TIP3    H126563   3.275   2.044   1.701
 1668TIP3    H226564   3.194   2.087   1.822
 1669TIP3   OH226565   4.061   6.443   1.947
 1669TIP3    H126566   3.970   6.456   1.922
 1669TIP3    H226567   4.097   6.384   1.881
 1670TIP3   OH226568   0.016   0.971   7.235
 1670TIP3    H126569   0.018   1.054   7.188
 1670TIP3    H226570   6.811   0.930   7.210
 1671TIP3   OH226571   6.199   2.543   8.298
 1671TIP3    H126572   6.105   2.529   8.291
 1671TIP3    H226573   6.217   2.543   8.392
 1672TIP3   OH226574   4.115   4.952   1.067
 1672TIP3    H126575   4.162   4.877   1.104
 1672TIP3    H226576   4.098   4.927   0.976
 1673TIP3   OH226577   4.509   6.316   7.772
 1673TIP3    H126578   4.592   6.269   7.762
 1673TIP3    H226579   4.467   6.310   7.687
 1674TIP3   OH226580   0.399   6.414   0.386
 1674TIP3    H126581   0.326   6.364   0.424
 1674TIP3    H226582   0.437   6.460   0.461
 1675TIP3   OH226583   2.520   6.490   7.940
 1675TIP3    H126584   2.515   6.578   7.977
 1675TIP3    H226585   2.596   6.450   7.983
 1676TIP3   OH226586   0.927   1.725   0.264
 1676TIP3    H126587   0.887   1.810   0.278
 1676TIP3    H226588   1.014   1.745   0.229
 1677TIP3   OH226589   0.746   4.377   8.363
 1677TIP3    H126590   0.765   4.437   8.435
 1677TIP3    H226591   0.822   4.319   8.359
 1678TIP3   OH226592   2.623   5.539   0.383
 1678TIP3    H126593   2.682   5.614   0.376
 1678TIP3    H226594   2.579   5.534   0.298
 1679TIP3   OH226595   1.458   5.453   0.512
 1679TIP3    H126596   1.469   5.364   0.547
 1679TIP3    H226597   1.373   5.452   0.469
 1680TIP3   OH226598   2.378   5.991   0.887
 1680TIP3    H126599   2.306   5.929   0.875
 1680TIP3    H226600   2.354   6.040   0.966
 1681TIP3   OH226601   1.856   3.461   6.918
 1681TIP3    H126602   1.785   3.526   6.911
 1681TIP3    H226603   1.931   3.511   6.949
 1682TIP3   OH226604   2.704   1.705   2.233
 1682TIP3    H126605   2.772   1.682   2.170
 1682TIP3    H226606   2.728   1.659   2.313
 1683TIP3   OH226607   2.336   3.180   8.114
 1683TIP3    H126608   2.400   3.251   8.121
 1683TIP3    H226609   2.268   3.214   8.057
 1684TIP3   OH226610   5.380   3.309   1.268
 1684TIP3    H126611   5.447   3.371   1.295
 1684TIP3    H226612   5.419   3.263   1.193
 1685TIP3   OH226613   3.619   6.467   1.486
 1685TIP3    H126614   3.582   6.529   1.549
 1685TIP3    H226615   3.591   6.499   1.401
 1686TIP3   OH226616   4.397   1.049   0.202
 1686TIP3    H126617   4.433   1.008   0.281
 1686TIP3    H226618   4.341   0.981   0.164
 1687TIP3   OH226619   2.625   6.267   1.080
 1687TIP3    H126620   2.549   6.317   1.110
 1687TIP3    H226621   2.696   6.294   1.138
 1688TIP3   OH226622   2.178   0.597   0.370
 1688TIP3    H126623   2.110   0.568   0.431
 1688TIP3    H226624   2.130   0.629   0.294
 1689TIP3   OH226625   1.863   6.430   1.204
 1689TIP3    H126626   1.919   6.441   1.127
 1689TIP3    H226627   1.850   6.518   1.237
 1690TIP3   OH226628   6.463   3.747   8.571
 1690TIP3    H126629   6.531   3.797   8.527
 1690TIP3    H226630   6.484   3.756   0.013
 1691TIP3   OH226631   0.590   4.639   0.547
 1691TIP3    H126632   0.592   4.547   0.575
 1691TIP3    H226633   0.674   4.652   0.502
 1692TIP3   OH226634   0.609   1.857   1.508
 1692TIP3    H126635   0.685   1.914   1.494
 1692TIP3    H226636   0.540   1.916   1.539
 1693TIP3   OH226637   1.750   0.480   6.770
 1693TIP3    H126638   1.659   0.468   6.795
 1693TIP3    H226639   1.752   0.563   6.723
 1694TIP3   OH226640   0.868   2.586   8.575
 1694TIP3    H126641   0.814   2.634   8.638
 1694TIP3    H226642   0.927   2.533   8.629
 1695TIP3   OH226643   5.696   6.550   6.780
 1695TIP3    H126644   5.777   6.500   6.777
 1695TIP3    H226645   5.637   6.497   6.833
 1696TIP3   OH226646   4.655   2.201   1.573
 1696TIP3    H126647   4.733   2.212   1.628
 1696TIP3    H226648   4.608   2.284   1.581
 1697TIP3   OH226649   1.272   5.313   0.843
 1697TIP3    H126650   1.341   5.374   0.870
 1697TIP3    H226651   1.211   5.367   0.792
 1698TIP3   OH226652   3.663   2.594   2.337
 1698TIP3    H126653   3.736   2.533   2.332
 1698TIP3    H226654   3.703   2.677   2.365
 1699TIP3   OH226655   5.268   1.438   7.743
 1699TIP3    H126656   5.333   1.413   7.678
 1699TIP3    H226657   5.191   1.464   7.693
 1700TIP3   OH226658   5.318   2.389   7.605
 1700TIP3    H126659   5.227   2.360   7.601
 1700TIP3    H226660   5.323   2.444   7.684
 1701TIP3   OH226661   5.537   3.512   0.172
 1701TIP3    H126662   5.479   3.465   0.233
 1701TIP3    H226663   5.485   3.519   0.092
 1702TIP3   OH226664   2.186   0.116   8.148
 1702TIP3    H126665   2.142   0.051   8.202
 1702TIP3    H226666   2.117   0.152   8.092
 1703TIP3   OH226667   5.925   2.948   8.269
 1703TIP3    H126668   6.000   2.905   8.311
 1703TIP3    H226669   5.965   3.002   8.200
 1704TIP3   OH226670   1.777   0.698   0.829
 1704TIP3    H126671   1.717   0.663   0.763
 1704TIP3    H226672   1.860   0.653   0.813
 1705TIP3   OH226673   3.620   2.025   6.335
 1705TIP3    H126674   3.534   2.025   6.293
 1705TIP3    H226675   3.632   2.116   6.363
 1706TIP3   OH226676   4.023   1.653   8.507
 1706TIP3    H126677   4.060   1.571   8.540
 1706TIP3    H226678   3.953   1.674   8.568
 1707TIP3   OH226679   5.423   5.723   1.362
 1707TIP3    H126680   5.443   5.813   1.387
 1707TIP3    H226681   5.491   5.700   1.299
 1708TIP3   OH226682   3.961   0.910   1.473
 1708TIP3    H126683   4.049   0.891   1.504
 1708TIP3    H226684   3.965   1.001   1.444
 1709TIP3   OH226685   0.594   6.498   7.925
 1709TIP3    H126686   0.613   6.406   7.947
 1709TIP3    H226687   0.659   6.548   7.975
 1710TIP3   OH226688   3.006   5.959   8.470
 1710TIP3    H126689   3.092   5.958   8.428
 1710TIP3    H226690   2.953   6.017   8.415
 1711TIP3   OH226691   3.360   4.694   6.384
 1711TIP3    H126692   3.418   4.713   6.457
 1711TIP3    H226693   3.418   4.684   6.309
 1712TIP3   OH226694   5.450   0.450   7.807
 1712TIP3    H126695   5.521   0.393   7.836
 1712TIP3    H226696   5.445   0.517   7.875
 1713TIP3   OH226697   0.839   6.561   8.053
 1713TIP3    H126698   0.875   6.472   8.053
 1713TIP3    H226699   0.866   6.597   8.138
 1714TIP3   OH226700   3.839   2.925   5.947
 1714TIP3    H126701   3.780   2.965   5.883
 1714TIP3    H226702   3.904   2.994   5.965
 1715TIP3   OH226703   0.631   2.035   7.757
 1715TIP3    H126704   0.724   2.040   7.737
 1715TIP3    H226705   0.589   2.095   7.696
 1716TIP3   OH226706   1.885   3.345   1.063
 1716TIP3    H126707   1.969   3.386   1.043
 1716TIP3    H226708   1.902   3.251   1.060
 1717TIP3   OH226709   2.733   5.068   8.136
 1717TIP3    H126710   2.784   5.120   8.198
 1717TIP3    H226711   2.682   5.133   8.088
 1718TIP3   OH226712   5.652   4.140   7.658
 1718TIP3    H126713   5.643   4.227   7.619
 1718TIP3    H226714   5.675   4.158   7.749
 1719TIP3   OH226715   1.224   2.550   8.528
 1719TIP3    H126716   1.150   2.493   8.550
 1719TIP3    H226717   1.288   2.533   8.597
 1720TIP3   OH226718   4.728   4.766   0.787
 1720TIP3    H126719   4.642   4.787   0.823
 1720TIP3    H226720   4.780   4.845   0.802
 1721TIP3   OH226721   5.776   3.314   0.512
 1721TIP3    H126722   5.817   3.328   0.426
 1721TIP3    H226723   5.783   3.398   0.556
 1722TIP3   OH226724   6.646   2.511   0.145
 1722TIP3    H126725   6.558   2.507   0.180
 1722TIP3    H226726   6.703   2.484   0.217
 1723TIP3   OH226727   3.314   4.892   2.013
 1723TIP3    H126728   3.371   4.967   1.994
 1723TIP3    H226729   3.348   4.822   1.958
 1724TIP3   OH226730   3.572   5.818   0.948
 1724TIP3    H126731   3.532   5.855   1.027
 1724TIP3    H226732   3.629   5.888   0.915
 1725TIP3   OH226733   1.830   3.461   8.432
 1725TIP3    H126734   1.762   3.526   8.414
 1725TIP3    H226735   1.893   3.472   8.360
 1726TIP3   OH226736   2.925   6.372   6.956
 1726TIP3    H126737   2.842   6.326   6.961
 1726TIP3    H226738   2.991   6.305   6.973
 1727TIP3   OH226739   6.691   0.351   8.604
 1727TIP3    H126740   6.692   0.406   8.525
 1727TIP3    H226741   6.671   0.263   8.572
 1728TIP3   OH226742   4.381   2.408   1.497
 1728TIP3    H126743   4.465   2.434   1.535
 1728TIP3    H226744   4.317   2.469   1.534
 1729TIP3   OH226745   6.097   4.258   0.691
 1729TIP3    H126746   6.185   4.238   0.660
 1729TIP3    H226747   6.065   4.175   0.726
 1730TIP3   OH226748   1.281   0.555   0.945
 1730TIP3    H126749   1.339   0.603   1.005
 1730TIP3    H226750   1.310   0.464   0.952
 1731TIP3   OH226751   2.215   1.283   1.493
 1731TIP3    H126752   2.244   1.374   1.484
 1731TIP3    H226753   2.120   1.288   1.490
 1732TIP3   OH226754   3.680   1.894   1.485
 1732TIP3    H126755   3.721   1.902   1.571
 1732TIP3    H226756   3.610   1.831   1.497
 1733TIP3   OH226757   1.204   2.213   6.320
 1733TIP3    H126758   1.281   2.261   6.350
 1733TIP3    H226759   1.156   2.276   6.267
 1734TIP3   OH226760   4.832   0.581   1.706
 1734TIP3    H126761   4.851   0.498   1.749
 1734TIP3    H226762   4.810   0.641   1.778
 1735TIP3   OH226763   4.605   6.593   7.185
 1735TIP3    H126764   4.551   6.595   7.264
 1735TIP3    H226765   4.579   6.513   7.140
 1736TIP3   OH226766   3.810   2.087   2.080
 1736TIP3    H126767   3.873   2.155   2.104
 1736TIP3    H226768   3.729   2.113   2.124
 1737TIP3   OH226769   3.080   3.801   8.085
 1737TIP3    H126770   3.107   3.849   8.163
 1737TIP3    H226771   3.044   3.868   8.027
 1738TIP3   OH226772   6.034   5.321   1.692
 1738TIP3    H126773   6.041   5.351   1.601
 1738TIP3    H226774   5.947   5.352   1.720
 1739TIP3   OH226775   6.607   6.713   1.151
 1739TIP3    H126776   6.671   6.643   1.141
 1739TIP3    H226777   6.607   6.758   1.066
 1740TIP3   OH226778   0.301   6.139   7.931
 1740TIP3    H126779   0.385   6.168   7.965
 1740TIP3    H226780   0.273   6.209   7.873
 1741TIP3   OH226781   6.108   0.074   8.267
 1741TIP3    H126782   6.047   0.087   8.340
 1741TIP3    H226783   6.168   0.006   8.298
 1742TIP3   OH226784   5.514   0.225   3.208
 1742TIP3    H126785   5.444   0.289   3.220
 1742TIP3    H226786   5.485   0.171   3.135
 1743TIP3   OH226787   1.205   4.664   1.732
 1743TIP3    H126788   1.197   4.737   1.793
 1743TIP3    H226789   1.125   4.667   1.680
 1744TIP3   OH226790   2.470   4.651   0.487
 1744TIP3    H126791   2.470   4.604   0.404
 1744TIP3    H226792   2.395   4.710   0.481
 1745TIP3   OH226793   4.499   2.065   0.942
 1745TIP3    H126794   4.548   2.088   0.863
 1745TIP3    H226795   4.457   1.981   0.921
 1746TIP3   OH226796   6.083   4.250   1.307
 1746TIP3    H126797   6.141   4.183   1.342
 1746TIP3    H226798   6.069   4.310   1.380
 1747TIP3   OH226799   3.936   5.885   1.796
 1747TIP3    H126800   3.856   5.839   1.772
 1747TIP3    H226801   3.962   5.846   1.880
 1748TIP3   OH226802   2.715   1.018   6.172
 1748TIP3    H126803   2.728   1.113   6.180
 1748TIP3    H226804   2.804   0.981   6.173
 1749TIP3   OH226805   6.690   3.263   8.380
 1749TIP3    H126806   6.651   3.269   8.293
 1749TIP3    H226807   6.677   3.172   8.406
 1750TIP3   OH226808   4.116   0.952   0.925
 1750TIP3    H126809   4.033   0.999   0.919
 1750TIP3    H226810   4.107   0.898   1.004
 1751TIP3   OH226811   4.492   3.656   7.318
 1751TIP3    H126812   4.444   3.705   7.384
 1751TIP3    H226813   4.431   3.647   7.245
 1752TIP3   OH226814   2.570   1.023   8.594
 1752TIP3    H126815   2.554   0.937   8.554
 1752TIP3    H226816   2.502   1.030   0.010
 1753TIP3   OH226817   1.497   4.099   0.488
 1753TIP3    H126818   1.465   4.119   0.576
 1753TIP3    H226819   1.424   4.052   0.447
 1754TIP3   OH226820   5.878   0.782   7.121
 1754TIP3    H126821   5.841   0.758   7.206
 1754TIP3    H226822   5.842   0.869   7.104
 1755TIP3   OH226823   5.737   5.909   0.391
 1755TIP3    H126824   5.747   5.883   0.483
 1755TIP3    H226825   5.799   5.981   0.379
 1756TIP3   OH226826   5.887   5.427   1.965
 1756TIP3    H126827   5.978   5.446   1.940
 1756TIP3    H226828   5.887   5.333   1.982
 1757TIP3   OH226829   0.551   0.066   7.773
 1757TIP3    H126830   0.582   6.869   7.722
 1757TIP3    H226831   0.565   0.141   7.716
 1758TIP3   OH226832   6.748   3.650   7.431
 1758TIP3    H126833   6.704   3.687   7.508
 1758TIP3    H226834   6.833   3.622   7.463
 1759TIP3   OH226835   3.801   1.726   1.821
 1759TIP3    H126836   3.711   1.726   1.787
 1759TIP3    H226837   3.796   1.677   1.903
 1760TIP3   OH226838   4.631   0.421   6.146
 1760TIP3    H126839   4.609   0.344   6.199
 1760TIP3    H226840   4.674   0.481   6.208
 1761TIP3   OH226841   0.166   5.993   8.275
 1761TIP3    H126842   0.075   5.967   8.265
 1761TIP3    H226843   0.166   6.088   8.262
 1762TIP3   OH226844   4.172   1.907   7.082
 1762TIP3    H126845   4.146   1.817   7.101
 1762TIP3    H226846   4.092   1.949   7.049
 1763TIP3   OH226847   3.718   4.870   0.070
 1763TIP3    H126848   3.714   4.965   0.083
 1763TIP3    H226849   3.642   4.850   0.016
 1764TIP3   OH226850   6.864   2.225   2.271
 1764TIP3    H126851   6.864   2.130   2.272
 1764TIP3    H226852   6.774   2.250   2.294
 1765TIP3   OH226853   5.516   6.769   2.175
 1765TIP3    H126854   5.531   6.676   2.196
 1765TIP3    H226855   5.423   6.775   2.157
 1766TIP3   OH226856   0.999   0.843   0.896
 1766TIP3    H126857   1.059   0.917   0.900
 1766TIP3    H226858   1.052   0.771   0.862
 1767TIP3   OH226859   6.524   4.919   7.434
 1767TIP3    H126860   6.505   4.985   7.501
 1767TIP3    H226861   6.450   4.926   7.373
 1768TIP3   OH226862   6.798   5.659   8.396
 1768TIP3    H126863   0.015   5.662   8.392
 1768TIP3    H226864   6.770   5.672   8.305
 1769TIP3   OH226865   4.536   0.223   0.206
 1769TIP3    H126866   4.586   0.263   0.277
 1769TIP3    H226867   4.584   0.246   0.127
 1770TIP3   OH226868   6.029   4.431   0.481
 1770TIP3    H126869   6.048   4.522   0.502
 1770TIP3    H226870   6.040   4.384   0.564
 1771TIP3   OH226871   5.290   5.421   7.176
 1771TIP3    H126872   5.213   5.451   7.128
 1771TIP3    H226873   5.358   5.485   7.155
 1772TIP3   OH226874   3.466   2.444   1.232
 1772TIP3    H126875   3.500   2.395   1.308
 1772TIP3    H226876   3.438   2.528   1.268
 1773TIP3   OH226877   3.941   4.116   6.767
 1773TIP3    H126878   3.962   4.038   6.818
 1773TIP3    H226879   3.853   4.100   6.733
 1774TIP3   OH226880   0.535   1.568   6.576
 1774TIP3    H126881   0.556   1.646   6.525
 1774TIP3    H226882   0.532   1.498   6.512
 1775TIP3   OH226883   6.132   0.965   7.221
 1775TIP3    H126884   6.127   0.931   7.132
 1775TIP3    H226885   6.071   0.912   7.272
 1776TIP3   OH226886   3.976   2.776   0.368
 1776TIP3    H126887   4.041   2.805   0.432
 1776TIP3    H226888   3.954   2.854   0.318
 1777TIP3   OH226889   4.303   5.115   1.797
 1777TIP3    H126890   4.394   5.130   1.823
 1777TIP3    H226891   4.262   5.076   1.874
 1778TIP3   OH226892   6.177   1.193   1.375
 1778TIP3    H126893   6.114   1.260   1.400
 1778TIP3    H226894   6.153   1.168   1.286
 1779TIP3   OH226895   1.838   5.302   6.708
 1779TIP3    H126896   1.766   5.239   6.710
 1779TIP3    H226897   1.852   5.319   6.615
 1780TIP3   OH226898   3.351   3.425   8.559
 1780TIP3    H126899   3.443   3.422   8.585
 1780TIP3    H226900   3.304   3.448   8.639
 1781TIP3   OH226901   3.030   2.253   6.544
 1781TIP3    H126902   3.095   2.200   6.591
 1781TIP3    H226903   3.081   2.310   6.487
 1782TIP3   OH226904   2.419   6.362   6.543
 1782TIP3    H126905   2.391   6.315   6.465
 1782TIP3    H226906   2.346   6.422   6.562
 1783TIP3   OH226907   4.023   1.773   1.625
 1783TIP3    H126908   4.084   1.844   1.644
 1783TIP3    H226909   3.953   1.785   1.689
 1784TIP3   OH226910   4.707   2.354   8.116
 1784TIP3    H126911   4.649   2.373   8.190
 1784TIP3    H226912   4.729   2.441   8.081
 1785TIP3   OH226913   6.378   4.993   0.199
 1785TIP3    H126914   6.327   4.925   0.157
 1785TIP3    H226915   6.467   4.981   0.165
 1786TIP3   OH226916   1.171   5.628   7.704
 1786TIP3    H126917   1.239   5.696   7.701
 1786TIP3    H226918   1.156   5.605   7.613
 1787TIP3   OH226919   5.564   0.235   5.936
 1787TIP3    H126920   5.493   0.173   5.918
 1787TIP3    H226921   5.520   0.313   5.969
 1788TIP3   OH226922   3.346   2.167   6.907
 1788TIP3    H126923   3.388   2.252   6.895
 1788TIP3    H226924   3.410   2.103   6.876
 1789TIP3   OH226925   0.618   2.359   1.876
 1789TIP3    H126926   0.624   2.440   1.927
 1789TIP3    H226927   0.705   2.348   1.838
 1790TIP3   OH226928   5.325   3.351   0.288
 1790TIP3    H126929   5.240   3.391   0.304
 1790TIP3    H226930   5.305   3.260   0.265
 1791TIP3   OH226931   1.161   6.833   1.441
 1791TIP3    H126932   1.196   0.006   1.513
 1791TIP3    H226933   1.237   6.786   1.406
 1792TIP3   OH226934   4.506   3.072   0.997
 1792TIP3    H126935   4.570   3.054   0.928
 1792TIP3    H226936   4.548   3.137   1.053
 1793TIP3   OH226937   3.068   6.701   2.362
 1793TIP3    H126938   3.035   6.663   2.443
 1793TIP3    H226939   3.162   6.712   2.376
 1794TIP3   OH226940   4.844   1.835   8.245
 1794TIP3    H126941   4.882   1.849   8.158
 1794TIP3    H226942   4.919   1.834   8.304
 1795TIP3   OH226943   1.879   3.942   7.602
 1795TIP3    H126944   1.837   3.878   7.546
 1795TIP3    H226945   1.811   4.006   7.622
 1796TIP3   OH226946   0.388   0.430   0.951
 1796TIP3    H126947   0.408   0.422   0.858
 1796TIP3    H226948   0.338   0.352   0.972
 1797TIP3   OH226949   3.129   0.930   8.515
 1797TIP3    H126950   3.185   0.885   8.452
 1797TIP3    H226951   3.064   0.975   8.462
 1798TIP3   OH226952   6.660   5.515   8.601
 1798TIP3    H126953   6.747   5.479   8.614
 1798TIP3    H226954   6.671   5.579   8.531
 1799TIP3   OH226955   6.041   1.971   8.183
 1799TIP3    H126956   5.996   1.969   8.099
 1799TIP3    H226957   6.024   1.885   8.222
 1800TIP3   OH226958   6.804   2.032   7.077
 1800TIP3    H126959   6.730   1.974   7.091
 1800TIP3    H226960   6.824   2.025   6.984
 1801TIP3   OH226961   1.979   3.935   6.098
 1801TIP3    H126962   2.037   4.007   6.072
 1801TIP3    H226963   1.990   3.869   6.029
 1802TIP3   OH226964   3.067   1.672   8.433
 1802TIP3    H126965   3.120   1.701   8.359
 1802TIP3    H226966   2.993   1.626   8.394
 1803TIP3   OH226967   5.049   5.548   8.593
 1803TIP3    H126968   5.028   5.490   8.519
 1803TIP3    H226969   4.969   5.597   8.609
 1804TIP3   OH226970   6.123   4.395   7.404
 1804TIP3    H126971   6.161   4.380   7.318
 1804TIP3    H226972   6.033   4.364   7.397
 1805TIP3   OH226973   0.192   5.148   1.043
 1805TIP3    H126974   0.218   5.235   1.014
 1805TIP3    H226975   0.181   5.155   1.137
 1806TIP3   OH226976   1.677   2.605   7.257
 1806TIP3    H126977   1.638   2.534   7.207
 1806TIP3    H226978   1.603   2.660   7.282
 1807TIP3   OH226979   0.773   3.999   8.448
 1807TIP3    H126980   0.736   3.913   8.470
 1807TIP3    H226981   0.804   4.034   8.532
 1808TIP3   OH226982   2.075   3.166   6.630
 1808TIP3    H126983   2.051   3.228   6.699
 1808TIP3    H226984   2.049   3.210   6.549
 1809TIP3   OH226985   4.271   5.489   2.405
 1809TIP3    H126986   4.255   5.395   2.398
 1809TIP3    H226987   4.364   5.496   2.425
 1810TIP3   OH226988   4.042   6.305   0.063
 1810TIP3    H126989   3.967   6.273   0.113
 1810TIP3    H226990   4.049   6.245   8.640
 1811TIP3   OH226991   6.281   4.367   0.887
 1811TIP3    H126992   6.318   4.295   0.837
 1811TIP3    H226993   6.341   4.441   0.872
 1812TIP3   OH226994   0.252   1.611   7.316
 1812TIP3    H126995   0.272   1.704   7.302
 1812TIP3    H226996   0.215   1.582   7.233
 1813TIP3   OH226997   4.572   4.302   7.143
 1813TIP3    H126998   4.637   4.372   7.136
 1813TIP3    H226999   4.513   4.331   7.213
 1814TIP3   OH227000   6.853   6.504   0.778
 1814TIP3    H127001   0.007   6.466   0.860
 1814TIP3    H227002   6.757   6.501   0.785
 1815TIP3   OH227003   1.086   3.067   2.443
 1815TIP3    H127004   1.061   3.097   2.355
 1815TIP3    H227005   1.182   3.066   2.441
 1816TIP3   OH227006   3.244   6.778   7.900
 1816TIP3    H127007   3.257   6.707   7.962
 1816TIP3    H227008   3.333   6.809   7.881
 1817TIP3   OH227009   1.565   5.092   6.257
 1817TIP3    H127010   1.536   5.036   6.185
 1817TIP3    H227011   1.581   5.031   6.329
 1818TIP3   OH227012   2.482   5.568   1.790
 1818TIP3    H127013   2.522   5.522   1.864
 1818TIP3    H227014   2.515   5.658   1.797
 1819TIP3   OH227015   3.367   4.486   6.892
 1819TIP3    H127016   3.306   4.413   6.886
 1819TIP3    H227017   3.438   4.463   6.832
 1820TIP3   OH227018   0.380   4.714   0.127
 1820TIP3    H127019   0.375   4.619   0.113
 1820TIP3    H227020   0.408   4.749   0.043
 1821TIP3   OH227021   4.014   1.223   2.154
 1821TIP3    H127022   4.018   1.268   2.069
 1821TIP3    H227023   4.077   1.271   2.209
 1822TIP3   OH227024   0.595   3.338   8.180
 1822TIP3    H127025   0.648   3.268   8.143
 1822TIP3    H227026   0.657   3.390   8.232
 1823TIP3   OH227027   6.347   6.647   7.610
 1823TIP3    H127028   6.431   6.645   7.656
 1823TIP3    H227029   6.282   6.645   7.679
 1824TIP3   OH227030   6.130   0.649   7.812
 1824TIP3    H127031   6.163   0.624   7.898
 1824TIP3    H227032   6.158   0.578   7.754
 1825TIP3   OH227033   0.479   3.460   6.855
 1825TIP3    H127034   0.468   3.463   6.951
 1825TIP3    H227035   0.512   3.547   6.832
 1826TIP3   OH227036   2.403   6.107   6.949
 1826TIP3    H127037   2.362   6.036   6.999
 1826TIP3    H227038   2.354   6.185   6.974
 1827TIP3   OH227039   3.749   3.363   7.548
 1827TIP3    H127040   3.734   3.358   7.643
 1827TIP3    H227041   3.842   3.384   7.540
 1828TIP3   OH227042   6.123   6.290   8.591
 1828TIP3    H127043   6.101   6.383   8.592
 1828TIP3    H227044   6.209   6.286   8.548
 1829TIP3   OH227045   3.543   4.698   6.620
 1829TIP3    H127046   3.634   4.725   6.606
 1829TIP3    H227047   3.547   4.602   6.621
 1830TIP3   OH227048   5.863   0.030   8.051
 1830TIP3    H127049   5.819   0.069   7.976
 1830TIP3    H227050   5.942   0.084   8.063
 1831TIP3   OH227051   3.130   2.494   1.904
 1831TIP3    H127052   3.050   2.445   1.921
 1831TIP3    H227053   3.157   2.466   1.816
 1832TIP3   OH227054   2.576   5.383   7.554
 1832TIP3    H127055   2.493   5.406   7.595
 1832TIP3    H227056   2.590   5.450   7.487
 1833TIP3   OH227057   5.635   3.653   1.287
 1833TIP3    H127058   5.643   3.643   1.192
 1833TIP3    H227059   5.639   3.747   1.302
 1834TIP3   OH227060   4.361   5.963   0.549
 1834TIP3    H127061   4.280   5.963   0.601
 1834TIP3    H227062   4.426   5.924   0.607
 1835TIP3   OH227063   3.920   2.460   2.363
 1835TIP3    H127064   3.974   2.410   2.424
 1835TIP3    H227065   3.966   2.544   2.352
 1836TIP3   OH227066   6.254   1.805   7.110
 1836TIP3    H127067   6.223   1.724   7.152
 1836TIP3    H227068   6.282   1.860   7.183
 1837TIP3   OH227069   4.085   0.301   0.387
 1837TIP3    H127070   4.170   0.345   0.375
 1837TIP3    H227071   4.022   0.358   0.343
 1838TIP3   OH227072   0.611   6.744   7.575
 1838TIP3    H127073   0.650   6.657   7.572
 1838TIP3    H227074   0.648   6.790   7.500
 1839TIP3   OH227075   1.400   0.693   0.070
 1839TIP3    H127076   1.454   0.650   0.136
 1839TIP3    H227077   1.451   0.685   8.640
 1840TIP3   OH227078   6.740   1.644   1.061
 1840TIP3    H127079   6.833   1.656   1.084
 1840TIP3    H227080   6.693   1.700   1.122
 1841TIP3   OH227081   1.715   6.012   7.571
 1841TIP3    H127082   1.710   5.919   7.547
 1841TIP3    H227083   1.624   6.037   7.588
 1842TIP3   OH227084   3.791   4.750   0.325
 1842TIP3    H127085   3.862   4.686   0.315
 1842TIP3    H227086   3.786   4.794   0.240
 1843TIP3   OH227087   0.659   5.175   0.260
 1843TIP3    H127088   0.620   5.088   0.266
 1843TIP3    H227089   0.700   5.177   0.174
 1844TIP3   OH227090   0.392   0.324   7.997
 1844TIP3    H127091   0.448   0.342   8.073
 1844TIP3    H227092   0.443   0.354   7.922
 1845TIP3   OH227093   3.092   4.319   7.567
 1845TIP3    H127094   3.069   4.411   7.556
 1845TIP3    H227095   3.105   4.287   7.478
 1846TIP3   OH227096   4.083   2.725   0.919
 1846TIP3    H127097   4.150   2.661   0.941
 1846TIP3    H227098   4.122   2.810   0.939
 1847TIP3   OH227099   0.535   1.603   2.366
 1847TIP3    H127100   0.577   1.636   2.445
 1847TIP3    H227101   0.579   1.648   2.294
 1848TIP3   OH227102   0.335   2.488   0.932
 1848TIP3    H127103   0.257   2.456   0.978
 1848TIP3    H227104   0.382   2.540   0.997
 1849TIP3   OH227105   4.784   3.289   0.224
 1849TIP3    H127106   4.714   3.323   0.280
 1849TIP3    H227107   4.859   3.277   0.283
 1850TIP3   OH227108   0.695   3.392   0.360
 1850TIP3    H127109   0.737   3.309   0.384
 1850TIP3    H227110   0.601   3.372   0.362
 1851TIP3   OH227111   4.898   3.579   1.050
 1851TIP3    H127112   4.867   3.588   1.140
 1851TIP3    H227113   4.918   3.486   1.040
 1852TIP3   OH227114   0.909   2.817   7.880
 1852TIP3    H127115   0.915   2.780   7.968
 1852TIP3    H227116   0.850   2.892   7.890
 1853TIP3   OH227117   2.115   4.924   7.418
 1853TIP3    H127118   2.022   4.947   7.418
 1853TIP3    H227119   2.132   4.896   7.328
 1854TIP3   OH227120   1.294   2.533   6.518
 1854TIP3    H127121   1.225   2.574   6.467
 1854TIP3    H227122   1.290   2.576   6.603
 1855TIP3   OH227123   3.045   3.174   1.156
 1855TIP3    H127124   3.137   3.170   1.129
 1855TIP3    H227125   2.997   3.183   1.074
 1856TIP3   OH227126   3.125   2.057   1.975
 1856TIP3    H127127   3.055   2.002   2.012
 1856TIP3    H227128   3.084   2.141   1.959
 1857TIP3   OH227129   1.276   2.514   7.316
 1857TIP3    H127130   1.278   2.563   7.398
 1857TIP3    H227131   1.282   2.422   7.342
 1858TIP3   OH227132   6.359   6.767   8.334
 1858TIP3    H127133   6.336   6.798   8.421
 1858TIP3    H227134   6.306   6.689   8.321
 1859TIP3   OH227135   6.202   6.068   0.061
 1859TIP3    H127136   6.151   6.146   0.036
 1859TIP3    H227137   6.177   6.002   8.647
 1860TIP3   OH227138   6.343   0.532   7.248
 1860TIP3    H127139   6.415   0.484   7.206
 1860TIP3    H227140   6.385   0.608   7.289
 1861TIP3   OH227141   1.506   5.081   7.652
 1861TIP3    H127142   1.491   5.163   7.699
 1861TIP3    H227143   1.513   5.107   7.560
 1862TIP3   OH227144   4.963   4.199   0.525
 1862TIP3    H127145   4.971   4.186   0.431
 1862TIP3    H227146   4.877   4.240   0.537
 1863TIP3   OH227147   2.708   0.184   0.942
 1863TIP3    H127148   2.791   0.227   0.923
 1863TIP3    H227149   2.715   0.159   1.035
 1864TIP3   OH227150   2.043   3.758   7.759
 1864TIP3    H127151   1.996   3.809   7.692
 1864TIP3    H227152   2.099   3.822   7.803
 1865TIP3   OH227153   0.338   2.073   8.289
 1865TIP3    H127154   0.429   2.092   8.315
 1865TIP3    H227155   0.335   2.094   8.196
 1866TIP3   OH227156   2.743   6.843   2.614
 1866TIP3    H127157   2.742   0.056   2.644
 1866TIP3    H227158   2.652   6.822   2.596
 1867TIP3   OH227159   6.608   5.128   7.147
 1867TIP3    H127160   6.635   5.037   7.137
 1867TIP3    H227161   6.653   5.157   7.227
 1868TIP3   OH227162   3.379   0.896   1.404
 1868TIP3    H127163   3.460   0.868   1.445
 1868TIP3    H227164   3.370   0.840   1.326
 1869TIP3   OH227165   5.576   3.192   7.375
 1869TIP3    H127166   5.520   3.229   7.442
 1869TIP3    H227167   5.665   3.211   7.405
 1870TIP3   OH227168   0.948   0.507   0.597
 1870TIP3    H127169   0.969   0.551   0.679
 1870TIP3    H227170   1.018   0.533   0.537
 1871TIP3   OH227171   0.075   6.773   7.969
 1871TIP3    H127172   0.085   6.679   7.959
 1871TIP3    H227173   0.163   6.808   7.960
 1872TIP3   OH227174   5.562   5.701   1.094
 1872TIP3    H127175   5.603   5.637   1.036
 1872TIP3    H227176   5.481   5.726   1.049
 1873TIP3   OH227177   2.372   0.271   6.308
 1873TIP3    H127178   2.413   0.222   6.237
 1873TIP3    H227179   2.289   0.227   6.322
 1874TIP3   OH227180   4.136   1.077   0.529
 1874TIP3    H127181   4.187   1.040   0.601
 1874TIP3    H227182   4.151   1.172   0.535
 1875TIP3   OH227183   6.607   5.177   2.664
 1875TIP3    H127184   6.702   5.184   2.669
 1875TIP3    H227185   6.591   5.085   2.642
 1876TIP3   OH227186   4.968   4.016   8.158
 1876TIP3    H127187   4.934   4.085   8.101
 1876TIP3    H227188   4.902   3.947   8.155
 1877TIP3   OH227189   3.442   6.428   7.269
 1877TIP3    H127190   3.356   6.466   7.287
 1877TIP3    H227191   3.479   6.483   7.200
 1878TIP3   OH227192   4.689   6.815   1.816
 1878TIP3    H127193   4.618   6.798   1.877
 1878TIP3    H227194   4.658   0.010   1.762
 1879TIP3   OH227195   2.512   2.744   0.550
 1879TIP3    H127196   2.420   2.763   0.569
 1879TIP3    H227197   2.544   2.823   0.506
 1880TIP3   OH227198   1.436   1.418   7.562
 1880TIP3    H127199   1.524   1.448   7.537
 1880TIP3    H227200   1.399   1.384   7.481
 1881TIP3   OH227201   1.319   3.701   8.357
 1881TIP3    H127202   1.316   3.694   8.452
 1881TIP3    H227203   1.260   3.773   8.336
 1882TIP3   OH227204   0.489   6.597   0.973
 1882TIP3    H127205   0.459   6.506   0.977
 1882TIP3    H227206   0.535   6.611   1.056
 1883TIP3   OH227207   1.204   6.462   0.873
 1883TIP3    H127208   1.258   6.464   0.952
 1883TIP3    H227209   1.179   6.370   0.864
 1884TIP3   OH227210   3.406   3.012   5.988
 1884TIP3    H127211   3.389   2.933   6.039
 1884TIP3    H227212   3.348   3.078   6.025
 1885TIP3   OH227213   1.556   4.261   8.493
 1885TIP3    H127214   1.529   4.170   8.503
 1885TIP3    H227215   1.542   4.280   8.400
 1886TIP3   OH227216   4.538   0.469   8.527
 1886TIP3    H127217   4.573   0.551   8.563
 1886TIP3    H227218   4.453   0.458   8.569
 1887TIP3   OH227219   0.098   6.288   6.923
 1887TIP3    H127220   0.091   6.309   7.016
 1887TIP3    H227221   0.048   6.356   6.878
 1888TIP3   OH227222   5.685   2.449   0.409
 1888TIP3    H127223   5.718   2.457   0.320
 1888TIP3    H227224   5.643   2.363   0.412
 1889TIP3   OH227225   4.563   2.118   7.581
 1889TIP3    H127226   4.486   2.138   7.528
 1889TIP3    H227227   4.543   2.154   7.667
 1890TIP3   OH227228   3.568   3.590   7.694
 1890TIP3    H127229   3.598   3.502   7.717
 1890TIP3    H227230   3.556   3.635   7.778
 1891TIP3   OH227231   2.297   6.550   1.749
 1891TIP3    H127232   2.377   6.592   1.779
 1891TIP3    H227233   2.311   6.457   1.763
 1892TIP3   OH227234   6.155   2.305   8.614
 1892TIP3    H127235   6.191   2.393   8.601
 1892TIP3    H227236   6.227   2.256   0.005
 1893TIP3   OH227237   2.379   1.359   7.372
 1893TIP3    H127238   2.441   1.286   7.367
 1893TIP3    H227239   2.433   1.435   7.391
 1894TIP3   OH227240   6.716   0.687   1.821
 1894TIP3    H127241   6.622   0.682   1.838
 1894TIP3    H227242   6.723   0.698   1.726
 1895TIP3   OH227243   5.022   5.111   8.558
 1895TIP3    H127244   4.957   5.089   8.625
 1895TIP3    H227245   5.082   5.037   8.557
 1896TIP3   OH227246   1.214   1.742   1.344
 1896TIP3    H127247   1.300   1.770   1.374
 1896TIP3    H227248   1.152   1.780   1.407
 1897TIP3   OH227249   6.698   1.730   2.055
 1897TIP3    H127250   6.619   1.706   2.006
 1897TIP3    H227251   6.748   1.649   2.060
 1898TIP3   OH227252   3.541   4.651   6.183
 1898TIP3    H127253   3.508   4.590   6.117
 1898TIP3    H227254   3.624   4.683   6.148
 1899TIP3   OH227255   0.104   0.476   2.316
 1899TIP3    H127256   0.025   0.524   2.341
 1899TIP3    H227257   0.132   0.433   2.396
 1900TIP3   OH227258   6.661   0.859   7.175
 1900TIP3    H127259   6.639   0.793   7.109
 1900TIP3    H227260   6.580   0.873   7.223
 1901TIP3   OH227261   1.071   5.867   8.478
 1901TIP3    H127262   1.161   5.846   8.504
 1901TIP3    H227263   1.024   5.874   8.561
 1902TIP3   OH227264   1.719   4.916   0.905
 1902TIP3    H127265   1.734   4.896   0.813
 1902TIP3    H227266   1.668   4.997   0.904
 1903TIP3   OH227267   0.336   2.026   7.618
 1903TIP3    H127268   0.390   2.079   7.559
 1903TIP3    H227269   0.264   1.995   7.562
 1904TIP3   OH227270   1.582   0.692   7.474
 1904TIP3    H127271   1.518   0.700   7.403
 1904TIP3    H227272   1.650   0.756   7.453
 1905TIP3   OH227273   3.913   3.505   7.914
 1905TIP3    H127274   3.838   3.448   7.895
 1905TIP3    H227275   3.983   3.445   7.939
 1906TIP3   OH227276   1.634   5.881   6.997
 1906TIP3    H127277   1.574   5.861   6.925
 1906TIP3    H227278   1.678   5.962   6.970
 1907TIP3   OH227279   4.432   4.573   7.877
 1907TIP3    H127280   4.388   4.652   7.845
 1907TIP3    H227281   4.422   4.577   7.972
 1908TIP3   OH227282   5.118   2.048   8.203
 1908TIP3    H127283   5.104   2.005   8.118
 1908TIP3    H227284   5.040   2.103   8.214
 1909TIP3   OH227285   0.134   2.122   0.462
 1909TIP3    H127286   0.114   2.144   0.371
 1909TIP3    H227287   0.227   2.099   0.461
 1910TIP3   OH227288   6.025   2.953   7.478
 1910TIP3    H127289   5.940   2.922   7.508
 1910TIP3    H227290   6.027   2.932   7.385
 1911TIP3   OH227291   0.696   0.953   6.653
 1911TIP3    H127292   0.637   0.886   6.618
 1911TIP3    H227293   0.783   0.925   6.626
 1912TIP3   OH227294   0.450   2.853   6.945
 1912TIP3    H127295   0.535   2.831   6.982
 1912TIP3    H227296   0.470   2.894   6.861
 1913TIP3   OH227297   4.053   4.164   8.498
 1913TIP3    H127298   4.106   4.140   8.575
 1913TIP3    H227299   4.102   4.233   8.455
 1914TIP3   OH227300   1.669   2.293   7.373
 1914TIP3    H127301   1.735   2.233   7.409
 1914TIP3    H227302   1.684   2.291   7.279
 1915TIP3   OH227303   4.766   4.600   2.124
 1915TIP3    H127304   4.809   4.566   2.046
 1915TIP3    H227305   4.832   4.594   2.193
 1916TIP3   OH227306   2.769   3.352   0.737
 1916TIP3    H127307   2.692   3.296   0.727
 1916TIP3    H227308   2.744   3.414   0.806
 1917TIP3   OH227309   6.329   6.472   1.826
 1917TIP3    H127310   6.243   6.499   1.794
 1917TIP3    H227311   6.336   6.380   1.802
 1918TIP3   OH227312   4.518   0.877   0.968
 1918TIP3    H127313   4.613   0.884   0.957
 1918TIP3    H227314   4.487   0.968   0.971
 1919TIP3   OH227315   6.519   1.145   8.487
 1919TIP3    H127316   6.599   1.123   8.536
 1919TIP3    H227317   6.460   1.180   8.553
 1920TIP3   OH227318   1.116   1.691   7.341
 1920TIP3    H127319   1.089   1.601   7.359
 1920TIP3    H227320   1.057   1.720   7.271
 1921TIP3   OH227321   1.753   3.053   8.205
 1921TIP3    H127322   1.747   3.148   8.195
 1921TIP3    H227323   1.673   3.019   8.166
 1922TIP3   OH227324   4.862   5.067   1.409
 1922TIP3    H127325   4.834   5.156   1.429
 1922TIP3    H227326   4.919   5.076   1.333
 1923TIP3   OH227327   2.063   6.015   7.513
 1923TIP3    H127328   2.039   6.105   7.492
 1923TIP3    H227329   2.005   5.961   7.460
 1924TIP3   OH227330   3.493   5.525   0.199
 1924TIP3    H127331   3.448   5.441   0.213
 1924TIP3    H227332   3.428   5.580   0.157
 1925TIP3   OH227333   2.783   4.005   0.285
 1925TIP3    H127334   2.707   4.060   0.265
 1925TIP3    H227335   2.766   3.974   0.374
 1926TIP3   OH227336   1.185   5.465   1.173
 1926TIP3    H127337   1.271   5.444   1.135
 1926TIP3    H227338   1.146   5.525   1.110
 1927TIP3   OH227339   3.518   3.373   7.405
 1927TIP3    H127340   3.593   3.376   7.463
 1927TIP3    H227341   3.535   3.298   7.347
 1928TIP3   OH227342   4.766   4.083   7.052
 1928TIP3    H127343   4.721   4.154   7.098
 1928TIP3    H227344   4.752   4.006   7.107
 1929TIP3   OH227345   1.543   5.112   8.065
 1929TIP3    H127346   1.568   5.048   7.999
 1929TIP3    H227347   1.483   5.172   8.019
 1930TIP3   OH227348   3.354   1.867   7.277
 1930TIP3    H127349   3.385   1.865   7.186
 1930TIP3    H227350   3.399   1.942   7.316
 1931TIP3   OH227351   0.646   5.175   8.602
 1931TIP3    H127352   0.676   5.245   8.544
 1931TIP3    H227353   0.688   5.096   8.568
 1932TIP3   OH227354   5.319   0.437   6.846
 1932TIP3    H127355   5.255   0.501   6.877
 1932TIP3    H227356   5.280   0.402   6.765
 1933TIP3   OH227357   4.844   2.872   7.968
 1933TIP3    H127358   4.798   2.866   8.052
 1933TIP3    H227359   4.902   2.796   7.967
 1934TIP3   OH227360   0.927   3.090   6.470
 1934TIP3    H127361   0.937   2.995   6.480
 1934TIP3    H227362   0.920   3.123   6.560
 1935TIP3   OH227363   4.769   0.168   0.727
 1935TIP3    H127364   4.760   0.089   0.673
 1935TIP3    H227365   4.811   0.231   0.668
 1936TIP3   OH227366   3.051   4.083   0.192
 1936TIP3    H127367   2.974   4.042   0.231
 1936TIP3    H227368   3.124   4.050   0.244
 1937TIP3   OH227369   2.748   3.813   6.694
 1937TIP3    H127370   2.654   3.827   6.705
 1937TIP3    H227371   2.767   3.847   6.607
 1938TIP3   OH227372   2.898   1.634   0.187
 1938TIP3    H127373   2.847   1.690   0.128
 1938TIP3    H227374   2.865   1.546   0.170
 1939TIP3   OH227375   0.888   2.427   6.565
 1939TIP3    H127376   0.948   2.357   6.539
 1939TIP3    H227377   0.939   2.484   6.621
 1940TIP3   OH227378   1.558   3.869   1.033
 1940TIP3    H127379   1.517   3.955   1.026
 1940TIP3    H227380   1.522   3.832   1.114
 1941TIP3   OH227381   5.387   0.947   0.453
 1941TIP3    H127382   5.309   0.924   0.403
 1941TIP3    H227383   5.429   1.015   0.400
 1942TIP3   OH227384   1.608   0.340   8.337
 1942TIP3    H127385   1.660   0.408   8.381
 1942TIP3    H227386   1.575   0.285   8.408
 1943TIP3   OH227387   5.813   2.618   7.410
 1943TIP3    H127388   5.755   2.546   7.433
 1943TIP3    H227389   5.872   2.581   7.344
 1944TIP3   OH227390   2.520   2.668   7.804
 1944TIP3    H127391   2.480   2.665   7.717
 1944TIP3    H227392   2.498   2.584   7.843
 1945TIP3   OH227393   4.136   1.407   0.001
 1945TIP3    H127394   4.183   1.344   8.598
 1945TIP3    H227395   4.203   1.449   0.054
 1946TIP3   OH227396   3.127   6.695   0.743
 1946TIP3    H127397   3.170   6.760   0.689
 1946TIP3    H227398   3.173   6.613   0.723
 1947TIP3   OH227399   3.360   5.110   1.541
 1947TIP3    H127400   3.300   5.113   1.616
 1947TIP3    H227401   3.439   5.154   1.572
 1948TIP3   OH227402   6.681   4.763   0.226
 1948TIP3    H127403   6.661   4.793   0.137
 1948TIP3    H227404   6.632   4.822   0.283
 1949TIP3   OH227405   5.495   0.761   7.553
 1949TIP3    H127406   5.506   0.666   7.557
 1949TIP3    H227407   5.523   0.792   7.640
 1950TIP3   OH227408   3.023   2.326   1.657
 1950TIP3    H127409   2.935   2.292   1.675
 1950TIP3    H227410   3.081   2.257   1.690
 1951TIP3   OH227411   5.185   5.321   6.450
 1951TIP3    H127412   5.185   5.329   6.545
 1951TIP3    H227413   5.095   5.294   6.428
 1952TIP3   OH227414   3.878   2.096   7.270
 1952TIP3    H127415   3.941   2.117   7.201
 1952TIP3    H227416   3.908   2.147   7.346
 1953TIP3   OH227417   3.637   5.764   8.506
 1953TIP3    H127418   3.638   5.855   8.536
 1953TIP3    H227419   3.635   5.770   8.411
 1954TIP3   OH227420   6.658   2.485   6.372
 1954TIP3    H127421   6.609   2.551   6.322
 1954TIP3    H227422   6.705   2.434   6.306
 1955TIP3   OH227423   0.466   3.232   2.076
 1955TIP3    H127424   0.503   3.238   1.988
 1955TIP3    H227425   0.538   3.257   2.134
 1956TIP3   OH227426   4.546   2.939   7.470
 1956TIP3    H127427   4.611   2.940   7.540
 1956TIP3    H227428   4.483   3.008   7.494
 1957TIP3   OH227429   5.701   6.478   0.781
 1957TIP3    H127430   5.782   6.493   0.733
 1957TIP3    H227431   5.685   6.561   0.827
 1958TIP3   OH227432   1.513   2.826   7.425
 1958TIP3    H127433   1.594   2.876   7.430
 1958TIP3    H227434   1.454   2.881   7.373
 1959TIP3   OH227435   6.830   1.388   7.281
 1959TIP3    H127436   6.865   1.463   7.233
 1959TIP3    H227437   0.028   1.350   7.324
 1960TIP3   OH227438   4.287   5.119   7.529
 1960TIP3    H127439   4.294   5.120   7.625
 1960TIP3    H227440   4.272   5.027   7.507
 1961TIP3   OH227441   2.654   6.627   6.995
 1961TIP3    H127442   2.677   6.685   6.922
 1961TIP3    H227443   2.733   6.577   7.012
 1962TIP3   OH227444   3.506   3.946   7.457
 1962TIP3    H127445   3.506   4.027   7.509
 1962TIP3    H227446   3.436   3.893   7.494
 1963TIP3   OH227447   4.164   2.685   7.589
 1963TIP3    H127448   4.253   2.662   7.616
 1963TIP3    H227449   4.173   2.768   7.543
 1964TIP3   OH227450   6.853   3.773   6.995
 1964TIP3    H127451   0.002   3.815   6.913
 1964TIP3    H227452   6.847   3.845   7.058
 1965TIP3   OH227453   2.636   6.610   1.283
 1965TIP3    H127454   2.566   6.551   1.256
 1965TIP3    H227455   2.626   6.618   1.378
 1966TIP3   OH227456   1.515   4.339   7.550
 1966TIP3    H127457   1.509   4.383   7.465
 1966TIP3    H227458   1.504   4.409   7.614
 1967TIP3   OH227459   4.583   0.498   7.451
 1967TIP3    H127460   4.646   0.455   7.393
 1967TIP3    H227461   4.606   0.591   7.446
 1968TIP3   OH227462   5.356   3.735   6.925
 1968TIP3    H127463   5.325   3.825   6.940
 1968TIP3    H227464   5.284   3.680   6.955
 1969TIP3   OH227465   1.490   0.288   0.231
 1969TIP3    H127466   1.539   0.235   0.293
 1969TIP3    H227467   1.399   0.278   0.257
 1970TIP3   OH227468   0.657   4.873   8.258
 1970TIP3    H127469   0.701   4.801   8.214
 1970TIP3    H227470   0.604   4.914   8.190
 1971TIP3   OH227471   3.819   3.052   7.284
 1971TIP3    H127472   3.892   3.107   7.313
 1971TIP3    H227473   3.772   3.030   7.364
 1972TIP3   OH227474   1.527   2.586   1.013
 1972TIP3    H127475   1.514   2.650   1.083
 1972TIP3    H227476   1.476   2.510   1.041
 1973TIP3   OH227477   1.548   4.015   1.545
 1973TIP3    H127478   1.499   4.048   1.470
 1973TIP3    H227479   1.595   4.091   1.578
 1974TIP3   OH227480   5.906   5.823   8.406
 1974TIP3    H127481   5.865   5.904   8.375
 1974TIP3    H227482   5.833   5.771   8.440
 1975TIP3   OH227483   6.363   5.412   7.816
 1975TIP3    H127484   6.276   5.450   7.802
 1975TIP3    H227485   6.409   5.476   7.869
 1976TIP3   OH227486   1.796   4.583   7.414
 1976TIP3    H127487   1.840   4.499   7.420
 1976TIP3    H227488   1.821   4.630   7.493
 1977TIP3   OH227489   2.092   0.136   6.355
 1977TIP3    H127490   2.043   0.217   6.339
 1977TIP3    H227491   2.032   0.066   6.329
 1978TIP3   OH227492   6.741   5.397   0.681
 1978TIP3    H127493   6.684   5.351   0.620
 1978TIP3    H227494   6.769   5.330   0.743
 1979TIP3   OH227495   3.321   0.878   0.485
 1979TIP3    H127496   3.327   0.959   0.535
 1979TIP3    H227497   3.320   0.808   0.551
 1980TIP3   OH227498   4.886   4.063   6.109
 1980TIP3    H127499   4.979   4.078   6.129
 1980TIP3    H227500   4.839   4.111   6.177
 1981TIP3   OH227501   3.422   5.360   0.629
 1981TIP3    H127502   3.447   5.433   0.685
 1981TIP3    H227503   3.392   5.400   0.548
 1982TIP3   OH227504   6.429   4.886   0.786
 1982TIP3    H127505   6.448   4.858   0.696
 1982TIP3    H227506   6.497   4.950   0.805
 1983TIP3   OH227507   3.036   6.783   6.935
 1983TIP3    H127508   3.112   6.819   6.980
 1983TIP3    H227509   2.998   6.721   6.997
 1984TIP3   OH227510   3.274   3.585   1.812
 1984TIP3    H127511   3.220   3.665   1.811
 1984TIP3    H227512   3.211   3.514   1.799
 1985TIP3   OH227513   4.801   1.316   7.390
 1985TIP3    H127514   4.785   1.368   7.469
 1985TIP3    H227515   4.764   1.368   7.319
 1986TIP3   OH227516   1.799   2.047   8.241
 1986TIP3    H127517   1.865   2.107   8.276
 1986TIP3    H227518   1.715   2.088   8.262
 1987TIP3   OH227519   2.948   2.493   0.152
 1987TIP3    H127520   3.034   2.531   0.172
 1987TIP3    H227521   2.965   2.434   0.079
 1988TIP3   OH227522   5.262   6.228   7.697
 1988TIP3    H127523   5.262   6.173   7.618
 1988TIP3    H227524   5.315   6.304   7.672
 1989TIP3   OH227525   6.182   1.055   8.202
 1989TIP3    H127526   6.248   1.052   8.272
 1989TIP3    H227527   6.130   1.132   8.222
 1990TIP3   OH227528   2.225   2.273   0.596
 1990TIP3    H127529   2.287   2.298   0.664
 1990TIP3    H227530   2.154   2.336   0.604
 1991TIP3   OH227531   4.519   0.594   0.296
 1991TIP3    H127532   4.483   0.680   0.316
 1991TIP3    H227533   4.480   0.570   0.212
 1992TIP3   OH227534   2.060   0.067   7.700
 1992TIP3    H127535   2.003   0.022   7.636
 1992TIP3    H227536   2.029   0.157   7.700
 1993TIP3   OH227537   2.123   0.815   6.253
 1993TIP3    H127538   2.034   0.832   6.222
 1993TIP3    H227539   2.137   0.722   6.238
 1994TIP3   OH227540   4.038   2.017   1.332
 1994TIP3    H127541   4.019   2.034   1.424
 1994TIP3    H227542   3.954   1.992   1.294
 1995TIP3   OH227543   2.053   2.282   2.392
 1995TIP3    H127544   2.080   2.368   2.424
 1995TIP3    H227545   1.991   2.300   2.322
 1996TIP3   OH227546   1.007   5.535   6.137
 1996TIP3    H127547   1.094   5.545   6.177
 1996TIP3    H227548   0.953   5.496   6.205
 1997TIP3   OH227549   0.674   2.562   2.040
 1997TIP3    H127550   0.623   2.637   2.071
 1997TIP3    H227551   0.765   2.591   2.046
 1998TIP3   OH227552   1.637   1.576   0.524
 1998TIP3    H127553   1.652   1.667   0.500
 1998TIP3    H227554   1.725   1.540   0.535
 1999TIP3   OH227555   0.277   1.554   2.208
 1999TIP3    H127556   0.236   1.469   2.223
 1999TIP3    H227557   0.339   1.563   2.280
 2000TIP3   OH227558   5.310   6.815   1.196
 2000TIP3    H127559   5.290   0.011   1.253
 2000TIP3    H227560   5.238   6.754   1.209
 2001TIP3   OH227561   1.642   5.215   8.541
 2001TIP3    H127562   1.662   5.288   8.600
 2001TIP3    H227563   1.636   5.255   8.454
 2002TIP3   OH227564   2.337   1.837   0.708
 2002TIP3    H127565   2.327   1.759   0.653
 2002TIP3    H227566   2.292   1.906   0.661
 2003TIP3   OH227567   2.946   2.221   0.255
 2003TIP3    H127568   2.938   2.296   0.314
 2003TIP3    H227569   2.857   2.205   0.224
 2004TIP3   OH227570   4.596   0.157   8.171
 2004TIP3    H127571   4.603   0.186   8.080
 2004TIP3    H227572   4.578   0.237   8.220
 2005TIP3   OH227573   2.858   0.702   7.929
 2005TIP3    H127574   2.851   0.694   7.834
 2005TIP3    H227575   2.768   0.699   7.960
 2006TIP3   OH227576   2.931   4.305   0.303
 2006TIP3    H127577   2.972   4.231   0.257
 2006TIP3    H227578   2.954   4.293   0.395
 2007TIP3   OH227579   2.431   0.297   0.037
 2007TIP3    H127580   2.381   0.331   0.111
 2007TIP3    H227581   2.367   0.288   8.617
 2008TIP3   OH227582   5.100   2.838   0.492
 2008TIP3    H127583   5.079   2.807   0.580
 2008TIP3    H227584   5.086   2.761   0.436
 2009TIP3   OH227585   6.548   3.447   7.068
 2009TIP3    H127586   6.629   3.476   7.110
 2009TIP3    H227587   6.479   3.491   7.119
 2010TIP3   OH227588   3.909   5.301   8.239
 2010TIP3    H127589   3.974   5.341   8.297
 2010TIP3    H227590   3.921   5.345   8.155
 2011TIP3   OH227591   4.058   1.430   1.673
 2011TIP3    H127592   4.142   1.461   1.706
 2011TIP3    H227593   4.038   1.487   1.600
 2012TIP3   OH227594   1.188   6.590   0.035
 2012TIP3    H127595   1.104   6.576   0.079
 2012TIP3    H227596   1.187   6.531   8.611
 2013TIP3   OH227597   0.557   0.062   0.762
 2013TIP3    H127598   0.580   6.848   0.759
 2013TIP3    H227599   0.640   0.109   0.757
 2014TIP3   OH227600   0.452   1.120   2.303
 2014TIP3    H127601   0.467   1.033   2.265
 2014TIP3    H227602   0.418   1.102   2.390
 2015TIP3   OH227603   4.986   1.291   0.400
 2015TIP3    H127604   4.937   1.343   0.463
 2015TIP3    H227605   5.000   1.350   0.326
 2016TIP3   OH227606   0.039   1.715   0.010
 2016TIP3    H127607   0.024   1.722   8.567
 2016TIP3    H227608   0.126   1.752   0.024
 2017TIP3   OH227609   3.804   1.407   6.903
 2017TIP3    H127610   3.732   1.411   6.840
 2017TIP3    H227611   3.865   1.475   6.874
 2018TIP3   OH227612   1.827   6.450   0.326
 2018TIP3    H127613   1.883   6.374   0.340
 2018TIP3    H227614   1.818   6.490   0.413
 2019TIP3   OH227615   2.269   6.073   1.980
 2019TIP3    H127616   2.278   6.025   2.062
 2019TIP3    H227617   2.295   6.010   1.912
 2020TIP3   OH227618   0.976   1.345   8.294
 2020TIP3    H127619   1.040   1.364   8.362
 2020TIP3    H227620   0.984   1.419   8.233
 2021TIP3   OH227621   3.784   0.071   0.185
 2021TIP3    H127622   3.864   0.018   0.185
 2021TIP3    H227623   3.716   0.014   0.220
 2022TIP3   OH227624   6.372   6.163   8.290
 2022TIP3    H127625   6.326   6.081   8.272
 2022TIP3    H227626   6.454   6.135   8.331
 2023TIP3   OH227627   1.503   0.433   7.478
 2023TIP3    H127628   1.424   0.446   7.425
 2023TIP3    H227629   1.532   0.521   7.502
 2024TIP3   OH227630   0.511   4.492   8.191
 2024TIP3    H127631   0.492   4.477   8.284
 2024TIP3    H227632   0.426   4.511   8.152
 2025TIP3   OH227633   1.135   6.123   6.231
 2025TIP3    H127634   1.146   6.170   6.148
 2025TIP3    H227635   1.187   6.043   6.219
 2026TIP3   OH227636   1.415   6.639   1.917
 2026TIP3    H127637   1.338   6.599   1.958
 2026TIP3    H227638   1.478   6.567   1.908
 2027TIP3   OH227639   6.215   5.193   0.312
 2027TIP3    H127640   6.264   5.119   0.276
 2027TIP3    H227641   6.156   5.154   0.376
 2028TIP3   OH227642   5.755   3.543   1.902
 2028TIP3    H127643   5.833   3.500   1.868
 2028TIP3    H227644   5.684   3.483   1.881
 2029TIP3   OH227645   6.721   3.643   6.805
 2029TIP3    H127646   6.718   3.714   6.741
 2029TIP3    H227647   6.769   3.681   6.879
 2030TIP3   OH227648   2.166   1.867   1.899
 2030TIP3    H127649   2.180   1.952   1.941
 2030TIP3    H227650   2.252   1.844   1.863
 2031TIP3   OH227651   1.329   4.014   1.109
 2031TIP3    H127652   1.304   3.924   1.133
 2031TIP3    H227653   1.246   4.061   1.107
 2032TIP3   OH227654   0.268   0.474   2.078
 2032TIP3    H127655   0.219   0.452   2.157
 2032TIP3    H227656   0.322   0.549   2.103
 2033TIP3   OH227657   4.692   5.981   1.129
 2033TIP3    H127658   4.742   6.029   1.194
 2033TIP3    H227659   4.701   5.889   1.154
 2034TIP3   OH227660   2.634   2.691   1.271
 2034TIP3    H127661   2.661   2.687   1.363
 2034TIP3    H227662   2.539   2.676   1.274
 2035TIP3   OH227663   0.356   2.379   1.840
 2035TIP3    H127664   0.444   2.350   1.866
 2035TIP3    H227665   0.367   2.472   1.821
 2036TIP3   OH227666   1.074   1.895   6.592
 2036TIP3    H127667   1.135   1.951   6.542
 2036TIP3    H227668   1.130   1.849   6.654
 2037TIP3   OH227669   3.155   6.186   2.216
 2037TIP3    H127670   3.092   6.257   2.205
 2037TIP3    H227671   3.101   6.110   2.242
 2038TIP3   OH227672   4.548   1.840   7.839
 2038TIP3    H127673   4.467   1.873   7.801
 2038TIP3    H227674   4.520   1.787   7.914
 2039TIP3   OH227675   2.289   5.550   2.079
 2039TIP3    H127676   2.367   5.506   2.047
 2039TIP3    H227677   2.227   5.480   2.098
 2040TIP3   OH227678   5.235   5.274   8.395
 2040TIP3    H127679   5.244   5.358   8.350
 2040TIP3    H227680   5.146   5.276   8.432
 2041TIP3   OH227681   3.778   1.549   0.917
 2041TIP3    H127682   3.802   1.519   0.829
 2041TIP3    H227683   3.712   1.617   0.902
 2042TIP3   OH227684   4.912   2.107   1.068
 2042TIP3    H127685   4.889   2.157   1.147
 2042TIP3    H227686   4.990   2.057   1.092
 2043TIP3   OH227687   1.678   4.182   8.222
 2043TIP3    H127688   1.735   4.105   8.223
 2043TIP3    H227689   1.739   4.256   8.218
 2044TIP3   OH227690   3.388   0.229   7.140
 2044TIP3    H127691   3.342   0.304   7.178
 2044TIP3    H227692   3.467   0.267   7.102
 2045TIP3   OH227693   6.565   2.377   0.641
 2045TIP3    H127694   6.629   2.386   0.711
 2045TIP3    H227695   6.564   2.463   0.598
 2046TIP3   OH227696   2.580   0.714   7.436
 2046TIP3    H127697   2.544   0.682   7.519
 2046TIP3    H227698   2.674   0.724   7.453
 2047TIP3   OH227699   5.785   4.538   8.322
 2047TIP3    H127700   5.796   4.628   8.352
 2047TIP3    H227701   5.838   4.532   8.242
 2048TIP3   OH227702   2.050   0.441   2.001
 2048TIP3    H127703   2.053   0.351   1.968
 2048TIP3    H227704   2.133   0.453   2.046
 2049TIP3   OH227705   2.438   0.293   2.508
 2049TIP3    H127706   2.388   0.248   2.440
 2049TIP3    H227707   2.524   0.308   2.468
 2050TIP3   OH227708   6.481   3.108   8.245
 2050TIP3    H127709   6.413   3.159   8.203
 2050TIP3    H227710   6.451   3.098   8.336
 2051TIP3   OH227711   2.402   0.604   6.669
 2051TIP3    H127712   2.364   0.584   6.755
 2051TIP3    H227713   2.496   0.616   6.687
 2052TIP3   OH227714   0.572   2.109   1.051
 2052TIP3    H127715   0.589   2.136   1.142
 2052TIP3    H227716   0.545   2.190   1.007
 2053TIP3   OH227717   3.992   2.151   0.269
 2053TIP3    H127718   3.963   2.215   0.335
 2053TIP3    H227719   4.075   2.185   0.237
 2054TIP3   OH227720   1.560   6.873   1.498
 2054TIP3    H127721   1.583   6.836   1.583
 2054TIP3    H227722   1.543   0.087   1.515
 2055TIP3   OH227723   1.487   3.910   0.281
 2055TIP3    H127724   1.522   3.915   0.370
 2055TIP3    H227725   1.529   3.832   0.243
 2056TIP3   OH227726   4.413   0.354   1.572
 2056TIP3    H127727   4.395   0.427   1.512
 2056TIP3    H227728   4.327   0.314   1.587
 2057TIP3   OH227729   3.850   5.065   1.012
 2057TIP3    H127730   3.829   5.158   1.021
 2057TIP3    H227731   3.935   5.056   1.054
 2058TIP3   OH227732   5.108   1.576   1.452
 2058TIP3    H127733   5.106   1.662   1.495
 2058TIP3    H227734   5.022   1.539   1.469
 2059TIP3   OH227735   5.698   2.067   0.659
 2059TIP3    H127736   5.633   2.131   0.688
 2059TIP3    H227737   5.646   1.993   0.628
 2060TIP3   OH227738   6.003   5.124   8.624
 2060TIP3    H127739   6.057   5.175   8.564
 2060TIP3    H227740   5.913   5.154   8.606
 2061TIP3   OH227741   1.156   0.129   2.014
 2061TIP3    H127742   1.173   0.062   1.947
 2061TIP3    H227743   1.152   0.080   2.096
 2062TIP3   OH227744   4.998   0.028   0.471
 2062TIP3    H127745   5.052   0.059   0.544
 2062TIP3    H227746   5.059   0.018   0.398
 2063TIP3   OH227747   3.082   6.837   7.492
 2063TIP3    H127748   3.052   6.757   7.536
 2063TIP3    H227749   3.006   6.866   7.441
 2064TIP3   OH227750   1.967   0.908   6.608
 2064TIP3    H127751   1.926   0.991   6.632
 2064TIP3    H227752   2.052   0.933   6.572
 2065TIP3   OH227753   4.453   4.887   2.103
 2065TIP3    H127754   4.519   4.952   2.082
 2065TIP3    H227755   4.370   4.934   2.097
 2066TIP3   OH227756   2.527   5.004   0.216
 2066TIP3    H127757   2.573   4.921   0.204
 2066TIP3    H227758   2.434   4.981   0.209
 2067TIP3   OH227759   3.999   0.039   0.808
 2067TIP3    H127760   4.082   0.017   0.851
 2067TIP3    H227761   3.995   0.135   0.810
 2068TIP3   OH227762   0.928   3.567   0.441
 2068TIP3    H127763   0.869   3.637   0.469
 2068TIP3    H227764   0.871   3.503   0.399
 2069TIP3   OH227765   4.719   4.884   2.009
 2069TIP3    H127766   4.790   4.822   1.988
 2069TIP3    H227767   4.676   4.901   1.926
 2070TIP3   OH227768   1.155   2.357   0.649
 2070TIP3    H127769   1.218   2.370   0.579
 2070TIP3    H227770   1.196   2.395   0.727
 2071TIP3   OH227771   5.122   1.059   1.473
 2071TIP3    H127772   5.145   1.036   1.563
 2071TIP3    H227773   5.165   1.143   1.458
 2072TIP3   OH227774   3.069   6.781   2.095
 2072TIP3    H127775   3.071   6.749   2.185
 2072TIP3    H227776   3.030   6.868   2.101
 2073TIP3   OH227777   1.192   5.857   1.703
 2073TIP3    H127778   1.180   5.951   1.715
 2073TIP3    H227779   1.154   5.818   1.782
 2074TIP3   OH227780   3.290   4.430   7.291
 2074TIP3    H127781   3.226   4.501   7.284
 2074TIP3    H227782   3.263   4.367   7.224
 2075TIP3   OH227783   3.721   5.976   7.613
 2075TIP3    H127784   3.701   6.040   7.546
 2075TIP3    H227785   3.699   5.891   7.574
 2076TIP3   OH227786   2.442   3.142   7.842
 2076TIP3    H127787   2.406   3.165   7.927
 2076TIP3    H227788   2.442   3.224   7.792
 2077TIP3   OH227789   0.464   0.732   1.471
 2077TIP3    H127790   0.500   0.734   1.383
 2077TIP3    H227791   0.419   0.817   1.480
 2078TIP3   OH227792   4.138   4.234   0.117
 2078TIP3    H127793   4.149   4.308   0.177
 2078TIP3    H227794   4.222   4.227   0.071
 2079TIP3   OH227795   2.743   5.252   8.381
 2079TIP3    H127796   2.690   5.187   8.428
 2079TIP3    H227797   2.829   5.211   8.373
 2080TIP3   OH227798   3.026   3.453   8.441
 2080TIP3    H127799   2.941   3.489   8.417
 2080TIP3    H227800   3.088   3.498   8.385
 2081TIP3   OH227801   3.972   2.621   8.541
 2081TIP3    H127802   3.990   2.694   8.481
 2081TIP3    H227803   3.906   2.568   8.496
 2082TIP3   OH227804   3.488   6.212   1.930
 2082TIP3    H127805   3.506   6.196   1.837
 2082TIP3    H227806   3.524   6.299   1.946
 2083TIP3   OH227807   4.537   6.223   2.542
 2083TIP3    H127808   4.584   6.139   2.544
 2083TIP3    H227809   4.585   6.277   2.480
 2084TIP3   OH227810   1.539   2.078   1.567
 2084TIP3    H127811   1.590   1.999   1.587
 2084TIP3    H227812   1.576   2.146   1.623
 2085TIP3   OH227813   4.726   0.454   1.163
 2085TIP3    H127814   4.686   0.454   1.250
 2085TIP3    H227815   4.764   0.541   1.154
 2086TIP3   OH227816   3.174   3.268   1.659
 2086TIP3    H127817   3.124   3.345   1.686
 2086TIP3    H227818   3.135   3.196   1.708
 2087TIP3   OH227819   1.754   2.839   0.330
 2087TIP3    H127820   1.787   2.924   0.358
 2087TIP3    H227821   1.665   2.857   0.299
 2088TIP3   OH227822   1.108   5.567   1.842
 2088TIP3    H127823   1.183   5.552   1.899
 2088TIP3    H227824   1.103   5.488   1.788
 2089TIP3   OH227825   3.668   1.360   0.177
 2089TIP3    H127826   3.609   1.352   0.101
 2089TIP3    H227827   3.715   1.442   0.162
 2090TIP3   OH227828   6.710   2.493   0.832
 2090TIP3    H127829   6.687   2.481   0.924
 2090TIP3    H227830   6.744   2.583   0.828
 2091TIP3   OH227831   4.146   0.024   8.220
 2091TIP3    H127832   4.238   0.011   8.196
 2091TIP3    H227833   4.101   6.825   8.185
 2092TIP3   OH227834   3.671   4.870   1.447
 2092TIP3    H127835   3.577   4.869   1.428
 2092TIP3    H227836   3.677   4.887   1.541
 2093TIP3   OH227837   6.116   1.087   0.737
 2093TIP3    H127838   6.069   1.016   0.781
 2093TIP3    H227839   6.184   1.042   0.686
 2094TIP3   OH227840   0.492   5.784   8.009
 2094TIP3    H127841   0.581   5.755   8.025
 2094TIP3    H227842   0.463   5.821   8.093
 2095TIP3   OH227843   0.011   4.658   8.005
 2095TIP3    H127844   6.855   4.748   8.003
 2095TIP3    H227845   6.863   4.622   7.920
 2096TIP3   OH227846   1.953   2.563   7.356
 2096TIP3    H127847   1.967   2.498   7.425
 2096TIP3    H227848   1.860   2.558   7.335
 2097TIP3   OH227849   5.170   6.490   2.472
 2097TIP3    H127850   5.188   6.397   2.462
 2097TIP3    H227851   5.253   6.528   2.502
 2098TIP3   OH227852   2.870   2.203   0.606
 2098TIP3    H127853   2.775   2.209   0.598
 2098TIP3    H227854   2.903   2.272   0.548
 2099TIP3   OH227855   0.830   5.224   0.916
 2099TIP3    H127856   0.803   5.308   0.879
 2099TIP3    H227857   0.796   5.226   1.006
 2100TIP3   OH227858   1.658   6.433   7.784
 2100TIP3    H127859   1.732   6.409   7.727
 2100TIP3    H227860   1.699   6.465   7.864
 2101TIP3   OH227861   3.834   1.634   7.924
 2101TIP3    H127862   3.883   1.560   7.888
 2101TIP3    H227863   3.750   1.597   7.950
 2102TIP3   OH227864   0.419   2.902   7.691
 2102TIP3    H127865   0.387   2.852   7.616
 2102TIP3    H227866   0.511   2.876   7.700
 2103TIP3   OH227867   1.091   5.841   1.189
 2103TIP3    H127868   1.068   5.902   1.118
 2103TIP3    H227869   1.060   5.756   1.158
 2104TIP3   OH227870   2.846   3.187   2.353
 2104TIP3    H127871   2.821   3.094   2.355
 2104TIP3    H227872   2.931   3.190   2.396
 2105TIP3   OH227873   0.114   1.549   1.203
 2105TIP3    H127874   0.056   1.476   1.223
 2105TIP3    H227875   0.108   1.607   1.279
 2106TIP3   OH227876   6.216   1.814   0.307
 2106TIP3    H127877   6.286   1.775   0.255
 2106TIP3    H227878   6.205   1.754   0.380
 2107TIP3   OH227879   5.374   6.340   7.069
 2107TIP3    H127880   5.389   6.298   6.984
 2107TIP3    H227881   5.299   6.398   7.053
 2108TIP3   OH227882   5.797   1.657   8.355
 2108TIP3    H127883   5.794   1.697   8.442
 2108TIP3    H227884   5.715   1.610   8.348
 2109TIP3   OH227885   6.122   0.479   0.521
 2109TIP3    H127886   6.029   0.463   0.507
 2109TIP3    H227887   6.147   0.537   0.449
 2110TIP3   OH227888   4.898   6.611   0.249
 2110TIP3    H127889   4.903   6.693   0.298
 2110TIP3    H227890   4.987   6.577   0.250
 2111TIP3   OH227891   2.460   3.379   7.260
 2111TIP3    H127892   2.375   3.391   7.218
 2111TIP3    H227893   2.518   3.351   7.189
 2112TIP3   OH227894   6.756   2.444   6.918
 2112TIP3    H127895   6.735   2.437   6.825
 2112TIP3    H227896   6.697   2.511   6.952
 2113TIP3   OH227897   2.466   5.231   1.249
 2113TIP3    H127898   2.443   5.141   1.272
 2113TIP3    H227899   2.455   5.235   1.154
 2114TIP3   OH227900   4.623   0.590   2.563
 2114TIP3    H127901   4.640   0.498   2.543
 2114TIP3    H227902   4.670   0.638   2.495
 2115TIP3   OH227903   6.627   1.632   1.439
 2115TIP3    H127904   6.623   1.537   1.450
 2115TIP3    H227905   6.578   1.648   1.358
 2116TIP3   OH227906   5.766   3.055   0.560
 2116TIP3    H127907   5.741   3.147   0.556
 2116TIP3    H227908   5.820   3.048   0.638
 2117TIP3   OH227909   6.861   5.039   2.034
 2117TIP3    H127910   0.002   4.957   1.990
 2117TIP3    H227911   6.821   5.013   2.117
 2118TIP3   OH227912   2.373   0.521   6.919
 2118TIP3    H127913   2.467   0.529   6.935
 2118TIP3    H227914   2.342   0.459   6.986
 2119TIP3   OH227915   2.485   1.942   8.523
 2119TIP3    H127916   2.563   1.887   8.525
 2119TIP3    H227917   2.513   2.023   8.566
 2120TIP3   OH227918   1.255   1.105   1.443
 2120TIP3    H127919   1.257   1.161   1.366
 2120TIP3    H227920   1.201   1.031   1.418
 2121TIP3   OH227921   2.662   0.343   6.803
 2121TIP3    H127922   2.600   0.343   6.730
 2121TIP3    H227923   2.611   0.316   6.878
 2122TIP3   OH227924   4.895   6.497   2.429
 2122TIP3    H127925   4.906   6.556   2.354
 2122TIP3    H227926   4.984   6.469   2.449
 2123TIP3   OH227927   1.584   4.458   1.377
 2123TIP3    H127928   1.529   4.444   1.454
 2123TIP3    H227929   1.569   4.550   1.353
 2124TIP3   OH227930   3.572   4.228   6.253
 2124TIP3    H127931   3.588   4.144   6.211
 2124TIP3    H227932   3.477   4.235   6.258
 2125TIP3   OH227933   6.133   0.119   1.091
 2125TIP3    H127934   6.085   0.198   1.066
 2125TIP3    H227935   6.073   0.073   1.150
 2126TIP3   OH227936   5.116   5.310   7.652
 2126TIP3    H127937   5.082   5.367   7.582
 2126TIP3    H227938   5.059   5.233   7.650
 2127TIP3   OH227939   3.813   4.340   6.183
 2127TIP3    H127940   3.863   4.258   6.181
 2127TIP3    H227941   3.734   4.318   6.232
 2128TIP3   OH227942   5.192   4.016   7.957
 2128TIP3    H127943   5.122   4.023   8.022
 2128TIP3    H227944   5.230   3.930   7.973
 2129TIP3   OH227945   0.044   1.762   1.424
 2129TIP3    H127946   6.866   1.757   1.501
 2129TIP3    H227947   6.868   1.806   1.358
 2130TIP3   OH227948   6.102   2.467   6.399
 2130TIP3    H127949   6.059   2.548   6.373
 2130TIP3    H227950   6.195   2.482   6.382
 2131TIP3   OH227951   3.324   3.134   1.120
 2131TIP3    H127952   3.295   3.058   1.070
 2131TIP3    H227953   3.309   3.109   1.212
 2132TIP3   OH227954   6.152   5.502   7.671
 2132TIP3    H127955   6.061   5.526   7.654
 2132TIP3    H227956   6.171   5.433   7.607
 2133TIP3   OH227957   4.741   4.060   7.420
 2133TIP3    H127958   4.795   4.134   7.393
 2133TIP3    H227959   4.755   4.053   7.514
 2134TIP3   OH227960   4.724   1.495   1.827
 2134TIP3    H127961   4.651   1.557   1.833
 2134TIP3    H227962   4.703   1.427   1.891
 2135TIP3   OH227963   5.183   1.279   0.887
 2135TIP3    H127964   5.185   1.374   0.885
 2135TIP3    H227965   5.214   1.253   0.800
 2136TIP3   OH227966   6.815   6.341   0.481
 2136TIP3    H127967   6.759   6.292   0.421
 2136TIP3    H227968   6.821   6.285   0.559
 2137TIP3   OH227969   5.876   3.261   2.020
 2137TIP3    H127970   5.781   3.268   2.019
 2137TIP3    H227971   5.898   3.219   1.937
 2138TIP3   OH227972   2.963   1.333   0.221
 2138TIP3    H127973   2.970   1.255   0.276
 2138TIP3    H227974   2.871   1.334   0.194
 2139TIP3   OH227975   6.479   5.833   1.670
 2139TIP3    H127976   6.436   5.919   1.665
 2139TIP3    H227977   6.427   5.784   1.733
 2140TIP3   OH227978   5.171   6.407   1.540
 2140TIP3    H127979   5.244   6.345   1.544
 2140TIP3    H227980   5.160   6.437   1.630
 2141TIP3   OH227981   5.105   6.082   8.365
 2141TIP3    H127982   5.130   6.137   8.291
 2141TIP3    H227983   5.124   6.135   8.442
 2142TIP3   OH227984   1.843   2.518   8.399
 2142TIP3    H127985   1.773   2.454   8.403
 2142TIP3    H227986   1.919   2.475   8.438
 2143TIP3   OH227987   6.576   3.299   0.693
 2143TIP3    H127988   6.504   3.258   0.644
 2143TIP3    H227989   6.609   3.367   0.634
 2144TIP3   OH227990   2.178   6.594   6.970
 2144TIP3    H127991   2.117   6.631   6.907
 2144TIP3    H227992   2.259   6.644   6.959
 2145TIP3   OH227993   0.672   0.119   1.582
 2145TIP3    H127994   0.734   0.063   1.535
 2145TIP3    H227995   0.671   0.201   1.532
 2146TIP3   OH227996   0.762   6.721   0.336
 2146TIP3    H127997   0.768   6.731   0.431
 2146TIP3    H227998   0.737   6.630   0.322
 2147TIP3   OH227999   4.661   4.127   1.050
 2147TIP3    H128000   4.737   4.079   1.018
 2147TIP3    H228001   4.636   4.083   1.131
 2148TIP3   OH228002   0.306   0.964   1.376
 2148TIP3    H128003   0.214   0.974   1.403
 2148TIP3    H228004   0.304   0.978   1.282
 2149TIP3   OH228005   0.594   6.181   8.350
 2149TIP3    H128006   0.688   6.163   8.345
 2149TIP3    H228007   0.563   6.173   8.260
 2150TIP3   OH228008   4.051   4.247   1.374
 2150TIP3    H128009   4.040   4.170   1.430
 2150TIP3    H228010   4.009   4.318   1.422
 2151TIP3   OH228011   0.829   5.036   1.234
 2151TIP3    H128012   0.754   5.089   1.207
 2151TIP3    H228013   0.815   4.951   1.193
 2152TIP3   OH228014   5.282   1.390   7.416
 2152TIP3    H128015   5.363   1.440   7.421
 2152TIP3    H228016   5.218   1.443   7.463
 2153TIP3   OH228017   4.916   1.322   2.274
 2153TIP3    H128018   4.887   1.232   2.291
 2153TIP3    H228019   5.012   1.317   2.279
 2154TIP3   OH228020   5.351   3.328   2.131
 2154TIP3    H128021   5.428   3.384   2.143
 2154TIP3    H228022   5.385   3.250   2.087
 2155TIP3   OH228023   5.866   3.187   7.442
 2155TIP3    H128024   5.914   3.120   7.491
 2155TIP3    H228025   5.932   3.228   7.386
 2156TIP3   OH228026   5.262   4.415   0.666
 2156TIP3    H128027   5.230   4.431   0.577
 2156TIP3    H228028   5.327   4.483   0.681
 2157TIP3   OH228029   2.880   0.832   6.969
 2157TIP3    H128030   2.883   0.818   7.063
 2157TIP3    H228031   2.937   0.907   6.954
 2158TIP3   OH228032   0.587   3.696   6.727
 2158TIP3    H128033   0.590   3.789   6.706
 2158TIP3    H228034   0.582   3.652   6.642
 2159TIP3   OH228035   0.056   6.253   8.452
 2159TIP3    H128036   0.046   6.159   8.441
 2159TIP3    H228037   0.151   6.268   8.449
 2160TIP3   OH228038   2.082   1.477   7.978
 2160TIP3    H128039   2.014   1.506   8.040
 2160TIP3    H228040   2.034   1.432   7.910
 2161TIP3   OH228041   2.027   3.913   8.388
 2161TIP3    H128042   2.052   3.940   8.476
 2161TIP3    H228043   2.102   3.864   8.355
 2162TIP3   OH228044   1.093   4.604   7.089
 2162TIP3    H128045   1.134   4.622   7.174
 2162TIP3    H228046   1.157   4.549   7.044
 2163TIP3   OH228047   4.280   3.700   0.197
 2163TIP3    H128048   4.232   3.757   0.137
 2163TIP3    H228049   4.214   3.671   0.260
 2164TIP3   OH228050   3.078   3.854   1.820
 2164TIP3    H128051   3.135   3.918   1.862
 2164TIP3    H228052   2.992   3.868   1.861
 2165TIP3   OH228053   3.550   3.779   1.103
 2165TIP3    H128054   3.510   3.714   1.161
 2165TIP3    H228055   3.504   3.860   1.121
 2166TIP3   OH228056   5.297   1.774   8.030
 2166TIP3    H128057   5.259   1.686   8.028
 2166TIP3    H228058   5.289   1.801   8.121
 2167TIP3   OH228059   4.842   4.969   1.739
 2167TIP3    H128060   4.840   4.897   1.802
 2167TIP3    H228061   4.762   4.958   1.687
 2168TIP3   OH228062   6.558   0.746   0.663
 2168TIP3    H128063   6.579   0.809   0.594
 2168TIP3    H228064   6.627   0.681   0.658
 2169TIP3   OH228065   6.871   1.006   1.455
 2169TIP3    H128066   6.874   1.056   1.537
 2169TIP3    H228067   6.777   0.998   1.436
 2170TIP3   OH228068   3.864   2.612   7.314
 2170TIP3    H128069   3.913   2.695   7.316
 2170TIP3    H228070   3.932   2.545   7.306
 2171TIP3   OH228071   6.570   6.627   2.224
 2171TIP3    H128072   6.546   6.614   2.132
 2171TIP3    H228073   6.662   6.653   2.221
 2172TIP3   OH228074   2.297   1.523   1.221
 2172TIP3    H128075   2.246   1.444   1.208
 2172TIP3    H228076   2.285   1.545   1.313
 2173TIP3   OH228077   4.808   0.879   8.157
 2173TIP3    H128078   4.762   0.912   8.080
 2173TIP3    H228079   4.827   0.787   8.136
 2174TIP3   OH228080   4.145   5.500   0.385
 2174TIP3    H128081   4.142   5.455   0.300
 2174TIP3    H228082   4.226   5.552   0.381
 2175TIP3   OH228083   1.844   1.540   8.149
 2175TIP3    H128084   1.838   1.623   8.195
 2175TIP3    H228085   1.885   1.480   8.212
 2176TIP3   OH228086   1.370   5.599   1.492
 2176TIP3    H128087   1.426   5.664   1.534
 2176TIP3    H228088   1.411   5.583   1.407
 2177TIP3   OH228089   4.880   3.528   7.928
 2177TIP3    H128090   4.948   3.578   7.974
 2177TIP3    H228091   4.924   3.447   7.903
 2178TIP3   OH228092   3.731   6.755   1.916
 2178TIP3    H128093   3.743   6.812   1.992
 2178TIP3    H228094   3.819   6.725   1.893
 2179TIP3   OH228095   6.188   5.146   7.989
 2179TIP3    H128096   6.176   5.067   7.936
 2179TIP3    H228097   6.283   5.157   7.993
 2180TIP3   OH228098   3.966   4.913   0.565
 2180TIP3    H128099   3.976   4.928   0.471
 2180TIP3    H228100   3.915   4.832   0.570
 2181TIP3   OH228101   2.197   2.751   8.537
 2181TIP3    H128102   2.159   2.839   8.545
 2181TIP3    H228103   2.283   2.757   8.577
 2182TIP3   OH228104   4.398   3.748   8.274
 2182TIP3    H128105   4.347   3.722   8.198
 2182TIP3    H228106   4.389   3.674   8.335
 2183TIP3   OH228107   3.857   5.181   0.693
 2183TIP3    H128108   3.912   5.173   0.771
 2183TIP3    H228109   3.891   5.114   0.633
 2184TIP3   OH228110   0.487   4.954   0.223
 2184TIP3    H128111   0.485   4.927   0.314
 2184TIP3    H228112   0.444   4.882   0.176
 2185TIP3   OH228113   3.374   0.268   6.251
 2185TIP3    H128114   3.402   0.324   6.178
 2185TIP3    H228115   3.361   0.182   6.211
 2186TIP3   OH228116   2.059   6.645   6.725
 2186TIP3    H128117   1.971   6.632   6.760
 2186TIP3    H228118   2.045   6.678   6.636
 2187TIP3   OH228119   5.903   2.089   0.200
 2187TIP3    H128120   5.908   1.998   0.228
 2187TIP3    H228121   5.991   2.124   0.213
 2188TIP3   OH228122   0.683   4.708   0.233
 2188TIP3    H128123   0.602   4.705   0.182
 2188TIP3    H228124   0.734   4.633   0.202
 2189TIP3   OH228125   0.678   0.952   1.156
 2189TIP3    H128126   0.717   1.020   1.210
 2189TIP3    H228127   0.590   0.984   1.136
 2190TIP3   OH228128   1.758   2.428   1.237
 2190TIP3    H128129   1.685   2.489   1.247
 2190TIP3    H228130   1.761   2.409   1.143
 2191TIP3   OH228131   5.576   1.047   7.581
 2191TIP3    H128132   5.644   1.061   7.647
 2191TIP3    H228133   5.592   1.115   7.516
 2192TIP3   OH228134   5.174   3.200   8.200
 2192TIP3    H128135   5.145   3.158   8.119
 2192TIP3    H228136   5.171   3.130   8.266
 2193TIP3   OH228137   4.172   6.557   7.885
 2193TIP3    H128138   4.253   6.554   7.936
 2193TIP3    H228139   4.178   6.481   7.827
 2194TIP3   OH228140   0.913   0.495   8.397
 2194TIP3    H128141   0.834   0.536   8.363
 2194TIP3    H228142   0.945   0.442   8.324
 2195TIP3   OH228143   3.778   6.377   1.200
 2195TIP3    H128144   3.683   6.390   1.198
 2195TIP3    H228145   3.788   6.285   1.225
 2196TIP3   OH228146   2.459   4.345   7.330
 2196TIP3    H128147   2.548   4.363   7.300
 2196TIP3    H228148   2.455   4.378   7.419
 2197TIP3   OH228149   6.264   2.756   1.315
 2197TIP3    H128150   6.176   2.745   1.350
 2197TIP3    H228151   6.299   2.668   1.309
 2198TIP3   OH228152   0.800   5.947   7.619
 2198TIP3    H128153   0.785   6.041   7.620
 2198TIP3    H228154   0.715   5.908   7.637
 2199TIP3   OH228155   4.587   4.136   6.674
 2199TIP3    H128156   4.574   4.230   6.682
 2199TIP3    H228157   4.526   4.109   6.606
 2200TIP3   OH228158   5.537   3.538   7.584
 2200TIP3    H128159   5.599   3.576   7.522
 2200TIP3    H228160   5.493   3.613   7.624
 2201TIP3   OH228161   3.522   4.856   8.538
 2201TIP3    H128162   3.438   4.810   8.541
 2201TIP3    H228163   3.540   4.866   8.444
 2202TIP3   OH228164   0.820   4.154   1.174
 2202TIP3    H128165   0.839   4.126   1.264
 2202TIP3    H228166   0.786   4.076   1.131
 2203TIP3   OH228167   5.015   1.238   6.421
 2203TIP3    H128168   5.052   1.150   6.422
 2203TIP3    H228169   4.932   1.229   6.374
 2204TIP3   OH228170   0.017   3.042   0.066
 2204TIP3    H128171   6.812   3.041   0.019
 2204TIP3    H228172   0.084   3.052   8.649
 2205TIP3   OH228173   1.001   4.266   8.409
 2205TIP3    H128174   1.050   4.238   8.332
 2205TIP3    H228175   1.068   4.279   8.476
 2206TIP3   OH228176   5.163   6.335   8.513
 2206TIP3    H128177   5.203   6.387   8.443
 2206TIP3    H228178   5.089   6.388   8.544
 2207TIP3   OH228179   5.668   4.165   0.591
 2207TIP3    H128180   5.696   4.194   0.504
 2207TIP3    H228181   5.640   4.245   0.635
 2208TIP3   OH228182   4.150   4.916   7.031
 2208TIP3    H128183   4.062   4.878   7.032
 2208TIP3    H228184   4.136   5.010   7.041
 2209TIP3   OH228185   0.898   3.452   7.649
 2209TIP3    H128186   0.831   3.462   7.582
 2209TIP3    H228187   0.863   3.387   7.709
 2210TIP3   OH228188   4.344   3.894   6.875
 2210TIP3    H128189   4.383   3.808   6.857
 2210TIP3    H228190   4.312   3.923   6.789
 2211TIP3   OH228191   5.478   3.944   7.629
 2211TIP3    H128192   5.462   3.874   7.693
 2211TIP3    H228193   5.552   3.993   7.665
 2212TIP3   OH228194   5.847   5.361   1.187
 2212TIP3    H128195   5.856   5.277   1.142
 2212TIP3    H228196   5.781   5.347   1.254
 2213TIP3   OH228197   2.103   1.274   7.407
 2213TIP3    H128198   2.198   1.282   7.406
 2213TIP3    H228199   2.081   1.264   7.500
 2214TIP3   OH228200   6.314   1.291   0.704
 2214TIP3    H128201   6.238   1.242   0.734
 2214TIP3    H228202   6.292   1.318   0.615
 2215TIP3   OH228203   4.314   5.134   0.347
 2215TIP3    H128204   4.404   5.104   0.365
 2215TIP3    H228205   4.289   5.179   0.428
 2216TIP3   OH228206   0.462   0.251   8.388
 2216TIP3    H128207   0.408   0.174   8.370
 2216TIP3    H228208   0.501   0.233   8.474
 2217TIP3   OH228209   6.495   1.300   1.164
 2217TIP3    H128210   6.589   1.288   1.172
 2217TIP3    H228211   6.482   1.320   1.071
 2218TIP3   OH228212   3.022   4.642   0.718
 2218TIP3    H128213   2.984   4.615   0.802
 2218TIP3    H228214   3.038   4.736   0.729
 2219TIP3   OH228215   5.094   5.223   0.442
 2219TIP3    H128216   5.121   5.137   0.473
 2219TIP3    H228217   5.176   5.273   0.437
 2220TIP3   OH228218   6.301   6.062   6.966
 2220TIP3    H128219   6.276   5.970   6.959
 2220TIP3    H228220   6.395   6.063   6.945
 2221TIP3   OH228221   5.398   6.263   8.297
 2221TIP3    H128222   5.410   6.321   8.372
 2221TIP3    H228223   5.405   6.175   8.334
 2222TIP3   OH228224   1.324   0.239   6.458
 2222TIP3    H128225   1.257   0.297   6.421
 2222TIP3    H228226   1.281   0.154   6.465
 2223TIP3   OH228227   6.061   5.657   0.112
 2223TIP3    H128228   6.041   5.572   0.073
 2223TIP3    H228229   6.143   5.644   0.159
 2224TIP3   OH228230   3.237   6.216   6.528
 2224TIP3    H128231   3.167   6.159   6.495
 2224TIP3    H228232   3.196   6.303   6.533
 2225TIP3   OH228233   3.437   4.547   7.487
 2225TIP3    H128234   3.456   4.469   7.539
 2225TIP3    H228235   3.417   4.514   7.400
 2226TIP3   OH228236   1.503   0.402   6.598
 2226TIP3    H128237   1.445   0.330   6.577
 2226TIP3    H228238   1.498   0.410   6.694
 2227TIP3   OH228239   6.037   0.903   2.098
 2227TIP3    H128240   6.048   0.815   2.135
 2227TIP3    H228241   6.045   0.890   2.004
 2228TIP3   OH228242   2.127   5.398   2.270
 2228TIP3    H128243   2.205   5.345   2.249
 2228TIP3    H228244   2.110   5.380   2.362
 2229TIP3   OH228245   3.888   0.177   8.547
 2229TIP3    H128246   3.954   0.245   8.546
 2229TIP3    H228247   3.857   0.174   8.638
 2230TIP3   OH228248   0.416   3.168   7.166
 2230TIP3    H128249   0.428   3.262   7.149
 2230TIP3    H228250   0.325   3.160   7.195
 2231TIP3   OH228251   1.186   6.366   1.608
 2231TIP3    H128252   1.133   6.434   1.650
 2231TIP3    H228253   1.150   6.359   1.519
 2232TIP3   OH228254   1.334   0.828   6.221
 2232TIP3    H128255   1.380   0.911   6.237
 2232TIP3    H228256   1.245   0.843   6.253
 2233TIP3   OH228257   0.689   5.956   0.146
 2233TIP3    H128258   0.606   5.940   0.190
 2233TIP3    H228259   0.670   6.027   0.084
 2234TIP3   OH228260   6.815   1.760   0.277
 2234TIP3    H128261   6.805   1.847   0.239
 2234TIP3    H228262   6.850   1.707   0.206
 2235TIP3   OH228263   2.905   5.369   1.545
 2235TIP3    H128264   2.996   5.398   1.557
 2235TIP3    H228265   2.897   5.292   1.601
 2236TIP3   OH228266   0.978   3.350   6.962
 2236TIP3    H128267   1.052   3.333   7.021
 2236TIP3    H228268   0.904   3.307   7.004
 2237TIP3   OH228269   2.544   4.213   6.724
 2237TIP3    H128270   2.543   4.298   6.767
 2237TIP3    H228271   2.615   4.219   6.660
 2238TIP3   OH228272   3.226   2.391   0.643
 2238TIP3    H128273   3.182   2.475   0.633
 2238TIP3    H228274   3.305   2.399   0.589
 2239TIP3   OH228275   5.230   1.168   7.920
 2239TIP3    H128276   5.271   1.083   7.900
 2239TIP3    H228277   5.246   1.221   7.842
 2240TIP3   OH228278   1.394   6.533   0.237
 2240TIP3    H128279   1.331   6.573   0.177
 2240TIP3    H228280   1.479   6.543   0.193
 2241TIP3   OH228281   4.952   3.185   6.903
 2241TIP3    H128282   4.910   3.100   6.886
 2241TIP3    H228283   5.045   3.164   6.907
 2242TIP3   OH228284   6.717   4.144   6.888
 2242TIP3    H128285   6.766   4.110   6.813
 2242TIP3    H228286   6.630   4.164   6.853
 2243TIP3   OH228287   3.962   1.820   7.425
 2243TIP3    H128288   3.868   1.822   7.442
 2243TIP3    H228289   3.985   1.912   7.410
 2244TIP3   OH228290   5.803   2.175   1.038
 2244TIP3    H128291   5.708   2.178   1.050
 2244TIP3    H228292   5.829   2.090   1.072
 2245TIP3   OH228293   4.370   6.541   7.581
 2245TIP3    H128294   4.306   6.595   7.535
 2245TIP3    H228295   4.348   6.451   7.558
 2246TIP3   OH228296   6.636   4.216   0.380
 2246TIP3    H128297   6.690   4.276   0.330
 2246TIP3    H228298   6.619   4.143   0.321
 2247TIP3   OH228299   5.150   6.109   6.784
 2247TIP3    H128300   5.098   6.164   6.726
 2247TIP3    H228301   5.085   6.057   6.832
 2248TIP3   OH228302   0.957   5.340   0.343
 2248TIP3    H128303   0.987   5.278   0.409
 2248TIP3    H228304   0.861   5.336   0.349
 2249TIP3   OH228305   5.080   1.230   7.111
 2249TIP3    H128306   5.027   1.296   7.066
 2249TIP3    H228307   5.020   1.192   7.176
 2250TIP3   OH228308   0.778   3.477   0.100
 2250TIP3    H128309   0.757   3.496   0.192
 2250TIP3    H228310   0.740   3.550   0.051
 2251TIP3   OH228311   1.382   4.608   0.105
 2251TIP3    H128312   1.394   4.691   0.152
 2251TIP3    H228313   1.464   4.561   0.120
 2252TIP3   OH228314   6.281   2.620   7.239
 2252TIP3    H128315   6.309   2.534   7.208
 2252TIP3    H228316   6.193   2.632   7.204
 2253TIP3   OH228317   1.478   3.437   1.460
 2253TIP3    H128318   1.412   3.480   1.514
 2253TIP3    H228319   1.429   3.386   1.396
 2254TIP3   OH228320   0.300   2.649   7.567
 2254TIP3    H128321   0.323   2.679   7.479
 2254TIP3    H228322   0.342   2.563   7.575
 2255TIP3   OH228323   1.264   5.761   7.350
 2255TIP3    H128324   1.216   5.840   7.323
 2255TIP3    H228325   1.351   5.772   7.311
 2256TIP3   OH228326   6.419   4.378   0.481
 2256TIP3    H128327   6.484   4.309   0.465
 2256TIP3    H228328   6.467   4.445   0.529
 2257TIP3   OH228329   5.657   5.410   1.665
 2257TIP3    H128330   5.624   5.392   1.577
 2257TIP3    H228331   5.715   5.486   1.653
 2258TIP3   OH228332   6.199   4.884   8.644
 2258TIP3    H128333   6.209   4.865   8.551
 2258TIP3    H228334   6.143   4.962   8.646
 2259TIP3   OH228335   2.852   5.878   2.054
 2259TIP3    H128336   2.776   5.921   2.014
 2259TIP3    H228337   2.825   5.788   2.068
 2260TIP3   OH228338   6.420   1.944   8.275
 2260TIP3    H128339   6.369   2.023   8.255
 2260TIP3    H228340   6.481   1.935   8.202
 2261TIP3   OH228341   6.770   0.761   1.554
 2261TIP3    H128342   6.757   0.700   1.482
 2261TIP3    H228343   6.831   0.826   1.521
 2262TIP3   OH228344   0.145   5.039   8.643
 2262TIP3    H128345   0.226   5.083   0.017
 2262TIP3    H228346   0.093   5.038   0.073
 2263TIP3   OH228347   3.102   4.889   7.054
 2263TIP3    H128348   3.140   4.913   6.969
 2263TIP3    H228349   3.178   4.866   7.108
 2264TIP3   OH228350   1.895   0.777   1.721
 2264TIP3    H128351   1.970   0.755   1.775
 2264TIP3    H228352   1.925   0.766   1.631
 2265TIP3   OH228353   3.723   3.936   6.490
 2265TIP3    H128354   3.794   3.997   6.473
 2265TIP3    H228355   3.647   3.991   6.510
 2266TIP3   OH228356   4.074   0.842   7.053
 2266TIP3    H128357   4.164   0.873   7.044
 2266TIP3    H228358   4.082   0.760   7.102
 2267TIP3   OH228359   3.238   5.773   0.995
 2267TIP3    H128360   3.278   5.686   1.000
 2267TIP3    H228361   3.228   5.800   1.087
 2268TIP3   OH228362   0.334   3.560   0.013
 2268TIP3    H128363   0.299   3.492   8.607
 2268TIP3    H228364   0.370   3.625   8.603
 2269TIP3   OH228365   0.686   0.614   8.273
 2269TIP3    H128366   0.727   0.685   8.224
 2269TIP3    H228367   0.600   0.648   8.297
 2270TIP3   OH228368   4.160   0.707   6.338
 2270TIP3    H128369   4.090   0.645   6.317
 2270TIP3    H228370   4.238   0.671   6.295
 2271TIP3   OH228371   2.393   3.399   1.655
 2271TIP3    H128372   2.439   3.356   1.727
 2271TIP3    H228373   2.461   3.449   1.610
 2272TIP3   OH228374   2.160   6.016   7.835
 2272TIP3    H128375   2.230   6.058   7.884
 2272TIP3    H228376   2.085   6.075   7.842
 2273TIP3   OH228377   1.009   0.838   8.388
 2273TIP3    H128378   1.080   0.868   8.332
 2273TIP3    H228379   1.049   0.823   8.473
 2274TIP3   OH228380   6.582   5.807   1.404
 2274TIP3    H128381   6.671   5.775   1.392
 2274TIP3    H228382   6.556   5.778   1.491
 2275TIP3   OH228383   6.152   5.660   2.220
 2275TIP3    H128384   6.097   5.724   2.176
 2275TIP3    H228385   6.094   5.586   2.239
 2276TIP3   OH228386   5.268   4.282   1.554
 2276TIP3    H128387   5.320   4.312   1.628
 2276TIP3    H228388   5.332   4.260   1.486
 2277TIP3   OH228389   4.746   3.608   0.039
 2277TIP3    H128390   4.664   3.567   0.066
 2277TIP3    H228391   4.732   3.631   8.598
 2278TIP3   OH228392   1.671   6.274   6.737
 2278TIP3    H128393   1.603   6.211   6.760
 2278TIP3    H228394   1.629   6.334   6.675
 2279TIP3   OH228395   4.763   0.314   6.448
 2279TIP3    H128396   4.719   0.266   6.378
 2279TIP3    H228397   4.756   0.406   6.423
 2280TIP3   OH228398   4.953   0.853   1.370
 2280TIP3    H128399   5.004   0.934   1.365
 2280TIP3    H228400   4.924   0.849   1.461
 2281TIP3   OH228401   2.251   0.376   0.235
 2281TIP3    H128402   2.237   0.465   0.266
 2281TIP3    H228403   2.292   0.331   0.309
 2282TIP3   OH228404   2.762   4.789   0.883
 2282TIP3    H128405   2.697   4.820   0.820
 2282TIP3    H228406   2.819   4.864   0.899
 2283TIP3   OH228407   1.383   5.555   0.153
 2283TIP3    H128408   1.333   5.543   0.234
 2283TIP3    H228409   1.404   5.649   0.151
 2284TIP3   OH228410   3.895   1.433   7.383
 2284TIP3    H128411   3.932   1.491   7.450
 2284TIP3    H228412   3.880   1.490   7.308
 2285TIP3   OH228413   4.953   3.541   8.545
 2285TIP3    H128414   4.871   3.569   8.587
 2285TIP3    H228415   4.950   3.445   8.550
 2286TIP3   OH228416   4.145   3.831   5.940
 2286TIP3    H128417   4.121   3.777   6.015
 2286TIP3    H228418   4.124   3.776   5.864
 2287TIP3   OH228419   2.732   0.179   8.565
 2287TIP3    H128420   2.765   0.260   8.604
 2287TIP3    H228421   2.685   0.136   8.637
 2288TIP3   OH228422   5.741   5.381   0.609
 2288TIP3    H128423   5.717   5.382   0.516
 2288TIP3    H228424   5.835   5.396   0.609
 2289TIP3   OH228425   2.738   3.895   8.574
 2289TIP3    H128426   2.676   3.968   8.577
 2289TIP3    H228427   2.701   3.829   8.633
 2290TIP3   OH228428   3.730   5.204   6.412
 2290TIP3    H128429   3.695   5.277   6.362
 2290TIP3    H228430   3.696   5.217   6.501
 2291TIP3   OH228431   5.722   5.632   1.402
 2291TIP3    H128432   5.631   5.612   1.381
 2291TIP3    H228433   5.769   5.550   1.384
 2292TIP3   OH228434   2.034   2.391   0.252
 2292TIP3    H128435   2.027   2.440   0.169
 2292TIP3    H228436   2.075   2.453   0.312
 2293TIP3   OH228437   5.380   0.332   0.082
 2293TIP3    H128438   5.297   0.380   0.081
 2293TIP3    H228439   5.368   0.261   0.019
 2294TIP3   OH228440   1.659   4.570   7.173
 2294TIP3    H128441   1.588   4.514   7.204
 2294TIP3    H228442   1.709   4.590   7.252
 2295TIP3   OH228443   0.809   4.855   7.253
 2295TIP3    H128444   0.808   4.883   7.161
 2295TIP3    H228445   0.901   4.861   7.279
 2296TIP3   OH228446   4.781   5.588   7.227
 2296TIP3    H128447   4.823   5.580   7.141
 2296TIP3    H228448   4.697   5.543   7.217
 2297TIP3   OH228449   5.861   3.339   8.033
 2297TIP3    H128450   5.797   3.324   7.964
 2297TIP3    H228451   5.857   3.433   8.050
 2298TIP3   OH228452   2.642   0.931   6.713
 2298TIP3    H128453   2.652   0.851   6.765
 2298TIP3    H228454   2.557   0.967   6.740
 2299TIP3   OH228455   5.333   1.548   6.437
 2299TIP3    H128456   5.305   1.631   6.476
 2299TIP3    H228457   5.263   1.526   6.375
 2300TIP3   OH228458   5.938   2.947   2.538
 2300TIP3    H128459   5.980   2.973   2.456
 2300TIP3    H228460   5.946   3.025   2.594
 2301TIP3   OH228461   0.655   4.329   1.467
 2301TIP3    H128462   0.613   4.364   1.546
 2301TIP3    H228463   0.740   4.297   1.497
 2302TIP3   OH228464   3.228   6.507   7.713
 2302TIP3    H128465   3.246   6.433   7.655
 2302TIP3    H228466   3.313   6.529   7.750
 2303TIP3   OH228467   6.843   2.354   0.388
 2303TIP3    H128468   0.037   2.405   0.351
 2303TIP3    H228469   6.861   2.350   0.481
 2304TIP3   OH228470   3.811   4.394   6.589
 2304TIP3    H128471   3.750   4.423   6.520
 2304TIP3    H228472   3.858   4.320   6.549
 2305TIP3   OH228473   5.402   5.306   8.123
 2305TIP3    H128474   5.362   5.310   8.036
 2305TIP3    H228475   5.413   5.213   8.140
 2306TIP3   OH228476   4.129   4.633   8.290
 2306TIP3    H128477   4.103   4.663   8.378
 2306TIP3    H228478   4.085   4.549   8.279
 2307TIP3   OH228479   2.984   5.615   2.309
 2307TIP3    H128480   3.017   5.526   2.296
 2307TIP3    H228481   2.892   5.602   2.335
 2308TIP3   OH228482   2.586   4.619   1.850
 2308TIP3    H128483   2.508   4.641   1.800
 2308TIP3    H228484   2.635   4.701   1.856
 2309TIP3   OH228485   2.449   1.002   6.383
 2309TIP3    H128486   2.443   0.972   6.293
 2309TIP3    H228487   2.537   0.977   6.411
 2310TIP3   OH228488   5.723   0.925   0.722
 2310TIP3    H128489   5.762   0.865   0.658
 2310TIP3    H228490   5.764   0.900   0.806
 2311TIP3   OH228491   3.327   6.681   8.602
 2311TIP3    H128492   3.298   6.622   0.021
 2311TIP3    H228493   3.422   6.690   8.616
 2312TIP3   OH228494   2.885   3.879   7.208
 2312TIP3    H128495   2.880   3.824   7.130
 2312TIP3    H228496   2.965   3.851   7.253
 2313TIP3   OH228497   2.902   4.885   1.975
 2313TIP3    H128498   2.857   4.884   1.891
 2313TIP3    H228499   2.832   4.896   2.039
 2314TIP3   OH228500   1.039   3.675   7.742
 2314TIP3    H128501   1.045   3.669   7.838
 2314TIP3    H228502   0.989   3.597   7.717
 2315TIP3   OH228503   3.477   6.142   8.463
 2315TIP3    H128504   3.522   6.066   8.501
 2315TIP3    H228505   3.541   6.213   8.466
 2316TIP3   OH228506   1.723   1.215   6.839
 2316TIP3    H128507   1.693   1.298   6.803
 2316TIP3    H228508   1.773   1.175   6.768
 2317TIP3   OH228509   6.341   3.469   7.923
 2317TIP3    H128510   6.377   3.390   7.965
 2317TIP3    H228511   6.282   3.506   7.989
 2318TIP3   OH228512   3.666   6.806   2.348
 2318TIP3    H128513   3.694   0.017   2.366
 2318TIP3    H228514   3.616   6.780   2.425
 2319TIP3   OH228515   4.361   4.191   0.344
 2319TIP3    H128516   4.387   4.203   0.252
 2319TIP3    H228517   4.347   4.097   0.353
 2320TIP3   OH228518   2.372   3.168   0.702
 2320TIP3    H128519   2.407   3.206   0.621
 2320TIP3    H228520   2.280   3.149   0.682
 2321TIP3   OH228521   1.920   4.136   7.108
 2321TIP3    H128522   1.949   4.218   7.148
 2321TIP3    H228523   2.000   4.098   7.071
 2322TIP3   OH228524   3.889   0.168   1.539
 2322TIP3    H128525   3.899   0.198   1.629
 2322TIP3    H228526   3.857   0.078   1.547
 2323TIP3   OH228527   5.888   2.237   8.612
 2323TIP3    H128528   5.889   2.184   0.041
 2323TIP3    H228529   5.970   2.286   8.614
 2324TIP3   OH228530   4.976   6.182   0.906
 2324TIP3    H128531   5.034   6.249   0.942
 2324TIP3    H228532   4.988   6.189   0.811
 2325TIP3   OH228533   6.237   0.068   0.759
 2325TIP3    H128534   6.308   0.019   0.717
 2325TIP3    H228535   6.268   0.085   0.848
 2326TIP3   OH228536   0.196   5.855   7.236
 2326TIP3    H128537   0.203   5.924   7.171
 2326TIP3    H228538   0.201   5.774   7.186
 2327TIP3   OH228539   6.035   2.636   1.080
 2327TIP3    H128540   6.021   2.656   0.988
 2327TIP3    H228541   5.980   2.698   1.127
 2328TIP3   OH228542   4.908   5.394   7.488
 2328TIP3    H128543   4.827   5.410   7.537
 2328TIP3    H228544   4.879   5.379   7.398
 2329TIP3   OH228545   2.297   5.166   7.587
 2329TIP3    H128546   2.228   5.223   7.618
 2329TIP3    H228547   2.312   5.193   7.496
 2330TIP3   OH228548   5.339   4.561   7.546
 2330TIP3    H128549   5.366   4.503   7.475
 2330TIP3    H228550   5.407   4.629   7.549
 2331TIP3   OH228551   0.743   6.500   7.678
 2331TIP3    H128552   0.823   6.544   7.706
 2331TIP3    H228553   0.690   6.494   7.757
 2332TIP3   OH228554   1.237   6.337   7.678
 2332TIP3    H128555   1.187   6.257   7.660
 2332TIP3    H228556   1.327   6.314   7.653
 2333TIP3   OH228557   4.935   2.780   0.178
 2333TIP3    H128558   4.917   2.687   0.164
 2333TIP3    H228559   4.906   2.797   0.267
 2334TIP3   OH228560   5.648   4.901   7.059
 2334TIP3    H128561   5.561   4.898   7.020
 2334TIP3    H228562   5.705   4.932   6.988
 2335TIP3   OH228563   0.647   1.529   0.249
 2335TIP3    H128564   0.699   1.594   0.202
 2335TIP3    H228565   0.624   1.464   0.183
 2336TIP3   OH228566   3.738   3.070   7.805
 2336TIP3    H128567   3.645   3.063   7.784
 2336TIP3    H228568   3.757   2.991   7.856
 2337TIP3   OH228569   3.566   6.320   7.913
 2337TIP3    H128570   3.572   6.242   7.858
 2337TIP3    H228571   3.649   6.365   7.900
 2338TIP3   OH228572   6.752   1.624   7.490
 2338TIP3    H128573   6.726   1.563   7.421
 2338TIP3    H228574   6.803   1.691   7.445
 2339TIP3   OH228575   4.791   3.563   7.550
 2339TIP3    H128576   4.836   3.639   7.513
 2339TIP3    H228577   4.752   3.596   7.631
 2340TIP3   OH228578   5.904   5.659   7.705
 2340TIP3    H128579   5.968   5.667   7.776
 2340TIP3    H228580   5.843   5.732   7.719
 2341TIP3   OH228581   1.596   6.062   0.814
 2341TIP3    H128582   1.547   6.136   0.779
 2341TIP3    H228583   1.599   6.077   0.909
 2342TIP3   OH228584   2.397   3.073   7.537
 2342TIP3    H128585   2.369   3.011   7.604
 2342TIP3    H228586   2.325   3.076   7.475
 2343TIP3   OH228587   6.372   0.771   0.857
 2343TIP3    H128588   6.438   0.795   0.921
 2343TIP3    H228589   6.422   0.742   0.781
 2344TIP3   OH228590   4.810   5.195   7.254
 2344TIP3    H128591   4.881   5.211   7.192
 2344TIP3    H228592   4.744   5.261   7.233
 2345TIP3   OH228593   3.217   0.256   1.401
 2345TIP3    H128594   3.202   0.194   1.472
 2345TIP3    H228595   3.181   0.214   1.323
 2346TIP3   OH228596   0.516   1.720   7.460
 2346TIP3    H128597   0.529   1.701   7.553
 2346TIP3    H228598   0.528   1.636   7.416
 2347TIP3   OH228599   3.028   4.921   6.377
 2347TIP3    H128600   3.078   4.956   6.303
 2347TIP3    H228601   3.061   4.968   6.453
 2348TIP3   OH228602   1.690   0.889   0.978
 2348TIP3    H128603   1.716   0.809   0.932
 2348TIP3    H228604   1.746   0.892   1.055
 2349TIP3   OH228605   2.140   4.808   6.827
 2349TIP3    H128606   2.189   4.726   6.837
 2349TIP3    H228607   2.206   4.876   6.829
 2350TIP3   OH228608   1.362   4.825   7.796
 2350TIP3    H128609   1.280   4.830   7.746
 2350TIP3    H228610   1.418   4.891   7.755
 2351TIP3   OH228611   6.103   5.364   0.115
 2351TIP3    H128612   6.143   5.334   0.033
 2351TIP3    H228613   6.122   5.295   0.178
 2352TIP3   OH228614   1.199   2.029   1.858
 2352TIP3    H128615   1.110   1.996   1.850
 2352TIP3    H228616   1.255   1.952   1.850
 2353TIP3   OH228617   3.118   0.528   8.257
 2353TIP3    H128618   3.076   0.491   8.180
 2353TIP3    H228619   3.082   0.477   8.330
 2354TIP3   OH228620   3.367   0.264   7.842
 2354TIP3    H128621   3.423   0.310   7.905
 2354TIP3    H228622   3.417   0.186   7.818
 2355TIP3   OH228623   3.125   5.167   0.616
 2355TIP3    H128624   3.173   5.243   0.583
 2355TIP3    H228625   3.036   5.200   0.631
 2356TIP3   OH228626   6.050   1.537   6.894
 2356TIP3    H128627   6.112   1.524   6.823
 2356TIP3    H228628   5.968   1.498   6.861
 2357TIP3   OH228629   5.234   1.003   6.970
 2357TIP3    H128630   5.172   1.056   7.020
 2357TIP3    H228631   5.226   0.915   7.008
 2358TIP3   OH228632   1.990   1.072   7.254
 2358TIP3    H128633   2.001   1.109   7.166
 2358TIP3    H228634   2.020   1.141   7.313
 2359TIP3   OH228635   1.248   4.020   7.729
 2359TIP3    H128636   1.208   3.958   7.668
 2359TIP3    H228637   1.334   3.984   7.747
 2360TIP3   OH228638   1.906   3.105   7.326
 2360TIP3    H128639   1.933   3.195   7.346
 2360TIP3    H228640   1.988   3.054   7.330
 2361TIP3   OH228641   3.435   2.573   0.865
 2361TIP3    H128642   3.428   2.624   0.947
 2361TIP3    H228643   3.384   2.494   0.882
 2362TIP3   OH228644   6.380   5.627   2.745
 2362TIP3    H128645   6.393   5.542   2.787
 2362TIP3    H228646   6.394   5.610   2.652
 2363TIP3   OH228647   2.830   1.267   6.172
 2363TIP3    H128648   2.809   1.335   6.108
 2363TIP3    H228649   2.865   1.315   6.248
 2364TIP3   OH228650   6.218   6.227   0.751
 2364TIP3    H128651   6.141   6.231   0.808
 2364TIP3    H228652   6.182   6.206   0.665
 2365TIP3   OH228653   3.264   6.853   0.577
 2365TIP3    H128654   3.323   0.004   0.507
 2365TIP3    H228655   3.247   0.055   0.628
 2366TIP3   OH228656   6.017   5.905   2.305
 2366TIP3    H128657   5.922   5.915   2.318
 2366TIP3    H228658   6.051   5.882   2.391
 2367TIP3   OH228659   2.996   0.339   6.090
 2367TIP3    H128660   3.026   0.257   6.050
 2367TIP3    H228661   2.919   0.363   6.039
 2368TIP3   OH228662   4.247   1.898   1.704
 2368TIP3    H128663   4.293   1.814   1.704
 2368TIP3    H228664   4.276   1.942   1.624
 2369TIP3   OH228665   1.091   4.039   0.778
 2369TIP3    H128666   1.031   4.109   0.750
 2369TIP3    H228667   1.038   3.960   0.773
 2370TIP3   OH228668   2.255   5.959   7.110
 2370TIP3    H128669   2.162   5.974   7.126
 2370TIP3    H228670   2.298   5.983   7.192
 2371TIP3   OH228671   2.661   5.548   7.787
 2371TIP3    H128672   2.721   5.474   7.778
 2371TIP3    H228673   2.579   5.517   7.749
 2372TIP3   OH228674   5.627   2.109   8.143
 2372TIP3    H128675   5.538   2.136   8.166
 2372TIP3    H228676   5.660   2.064   8.220
 2373TIP3   OH228677   0.344   5.740   0.317
 2373TIP3    H128678   0.333   5.818   0.262
 2373TIP3    H228679   0.411   5.765   0.380
 2374TIP3   OH228680   3.717   3.580   1.425
 2374TIP3    H128681   3.671   3.496   1.419
 2374TIP3    H228682   3.730   3.593   1.519
 2375TIP3   OH228683   0.921   1.510   0.426
 2375TIP3    H128684   0.932   1.576   0.358
 2375TIP3    H228685   0.960   1.550   0.504
 2376TIP3   OH228686   3.578   6.186   7.413
 2376TIP3    H128687   3.516   6.249   7.378
 2376TIP3    H228688   3.658   6.237   7.427
 2377TIP3   OH228689   2.116   0.834   2.225
 2377TIP3    H128690   2.032   0.829   2.180
 2377TIP3    H228691   2.102   0.896   2.296
 2378TIP3   OH228692   5.519   5.040   7.630
 2378TIP3    H128693   5.454   5.110   7.623
 2378TIP3    H228694   5.600   5.078   7.596
 2379TIP3   OH228695   1.368   3.877   6.312
 2379TIP3    H128696   1.412   3.810   6.364
 2379TIP3    H228697   1.366   3.841   6.223
 2380TIP3   OH228698   6.015   4.052   0.250
 2380TIP3    H128699   6.073   4.098   0.311
 2380TIP3    H228700   5.969   4.122   0.203
 2381TIP3   OH228701   6.097   3.303   1.025
 2381TIP3    H128702   6.123   3.395   1.025
 2381TIP3    H228703   6.107   3.275   0.934
 2382TIP3   OH228704   0.701   0.148   7.455
 2382TIP3    H128705   0.619   0.193   7.478
 2382TIP3    H228706   0.756   0.159   7.533
 2383TIP3   OH228707   1.975   0.332   0.756
 2383TIP3    H128708   2.062   0.344   0.718
 2383TIP3    H228709   1.950   0.243   0.732
 2384TIP3   OH228710   3.419   4.614   2.244
 2384TIP3    H128711   3.395   4.581   2.157
 2384TIP3    H228712   3.500   4.568   2.265
 2385TIP3   OH228713   0.603   2.793   8.598
 2385TIP3    H128714   0.507   2.795   8.591
 2385TIP3    H228715   0.633   2.788   8.507
 2386TIP3   OH228716   4.388   2.245   0.666
 2386TIP3    H128717   4.350   2.159   0.676
 2386TIP3    H228718   4.380   2.264   0.572
 2387TIP3   OH228719   2.794   2.383   7.853
 2387TIP3    H128720   2.740   2.321   7.901
 2387TIP3    H228721   2.801   2.459   7.911
 2388TIP3   OH228722   1.949   0.280   1.561
 2388TIP3    H128723   1.912   0.224   1.629
 2388TIP3    H228724   1.875   0.332   1.529
 2389TIP3   OH228725   0.818   4.685   6.877
 2389TIP3    H128726   0.740   4.631   6.886
 2389TIP3    H228727   0.861   4.652   6.798
 2390TIP3   OH228728   1.180   2.878   8.052
 2390TIP3    H128729   1.121   2.826   8.107
 2390TIP3    H228730   1.201   2.821   7.978
 2391TIP3   OH228731   0.584   1.848   0.443
 2391TIP3    H128732   0.666   1.799   0.453
 2391TIP3    H228733   0.611   1.938   0.428
 2392TIP3   OH228734   3.271   0.580   7.975
 2392TIP3    H128735   3.197   0.520   7.971
 2392TIP3    H228736   3.310   0.566   8.061
 2393TIP3   OH228737   3.625   2.795   0.548
 2393TIP3    H128738   3.707   2.841   0.568
 2393TIP3    H228739   3.559   2.864   0.546
 2394TIP3   OH228740   1.083   2.833   1.406
 2394TIP3    H128741   1.025   2.758   1.395
 2394TIP3    H228742   1.047   2.901   1.350
 2395TIP3   OH228743   6.538   5.926   6.844
 2395TIP3    H128744   6.623   5.970   6.836
 2395TIP3    H228745   6.513   5.908   6.753
 2396TIP3   OH228746   2.925   4.736   1.238
 2396TIP3    H128747   2.868   4.812   1.253
 2396TIP3    H228748   3.010   4.774   1.218
 2397TIP3   OH228749   1.633   3.323   0.885
 2397TIP3    H128750   1.701   3.345   0.950
 2397TIP3    H228751   1.560   3.289   0.937
 2398TIP3   OH228752   1.479   4.886   7.248
 2398TIP3    H128753   1.545   4.955   7.241
 2398TIP3    H228754   1.438   4.883   7.162
 2399TIP3   OH228755   0.822   4.296   2.245
 2399TIP3    H128756   0.736   4.253   2.242
 2399TIP3    H228757   0.807   4.376   2.295
 2400TIP3   OH228758   6.273   5.447   0.472
 2400TIP3    H128759   6.218   5.427   0.547
 2400TIP3    H228760   6.256   5.377   0.409
 2401TIP3   OH228761   2.000   0.517   6.920
 2401TIP3    H128762   1.914   0.532   6.880
 2401TIP3    H228763   2.062   0.550   6.855
 2402TIP3   OH228764   1.620   0.248   1.643
 2402TIP3    H128765   1.680   0.194   1.694
 2402TIP3    H228766   1.676   0.313   1.600
 2403TIP3   OH228767   4.831   1.985   0.342
 2403TIP3    H128768   4.801   1.971   0.252
 2403TIP3    H228769   4.896   1.916   0.356
 2404TIP3   OH228770   4.743   0.825   1.865
 2404TIP3    H128771   4.731   0.864   1.778
 2404TIP3    H228772   4.658   0.837   1.908
 2405TIP3   OH228773   2.219   5.175   0.722
 2405TIP3    H128774   2.159   5.131   0.662
 2405TIP3    H228775   2.189   5.266   0.723
 2406TIP3   OH228776   4.807   5.682   8.277
 2406TIP3    H128777   4.742   5.635   8.224
 2406TIP3    H228778   4.876   5.618   8.291
 2407TIP3   OH228779   4.295   2.831   7.388
 2407TIP3    H128780   4.334   2.750   7.353
 2407TIP3    H228781   4.360   2.899   7.369
 2408TIP3   OH228782   1.775   3.667   7.234
 2408TIP3    H128783   1.741   3.682   7.322
 2408TIP3    H228784   1.734   3.734   7.180
 2409TIP3   OH228785   3.686   2.192   0.476
 2409TIP3    H128786   3.686   2.103   0.443
 2409TIP3    H228787   3.758   2.195   0.539
 2410TIP3   OH228788   3.825   0.740   0.889
 2410TIP3    H128789   3.738   0.701   0.879
 2410TIP3    H228790   3.814   0.808   0.955
 2411TIP3   OH228791   6.697   5.723   8.136
 2411TIP3    H128792   6.737   5.693   8.054
 2411TIP3    H228793   6.604   5.704   8.124
 2412TIP3   OH228794   4.874   4.788   7.479
 2412TIP3    H128795   4.885   4.801   7.573
 2412TIP3    H228796   4.943   4.726   7.455
 2413TIP3   OH228797   1.342   6.321   7.377
 2413TIP3    H128798   1.254   6.286   7.392
 2413TIP3    H228799   1.340   6.353   7.287
 2414TIP3   OH228800   4.021   6.857   0.099
 2414TIP3    H128801   4.107   6.872   0.136
 2414TIP3    H228802   4.029   6.772   0.056
 2415TIP3   OH228803   0.846   2.088   8.274
 2415TIP3    H128804   0.922   2.115   8.326
 2415TIP3    H228805   0.844   2.150   8.201
 2416TIP3   OH228806   1.353   2.027   6.637
 2416TIP3    H128807   1.439   2.049   6.601
 2416TIP3    H228808   1.367   2.024   6.732
 2417TIP3   OH228809   0.513   5.413   8.137
 2417TIP3    H128810   0.421   5.430   8.158
 2417TIP3    H228811   0.552   5.500   8.128
 2418TIP3   OH228812   6.139   0.908   6.931
 2418TIP3    H128813   6.060   0.864   6.961
 2418TIP3    H228814   6.107   0.983   6.881
 2419TIP3   OH228815   3.556   6.423   8.397
 2419TIP3    H128816   3.579   6.513   8.375
 2419TIP3    H228817   3.626   6.394   8.455
 2420TIP3   OH228818   4.120   2.414   8.215
 2420TIP3    H128819   4.046   2.392   8.271
 2420TIP3    H228820   4.187   2.447   8.275
 2421TIP3   OH228821   5.110   6.556   1.779
 2421TIP3    H128822   5.186   6.516   1.821
 2421TIP3    H228823   5.040   6.548   1.843
 2422TIP3   OH228824   4.377   0.544   6.894
 2422TIP3    H128825   4.448   0.550   6.957
 2422TIP3    H228826   4.418   0.562   6.809
 2423TIP3   OH228827   0.480   5.869   1.296
 2423TIP3    H128828   0.539   5.811   1.247
 2423TIP3    H228829   0.489   5.842   1.387
 2424TIP3   OH228830   0.889   6.452   0.719
 2424TIP3    H128831   0.924   6.503   0.646
 2424TIP3    H228832   0.849   6.517   0.777
 2425TIP3   OH228833   3.407   1.991   8.160
 2425TIP3    H128834   3.416   1.901   8.127
 2425TIP3    H228835   3.347   2.033   8.098
 2426TIP3   OH228836   1.703   1.123   0.645
 2426TIP3    H128837   1.641   1.073   0.593
 2426TIP3    H228838   1.765   1.058   0.678
 2427TIP3   OH228839   4.125   2.252   7.130
 2427TIP3    H128840   4.055   2.263   7.066
 2427TIP3    H228841   4.197   2.305   7.096
 2428TIP3   OH228842   0.385   4.153   1.114
 2428TIP3    H128843   0.392   4.077   1.171
 2428TIP3    H228844   0.293   4.155   1.088
 2429TIP3   OH228845   3.204   0.001   0.154
 2429TIP3    H128846   3.201   6.863   0.060
 2429TIP3    H228847   3.153   0.081   0.167
 2430TIP3   OH228848   1.924   1.875   0.627
 2430TIP3    H128849   1.942   1.814   0.699
 2430TIP3    H228850   1.854   1.833   0.577
 2431TIP3   OH228851   5.323   2.704   0.143
 2431TIP3    H128852   5.284   2.783   0.106
 2431TIP3    H228853   5.276   2.632   0.099
 2432TIP3   OH228854   5.697   4.270   0.326
 2432TIP3    H128855   5.742   4.344   0.285
 2432TIP3    H228856   5.698   4.202   0.260
 2433TIP3   OH228857   2.255   2.485   8.067
 2433TIP3    H128858   2.297   2.448   7.990
 2433TIP3    H228859   2.168   2.445   8.069
 2434TIP3   OH228860   5.218   3.097   0.283
 2434TIP3    H128861   5.247   3.083   0.193
 2434TIP3    H228862   5.122   3.102   0.277
 2435TIP3   OH228863   3.565   6.605   2.543
 2435TIP3    H128864   3.519   6.529   2.579
 2435TIP3    H228865   3.657   6.580   2.546
 2436TIP3   OH228866   2.766   6.587   7.308
 2436TIP3    H128867   2.718   6.621   7.383
 2436TIP3    H228868   2.789   6.497   7.333
 2437TIP3   OH228869   2.365   4.387   1.612
 2437TIP3    H128870   2.359   4.467   1.663
 2437TIP3    H228871   2.281   4.343   1.626
 2438TIP3   OH228872   4.012   4.441   0.812
 2438TIP3    H128873   3.960   4.440   0.892
 2438TIP3    H228874   4.048   4.353   0.806
 2439TIP3   OH228875   0.099   4.154   1.113
 2439TIP3    H128876   0.079   4.213   1.187
 2439TIP3    H228877   0.068   4.068   1.142
 2440TIP3   OH228878   1.110   0.498   6.725
 2440TIP3    H128879   1.110   0.530   6.815
 2440TIP3    H228880   1.132   0.575   6.672
 2441TIP3   OH228881   1.623   6.031   2.269
 2441TIP3    H128882   1.612   6.103   2.331
 2441TIP3    H228883   1.677   5.967   2.316
 2442TIP3   OH228884   0.515   4.092   0.032
 2442TIP3    H128885   0.569   4.019   0.062
 2442TIP3    H228886   0.578   4.158   0.003
 2443TIP3   OH228887   3.285   3.568   7.258
 2443TIP3    H128888   3.345   3.586   7.185
 2443TIP3    H228889   3.331   3.602   7.335
 2444TIP3   OH228890   3.334   0.932   7.521
 2444TIP3    H128891   3.411   0.892   7.481
 2444TIP3    H228892   3.348   0.924   7.615
 2445TIP3   OH228893   3.764   0.924   0.231
 2445TIP3    H128894   3.822   0.850   0.250
 2445TIP3    H228895   3.737   0.955   0.318
 2446TIP3   OH228896   0.892   0.145   1.426
 2446TIP3    H128897   0.924   0.057   1.446
 2446TIP3    H228898   0.937   0.202   1.488
 2447TIP3   OH228899   5.062   0.075   0.040
 2447TIP3    H128900   5.157   0.077   0.039
 2447TIP3    H228901   5.039   0.086   0.132
 2448TIP3   OH228902   6.685   4.095   2.365
 2448TIP3    H128903   6.697   4.097   2.270
 2448TIP3    H228904   6.625   4.168   2.383
 2449TIP3   OH228905   2.828   3.685   6.023
 2449TIP3    H128906   2.908   3.712   5.979
 2449TIP3    H228907   2.764   3.752   5.999
 2450TIP3   OH228908   4.997   2.089   0.567
 2450TIP3    H128909   4.922   2.146   0.547
 2450TIP3    H228910   5.074   2.141   0.545
 2451TIP3   OH228911   1.910   1.764   2.046
 2451TIP3    H128912   1.951   1.679   2.063
 2451TIP3    H228913   1.878   1.758   1.956
 2452TIP3   OH228914   4.394   3.976   1.447
 2452TIP3    H128915   4.350   3.900   1.485
 2452TIP3    H228916   4.362   3.979   1.356
 2453TIP3   OH228917   4.447   4.814   7.310
 2453TIP3    H128918   4.534   4.843   7.281
 2453TIP3    H228919   4.448   4.828   7.405
 2454TIP3   OH228920   3.628   6.008   7.887
 2454TIP3    H128921   3.671   6.006   7.802
 2454TIP3    H228922   3.546   5.960   7.873
 2455TIP3   OH228923   6.234   3.329   2.606
 2455TIP3    H128924   6.264   3.391   2.540
 2455TIP3    H228925   6.266   3.244   2.576
 2456TIP3   OH228926   6.561   0.813   1.040
 2456TIP3    H128927   6.621   0.740   1.053
 2456TIP3    H228928   6.615   0.891   1.052
 2457TIP3   OH228929   4.842   6.233   7.014
 2457TIP3    H128930   4.766   6.274   7.056
 2457TIP3    H228931   4.806   6.191   6.936
 2458TIP3   OH228932   0.870   2.160   7.098
 2458TIP3    H128933   0.956   2.200   7.115
 2458TIP3    H228934   0.850   2.183   7.008
 2459TIP3   OH228935   2.655   3.519   1.212
 2459TIP3    H128936   2.742   3.479   1.208
 2459TIP3    H228937   2.644   3.542   1.304
 2460TIP3   OH228938   5.819   6.326   8.510
 2460TIP3    H128939   5.866   6.318   8.593
 2460TIP3    H228940   5.862   6.398   8.464
 2461TIP3   OH228941   6.355   0.167   0.037
 2461TIP3    H128942   6.359   0.177   0.132
 2461TIP3    H228943   6.319   0.251   0.006
 2462TIP3   OH228944   2.972   1.144   1.513
 2462TIP3    H128945   3.030   1.159   1.587
 2462TIP3    H228946   3.030   1.134   1.438
 2463TIP3   OH228947   4.111   0.315   1.462
 2463TIP3    H128948   4.057   0.236   1.455
 2463TIP3    H228949   4.048   0.386   1.476
 2464TIP3   OH228950   4.229   6.182   6.560
 2464TIP3    H128951   4.170   6.243   6.517
 2464TIP3    H228952   4.315   6.201   6.521
 2465TIP3   OH228953   0.663   5.162   7.885
 2465TIP3    H128954   0.646   5.113   7.965
 2465TIP3    H228955   0.749   5.201   7.898
 2466TIP3   OH228956   2.183   0.433   1.731
 2466TIP3    H128957   2.239   0.474   1.665
 2466TIP3    H228958   2.102   0.413   1.685
 2467TIP3   OH228959   6.816   0.274   1.562
 2467TIP3    H128960   6.849   0.238   1.480
 2467TIP3    H228961   6.765   0.203   1.601
 2468TIP3   OH228962   6.756   1.996   0.524
 2468TIP3    H128963   6.784   1.907   0.545
 2468TIP3    H228964   6.837   2.042   0.502
 2469TIP3   OH228965   0.077   0.200   0.632
 2469TIP3    H128966   0.044   0.187   0.721
 2469TIP3    H228967   0.112   0.115   0.607
 2470TIP3   OH228968   0.309   6.055   0.464
 2470TIP3    H128969   0.277   6.053   0.374
 2470TIP3    H228970   0.297   6.146   0.492
 2471TIP3   OH228971   5.767   4.355   1.048
 2471TIP3    H128972   5.855   4.319   1.040
 2471TIP3    H228973   5.755   4.409   0.969
 2472TIP3   OH228974   0.700   3.078   1.129
 2472TIP3    H128975   0.770   3.098   1.067
 2472TIP3    H228976   0.705   2.984   1.143
 2473TIP3   OH228977   1.905   0.819   7.039
 2473TIP3    H128978   1.921   0.728   7.064
 2473TIP3    H228979   1.810   0.824   7.028
 2474TIP3   OH228980   2.276   1.038   1.030
 2474TIP3    H128981   2.276   1.092   0.951
 2474TIP3    H228982   2.303   1.098   1.100
 2475TIP3   OH228983   5.511   0.980   7.319
 2475TIP3    H128984   5.441   1.040   7.344
 2475TIP3    H228985   5.545   0.947   7.402
 2476TIP3   OH228986   5.318   2.826   0.700
 2476TIP3    H128987   5.244   2.835   0.760
 2476TIP3    H228988   5.393   2.810   0.758
 2477TIP3   OH228989   6.265   3.932   0.641
 2477TIP3    H128990   6.340   3.874   0.651
 2477TIP3    H228991   6.272   3.994   0.714
 2478TIP3   OH228992   1.794   6.443   7.465
 2478TIP3    H128993   1.847   6.465   7.389
 2478TIP3    H228994   1.705   6.469   7.441
 2479TIP3   OH228995   4.879   6.809   6.312
 2479TIP3    H128996   4.811   6.771   6.368
 2479TIP3    H228997   4.960   6.766   6.340
 2480TIP3   OH228998   4.501   2.152   0.256
 2480TIP3    H128999   4.493   2.146   0.161
 2480TIP3    H229000   4.482   2.064   0.287
 2481TIP3   OH229001   1.543   0.959   8.188
 2481TIP3    H129002   1.501   0.947   8.273
 2481TIP3    H229003   1.616   1.019   8.205
 2482TIP3   OH229004   1.393   2.125   6.887
 2482TIP3    H129005   1.437   2.199   6.845
 2482TIP3    H229006   1.420   2.130   6.979
 2483TIP3   OH229007   2.490   4.599   0.783
 2483TIP3    H129008   2.472   4.637   0.697
 2483TIP3    H229009   2.575   4.556   0.773
 2484TIP3   OH229010   6.781   2.295   7.157
 2484TIP3    H129011   6.789   2.363   7.090
 2484TIP3    H229012   6.772   2.214   7.106
 2485TIP3   OH229013   4.183   1.793   0.048
 2485TIP3    H129014   4.126   1.830   0.115
 2485TIP3    H229015   4.126   1.779   8.624
 2486TIP3   OH229016   3.355   1.800   1.079
 2486TIP3    H129017   3.260   1.802   1.065
 2486TIP3    H229018   3.382   1.891   1.072
 2487TIP3   OH229019   3.160   5.826   0.557
 2487TIP3    H129020   3.141   5.920   0.566
 2487TIP3    H229021   3.242   5.823   0.508
 2488TIP3   OH229022   6.654   4.129   0.996
 2488TIP3    H129023   6.653   4.042   0.957
 2488TIP3    H229024   6.747   4.150   1.007
 2489TIP3   OH229025   6.353   3.192   0.557
 2489TIP3    H129026   6.268   3.233   0.575
 2489TIP3    H229027   6.375   3.219   0.468
 2490TIP3   OH229028   6.449   4.355   7.549
 2490TIP3    H129029   6.540   4.380   7.567
 2490TIP3    H229030   6.417   4.424   7.490
 2491TIP3   OH229031   3.913   4.519   7.849
 2491TIP3    H129032   3.921   4.444   7.909
 2491TIP3    H229033   3.821   4.519   7.823
 2492TIP3   OH229034   4.289   5.210   2.334
 2492TIP3    H129035   4.230   5.136   2.319
 2492TIP3    H229036   4.309   5.242   2.246
 2493TIP3   OH229037   5.656   0.531   6.400
 2493TIP3    H129038   5.672   0.472   6.474
 2493TIP3    H229039   5.569   0.567   6.416
 2494TIP3   OH229040   2.209   3.640   1.528
 2494TIP3    H129041   2.285   3.692   1.555
 2494TIP3    H229042   2.155   3.702   1.477
 2495TIP3   OH229043   4.362   6.475   1.800
 2495TIP3    H129044   4.273   6.507   1.814
 2495TIP3    H229045   4.364   6.450   1.707
 2496TIP3   OH229046   4.233   3.253   6.827
 2496TIP3    H129047   4.153   3.291   6.791
 2496TIP3    H229048   4.231   3.276   6.920
 2497TIP3   OH229049   0.417   3.301   8.457
 2497TIP3    H129050   0.457   3.272   8.375
 2497TIP3    H229051   0.446   3.236   8.522
 2498TIP3   OH229052   2.784   3.233   1.605
 2498TIP3    H129053   2.865   3.214   1.558
 2498TIP3    H229054   2.779   3.329   1.608
 2499TIP3   OH229055   6.148   3.309   6.902
 2499TIP3    H129056   6.158   3.313   6.997
 2499TIP3    H229057   6.191   3.388   6.870
 2500TIP3   OH229058   6.020   3.627   0.226
 2500TIP3    H129059   6.001   3.698   0.287
 2500TIP3    H229060   5.938   3.613   0.180
 2501TIP3   OH229061   4.838   3.481   7.077
 2501TIP3    H129062   4.831   3.574   7.098
 2501TIP3    H229063   4.765   3.465   7.017
 2502TIP3   OH229064   0.545   6.318   2.088
 2502TIP3    H129065   0.518   6.394   2.140
 2502TIP3    H229066   0.618   6.280   2.137
 2503TIP3   OH229067   5.377   6.659   7.661
 2503TIP3    H129068   5.395   6.567   7.683
 2503TIP3    H229069   5.464   6.699   7.657
 2504TIP3   OH229070   2.135   2.467   2.139
 2504TIP3    H129071   2.222   2.506   2.129
 2504TIP3    H229072   2.116   2.474   2.232
 2505TIP3   OH229073   6.695   1.365   1.463
 2505TIP3    H129074   6.765   1.321   1.512
 2505TIP3    H229075   6.736   1.391   1.381
 2506TIP3   OH229076   6.240   3.607   6.406
 2506TIP3    H129077   6.292   3.530   6.383
 2506TIP3    H229078   6.225   3.652   6.323
 2507TIP3   OH229079   1.224   6.002   0.729
 2507TIP3    H129080   1.139   6.037   0.753
 2507TIP3    H229081   1.276   6.079   0.706
 2508TIP3   OH229082   4.348   6.229   7.102
 2508TIP3    H129083   4.359   6.144   7.058
 2508TIP3    H229084   4.307   6.285   7.035
 2509TIP3   OH229085   0.639   0.720   0.622
 2509TIP3    H129086   0.577   0.793   0.630
 2509TIP3    H229087   0.674   0.709   0.711
 2510TIP3   OH229088   1.890   0.914   0.713
 2510TIP3    H129089   1.963   0.921   0.774
 2510TIP3    H229090   1.835   0.844   0.748
 2511TIP3   OH229091   2.075   0.793   8.464
 2511TIP3    H129092   2.050   0.884   8.476
 2511TIP3    H229093   2.160   0.785   8.508
 2512TIP3   OH229094   3.993   1.883   0.274
 2512TIP3    H129095   3.971   1.975   0.293
 2512TIP3    H229096   4.088   1.879   0.283
 2513TIP3   OH229097   1.655   5.967   8.102
 2513TIP3    H129098   1.636   5.977   8.009
 2513TIP3    H229099   1.596   5.897   8.131
 2514TIP3   OH229100   1.968   6.004   1.783
 2514TIP3    H129101   1.989   6.093   1.813
 2514TIP3    H229102   2.049   5.955   1.793
 2515TIP3   OH229103   6.673   1.244   7.686
 2515TIP3    H129104   6.679   1.280   7.598
 2515TIP3    H229105   6.698   1.317   7.743
 2516TIP3   OH229106   2.006   2.112   0.248
 2516TIP3    H129107   1.915   2.112   0.278
 2516TIP3    H229108   2.037   2.201   0.264
 2517TIP3   OH229109   2.505   3.930   7.556
 2517TIP3    H129110   2.542   3.937   7.468
 2517TIP3    H229111   2.412   3.952   7.545
 2518TIP3   OH229112   5.074   6.034   0.114
 2518TIP3    H129113   5.131   6.110   0.106
 2518TIP3    H229114   5.123   5.963   0.073
 2519TIP3   OH229115   4.816   2.705   1.152
 2519TIP3    H129116   4.784   2.656   1.228
 2519TIP3    H229117   4.861   2.780   1.190
 2520TIP3   OH229118   2.891   0.467   0.235
 2520TIP3    H129119   2.920   0.537   0.294
 2520TIP3    H229120   2.857   0.400   0.294
 2521TIP3   OH229121   2.104   5.033   1.759
 2521TIP3    H129122   2.181   4.984   1.734
 2521TIP3    H229123   2.115   5.049   1.852
 2522TIP3   OH229124   3.044   5.780   0.234
 2522TIP3    H129125   3.132   5.798   0.269
 2522TIP3    H229126   2.986   5.792   0.309
 2523TIP3   OH229127   2.184   5.994   2.375
 2523TIP3    H129128   2.209   5.963   2.288
 2523TIP3    H229129   2.259   5.975   2.430
 2524TIP3   OH229130   4.007   4.019   7.261
 2524TIP3    H129131   4.098   4.046   7.251
 2524TIP3    H229132   3.972   4.020   7.172
 2525TIP3   OH229133   1.877   1.274   0.487
 2525TIP3    H129134   1.836   1.278   0.401
 2525TIP3    H229135   1.807   1.244   0.545
 2526TIP3   OH229136   3.773   2.029   1.728
 2526TIP3    H129137   3.734   2.111   1.758
 2526TIP3    H229138   3.782   1.976   1.807
 2527TIP3   OH229139   0.933   5.789   1.409
 2527TIP3    H129140   0.992   5.825   1.342
 2527TIP3    H229141   0.990   5.739   1.467
 2528TIP3   OH229142   0.414   0.250   2.201
 2528TIP3    H129143   0.359   0.177   2.231
 2528TIP3    H229144   0.353   0.324   2.193
 2529TIP3   OH229145   4.802   3.675   6.447
 2529TIP3    H129146   4.798   3.580   6.438
 2529TIP3    H229147   4.896   3.695   6.453
 2530TIP3   OH229148   5.623   0.348   8.474
 2530TIP3    H129149   5.583   0.327   8.390
 2530TIP3    H229150   5.716   0.357   8.455
 2531TIP3   OH229151   1.482   1.079   1.636
 2531TIP3    H129152   1.450   1.102   1.723
 2531TIP3    H229153   1.403   1.074   1.582
 2532TIP3   OH229154   2.270   4.656   7.484
 2532TIP3    H129155   2.283   4.686   7.394
 2532TIP3    H229156   2.255   4.562   7.476
 2533TIP3   OH229157   2.704   1.916   1.289
 2533TIP3    H129158   2.709   1.879   1.201
 2533TIP3    H229159   2.782   1.970   1.297
 2534TIP3   OH229160   5.227   0.730   7.822
 2534TIP3    H129161   5.287   0.676   7.771
 2534TIP3    H229162   5.283   0.794   7.866
 2535TIP3   OH229163   4.006   1.607   0.600
 2535TIP3    H129164   3.967   1.599   0.513
 2535TIP3    H229165   4.083   1.663   0.587
 2536TIP3   OH229166   5.101   1.900   1.376
 2536TIP3    H129167   5.134   1.872   1.461
 2536TIP3    H229168   5.006   1.894   1.384
 2537TIP3   OH229169   5.217   4.215   7.733
 2537TIP3    H129170   5.270   4.288   7.763
 2537TIP3    H229171   5.200   4.164   7.813
 2538TIP3   OH229172   0.582   6.198   8.023
 2538TIP3    H129173   0.668   6.229   8.054
 2538TIP3    H229174   0.604   6.130   7.959
 2539TIP3   OH229175   5.641   1.274   0.332
 2539TIP3    H129176   5.707   1.343   0.321
 2539TIP3    H229177   5.662   1.211   0.263
 2540TIP3   OH229178   6.146   5.706   1.882
 2540TIP3    H129179   6.141   5.611   1.875
 2540TIP3    H229180   6.068   5.731   1.931
 2541TIP3   OH229181   5.369   0.405   2.141
 2541TIP3    H129182   5.291   0.422   2.193
 2541TIP3    H229183   5.402   0.322   2.174
 2542TIP3   OH229184   5.681   4.972   7.324
 2542TIP3    H129185   5.687   5.065   7.345
 2542TIP3    H229186   5.643   4.969   7.236
 2543TIP3   OH229187   5.737   1.287   7.985
 2543TIP3    H129188   5.800   1.358   7.997
 2543TIP3    H229189   5.656   1.331   7.958
 2544TIP3   OH229190   1.096   5.132   8.365
 2544TIP3    H129191   1.091   5.048   8.319
 2544TIP3    H229192   1.189   5.139   8.390
 2545TIP3   OH229193   4.078   4.823   6.737
 2545TIP3    H129194   4.020   4.837   6.812
 2545TIP3    H229195   4.139   4.896   6.740
 2546TIP3   OH229196   2.003   3.607   1.985
 2546TIP3    H129197   1.919   3.643   2.012
 2546TIP3    H229198   1.996   3.513   2.003
 2547TIP3   OH229199   0.674   4.224   1.975
 2547TIP3    H129200   0.586   4.186   1.980
 2547TIP3    H229201   0.723   4.179   2.044
 2548TIP3   OH229202   1.140   5.261   7.766
 2548TIP3    H129203   1.180   5.271   7.680
 2548TIP3    H229204   1.214   5.257   7.827
 2549TIP3   OH229205   5.215   1.318   1.475
 2549TIP3    H129206   5.197   1.412   1.467
 2549TIP3    H229207   5.306   1.314   1.507
 2550TIP3   OH229208   3.179   0.388   0.462
 2550TIP3    H129209   3.130   0.344   0.393
 2550TIP3    H229210   3.257   0.422   0.418
 2551TIP3   OH229211   5.307   2.449   1.225
 2551TIP3    H129212   5.298   2.367   1.176
 2551TIP3    H229213   5.379   2.495   1.182
 2552TIP3   OH229214   1.075   3.361   0.546
 2552TIP3    H129215   1.031   3.437   0.508
 2552TIP3    H229216   1.097   3.306   0.470
 2553TIP3   OH229217   1.726   6.294   8.283
 2553TIP3    H129218   1.754   6.223   8.341
 2553TIP3    H229219   1.796   6.300   8.217
 2554TIP3   OH229220   3.883   6.150   1.788
 2554TIP3    H129221   3.908   6.059   1.773
 2554TIP3    H229222   3.898   6.164   1.882
 2555TIP3   OH229223   4.407   2.422   7.936
 2555TIP3    H129224   4.332   2.379   7.976
 2555TIP3    H229225   4.421   2.500   7.989
 2556TIP3   OH229226   5.884   3.266   8.306
 2556TIP3    H129227   5.864   3.280   8.213
 2556TIP3    H229228   5.975   3.235   8.306
 2557TIP3   OH229229   3.554   3.318   1.365
 2557TIP3    H129230   3.473   3.368   1.379
 2557TIP3    H229231   3.525   3.227   1.358
 2558TIP3   OH229232   6.213   4.440   6.760
 2558TIP3    H129233   6.235   4.489   6.680
 2558TIP3    H229234   6.162   4.365   6.729
 2559TIP3   OH229235   2.737   6.463   8.634
 2559TIP3    H129236   2.822   6.422   8.647
 2559TIP3    H229237   2.747   6.512   8.552
 2560TIP3   OH229238   6.478   4.905   2.606
 2560TIP3    H129239   6.392   4.935   2.634
 2560TIP3    H229240   6.466   4.877   2.515
 2561TIP3   OH229241   2.778   5.248   1.266
 2561TIP3    H129242   2.684   5.244   1.247
 2561TIP3    H229243   2.782   5.272   1.359
 2562TIP3   OH229244   4.900   0.889   7.179
 2562TIP3    H129245   4.834   0.918   7.116
 2562TIP3    H229246   4.969   0.955   7.174
 2563TIP3   OH229247   1.840   5.783   2.038
 2563TIP3    H129248   1.935   5.794   2.044
 2563TIP3    H229249   1.829   5.691   2.012
 2564TIP3   OH229250   3.206   2.777   1.498
 2564TIP3    H129251   3.192   2.777   1.403
 2564TIP3    H229252   3.299   2.796   1.509
 2565TIP3   OH229253   5.169   0.377   1.942
 2565TIP3    H129254   5.209   0.400   2.026
 2565TIP3    H229255   5.182   0.454   1.888
 2566TIP3   OH229256   4.499   2.880   8.253
 2566TIP3    H129257   4.567   2.921   8.198
 2566TIP3    H229258   4.519   2.910   8.341
 2567TIP3   OH229259   3.093   3.492   7.480
 2567TIP3    H129260   3.066   3.561   7.540
 2567TIP3    H229261   3.161   3.444   7.527
 2568TIP3   OH229262   3.288   1.131   1.930
 2568TIP3    H129263   3.337   1.054   1.960
 2568TIP3    H229264   3.352   1.201   1.928
 2569TIP3   OH229265   5.187   1.364   8.328
 2569TIP3    H129266   5.228   1.352   8.414
 2569TIP3    H229267   5.181   1.276   8.291
 2570TIP3   OH229268   0.031   3.774   0.139
 2570TIP3    H129269   0.013   3.808   0.227
 2570TIP3    H229270   0.034   3.679   0.150
 2571TIP3   OH229271   0.663   3.127   7.502
 2571TIP3    H129272   0.572   3.134   7.530
 2571TIP3    H229273   0.659   3.079   7.420
 2572TIP3   OH229274   2.070   3.804   6.847
 2572TIP3    H129275   2.001   3.773   6.789
 2572TIP3    H229276   2.056   3.756   6.929
 2573TIP3   OH229277   6.639   6.215   7.057
 2573TIP3    H129278   6.687   6.176   6.984
 2573TIP3    H229279   6.697   6.282   7.091
 2574TIP3   OH229280   2.702   0.948   6.452
 2574TIP3    H129281   2.789   0.983   6.437
 2574TIP3    H229282   2.696   0.940   6.548
 2575TIP3   OH229283   1.337   1.783   1.082
 2575TIP3    H129284   1.417   1.742   1.050
 2575TIP3    H229285   1.304   1.724   1.149
 2576TIP3   OH229286   5.069   6.007   1.618
 2576TIP3    H129287   5.010   5.932   1.614
 2576TIP3    H229288   5.015   6.079   1.651
 2577TIP3   OH229289   4.335   4.488   6.650
 2577TIP3    H129290   4.395   4.432   6.602
 2577TIP3    H229291   4.371   4.576   6.640
 2578TIP3   OH229292   3.156   0.635   1.680
 2578TIP3    H129293   3.094   0.708   1.672
 2578TIP3    H229294   3.129   0.574   1.612
 2579TIP3   OH229295   3.550   1.544   7.659
 2579TIP3    H129296   3.617   1.481   7.631
 2579TIP3    H229297   3.556   1.544   7.755
 2580TIP3   OH229298   4.101   0.638   0.938
 2580TIP3    H129299   4.090   0.581   1.014
 2580TIP3    H229300   4.012   0.668   0.918
 2581TIP3   OH229301   1.287   2.706   7.074
 2581TIP3    H129302   1.234   2.777   7.038
 2581TIP3    H229303   1.251   2.692   7.162
 2582TIP3   OH229304   3.346   4.064   0.226
 2582TIP3    H129305   3.354   4.004   0.152
 2582TIP3    H229306   3.428   4.114   0.225
 2583TIP3   OH229307   2.951   4.064   1.015
 2583TIP3    H129308   2.897   3.998   0.972
 2583TIP3    H229309   2.952   4.137   0.954
 2584TIP3   OH229310   4.460   2.984   6.547
 2584TIP3    H129311   4.554   2.972   6.553
 2584TIP3    H229312   4.448   3.077   6.529
 2585TIP3   OH229313   5.303   5.456   1.014
 2585TIP3    H129314   5.264   5.407   0.942
 2585TIP3    H229315   5.254   5.538   1.016
 2586TIP3   OH229316   2.024   6.831   7.427
 2586TIP3    H129317   2.075   6.833   7.346
 2586TIP3    H229318   2.084   6.795   7.492
 2587TIP3   OH229319   4.022   3.159   0.843
 2587TIP3    H129320   4.030   3.254   0.854
 2587TIP3    H229321   4.111   3.129   0.826
 2588TIP3   OH229322   0.457   4.146   8.199
 2588TIP3    H129323   0.444   4.091   8.276
 2588TIP3    H229324   0.404   4.105   8.131
 2589TIP3   OH229325   0.267   2.872   6.356
 2589TIP3    H129326   0.254   2.963   6.329
 2589TIP3    H229327   0.359   2.854   6.336
 2590TIP3   OH229328   4.100   0.639   8.353
 2590TIP3    H129329   4.139   0.726   8.344
 2590TIP3    H229330   4.134   0.590   8.278
 2591TIP3   OH229331   1.396   2.612   7.586
 2591TIP3    H129332   1.473   2.556   7.592
 2591TIP3    H229333   1.426   2.689   7.538
 2592TIP3   OH229334   5.445   1.516   8.204
 2592TIP3    H129335   5.471   1.429   8.174
 2592TIP3    H229336   5.354   1.526   8.177
 2593TIP3   OH229337   1.595   4.776   8.549
 2593TIP3    H129338   1.627   4.852   8.599
 2593TIP3    H229339   1.665   4.711   8.558
 2594TIP3   OH229340   6.530   5.109   7.660
 2594TIP3    H129341   6.625   5.115   7.659
 2594TIP3    H229342   6.510   5.053   7.735
 2595TIP3   OH229343   1.960   6.827   7.955
 2595TIP3    H129344   2.007   6.839   7.872
 2595TIP3    H229345   2.001   6.750   7.994
 2596TIP3   OH229346   2.583   4.523   7.882
 2596TIP3    H129347   2.548   4.459   7.820
 2596TIP3    H229348   2.599   4.473   7.962
 2597TIP3   OH229349   4.842   0.082   5.906
 2597TIP3    H129350   4.820   0.105   5.996
 2597TIP3    H229351   4.758   0.077   5.861
 2598TIP3   OH229352   4.917   2.749   0.686
 2598TIP3    H129353   4.882   2.682   0.745
 2598TIP3    H229354   4.901   2.832   0.731
 2599TIP3   OH229355   0.652   3.006   7.253
 2599TIP3    H129356   0.575   3.050   7.218
 2599TIP3    H229357   0.689   2.959   7.179
 2600TIP3   OH229358   4.536   2.418   0.099
 2600TIP3    H129359   4.461   2.473   0.122
 2600TIP3    H229360   4.501   2.353   0.039
 2601TIP3   OH229361   3.096   0.505   0.032
 2601TIP3    H129362   3.042   0.494   0.110
 2601TIP3    H229363   3.038   0.543   8.617
 2602TIP3   OH229364   3.727   6.026   0.852
 2602TIP3    H129365   3.749   6.042   0.760
 2602TIP3    H229366   3.727   6.112   0.893
 2603TIP3   OH229367   1.412   1.473   1.473
 2603TIP3    H129368   1.412   1.468   1.377
 2603TIP3    H229369   1.410   1.566   1.492
 2604TIP3   OH229370   4.112   2.631   1.959
 2604TIP3    H129371   4.136   2.543   1.987
 2604TIP3    H229372   4.185   2.686   1.987
 2605TIP3   OH229373   0.103   5.282   1.413
 2605TIP3    H129374   0.033   5.239   1.463
 2605TIP3    H229375   0.066   5.292   1.325
 2606TIP3   OH229376   0.238   0.325   7.558
 2606TIP3    H129377   0.230   0.418   7.535
 2606TIP3    H229378   0.327   0.302   7.533
 2607TIP3   OH229379   1.159   0.795   8.622
 2607TIP3    H129380   1.251   0.800   8.647
 2607TIP3    H229381   1.119   0.742   0.041
 2608TIP3   OH229382   1.117   5.506   0.715
 2608TIP3    H129383   1.144   5.583   0.666
 2608TIP3    H229384   1.033   5.530   0.754
 2609TIP3   OH229385   3.302   6.860   8.378
 2609TIP3    H129386   3.373   6.801   8.402
 2609TIP3    H229387   3.225   6.825   8.424
 2610TIP3   OH229388   1.492   0.474   6.872
 2610TIP3    H129389   1.420   0.428   6.914
 2610TIP3    H229390   1.485   0.564   6.904
 2611TIP3   OH229391   6.372   5.737   8.094
 2611TIP3    H129392   6.277   5.730   8.103
 2611TIP3    H229393   6.386   5.823   8.055
 2612TIP3   OH229394   5.925   3.110   0.025
 2612TIP3    H129395   5.994   3.172   0.046
 2612TIP3    H229396   5.970   3.026   0.017
 2613TIP3   OH229397   1.851   6.721   7.171
 2613TIP3    H129398   1.758   6.709   7.153
 2613TIP3    H229399   1.861   6.814   7.191
 2614TIP3   OH229400   2.721   5.055   7.651
 2614TIP3    H129401   2.680   4.977   7.688
 2614TIP3    H229402   2.665   5.078   7.577
 2615TIP3   OH229403   6.534   2.160   8.481
 2615TIP3    H129404   6.527   2.248   8.517
 2615TIP3    H229405   6.614   2.161   8.428
 2616TIP3   OH229406   5.782   3.929   8.201
 2616TIP3    H129407   5.704   3.874   8.213
 2616TIP3    H229408   5.849   3.887   8.255
 2617TIP3   OH229409   6.742   0.726   7.750
 2617TIP3    H129410   6.774   0.753   7.664
 2617TIP3    H229411   6.647   0.729   7.744
 2618TIP3   OH229412   3.350   1.181   7.114
 2618TIP3    H129413   3.403   1.231   7.053
 2618TIP3    H229414   3.406   1.109   7.143
 2619TIP3   OH229415   3.896   6.427   6.858
 2619TIP3    H129416   3.940   6.455   6.777
 2619TIP3    H229417   3.888   6.332   6.849
 2620TIP3   OH229418   5.838   3.243   1.102
 2620TIP3    H129419   5.841   3.339   1.100
 2620TIP3    H229420   5.925   3.216   1.074
 2621TIP3   OH229421   0.949   2.331   7.626
 2621TIP3    H129422   1.036   2.324   7.667
 2621TIP3    H229423   0.943   2.255   7.569
 2622TIP3   OH229424   4.582   1.971   8.209
 2622TIP3    H129425   4.676   1.954   8.202
 2622TIP3    H229426   4.541   1.885   8.198
 2623TIP3   OH229427   3.394   0.808   1.746
 2623TIP3    H129428   3.440   0.759   1.678
 2623TIP3    H229429   3.302   0.788   1.731
 2624TIP3   OH229430   1.173   4.255   0.955
 2624TIP3    H129431   1.143   4.168   0.929
 2624TIP3    H229432   1.186   4.301   0.872
 2625TIP3   OH229433   1.035   2.504   0.108
 2625TIP3    H129434   0.971   2.457   0.163
 2625TIP3    H229435   1.106   2.525   0.168
 2626TIP3   OH229436   5.878   2.423   1.179
 2626TIP3    H129437   5.873   2.499   1.122
 2626TIP3    H229438   5.824   2.356   1.136
 2627TIP3   OH229439   1.625   0.718   8.312
 2627TIP3    H129440   1.698   0.762   8.355
 2627TIP3    H229441   1.590   0.783   8.251
 2628TIP3   OH229442   4.761   3.692   6.705
 2628TIP3    H129443   4.824   3.763   6.719
 2628TIP3    H229444   4.749   3.688   6.611
 2629TIP3   OH229445   2.252   1.764   0.031
 2629TIP3    H129446   2.223   1.818   8.608
 2629TIP3    H229447   2.244   1.821   0.107
 2630TIP3   OH229448   6.582   3.994   8.155
 2630TIP3    H129449   6.618   3.941   8.084
 2630TIP3    H229450   6.619   3.957   8.235
 2631TIP3   OH229451   5.596   0.769   1.171
 2631TIP3    H129452   5.643   0.850   1.154
 2631TIP3    H229453   5.525   0.769   1.108
 2632TIP3   OH229454   6.817   3.334   7.577
 2632TIP3    H129455   6.761   3.288   7.640
 2632TIP3    H229456   6.819   3.276   7.501
 2633TIP3   OH229457   4.224   1.382   7.590
 2633TIP3    H129458   4.250   1.358   7.501
 2633TIP3    H229459   4.147   1.438   7.578
 2634TIP3   OH229460   5.516   5.020   6.285
 2634TIP3    H129461   5.531   4.936   6.328
 2634TIP3    H229462   5.514   5.083   6.357
 2635TIP3   OH229463   1.176   3.760   0.975
 2635TIP3    H129464   1.111   3.708   0.927
 2635TIP3    H229465   1.238   3.696   1.009
 2636TIP3   OH229466   6.210   4.237   0.388
 2636TIP3    H129467   6.295   4.259   0.426
 2636TIP3    H229468   6.161   4.320   0.390
 2637TIP3   OH229469   3.002   6.238   5.889
 2637TIP3    H129470   3.026   6.155   5.930
 2637TIP3    H229471   2.912   6.224   5.858
 2638TIP3   OH229472   2.066   0.852   0.928
 2638TIP3    H129473   2.059   0.764   0.965
 2638TIP3    H229474   2.150   0.885   0.960
 2639TIP3   OH229475   1.522   2.156   1.043
 2639TIP3    H129476   1.554   2.119   1.125
 2639TIP3    H229477   1.510   2.081   0.985
 2640TIP3   OH229478   0.405   6.166   7.148
 2640TIP3    H129479   0.397   6.260   7.161
 2640TIP3    H229480   0.489   6.143   7.190
 2641TIP3   OH229481   4.329   3.211   7.514
 2641TIP3    H129482   4.404   3.263   7.542
 2641TIP3    H229483   4.342   3.198   7.420
 2642TIP3   OH229484   4.441   3.061   0.389
 2642TIP3    H129485   4.387   3.033   0.316
 2642TIP3    H229486   4.444   3.157   0.381
 2643TIP3   OH229487   0.232   1.245   0.091
 2643TIP3    H129488   0.234   1.331   0.133
 2643TIP3    H229489   0.155   1.248   0.035
 2644TIP3   OH229490   3.900   4.981   6.400
 2644TIP3    H129491   3.988   5.020   6.405
 2644TIP3    H229492   3.841   5.055   6.416
 2645TIP3   OH229493   1.558   6.422   1.940
 2645TIP3    H129494   1.652   6.401   1.943
 2645TIP3    H229495   1.518   6.362   2.003
 2646TIP3   OH229496   5.702   5.970   2.058
 2646TIP3    H129497   5.623   5.931   2.096
 2646TIP3    H229498   5.670   6.042   2.004
 2647TIP3   OH229499   0.971   5.327   2.251
 2647TIP3    H129500   0.886   5.283   2.258
 2647TIP3    H229501   1.025   5.283   2.317
 2648TIP3   OH229502   4.339   1.386   1.721
 2648TIP3    H129503   4.330   1.322   1.792
 2648TIP3    H229504   4.404   1.348   1.662
 2649TIP3   OH229505   5.063   0.384   1.295
 2649TIP3    H129506   5.099   0.437   1.224
 2649TIP3    H229507   5.026   0.449   1.356
 2650TIP3   OH229508   0.798   1.860   8.109
 2650TIP3    H129509   0.729   1.885   8.048
 2650TIP3    H229510   0.820   1.941   8.156
 2651TIP3   OH229511   4.405   1.311   8.558
 2651TIP3    H129512   4.434   1.255   8.486
 2651TIP3    H229513   4.441   1.270   8.636
 2652TIP3   OH229514   0.417   0.882   0.659
 2652TIP3    H129515   0.328   0.904   0.633
 2652TIP3    H229516   0.409   0.850   0.748
 2653TIP3   OH229517   6.822   0.796   0.332
 2653TIP3    H129518   6.784   0.874   0.373
 2653TIP3    H229519   6.793   0.801   0.241
 2654TIP3   OH229520   4.404   3.924   0.296
 2654TIP3    H129521   4.487   3.913   0.251
 2654TIP3    H229522   4.356   3.842   0.280
 2655TIP3   OH229523   3.647   5.845   8.243
 2655TIP3    H129524   3.613   5.812   8.160
 2655TIP3    H229525   3.642   5.940   8.235
 2656TIP3   OH229526   4.624   0.286   7.910
 2656TIP3    H129527   4.641   0.194   7.887
 2656TIP3    H229528   4.707   0.318   7.945
 2657TIP3   OH229529   1.400   4.090   2.365
 2657TIP3    H129530   1.354   4.156   2.418
 2657TIP3    H229531   1.488   4.126   2.355
 2658TIP3   OH229532   5.858   1.036   8.079
 2658TIP3    H129533   5.842   1.127   8.053
 2658TIP3    H229534   5.844   0.985   8.000
 2659TIP3   OH229535   2.624   5.867   1.269
 2659TIP3    H129536   2.613   5.929   1.196
 2659TIP3    H229537   2.578   5.788   1.241
 2660TIP3   OH229538   6.599   0.186   7.881
 2660TIP3    H129539   6.622   0.102   7.919
 2660TIP3    H229540   6.557   0.165   7.798
 2661TIP3   OH229541   5.185   5.823   7.844
 2661TIP3    H129542   5.225   5.907   7.864
 2661TIP3    H229543   5.250   5.777   7.791
 2662TIP3   OH229544   2.883   3.629   7.064
 2662TIP3    H129545   2.960   3.600   7.112
 2662TIP3    H229546   2.905   3.613   6.972
 2663TIP3   OH229547   4.896   6.551   7.165
 2663TIP3    H129548   4.803   6.531   7.159
 2663TIP3    H229549   4.900   6.645   7.178
 2664TIP3   OH229550   4.002   0.044   2.183
 2664TIP3    H129551   4.027   0.026   2.093
 2664TIP3    H229552   4.056   0.120   2.208
 2665TIP3   OH229553   3.456   1.662   8.463
 2665TIP3    H129554   3.398   1.606   8.515
 2665TIP3    H229555   3.447   1.629   8.373
 2666TIP3   OH229556   1.343   5.211   8.419
 2666TIP3    H129557   1.318   5.304   8.423
 2666TIP3    H229558   1.414   5.203   8.482
 2667TIP3   OH229559   3.372   0.736   0.741
 2667TIP3    H129560   3.450   0.685   0.762
 2667TIP3    H229561   3.382   0.816   0.791
 2668TIP3   OH229562   6.060   0.259   8.064
 2668TIP3    H129563   6.106   0.199   8.123
 2668TIP3    H229564   6.089   0.346   8.091
 2669TIP3   OH229565   1.454   5.080   1.329
 2669TIP3    H129566   1.388   5.028   1.375
 2669TIP3    H229567   1.409   5.109   1.249
 2670TIP3   OH229568   5.571   5.765   0.734
 2670TIP3    H129569   5.481   5.765   0.768
 2670TIP3    H229570   5.610   5.686   0.771
 2671TIP3   OH229571   4.960   1.545   2.431
 2671TIP3    H129572   4.907   1.538   2.510
 2671TIP3    H229573   4.957   1.457   2.392
 2672TIP3   OH229574   2.809   0.216   1.204
 2672TIP3    H129575   2.729   0.175   1.237
 2672TIP3    H229576   2.873   0.146   1.201
 2673TIP3   OH229577   2.790   0.444   7.246
 2673TIP3    H129578   2.860   0.508   7.256
 2673TIP3    H229579   2.733   0.457   7.322
 2674TIP3   OH229580   2.373   0.281   6.687
 2674TIP3    H129581   2.314   0.238   6.749
 2674TIP3    H229582   2.450   0.224   6.684
 2675TIP3   OH229583   5.752   0.402   7.723
 2675TIP3    H129584   5.817   0.437   7.662
 2675TIP3    H229585   5.771   0.446   7.806
 2676TIP3   OH229586   0.703   3.377   0.968
 2676TIP3    H129587   0.778   3.436   0.975
 2676TIP3    H229588   0.718   3.328   0.887
 2677TIP3   OH229589   3.884   4.098   0.572
 2677TIP3    H129590   3.964   4.146   0.549
 2677TIP3    H229591   3.841   4.082   0.488
 2678TIP3   OH229592   1.146   5.364   8.198
 2678TIP3    H129593   1.072   5.305   8.206
 2678TIP3    H229594   1.143   5.393   8.107
 2679TIP3   OH229595   5.107   4.041   7.332
 2679TIP3    H129596   5.184   4.022   7.386
 2679TIP3    H229597   5.140   4.044   7.242
 2680TIP3   OH229598   0.335   3.172   0.493
 2680TIP3    H129599   0.276   3.245   0.509
 2680TIP3    H229600   0.333   3.161   0.398
 2681TIP3   OH229601   5.129   5.675   1.022
 2681TIP3    H129602   5.107   5.707   1.109
 2681TIP3    H229603   5.046   5.646   0.985
 2682TIP3   OH229604   0.026   0.516   1.291
 2682TIP3    H129605   0.112   0.476   1.278
 2682TIP3    H229606   6.862   0.462   1.359
 2683TIP3   OH229607   3.877   4.391   7.088
 2683TIP3    H129608   3.819   4.317   7.103
 2683TIP3    H229609   3.822   4.468   7.102
 2684TIP3   OH229610   5.192   3.478   8.101
 2684TIP3    H129611   5.201   3.395   8.148
 2684TIP3    H229612   5.218   3.457   8.011
 2685TIP3   OH229613   5.952   3.150   6.831
 2685TIP3    H129614   5.999   3.068   6.843
 2685TIP3    H229615   6.019   3.218   6.845
 2686TIP3   OH229616   1.430   0.184   6.755
 2686TIP3    H129617   1.335   0.189   6.751
 2686TIP3    H229618   1.451   0.094   6.726
 2687TIP3   OH229619   1.169   6.648   0.390
 2687TIP3    H129620   1.242   6.597   0.356
 2687TIP3    H229621   1.190   6.664   0.482
 2688TIP3   OH229622   4.470   1.613   1.883
 2688TIP3    H129623   4.377   1.637   1.884
 2688TIP3    H229624   4.475   1.537   1.940
 2689TIP3   OH229625   5.920   3.857   8.634
 2689TIP3    H129626   5.886   3.930   8.582
 2689TIP3    H229627   5.998   3.893   0.026
 2690TIP3   OH229628   3.637   0.128   0.550
 2690TIP3    H129629   3.675   0.049   0.588
 2690TIP3    H229630   3.633   0.110   0.456
 2691TIP3   OH229631   1.340   0.279   0.991
 2691TIP3    H129632   1.420   0.231   1.012
 2691TIP3    H229633   1.295   0.288   1.075
 2692TIP3   OH229634   4.481   1.270   8.123
 2692TIP3    H129635   4.538   1.346   8.114
 2692TIP3    H229636   4.487   1.225   8.039
 2693TIP3   OH229637   2.153   3.475   7.762
 2693TIP3    H129638   2.115   3.563   7.756
 2693TIP3    H229639   2.220   3.473   7.695
 2694TIP3   OH229640   4.519   4.866   0.891
 2694TIP3    H129641   4.497   4.826   0.976
 2694TIP3    H229642   4.439   4.912   0.865
 2695TIP3   OH229643   1.320   6.682   7.269
 2695TIP3    H129644   1.414   6.697   7.274
 2695TIP3    H229645   1.282   6.754   7.320
 2696TIP3   OH229646   5.977   0.821   0.164
 2696TIP3    H129647   5.901   0.818   0.105
 2696TIP3    H229648   5.946   0.870   0.240
 2697TIP3   OH229649   0.908   4.256   0.684
 2697TIP3    H129650   0.836   4.295   0.634
 2697TIP3    H229651   0.987   4.300   0.651
 2698TIP3   OH229652   4.569   5.586   8.634
 2698TIP3    H129653   4.476   5.587   0.008
 2698TIP3    H229654   4.610   5.528   0.047
 2699TIP3   OH229655   6.434   1.375   1.451
 2699TIP3    H129656   6.409   1.351   1.362
 2699TIP3    H229657   6.508   1.317   1.471
 2700TIP3   OH229658   2.697   0.362   7.838
 2700TIP3    H129659   2.627   0.309   7.800
 2700TIP3    H229660   2.700   0.335   7.930
 2701TIP3   OH229661   2.553   1.923   7.765
 2701TIP3    H129662   2.609   1.993   7.730
 2701TIP3    H229663   2.587   1.908   7.853
 2702TIP3   OH229664   6.745   4.880   8.294
 2702TIP3    H129665   6.829   4.890   8.338
 2702TIP3    H229666   6.698   4.961   8.312
 2703TIP3   OH229667   5.652   4.945   0.792
 2703TIP3    H129668   5.686   5.020   0.840
 2703TIP3    H229669   5.683   4.869   0.841
 2704TIP3   OH229670   5.971   0.031   0.757
 2704TIP3    H129671   6.058   0.059   0.727
 2704TIP3    H229672   5.939   0.104   0.810
 2705TIP3   OH229673   4.050   0.580   5.962
 2705TIP3    H129674   3.972   0.588   6.017
 2705TIP3    H229675   4.100   0.508   6.001
 2706TIP3   OH229676   2.504   3.088   1.253
 2706TIP3    H129677   2.512   3.134   1.336
 2706TIP3    H229678   2.430   3.131   1.209
 2707TIP3   OH229679   6.365   0.162   0.417
 2707TIP3    H129680   6.271   0.178   0.414
 2707TIP3    H229681   6.377   0.077   0.375
 2708TIP3   OH229682   1.141   6.443   7.893
 2708TIP3    H129683   1.057   6.401   7.875
 2708TIP3    H229684   1.198   6.414   7.821
 2709TIP3   OH229685   1.520   2.000   0.405
 2709TIP3    H129686   1.429   2.012   0.380
 2709TIP3    H229687   1.517   1.968   0.495
 2710TIP3   OH229688   2.061   6.455   0.972
 2710TIP3    H129689   2.086   6.443   0.881
 2710TIP3    H229690   2.077   6.370   1.013
 2711TIP3   OH229691   3.347   1.941   0.045
 2711TIP3    H129692   3.303   1.985   0.118
 2711TIP3    H229693   3.288   1.869   0.021
 2712TIP3   OH229694   5.416   0.987   0.058
 2712TIP3    H129695   5.330   0.954   0.082
 2712TIP3    H229696   5.428   1.065   0.112
 2713TIP3   OH229697   5.253   6.825   2.067
 2713TIP3    H129698   5.285   0.019   2.013
 2713TIP3    H229699   5.194   6.777   2.009
 2714TIP3   OH229700   5.330   5.679   7.672
 2714TIP3    H129701   5.311   5.656   7.580
 2714TIP3    H229702   5.387   5.609   7.703
 2715TIP3   OH229703   4.703   3.920   8.371
 2715TIP3    H129704   4.708   4.013   8.346
 2715TIP3    H229705   4.763   3.912   8.445
 2716TIP3   OH229706   5.729   2.808   8.436
 2716TIP3    H129707   5.799   2.840   8.378
 2716TIP3    H229708   5.772   2.746   8.494
 2717TIP3   OH229709   6.540   5.372   7.595
 2717TIP3    H129710   6.474   5.407   7.655
 2717TIP3    H229711   6.519   5.278   7.588
 2718TIP3   OH229712   3.008   5.508   0.909
 2718TIP3    H129713   3.009   5.498   1.004
 2718TIP3    H229714   3.089   5.554   0.889
 2719TIP3   OH229715   4.575   1.757   7.234
 2719TIP3    H129716   4.518   1.734   7.308
 2719TIP3    H229717   4.551   1.847   7.212
 2720TIP3   OH229718   4.294   3.868   2.330
 2720TIP3    H129719   4.372   3.922   2.334
 2720TIP3    H229720   4.273   3.863   2.237
 2721TIP3   OH229721   5.354   2.571   7.812
 2721TIP3    H129722   5.369   2.664   7.832
 2721TIP3    H229723   5.381   2.525   7.892
 2722TIP3   OH229724   3.867   0.626   7.902
 2722TIP3    H129725   3.939   0.689   7.902
 2722TIP3    H229726   3.792   0.675   7.937
 2723TIP3   OH229727   1.840   0.131   1.771
 2723TIP3    H129728   1.858   0.045   1.734
 2723TIP3    H229729   1.897   0.137   1.848
 2724TIP3   OH229730   6.064   5.787   1.006
 2724TIP3    H129731   6.064   5.796   0.911
 2724TIP3    H229732   6.116   5.861   1.037
 2725TIP3   OH229733   5.315   3.043   0.023
 2725TIP3    H129734   5.277   2.956   0.012
 2725TIP3    H229735   5.396   3.041   8.624
 2726TIP3   OH229736   0.741   1.536   8.253
 2726TIP3    H129737   0.769   1.486   8.329
 2726TIP3    H229738   0.708   1.619   8.289
 2727TIP3   OH229739   3.362   6.106   8.187
 2727TIP3    H129740   3.454   6.082   8.176
 2727TIP3    H229741   3.357   6.141   8.276
 2728TIP3   OH229742   2.954   1.310   1.246
 2728TIP3    H129743   2.931   1.261   1.325
 2728TIP3    H229744   2.870   1.333   1.206
 2729TIP3   OH229745   2.517   2.950   0.205
 2729TIP3    H129746   2.426   2.947   0.234
 2729TIP3    H229747   2.524   3.033   0.157
 2730TIP3   OH229748   2.304   2.992   8.622
 2730TIP3    H129749   2.294   2.984   0.066
 2730TIP3    H229750   2.343   3.078   8.610
 2731TIP3   OH229751   6.587   3.798   7.253
 2731TIP3    H129752   6.671   3.755   7.267
 2731TIP3    H229753   6.601   3.888   7.282
 2732TIP3   OH229754   0.290   2.024   2.033
 2732TIP3    H129755   0.288   2.088   2.104
 2732TIP3    H229756   0.237   1.951   2.064
 2733TIP3   OH229757   4.325   5.570   8.127
 2733TIP3    H129758   4.358   5.574   8.217
 2733TIP3    H229759   4.398   5.601   8.074
 2734TIP3   OH229760   1.227   2.766   0.571
 2734TIP3    H129761   1.312   2.754   0.529
 2734TIP3    H229762   1.240   2.735   0.661
 2735TIP3   OH229763   1.027   1.270   0.431
 2735TIP3    H129764   1.010   1.362   0.451
 2735TIP3    H229765   0.977   1.253   0.351
 2736TIP3   OH229766   4.712   1.538   2.217
 2736TIP3    H129767   4.782   1.482   2.249
 2736TIP3    H229768   4.756   1.613   2.178
 2737TIP3   OH229769   2.689   0.459   0.038
 2737TIP3    H129770   2.765   0.468   0.095
 2737TIP3    H229771   2.624   0.412   0.091
 2738TIP3   OH229772   6.608   1.065   0.262
 2738TIP3    H129773   6.571   0.978   0.247
 2738TIP3    H229774   6.532   1.120   0.283
 2739TIP3   OH229775   2.465   5.899   2.234
 2739TIP3    H129776   2.409   5.822   2.243
 2739TIP3    H229777   2.468   5.937   2.321
 2740TIP3   OH229778   6.471   4.143   1.852
 2740TIP3    H129779   6.386   4.187   1.847
 2740TIP3    H229780   6.486   4.131   1.946
 2741TIP3   OH229781   5.292   2.557   7.397
 2741TIP3    H129782   5.297   2.476   7.449
 2741TIP3    H229783   5.373   2.557   7.346
 2742TIP3   OH229784   2.854   0.771   8.550
 2742TIP3    H129785   2.886   0.855   8.518
 2742TIP3    H229786   2.850   0.781   8.645
 2743TIP3   OH229787   3.940   2.617   7.872
 2743TIP3    H129788   3.992   2.623   7.792
 2743TIP3    H229789   3.959   2.530   7.907
 2744TIP3   OH229790   2.217   6.661   8.551
 2744TIP3    H129791   2.179   6.593   8.606
 2744TIP3    H229792   2.294   6.692   8.599
 2745TIP3   OH229793   1.051   0.278   1.612
 2745TIP3    H129794   1.122   0.215   1.620
 2745TIP3    H229795   1.086   0.359   1.649
 2746TIP3   OH229796   5.108   0.311   0.449
 2746TIP3    H129797   5.034   0.335   0.504
 2746TIP3    H229798   5.161   0.254   0.505
 2747TIP3   OH229799   6.627   2.122   7.396
 2747TIP3    H129800   6.682   2.111   7.318
 2747TIP3    H229801   6.688   2.116   7.469
 2748TIP3   OH229802   0.834   4.544   7.187
 2748TIP3    H129803   0.904   4.593   7.143
 2748TIP3    H229804   0.855   4.550   7.280
 2749TIP3   OH229805   5.704   5.669   8.511
 2749TIP3    H129806   5.691   5.707   8.598
 2749TIP3    H229807   5.616   5.644   8.483
 2750TIP3   OH229808   2.892   0.726   7.480
 2750TIP3    H129809   2.864   0.710   7.570
 2750TIP3    H229810   2.982   0.694   7.477
 2751TIP3   OH229811   0.464   4.308   7.115
 2751TIP3    H129812   0.464   4.391   7.161
 2751TIP3    H229813   0.372   4.289   7.098
 2752TIP3   OH229814   4.454   4.869   8.390
 2752TIP3    H129815   4.545   4.839   8.386
 2752TIP3    H229816   4.442   4.896   8.481
 2753TIP3   OH229817   2.772   0.406   0.502
 2753TIP3    H129818   2.823   0.365   0.572
 2753TIP3    H229819   2.765   0.498   0.527
 2754TIP3   OH229820   4.170   3.224   6.294
 2754TIP3    H129821   4.128   3.196   6.213
 2754TIP3    H229822   4.246   3.274   6.266
 2755TIP3   OH229823   1.901   5.276   8.282
 2755TIP3    H129824   1.917   5.183   8.262
 2755TIP3    H229825   1.807   5.288   8.265
 2756TIP3   OH229826   0.198   4.236   6.758
 2756TIP3    H129827   0.128   4.208   6.699
 2756TIP3    H229828   0.265   4.168   6.751
 2757TIP3   OH229829   6.860   6.377   1.487
 2757TIP3    H129830   0.039   6.315   1.534
 2757TIP3    H229831   6.791   6.323   1.450
 2758TIP3   OH229832   4.823   5.574   1.378
 2758TIP3    H129833   4.807   5.525   1.458
 2758TIP3    H229834   4.890   5.523   1.332
 2759TIP3   OH229835   3.757   1.274   1.135
 2759TIP3    H129836   3.672   1.234   1.117
 2759TIP3    H229837   3.737   1.347   1.195
 2760TIP3   OH229838   2.415   4.645   6.550
 2760TIP3    H129839   2.371   4.613   6.628
 2760TIP3    H229840   2.491   4.588   6.540
 2761TIP3   OH229841   0.937   6.666   0.088
 2761TIP3    H129842   0.892   6.619   0.018
 2761TIP3    H229843   0.867   6.696   0.146
 2762TIP3   OH229844   6.488   0.236   6.978
 2762TIP3    H129845   6.513   0.165   6.920
 2762TIP3    H229846   6.402   0.209   7.013
 2763TIP3   OH229847   2.353   2.141   7.451
 2763TIP3    H129848   2.286   2.195   7.409
 2763TIP3    H229849   2.386   2.196   7.522
 2764TIP3   OH229850   4.320   3.167   0.819
 2764TIP3    H129851   4.293   3.221   0.893
 2764TIP3    H229852   4.385   3.107   0.855
 2765TIP3   OH229853   6.004   2.569   0.161
 2765TIP3    H129854   5.986   2.504   0.229
 2765TIP3    H229855   6.082   2.535   0.116
 2766TIP3   OH229856   5.012   0.314   7.164
 2766TIP3    H129857   5.029   0.409   7.165
 2766TIP3    H229858   4.939   0.303   7.226
 2767TIP3   OH229859   0.384   3.786   1.118
 2767TIP3    H129860   0.306   3.752   1.162
 2767TIP3    H229861   0.409   3.718   1.057
 2768TIP3   OH229862   6.778   0.318   8.083
 2768TIP3    H129863   6.725   0.252   8.039
 2768TIP3    H229864   6.830   0.357   8.013
 2769TIP3   OH229865   5.333   1.016   7.702
 2769TIP3    H129866   5.274   0.998   7.629
 2769TIP3    H229867   5.418   1.030   7.661
 2770TIP3   OH229868   1.266   4.515   2.223
 2770TIP3    H129869   1.185   4.536   2.270
 2770TIP3    H229870   1.274   4.584   2.157
 2771TIP3   OH229871   6.628   3.879   0.880
 2771TIP3    H129872   6.703   3.868   0.938
 2771TIP3    H229873   6.614   3.793   0.841
 2772TIP3   OH229874   0.895   0.798   1.297
 2772TIP3    H129875   0.932   0.765   1.215
 2772TIP3    H229876   0.805   0.822   1.275
 2773TIP3   OH229877   5.174   0.728   0.719
 2773TIP3    H129878   5.216   0.674   0.652
 2773TIP3    H229879   5.119   0.789   0.670
 2774TIP3   OH229880   0.862   0.305   0.205
 2774TIP3    H129881   0.926   0.265   0.146
 2774TIP3    H229882   0.895   0.394   0.220
 2775TIP3   OH229883   3.848   0.430   0.272
 2775TIP3    H129884   3.809   0.517   0.261
 2775TIP3    H229885   3.809   0.377   0.202
 2776TIP3   OH229886   5.564   2.769   8.052
 2776TIP3    H129887   5.580   2.767   7.958
 2776TIP3    H229888   5.472   2.796   8.060
 2777TIP3   OH229889   5.553   6.825   8.046
 2777TIP3    H129890   5.464   6.856   8.060
 2777TIP3    H229891   5.602   0.025   8.022
 2778TIP3   OH229892   4.791   2.141   6.192
 2778TIP3    H129893   4.741   2.174   6.118
 2778TIP3    H229894   4.870   2.195   6.193
 2779TIP3   OH229895   3.055   3.207   7.166
 2779TIP3    H129896   3.143   3.169   7.173
 2779TIP3    H229897   3.004   3.160   7.232
 2780TIP3   OH229898   6.773   6.532   6.876
 2780TIP3    H129899   6.757   6.493   6.790
 2780TIP3    H229900   6.866   6.554   6.875
 2781TIP3   OH229901   5.701   4.067   6.640
 2781TIP3    H129902   5.609   4.060   6.613
 2781TIP3    H229903   5.715   3.992   6.697
 2782TIP3   OH229904   2.467   4.032   6.132
 2782TIP3    H129905   2.493   3.972   6.202
 2782TIP3    H229906   2.378   4.059   6.156
 2783TIP3   OH229907   3.775   3.486   7.168
 2783TIP3    H129908   3.728   3.534   7.236
 2783TIP3    H229909   3.862   3.526   7.165
 2784TIP3   OH229910   5.759   6.072   8.369
 2784TIP3    H129911   5.665   6.060   8.355
 2784TIP3    H229912   5.765   6.124   8.449
 2785TIP3   OH229913   3.182   3.108   6.145
 2785TIP3    H129914   3.129   3.032   6.122
 2785TIP3    H229915   3.118   3.176   6.169
 2786TIP3   OH229916   2.565   0.826   5.890
 2786TIP3    H129917   2.598   0.759   5.949
 2786TIP3    H229918   2.521   0.777   5.820
 2787TIP3   OH229919   6.248   3.279   8.206
 2787TIP3    H129920   6.199   3.255   8.128
 2787TIP3    H229921   6.217   3.220   8.274
 2788TIP3   OH229922   0.953   4.301   6.544
 2788TIP3    H129923   1.027   4.241   6.532
 2788TIP3    H229924   0.882   4.261   6.494
 2789TIP3   OH229925   2.996   5.053   1.530
 2789TIP3    H129926   3.051   4.991   1.579
 2789TIP3    H229927   2.992   5.017   1.442
 2790TIP3   OH229928   5.685   4.438   7.598
 2790TIP3    H129929   5.634   4.477   7.526
 2790TIP3    H229930   5.717   4.514   7.648
 2791TIP3   OH229931   6.098   1.715   6.606
 2791TIP3    H129932   6.051   1.633   6.623
 2791TIP3    H229933   6.190   1.688   6.597
 2792TIP3   OH229934   1.415   2.395   1.148
 2792TIP3    H129935   1.372   2.405   1.233
 2792TIP3    H229936   1.416   2.300   1.133
 2793TIP3   OH229937   2.755   1.797   7.408
 2793TIP3    H129938   2.733   1.777   7.499
 2793TIP3    H229939   2.691   1.863   7.382
 2794TIP3   OH229940   5.914   5.590   0.438
 2794TIP3    H129941   5.913   5.669   0.384
 2794TIP3    H229942   5.970   5.612   0.512
 2795TIP3   OH229943   6.559   4.274   8.060
 2795TIP3    H129944   6.634   4.304   8.008
 2795TIP3    H229945   6.583   4.186   8.088
 2796TIP3   OH229946   2.800   5.929   8.283
 2796TIP3    H129947   2.756   5.852   8.318
 2796TIP3    H229948   2.807   5.912   8.189
 2797TIP3   OH229949   4.417   0.717   1.715
 2797TIP3    H129950   4.452   0.804   1.735
 2797TIP3    H229951   4.334   0.713   1.763
 2798TIP3   OH229952   4.306   4.544   8.577
 2798TIP3    H129953   4.288   4.636   8.596
 2798TIP3    H229954   4.223   4.510   8.542
 2799TIP3   OH229955   3.855   1.349   1.882
 2799TIP3    H129956   3.932   1.358   1.826
 2799TIP3    H229957   3.816   1.265   1.858
 2800TIP3   OH229958   4.514   3.402   7.606
 2800TIP3    H129959   4.597   3.443   7.631
 2800TIP3    H229960   4.454   3.476   7.593
 2801TIP3   OH229961   6.112   6.052   6.238
 2801TIP3    H129962   6.054   5.987   6.277
 2801TIP3    H229963   6.058   6.130   6.229
 2802TIP3   OH229964   4.435   1.201   2.195
 2802TIP3    H129965   4.345   1.233   2.197
 2802TIP3    H229966   4.457   1.184   2.287
 2803TIP3   OH229967   0.070   3.827   8.507
 2803TIP3    H129968   0.157   3.795   8.484
 2803TIP3    H229969   0.057   3.799   8.598
 2804TIP3   OH229970   4.771   1.248   0.841
 2804TIP3    H129971   4.698   1.304   0.816
 2804TIP3    H229972   4.779   1.261   0.936
 2805TIP3   OH229973   0.043   1.133   8.028
 2805TIP3    H129974   0.061   1.078   7.951
 2805TIP3    H229975   0.125   1.180   8.043
 2806TIP3   OH229976   4.120   6.190   6.875
 2806TIP3    H129977   4.050   6.216   6.816
 2806TIP3    H229978   4.197   6.239   6.844
 2807TIP3   OH229979   2.125   6.489   8.360
 2807TIP3    H129980   2.188   6.541   8.411
 2807TIP3    H229981   2.062   6.459   8.425
 2808TIP3   OH229982   5.992   4.231   1.734
 2808TIP3    H129983   6.081   4.260   1.752
 2808TIP3    H229984   5.979   4.155   1.791
 2809TIP3   OH229985   2.230   1.897   0.959
 2809TIP3    H129986   2.256   1.861   0.874
 2809TIP3    H229987   2.196   1.822   1.007
 2810TIP3   OH229988   4.658   5.055   7.514
 2810TIP3    H129989   4.639   5.106   7.592
 2810TIP3    H229990   4.605   4.976   7.523
 2811TIP3   OH229991   4.184   3.256   8.351
 2811TIP3    H129992   4.247   3.194   8.312
 2811TIP3    H229993   4.214   3.267   8.441
 2812TIP3   OH229994   3.082   1.262   7.091
 2812TIP3    H129995   3.149   1.263   7.159
 2812TIP3    H229996   3.131   1.245   7.010
 2813TIP3   OH229997   2.540   3.295   0.474
 2813TIP3    H129998   2.505   3.380   0.448
 2813TIP3    H229999   2.635   3.307   0.473
 2814TIP3   OH230000   6.462   4.163   1.188
 2814TIP3    H130001   6.546   4.146   1.146
 2814TIP3    H230002   6.448   4.257   1.176
 2815TIP3   OH230003   2.118   0.388   8.312
 2815TIP3    H130004   2.065   0.441   8.372
 2815TIP3    H230005   2.056   0.358   8.246
 2816TIP3   OH230006   1.658   2.312   8.424
 2816TIP3    H130007   1.643   2.245   8.491
 2816TIP3    H230008   1.571   2.347   8.406
 2817TIP3   OH230009   2.443   6.096   1.645
 2817TIP3    H130010   2.472   6.114   1.556
 2817TIP3    H230011   2.514   6.046   1.685
 2818TIP3   OH230012   1.833   1.831   5.882
 2818TIP3    H130013   1.787   1.761   5.836
 2818TIP3    H230014   1.766   1.897   5.899
 2819TIP3   OH230015   5.598   0.473   7.470
 2819TIP3    H130016   5.587   0.427   7.553
 2819TIP3    H230017   5.577   0.408   7.403
 2820TIP3   OH230018   3.809   1.898   8.262
 2820TIP3    H130019   3.834   1.928   8.349
 2820TIP3    H230020   3.760   1.818   8.277
 2821TIP3   OH230021   3.599   3.428   8.091
 2821TIP3    H130022   3.564   3.516   8.077
 2821TIP3    H230023   3.636   3.430   8.180
 2822TIP3   OH230024   5.699   6.295   8.208
 2822TIP3    H130025   5.712   6.245   8.289
 2822TIP3    H230026   5.613   6.335   8.219
 2823TIP3   OH230027   0.714   6.461   7.287
 2823TIP3    H130028   0.652   6.467   7.360
 2823TIP3    H230029   0.792   6.507   7.318
 2824TIP3   OH230030   1.918   5.587   0.276
 2824TIP3    H130031   1.904   5.677   0.245
 2824TIP3    H230032   1.834   5.563   0.316
 2825TIP3   OH230033   2.930   1.101   8.180
 2825TIP3    H130034   2.894   1.098   8.091
 2825TIP3    H230035   2.991   1.027   8.183
 2826TIP3   OH230036   4.234   0.678   1.478
 2826TIP3    H130037   4.293   0.649   1.548
 2826TIP3    H230038   4.146   0.668   1.516
 2827TIP3   OH230039   3.355   0.198   8.203
 2827TIP3    H130040   3.276   0.190   8.148
 2827TIP3    H230041   3.359   0.115   8.251
 2828TIP3   OH230042   0.668   5.384   0.726
 2828TIP3    H130043   0.582   5.411   0.695
 2828TIP3    H230044   0.715   5.359   0.646
 2829TIP3   OH230045   6.565   0.579   7.424
 2829TIP3    H130046   6.548   0.541   7.337
 2829TIP3    H230047   6.631   0.521   7.462
 2830TIP3   OH230048   4.209   2.934   1.047
 2830TIP3    H130049   4.180   3.022   1.071
 2830TIP3    H230050   4.301   2.931   1.073
 2831TIP3   OH230051   3.619   2.034   2.388
 2831TIP3    H130052   3.597   1.952   2.343
 2831TIP3    H230053   3.623   2.099   2.318
 2832TIP3   OH230054   6.683   3.505   8.058
 2832TIP3    H130055   6.746   3.432   8.062
 2832TIP3    H230056   6.659   3.510   7.965
 2833TIP3   OH230057   0.134   4.222   0.347
 2833TIP3    H130058   0.154   4.153   0.411
 2833TIP3    H230059   0.212   4.226   0.292
 2834TIP3   OH230060   0.924   1.312   7.929
 2834TIP3    H130061   0.893   1.385   7.982
 2834TIP3    H230062   1.003   1.282   7.974
 2835TIP3   OH230063   6.746   3.366   6.820
 2835TIP3    H130064   6.686   3.352   6.747
 2835TIP3    H230065   6.737   3.459   6.841
 2836TIP3   OH230066   4.688   0.221   8.538
 2836TIP3    H130067   4.624   0.150   8.528
 2836TIP3    H230068   4.637   0.301   8.526
 2837TIP3   OH230069   3.584   1.599   6.725
 2837TIP3    H130070   3.634   1.559   6.654
 2837TIP3    H230071   3.505   1.632   6.684
 2838TIP3   OH230072   1.220   3.992   2.194
 2838TIP3    H130073   1.284   4.018   2.261
 2838TIP3    H230074   1.272   3.943   2.130
 2839TIP3   OH230075   6.288   4.838   0.535
 2839TIP3    H130076   6.219   4.818   0.598
 2839TIP3    H230077   6.251   4.816   0.450
 2840TIP3   OH230078   0.577   0.503   0.090
 2840TIP3    H130079   0.604   0.580   0.041
 2840TIP3    H230080   0.625   0.510   0.173
 2841TIP3   OH230081   6.593   3.913   1.737
 2841TIP3    H130082   6.566   4.004   1.748
 2841TIP3    H230083   6.512   3.863   1.731
 2842TIP3   OH230084   5.103   1.546   1.183
 2842TIP3    H130085   5.045   1.605   1.135
 2842TIP3    H230086   5.114   1.587   1.269
 2843TIP3   OH230087   4.782   6.142   1.787
 2843TIP3    H130088   4.857   6.120   1.842
 2843TIP3    H230089   4.815   6.208   1.726
 2844TIP3   OH230090   2.596   4.301   0.708
 2844TIP3    H130091   2.510   4.285   0.670
 2844TIP3    H230092   2.591   4.265   0.797
 2845TIP3   OH230093   5.405   2.792   0.401
 2845TIP3    H130094   5.393   2.721   0.339
 2845TIP3    H230095   5.416   2.749   0.486
 2846TIP3   OH230096   1.337   4.849   8.488
 2846TIP3    H130097   1.426   4.816   8.500
 2846TIP3    H230098   1.322   4.908   8.562
 2847TIP3   OH230099   2.762   1.413   1.628
 2847TIP3    H130100   2.695   1.476   1.657
 2847TIP3    H230101   2.800   1.380   1.710
 2848TIP3   OH230102   1.104   2.284   1.763
 2848TIP3    H130103   1.130   2.198   1.796
 2848TIP3    H230104   1.185   2.336   1.766
 2849TIP3   OH230105   1.412   3.457   7.520
 2849TIP3    H130106   1.319   3.437   7.506
 2849TIP3    H230107   1.457   3.411   7.449
 2850TIP3   OH230108   5.266   2.574   2.030
 2850TIP3    H130109   5.193   2.516   2.052
 2850TIP3    H230110   5.224   2.656   2.004
 2851TIP3   OH230111   3.991   6.591   7.448
 2851TIP3    H130112   3.970   6.507   7.491
 2851TIP3    H230113   4.039   6.566   7.369
 2852TIP3   OH230114   5.456   6.531   2.456
 2852TIP3    H130115   5.462   6.470   2.529
 2852TIP3    H230116   5.483   6.615   2.493
 2853TIP3   OH230117   3.384   0.112   0.352
 2853TIP3    H130118   3.415   0.202   0.338
 2853TIP3    H230119   3.342   0.088   0.270
 2854TIP3   OH230120   5.172   3.475   7.820
 2854TIP3    H130121   5.170   3.568   7.799
 2854TIP3    H230122   5.149   3.431   7.738
 2855TIP3   OH230123   4.601   3.820   6.327
 2855TIP3    H130124   4.550   3.747   6.290
 2855TIP3    H230125   4.657   3.779   6.392
 2856TIP3   OH230126   0.615   3.768   7.208
 2856TIP3    H130127   0.570   3.824   7.272
 2856TIP3    H230128   0.555   3.764   7.133
 2857TIP3   OH230129   2.411   1.231   8.068
 2857TIP3    H130130   2.325   1.270   8.084
 2857TIP3    H230131   2.398   1.137   8.078
 2858TIP3   OH230132   0.183   1.479   6.425
 2858TIP3    H130133   0.205   1.386   6.424
 2858TIP3    H230134   0.144   1.496   6.339
 2859TIP3   OH230135   3.445   1.196   7.800
 2859TIP3    H130136   3.485   1.182   7.714
 2859TIP3    H230137   3.485   1.276   7.833
 2860TIP3   OH230138   6.832   3.304   8.102
 2860TIP3    H130139   6.835   3.278   8.194
 2860TIP3    H230140   0.041   3.283   8.068
 2861TIP3   OH230141   6.593   5.176   0.392
 2861TIP3    H130142   6.551   5.192   0.307
 2861TIP3    H230143   6.540   5.226   0.454
 2862TIP3   OH230144   5.597   1.826   1.923
 2862TIP3    H130145   5.502   1.812   1.930
 2862TIP3    H230146   5.623   1.775   1.846
 2863TIP3   OH230147   6.581   4.070   7.316
 2863TIP3    H130148   6.524   4.097   7.388
 2863TIP3    H230149   6.566   4.135   7.247
 2864TIP3   OH230150   6.735   3.839   1.179
 2864TIP3    H130151   6.724   3.747   1.155
 2864TIP3    H230152   6.668   3.853   1.247
 2865TIP3   OH230153   1.488   1.576   0.856
 2865TIP3    H130154   1.508   1.484   0.840
 2865TIP3    H230155   1.572   1.621   0.847
 2866TIP3   OH230156   2.921   4.386   7.825
 2866TIP3    H130157   2.992   4.404   7.764
 2866TIP3    H230158   2.885   4.302   7.796
 2867TIP3   OH230159   5.380   1.444   6.682
 2867TIP3    H130160   5.395   1.471   6.591
 2867TIP3    H230161   5.288   1.465   6.698
 2868TIP3   OH230162   3.441   2.920   7.617
 2868TIP3    H130163   3.447   2.938   7.711
 2868TIP3    H230164   3.350   2.938   7.595
 2869TIP3   OH230165   4.463   6.202   8.480
 2869TIP3    H130166   4.395   6.157   8.429
 2869TIP3    H230167   4.436   6.191   8.571
 2870TIP3   OH230168   2.371   6.280   1.812
 2870TIP3    H130169   2.382   6.221   1.737
 2870TIP3    H230170   2.341   6.224   1.883
 2871TIP3   OH230171   6.166   1.457   7.823
 2871TIP3    H130172   6.098   1.395   7.794
 2871TIP3    H230173   6.245   1.428   7.777
 2872TIP3   OH230174   6.372   1.358   7.248
 2872TIP3    H130175   6.305   1.384   7.312
 2872TIP3    H230176   6.322   1.337   7.169
 2873TIP3   OH230177   5.891   1.910   0.516
 2873TIP3    H130178   5.844   1.975   0.569
 2873TIP3    H230179   5.952   1.961   0.463
 2874TIP3   OH230180   6.500   3.693   0.196
 2874TIP3    H130181   6.468   3.721   0.282
 2874TIP3    H230182   6.571   3.632   0.216
 2875TIP3   OH230183   2.937   5.658   8.281
 2875TIP3    H130184   2.899   5.697   8.359
 2875TIP3    H230185   3.032   5.666   8.293
 2876TIP3   OH230186   4.097   3.673   7.762
 2876TIP3    H130187   4.076   3.746   7.704
 2876TIP3    H230188   4.012   3.636   7.785
 2877TIP3   OH230189   6.851   5.197   0.834
 2877TIP3    H130190   6.869   5.137   0.761
 2877TIP3    H230191   0.037   5.174   0.901
 2878TIP3   OH230192   6.692   2.206   8.257
 2878TIP3    H130193   6.746   2.184   8.181
 2878TIP3    H230194   6.669   2.298   8.244
 2879TIP3   OH230195   0.592   4.670   1.246
 2879TIP3    H130196   0.504   4.708   1.243
 2879TIP3    H230197   0.577   4.576   1.237
 2880TIP3   OH230198   2.691   0.445   7.531
 2880TIP3    H130199   2.625   0.408   7.591
 2880TIP3    H230200   2.752   0.492   7.589
 2881TIP3   OH230201   6.848   5.606   1.376
 2881TIP3    H130202   6.807   5.569   1.455
 2881TIP3    H230203   6.871   5.696   1.400
 2882TIP3   OH230204   1.197   0.887   8.181
 2882TIP3    H130205   1.255   0.810   8.183
 2882TIP3    H230206   1.208   0.923   8.094
 2883TIP3   OH230207   0.097   3.577   8.084
 2883TIP3    H130208   0.002   3.579   8.074
 2883TIP3    H230209   0.131   3.608   8.000
 2884TIP3   OH230210   1.460   1.314   7.305
 2884TIP3    H130211   1.462   1.302   7.210
 2884TIP3    H230212   1.540   1.362   7.325
 2885TIP3   OH230213   6.596   0.391   6.571
 2885TIP3    H130214   6.500   0.383   6.575
 2885TIP3    H230215   6.621   0.420   6.659
 2886TIP3   OH230216   4.538   1.117   8.357
 2886TIP3    H130217   4.518   1.028   8.327
 2886TIP3    H230218   4.504   1.174   8.288
 2887TIP3   OH230219   3.583   2.219   2.176
 2887TIP3    H130220   3.491   2.217   2.150
 2887TIP3    H230221   3.604   2.312   2.183
 2888TIP3   OH230222   3.312   2.971   0.294
 2888TIP3    H130223   3.305   2.879   0.266
 2888TIP3    H230224   3.378   3.009   0.237
 2889TIP3   OH230225   2.012   2.535   1.632
 2889TIP3    H130226   2.059   2.579   1.703
 2889TIP3    H230227   2.066   2.459   1.611
 2890TIP3   OH230228   1.827   2.351   7.742
 2890TIP3    H130229   1.793   2.297   7.813
 2890TIP3    H230230   1.754   2.409   7.719
 2891TIP3   OH230231   0.395   4.006   8.436
 2891TIP3    H130232   0.404   3.911   8.428
 2891TIP3    H230233   0.419   4.024   8.526
 2892TIP3   OH230234   5.832   0.389   7.993
 2892TIP3    H130235   5.913   0.338   7.993
 2892TIP3    H230236   5.861   0.479   8.007
 2893TIP3   OH230237   6.729   6.471   1.121
 2893TIP3    H130238   6.658   6.430   1.071
 2893TIP3    H230239   6.738   6.416   1.199
 2894TIP3   OH230240   5.903   3.842   0.374
 2894TIP3    H130241   5.940   3.914   0.322
 2894TIP3    H230242   5.821   3.877   0.409
 2895TIP3   OH230243   3.098   6.355   0.451
 2895TIP3    H130244   3.129   6.441   0.422
 2895TIP3    H230245   3.009   6.349   0.418
 2896TIP3   OH230246   2.153   3.923   1.379
 2896TIP3    H130247   2.159   4.014   1.350
 2896TIP3    H230248   2.204   3.921   1.460
 2897TIP3   OH230249   5.758   5.314   8.495
 2897TIP3    H130250   5.663   5.321   8.486
 2897TIP3    H230251   5.792   5.395   8.458
 2898TIP3   OH230252   6.715   5.347   7.296
 2898TIP3    H130253   6.653   5.392   7.353
 2898TIP3    H230254   6.783   5.412   7.278
 2899TIP3   OH230255   5.767   5.701   2.299
 2899TIP3    H130256   5.701   5.687   2.367
 2899TIP3    H230257   5.823   5.623   2.304
 2900TIP3   OH230258   3.225   2.737   0.766
 2900TIP3    H130259   3.153   2.684   0.732
 2900TIP3    H230260   3.301   2.679   0.763
 2901TIP3   OH230261   0.576   4.588   6.519
 2901TIP3    H130262   0.515   4.663   6.517
 2901TIP3    H230263   0.568   4.553   6.608
 2902TIP3   OH230264   2.104   2.874   0.500
 2902TIP3    H130265   2.058   2.790   0.496
 2902TIP3    H230266   2.110   2.894   0.593
 2903TIP3   OH230267   4.489   2.488   1.253
 2903TIP3    H130268   4.567   2.534   1.283
 2903TIP3    H230269   4.436   2.477   1.332
 2904TIP3   OH230270   5.783   3.910   7.447
 2904TIP3    H130271   5.803   3.976   7.514
 2904TIP3    H230272   5.795   3.957   7.364
 2905TIP3   OH230273   2.535   5.897   0.040
 2905TIP3    H130274   2.589   5.898   0.119
 2905TIP3    H230275   2.476   5.822   0.052
 2906TIP3   OH230276   0.086   1.474   8.147
 2906TIP3    H130277   0.126   1.465   8.060
 2906TIP3    H230278   0.135   1.412   8.202
 2907TIP3   OH230279   5.308   0.072   8.583
 2907TIP3    H130280   5.257   6.873   8.558
 2907TIP3    H230281   5.365   0.088   8.509
 2908TIP3   OH230282   3.092   0.746   1.314
 2908TIP3    H130283   3.100   0.659   1.352
 2908TIP3    H230284   3.174   0.758   1.266
 2909TIP3   OH230285   4.683   5.051   8.416
 2909TIP3    H130286   4.717   5.006   8.493
 2909TIP3    H230287   4.627   5.120   8.452
 2910TIP3   OH230288   2.909   0.995   7.617
 2910TIP3    H130289   2.838   0.936   7.640
 2910TIP3    H230290   2.969   0.992   7.691
 2911TIP3   OH230291   3.730   3.594   1.155
 2911TIP3    H130292   3.656   3.644   1.121
 2911TIP3    H230293   3.720   3.596   1.250
 2912TIP3   OH230294   0.879   0.026   1.958
 2912TIP3    H130295   0.867   6.835   1.892
 2912TIP3    H230296   0.967   0.060   1.942
 2913TIP3   OH230297   5.234   4.447   0.394
 2913TIP3    H130298   5.314   4.394   0.403
 2913TIP3    H230299   5.219   4.451   0.300
 2914TIP3   OH230300   4.658   2.654   7.214
 2914TIP3    H130301   4.619   2.568   7.229
 2914TIP3    H230302   4.583   2.713   7.207
 2915TIP3   OH230303   6.632   5.952   7.722
 2915TIP3    H130304   6.667   5.869   7.690
 2915TIP3    H230305   6.706   5.996   7.763
 2916TIP3   OH230306   5.648   1.622   7.546
 2916TIP3    H130307   5.568   1.676   7.542
 2916TIP3    H230308   5.701   1.664   7.614
 2917TIP3   OH230309   3.339   4.274   1.052
 2917TIP3    H130310   3.340   4.365   1.023
 2917TIP3    H230311   3.258   4.265   1.102
 2918TIP3   OH230312   4.708   2.975   7.111
 2918TIP3    H130313   4.727   2.956   7.020
 2918TIP3    H230314   4.693   3.070   7.113
 2919TIP3   OH230315   4.116   2.715   0.128
 2919TIP3    H130316   4.059   2.680   0.059
 2919TIP3    H230317   4.062   2.712   0.207
 2920TIP3   OH230318   0.796   3.134   0.360
 2920TIP3    H130319   0.782   3.054   0.412
 2920TIP3    H230320   0.888   3.131   0.336
 2921TIP3   OH230321   3.339   1.156   8.264
 2921TIP3    H130322   3.317   1.234   8.212
 2921TIP3    H230323   3.273   1.155   8.334
 2922TIP3   OH230324   6.070   3.580   7.387
 2922TIP3    H130325   6.126   3.562   7.463
 2922TIP3    H230326   5.982   3.585   7.423
 2923TIP3   OH230327   5.393   1.833   7.793
 2923TIP3    H130328   5.420   1.924   7.805
 2923TIP3    H230329   5.373   1.802   7.881
 2924TIP3   OH230330   5.632   2.204   0.173
 2924TIP3    H130331   5.705   2.143   0.159
 2924TIP3    H230332   5.673   2.291   0.174
 2925TIP3   OH230333   4.717   2.674   2.205
 2925TIP3    H130334   4.700   2.639   2.292
 2925TIP3    H230335   4.718   2.769   2.217
 2926TIP3   OH230336   3.501   1.276   1.297
 2926TIP3    H130337   3.409   1.257   1.280
 2926TIP3    H230338   3.518   1.357   1.249
 2927TIP3   OH230339   2.829   2.058   6.486
 2927TIP3    H130340   2.900   2.116   6.513
 2927TIP3    H230341   2.750   2.111   6.491
 2928TIP3   OH230342   1.456   5.426   1.104
 2928TIP3    H130343   1.493   5.496   1.158
 2928TIP3    H230344   1.471   5.455   1.013
 2929TIP3   OH230345   1.200   5.292   2.423
 2929TIP3    H130346   1.252   5.371   2.411
 2929TIP3    H230347   1.254   5.222   2.386
 2930TIP3   OH230348   0.842   5.910   0.963
 2930TIP3    H130349   0.888   5.830   0.936
 2930TIP3    H230350   0.751   5.894   0.938
 2931TIP3   OH230351   6.017   1.952   1.599
 2931TIP3    H130352   5.928   1.987   1.594
 2931TIP3    H230353   6.042   1.938   1.508
 2932TIP3   OH230354   0.183   5.537   8.156
 2932TIP3    H130355   0.116   5.567   8.094
 2932TIP3    H230356   0.189   5.442   8.141
 2933TIP3   OH230357   1.117   2.263   6.660
 2933TIP3    H130358   1.174   2.190   6.687
 2933TIP3    H230359   1.175   2.339   6.662
 2934TIP3   OH230360   0.389   1.336   1.742
 2934TIP3    H130361   0.306   1.322   1.788
 2934TIP3    H230362   0.365   1.338   1.650
 2935TIP3   OH230363   4.774   5.223   8.217
 2935TIP3    H130364   4.716   5.189   8.285
 2935TIP3    H230365   4.835   5.151   8.199
 2936TIP3   OH230366   5.753   5.199   7.468
 2936TIP3    H130367   5.696   5.274   7.455
 2936TIP3    H230368   5.812   5.225   7.539
 2937TIP3   OH230369   2.336   2.396   7.568
 2937TIP3    H130370   2.366   2.479   7.531
 2937TIP3    H230371   2.241   2.406   7.575
 2938TIP3   OH230372   4.811   5.288   0.834
 2938TIP3    H130373   4.785   5.291   0.926
 2938TIP3    H230374   4.842   5.199   0.821
 2939TIP3   OH230375   2.252   0.626   0.737
 2939TIP3    H130376   2.320   0.666   0.791
 2939TIP3    H230377   2.239   0.689   0.666
 2940TIP3   OH230378   4.902   3.311   7.520
 2940TIP3    H130379   4.846   3.247   7.475
 2940TIP3    H230380   4.850   3.391   7.521
 2941TIP3   OH230381   2.909   3.282   7.750
 2941TIP3    H130382   2.972   3.211   7.732
 2941TIP3    H230383   2.927   3.308   7.840
 2942TIP3   OH230384   3.023   2.314   0.804
 2942TIP3    H130385   3.111   2.326   0.769
 2942TIP3    H230386   2.971   2.284   0.730
 2943TIP3   OH230387   3.364   1.767   6.556
 2943TIP3    H130388   3.411   1.757   6.473
 2943TIP3    H230389   3.303   1.694   6.558
 2944TIP3   OH230390   0.569   4.747   8.595
 2944TIP3    H130391   0.531   4.731   8.509
 2944TIP3    H230392   0.604   4.836   8.590
 2945TIP3   OH230393   0.281   5.500   1.356
 2945TIP3    H130394   0.262   5.410   1.328
 2945TIP3    H230395   0.209   5.551   1.319
 2946TIP3   OH230396   0.786   4.988   8.465
 2946TIP3    H130397   0.881   4.981   8.457
 2946TIP3    H230398   0.753   4.955   8.381
 2947TIP3   OH230399   1.275   3.486   0.944
 2947TIP3    H130400   1.273   3.511   0.852
 2947TIP3    H230401   1.277   3.390   0.943
 2948TIP3   OH230402   1.225   3.400   7.141
 2948TIP3    H130403   1.271   3.386   7.224
 2948TIP3    H230404   1.286   3.367   7.074
 2949TIP3   OH230405   4.968   3.849   2.104
 2949TIP3    H130406   5.053   3.892   2.100
 2949TIP3    H230407   4.924   3.889   2.178
 2950TIP3   OH230408   2.921   2.851   6.554
 2950TIP3    H130409   2.887   2.904   6.626
 2950TIP3    H230410   2.900   2.901   6.475
 2951TIP3   OH230411   6.484   5.564   7.409
 2951TIP3    H130412   6.418   5.632   7.419
 2951TIP3    H230413   6.484   5.517   7.493
 2952TIP3   OH230414   6.087   4.871   1.589
 2952TIP3    H130415   6.042   4.856   1.672
 2952TIP3    H230416   6.179   4.878   1.614
 2953TIP3   OH230417   2.688   1.959   0.625
 2953TIP3    H130418   2.736   1.962   0.542
 2953TIP3    H230419   2.626   2.032   0.619
 2954TIP3   OH230420   3.934   4.561   6.772
 2954TIP3    H130421   3.875   4.503   6.722
 2954TIP3    H230422   3.989   4.501   6.823
 2955TIP3   OH230423   2.636   2.506   0.591
 2955TIP3    H130424   2.589   2.587   0.569
 2955TIP3    H230425   2.567   2.441   0.602
 2956TIP3   OH230426   5.669   3.011   1.238
 2956TIP3    H130427   5.637   3.081   1.181
 2956TIP3    H230428   5.591   2.959   1.259
 2957TIP3   OH230429   2.709   1.781   0.029
 2957TIP3    H130430   2.715   1.797   8.586
 2957TIP3    H230431   2.648   1.707   0.036
 2958TIP3   OH230432   4.082   2.089   1.868
 2958TIP3    H130433   4.099   2.038   1.947
 2958TIP3    H230434   4.036   2.167   1.900
 2959TIP3   OH230435   0.045   1.326   0.433
 2959TIP3    H130436   0.135   1.306   0.407
 2959TIP3    H230437   0.053   1.402   0.490
 2960TIP3   OH230438   2.836   2.184   7.369
 2960TIP3    H130439   2.801   2.203   7.282
 2960TIP3    H230440   2.836   2.089   7.375
 2961TIP3   OH230441   4.866   3.960   1.038
 2961TIP3    H130442   4.865   3.924   1.127
 2961TIP3    H230443   4.959   3.971   1.018
 2962TIP3   OH230444   0.911   3.920   7.818
 2962TIP3    H130445   0.957   3.850   7.772
 2962TIP3    H230446   0.829   3.880   7.847
 2963TIP3   OH230447   2.615   3.642   7.481
 2963TIP3    H130448   2.655   3.574   7.536
 2963TIP3    H230449   2.665   3.721   7.501
 2964TIP3   OH230450   2.873   6.200   8.168
 2964TIP3    H130451   2.856   6.148   8.247
 2964TIP3    H230452   2.828   6.153   8.098
 2965TIP3   OH230453   0.755   4.236   0.921
 2965TIP3    H130454   0.799   4.218   1.005
 2965TIP3    H230455   0.826   4.241   0.858
 2966TIP3   OH230456   0.805   3.152   2.418
 2966TIP3    H130457   0.899   3.155   2.433
 2966TIP3    H230458   0.790   3.068   2.375
 2967TIP3   OH230459   1.282   6.044   1.463
 2967TIP3    H130460   1.230   6.124   1.471
 2967TIP3    H230461   1.277   6.003   1.549
 2968TIP3   OH230462   6.573   6.682   1.628
 2968TIP3    H130463   6.552   6.589   1.620
 2968TIP3    H230464   6.562   6.701   1.721
 2969TIP3   OH230465   1.888   0.482   8.180
 2969TIP3    H130466   1.828   0.492   8.254
 2969TIP3    H230467   1.943   0.560   8.183
 2970TIP3   OH230468   1.179   6.133   1.737
 2970TIP3    H130469   1.165   6.178   1.820
 2970TIP3    H230470   1.184   6.204   1.672
 2971TIP3   OH230471   2.485   6.009   8.372
 2971TIP3    H130472   2.502   6.071   8.301
 2971TIP3    H230473   2.570   5.998   8.415
 2972TIP3   OH230474   5.174   2.052   0.793
 2972TIP3    H130475   5.171   1.995   0.870
 2972TIP3    H230476   5.164   1.993   0.718
 2973TIP3   OH230477   0.787   6.220   2.156
 2973TIP3    H130478   0.856   6.252   2.215
 2973TIP3    H230479   0.832   6.158   2.098
 2974TIP3   OH230480   5.188   2.902   1.206
 2974TIP3    H130481   5.188   2.994   1.233
 2974TIP3    H230482   5.271   2.867   1.239
 2975TIP3   OH230483   3.295   4.746   0.502
 2975TIP3    H130484   3.316   4.738   0.595
 2975TIP3    H230485   3.358   4.809   0.468
 2976TIP3   OH230486   5.565   1.476   0.088
 2976TIP3    H130487   5.573   1.469   8.644
 2976TIP3    H230488   5.649   1.446   0.122
 2977TIP3   OH230489   2.358   4.671   1.482
 2977TIP3    H130490   2.326   4.603   1.422
 2977TIP3    H230491   2.342   4.636   1.569
 2978TIP3   OH230492   3.539   4.444   7.206
 2978TIP3    H130493   3.453   4.414   7.235
 2978TIP3    H230494   3.531   4.540   7.201
 2979TIP3   OH230495   0.451   0.774   7.576
 2979TIP3    H130496   0.477   0.783   7.484
 2979TIP3    H230497   0.512   0.830   7.624
 2980TIP3   OH230498   4.197   5.306   6.315
 2980TIP3    H130499   4.181   5.395   6.348
 2980TIP3    H230500   4.137   5.251   6.365
 2981TIP3   OH230501   1.568   6.604   2.453
 2981TIP3    H130502   1.531   6.653   2.527
 2981TIP3    H230503   1.501   6.540   2.431
 2982TIP3   OH230504   0.035   2.582   1.234
 2982TIP3    H130505   0.049   2.546   1.321
 2982TIP3    H230506   0.033   2.506   1.176
 2983TIP3   OH230507   0.717   1.617   2.151
 2983TIP3    H130508   0.730   1.528   2.118
 2983TIP3    H230509   0.730   1.673   2.075
 2984TIP3   OH230510   1.599   2.434   0.465
 2984TIP3    H130511   1.593   2.444   0.560
 2984TIP3    H230512   1.666   2.367   0.452
 2985TIP3   OH230513   5.826   3.072   7.056
 2985TIP3    H130514   5.867   3.098   6.974
 2985TIP3    H230515   5.884   3.108   7.124
 2986TIP3   OH230516   2.852   2.896   7.889
 2986TIP3    H130517   2.770   2.893   7.840
 2986TIP3    H230518   2.829   2.937   7.972
 2987TIP3   OH230519   1.646   6.474   1.607
 2987TIP3    H130520   1.551   6.468   1.597
 2987TIP3    H230521   1.660   6.480   1.702
 2988TIP3   OH230522   5.687   0.140   1.693
 2988TIP3    H130523   5.664   0.123   1.784
 2988TIP3    H230524   5.606   0.128   1.644
 2989TIP3   OH230525   1.660   4.741   6.045
 2989TIP3    H130526   1.666   4.701   6.132
 2989TIP3    H230527   1.750   4.746   6.014
 2990TIP3   OH230528   4.383   5.044   1.366
 2990TIP3    H130529   4.385   5.131   1.407
 2990TIP3    H230530   4.409   5.060   1.275
 2991TIP3   OH230531   3.270   1.909   7.857
 2991TIP3    H130532   3.281   1.911   7.762
 2991TIP3    H230533   3.316   1.830   7.885
 2992TIP3   OH230534   6.561   5.015   2.054
 2992TIP3    H130535   6.515   5.095   2.079
 2992TIP3    H230536   6.546   5.008   1.960
 2993TIP3   OH230537   1.324   2.428   0.437
 2993TIP3    H130538   1.413   2.404   0.462
 2993TIP3    H230539   1.333   2.513   0.393
 2994TIP3   OH230540   0.354   0.462   7.117
 2994TIP3    H130541   0.343   0.442   7.024
 2994TIP3    H230542   0.325   0.383   7.162
 2995TIP3   OH230543   2.143   1.190   0.503
 2995TIP3    H130544   2.173   1.277   0.477
 2995TIP3    H230545   2.047   1.197   0.504
 2996TIP3   OH230546   2.284   2.702   0.678
 2996TIP3    H130547   2.260   2.626   0.732
 2996TIP3    H230548   2.243   2.776   0.722
 2997TIP3   OH230549   1.696   4.984   1.457
 2997TIP3    H130550   1.612   4.951   1.491
 2997TIP3    H230551   1.685   4.983   1.362
 2998TIP3   OH230552   1.439   4.076   7.207
 2998TIP3    H130553   1.458   4.114   7.121
 2998TIP3    H230554   1.518   4.092   7.259
 2999TIP3   OH230555   4.520   0.274   7.619
 2999TIP3    H130556   4.614   0.283   7.634
 2999TIP3    H230557   4.495   0.352   7.571
 3000TIP3   OH230558   4.992   2.354   6.232
 3000TIP3    H130559   4.979   2.314   6.318
 3000TIP3    H230560   5.079   2.325   6.204
 3001TIP3   OH230561   3.800   0.263   8.307
 3001TIP3    H130562   3.737   0.198   8.274
 3001TIP3    H230563   3.812   0.239   8.399
 3002TIP3   OH230564   6.861   2.448   8.522
 3002TIP3    H130565   6.771   2.445   8.489
 3002TIP3    H230566   0.004   2.357   8.543
 3003TIP3   OH230567   0.894   1.151   1.040
 3003TIP3    H130568   0.966   1.177   0.982
 3003TIP3    H230569   0.867   1.065   1.008
 3004TIP3   OH230570   3.291   6.468   1.841
 3004TIP3    H130571   3.205   6.509   1.851
 3004TIP3    H230572   3.271   6.380   1.807
 3005TIP3   OH230573   3.805   6.601   8.254
 3005TIP3    H130574   3.889   6.636   8.223
 3005TIP3    H230575   3.799   6.514   8.215
 3006TIP3   OH230576   6.468   6.273   0.973
 3006TIP3    H130577   6.385   6.260   1.020
 3006TIP3    H230578   6.442   6.270   0.880
 3007TIP3   OH230579   3.780   3.823   0.846
 3007TIP3    H130580   3.798   3.810   0.939
 3007TIP3    H230581   3.765   3.734   0.812
 3008TIP3   OH230582   3.627   4.388   8.105
 3008TIP3    H130583   3.639   4.314   8.045
 3008TIP3    H230584   3.555   4.439   8.067
 3009TIP3   OH230585   2.454   6.689   7.240
 3009TIP3    H130586   2.537   6.698   7.287
 3009TIP3    H230587   2.476   6.638   7.163
 3010TIP3   OH230588   5.188   5.732   0.140
 3010TIP3    H130589   5.162   5.750   0.230
 3010TIP3    H230590   5.110   5.695   0.099
 3011TIP3   OH230591   3.561   2.057   0.190
 3011TIP3    H130592   3.500   2.024   0.124
 3011TIP3    H230593   3.520   2.137   0.223
 3012TIP3   OH230594   5.473   2.743   8.321
 3012TIP3    H130595   5.530   2.753   8.245
 3012TIP3    H230596   5.510   2.803   8.386
 3013TIP3   OH230597   4.579   5.769   7.318
 3013TIP3    H130598   4.544   5.772   7.230
 3013TIP3    H230599   4.661   5.720   7.309
 3014TIP3   OH230600   3.905   2.212   6.496
 3014TIP3    H130601   3.965   2.167   6.436
 3014TIP3    H230602   3.940   2.301   6.501
 3015TIP3   OH230603   2.700   5.473   8.549
 3015TIP3    H130604   2.736   5.407   8.490
 3015TIP3    H230605   2.762   5.546   8.544
 3016TIP3   OH230606   2.928   3.661   0.682
 3016TIP3    H130607   2.873   3.649   0.759
 3016TIP3    H230608   2.985   3.734   0.704
 3017TIP3   OH230609   6.680   2.799   7.463
 3017TIP3    H130610   6.599   2.749   7.475
 3017TIP3    H230611   6.664   2.852   7.385
 3018TIP3   OH230612   4.437   1.922   0.062
 3018TIP3    H130613   4.352   1.907   0.103
 3018TIP3    H230614   4.432   1.877   8.629
 3019TIP3   OH230615   3.727   2.147   1.353
 3019TIP3    H130616   3.781   2.130   1.275
 3019TIP3    H230617   3.713   2.061   1.392
 3020TIP3   OH230618   2.457   1.140   6.627
 3020TIP3    H130619   2.440   1.095   6.544
 3020TIP3    H230620   2.420   1.083   6.694
 3021TIP3   OH230621   2.318   3.460   7.544
 3021TIP3    H130622   2.287   3.383   7.496
 3021TIP3    H230623   2.312   3.532   7.480
 3022TIP3   OH230624   3.065   6.548   1.978
 3022TIP3    H130625   3.009   6.547   1.900
 3022TIP3    H230626   3.067   6.640   2.004
 3023TIP3   OH230627   0.179   3.230   0.763
 3023TIP3    H130628   0.181   3.181   0.845
 3023TIP3    H230629   0.132   3.173   0.702
 3024TIP3   OH230630   5.145   1.576   7.529
 3024TIP3    H130631   5.207   1.649   7.531
 3024TIP3    H230632   5.059   1.617   7.540
 3025TIP3   OH230633   1.778   3.744   2.032
 3025TIP3    H130634   1.725   3.799   1.973
 3025TIP3    H230635   1.817   3.806   2.093
 3026TIP3   OH230636   6.694   6.829   7.981
 3026TIP3    H130637   6.644   6.777   8.044
 3026TIP3    H230638   6.785   6.809   8.000
 3027TIP3   OH230639   3.888   4.454   8.498
 3027TIP3    H130640   3.867   4.484   8.409
 3027TIP3    H230641   3.905   4.360   8.489
 3028TIP3   OH230642   6.347   2.587   6.360
 3028TIP3    H130643   6.404   2.602   6.285
 3028TIP3    H230644   6.369   2.658   6.421
 3029TIP3   OH230645   5.175   5.751   2.014
 3029TIP3    H130646   5.120   5.674   2.028
 3029TIP3    H230647   5.186   5.788   2.102
 3030TIP3   OH230648   2.024   4.840   0.240
 3030TIP3    H130649   2.079   4.762   0.237
 3030TIP3    H230650   1.981   4.843   0.155
 3031TIP3   OH230651   6.615   4.476   1.410
 3031TIP3    H130652   6.697   4.463   1.363
 3031TIP3    H230653   6.549   4.433   1.356
 3032TIP3   OH230654   3.350   3.413   6.801
 3032TIP3    H130655   3.399   3.388   6.879
 3032TIP3    H230656   3.353   3.509   6.801
 3033TIP3   OH230657   2.627   3.842   1.061
 3033TIP3    H130658   2.695   3.791   1.104
 3033TIP3    H230659   2.562   3.859   1.129
 3034TIP3   OH230660   1.611   6.197   2.476
 3034TIP3    H130661   1.700   6.208   2.510
 3034TIP3    H230662   1.557   6.257   2.529
 3035TIP3   OH230663   3.509   6.660   1.672
 3035TIP3    H130664   3.435   6.652   1.612
 3035TIP3    H230665   3.562   6.731   1.636
 3036TIP3   OH230666   5.751   2.455   0.143
 3036TIP3    H130667   5.825   2.424   0.091
 3036TIP3    H230668   5.709   2.520   0.087
 3037TIP3   OH230669   4.234   4.489   0.208
 3037TIP3    H130670   4.302   4.509   0.143
 3037TIP3    H230671   4.206   4.575   0.241
 3038TIP3   OH230672   1.126   4.504   6.714
 3038TIP3    H130673   1.195   4.456   6.667
 3038TIP3    H230674   1.053   4.507   6.653
 3039TIP3   OH230675   1.907   2.690   8.012
 3039TIP3    H130676   1.910   2.720   8.103
 3039TIP3    H230677   1.829   2.732   7.976
 3040TIP3   OH230678   5.791   4.742   7.971
 3040TIP3    H130679   5.845   4.684   8.025
 3040TIP3    H230680   5.709   4.750   8.020
 3041TIP3   OH230681   4.030   1.137   1.696
 3041TIP3    H130682   4.042   1.108   1.606
 3041TIP3    H230683   4.056   1.229   1.695
 3042TIP3   OH230684   3.108   0.101   1.188
 3042TIP3    H130685   3.045   0.031   1.205
 3042TIP3    H230686   3.149   0.077   1.105
 3043TIP3   OH230687   4.808   0.380   7.602
 3043TIP3    H130688   4.786   0.468   7.631
 3043TIP3    H230689   4.881   0.353   7.659
 3044TIP3   OH230690   6.734   6.038   1.894
 3044TIP3    H130691   6.713   5.989   1.974
 3044TIP3    H230692   6.687   6.121   1.904
 3045TIP3   OH230693   2.750   6.221   2.186
 3045TIP3    H130694   2.689   6.294   2.172
 3045TIP3    H230695   2.834   6.264   2.204
 3046TIP3   OH230696   5.838   3.680   2.099
 3046TIP3    H130697   5.801   3.613   2.042
 3046TIP3    H230698   5.796   3.665   2.184
 3047TIP3   OH230699   5.691   2.889   1.767
 3047TIP3    H130700   5.663   2.931   1.848
 3047TIP3    H230701   5.774   2.846   1.790
 3048TIP3   OH230702   2.810   0.095   6.901
 3048TIP3    H130703   2.734   0.039   6.885
 3048TIP3    H230704   2.883   0.034   6.914
 3049TIP3   OH230705   0.443   5.950   8.233
 3049TIP3    H130706   0.348   5.955   8.238
 3049TIP3    H230707   0.471   5.928   8.322
 3050TIP3   OH230708   1.704   1.540   7.885
 3050TIP3    H130709   1.675   1.514   7.972
 3050TIP3    H230710   1.784   1.490   7.870
 3051TIP3   OH230711   1.616   1.480   8.535
 3051TIP3    H130712   1.625   1.430   8.453
 3051TIP3    H230713   1.706   1.500   8.561
 3052TIP3   OH230714   5.760   6.375   7.918
 3052TIP3    H130715   5.808   6.339   7.992
 3052TIP3    H230716   5.760   6.305   7.853
 3053TIP3   OH230717   0.305   6.535   8.383
 3053TIP3    H130718   0.257   6.569   8.459
 3053TIP3    H230719   0.255   6.568   8.308
 3054TIP3   OH230720   1.794   3.631   1.411
 3054TIP3    H130721   1.783   3.589   1.325
 3054TIP3    H230722   1.810   3.723   1.389
 3055TIP3   OH230723   3.642   4.595   7.682
 3055TIP3    H130724   3.583   4.585   7.607
 3055TIP3    H230725   3.600   4.662   7.737
 3056TIP3   OH230726   4.625   4.539   7.539
 3056TIP3    H130727   4.716   4.530   7.513
 3056TIP3    H230728   4.575   4.496   7.470
 3057TIP3   OH230729   5.719   6.267   1.080
 3057TIP3    H130730   5.649   6.260   1.016
 3057TIP3    H230731   5.767   6.184   1.073
 3058TIP3   OH230732   6.527   0.568   0.107
 3058TIP3    H130733   6.442   0.523   0.109
 3058TIP3    H230734   6.592   0.498   0.110
 3059TIP3   OH230735   5.864   0.648   8.008
 3059TIP3    H130736   5.888   0.699   7.930
 3059TIP3    H230737   5.900   0.699   8.081
 3060TIP3   OH230738   2.014   1.189   6.999
 3060TIP3    H130739   2.044   1.140   6.922
 3060TIP3    H230740   2.020   1.281   6.972
 3061TIP3   OH230741   0.171   6.588   6.908
 3061TIP3    H130742   0.235   6.659   6.905
 3061TIP3    H230743   0.223   6.508   6.907
 3062TIP3   OH230744   6.580   6.029   1.264
 3062TIP3    H130745   6.603   5.953   1.317
 3062TIP3    H230746   6.565   5.993   1.176
 3063TIP3   OH230747   5.763   0.117   8.527
 3063TIP3    H130748   5.805   0.191   8.484
 3063TIP3    H230749   5.689   0.157   8.574
 3064TIP3   OH230750   2.707   6.400   0.860
 3064TIP3    H130751   2.667   6.340   0.922
 3064TIP3    H230752   2.759   6.344   0.802
 3065TIP3   OH230753   2.511   0.819   7.174
 3065TIP3    H130754   2.543   0.771   7.250
 3065TIP3    H230755   2.428   0.777   7.152
 3066TIP3   OH230756   2.672   3.341   2.174
 3066TIP3    H130757   2.587   3.301   2.192
 3066TIP3    H230758   2.733   3.297   2.234
 3067TIP3   OH230759   4.653   0.109   1.350
 3067TIP3    H130760   4.655   0.125   1.256
 3067TIP3    H230761   4.746   0.106   1.375
 3068TIP3   OH230762   3.241   2.071   8.452
 3068TIP3    H130763   3.285   2.072   8.367
 3068TIP3    H230764   3.306   2.033   8.511
 3069TIP3   OH230765   6.326   0.465   0.748
 3069TIP3    H130766   6.382   0.434   0.819
 3069TIP3    H230767   6.364   0.426   0.669
 3070TIP3   OH230768   6.371   2.252   7.399
 3070TIP3    H130769   6.351   2.316   7.468
 3070TIP3    H230770   6.466   2.240   7.405
 3071TIP3   OH230771   2.704   5.025   0.727
 3071TIP3    H130772   2.754   5.040   0.807
 3071TIP3    H230773   2.761   4.970   0.673
 3072TIP3   OH230774   2.137   4.423   1.066
 3072TIP3    H130775   2.187   4.397   0.988
 3072TIP3    H230776   2.121   4.517   1.054
 3073TIP3   OH230777   2.454   0.930   6.138
 3073TIP3    H130778   2.458   0.921   6.043
 3073TIP3    H230779   2.541   0.960   6.163
 3074TIP3   OH230780   4.927   5.017   6.676
 3074TIP3    H130781   4.939   4.984   6.587
 3074TIP3    H230782   4.887   5.103   6.665
 3075TIP3   OH230783   5.715   5.173   1.037
 3075TIP3    H130784   5.671   5.216   0.964
 3075TIP3    H230785   5.647   5.119   1.079
 3076TIP3   OH230786   4.245   4.298   7.828
 3076TIP3    H130787   4.170   4.279   7.772
 3076TIP3    H230788   4.279   4.381   7.796
 3077TIP3   OH230789   3.233   0.506   6.046
 3077TIP3    H130790   3.155   0.453   6.028
 3077TIP3    H230791   3.305   0.444   6.043
 3078TIP3   OH230792   2.882   1.787   0.800
 3078TIP3    H130793   2.898   1.863   0.743
 3078TIP3    H230794   2.799   1.751   0.769
 3079TIP3   OH230795   0.907   1.117   7.718
 3079TIP3    H130796   0.836   1.164   7.675
 3079TIP3    H230797   0.926   1.169   7.796
 3080TIP3   OH230798   2.750   2.707   8.625
 3080TIP3    H130799   2.830   2.725   0.022
 3080TIP3    H230800   2.769   2.733   8.535
 3081TIP3   OH230801   0.581   5.989   7.826
 3081TIP3    H130802   0.515   6.012   7.761
 3081TIP3    H230803   0.540   5.921   7.879
 3082TIP3   OH230804   5.645   5.533   0.888
 3082TIP3    H130805   5.623   5.443   0.864
 3082TIP3    H230806   5.734   5.528   0.921
 3083TIP3   OH230807   2.979   1.707   0.433
 3083TIP3    H130808   2.964   1.675   0.344
 3083TIP3    H230809   2.899   1.754   0.455
 3084TIP3   OH230810   4.189   1.645   1.898
 3084TIP3    H130811   4.160   1.650   1.989
 3084TIP3    H230812   4.117   1.683   1.848
 3085TIP3   OH230813   0.052   5.385   6.531
 3085TIP3    H130814   0.129   5.421   6.486
 3085TIP3    H230815   6.869   5.458   6.537
 3086TIP3   OH230816   6.726   0.391   6.962
 3086TIP3    H130817   6.772   0.324   7.013
 3086TIP3    H230818   6.647   0.348   6.930
 3087TIP3   OH230819   6.536   2.605   2.076
 3087TIP3    H130820   6.509   2.517   2.049
 3087TIP3    H230821   6.498   2.663   2.010
 3088TIP3   OH230822   6.572   1.378   7.430
 3088TIP3    H130823   6.652   1.370   7.379
 3088TIP3    H230824   6.501   1.367   7.366
 3089TIP3   OH230825   2.873   5.831   0.011
 3089TIP3    H130826   2.924   5.871   8.591
 3089TIP3    H230827   2.938   5.789   0.067
 3090TIP3   OH230828   6.329   6.708   1.104
 3090TIP3    H130829   6.424   6.716   1.106
 3090TIP3    H230830   6.309   6.673   1.017
 3091TIP3   OH230831   2.179   5.791   1.574
 3091TIP3    H130832   2.168   5.858   1.506
 3091TIP3    H230833   2.106   5.730   1.560
 3092TIP3   OH230834   3.724   3.288   0.823
 3092TIP3    H130835   3.812   3.257   0.841
 3092TIP3    H230836   3.678   3.278   0.906
 3093TIP3   OH230837   5.158   1.207   0.599
 3093TIP3    H130838   5.163   1.122   0.557
 3093TIP3    H230839   5.109   1.262   0.538
 3094TIP3   OH230840   5.942   1.817   0.172
 3094TIP3    H130841   6.037   1.827   0.183
 3094TIP3    H230842   5.931   1.788   0.081
 3095TIP3   OH230843   3.435   1.549   8.228
 3095TIP3    H130844   3.495   1.525   8.157
 3095TIP3    H230845   3.358   1.495   8.214
 3096TIP3   OH230846   1.601   3.391   6.254
 3096TIP3    H130847   1.656   3.386   6.176
 3096TIP3    H230848   1.628   3.472   6.297
 3097TIP3   OH230849   3.156   4.853   1.645
 3097TIP3    H130850   3.126   4.808   1.724
 3097TIP3    H230851   3.250   4.864   1.659
 3098TIP3   OH230852   2.116   3.214   0.650
 3098TIP3    H130853   2.071   3.291   0.616
 3098TIP3    H230854   2.069   3.194   0.732
 3099TIP3   OH230855   2.561   5.293   1.707
 3099TIP3    H130856   2.533   5.384   1.711
 3099TIP3    H230857   2.484   5.245   1.675
 3100TIP3   OH230858   4.345   3.128   7.239
 3100TIP3    H130859   4.316   3.180   7.165
 3100TIP3    H230860   4.437   3.152   7.251
 3101TIP3   OH230861   1.096   2.886   2.084
 3101TIP3    H130862   1.107   2.797   2.118
 3101TIP3    H230863   1.154   2.890   2.008
 3102TIP3   OH230864   1.909   3.555   8.190
 3102TIP3    H130865   1.912   3.650   8.194
 3102TIP3    H230866   1.895   3.535   8.097
 3103TIP3   OH230867   0.052   2.628   8.319
 3103TIP3    H130868   0.031   2.596   8.407
 3103TIP3    H230869   0.101   2.557   8.279
 3104TIP3   OH230870   4.061   3.437   0.827
 3104TIP3    H130871   4.047   3.428   0.733
 3104TIP3    H230872   4.081   3.530   0.839
 3105TIP3   OH230873   2.194   5.593   7.009
 3105TIP3    H130874   2.125   5.633   7.062
 3105TIP3    H230875   2.149   5.530   6.953
 3106TIP3   OH230876   4.928   2.638   0.433
 3106TIP3    H130877   4.844   2.593   0.420
 3106TIP3    H230878   4.921   2.677   0.520
 3107TIP3   OH230879   5.364   2.010   7.489
 3107TIP3    H130880   5.363   2.087   7.433
 3107TIP3    H230881   5.326   2.040   7.572
 3108TIP3   OH230882   2.374   6.037   7.368
 3108TIP3    H130883   2.451   6.041   7.425
 3108TIP3    H230884   2.347   6.128   7.358
 3109TIP3   OH230885   5.241   5.356   0.767
 3109TIP3    H130886   5.165   5.399   0.728
 3109TIP3    H230887   5.295   5.329   0.693
 3110TIP3   OH230888   2.415   6.461   1.166
 3110TIP3    H130889   2.338   6.463   1.222
 3110TIP3    H230890   2.381   6.458   1.077
 3111TIP3   OH230891   2.999   6.527   5.767
 3111TIP3    H130892   3.019   6.621   5.768
 3111TIP3    H230893   3.066   6.488   5.824
 3112TIP3   OH230894   0.473   1.419   1.240
 3112TIP3    H130895   0.514   1.501   1.268
 3112TIP3    H230896   0.414   1.446   1.169
 3113TIP3   OH230897   1.976   4.215   1.066
 3113TIP3    H130898   2.018   4.301   1.073
 3113TIP3    H230899   2.039   4.162   1.018
 3114TIP3   OH230900   3.900   0.189   7.694
 3114TIP3    H130901   3.855   0.273   7.686
 3114TIP3    H230902   3.897   0.169   7.788
 3115TIP3   OH230903   2.490   6.442   8.509
 3115TIP3    H130904   2.529   6.375   8.453
 3115TIP3    H230905   2.553   6.454   8.580
 3116TIP3   OH230906   4.859   0.684   1.165
 3116TIP3    H130907   4.923   0.721   1.105
 3116TIP3    H230908   4.861   0.742   1.241
 3117TIP3   OH230909   1.103   1.199   0.861
 3117TIP3    H130910   1.146   1.188   0.776
 3117TIP3    H230911   1.166   1.167   0.925
 3118TIP3   OH230912   5.451   6.339   0.830
 3118TIP3    H130913   5.399   6.393   0.889
 3118TIP3    H230914   5.530   6.390   0.814
 3119TIP3   OH230915   1.297   3.795   6.049
 3119TIP3    H130916   1.303   3.701   6.031
 3119TIP3    H230917   1.204   3.812   6.058
 3120TIP3   OH230918   6.140   5.305   0.702
 3120TIP3    H130919   6.070   5.258   0.656
 3120TIP3    H230920   6.171   5.243   0.768
 3121TIP3   OH230921   4.043   2.829   7.267
 3121TIP3    H130922   4.137   2.837   7.285
 3121TIP3    H230923   4.010   2.919   7.273
 3122TIP3   OH230924   4.709   5.774   7.748
 3122TIP3    H130925   4.794   5.758   7.708
 3122TIP3    H230926   4.647   5.726   7.693
 3123TIP3   OH230927   5.298   2.215   7.332
 3123TIP3    H130928   5.307   2.271   7.255
 3123TIP3    H230929   5.209   2.230   7.362
 3124TIP3   OH230930   1.449   5.340   7.185
 3124TIP3    H130931   1.446   5.432   7.161
 3124TIP3    H230932   1.435   5.293   7.102
 3125TIP3   OH230933   2.345   0.567   1.557
 3125TIP3    H130934   2.427   0.541   1.514
 3125TIP3    H230935   2.369   0.644   1.608
 3126TIP3   OH230936   0.405   5.795   0.752
 3126TIP3    H130937   0.328   5.851   0.761
 3126TIP3    H230938   0.444   5.794   0.839
 3127TIP3   OH230939   3.226   3.821   0.988
 3127TIP3    H130940   3.289   3.888   1.016
 3127TIP3    H230941   3.279   3.743   0.973
 3128TIP3   OH230942   0.631   3.302   6.586
 3128TIP3    H130943   0.574   3.364   6.632
 3128TIP3    H230944   0.681   3.355   6.525
 3129TIP3   OH230945   2.350   4.922   1.412
 3129TIP3    H130946   2.370   4.832   1.439
 3129TIP3    H230947   2.281   4.912   1.347
 3130TIP3   OH230948   3.890   2.990   0.221
 3130TIP3    H130949   3.942   3.022   0.148
 3130TIP3    H230950   3.865   3.070   0.269
 3131TIP3   OH230951   3.454   0.663   8.494
 3131TIP3    H130952   3.473   0.574   8.465
 3131TIP3    H230953   3.422   0.653   8.584
 3132TIP3   OH230954   3.591   3.126   6.150
 3132TIP3    H130955   3.557   3.118   6.061
 3132TIP3    H230956   3.675   3.081   6.148
 3133TIP3   OH230957   4.330   2.995   7.960
 3133TIP3    H130958   4.303   2.981   7.869
 3133TIP3    H230959   4.416   2.954   7.966
 3134TIP3   OH230960   3.645   5.157   1.628
 3134TIP3    H130961   3.667   5.206   1.708
 3134TIP3    H230962   3.698   5.077   1.634
 3135TIP3   OH230963   0.267   0.413   0.651
 3135TIP3    H130964   0.351   0.412   0.604
 3135TIP3    H230965   0.233   0.325   0.642
 3136TIP3   OH230966   1.899   1.058   1.659
 3136TIP3    H130967   1.834   1.123   1.686
 3136TIP3    H230968   1.873   0.978   1.705
 3137TIP3   OH230969   2.070   3.925   0.009
 3137TIP3    H130970   2.114   4.000   0.050
 3137TIP3    H230971   2.046   3.868   0.082
 3138TIP3   OH230972   3.443   1.229   0.316
 3138TIP3    H130973   3.386   1.241   0.240
 3138TIP3    H230974   3.531   1.224   0.279
 3139TIP3   OH230975   2.430   1.771   1.186
 3139TIP3    H130976   2.445   1.795   1.278
 3139TIP3    H230977   2.382   1.689   1.190
 3140TIP3   OH230978   0.409   4.725   2.619
 3140TIP3    H130979   0.347   4.776   2.671
 3140TIP3    H230980   0.369   4.639   2.612
 3141TIP3   OH230981   5.971   5.725   1.514
 3141TIP3    H130982   5.945   5.721   1.606
 3141TIP3    H230983   5.957   5.636   1.481
 3142TIP3   OH230984   2.129   6.762   7.171
 3142TIP3    H130985   2.035   6.781   7.176
 3142TIP3    H230986   2.134   6.676   7.129
 3143TIP3   OH230987   4.200   4.350   8.371
 3143TIP3    H130988   4.201   4.280   8.305
 3143TIP3    H230989   4.237   4.426   8.327
 3144TIP3   OH230990   3.529   6.387   0.997
 3144TIP3    H130991   3.462   6.322   1.022
 3144TIP3    H230992   3.505   6.412   0.908
 3145TIP3   OH230993   4.788   6.487   1.053
 3145TIP3    H130994   4.748   6.493   1.139
 3145TIP3    H230995   4.872   6.532   1.062
 3146TIP3   OH230996   0.833   6.767   1.510
 3146TIP3    H130997   0.842   6.690   1.453
 3146TIP3    H230998   0.769   6.739   1.576
 3147TIP3   OH230999   0.697   2.577   1.691
 3147TIP3    H131000   0.739   2.660   1.713
 3147TIP3    H231001   0.648   2.553   1.770
 3148TIP3   OH231002   1.444   6.281   0.760
 3148TIP3    H131003   1.484   6.360   0.797
 3148TIP3    H231004   1.437   6.300   0.666
 3149TIP3   OH231005   6.106   2.077   7.069
 3149TIP3    H131006   6.184   2.035   7.103
 3149TIP3    H231007   6.100   2.048   6.978
 3150TIP3   OH231008   1.854   5.652   0.678
 3150TIP3    H131009   1.928   5.595   0.699
 3150TIP3    H231010   1.800   5.651   0.757
 3151TIP3   OH231011   1.942   6.075   1.119
 3151TIP3    H131012   1.946   6.095   1.213
 3151TIP3    H231013   2.019   6.117   1.082
 3152TIP3   OH231014   3.604   0.990   1.203
 3152TIP3    H131015   3.551   1.028   1.273
 3152TIP3    H231016   3.567   1.026   1.122
 3153TIP3   OH231017   0.314   6.087   0.925
 3153TIP3    H131018   0.274   6.025   0.987
 3153TIP3    H231019   0.262   6.078   0.846
 3154TIP3   OH231020   1.342   4.525   0.677
 3154TIP3    H131021   1.427   4.497   0.645
 3154TIP3    H231022   1.362   4.587   0.748
 3155TIP3   OH231023   2.381   2.089   8.285
 3155TIP3    H131024   2.305   2.039   8.255
 3155TIP3    H231025   2.397   2.056   8.374
 3156TIP3   OH231026   5.721   6.586   7.630
 3156TIP3    H131027   5.766   6.542   7.701
 3156TIP3    H231028   5.754   6.676   7.633
 3157TIP3   OH231029   3.652   1.838   7.839
 3157TIP3    H131030   3.706   1.910   7.806
 3157TIP3    H231031   3.712   1.783   7.889
 3158TIP3   OH231032   4.037   6.665   8.130
 3158TIP3    H131033   4.100   6.603   8.166
 3158TIP3    H231034   4.015   6.630   8.044
 3159TIP3   OH231035   6.844   0.461   6.743
 3159TIP3    H131036   6.811   0.418   6.821
 3159TIP3    H231037   0.058   0.433   6.737
 3160TIP3   OH231038   6.410   2.483   7.556
 3160TIP3    H131039   6.486   2.480   7.497
 3160TIP3    H231040   6.353   2.550   7.518
 3161TIP3   OH231041   4.237   1.778   7.453
 3161TIP3    H131042   4.146   1.752   7.441
 3161TIP3    H231043   4.261   1.824   7.372
 3162TIP3   OH231044   5.372   2.207   8.198
 3162TIP3    H131045   5.398   2.216   8.290
 3162TIP3    H231046   5.298   2.147   8.200
 3163TIP3   OH231047   4.275   4.016   7.808
 3163TIP3    H131048   4.203   4.024   7.871
 3163TIP3    H231049   4.333   4.089   7.829
 3164TIP3   OH231050   6.170   0.745   1.890
 3164TIP3    H131051   6.180   0.697   1.973
 3164TIP3    H231052   6.090   0.710   1.852
 3165TIP3   OH231053   4.279   4.147   7.241
 3165TIP3    H131054   4.338   4.078   7.271
 3165TIP3    H231055   4.265   4.203   7.317
 3166TIP3   OH231056   2.073   4.117   7.420
 3166TIP3    H131057   2.133   4.065   7.367
 3166TIP3    H231058   2.036   4.055   7.482
 3167TIP3   OH231059   5.603   1.808   6.617
 3167TIP3    H131060   5.561   1.861   6.549
 3167TIP3    H231061   5.546   1.818   6.693
 3168TIP3   OH231062   6.098   5.815   0.727
 3168TIP3    H131063   6.190   5.823   0.753
 3168TIP3    H231064   6.094   5.733   0.678
 3169TIP3   OH231065   1.716   5.634   8.273
 3169TIP3    H131066   1.634   5.667   8.238
 3169TIP3    H231067   1.717   5.663   8.364
 3170TIP3   OH231068   0.793   5.194   1.920
 3170TIP3    H131069   0.749   5.247   1.985
 3170TIP3    H231070   0.858   5.144   1.969
 3171TIP3   OH231071   6.197   5.986   1.152
 3171TIP3    H131072   6.240   5.941   1.224
 3171TIP3    H231073   6.231   6.075   1.154
 3172TIP3   OH231074   2.216   6.481   0.104
 3172TIP3    H131075   2.196   6.433   0.185
 3172TIP3    H231076   2.310   6.469   0.091
 3173TIP3   OH231077   4.143   3.042   0.476
 3173TIP3    H131078   4.219   3.099   0.483
 3173TIP3    H231079   4.075   3.096   0.436
 3174TIP3   OH231080   0.971   6.442   0.398
 3174TIP3    H131081   1.021   6.523   0.406
 3174TIP3    H231082   0.880   6.468   0.411
 3175TIP3   OH231083   4.400   5.991   8.003
 3175TIP3    H131084   4.489   6.017   7.984
 3175TIP3    H231085   4.376   5.930   7.933
 3176TIP3   OH231086   1.715   4.597   8.353
 3176TIP3    H131087   1.768   4.550   8.288
 3176TIP3    H231088   1.627   4.561   8.344
 3177TIP3   OH231089   2.731   5.575   7.117
 3177TIP3    H131090   2.790   5.502   7.097
 3177TIP3    H231091   2.644   5.542   7.096
 3178TIP3   OH231092   5.163   3.006   6.515
 3178TIP3    H131093   5.185   2.922   6.474
 3178TIP3    H231094   5.130   2.983   6.602
 3179TIP3   OH231095   3.282   4.607   7.761
 3179TIP3    H131096   3.243   4.594   7.675
 3179TIP3    H231097   3.361   4.658   7.743
 3180TIP3   OH231098   1.268   4.127   7.989
 3180TIP3    H131099   1.236   4.104   7.901
 3180TIP3    H231100   1.342   4.185   7.973
 3181TIP3   OH231101   2.030   6.756   0.105
 3181TIP3    H131102   2.006   6.672   0.142
 3181TIP3    H231103   2.107   6.738   0.051
 3182TIP3   OH231104   2.192   0.724   2.573
 3182TIP3    H131105   2.096   0.724   2.569
 3182TIP3    H231106   2.214   0.643   2.619
 3183TIP3   OH231107   3.301   3.221   7.353
 3183TIP3    H131108   3.381   3.202   7.305
 3183TIP3    H231109   3.314   3.309   7.390
 3184TIP3   OH231110   2.562   1.565   7.131
 3184TIP3    H131111   2.543   1.598   7.219
 3184TIP3    H231112   2.651   1.595   7.113
 3185TIP3   OH231113   3.910   0.829   2.326
 3185TIP3    H131114   3.835   0.789   2.370
 3185TIP3    H231115   3.924   0.912   2.373
 3186TIP3   OH231116   2.985   6.348   0.036
 3186TIP3    H131117   3.038   6.369   8.610
 3186TIP3    H231118   3.020   6.265   0.067
 3187TIP3   OH231119   0.762   3.167   7.000
 3187TIP3    H131120   0.703   3.100   6.965
 3187TIP3    H231121   0.705   3.226   7.049
 3188TIP3   OH231122   5.417   2.160   0.705
 3188TIP3    H131123   5.350   2.127   0.766
 3188TIP3    H231124   5.368   2.179   0.625
 3189TIP3   OH231125   6.260   3.498   0.716
 3189TIP3    H131126   6.335   3.478   0.772
 3189TIP3    H231127   6.196   3.538   0.775
 3190TIP3   OH231128   5.701   5.862   1.662
 3190TIP3    H131129   5.610   5.890   1.670
 3190TIP3    H231130   5.752   5.936   1.694
 3191TIP3   OH231131   3.521   2.507   2.110
 3191TIP3    H131132   3.542   2.538   2.198
 3191TIP3    H231133   3.432   2.471   2.118
 3192TIP3   OH231134   3.346   0.983   6.075
 3192TIP3    H131135   3.275   1.002   6.136
 3192TIP3    H231136   3.394   0.911   6.116
 3193TIP3   OH231137   0.617   5.178   8.177
 3193TIP3    H131138   0.707   5.189   8.208
 3193TIP3    H231139   0.587   5.267   8.160
 3194TIP3   OH231140   0.643   4.505   6.986
 3194TIP3    H131141   0.696   4.523   7.064
 3194TIP3    H231142   0.562   4.466   7.021
 3195TIP3   OH231143   3.403   6.299   0.477
 3195TIP3    H131144   3.487   6.344   0.480
 3195TIP3    H231145   3.415   6.220   0.530
 3196TIP3   OH231146   1.539   5.825   1.071
 3196TIP3    H131147   1.476   5.866   1.130
 3196TIP3    H231148   1.588   5.898   1.033
 3197TIP3   OH231149   0.706   2.638   0.907
 3197TIP3    H131150   0.720   2.555   0.951
 3197TIP3    H231151   0.646   2.618   0.835
 3198TIP3   OH231152   1.210   6.865   7.425
 3198TIP3    H131153   1.292   6.869   7.473
 3198TIP3    H231154   1.142   6.863   7.492
 3199TIP3   OH231155   1.660   3.981   6.668
 3199TIP3    H131156   1.664   3.917   6.597
 3199TIP3    H231157   1.583   3.956   6.719
 3200TIP3   OH231158   3.785   5.283   7.851
 3200TIP3    H131159   3.854   5.247   7.794
 3200TIP3    H231160   3.720   5.213   7.856
 3201TIP3   OH231161   0.279   0.921   7.181
 3201TIP3    H131162   0.251   0.830   7.178
 3201TIP3    H231163   0.221   0.963   7.245
 3202TIP3   OH231164   3.281   6.247   7.582
 3202TIP3    H131165   3.280   6.193   7.660
 3202TIP3    H231166   3.253   6.188   7.511
 3203TIP3   OH231167   1.669   1.148   6.451
 3203TIP3    H131168   1.709   1.119   6.534
 3203TIP3    H231169   1.741   1.186   6.402
 3204TIP3   OH231170   1.830   2.517   6.951
 3204TIP3    H131171   1.887   2.587   6.982
 3204TIP3    H231172   1.755   2.562   6.913
 3205TIP3   OH231173   5.866   1.387   0.709
 3205TIP3    H131174   5.771   1.393   0.700
 3205TIP3    H231175   5.898   1.474   0.684
 3206TIP3   OH231176   1.680   2.601   0.796
 3206TIP3    H131177   1.636   2.606   0.881
 3206TIP3    H231178   1.640   2.526   0.753
 3207TIP3   OH231179   1.057   5.158   0.006
 3207TIP3    H131180   1.137   5.212   0.000
 3207TIP3    H231181   1.039   5.134   8.566
 3208TIP3   OH231182   4.106   5.914   7.403
 3208TIP3    H131183   4.152   5.923   7.487
 3208TIP3    H231184   4.176   5.915   7.338
 3209TIP3   OH231185   5.210   0.876   0.237
 3209TIP3    H131186   5.122   0.909   0.221
 3209TIP3    H231187   5.202   0.781   0.232
 3210TIP3   OH231188   6.009   6.104   6.618
 3210TIP3    H131189   5.945   6.033   6.620
 3210TIP3    H231190   6.026   6.123   6.710
 3211TIP3   OH231191   0.220   2.437   8.223
 3211TIP3    H131192   0.244   2.407   8.311
 3211TIP3    H231193   0.299   2.480   8.190
 3212TIP3   OH231194   4.855   5.624   0.991
 3212TIP3    H131195   4.848   5.697   0.930
 3212TIP3    H231196   4.797   5.648   1.064
 3213TIP3   OH231197   5.280   1.540   1.754
 3213TIP3    H131198   5.215   1.523   1.823
 3213TIP3    H231199   5.320   1.455   1.738
 3214TIP3   OH231200   3.037   5.129   1.213
 3214TIP3    H131201   2.967   5.185   1.245
 3214TIP3    H231202   3.107   5.190   1.189
 3215TIP3   OH231203   2.969   2.459   8.407
 3215TIP3    H131204   2.965   2.422   8.495
 3215TIP3    H231205   2.883   2.497   8.392
 3216TIP3   OH231206   2.404   6.649   0.848
 3216TIP3    H131207   2.461   6.669   0.774
 3216TIP3    H231208   2.435   6.706   0.918
 3217TIP3   OH231209   5.727   4.340   8.494
 3217TIP3    H131210   5.750   4.411   8.435
 3217TIP3    H231211   5.699   4.383   8.574
 3218TIP3   OH231212   0.077   6.509   1.810
 3218TIP3    H131213   0.168   6.488   1.792
 3218TIP3    H231214   0.051   6.566   1.738
 3219TIP3   OH231215   3.272   1.913   1.423
 3219TIP3    H131216   3.342   1.958   1.375
 3219TIP3    H231217   3.288   1.936   1.515
 3220TIP3   OH231218   0.662   2.774   7.716
 3220TIP3    H131219   0.726   2.762   7.786
 3220TIP3    H231220   0.678   2.700   7.657
 3221TIP3   OH231221   1.438   6.835   8.302
 3221TIP3    H131222   1.459   0.026   8.365
 3221TIP3    H231223   1.521   6.789   8.287
 3222TIP3   OH231224   5.255   6.456   7.440
 3222TIP3    H131225   5.212   6.465   7.525
 3222TIP3    H231226   5.195   6.401   7.389
 3223TIP3   OH231227   2.715   4.802   8.227
 3223TIP3    H131228   2.724   4.890   8.192
 3223TIP3    H231229   2.796   4.786   8.275
 3224TIP3   OH231230   4.602   4.740   6.834
 3224TIP3    H131231   4.560   4.665   6.876
 3224TIP3    H231232   4.576   4.734   6.742
 3225TIP3   OH231233   4.396   0.841   7.703
 3225TIP3    H131234   4.409   0.772   7.637
 3225TIP3    H231235   4.336   0.803   7.766
 3226TIP3   OH231236   0.873   6.387   1.590
 3226TIP3    H131237   0.882   6.323   1.519
 3226TIP3    H231238   0.854   6.334   1.667
 3227TIP3   OH231239   5.269   0.234   7.176
 3227TIP3    H131240   5.174   0.240   7.180
 3227TIP3    H231241   5.286   0.149   7.134
 3228TIP3   OH231242   3.557   6.187   1.240
 3228TIP3    H131243   3.640   6.177   1.286
 3228TIP3    H231244   3.523   6.098   1.232
 3229TIP3   OH231245   2.035   5.675   6.484
 3229TIP3    H131246   2.051   5.728   6.406
 3229TIP3    H231247   2.082   5.720   6.554
 3230TIP3   OH231248   0.145   3.083   8.496
 3230TIP3    H131249   0.098   3.057   8.416
 3230TIP3    H231250   0.237   3.068   8.475
 3231TIP3   OH231251   2.960   5.566   0.555
 3231TIP3    H131252   2.962   5.605   0.643
 3231TIP3    H231253   2.934   5.475   0.570
 3232TIP3   OH231254   0.858   5.884   7.875
 3232TIP3    H131255   0.857   5.905   7.781
 3232TIP3    H231256   0.765   5.882   7.900
 3233TIP3   OH231257   5.251   3.431   1.888
 3233TIP3    H131258   5.283   3.395   1.971
 3233TIP3    H231259   5.276   3.523   1.890
 3234TIP3   OH231260   1.365   4.664   0.907
 3234TIP3    H131261   1.458   4.666   0.932
 3234TIP3    H231262   1.325   4.732   0.961
 3235TIP3   OH231263   0.569   0.640   1.192
 3235TIP3    H131264   0.630   0.631   1.119
 3235TIP3    H231265   0.483   0.647   1.151
 3236TIP3   OH231266   6.752   1.948   2.253
 3236TIP3    H131267   6.715   1.923   2.168
 3236TIP3    H231268   6.835   1.900   2.258
 3237TIP3   OH231269   1.368   1.129   1.885
 3237TIP3    H131270   1.377   1.059   1.950
 3237TIP3    H231271   1.281   1.165   1.901
 3238TIP3   OH231272   6.580   4.115   8.547
 3238TIP3    H131273   6.613   4.085   8.632
 3238TIP3    H231274   6.652   4.097   8.486
 3239TIP3   OH231275   6.638   3.219   7.737
 3239TIP3    H131276   6.595   3.141   7.701
 3239TIP3    H231277   6.715   3.185   7.782
 3240TIP3   OH231278   3.199   5.256   0.269
 3240TIP3    H131279   3.169   5.341   0.302
 3240TIP3    H231280   3.148   5.243   0.189
 3241TIP3   OH231281   6.730   3.776   8.055
 3241TIP3    H131282   6.738   3.717   8.131
 3241TIP3    H231283   6.685   3.723   7.989
 3242TIP3   OH231284   1.952   3.424   6.477
 3242TIP3    H131285   1.881   3.485   6.498
 3242TIP3    H231286   1.907   3.348   6.440
 3243TIP3   OH231287   0.323   4.490   7.803
 3243TIP3    H131288   0.313   4.585   7.809
 3243TIP3    H231289   0.408   4.477   7.760
 3244TIP3   OH231290   1.376   4.492   1.605
 3244TIP3    H131291   1.458   4.467   1.648
 3244TIP3    H231292   1.357   4.579   1.640
 3245TIP3   OH231293   0.815   4.494   1.020
 3245TIP3    H131294   0.768   4.537   0.948
 3245TIP3    H231295   0.813   4.401   0.999
 3246TIP3   OH231296   2.723   3.706   0.410
 3246TIP3    H131297   2.808   3.749   0.419
 3246TIP3    H231298   2.724   3.635   0.474
 3247TIP3   OH231299   2.417   0.158   0.857
 3247TIP3    H131300   2.495   0.141   0.911
 3247TIP3    H231301   2.423   0.095   0.786
 3248TIP3   OH231302   1.785   1.277   0.245
 3248TIP3    H131303   1.714   1.338   0.266
 3248TIP3    H231304   1.743   1.207   0.195
 3249TIP3   OH231305   2.867   1.488   8.316
 3249TIP3    H131306   2.889   1.447   8.400
 3249TIP3    H231307   2.777   1.459   8.299
 3250TIP3   OH231308   2.084   6.629   0.474
 3250TIP3    H131309   2.066   6.558   0.413
 3250TIP3    H231310   2.160   6.674   0.435
 3251TIP3   OH231311   3.114   6.097   0.568
 3251TIP3    H131312   3.136   6.176   0.519
 3251TIP3    H231313   3.030   6.116   0.609
 3252TIP3   OH231314   0.384   5.891   0.068
 3252TIP3    H131315   0.410   5.811   0.022
 3252TIP3    H231316   0.428   5.961   0.019
 3253TIP3   OH231317   0.406   6.236   1.348
 3253TIP3    H131318   0.346   6.161   1.343
 3253TIP3    H231319   0.452   6.224   1.431
 3254TIP3   OH231320   1.598   5.704   0.601
 3254TIP3    H131321   1.555   5.620   0.583
 3254TIP3    H231322   1.691   5.686   0.586
 3255TIP3   OH231323   2.490   4.010   0.078
 3255TIP3    H131324   2.418   4.016   0.016
 3255TIP3    H231325   2.516   4.101   0.096
 3256TIP3   OH231326   4.859   1.626   8.010
 3256TIP3    H131327   4.896   1.712   8.029
 3256TIP3    H231328   4.870   1.576   8.092
 3257TIP3   OH231329   2.624   5.982   1.001
 3257TIP3    H131330   2.627   6.070   1.039
 3257TIP3    H231331   2.551   5.985   0.939
 3258TIP3   OH231332   3.191   4.595   8.612
 3258TIP3    H131333   3.231   4.514   8.581
 3258TIP3    H231334   3.223   4.605   0.051
 3259TIP3   OH231335   2.367   2.716   6.517
 3259TIP3    H131336   2.309   2.682   6.585
 3259TIP3    H231337   2.328   2.685   6.435
 3260TIP3   OH231338   4.775   4.396   0.982
 3260TIP3    H131339   4.708   4.328   0.986
 3260TIP3    H231340   4.853   4.351   0.949
 3261TIP3   OH231341   1.049   0.042   7.208
 3261TIP3    H131342   1.003   0.124   7.226
 3261TIP3    H231343   1.120   0.039   7.272
 3262TIP3   OH231344   0.322   4.749   8.404
 3262TIP3    H131345   0.297   4.657   8.405
 3262TIP3    H231346   0.339   4.769   8.311
 3263TIP3   OH231347   1.190   0.775   0.281
 3263TIP3    H131348   1.239   0.779   0.363
 3263TIP3    H231349   1.136   0.854   0.281
 3264TIP3   OH231350   1.029   1.543   1.320
 3264TIP3    H131351   1.065   1.464   1.278
 3264TIP3    H231352   1.105   1.598   1.337
 3265TIP3   OH231353   3.231   1.617   7.072
 3265TIP3    H131354   3.323   1.591   7.068
 3265TIP3    H231355   3.202   1.618   6.981
 3266TIP3   OH231356   1.017   2.516   6.957
 3266TIP3    H131357   0.977   2.591   6.914
 3266TIP3    H231358   0.983   2.440   6.911
 3267TIP3   OH231359   6.053   1.212   7.732
 3267TIP3    H131360   6.087   1.173   7.651
 3267TIP3    H231361   6.123   1.199   7.796
 3268TIP3   OH231362   2.498   4.992   0.538
 3268TIP3    H131363   2.529   5.002   0.448
 3268TIP3    H231364   2.574   5.012   0.592
 3269TIP3   OH231365   1.907   5.187   0.064
 3269TIP3    H131366   1.880   5.189   0.156
 3269TIP3    H231367   1.898   5.095   0.039
 3270TIP3   OH231368   5.384   1.277   1.065
 3270TIP3    H131369   5.420   1.189   1.064
 3270TIP3    H231370   5.308   1.273   1.006
 3271TIP3   OH231371   3.519   5.907   6.493
 3271TIP3    H131372   3.439   5.865   6.459
 3271TIP3    H231373   3.583   5.836   6.496
 3272TIP3   OH231374   0.812   2.452   8.329
 3272TIP3    H131375   0.833   2.497   8.410
 3272TIP3    H231376   0.719   2.472   8.313
 3273TIP3   OH231377   3.854   5.407   1.013
 3273TIP3    H131378   3.869   5.500   0.995
 3273TIP3    H231379   3.938   5.375   1.046
 3274TIP3   OH231380   6.691   5.916   2.145
 3274TIP3    H131381   6.634   5.843   2.169
 3274TIP3    H231382   6.770   5.903   2.199
 3275TIP3   OH231383   4.028   5.431   8.440
 3275TIP3    H131384   4.011   5.393   8.526
 3275TIP3    H231385   4.001   5.522   8.449
 3276TIP3   OH231386   5.840   0.888   1.010
 3276TIP3    H131387   5.919   0.835   1.014
 3276TIP3    H231388   5.855   0.959   1.072
 3277TIP3   OH231389   3.849   1.547   7.136
 3277TIP3    H131390   3.845   1.498   7.054
 3277TIP3    H231391   3.767   1.597   7.138
 3278TIP3   OH231392   0.185   6.709   0.324
 3278TIP3    H131393   0.275   6.687   0.298
 3278TIP3    H231394   0.160   6.781   0.265
 3279TIP3   OH231395   5.185   0.128   2.385
 3279TIP3    H131396   5.211   0.197   2.446
 3279TIP3    H231397   5.105   0.162   2.344
 3280TIP3   OH231398   3.038   3.408   0.077
 3280TIP3    H131399   3.004   3.392   8.640
 3280TIP3    H231400   3.005   3.495   0.100
 3281TIP3   OH231401   1.861   3.398   7.252
 3281TIP3    H131402   1.818   3.484   7.258
 3281TIP3    H231403   1.798   3.343   7.205
 3282TIP3   OH231404   2.633   1.147   0.367
 3282TIP3    H131405   2.708   1.097   0.399
 3282TIP3    H231406   2.618   1.214   0.433
 3283TIP3   OH231407   6.860   6.287   2.630
 3283TIP3    H131408   0.046   6.333   2.575
 3283TIP3    H231409   0.023   6.202   2.647
 3284TIP3   OH231410   2.880   0.500   8.478
 3284TIP3    H131411   2.886   0.594   8.489
 3284TIP3    H231412   2.795   0.476   8.515
 3285TIP3   OH231413   0.851   4.777   7.833
 3285TIP3    H131414   0.896   4.860   7.846
 3285TIP3    H231415   0.919   4.711   7.843
 3286TIP3   OH231416   3.913   3.080   8.607
 3286TIP3    H131417   3.860   3.003   8.585
 3286TIP3    H231418   3.914   3.131   8.526
 3287TIP3   OH231419   1.882   4.687   6.658
 3287TIP3    H131420   1.887   4.615   6.596
 3287TIP3    H231421   1.867   4.645   6.743
 3288TIP3   OH231422   6.343   3.366   6.368
 3288TIP3    H131423   6.321   3.283   6.327
 3288TIP3    H231424   6.392   3.341   6.447
 3289TIP3   OH231425   5.520   1.943   0.340
 3289TIP3    H131426   5.577   1.867   0.344
 3289TIP3    H231427   5.486   1.943   0.250
 3290TIP3   OH231428   6.771   6.025   8.601
 3290TIP3    H131429   6.755   6.085   0.023
 3290TIP3    H231430   6.798   5.943   8.642
 3291TIP3   OH231431   3.196   2.955   7.123
 3291TIP3    H131432   3.146   2.893   7.176
 3291TIP3    H231433   3.153   2.953   7.037
 3292TIP3   OH231434   4.905   5.917   0.967
 3292TIP3    H131435   4.934   6.004   0.938
 3292TIP3    H231436   4.821   5.933   1.010
 3293TIP3   OH231437   1.348   3.211   2.106
 3293TIP3    H131438   1.355   3.293   2.057
 3293TIP3    H231439   1.426   3.161   2.082
 3294TIP3   OH231440   2.920   3.086   0.474
 3294TIP3    H131441   2.967   3.143   0.414
 3294TIP3    H231442   2.975   3.008   0.483
 3295TIP3   OH231443   4.320   2.001   8.023
 3295TIP3    H131444   4.250   1.996   8.088
 3295TIP3    H231445   4.383   1.934   8.050
 3296TIP3   OH231446   6.088   4.852   0.743
 3296TIP3    H131447   6.092   4.821   0.833
 3296TIP3    H231448   6.118   4.943   0.748
 3297TIP3   OH231449   3.225   4.532   0.864
 3297TIP3    H131450   3.271   4.455   0.831
 3297TIP3    H231451   3.161   4.554   0.796
 3298TIP3   OH231452   1.760   5.356   7.145
 3298TIP3    H131453   1.760   5.420   7.073
 3298TIP3    H231454   1.687   5.297   7.124
 3299TIP3   OH231455   3.519   5.925   7.348
 3299TIP3    H131456   3.548   6.014   7.329
 3299TIP3    H231457   3.423   5.929   7.340
 3300TIP3   OH231458   6.357   4.570   1.552
 3300TIP3    H131459   6.446   4.562   1.519
 3300TIP3    H231460   6.342   4.489   1.600
 3301TIP3   OH231461   4.125   6.669   8.425
 3301TIP3    H131462   4.126   6.760   8.396
 3301TIP3    H231463   4.217   6.642   8.420
 3302TIP3   OH231464   6.501   4.251   7.131
 3302TIP3    H131465   6.517   4.246   7.036
 3302TIP3    H231466   6.429   4.313   7.140
 3303TIP3   OH231467   4.597   1.190   0.062
 3303TIP3    H131468   4.679   1.148   0.037
 3303TIP3    H231469   4.564   1.138   0.135
 3304TIP3   OH231470   2.328   5.205   1.000
 3304TIP3    H131471   2.401   5.250   0.957
 3304TIP3    H231472   2.272   5.177   0.928
 3305TIP3   OH231473   1.094   5.407   8.498
 3305TIP3    H131474   1.084   5.323   8.452
 3305TIP3    H231475   1.008   5.449   8.488
 3306TIP3   OH231476   0.056   5.421   0.007
 3306TIP3    H131477   0.106   5.496   0.038
 3306TIP3    H231478   0.038   5.370   0.086
 3307TIP3   OH231479   3.176   1.559   6.791
 3307TIP3    H131480   3.172   1.584   6.698
 3307TIP3    H231481   3.170   1.464   6.790
 3308TIP3   OH231482   2.707   5.305   0.098
 3308TIP3    H131483   2.701   5.384   0.043
 3308TIP3    H231484   2.625   5.258   0.082
 3309TIP3   OH231485   6.699   5.293   6.405
 3309TIP3    H131486   6.734   5.238   6.335
 3309TIP3    H231487   6.773   5.305   6.464
 3310TIP3   OH231488   3.618   0.173   6.895
 3310TIP3    H131489   3.701   0.219   6.880
 3310TIP3    H231490   3.628   0.133   6.982
 3311TIP3   OH231491   3.678   2.348   8.001
 3311TIP3    H131492   3.675   2.255   8.020
 3311TIP3    H231493   3.768   2.374   8.023
 3312TIP3   OH231494   0.269   1.733   8.189
 3312TIP3    H131495   0.294   1.691   8.107
 3312TIP3    H231496   0.208   1.801   8.164
 3313TIP3   OH231497   3.271   3.339   8.272
 3313TIP3    H131498   3.265   3.352   8.367
 3313TIP3    H231499   3.218   3.409   8.235
 3314TIP3   OH231500   2.198   2.742   8.202
 3314TIP3    H131501   2.273   2.796   8.177
 3314TIP3    H231502   2.201   2.667   8.143
 3315TIP3   OH231503   4.671   2.521   0.411
 3315TIP3    H131504   4.688   2.465   0.334
 3315TIP3    H231505   4.697   2.467   0.485
 3316TIP3   OH231506   1.843   1.828   7.818
 3316TIP3    H131507   1.904   1.851   7.888
 3316TIP3    H231508   1.863   1.737   7.797
 3317TIP3   OH231509   2.769   2.531   8.075
 3317TIP3    H131510   2.771   2.465   8.144
 3317TIP3    H231511   2.689   2.581   8.092
 3318TIP3   OH231512   4.232   0.790   6.023
 3318TIP3    H131513   4.184   0.708   6.013
 3318TIP3    H231514   4.305   0.783   5.961
 3319TIP3   OH231515   4.341   1.554   0.396
 3319TIP3    H131516   4.433   1.553   0.369
 3319TIP3    H231517   4.296   1.507   0.326
 3320TIP3   OH231518   2.293   5.269   7.337
 3320TIP3    H131519   2.276   5.250   7.245
 3320TIP3    H231520   2.341   5.352   7.335
 3321TIP3   OH231521   5.147   3.745   0.919
 3321TIP3    H131522   5.215   3.725   0.983
 3321TIP3    H231523   5.066   3.713   0.960
 3322TIP3   OH231524   2.143   6.299   6.968
 3322TIP3    H131525   2.105   6.265   6.887
 3322TIP3    H231526   2.162   6.391   6.949
 3323TIP3   OH231527   3.813   5.635   7.694
 3323TIP3    H131528   3.740   5.584   7.728
 3323TIP3    H231529   3.778   5.676   7.614
 3324TIP3   OH231530   0.744   3.743   8.556
 3324TIP3    H131531   0.686   3.670   8.532
 3324TIP3    H231532   0.828   3.721   8.515
 3325TIP3   OH231533   5.699   2.026   7.914
 3325TIP3    H131534   5.685   2.039   8.008
 3325TIP3    H231535   5.675   2.110   7.874
 3326TIP3   OH231536   1.933   0.061   0.620
 3326TIP3    H131537   1.875   0.024   0.687
 3326TIP3    H231538   1.964   6.863   0.570
 3327TIP3   OH231539   3.091   0.915   7.202
 3327TIP3    H131540   3.007   0.915   7.248
 3327TIP3    H231541   3.135   0.995   7.231
 3328TIP3   OH231542   5.586   0.302   8.214
 3328TIP3    H131543   5.502   0.277   8.177
 3328TIP3    H231544   5.643   0.312   8.137
 3329TIP3   OH231545   3.095   0.837   6.665
 3329TIP3    H131546   3.057   0.924   6.680
 3329TIP3    H231547   3.058   0.808   6.582
 3330TIP3   OH231548   4.851   5.723   8.576
 3330TIP3    H131549   4.776   5.716   8.635
 3330TIP3    H231550   4.812   5.724   8.489
 3331TIP3   OH231551   3.381   1.829   7.587
 3331TIP3    H131552   3.368   1.921   7.563
 3331TIP3    H231553   3.374   1.781   7.504
 3332TIP3   OH231554   4.171   6.321   7.703
 3332TIP3    H131555   4.243   6.280   7.655
 3332TIP3    H231556   4.095   6.264   7.687
 3333TIP3   OH231557   5.847   6.622   1.199
 3333TIP3    H131558   5.759   6.591   1.178
 3333TIP3    H231559   5.833   6.696   1.259
 3334TIP3   OH231560   5.589   5.745   6.891
 3334TIP3    H131561   5.671   5.759   6.842
 3334TIP3    H231562   5.598   5.658   6.928
 3335TIP3   OH231563   5.642   6.572   8.118
 3335TIP3    H131564   5.703   6.538   8.052
 3335TIP3    H231565   5.640   6.667   8.102
 3336TIP3   OH231566   6.176   5.075   7.542
 3336TIP3    H131567   6.191   5.008   7.609
 3336TIP3    H231568   6.212   5.036   7.462
 3337TIP3   OH231569   2.185   0.848   0.583
 3337TIP3    H131570   2.114   0.886   0.531
 3337TIP3    H231571   2.260   0.905   0.568
 3338TIP3   OH231572   0.061   4.177   8.156
 3338TIP3    H131573   0.039   4.199   8.247
 3338TIP3    H231574   0.139   4.229   8.136
 3339TIP3   OH231575   1.150   5.884   7.043
 3339TIP3    H131576   1.081   5.863   6.980
 3339TIP3    H231577   1.174   5.800   7.082
 3340TIP3   OH231578   4.866   4.362   8.195
 3340TIP3    H131579   4.824   4.417   8.129
 3340TIP3    H231580   4.940   4.321   8.149
 3341TIP3   OH231581   3.150   0.175   8.533
 3341TIP3    H131582   3.188   0.140   8.452
 3341TIP3    H231583   3.060   0.197   8.509
 3342TIP3   OH231584   5.420   4.643   0.658
 3342TIP3    H131585   5.421   4.660   0.752
 3342TIP3    H231586   5.388   4.725   0.619
 3343TIP3   OH231587   6.002   4.725   0.267
 3343TIP3    H131588   5.971   4.749   0.354
 3343TIP3    H231589   6.020   4.809   0.224
 3344TIP3   OH231590   5.320   4.834   1.079
 3344TIP3    H131591   5.333   4.928   1.095
 3344TIP3    H231592   5.233   4.815   1.114
 3345TIP3   OH231593   3.574   0.157   1.429
 3345TIP3    H131594   3.482   0.133   1.429
 3345TIP3    H231595   3.601   0.152   1.338
 3346TIP3   OH231596   5.590   3.502   6.657
 3346TIP3    H131597   5.558   3.591   6.675
 3346TIP3    H231598   5.685   3.509   6.663
 3347TIP3   OH231599   2.195   0.396   0.607
 3347TIP3    H131600   2.246   0.461   0.654
 3347TIP3    H231601   2.253   0.366   0.537
 3348TIP3   OH231602   4.825   2.315   0.571
 3348TIP3    H131603   4.870   2.311   0.655
 3348TIP3    H231604   4.732   2.318   0.593
 3349TIP3   OH231605   4.517   6.565   2.494
 3349TIP3    H131606   4.562   6.487   2.459
 3349TIP3    H231607   4.541   6.635   2.434
 3350TIP3   OH231608   4.582   5.207   6.118
 3350TIP3    H131609   4.625   5.189   6.035
 3350TIP3    H231610   4.633   5.277   6.158
 3351TIP3   OH231611   0.647   2.548   6.969
 3351TIP3    H131612   0.604   2.521   6.887
 3351TIP3    H231613   0.639   2.471   7.026
 3352TIP3   OH231614   6.384   6.025   7.357
 3352TIP3    H131615   6.443   6.096   7.385
 3352TIP3    H231616   6.432   5.983   7.286
 3353TIP3   OH231617   6.354   5.950   7.923
 3353TIP3    H131618   6.419   5.954   7.852
 3353TIP3    H231619   6.354   6.038   7.961
 3354TIP3   OH231620   4.126   6.353   6.405
 3354TIP3    H131621   4.073   6.317   6.334
 3354TIP3    H231622   4.201   6.393   6.361
 3355TIP3   OH231623   0.710   2.644   0.438
 3355TIP3    H131624   0.804   2.641   0.452
 3355TIP3    H231625   0.672   2.637   0.525
 3356TIP3   OH231626   0.899   4.585   2.298
 3356TIP3    H131627   0.965   4.632   2.247
 3356TIP3    H231628   0.881   4.642   2.373
 3357TIP3   OH231629   6.435   2.159   1.426
 3357TIP3    H131630   6.472   2.118   1.504
 3357TIP3    H231631   6.362   2.211   1.458
 3358TIP3   OH231632   4.142   4.045   0.984
 3358TIP3    H131633   4.061   4.089   1.007
 3358TIP3    H231634   4.119   3.988   0.911
 3359TIP3   OH231635   5.442   4.429   8.565
 3359TIP3    H131636   5.491   4.472   8.635
 3359TIP3    H231637   5.438   4.337   8.592
 3360TIP3   OH231638   4.373   2.455   7.654
 3360TIP3    H131639   4.394   2.455   7.748
 3360TIP3    H231640   4.405   2.539   7.622
 3361TIP3   OH231641   6.248   1.105   7.913
 3361TIP3    H131642   6.343   1.098   7.920
 3361TIP3    H231643   6.214   1.051   7.985
 3362TIP3   OH231644   3.671   6.318   0.543
 3362TIP3    H131645   3.765   6.319   0.526
 3362TIP3    H231646   3.651   6.226   0.560
 3363TIP3   OH231647   2.603   6.701   7.523
 3363TIP3    H131648   2.549   6.633   7.562
 3363TIP3    H231649   2.549   6.780   7.529
 3364TIP3   OH231650   3.149   2.227   1.218
 3364TIP3    H131651   3.075   2.272   1.177
 3364TIP3    H231652   3.174   2.160   1.155
 3365TIP3   OH231653   2.845   0.873   7.270
 3365TIP3    H131654   2.853   0.840   7.359
 3365TIP3    H231655   2.766   0.926   7.271
 3366TIP3   OH231656   1.098   3.590   0.221
 3366TIP3    H131657   1.047   3.578   0.301
 3366TIP3    H231658   1.182   3.547   0.239
 3367TIP3   OH231659   4.892   4.963   0.898
 3367TIP3    H131660   4.937   5.022   0.959
 3367TIP3    H231661   4.947   4.964   0.820
 3368TIP3   OH231662   6.739   5.145   1.488
 3368TIP3    H131663   6.749   5.051   1.472
 3368TIP3    H231664   6.683   5.176   1.417
 3369TIP3   OH231665   0.482   4.211   0.868
 3369TIP3    H131666   0.575   4.226   0.849
 3369TIP3    H231667   0.481   4.188   0.961
 3370TIP3   OH231668   0.800   4.599   8.507
 3370TIP3    H131669   0.874   4.641   8.550
 3370TIP3    H231670   0.724   4.629   8.557
 3371TIP3   OH231671   5.898   0.327   1.691
 3371TIP3    H131672   5.831   0.259   1.687
 3371TIP3    H231673   5.861   0.401   1.644
 3372TIP3   OH231674   3.023   4.230   1.474
 3372TIP3    H131675   2.996   4.320   1.455
 3372TIP3    H231676   2.989   4.213   1.562
 3373TIP3   OH231677   3.017   6.389   6.175
 3373TIP3    H131678   2.949   6.401   6.109
 3373TIP3    H231679   3.071   6.317   6.142
 3374TIP3   OH231680   6.714   0.807   8.353
 3374TIP3    H131681   6.636   0.804   8.408
 3374TIP3    H231682   6.758   0.723   8.371
 3375TIP3   OH231683   1.962   2.100   6.554
 3375TIP3    H131684   1.876   2.069   6.527
 3375TIP3    H231685   1.958   2.195   6.541
 3376TIP3   OH231686   1.764   3.310   8.055
 3376TIP3    H131687   1.686   3.353   8.089
 3376TIP3    H231688   1.824   3.382   8.032
 3377TIP3   OH231689   4.882   5.836   1.637
 3377TIP3    H131690   4.895   5.776   1.711
 3377TIP3    H231691   4.788   5.854   1.637
 3378TIP3   OH231692   1.602   5.322   1.330
 3378TIP3    H131693   1.557   5.404   1.310
 3378TIP3    H231694   1.534   5.255   1.323
 3379TIP3   OH231695   0.900   6.686   7.809
 3379TIP3    H131696   0.890   6.635   7.890
 3379TIP3    H231697   0.903   6.777   7.839
 3380TIP3   OH231698   6.741   4.811   2.560
 3380TIP3    H131699   6.796   4.888   2.574
 3380TIP3    H231700   6.659   4.831   2.605
 3381TIP3   OH231701   5.892   3.656   0.797
 3381TIP3    H131702   5.816   3.619   0.751
 3381TIP3    H231703   5.944   3.697   0.728
 3382TIP3   OH231704   4.629   6.820   0.058
 3382TIP3    H131705   4.629   6.733   0.018
 3382TIP3    H231706   4.553   6.863   0.021
 3383TIP3   OH231707   0.871   5.246   8.146
 3383TIP3    H131708   0.903   5.157   8.135
 3383TIP3    H231709   0.869   5.283   8.058
 3384TIP3   OH231710   1.006   6.511   7.339
 3384TIP3    H131711   1.098   6.534   7.327
 3384TIP3    H231712   0.964   6.592   7.369
 3385TIP3   OH231713   4.610   6.581   8.558
 3385TIP3    H131714   4.530   6.570   8.506
 3385TIP3    H231715   4.679   6.594   8.494
 3386TIP3   OH231716   3.308   5.863   0.287
 3386TIP3    H131717   3.402   5.843   0.289
 3386TIP3    H231718   3.304   5.958   0.289
 3387TIP3   OH231719   5.438   5.069   6.842
 3387TIP3    H131720   5.356   5.068   6.792
 3387TIP3    H231721   5.483   5.148   6.812
 3388TIP3   OH231722   5.232   1.107   8.307
 3388TIP3    H131723   5.190   1.049   8.244
 3388TIP3    H231724   5.303   1.054   8.344
 3389TIP3   OH231725   0.209   6.294   0.528
 3389TIP3    H131726   0.114   6.295   0.518
 3389TIP3    H231727   0.227   6.354   0.600
 3390TIP3   OH231728   1.242   5.163   7.021
 3390TIP3    H131729   1.164   5.210   6.993
 3390TIP3    H231730   1.313   5.202   6.970
 3391TIP3   OH231731   4.767   2.115   7.953
 3391TIP3    H131732   4.679   2.095   7.922
 3391TIP3    H231733   4.762   2.205   7.984
 3392TIP3   OH231734   6.843   2.097   7.971
 3392TIP3    H131735   6.748   2.110   7.967
 3392TIP3    H231736   6.876   2.177   8.013
 3393TIP3   OH231737   4.273   1.861   0.312
 3393TIP3    H131738   4.355   1.894   0.348
 3393TIP3    H231739   4.285   1.767   0.305
 3394TIP3   OH231740   1.611   6.791   1.755
 3394TIP3    H131741   1.674   6.727   1.789
 3394TIP3    H231742   1.545   6.798   1.824
 3395TIP3   OH231743   2.661   5.935   1.620
 3395TIP3    H131744   2.736   5.992   1.606
 3395TIP3    H231745   2.689   5.850   1.584
 3396TIP3   OH231746   3.063   0.363   7.982
 3396TIP3    H131747   3.083   0.272   8.004
 3396TIP3    H231748   3.108   0.378   7.899
 3397TIP3   OH231749   4.581   1.336   2.027
 3397TIP3    H131750   4.629   1.400   2.079
 3397TIP3    H231751   4.532   1.285   2.092
 3398TIP3   OH231752   6.352   1.324   2.264
 3398TIP3    H131753   6.379   1.233   2.280
 3398TIP3    H231754   6.423   1.377   2.300
 3399TIP3   OH231755   1.301   6.473   2.389
 3399TIP3    H131756   1.298   6.423   2.308
 3399TIP3    H231757   1.258   6.556   2.367
 3400TIP3   OH231758   6.104   1.501   0.205
 3400TIP3    H131759   6.088   1.413   0.239
 3400TIP3    H231760   6.196   1.500   0.179
 3401TIP3   OH231761   5.060   0.659   7.536
 3401TIP3    H131762   5.106   0.611   7.605
 3401TIP3    H231763   5.129   0.701   7.486
 3402TIP3   OH231764   3.223   3.123   7.778
 3402TIP3    H131765   3.151   3.074   7.737
 3402TIP3    H231766   3.185   3.159   7.858
 3403TIP3   OH231767   1.046   4.814   0.312
 3403TIP3    H131768   1.117   4.759   0.344
 3403TIP3    H231769   1.030   4.782   0.223
 3404TIP3   OH231770   0.915   1.835   1.300
 3404TIP3    H131771   0.970   1.823   1.378
 3404TIP3    H231772   0.901   1.929   1.295
 3405TIP3   OH231773   5.582   4.946   1.169
 3405TIP3    H131774   5.494   4.978   1.188
 3405TIP3    H231775   5.598   4.880   1.236
 3406TIP3   OH231776   3.795   6.790   0.661
 3406TIP3    H131777   3.835   6.708   0.632
 3406TIP3    H231778   3.859   6.830   0.720
 3407TIP3   OH231779   0.198   2.866   1.161
 3407TIP3    H131780   0.289   2.856   1.186
 3407TIP3    H231781   0.154   2.788   1.197
 3408TIP3   OH231782   1.823   6.561   6.800
 3408TIP3    H131783   1.755   6.530   6.741
 3408TIP3    H231784   1.820   6.501   6.875
 3409TIP3   OH231785   2.228   4.137   6.226
 3409TIP3    H131786   2.141   4.178   6.231
 3409TIP3    H231787   2.285   4.197   6.274
 3410TIP3   OH231788   4.664   3.217   6.830
 3410TIP3    H131789   4.718   3.140   6.847
 3410TIP3    H231790   4.728   3.288   6.818
 3411TIP3   OH231791   2.759   3.994   6.474
 3411TIP3    H131792   2.760   4.075   6.422
 3411TIP3    H231793   2.687   3.943   6.438
 3412TIP3   OH231794   5.519   0.180   2.233
 3412TIP3    H131795   5.579   0.166   2.306
 3412TIP3    H231796   5.506   0.092   2.196
 3413TIP3   OH231797   3.792   6.625   7.687
 3413TIP3    H131798   3.852   6.621   7.614
 3413TIP3    H231799   3.738   6.702   7.670
 3414TIP3   OH231800   3.135   1.965   7.122
 3414TIP3    H131801   3.188   1.896   7.162
 3414TIP3    H231802   3.118   1.933   7.033
 3415TIP3   OH231803   4.326   4.487   1.539
 3415TIP3    H131804   4.356   4.490   1.448
 3415TIP3    H231805   4.323   4.393   1.560
 3416TIP3   OH231806   3.617   0.358   7.990
 3416TIP3    H131807   3.631   0.389   8.079
 3416TIP3    H231808   3.705   0.344   7.955
 3417TIP3   OH231809   5.081   0.427   0.071
 3417TIP3    H131810   5.033   0.361   0.020
 3417TIP3    H231811   5.022   0.449   0.143
 3418TIP3   OH231812   4.047   4.016   1.542
 3418TIP3    H131813   3.968   3.990   1.589
 3418TIP3    H231814   4.118   3.972   1.588
 3419TIP3   OH231815   3.052   2.957   0.744
 3419TIP3    H131816   3.092   2.878   0.780
 3419TIP3    H231817   3.050   2.942   0.650
 3420TIP3   OH231818   2.912   0.690   6.468
 3420TIP3    H131819   2.979   0.732   6.414
 3420TIP3    H231820   2.831   0.735   6.446
 3421TIP3   OH231821   5.800   3.307   8.556
 3421TIP3    H131822   5.813   3.292   8.462
 3421TIP3    H231823   5.837   3.228   8.598
 3422TIP3   OH231824   2.724   0.798   1.509
 3422TIP3    H131825   2.768   0.732   1.563
 3422TIP3    H231826   2.675   0.748   1.444
 3423TIP3   OH231827   3.667   2.096   8.144
 3423TIP3    H131828   3.724   2.034   8.189
 3423TIP3    H231829   3.579   2.062   8.157
 3424TIP3   OH231830   2.787   3.999   6.890
 3424TIP3    H131831   2.868   3.994   6.940
 3424TIP3    H231832   2.789   3.923   6.832
 3425TIP3   OH231833   6.101   6.673   2.137
 3425TIP3    H131834   6.129   6.716   2.056
 3425TIP3    H231835   6.150   6.717   2.206
 3426TIP3   OH231836   0.980   2.596   0.854
 3426TIP3    H131837   0.911   2.630   0.911
 3426TIP3    H231838   1.028   2.533   0.909
 3427TIP3   OH231839   2.269   6.647   7.436
 3427TIP3    H131840   2.244   6.555   7.445
 3427TIP3    H231841   2.297   6.655   7.345
 3428TIP3   OH231842   5.889   6.532   0.582
 3428TIP3    H131843   5.938   6.483   0.516
 3428TIP3    H231844   5.850   6.605   0.533
 3429TIP3   OH231845   4.338   2.426   7.034
 3429TIP3    H131846   4.401   2.365   6.995
 3429TIP3    H231847   4.373   2.512   7.015
 3430TIP3   OH231848   2.981   4.326   8.562
 3430TIP3    H131849   3.050   4.340   8.497
 3430TIP3    H231850   3.028   4.316   8.644
 3431TIP3   OH231851   1.285   2.715   7.822
 3431TIP3    H131852   1.281   2.675   7.735
 3431TIP3    H231853   1.368   2.763   7.823
 3432TIP3   OH231854   6.331   6.865   8.059
 3432TIP3    H131855   6.380   0.069   8.050
 3432TIP3    H231856   6.322   6.853   8.154
 3433TIP3   OH231857   4.148   2.348   1.773
 3433TIP3    H131858   4.160   2.401   1.852
 3433TIP3    H231859   4.203   2.271   1.786
 3434TIP3   OH231860   4.048   0.352   1.057
 3434TIP3    H131861   4.077   0.262   1.041
 3434TIP3    H231862   3.986   0.370   0.987
 3435TIP3   OH231863   1.970   6.032   8.575
 3435TIP3    H131864   2.061   6.048   8.551
 3435TIP3    H231865   1.920   6.055   8.497
 3436TIP3   OH231866   3.695   0.132   2.068
 3436TIP3    H131867   3.608   0.095   2.085
 3436TIP3    H231868   3.733   0.145   2.155
 3437TIP3   OH231869   1.121   1.928   0.197
 3437TIP3    H131870   1.196   1.935   0.140
 3437TIP3    H231871   1.154   1.950   0.284
 3438TIP3   OH231872   0.683   6.860   7.168
 3438TIP3    H131873   0.750   6.871   7.100
 3438TIP3    H231874   0.611   0.038   7.139
 3439TIP3   OH231875   6.084   4.236   6.987
 3439TIP3    H131876   6.083   4.258   6.894
 3439TIP3    H231877   6.018   4.167   6.996
 3440TIP3   OH231878   6.150   0.475   1.774
 3440TIP3    H131879   6.059   0.504   1.777
 3440TIP3    H231880   6.163   0.444   1.685
 3441TIP3   OH231881   2.856   6.725   0.230
 3441TIP3    H131882   2.852   6.640   0.275
 3441TIP3    H231883   2.901   6.783   0.291
 3442TIP3   OH231884   3.715   0.093   7.152
 3442TIP3    H131885   3.795   0.126   7.192
 3442TIP3    H231886   3.718   6.876   7.165
 3443TIP3   OH231887   3.533   6.196   1.648
 3443TIP3    H131888   3.498   6.265   1.593
 3443TIP3    H231889   3.571   6.133   1.587
 3444TIP3   OH231890   4.949   0.263   8.534
 3444TIP3    H131891   4.991   0.183   8.566
 3444TIP3    H231892   4.856   0.252   8.557
 3445TIP3   OH231893   3.493   2.021   1.001
 3445TIP3    H131894   3.456   2.090   0.946
 3445TIP3    H231895   3.579   2.003   0.963
 3446TIP3   OH231896   1.623   2.597   6.758
 3446TIP3    H131897   1.565   2.668   6.729
 3446TIP3    H231898   1.674   2.574   6.681
 3447TIP3   OH231899   1.271   3.450   8.197
 3447TIP3    H131900   1.270   3.545   8.201
 3447TIP3    H231901   1.250   3.421   8.286
 3448TIP3   OH231902   2.694   6.486   0.416
 3448TIP3    H131903   2.651   6.406   0.445
 3448TIP3    H231904   2.778   6.457   0.381
 3449TIP3   OH231905   4.417   6.394   6.604
 3449TIP3    H131906   4.489   6.333   6.618
 3449TIP3    H231907   4.345   6.359   6.656
 3450TIP3   OH231908   1.429   1.644   7.817
 3450TIP3    H131909   1.423   1.642   7.913
 3450TIP3    H231910   1.509   1.595   7.797
 3451TIP3   OH231911   2.081   3.283   8.636
 3451TIP3    H131912   2.052   3.373   0.002
 3451TIP3    H231913   2.138   3.261   0.059
 3452TIP3   OH231914   0.074   5.839   1.946
 3452TIP3    H131915   0.005   5.905   1.939
 3452TIP3    H231916   0.142   5.881   1.999
 3453TIP3   OH231917   2.547   6.140   1.376
 3453TIP3    H131918   2.597   6.219   1.399
 3453TIP3    H231919   2.613   6.074   1.358
 3454TIP3   OH231920   3.833   6.293   1.577
 3454TIP3    H131921   3.744   6.314   1.548
 3454TIP3    H231922   3.821   6.223   1.641
 3455TIP3   OH231923   2.488   0.453   7.301
 3455TIP3    H131924   2.425   0.448   7.374
 3455TIP3    H231925   2.553   0.517   7.330
 3456TIP3   OH231926   4.715   5.730   1.183
 3456TIP3    H131927   4.623   5.707   1.181
 3456TIP3    H231928   4.751   5.677   1.254
 3457TIP3   OH231929   2.232   0.844   1.200
 3457TIP3    H131930   2.256   0.858   1.292
 3457TIP3    H231931   2.270   0.918   1.153
 3458TIP3   OH231932   2.454   6.143   0.023
 3458TIP3    H131933   2.489   6.055   0.031
 3458TIP3    H231934   2.402   6.141   8.594
 3459TIP3   OH231935   1.500   6.273   7.632
 3459TIP3    H131936   1.497   6.297   7.539
 3459TIP3    H231937   1.522   6.354   7.677
 3460TIP3   OH231938   3.068   3.892   0.757
 3460TIP3    H131939   3.099   3.894   0.847
 3460TIP3    H231940   2.991   3.949   0.756
 3461TIP3   OH231941   4.588   6.011   1.979
 3461TIP3    H131942   4.513   5.953   1.966
 3461TIP3    H231943   4.565   6.092   1.933
 3462TIP3   OH231944   0.917   3.453   7.282
 3462TIP3    H131945   0.963   3.523   7.329
 3462TIP3    H231946   0.889   3.392   7.351
 3463TIP3   OH231947   6.609   2.803   0.522
 3463TIP3    H131948   6.662   2.881   0.504
 3463TIP3    H231949   6.630   2.779   0.612
 3464TIP3   OH231950   3.948   6.554   1.082
 3464TIP3    H131951   3.914   6.644   1.081
 3464TIP3    H231952   3.873   6.500   1.104
 3465TIP3   OH231953   1.615   3.740   0.057
 3465TIP3    H131954   1.670   3.751   8.631
 3465TIP3    H231955   1.646   3.659   0.098
 3466TIP3   OH231956   2.939   6.564   1.368
 3466TIP3    H131957   2.982   6.479   1.378
 3466TIP3    H231958   2.850   6.543   1.339
 3467TIP3   OH231959   1.359   0.408   1.642
 3467TIP3    H131960   1.328   0.384   1.729
 3467TIP3    H231961   1.437   0.354   1.628
 3468TIP3   OH231962   4.705   1.863   8.491
 3468TIP3    H131963   4.737   1.880   8.403
 3468TIP3    H231964   4.614   1.835   8.478
 3469TIP3   OH231965   5.084   3.990   7.069
 3469TIP3    H131966   5.001   3.972   7.024
 3469TIP3    H231967   5.147   4.002   6.998
 3470TIP3   OH231968   0.888   1.214   7.030
 3470TIP3    H131969   0.900   1.195   6.937
 3470TIP3    H231970   0.914   1.133   7.074
 3471TIP3   OH231971   2.207   2.683   7.387
 3471TIP3    H131972   2.130   2.631   7.366
 3471TIP3    H231973   2.246   2.705   7.302
 3472TIP3   OH231974   2.074   5.437   7.656
 3472TIP3    H131975   2.047   5.521   7.693
 3472TIP3    H231976   2.019   5.427   7.578
 3473TIP3   OH231977   5.191   5.776   7.091
 3473TIP3    H131978   5.224   5.813   7.173
 3473TIP3    H231979   5.150   5.850   7.047
 3474TIP3   OH231980   0.342   3.799   6.840
 3474TIP3    H131981   0.300   3.862   6.781
 3474TIP3    H231982   0.421   3.772   6.793
 3475TIP3   OH231983   2.754   0.007   0.672
 3475TIP3    H131984   2.730   6.792   0.668
 3475TIP3    H231985   2.714   0.039   0.752
 3476TIP3   OH231986   4.230   0.085   0.976
 3476TIP3    H131987   4.270   6.876   0.981
 3476TIP3    H231988   4.264   0.131   1.053
 3477TIP3   OH231989   1.581   5.066   2.398
 3477TIP3    H131990   1.624   5.096   2.318
 3477TIP3    H231991   1.518   5.000   2.369
 3478TIP3   OH231992   6.510   3.210   7.403
 3478TIP3    H131993   6.513   3.275   7.473
 3478TIP3    H231994   6.435   3.155   7.426
 3479TIP3   OH231995   4.667   6.811   6.653
 3479TIP3    H131996   4.760   6.786   6.649
 3479TIP3    H231997   4.668   0.026   6.676
 3480TIP3   OH231998   3.842   2.684   1.816
 3480TIP3    H131999   3.828   2.617   1.749
 3480TIP3    H232000   3.933   2.672   1.843
 3481TIP3   OH232001   6.824   4.257   8.390
 3481TIP3    H132002   6.774   4.333   8.419
 3481TIP3    H232003   0.013   4.245   8.457
 3482TIP3   OH232004   3.889   3.895   1.965
 3482TIP3    H132005   3.834   3.823   1.994
 3482TIP3    H232006   3.908   3.944   2.046
 3483TIP3   OH232007   0.686   6.683   6.462
 3483TIP3    H132008   0.678   6.622   6.389
 3483TIP3    H232009   0.780   6.700   6.468
 3484TIP3   OH232010   6.857   2.537   1.875
 3484TIP3    H132011   6.875   2.479   1.949
 3484TIP3    H232012   6.863   2.625   1.912
 3485TIP3   OH232013   5.263   3.792   7.521
 3485TIP3    H132014   5.317   3.866   7.548
 3485TIP3    H232015   5.244   3.745   7.602
 3486TIP3   OH232016   4.233   5.924   7.662
 3486TIP3    H132017   4.216   5.987   7.732
 3486TIP3    H232018   4.185   5.845   7.688
 3487TIP3   OH232019   6.524   2.748   8.208
 3487TIP3    H132020   6.466   2.823   8.198
 3487TIP3    H232021   6.524   2.730   8.302
 3488TIP3   OH232022   5.275   3.395   0.984
 3488TIP3    H132023   5.184   3.412   1.006
 3488TIP3    H232024   5.322   3.474   1.009
 3489TIP3   OH232025   6.366   1.996   7.266
 3489TIP3    H132026   6.457   1.968   7.280
 3489TIP3    H232027   6.369   2.091   7.274
 3490TIP3   OH232028   2.801   0.691   1.223
 3490TIP3    H132029   2.827   0.634   1.152
 3490TIP3    H232030   2.883   0.732   1.252
 3491TIP3   OH232031   5.374   4.936   0.729
 3491TIP3    H132032   5.316   4.988   0.785
 3491TIP3    H232033   5.462   4.955   0.762
 3492TIP3   OH232034   2.130   5.861   0.878
 3492TIP3    H132035   2.057   5.905   0.922
 3492TIP3    H232036   2.094   5.832   0.794
 3493TIP3   OH232037   1.890   3.509   7.939
 3493TIP3    H132038   1.817   3.522   7.879
 3493TIP3    H232039   1.968   3.533   7.888
 3494TIP3   OH232040   4.618   3.864   5.758
 3494TIP3    H132041   4.596   3.839   5.848
 3494TIP3    H232042   4.542   3.835   5.707
 3495TIP3   OH232043   4.004   2.368   7.957
 3495TIP3    H132044   4.046   2.365   8.042
 3495TIP3    H232045   4.038   2.291   7.911
 3496TIP3   OH232046   2.221   3.439   6.470
 3496TIP3    H132047   2.126   3.428   6.460
 3496TIP3    H232048   2.234   3.534   6.470
 3497TIP3   OH232049   2.637   3.612   7.837
 3497TIP3    H132050   2.711   3.635   7.894
 3497TIP3    H232051   2.571   3.679   7.854
 3498TIP3   OH232052   1.568   4.038   6.247
 3498TIP3    H132053   1.528   3.971   6.301
 3498TIP3    H232054   1.513   4.043   6.169
 3499TIP3   OH232055   3.468   5.281   0.320
 3499TIP3    H132056   3.496   5.208   0.377
 3499TIP3    H232057   3.373   5.272   0.316
 3500TIP3   OH232058   0.884   5.274   6.649
 3500TIP3    H132059   0.921   5.264   6.562
 3500TIP3    H232060   0.790   5.279   6.635
 3501TIP3   OH232061   5.193   3.317   7.049
 3501TIP3    H132062   5.151   3.277   7.125
 3501TIP3    H232063   5.241   3.392   7.085
 3502TIP3   OH232064   0.295   0.410   6.746
 3502TIP3    H132065   0.381   0.368   6.735
 3502TIP3    H232066   0.313   0.503   6.733
 3503TIP3   OH232067   4.269   3.757   1.524
 3503TIP3    H132068   4.263   3.737   1.617
 3503TIP3    H232069   4.183   3.736   1.488
 3504TIP3   OH232070   5.856   4.324   7.439
 3504TIP3    H132071   5.905   4.263   7.494
 3504TIP3    H232072   5.786   4.357   7.496
 3505TIP3   OH232073   1.136   3.037   1.585
 3505TIP3    H132074   1.147   3.029   1.680
 3505TIP3    H232075   1.095   2.954   1.560
 3506TIP3   OH232076   3.610   2.276   0.743
 3506TIP3    H132077   3.549   2.331   0.693
 3506TIP3    H232078   3.553   2.215   0.790
 3507TIP3   OH232079   1.195   5.255   1.400
 3507TIP3    H132080   1.101   5.262   1.383
 3507TIP3    H232081   1.236   5.267   1.314
 3508TIP3   OH232082   5.310   3.793   7.257
 3508TIP3    H132083   5.338   3.885   7.249
 3508TIP3    H232084   5.261   3.790   7.339
 3509TIP3   OH232085   0.009   1.761   0.548
 3509TIP3    H132086   6.841   1.768   0.464
 3509TIP3    H232087   0.101   1.754   0.525
 3510TIP3   OH232088   1.692   0.855   6.792
 3510TIP3    H132089   1.736   0.795   6.732
 3510TIP3    H232090   1.734   0.940   6.776
 3511TIP3   OH232091   2.946   3.725   1.014
 3511TIP3    H132092   3.033   3.765   1.009
 3511TIP3    H232093   2.956   3.639   0.973
 3512TIP3   OH232094   2.297   5.773   7.528
 3512TIP3    H132095   2.253   5.727   7.456
 3512TIP3    H232096   2.377   5.722   7.543
 3513TIP3   OH232097   2.973   6.778   1.491
 3513TIP3    H132098   2.899   6.836   1.506
 3513TIP3    H232099   2.934   6.693   1.473
 3514TIP3   OH232100   3.424   4.409   8.319
 3514TIP3    H132101   3.493   4.465   8.283
 3514TIP3    H232102   3.434   4.417   8.414
 3515TIP3   OH232103   4.407   3.433   1.019
 3515TIP3    H132104   4.486   3.457   0.972
 3515TIP3    H232105   4.437   3.407   1.106
 3516TIP3   OH232106   4.468   1.734   1.616
 3516TIP3    H132107   4.484   1.662   1.678
 3516TIP3    H232108   4.544   1.791   1.626
 3517TIP3   OH232109   4.559   5.081   0.688
 3517TIP3    H132110   4.638   5.043   0.726
 3517TIP3    H232111   4.522   5.012   0.634
 3518TIP3   OH232112   6.341   3.708   6.625
 3518TIP3    H132113   6.426   3.744   6.600
 3518TIP3    H232114   6.301   3.682   6.542
 3519TIP3   OH232115   5.870   6.554   8.321
 3519TIP3    H132116   5.848   6.647   8.332
 3519TIP3    H232117   5.792   6.515   8.283
 3520TIP3   OH232118   0.037   6.709   1.625
 3520TIP3    H132119   0.009   6.798   1.648
 3520TIP3    H232120   6.863   6.686   1.548
 3521TIP3   OH232121   0.584   3.690   7.693
 3521TIP3    H132122   0.549   3.739   7.618
 3521TIP3    H232123   0.519   3.621   7.709
 3522TIP3   OH232124   1.841   6.861   6.825
 3522TIP3    H132125   1.800   6.795   6.881
 3522TIP3    H232126   1.884   6.812   6.755
 3523TIP3   OH232127   1.655   2.512   7.557
 3523TIP3    H132128   1.710   2.587   7.535
 3523TIP3    H232129   1.660   2.455   7.480
 3524TIP3   OH232130   3.672   3.431   0.465
 3524TIP3    H132131   3.609   3.364   0.493
 3524TIP3    H232132   3.625   3.482   0.399
 3525TIP3   OH232133   2.095   2.179   7.960
 3525TIP3    H132134   2.114   2.153   7.870
 3525TIP3    H232135   2.071   2.272   7.953
 3526TIP3   OH232136   6.731   1.690   8.420
 3526TIP3    H132137   6.664   1.626   8.443
 3526TIP3    H232138   6.752   1.671   8.328
 3527TIP3   OH232139   6.786   4.027   7.127
 3527TIP3    H132140   6.758   4.075   7.049
 3527TIP3    H232141   6.707   4.017   7.179
 3528TIP3   OH232142   1.789   4.654   6.340
 3528TIP3    H132143   1.699   4.630   6.320
 3528TIP3    H232144   1.817   4.589   6.405
 3529TIP3   OH232145   4.627   6.159   6.853
 3529TIP3    H132146   4.610   6.173   6.760
 3529TIP3    H232147   4.641   6.065   6.862
 3530TIP3   OH232148   4.328   6.825   2.165
 3530TIP3    H132149   4.347   6.800   2.255
 3530TIP3    H232150   4.328   0.042   2.166
 3531TIP3   OH232151   4.231   4.662   6.923
 3531TIP3    H132152   4.221   4.735   6.984
 3531TIP3    H232153   4.174   4.685   6.849
 3532TIP3   OH232154   4.905   2.727   1.600
 3532TIP3    H132155   4.968   2.690   1.538
 3532TIP3    H232156   4.862   2.651   1.639
 3533TIP3   OH232157   1.427   4.867   1.568
 3533TIP3    H132158   1.339   4.873   1.531
 3533TIP3    H232159   1.413   4.859   1.662
 3534TIP3   OH232160   5.853   2.254   2.413
 3534TIP3    H132161   5.795   2.225   2.343
 3534TIP3    H232162   5.800   2.316   2.463
 3535TIP3   OH232163   6.431   6.149   7.712
 3535TIP3    H132164   6.476   6.233   7.707
 3535TIP3    H232165   6.501   6.084   7.715
 3536TIP3   OH232166   1.196   6.476   1.308
 3536TIP3    H132167   1.235   6.554   1.348
 3536TIP3    H232168   1.242   6.467   1.224
 3537TIP3   OH232169   0.847   4.315   8.048
 3537TIP3    H132170   0.825   4.408   8.047
 3537TIP3    H232171   0.943   4.314   8.052
 3538TIP3   OH232172   3.407   4.589   1.966
 3538TIP3    H132173   3.326   4.627   1.932
 3538TIP3    H232174   3.476   4.628   1.913
 3539TIP3   OH232175   5.663   6.309   0.536
 3539TIP3    H132176   5.656   6.226   0.583
 3539TIP3    H232177   5.658   6.376   0.605
 3540TIP3   OH232178   4.314   6.171   1.067
 3540TIP3    H132179   4.362   6.123   1.134
 3540TIP3    H232180   4.273   6.103   1.013
 3541TIP3   OH232181   1.170   6.518   1.993
 3541TIP3    H132182   1.102   6.558   2.048
 3541TIP3    H232183   1.157   6.424   2.005
 3542TIP3   OH232184   3.334   0.279   0.888
 3542TIP3    H132185   3.405   0.319   0.837
 3542TIP3    H232186   3.373   0.200   0.925
 3543TIP3   OH232187   2.759   4.818   6.777
 3543TIP3    H132188   2.672   4.851   6.798
 3543TIP3    H232189   2.806   4.894   6.742
 3544TIP3   OH232190   2.102   6.656   7.634
 3544TIP3    H132191   2.118   6.603   7.711
 3544TIP3    H232192   2.164   6.623   7.569
 3545TIP3   OH232193   0.021   6.468   8.225
 3545TIP3    H132194   6.812   6.459   8.186
 3545TIP3    H232195   0.025   6.398   8.291
 3546TIP3   OH232196   3.344   5.519   1.068
 3546TIP3    H132197   3.378   5.449   1.012
 3546TIP3    H232198   3.422   5.553   1.113
 3547TIP3   OH232199   3.415   6.063   0.619
 3547TIP3    H132200   3.441   5.971   0.615
 3547TIP3    H232201   3.321   6.063   0.599
 3548TIP3   OH232202   2.807   1.930   0.383
 3548TIP3    H132203   2.874   1.984   0.342
 3548TIP3    H232204   2.729   1.942   0.328
 3549TIP3   OH232205   1.361   1.587   8.539
 3549TIP3    H132206   1.456   1.571   8.540
 3549TIP3    H232207   1.341   1.615   8.629
 3550TIP3   OH232208   5.796   3.635   8.508
 3550TIP3    H132209   5.844   3.694   8.566
 3550TIP3    H232210   5.781   3.556   8.560
 3551TIP3   OH232211   5.059   0.184   1.670
 3551TIP3    H132212   5.005   0.128   1.727
 3551TIP3    H232213   5.049   0.272   1.706
 3552TIP3   OH232214   3.281   4.156   8.483
 3552TIP3    H132215   3.284   4.238   8.531
 3552TIP3    H232216   3.351   4.103   8.522
 3553TIP3   OH232217   2.386   5.454   7.742
 3553TIP3    H132218   2.296   5.484   7.725
 3553TIP3    H232219   2.376   5.380   7.801
 3554TIP3   OH232220   6.170   1.075   7.459
 3554TIP3    H132221   6.150   1.026   7.379
 3554TIP3    H232222   6.168   1.167   7.431
 3555TIP3   OH232223   2.153   4.073   6.976
 3555TIP3    H132224   2.229   4.092   7.030
 3555TIP3    H232225   2.159   3.979   6.959
 3556TIP3   OH232226   4.373   5.204   0.859
 3556TIP3    H132227   4.432   5.249   0.920
 3556TIP3    H232228   4.432   5.166   0.794
 3557TIP3   OH232229   2.013   2.985   8.535
 3557TIP3    H132230   1.965   2.988   8.618
 3557TIP3    H232231   2.087   3.044   8.548
 3558TIP3   OH232232   1.492   5.198   0.615
 3558TIP3    H132233   1.581   5.231   0.611
 3558TIP3    H232234   1.495   5.130   0.682
 3559TIP3   OH232235   1.828   3.180   8.493
 3559TIP3    H132236   1.780   3.253   8.455
 3559TIP3    H232237   1.897   3.220   8.546
 3560TIP3   OH232238   1.587   3.378   0.626
 3560TIP3    H132239   1.509   3.432   0.638
 3560TIP3    H232240   1.604   3.340   0.712
 3561TIP3   OH232241   5.618   2.248   1.663
 3561TIP3    H132242   5.584   2.321   1.611
 3561TIP3    H232243   5.587   2.266   1.752
 3562TIP3   OH232244   0.302   3.639   0.275
 3562TIP3    H132245   0.321   3.619   0.184
 3562TIP3    H232246   0.212   3.607   0.288
 3563TIP3   OH232247   4.012   4.810   0.825
 3563TIP3    H132248   4.020   4.841   0.735
 3563TIP3    H232249   3.919   4.822   0.845
 3564TIP3   OH232250   4.510   0.252   7.192
 3564TIP3    H132251   4.593   0.242   7.145
 3564TIP3    H232252   4.518   0.197   7.269
 3565TIP3   OH232253   6.589   6.727   8.215
 3565TIP3    H132254   6.581   6.632   8.203
 3565TIP3    H232255   6.522   6.749   8.280
 3566TIP3   OH232256   4.331   2.852   0.757
 3566TIP3    H132257   4.259   2.819   0.703
 3566TIP3    H232258   4.312   2.945   0.769
 3567TIP3   OH232259   0.499   1.348   0.857
 3567TIP3    H132260   0.531   1.391   0.778
 3567TIP3    H232261   0.441   1.412   0.898
 3568TIP3   OH232262   4.676   0.751   7.372
 3568TIP3    H132263   4.622   0.769   7.296
 3568TIP3    H232264   4.699   0.837   7.407
 3569TIP3   OH232265   3.781   5.473   1.548
 3569TIP3    H132266   3.775   5.431   1.634
 3569TIP3    H232267   3.824   5.408   1.493
 3570TIP3   OH232268   2.625   4.492   6.309
 3570TIP3    H132269   2.667   4.541   6.379
 3570TIP3    H232270   2.584   4.559   6.254
 3571TIP3   OH232271   5.205   4.636   7.231
 3571TIP3    H132272   5.252   4.686   7.165
 3571TIP3    H232273   5.258   4.558   7.244
 3572TIP3   OH232274   1.090   2.749   8.332
 3572TIP3    H132275   1.105   2.822   8.393
 3572TIP3    H232276   1.115   2.671   8.382
 3573TIP3   OH232277   6.309   4.794   2.016
 3573TIP3    H132278   6.218   4.769   1.998
 3573TIP3    H232279   6.303   4.878   2.061
 3574TIP3   OH232280   4.870   0.658   7.740
 3574TIP3    H132281   4.887   0.737   7.793
 3574TIP3    H232282   4.936   0.661   7.671
 3575TIP3   OH232283   6.640   2.772   0.052
 3575TIP3    H132284   6.640   2.681   0.081
 3575TIP3    H232285   6.553   2.804   0.076
 3576TIP3   OH232286   1.452   2.768   6.441
 3576TIP3    H132287   1.357   2.776   6.433
 3576TIP3    H232288   1.468   2.674   6.437
 3577TIP3   OH232289   3.969   3.236   8.012
 3577TIP3    H132290   3.963   3.142   8.029
 3577TIP3    H232291   4.062   3.256   8.019
 3578TIP3   OH232292   1.745   0.024   0.807
 3578TIP3    H132293   1.797   0.029   0.887
 3578TIP3    H232294   1.663   6.862   0.835
 3579TIP3   OH232295   2.265   1.944   0.228
 3579TIP3    H132296   2.188   1.971   0.278
 3579TIP3    H232297   2.299   2.026   0.191
 3580TIP3   OH232298   1.225   1.169   0.592
 3580TIP3    H132299   1.154   1.205   0.539
 3580TIP3    H232300   1.243   1.083   0.553
 3581TIP3   OH232301   2.317   3.048   6.795
 3581TIP3    H132302   2.390   3.096   6.757
 3581TIP3    H232303   2.239   3.096   6.767
 3582TIP3   OH232304   5.610   6.448   6.359
 3582TIP3    H132305   5.522   6.412   6.366
 3582TIP3    H232306   5.605   6.534   6.400
 3583TIP3   OH232307   6.386   0.641   8.089
 3583TIP3    H132308   6.460   0.702   8.093
 3583TIP3    H232309   6.418   0.568   8.036
 3584TIP3   OH232310   4.574   3.073   1.737
 3584TIP3    H132311   4.532   3.136   1.679
 3584TIP3    H232312   4.657   3.114   1.763
 3585TIP3   OH232313   5.155   4.873   7.588
 3585TIP3    H132314   5.217   4.812   7.628
 3585TIP3    H232315   5.183   4.879   7.496
 3586TIP3   OH232316   0.800   2.074   1.359
 3586TIP3    H132317   0.719   2.102   1.401
 3586TIP3    H232318   0.869   2.120   1.407
 3587TIP3   OH232319   0.956   3.027   1.264
 3587TIP3    H132320   0.973   3.102   1.321
 3587TIP3    H232321   0.948   3.065   1.177
 3588TIP3   OH232322   1.128   2.270   7.089
 3588TIP3    H132323   1.222   2.257   7.102
 3588TIP3    H232324   1.121   2.358   7.052
 3589TIP3   OH232325   6.437   2.947   1.510
 3589TIP3    H132326   6.394   2.891   1.445
 3589TIP3    H232327   6.526   2.912   1.517
 3590TIP3   OH232328   5.013   5.970   7.280
 3590TIP3    H132329   5.048   6.021   7.353
 3590TIP3    H232330   5.051   6.012   7.202
 3591TIP3   OH232331   3.548   5.554   0.466
 3591TIP3    H132332   3.617   5.499   0.504
 3591TIP3    H232333   3.511   5.500   0.396
 3592TIP3   OH232334   2.489   1.034   1.777
 3592TIP3    H132335   2.486   1.068   1.688
 3592TIP3    H232336   2.562   1.081   1.818
 3593TIP3   OH232337   0.819   5.470   1.120
 3593TIP3    H132338   0.886   5.522   1.076
 3593TIP3    H232339   0.859   5.443   1.202
 3594TIP3   OH232340   6.123   3.140   8.398
 3594TIP3    H132341   6.113   3.155   8.492
 3594TIP3    H232342   6.123   3.044   8.389
 3595TIP3   OH232343   4.566   5.731   7.050
 3595TIP3    H132344   4.484   5.703   7.008
 3595TIP3    H232345   4.620   5.761   6.977
 3596TIP3   OH232346   2.379   0.692   7.976
 3596TIP3    H132347   2.409   0.730   7.893
 3596TIP3    H232348   2.455   0.646   8.011
 3597TIP3   OH232349   5.065   3.711   6.489
 3597TIP3    H132350   5.077   3.773   6.560
 3597TIP3    H232351   5.153   3.682   6.466
 3598TIP3   OH232352   5.798   0.816   7.586
 3598TIP3    H132353   5.797   0.820   7.682
 3598TIP3    H232354   5.707   0.797   7.562
 3599TIP3   OH232355   1.621   3.905   1.870
 3599TIP3    H132356   1.577   3.886   1.788
 3599TIP3    H232357   1.591   3.993   1.894
 3600TIP3   OH232358   1.486   0.140   8.495
 3600TIP3    H132359   1.501   0.137   8.589
 3600TIP3    H232360   1.391   0.140   8.485
 3601TIP3   OH232361   2.531   4.511   7.553
 3601TIP3    H132362   2.483   4.593   7.561
 3601TIP3    H232363   2.622   4.537   7.547
 3602TIP3   OH232364   0.502   3.029   2.299
 3602TIP3    H132365   0.498   3.125   2.300
 3602TIP3    H232366   0.411   3.002   2.284
 3603TIP3   OH232367   5.236   2.563   8.178
 3603TIP3    H132368   5.290   2.642   8.182
 3603TIP3    H232369   5.275   2.510   8.109
 3604TIP3   OH232370   6.316   3.792   0.925
 3604TIP3    H132371   6.390   3.844   0.894
 3604TIP3    H232372   6.246   3.855   0.939
 3605TIP3   OH232373   3.400   6.662   6.373
 3605TIP3    H132374   3.362   6.743   6.338
 3605TIP3    H232375   3.445   6.623   6.299
 3606TIP3   OH232376   3.475   1.394   1.949
 3606TIP3    H132377   3.411   1.464   1.938
 3606TIP3    H232378   3.543   1.413   1.885
 3607TIP3   OH232379   5.688   0.495   2.086
 3607TIP3    H132380   5.710   0.475   2.176
 3607TIP3    H232381   5.592   0.500   2.085
 3608TIP3   OH232382   2.475   6.744   8.061
 3608TIP3    H132383   2.428   6.770   8.140
 3608TIP3    H232384   2.432   6.792   7.990
 3609TIP3   OH232385   5.821   5.631   7.445
 3609TIP3    H132386   5.855   5.637   7.534
 3609TIP3    H232387   5.892   5.663   7.390
 3610TIP3   OH232388   3.732   5.042   0.420
 3610TIP3    H132389   3.703   4.954   0.398
 3610TIP3    H232390   3.658   5.081   0.466
 3611TIP3   OH232391   0.420   6.473   6.889
 3611TIP3    H132392   0.505   6.516   6.877
 3611TIP3    H232393   0.420   6.402   6.825
 3612TIP3   OH232394   4.230   0.084   1.700
 3612TIP3    H132395   4.325   0.095   1.699
 3612TIP3    H232396   4.195   0.173   1.703
 3613TIP3   OH232397   3.954   6.291   0.447
 3613TIP3    H132398   3.930   6.259   0.360
 3613TIP3    H232399   4.017   6.361   0.430
 3614TIP3   OH232400   6.193   3.160   1.244
 3614TIP3    H132401   6.110   3.141   1.288
 3614TIP3    H232402   6.168   3.207   1.164
 3615TIP3   OH232403   2.528   4.072   1.750
 3615TIP3    H132404   2.565   4.147   1.703
 3615TIP3    H232405   2.435   4.093   1.760
 3616TIP3   OH232406   3.442   0.926   7.806
 3616TIP3    H132407   3.451   0.904   7.898
 3616TIP3    H232408   3.457   1.021   7.803
 3617TIP3   OH232409   5.054   0.158   6.201
 3617TIP3    H132410   5.134   0.105   6.208
 3617TIP3    H232411   4.984   0.098   6.227
 3618TIP3   OH232412   4.162   5.377   1.752
 3618TIP3    H132413   4.135   5.418   1.834
 3618TIP3    H232414   4.198   5.293   1.778
 3619TIP3   OH232415   1.302   5.168   1.126
 3619TIP3    H132416   1.225   5.181   1.071
 3619TIP3    H232417   1.364   5.234   1.096
 3620TIP3   OH232418   2.326   5.493   8.247
 3620TIP3    H132419   2.243   5.491   8.201
 3620TIP3    H232420   2.388   5.531   8.184
 3621TIP3   OH232421   5.342   0.013   6.684
 3621TIP3    H132422   5.425   0.060   6.671
 3621TIP3    H232423   5.286   0.045   6.613
 3622TIP3   OH232424   6.245   6.342   1.577
 3622TIP3    H132425   6.185   6.311   1.509
 3622TIP3    H232426   6.271   6.430   1.549
 3623TIP3   OH232427   4.649   1.821   0.795
 3623TIP3    H132428   4.645   1.911   0.762
 3623TIP3    H232429   4.562   1.804   0.830
 3624TIP3   OH232430   1.493   3.674   7.646
 3624TIP3    H132431   1.474   3.599   7.589
 3624TIP3    H232432   1.522   3.636   7.728
 3625TIP3   OH232433   4.109   2.615   7.078
 3625TIP3    H132434   4.091   2.689   7.136
 3625TIP3    H232435   4.196   2.585   7.104
 3626TIP3   OH232436   3.072   2.622   7.040
 3626TIP3    H132437   3.072   2.695   6.979
 3626TIP3    H232438   3.079   2.663   7.126
 3627TIP3   OH232439   6.530   4.374   8.635
 3627TIP3    H132440   6.618   4.412   8.627
 3627TIP3    H232441   6.541   4.283   8.607
 3628TIP3   OH232442   4.499   6.678   1.948
 3628TIP3    H132443   4.420   6.724   1.977
 3628TIP3    H232444   4.466   6.613   1.885
 3629TIP3   OH232445   4.762   5.815   2.039
 3629TIP3    H132446   4.849   5.854   2.042
 3629TIP3    H232447   4.703   5.890   2.029
 3630TIP3   OH232448   1.141   0.818   7.178
 3630TIP3    H132449   1.068   0.872   7.147
 3630TIP3    H232450   1.213   0.879   7.190
 3631TIP3   OH232451   4.409   6.131   1.653
 3631TIP3    H132452   4.471   6.063   1.626
 3631TIP3    H232453   4.423   6.140   1.747
 3632TIP3   OH232454   4.423   0.533   6.596
 3632TIP3    H132455   4.422   0.446   6.556
 3632TIP3    H232456   4.511   0.542   6.631
 3633TIP3   OH232457   6.620   6.773   0.091
 3633TIP3    H132458   6.654   6.694   0.133
 3633TIP3    H232459   6.540   6.793   0.140
 3634TIP3   OH232460   0.485   4.764   2.360
 3634TIP3    H132461   0.534   4.847   2.356
 3634TIP3    H232462   0.452   4.760   2.450
 3635TIP3   OH232463   2.378   1.025   0.504
 3635TIP3    H132464   2.422   1.005   0.421
 3635TIP3    H232465   2.320   1.099   0.482
 3636TIP3   OH232466   3.879   5.961   8.603
 3636TIP3    H132467   3.870   6.013   0.032
 3636TIP3    H232468   3.891   6.026   8.533
 3637TIP3   OH232469   0.658   4.308   0.532
 3637TIP3    H132470   0.605   4.255   0.593
 3637TIP3    H232471   0.682   4.247   0.462
 3638TIP3   OH232472   2.461   1.942   8.020
 3638TIP3    H132473   2.378   1.898   8.000
 3638TIP3    H232474   2.437   2.034   8.030
 3639TIP3   OH232475   4.214   6.634   0.838
 3639TIP3    H132476   4.274   6.679   0.897
 3639TIP3    H232477   4.227   6.541   0.857
 3640TIP3   OH232478   1.865   2.332   0.452
 3640TIP3    H132479   1.851   2.245   0.413
 3640TIP3    H232480   1.929   2.373   0.395
 3641TIP3   OH232481   2.237   1.697   2.120
 3641TIP3    H132482   2.208   1.768   2.063
 3641TIP3    H232483   2.171   1.628   2.108
 3642TIP3   OH232484   3.554   0.545   1.132
 3642TIP3    H132485   3.517   0.473   1.182
 3642TIP3    H232486   3.646   0.549   1.160
 3643TIP3   OH232487   3.827   3.750   7.966
 3643TIP3    H132488   3.818   3.785   7.878
 3643TIP3    H232489   3.862   3.662   7.954
 3644TIP3   OH232490   6.672   4.877   7.803
 3644TIP3    H132491   6.639   4.898   7.890
 3644TIP3    H232492   6.753   4.927   7.796
 3645TIP3   OH232493   5.284   4.487   6.940
 3645TIP3    H132494   5.294   4.573   6.979
 3645TIP3    H232495   5.304   4.500   6.847
 3646TIP3   OH232496   4.035   0.283   8.185
 3646TIP3    H132497   4.059   0.192   8.205
 3646TIP3    H232498   3.951   0.296   8.227
 3647TIP3   OH232499   2.432   5.586   8.487
 3647TIP3    H132500   2.509   5.531   8.500
 3647TIP3    H232501   2.380   5.538   8.422
 3648TIP3   OH232502   4.640   5.693   0.337
 3648TIP3    H132503   4.677   5.611   0.304
 3648TIP3    H232504   4.683   5.705   0.422
 3649TIP3   OH232505   3.758   3.980   1.719
 3649TIP3    H132506   3.799   3.943   1.797
 3649TIP3    H232507   3.694   4.043   1.752
 3650TIP3   OH232508   0.504   2.570   6.440
 3650TIP3    H132509   0.526   2.478   6.450
 3650TIP3    H232510   0.545   2.596   6.358
 3651TIP3   OH232511   2.990   6.587   7.581
 3651TIP3    H132512   3.073   6.555   7.617
 3651TIP3    H232513   2.938   6.611   7.657
 3652TIP3   OH232514   1.622   1.330   0.820
 3652TIP3    H132515   1.697   1.302   0.873
 3652TIP3    H232516   1.633   1.284   0.737
 3653TIP3   OH232517   3.209   5.742   1.456
 3653TIP3    H132518   3.180   5.675   1.517
 3653TIP3    H232519   3.135   5.753   1.396
 3654TIP3   OH232520   6.046   3.751   0.594
 3654TIP3    H132521   5.983   3.795   0.537
 3654TIP3    H232522   6.106   3.821   0.622
 3655TIP3   OH232523   0.313   3.928   0.865
 3655TIP3    H132524   0.367   4.005   0.851
 3655TIP3    H232525   0.325   3.906   0.957
 3656TIP3   OH232526   5.816   3.491   0.121
 3656TIP3    H132527   5.821   3.414   0.065
 3656TIP3    H232528   5.722   3.500   0.141
 3657TIP3   OH232529   1.837   1.999   1.096
 3657TIP3    H132530   1.792   1.925   1.055
 3657TIP3    H232531   1.880   2.044   1.023
 3658TIP3   OH232532   3.511   5.588   0.788
 3658TIP3    H132533   3.545   5.659   0.843
 3658TIP3    H232534   3.566   5.513   0.809
 3659TIP3   OH232535   0.851   2.279   0.151
 3659TIP3    H132536   0.821   2.306   0.237
 3659TIP3    H232537   0.912   2.207   0.168
 3660TIP3   OH232538   2.150   2.037   8.198
 3660TIP3    H132539   2.098   2.085   8.262
 3660TIP3    H232540   2.145   2.089   8.118
 3661TIP3   OH232541   3.265   1.179   1.038
 3661TIP3    H132542   3.206   1.107   1.062
 3661TIP3    H232543   3.207   1.254   1.026
 3662TIP3   OH232544   5.889   5.879   6.306
 3662TIP3    H132545   5.868   5.972   6.294
 3662TIP3    H232546   5.864   5.860   6.396
 3663TIP3   OH232547   5.142   4.024   0.932
 3663TIP3    H132548   5.140   3.930   0.918
 3663TIP3    H232549   5.229   4.052   0.904
 3664TIP3   OH232550   1.013   3.834   1.850
 3664TIP3    H132551   1.091   3.837   1.905
 3664TIP3    H232552   0.943   3.870   1.905
 3665TIP3   OH232553   6.478   3.243   7.967
 3665TIP3    H132554   6.553   3.224   7.911
 3665TIP3    H232555   6.415   3.174   7.948
 3666TIP3   OH232556   0.539   3.052   1.509
 3666TIP3    H132557   0.524   3.146   1.519
 3666TIP3    H232558   0.488   3.011   1.579
 3667TIP3   OH232559   5.702   1.151   0.077
 3667TIP3    H132560   5.685   1.205   8.651
 3667TIP3    H232561   5.795   1.127   0.069
 3668TIP3   OH232562   2.215   2.162   6.840
 3668TIP3    H132563   2.302   2.181   6.805
 3668TIP3    H232564   2.232   2.105   6.915
 3669TIP3   OH232565   4.240   4.792   8.633
 3669TIP3    H132566   4.305   4.855   0.013
 3669TIP3    H232567   4.157   4.839   8.638
 3670TIP3   OH232568   5.158   3.140   1.355
 3670TIP3    H132569   5.129   3.192   1.430
 3670TIP3    H232570   5.227   3.193   1.315
 3671TIP3   OH232571   1.990   5.749   7.628
 3671TIP3    H132572   1.961   5.718   7.542
 3671TIP3    H232573   2.067   5.803   7.609
 3672TIP3   OH232574   3.935   1.874   8.016
 3672TIP3    H132575   3.867   1.884   8.083
 3672TIP3    H232576   3.921   1.786   7.981
 3673TIP3   OH232577   4.405   1.477   6.680
 3673TIP3    H132578   4.360   1.415   6.622
 3673TIP3    H232579   4.415   1.556   6.627
 3674TIP3   OH232580   2.256   6.161   8.091
 3674TIP3    H132581   2.292   6.223   8.154
 3674TIP3    H232582   2.185   6.118   8.138
 3675TIP3   OH232583   4.850   4.510   8.618
 3675TIP3    H132584   4.935   4.533   8.581
 3675TIP3    H232585   4.829   4.425   8.580
 3676TIP3   OH232586   1.675   6.411   8.537
 3676TIP3    H132587   1.692   6.378   8.449
 3676TIP3    H232588   1.709   6.500   8.537
 3677TIP3   OH232589   2.784   6.499   5.938
 3677TIP3    H132590   2.852   6.511   5.872
 3677TIP3    H232591   2.715   6.449   5.894
 3678TIP3   OH232592   3.101   0.952   1.110
 3678TIP3    H132593   3.057   0.913   1.186
 3678TIP3    H232594   3.123   0.878   1.054
 3679TIP3   OH232595   5.679   3.899   0.529
 3679TIP3    H132596   5.679   3.994   0.526
 3679TIP3    H232597   5.587   3.875   0.539
 3680TIP3   OH232598   6.631   5.172   0.058
 3680TIP3    H132599   6.607   5.080   0.043
 3680TIP3    H232600   6.710   5.167   0.112
 3681TIP3   OH232601   3.775   0.429   7.721
 3681TIP3    H132602   3.722   0.485   7.665
 3681TIP3    H232603   3.806   0.487   7.790
 3682TIP3   OH232604   3.235   5.882   8.090
 3682TIP3    H132605   3.173   5.922   8.028
 3682TIP3    H232606   3.298   5.952   8.108
 3683TIP3   OH232607   3.523   0.571   7.524
 3683TIP3    H132608   3.512   0.657   7.484
 3683TIP3    H232609   3.478   0.578   7.608
 3684TIP3   OH232610   3.893   4.478   1.488
 3684TIP3    H132611   3.920   4.553   1.542
 3684TIP3    H232612   3.837   4.426   1.546
 3685TIP3   OH232613   5.088   6.212   0.651
 3685TIP3    H132614   5.167   6.187   0.699
 3685TIP3    H232615   5.115   6.217   0.560
 3686TIP3   OH232616   2.494   2.264   1.270
 3686TIP3    H132617   2.449   2.207   1.333
 3686TIP3    H232618   2.524   2.205   1.201
 3687TIP3   OH232619   0.566   5.373   7.109
 3687TIP3    H132620   0.571   5.360   7.204
 3687TIP3    H232621   0.532   5.462   7.099
 3688TIP3   OH232622   1.870   6.137   8.022
 3688TIP3    H132623   1.812   6.071   8.060
 3688TIP3    H232624   1.862   6.124   7.927
 3689TIP3   OH232625   6.551   1.543   7.684
 3689TIP3    H132626   6.635   1.570   7.719
 3689TIP3    H232627   6.561   1.547   7.589
 3690TIP3   OH232628   6.238   1.847   1.053
 3690TIP3    H132629   6.282   1.931   1.041
 3690TIP3    H232630   6.176   1.842   0.981
 3691TIP3   OH232631   3.284   3.926   7.266
 3691TIP3    H132632   3.310   3.954   7.179
 3691TIP3    H232633   3.364   3.889   7.304
 3692TIP3   OH232634   2.467   2.343   7.000
 3692TIP3    H132635   2.405   2.401   6.955
 3692TIP3    H232636   2.490   2.278   6.934
 3693TIP3   OH232637   2.035   4.179   8.234
 3693TIP3    H132638   2.089   4.161   8.158
 3693TIP3    H232639   2.060   4.113   8.298
 3694TIP3   OH232640   2.948   2.257   1.972
 3694TIP3    H132641   2.905   2.251   1.886
 3694TIP3    H232642   2.879   2.236   2.035
 3695TIP3   OH232643   3.424   1.489   1.133
 3695TIP3    H132644   3.420   1.582   1.110
 3695TIP3    H232645   3.353   1.450   1.083
 3696TIP3   OH232646   0.288   3.753   6.109
 3696TIP3    H132647   0.378   3.780   6.123
 3696TIP3    H232648   0.295   3.668   6.067
 3697TIP3   OH232649   1.935   6.789   1.643
 3697TIP3    H132650   1.973   6.734   1.712
 3697TIP3    H232651   1.964   6.749   1.561
 3698TIP3   OH232652   0.788   3.158   0.064
 3698TIP3    H132653   0.757   3.189   8.630
 3698TIP3    H232654   0.796   3.238   0.116
 3699TIP3   OH232655   0.940   6.839   6.966
 3699TIP3    H132656   1.002   6.818   6.897
 3699TIP3    H232657   0.990   6.827   7.047
 3700TIP3   OH232658   3.437   6.211   2.266
 3700TIP3    H132659   3.342   6.202   2.259
 3700TIP3    H232660   3.455   6.298   2.231
 3701TIP3   OH232661   4.208   2.299   2.405
 3701TIP3    H132662   4.227   2.217   2.451
 3701TIP3    H232663   4.293   2.324   2.367
 3702TIP3   OH232664   5.649   2.316   1.978
 3702TIP3    H132665   5.693   2.232   1.968
 3702TIP3    H232666   5.708   2.379   1.936
 3703TIP3   OH232667   3.465   5.224   7.375
 3703TIP3    H132668   3.435   5.232   7.284
 3703TIP3    H232669   3.390   5.185   7.421
 3704TIP3   OH232670   4.382   6.438   8.030
 3704TIP3    H132671   4.471   6.431   8.064
 3704TIP3    H232672   4.384   6.393   7.945
 3705TIP3   OH232673   4.792   6.267   0.649
 3705TIP3    H132674   4.855   6.221   0.595
 3705TIP3    H232675   4.772   6.347   0.600
 3706TIP3   OH232676   5.504   5.873   8.072
 3706TIP3    H132677   5.574   5.935   8.089
 3706TIP3    H232678   5.437   5.924   8.027
 3707TIP3   OH232679   0.582   6.228   1.563
 3707TIP3    H132680   0.633   6.152   1.533
 3707TIP3    H232681   0.580   6.218   1.658
 3708TIP3   OH232682   1.808   6.066   6.940
 3708TIP3    H132683   1.861   6.091   6.864
 3708TIP3    H232684   1.871   6.048   7.009
 3709TIP3   OH232685   1.359   6.387   0.499
 3709TIP3    H132686   1.390   6.419   0.414
 3709TIP3    H232687   1.327   6.465   0.544
 3710TIP3   OH232688   5.472   2.821   1.309
 3710TIP3    H132689   5.490   2.775   1.391
 3710TIP3    H232690   5.459   2.751   1.244
 3711TIP3   OH232691   1.626   2.073   0.768
 3711TIP3    H132692   1.717   2.071   0.797
 3711TIP3    H232693   1.601   1.981   0.761
 3712TIP3   OH232694   6.251   2.134   8.139
 3712TIP3    H132695   6.233   2.143   8.046
 3712TIP3    H232696   6.173   2.091   8.175
 3713TIP3   OH232697   4.561   2.423   8.387
 3713TIP3    H132698   4.473   2.399   8.357
 3713TIP3    H232699   4.594   2.345   8.431
 3714TIP3   OH232700   3.445   5.987   6.989
 3714TIP3    H132701   3.371   6.038   6.955
 3714TIP3    H232702   3.522   6.041   6.970
 3715TIP3   OH232703   1.100   5.792   0.574
 3715TIP3    H132704   1.006   5.786   0.591
 3715TIP3    H232705   1.123   5.883   0.594
 3716TIP3   OH232706   1.125   0.552   6.388
 3716TIP3    H132707   1.040   0.582   6.354
 3716TIP3    H232708   1.139   0.604   6.467
 3717TIP3   OH232709   2.583   6.551   1.541
 3717TIP3    H132710   2.635   6.474   1.520
 3717TIP3    H232711   2.592   6.562   1.636
 3718TIP3   OH232712   4.171   4.503   1.125
 3718TIP3    H132713   4.195   4.569   1.190
 3718TIP3    H232714   4.214   4.423   1.153
 3719TIP3   OH232715   4.557   4.579   8.465
 3719TIP3    H132716   4.613   4.521   8.518
 3719TIP3    H232717   4.475   4.585   8.515
 3720TIP3   OH232718   3.807   5.670   0.984
 3720TIP3    H132719   3.721   5.708   1.001
 3720TIP3    H232720   3.820   5.682   0.890
 3721TIP3   OH232721   5.125   3.735   8.046
 3721TIP3    H132722   5.199   3.673   8.040
 3721TIP3    H232723   5.103   3.736   8.139
 3722TIP3   OH232724   4.721   6.779   0.960
 3722TIP3    H132725   4.724   6.684   0.953
 3722TIP3    H232726   4.780   6.800   1.033
 3723TIP3   OH232727   4.411   5.249   1.554
 3723TIP3    H132728   4.390   5.342   1.561
 3723TIP3    H232729   4.364   5.208   1.626
 3724TIP3   OH232730   3.518   1.578   6.989
 3724TIP3    H132731   3.549   1.654   7.039
 3724TIP3    H232732   3.517   1.608   6.898
 3725TIP3   OH232733   5.747   3.427   7.745
 3725TIP3    H132734   5.722   3.338   7.771
 3725TIP3    H232735   5.675   3.456   7.689
 3726TIP3   OH232736   1.628   2.468   7.920
 3726TIP3    H132737   1.568   2.421   7.864
 3726TIP3    H232738   1.650   2.406   7.990
 3727TIP3   OH232739   4.647   5.932   7.958
 3727TIP3    H132740   4.737   5.941   7.987
 3727TIP3    H232741   4.653   5.886   7.874
 3728TIP3   OH232742   5.844   3.647   7.507
 3728TIP3    H132743   5.830   3.742   7.497
 3728TIP3    H232744   5.842   3.632   7.601
 3729TIP3   OH232745   3.618   5.301   8.324
 3729TIP3    H132746   3.708   5.318   8.295
 3729TIP3    H232747   3.594   5.380   8.373
 3730TIP3   OH232748   5.223   4.990   0.026
 3730TIP3    H132749   5.230   4.918   0.088
 3730TIP3    H232750   5.229   5.069   0.080
 3731TIP3   OH232751   3.322   6.853   1.947
 3731TIP3    H132752   3.337   0.052   2.002
 3731TIP3    H232753   3.235   6.822   1.973
 3732TIP3   OH232754   0.312   0.402   1.355
 3732TIP3    H132755   0.408   0.407   1.354
 3732TIP3    H232756   0.291   0.381   1.446
 3733TIP3   OH232757   5.975   3.382   1.478
 3733TIP3    H132758   5.928   3.299   1.475
 3733TIP3    H232759   6.030   3.381   1.400
 3734TIP3   OH232760   2.865   5.870   7.671
 3734TIP3    H132761   2.872   5.929   7.597
 3734TIP3    H232762   2.781   5.893   7.713
 3735TIP3   OH232763   5.334   3.653   1.127
 3735TIP3    H132764   5.327   3.584   1.193
 3735TIP3    H232765   5.336   3.734   1.177
 3736TIP3   OH232766   0.354   5.110   7.468
 3736TIP3    H132767   0.430   5.119   7.526
 3736TIP3    H232768   0.326   5.019   7.479
 3737TIP3   OH232769   0.465   6.613   0.557
 3737TIP3    H132770   0.442   6.654   0.474
 3737TIP3    H232771   0.386   6.620   0.611
 3738TIP3   OH232772   2.374   5.074   8.246
 3738TIP3    H132773   2.317   5.132   8.297
 3738TIP3    H232774   2.460   5.083   8.286
 3739TIP3   OH232775   0.330   2.733   1.937
 3739TIP3    H132776   0.331   2.685   2.020
 3739TIP3    H232777   0.389   2.807   1.951
 3740TIP3   OH232778   1.073   2.892   0.873
 3740TIP3    H132779   1.105   2.896   0.963
 3740TIP3    H232780   1.057   2.799   0.857
 3741TIP3   OH232781   2.407   5.707   7.130
 3741TIP3    H132782   2.351   5.634   7.103
 3741TIP3    H232783   2.367   5.784   7.090
 3742TIP3   OH232784   6.686   4.121   0.635
 3742TIP3    H132785   6.684   4.181   0.561
 3742TIP3    H232786   6.766   4.144   0.682
 3743TIP3   OH232787   2.261   2.890   7.713
 3743TIP3    H132788   2.199   2.818   7.715
 3743TIP3    H232789   2.269   2.919   7.804
 3744TIP3   OH232790   2.296   4.902   8.007
 3744TIP3    H132791   2.362   4.833   8.016
 3744TIP3    H232792   2.297   4.947   8.092
 3745TIP3   OH232793   2.698   6.617   0.641
 3745TIP3    H132794   2.727   6.596   0.552
 3745TIP3    H232795   2.699   6.533   0.687
 3746TIP3   OH232796   1.637   1.992   6.252
 3746TIP3    H132797   1.705   1.962   6.313
 3746TIP3    H232798   1.569   1.925   6.258
 3747TIP3   OH232799   4.424   1.799   8.463
 3747TIP3    H132800   4.408   1.708   8.439
 3747TIP3    H232801   4.340   1.843   8.451
 3748TIP3   OH232802   2.631   0.578   8.103
 3748TIP3    H132803   2.682   0.593   8.183
 3748TIP3    H232804   2.608   0.485   8.107
 3749TIP3   OH232805   6.697   4.183   6.134
 3749TIP3    H132806   6.755   4.122   6.179
 3749TIP3    H232807   6.666   4.242   6.203
 3750TIP3   OH232808   1.984   6.254   0.712
 3750TIP3    H132809   1.962   6.178   0.768
 3750TIP3    H232810   2.062   6.226   0.665
 3751TIP3   OH232811   1.126   6.079   8.323
 3751TIP3    H132812   1.096   6.074   8.232
 3751TIP3    H232813   1.110   5.992   8.359
 3752TIP3   OH232814   6.552   2.478   1.057
 3752TIP3    H132815   6.541   2.391   1.017
 3752TIP3    H232816   6.463   2.513   1.061
 3753TIP3   OH232817   6.402   2.972   6.995
 3753TIP3    H132818   6.486   2.948   6.957
 3753TIP3    H232819   6.339   2.957   6.924
 3754TIP3   OH232820   4.717   2.932   0.338
 3754TIP3    H132821   4.747   3.020   0.364
 3754TIP3    H232822   4.673   2.898   0.416
 3755TIP3   OH232823   5.568   1.150   0.559
 3755TIP3    H132824   5.644   1.096   0.579
 3755TIP3    H232825   5.578   1.172   0.466
 3756TIP3   OH232826   0.928   5.225   7.202
 3756TIP3    H132827   0.979   5.150   7.230
 3756TIP3    H232828   0.883   5.255   7.281
 3757TIP3   OH232829   6.534   2.695   8.461
 3757TIP3    H132830   6.475   2.666   8.531
 3757TIP3    H232831   6.616   2.714   8.507
 3758TIP3   OH232832   2.725   3.630   0.861
 3758TIP3    H132833   2.654   3.594   0.914
 3758TIP3    H232834   2.741   3.717   0.899
 3759TIP3   OH232835   3.785   0.458   1.216
 3759TIP3    H132836   3.875   0.483   1.195
 3759TIP3    H232837   3.781   0.364   1.199
 3760TIP3   OH232838   1.232   0.173   8.530
 3760TIP3    H132839   1.157   0.114   8.520
 3760TIP3    H232840   1.197   0.249   8.577
 3761TIP3   OH232841   1.447   4.905   6.115
 3761TIP3    H132842   1.522   4.864   6.073
 3761TIP3    H232843   1.426   4.847   6.189
 3762TIP3   OH232844   5.272   0.904   1.279
 3762TIP3    H132845   5.311   0.959   1.211
 3762TIP3    H232846   5.178   0.911   1.265
 3763TIP3   OH232847   6.557   2.971   7.667
 3763TIP3    H132848   6.477   2.948   7.620
 3763TIP3    H232849   6.565   2.904   7.734
 3764TIP3   OH232850   3.036   1.398   5.979
 3764TIP3    H132851   2.949   1.438   5.973
 3764TIP3    H232852   3.020   1.304   5.975
 3765TIP3   OH232853   4.385   6.054   6.747
 3765TIP3    H132854   4.317   6.066   6.681
 3765TIP3    H232855   4.465   6.086   6.704
 3766TIP3   OH232856   6.027   6.551   8.613
 3766TIP3    H132857   5.940   6.591   8.620
 3766TIP3    H232858   6.064   6.558   0.050
 3767TIP3   OH232859   0.416   1.727   7.070
 3767TIP3    H132860   0.384   1.774   7.146
 3767TIP3    H232861   0.337   1.691   7.029
 3768TIP3   OH232862   2.105   3.071   1.986
 3768TIP3    H132863   2.139   2.989   1.950
 3768TIP3    H232864   2.010   3.059   1.987
 3769TIP3   OH232865   6.767   2.722   7.026
 3769TIP3    H132866   6.737   2.750   6.939
 3769TIP3    H232867   6.860   2.703   7.014
 3770TIP3   OH232868   4.746   1.089   2.528
 3770TIP3    H132869   4.808   1.162   2.538
 3770TIP3    H232870   4.770   1.028   2.598
 3771TIP3   OH232871   1.374   0.103   2.258
 3771TIP3    H132872   1.285   0.074   2.276
 3771TIP3    H232873   1.377   0.194   2.290
 3772TIP3   OH232874   3.895   1.071   0.646
 3772TIP3    H132875   3.823   1.069   0.583
 3772TIP3    H232876   3.974   1.076   0.592
 3773TIP3   OH232877   5.969   2.778   1.719
 3773TIP3    H132878   6.032   2.716   1.754
 3773TIP3    H232879   6.021   2.835   1.662
 3774TIP3   OH232880   3.087   1.392   1.909
 3774TIP3    H132881   3.099   1.343   1.827
 3774TIP3    H232882   2.993   1.390   1.925
 3775TIP3   OH232883   3.680   0.617   0.119
 3775TIP3    H132884   3.735   0.663   0.056
 3775TIP3    H232885   3.684   0.525   0.092
 3776TIP3   OH232886   5.430   3.387   0.534
 3776TIP3    H132887   5.387   3.404   0.450
 3776TIP3    H232888   5.504   3.331   0.512
 3777TIP3   OH232889   0.763   5.702   0.290
 3777TIP3    H132890   0.703   5.659   0.229
 3777TIP3    H232891   0.737   5.795   0.288
 3778TIP3   OH232892   1.710   1.846   1.615
 3778TIP3    H132893   1.786   1.825   1.669
 3778TIP3    H232894   1.743   1.846   1.526
 3779TIP3   OH232895   5.009   1.997   6.940
 3779TIP3    H132896   5.050   1.950   6.868
 3779TIP3    H232897   5.063   2.076   6.951
 3780TIP3   OH232898   5.049   1.769   1.001
 3780TIP3    H132899   4.966   1.767   1.048
 3780TIP3    H232900   5.103   1.833   1.047
 3781TIP3   OH232901   4.598   6.579   1.327
 3781TIP3    H132902   4.536   6.506   1.323
 3781TIP3    H232903   4.544   6.657   1.315
 3782TIP3   OH232904   0.517   0.982   8.041
 3782TIP3    H132905   0.552   1.051   7.984
 3782TIP3    H232906   0.579   0.977   8.114
 3783TIP3   OH232907   6.077   0.622   6.988
 3783TIP3    H132908   6.079   0.544   7.044
 3783TIP3    H232909   6.022   0.685   7.036
 3784TIP3   OH232910   5.444   2.086   6.742
 3784TIP3    H132911   5.438   1.996   6.774
 3784TIP3    H232912   5.524   2.087   6.690
 3785TIP3   OH232913   4.022   1.586   7.568
 3785TIP3    H132914   3.990   1.651   7.506
 3785TIP3    H232915   4.051   1.638   7.643
 3786TIP3   OH232916   5.065   0.325   7.699
 3786TIP3    H132917   5.083   0.414   7.730
 3786TIP3    H232918   5.103   0.268   7.767
 3787TIP3   OH232919   6.447   6.096   2.196
 3787TIP3    H132920   6.460   6.079   2.290
 3787TIP3    H232921   6.521   6.150   2.171
 3788TIP3   OH232922   4.776   0.246   7.354
 3788TIP3    H132923   4.791   0.153   7.374
 3788TIP3    H232924   4.785   0.291   7.438
 3789TIP3   OH232925   0.461   3.276   1.124
 3789TIP3    H132926   0.518   3.312   1.055
 3789TIP3    H232927   0.507   3.197   1.153
 3790TIP3   OH232928   1.027   3.992   0.029
 3790TIP3    H132929   1.115   3.974   0.062
 3790TIP3    H232930   1.006   4.079   0.065
 3791TIP3   OH232931   1.297   6.121   0.368
 3791TIP3    H132932   1.341   6.039   0.390
 3791TIP3    H232933   1.328   6.183   0.433
 3792TIP3   OH232934   3.380   0.177   2.119
 3792TIP3    H132935   3.311   0.155   2.182
 3792TIP3    H232936   3.430   0.246   2.161
 3793TIP3   OH232937   6.319   2.107   1.126
 3793TIP3    H132938   6.299   2.196   1.097
 3793TIP3    H232939   6.348   2.117   1.216
 3794TIP3   OH232940   2.794   0.363   8.113
 3794TIP3    H132941   2.875   0.373   8.063
 3794TIP3    H232942   2.818   0.311   8.189
 3795TIP3   OH232943   5.296   2.407   0.085
 3795TIP3    H132944   5.372   2.443   0.129
 3795TIP3    H232945   5.225   2.415   0.149
 3796TIP3   OH232946   5.321   0.977   1.024
 3796TIP3    H132947   5.227   0.976   1.005
 3796TIP3    H232948   5.362   0.975   0.938
 3797TIP3   OH232949   1.480   1.299   1.055
 3797TIP3    H132950   1.436   1.214   1.059
 3797TIP3    H232951   1.550   1.286   0.992
 3798TIP3   OH232952   1.685   1.035   1.297
 3798TIP3    H132953   1.655   1.077   1.377
 3798TIP3    H232954   1.664   1.097   1.227
 3799TIP3   OH232955   3.160   1.123   7.857
 3799TIP3    H132956   3.152   1.032   7.886
 3799TIP3    H232957   3.252   1.144   7.868
 3800TIP3   OH232958   3.378   1.816   6.824
 3800TIP3    H132959   3.284   1.835   6.830
 3800TIP3    H232960   3.393   1.798   6.731
 3801TIP3   OH232961   3.446   5.786   0.578
 3801TIP3    H132962   3.496   5.745   0.507
 3801TIP3    H232963   3.462   5.730   0.654
 3802TIP3   OH232964   6.853   5.146   0.552
 3802TIP3    H132965   6.857   5.060   0.595
 3802TIP3    H232966   6.802   5.130   0.472
 3803TIP3   OH232967   5.711   0.986   1.368
 3803TIP3    H132968   5.778   1.013   1.306
 3803TIP3    H232969   5.754   0.922   1.424
 3804TIP3   OH232970   1.019   6.387   7.014
 3804TIP3    H132971   1.094   6.342   7.052
 3804TIP3    H232972   0.944   6.356   7.064
 3805TIP3   OH232973   3.573   0.246   6.550
 3805TIP3    H132974   3.635   0.175   6.565
 3805TIP3    H232975   3.487   0.208   6.568
 3806TIP3   OH232976   5.420   1.630   1.217
 3806TIP3    H132977   5.331   1.610   1.186
 3806TIP3    H232978   5.411   1.637   1.312
 3807TIP3   OH232979   1.329   0.320   1.914
 3807TIP3    H132980   1.279   0.246   1.949
 3807TIP3    H232981   1.275   0.397   1.934
 3808TIP3   OH232982   5.136   6.808   1.595
 3808TIP3    H132983   5.110   0.019   1.615
 3808TIP3    H232984   5.105   6.756   1.669
 3809TIP3   OH232985   6.242   6.603   1.497
 3809TIP3    H132986   6.243   6.691   1.535
 3809TIP3    H232987   6.181   6.610   1.424
 3810TIP3   OH232988   4.201   0.739   7.882
 3810TIP3    H132989   4.199   0.797   7.958
 3810TIP3    H232990   4.170   0.794   7.809
 3811TIP3   OH232991   3.169   0.213   0.678
 3811TIP3    H132992   3.214   0.260   0.747
 3811TIP3    H232993   3.160   0.277   0.607
 3812TIP3   OH232994   1.804   4.568   2.061
 3812TIP3    H132995   1.857   4.590   2.137
 3812TIP3    H232996   1.799   4.472   2.061
 3813TIP3   OH232997   3.008   0.661   0.392
 3813TIP3    H132998   3.010   0.697   0.481
 3813TIP3    H232999   3.098   0.674   0.360
 3814TIP3   OH233000   5.905   0.145   7.522
 3814TIP3    H133001   5.940   0.121   7.608
 3814TIP3    H233002   5.979   0.137   7.463
 3815TIP3   OH233003   1.613   4.199   6.495
 3815TIP3    H133004   1.641   4.126   6.550
 3815TIP3    H233005   1.547   4.161   6.437
 3816TIP3   OH233006   6.409   0.124   1.222
 3816TIP3    H133007   6.332   0.158   1.177
 3816TIP3    H233008   6.406   0.030   1.209
 3817TIP3   OH233009   2.314   1.520   7.026
 3817TIP3    H133010   2.403   1.525   7.062
 3817TIP3    H233011   2.324   1.476   6.942
 3818TIP3   OH233012   5.702   1.833   8.590
 3818TIP3    H133013   5.612   1.804   8.575
 3818TIP3    H233014   5.697   1.883   0.021
 3819TIP3   OH233015   6.125   6.750   1.294
 3819TIP3    H133016   6.061   6.704   1.239
 3819TIP3    H233017   6.205   6.749   1.242
 3820TIP3   OH233018   4.223   0.308   0.094
 3820TIP3    H133019   4.236   0.247   0.021
 3820TIP3    H233020   4.159   0.265   0.150
 3821TIP3   OH233021   4.661   3.863   0.147
 3821TIP3    H133022   4.665   3.780   0.100
 3821TIP3    H233023   4.752   3.885   0.165
 3822TIP3   OH233024   2.851   1.594   2.036
 3822TIP3    H133025   2.865   1.509   1.994
 3822TIP3    H233026   2.931   1.643   2.019
 3823TIP3   OH233027   6.521   2.902   2.117
 3823TIP3    H133028   6.436   2.917   2.157
 3823TIP3    H233029   6.502   2.868   2.030
 3824TIP3   OH233030   2.194   2.140   0.861
 3824TIP3    H133031   2.213   2.074   0.928
 3824TIP3    H233032   2.277   2.185   0.847
 3825TIP3   OH233033   2.115   0.545   7.996
 3825TIP3    H133034   2.046   0.571   8.057
 3825TIP3    H233035   2.186   0.607   8.012
 3826TIP3   OH233036   4.645   1.484   8.058
 3826TIP3    H133037   4.727   1.516   8.022
 3826TIP3    H233038   4.581   1.494   7.987
 3827TIP3   OH233039   4.122   5.722   7.995
 3827TIP3    H133040   4.054   5.726   8.062
 3827TIP3    H233041   4.183   5.655   8.026
 3828TIP3   OH233042   2.627   6.291   8.331
 3828TIP3    H133043   2.708   6.304   8.281
 3828TIP3    H233044   2.653   6.238   8.406
 3829TIP3   OH233045   2.875   0.321   7.036
 3829TIP3    H133046   2.821   0.363   7.104
 3829TIP3    H233047   2.827   0.242   7.013
 3830TIP3   OH233048   1.424   0.930   0.273
 3830TIP3    H133049   1.491   0.977   0.222
 3830TIP3    H233050   1.377   0.878   0.208
 3831TIP3   OH233051   6.754   1.888   6.372
 3831TIP3    H133052   6.766   1.793   6.381
 3831TIP3    H233053   6.835   1.918   6.331
 3832TIP3   OH233054   5.418   3.884   0.567
 3832TIP3    H133055   5.345   3.827   0.592
 3832TIP3    H233056   5.394   3.970   0.601
 3833TIP3   OH233057   0.721   2.375   7.160
 3833TIP3    H133058   0.798   2.405   7.207
 3833TIP3    H233059   0.737   2.282   7.144
 3834TIP3   OH233060   5.356   3.885   1.281
 3834TIP3    H133061   5.386   3.890   1.372
 3834TIP3    H233062   5.357   3.976   1.252
 3835TIP3   OH233063   1.845   0.744   1.161
 3835TIP3    H133064   1.907   0.680   1.126
 3835TIP3    H233065   1.882   0.768   1.246
 3836TIP3   OH233066   0.580   2.031   8.042
 3836TIP3    H133067   0.586   2.124   8.064
 3836TIP3    H233068   0.559   2.029   7.949
 3837TIP3   OH233069   3.411   4.509   7.980
 3837TIP3    H133070   3.379   4.546   7.897
 3837TIP3    H233071   3.337   4.519   8.040
 3838TIP3   OH233072   3.861   1.522   0.074
 3838TIP3    H133073   3.941   1.483   0.110
 3838TIP3    H233074   3.835   1.463   0.003
 3839TIP3   OH233075   0.375   5.099   8.077
 3839TIP3    H133076   0.454   5.126   8.124
 3839TIP3    H233077   0.354   5.012   8.113
 3840TIP3   OH233078   3.843   0.941   6.797
 3840TIP3    H133079   3.839   0.978   6.885
 3840TIP3    H233080   3.837   1.017   6.739
 3841TIP3   OH233081   4.317   0.053   7.704
 3841TIP3    H133082   4.301   0.138   7.663
 3841TIP3    H233083   4.230   0.017   7.720
 3842TIP3   OH233084   0.996   2.816   2.453
 3842TIP3    H133085   1.078   2.778   2.423
 3842TIP3    H233086   1.013   2.910   2.458
 3843TIP3   OH233087   2.290   5.690   2.334
 3843TIP3    H133088   2.268   5.634   2.260
 3843TIP3    H233089   2.282   5.632   2.410
 3844TIP3   OH233090   1.671   3.913   7.088
 3844TIP3    H133091   1.625   3.996   7.076
 3844TIP3    H233092   1.757   3.928   7.047
 3845TIP3   OH233093   6.366   2.424   2.441
 3845TIP3    H133094   6.376   2.519   2.443
 3845TIP3    H233095   6.290   2.407   2.497
 3846TIP3   OH233096   3.932   6.170   2.053
 3846TIP3    H133097   3.936   6.139   2.143
 3846TIP3    H233098   3.939   6.265   2.059
 3847TIP3   OH233099   6.360   3.240   0.283
 3847TIP3    H133100   6.316   3.325   0.282
 3847TIP3    H233101   6.449   3.259   0.252
 3848TIP3   OH233102   3.743   4.003   7.616
 3848TIP3    H133103   3.757   3.909   7.603
 3848TIP3    H233104   3.760   4.041   7.530
 3849TIP3   OH233105   2.812   6.213   0.687
 3849TIP3    H133106   2.756   6.246   0.617
 3849TIP3    H233107   2.802   6.118   0.682
 3850TIP3   OH233108   3.765   6.478   2.189
 3850TIP3    H133109   3.734   6.429   2.265
 3850TIP3    H233110   3.817   6.550   2.226
 3851TIP3   OH233111   1.571   4.599   1.879
 3851TIP3    H133112   1.613   4.526   1.832
 3851TIP3    H233113   1.631   4.618   1.952
 3852TIP3   OH233114   3.418   2.578   8.385
 3852TIP3    H133115   3.471   2.586   8.305
 3852TIP3    H233116   3.421   2.665   8.424
 3853TIP3   OH233117   3.960   6.573   0.780
 3853TIP3    H133118   4.036   6.624   0.808
 3853TIP3    H233119   3.924   6.536   0.860
 3854TIP3   OH233120   2.729   3.890   7.754
 3854TIP3    H133121   2.740   3.886   7.659
 3854TIP3    H233122   2.635   3.904   7.767
 3855TIP3   OH233123   6.363   2.708   2.372
 3855TIP3    H133124   6.446   2.735   2.410
 3855TIP3    H233125   6.324   2.789   2.339
 3856TIP3   OH233126   0.706   3.255   1.358
 3856TIP3    H133127   0.710   3.196   1.283
 3856TIP3    H233128   0.798   3.274   1.378
 3857TIP3   OH233129   6.199   1.030   1.614
 3857TIP3    H133130   6.196   1.089   1.538
 3857TIP3    H233131   6.109   0.999   1.623
 3858TIP3   OH233132   0.212   1.241   7.391
 3858TIP3    H133133   0.287   1.298   7.408
 3858TIP3    H233134   0.193   1.199   7.475
 3859TIP3   OH233135   3.765   3.725   7.527
 3859TIP3    H133136   3.727   3.653   7.577
 3859TIP3    H233137   3.729   3.715   7.438
 3860TIP3   OH233138   1.942   1.899   1.752
 3860TIP3    H133139   1.948   1.987   1.717
 3860TIP3    H233140   2.002   1.899   1.827
 3861TIP3   OH233141   6.057   1.880   1.321
 3861TIP3    H133142   6.123   1.888   1.252
 3861TIP3    H233143   5.978   1.919   1.284
 3862TIP3   OH233144   6.567   3.632   7.812
 3862TIP3    H133145   6.544   3.704   7.753
 3862TIP3    H233146   6.484   3.593   7.837
 3863TIP3   OH233147   3.722   1.373   8.258
 3863TIP3    H133148   3.713   1.396   8.165
 3863TIP3    H233149   3.688   1.284   8.264
 3864TIP3   OH233150   1.777   3.502   1.805
 3864TIP3    H133151   1.712   3.562   1.841
 3864TIP3    H233152   1.829   3.475   1.880
 3865TIP3   OH233153   4.217   4.653   0.903
 3865TIP3    H133154   4.130   4.683   0.879
 3865TIP3    H233155   4.203   4.564   0.937
 3866TIP3   OH233156   2.046   0.107   6.656
 3866TIP3    H133157   1.992   0.034   6.624
 3866TIP3    H233158   2.086   0.144   6.578
 3867TIP3   OH233159   4.621   4.305   0.009
 3867TIP3    H133160   4.632   4.321   0.102
 3867TIP3    H233161   4.695   4.249   8.636
 3868TIP3   OH233162   0.744   1.022   0.480
 3868TIP3    H133163   0.747   1.094   0.417
 3868TIP3    H233164   0.677   1.048   0.543
 3869TIP3   OH233165   2.984   5.295   0.070
 3869TIP3    H133166   2.896   5.300   0.106
 3869TIP3    H233167   2.986   5.365   0.004
 3870TIP3   OH233168   5.203   4.563   7.796
 3870TIP3    H133169   5.244   4.586   7.713
 3870TIP3    H233170   5.250   4.485   7.825
 3871TIP3   OH233171   5.976   5.978   6.916
 3871TIP3    H133172   6.056   5.930   6.938
 3871TIP3    H233173   5.942   6.009   7.000
 3872TIP3   OH233174   1.173   2.625   2.154
 3872TIP3    H133175   1.247   2.579   2.115
 3872TIP3    H233176   1.208   2.663   2.235
 3873TIP3   OH233177   5.686   1.191   1.873
 3873TIP3    H133178   5.725   1.166   1.957
 3873TIP3    H233179   5.592   1.179   1.885
 3874TIP3   OH233180   4.759   5.246   1.895
 3874TIP3    H133181   4.841   5.257   1.847
 3874TIP3    H233182   4.787   5.238   1.987
 3875TIP3   OH233183   3.123   2.160   7.322
 3875TIP3    H133184   3.037   2.148   7.362
 3875TIP3    H233185   3.128   2.093   7.255
 3876TIP3   OH233186   0.768   0.717   0.876
 3876TIP3    H133187   0.827   0.792   0.879
 3876TIP3    H233188   0.794   0.663   0.950
 3877TIP3   OH233189   5.734   4.695   6.692
 3877TIP3    H133190   5.755   4.662   6.605
 3877TIP3    H233191   5.666   4.761   6.677
 3878TIP3   OH233192   0.389   3.002   8.334
 3878TIP3    H133193   0.385   3.020   8.240
 3878TIP3    H233194   0.474   2.960   8.347
 3879TIP3   OH233195   1.753   0.191   2.456
 3879TIP3    H133196   1.842   0.188   2.493
 3879TIP3    H233197   1.741   0.104   2.416
 3880TIP3   OH233198   3.804   6.305   0.931
 3880TIP3    H133199   3.840   6.327   1.017
 3880TIP3    H233200   3.709   6.314   0.941
 3881TIP3   OH233201   2.842   0.158   8.301
 3881TIP3    H133202   2.804   0.171   8.388
 3881TIP3    H233203   2.806   0.074   8.272
 3882TIP3   OH233204   3.243   6.452   0.700
 3882TIP3    H133205   3.220   6.421   0.613
 3882TIP3    H233206   3.337   6.466   0.697
 3883TIP3   OH233207   2.455   0.819   1.640
 3883TIP3    H133208   2.478   0.886   1.704
 3883TIP3    H233209   2.538   0.776   1.619
 3884TIP3   OH233210   2.127   5.940   1.358
 3884TIP3    H133211   2.095   6.017   1.311
 3884TIP3    H233212   2.054   5.878   1.354
 3885TIP3   OH233213   3.265   5.907   8.602
 3885TIP3    H133214   3.334   5.963   8.637
 3885TIP3    H233215   3.184   5.956   8.618
 3886TIP3   OH233216   2.634   4.373   8.135
 3886TIP3    H133217   2.541   4.364   8.154
 3886TIP3    H233218   2.658   4.291   8.093
 3887TIP3   OH233219   0.279   3.126   0.224
 3887TIP3    H133220   0.206   3.108   0.166
 3887TIP3    H233221   0.355   3.134   0.166
 3888TIP3   OH233222   4.488   2.699   7.586
 3888TIP3    H133223   4.481   2.790   7.558
 3888TIP3    H233224   4.556   2.662   7.530
 3889TIP3   OH233225   0.511   2.447   7.808
 3889TIP3    H133226   0.441   2.440   7.873
 3889TIP3    H233227   0.466   2.431   7.724
 3890TIP3   OH233228   0.359   2.026   7.879
 3890TIP3    H133229   0.314   2.110   7.882
 3890TIP3    H233230   0.375   2.010   7.786
 3891TIP3   OH233231   1.410   5.485   7.414
 3891TIP3    H133232   1.440   5.434   7.339
 3891TIP3    H233233   1.414   5.576   7.385
 3892TIP3   OH233234   5.623   1.254   7.411
 3892TIP3    H133235   5.717   1.246   7.397
 3892TIP3    H233236   5.587   1.264   7.322
 3893TIP3   OH233237   2.019   2.440   0.701
 3893TIP3    H133238   1.953   2.381   0.666
 3893TIP3    H233239   1.974   2.524   0.710
 3894TIP3   OH233240   3.259   2.888   0.990
 3894TIP3    H133241   3.327   2.828   1.021
 3894TIP3    H233242   3.235   2.856   0.903
 3895TIP3   OH233243   5.581   5.285   0.802
 3895TIP3    H133244   5.634   5.320   0.731
 3895TIP3    H233245   5.494   5.273   0.764
 3896TIP3   OH233246   5.623   5.009   8.317
 3896TIP3    H133247   5.568   5.019   8.239
 3896TIP3    H233248   5.562   4.984   8.386
 3897TIP3   OH233249   3.972   3.194   2.366
 3897TIP3    H133250   3.925   3.266   2.408
 3897TIP3    H233251   3.911   3.159   2.302
 3898TIP3   OH233252   0.848   2.680   1.355
 3898TIP3    H133253   0.854   2.604   1.413
 3898TIP3    H233254   0.788   2.739   1.399
 3899TIP3   OH233255   2.842   1.044   8.465
 3899TIP3    H133256   2.752   1.038   8.498
 3899TIP3    H233257   2.831   1.064   8.372
 3900TIP3   OH233258   6.027   2.847   0.060
 3900TIP3    H133259   6.088   2.890   0.120
 3900TIP3    H233260   6.016   2.760   0.097
 3901TIP3   OH233261   1.914   6.711   1.246
 3901TIP3    H133262   1.923   6.760   1.164
 3901TIP3    H233263   1.857   6.766   1.301
 3902TIP3   OH233264   3.602   0.643   1.600
 3902TIP3    H133265   3.620   0.710   1.535
 3902TIP3    H233266   3.643   0.564   1.566
 3903TIP3   OH233267   2.450   1.889   2.337
 3903TIP3    H133268   2.417   1.949   2.403
 3903TIP3    H233269   2.491   1.945   2.271
 3904TIP3   OH233270   0.146   6.687   8.592
 3904TIP3    H133271   0.144   6.752   0.011
 3904TIP3    H233272   0.058   6.690   8.554
 3905TIP3   OH233273   0.621   2.446   1.471
 3905TIP3    H133274   0.532   2.476   1.450
 3905TIP3    H233275   0.638   2.483   1.557
 3906TIP3   OH233276   5.227   2.083   7.711
 3906TIP3    H133277   5.190   2.155   7.763
 3906TIP3    H233278   5.183   2.005   7.743
 3907TIP3   OH233279   4.865   4.215   8.514
 3907TIP3    H133280   4.836   4.194   8.425
 3907TIP3    H233281   4.922   4.142   8.538
 3908TIP3   OH233282   6.177   3.279   7.739
 3908TIP3    H133283   6.116   3.344   7.773
 3908TIP3    H233284   6.264   3.312   7.763
 3909TIP3   OH233285   1.714   0.299   7.713
 3909TIP3    H133286   1.666   0.379   7.695
 3909TIP3    H233287   1.799   0.311   7.670
 3910TIP3   OH233288   4.677   4.738   7.838
 3910TIP3    H133289   4.656   4.649   7.809
 3910TIP3    H233290   4.767   4.753   7.808
 3911TIP3   OH233291   3.333   1.914   0.733
 3911TIP3    H133292   3.238   1.900   0.726
 3911TIP3    H233293   3.370   1.853   0.669
 3912TIP3   OH233294   1.979   0.331   7.669
 3912TIP3    H133295   1.971   0.407   7.611
 3912TIP3    H233296   2.057   0.350   7.722
 3913TIP3   OH233297   5.858   4.222   8.257
 3913TIP3    H133298   5.808   4.142   8.245
 3913TIP3    H233299   5.805   4.275   8.318
 3914TIP3   OH233300   0.174   6.528   8.022
 3914TIP3    H133301   0.262   6.510   8.056
 3914TIP3    H233302   0.116   6.506   8.094
 3915TIP3   OH233303   3.722   5.714   6.499
 3915TIP3    H133304   3.804   5.693   6.454
 3915TIP3    H233305   3.743   5.787   6.557
 3916TIP3   OH233306   5.247   4.759   0.164
 3916TIP3    H133307   5.328   4.708   0.175
 3916TIP3    H233308   5.180   4.693   0.146
 3917TIP3   OH233309   0.179   6.816   0.591
 3917TIP3    H133310   0.161   6.782   0.503
 3917TIP3    H233311   0.194   6.738   0.644
 3918TIP3   OH233312   5.105   0.884   8.199
 3918TIP3    H133313   5.010   0.879   8.201
 3918TIP3    H233314   5.134   0.835   8.276
 3919TIP3   OH233315   1.046   1.864   1.534
 3919TIP3    H133316   1.032   1.823   1.619
 3919TIP3    H233317   1.121   1.922   1.548
 3920TIP3   OH233318   5.991   5.429   1.415
 3920TIP3    H133319   6.086   5.425   1.413
 3920TIP3    H233320   5.963   5.383   1.336
 3921TIP3   OH233321   2.529   2.703   8.075
 3921TIP3    H133322   2.504   2.697   7.983
 3921TIP3    H233323   2.489   2.785   8.105
 3922TIP3   OH233324   1.100   4.741   6.844
 3922TIP3    H133325   1.123   4.656   6.805
 3922TIP3    H233326   1.030   4.721   6.906
 3923TIP3   OH233327   2.392   4.330   6.329
 3923TIP3    H133328   2.469   4.386   6.343
 3923TIP3    H233329   2.317   4.388   6.341
 3924TIP3   OH233330   2.127   2.881   6.987
 3924TIP3    H133331   2.048   2.927   6.958
 3924TIP3    H233332   2.098   2.791   7.002
 3925TIP3   OH233333   6.397   4.132   8.348
 3925TIP3    H133334   6.423   4.068   8.281
 3925TIP3    H233335   6.466   4.126   8.414
 3926TIP3   OH233336   3.144   6.598   8.195
 3926TIP3    H133337   3.229   6.580   8.154
 3926TIP3    H233338   3.149   6.554   8.280
 3927TIP3   OH233339   3.305   5.189   2.076
 3927TIP3    H133340   3.301   5.234   2.160
 3927TIP3    H233341   3.233   5.127   2.078
 3928TIP3   OH233342   5.397   6.499   1.937
 3928TIP3    H133343   5.401   6.508   2.033
 3928TIP3    H233344   5.481   6.461   1.913
 3929TIP3   OH233345   6.800   4.002   7.460
 3929TIP3    H133346   6.712   4.031   7.436
 3929TIP3    H233347   6.845   4.083   7.485
 3930TIP3   OH233348   3.692   4.110   1.306
 3930TIP3    H133349   3.625   4.085   1.369
 3930TIP3    H233350   3.680   4.204   1.294
 3931TIP3   OH233351   1.757   2.291   0.958
 3931TIP3    H133352   1.776   2.248   0.874
 3931TIP3    H233353   1.672   2.255   0.984
 3932TIP3   OH233354   6.108   3.307   0.545
 3932TIP3    H133355   6.035   3.304   0.483
 3932TIP3    H233356   6.095   3.387   0.595
 3933TIP3   OH233357   2.531   3.113   7.071
 3933TIP3    H133358   2.566   3.114   7.160
 3933TIP3    H233359   2.575   3.038   7.030
 3934TIP3   OH233360   3.982   5.039   8.205
 3934TIP3    H133361   4.039   5.032   8.281
 3934TIP3    H233362   3.936   5.123   8.217
 3935TIP3   OH233363   5.554   0.183   0.494
 3935TIP3    H133364   5.544   0.253   0.558
 3935TIP3    H233365   5.647   0.180   0.476
 3936TIP3   OH233366   2.728   3.441   7.629
 3936TIP3    H133367   2.794   3.386   7.671
 3936TIP3    H233368   2.645   3.413   7.667
 3937TIP3   OH233369   2.348   2.276   0.341
 3937TIP3    H133370   2.343   2.372   0.336
 3937TIP3    H233371   2.282   2.253   0.407
 3938TIP3   OH233372   1.985   0.634   0.650
 3938TIP3    H133373   2.045   0.561   0.659
 3938TIP3    H233374   2.041   0.711   0.645
 3939TIP3   OH233375   6.744   2.812   0.782
 3939TIP3    H133376   6.718   2.903   0.794
 3939TIP3    H233377   6.831   2.816   0.743
 3940TIP3   OH233378   1.752   6.333   7.028
 3940TIP3    H133379   1.659   6.339   7.008
 3940TIP3    H233380   1.775   6.243   7.007
 3941TIP3   OH233381   4.416   4.969   7.080
 3941TIP3    H133382   4.334   4.952   7.034
 3941TIP3    H233383   4.421   4.899   7.146
 3942TIP3   OH233384   6.068   4.217   6.701
 3942TIP3    H133385   6.078   4.125   6.677
 3942TIP3    H233386   6.019   4.255   6.627
 3943TIP3   OH233387   6.754   0.469   8.312
 3943TIP3    H133388   6.761   0.402   8.243
 3943TIP3    H233389   6.661   0.490   8.315
 3944TIP3   OH233390   6.792   5.850   0.986
 3944TIP3    H133391   6.787   5.846   0.890
 3944TIP3    H233392   6.704   5.876   1.014
 3945TIP3   OH233393   3.618   6.821   1.252
 3945TIP3    H133394   3.648   6.735   1.223
 3945TIP3    H233395   3.524   6.821   1.233
 3946TIP3   OH233396   0.657   3.611   2.339
 3946TIP3    H133397   0.688   3.544   2.400
 3946TIP3    H233398   0.564   3.621   2.360
 3947TIP3   OH233399   4.087   0.676   0.090
 3947TIP3    H133400   4.106   0.770   0.092
 3947TIP3    H233401   4.011   0.669   0.032
 3948TIP3   OH233402   5.880   1.073   8.373
 3948TIP3    H133403   5.800   1.057   8.323
 3948TIP3    H233404   5.937   1.121   8.314
 3949TIP3   OH233405   3.214   2.120   8.017
 3949TIP3    H133406   3.220   2.052   7.950
 3949TIP3    H233407   3.151   2.183   7.982
 3950TIP3   OH233408   2.977   2.435   2.221
 3950TIP3    H133409   2.914   2.364   2.224
 3950TIP3    H233410   2.930   2.508   2.181
 3951TIP3   OH233411   6.628   5.394   8.049
 3951TIP3    H133412   6.556   5.414   8.110
 3951TIP3    H233413   6.622   5.462   7.982
 3952TIP3   OH233414   0.105   2.811   0.663
 3952TIP3    H133415   0.178   2.869   0.685
 3952TIP3    H233416   0.126   2.777   0.577
 3953TIP3   OH233417   1.489   4.399   7.297
 3953TIP3    H133418   1.412   4.342   7.304
 3953TIP3    H233419   1.562   4.338   7.288
 3954TIP3   OH233420   5.314   2.398   1.747
 3954TIP3    H133421   5.296   2.315   1.791
 3954TIP3    H233422   5.261   2.462   1.795
 3955TIP3   OH233423   4.084   4.980   0.319
 3955TIP3    H133424   4.039   5.044   0.263
 3955TIP3    H233425   4.167   5.023   0.341
 3956TIP3   OH233426   2.902   3.422   2.002
 3956TIP3    H133427   2.961   3.425   2.077
 3956TIP3    H233428   2.818   3.395   2.039
 3957TIP3   OH233429   2.768   2.929   6.842
 3957TIP3    H133430   2.835   2.988   6.808
 3957TIP3    H233431   2.789   2.921   6.935
 3958TIP3   OH233432   3.065   4.979   0.277
 3958TIP3    H133433   3.159   4.966   0.294
 3958TIP3    H233434   3.033   5.027   0.353
 3959TIP3   OH233435   3.010   0.243   1.675
 3959TIP3    H133436   2.953   0.186   1.726
 3959TIP3    H233437   3.053   0.298   1.741
 3960TIP3   OH233438   3.663   5.022   7.559
 3960TIP3    H133439   3.635   5.102   7.604
 3960TIP3    H233440   3.753   5.009   7.587
 3961TIP3   OH233441   1.874   2.324   2.203
 3961TIP3    H133442   1.803   2.378   2.237
 3961TIP3    H233443   1.845   2.299   2.115
 3962TIP3   OH233444   4.909   0.326   1.877
 3962TIP3    H133445   4.873   0.275   1.949
 3962TIP3    H233446   5.003   0.334   1.897
 3963TIP3   OH233447   4.682   3.219   7.936
 3963TIP3    H133448   4.670   3.296   7.992
 3963TIP3    H233449   4.603   3.217   7.881
 3964TIP3   OH233450   6.244   6.252   1.176
 3964TIP3    H133451   6.158   6.253   1.219
 3964TIP3    H233452   6.303   6.291   1.241
 3965TIP3   OH233453   1.891   1.360   7.814
 3965TIP3    H133454   1.807   1.315   7.801
 3965TIP3    H233455   1.948   1.323   7.747
 3966TIP3   OH233456   0.993   3.904   7.194
 3966TIP3    H133457   1.008   3.810   7.188
 3966TIP3    H233458   0.972   3.918   7.287
 3967TIP3   OH233459   1.735   1.796   0.420
 3967TIP3    H133460   1.703   1.879   0.385
 3967TIP3    H233461   1.739   1.738   0.343
 3968TIP3   OH233462   6.177   0.353   8.422
 3968TIP3    H133463   6.225   0.394   8.494
 3968TIP3    H233464   6.234   0.282   8.392
 3969TIP3   OH233465   0.906   6.075   1.187
 3969TIP3    H133466   0.829   6.088   1.242
 3969TIP3    H233467   0.876   6.016   1.118
 3970TIP3   OH233468   3.226   2.352   8.190
 3970TIP3    H133469   3.135   2.332   8.168
 3970TIP3    H233470   3.267   2.266   8.200
 3971TIP3   OH233471   2.494   2.401   8.607
 3971TIP3    H133472   2.449   2.485   8.609
 3971TIP3    H233473   2.514   2.387   8.514
 3972TIP3   OH233474   5.587   6.710   6.499
 3972TIP3    H133475   5.639   6.728   6.420
 3972TIP3    H233476   5.496   6.708   6.468
 3973TIP3   OH233477   3.995   3.190   7.694
 3973TIP3    H133478   3.999   3.283   7.670
 3973TIP3    H233479   3.941   3.188   7.773
 3974TIP3   OH233480   6.435   5.489   8.238
 3974TIP3    H133481   6.428   5.583   8.256
 3974TIP3    H233482   6.361   5.469   8.181
 3975TIP3   OH233483   1.869   3.187   6.363
 3975TIP3    H133484   1.891   3.094   6.364
 3975TIP3    H233485   1.819   3.200   6.282
 3976TIP3   OH233486   4.741   2.033   2.127
 3976TIP3    H133487   4.672   2.033   2.061
 3976TIP3    H233488   4.769   2.125   2.134
 3977TIP3   OH233489   4.045   2.338   1.380
 3977TIP3    H133490   4.018   2.262   1.430
 3977TIP3    H233491   4.045   2.410   1.443
 3978TIP3   OH233492   3.587   4.363   1.219
 3978TIP3    H133493   3.541   4.377   1.136
 3978TIP3    H233494   3.627   4.447   1.240
 3979TIP3   OH233495   1.876   5.142   1.633
 3979TIP3    H133496   1.834   5.077   1.577
 3979TIP3    H233497   1.962   5.104   1.654
 3980TIP3   OH233498   3.806   2.878   0.838
 3980TIP3    H133499   3.830   2.914   0.753
 3980TIP3    H233500   3.809   2.953   0.898
 3981TIP3   OH233501   6.840   6.611   0.417
 3981TIP3    H133502   0.031   6.634   0.355
 3981TIP3    H233503   6.846   6.516   0.425
 3982TIP3   OH233504   2.334   6.707   0.351
 3982TIP3    H133505   2.400   6.638   0.337
 3982TIP3    H233506   2.340   6.761   0.272
 3983TIP3   OH233507   4.684   4.946   2.334
 3983TIP3    H133508   4.683   4.862   2.379
 3983TIP3    H233509   4.638   5.006   2.393
 3984TIP3   OH233510   1.578   0.557   0.237
 3984TIP3    H133511   1.655   0.519   0.194
 3984TIP3    H233512   1.534   0.482   0.279
 3985TIP3   OH233513   2.325   3.003   1.571
 3985TIP3    H133514   2.327   2.944   1.495
 3985TIP3    H233515   2.396   3.066   1.554
 3986TIP3   OH233516   1.784   2.733   1.162
 3986TIP3    H133517   1.715   2.797   1.179
 3986TIP3    H233518   1.836   2.731   1.243
 3987TIP3   OH233519   5.718   6.240   6.515
 3987TIP3    H133520   5.759   6.182   6.451
 3987TIP3    H233521   5.698   6.320   6.466
 3988TIP3   OH233522   3.640   4.131   8.332
 3988TIP3    H133523   3.613   4.142   8.424
 3988TIP3    H233524   3.722   4.081   8.337
 3989TIP3   OH233525   6.090   4.401   1.528
 3989TIP3    H133526   6.152   4.403   1.601
 3989TIP3    H233527   6.045   4.485   1.531
 3990TIP3   OH233528   3.034   2.231   7.839
 3990TIP3    H133529   3.100   2.280   7.791
 3990TIP3    H233530   2.953   2.281   7.827
 3991TIP3   OH233531   1.020   3.457   8.611
 3991TIP3    H133532   1.063   3.495   0.036
 3991TIP3    H233533   0.928   3.448   8.637
 3992TIP3   OH233534   1.201   0.890   1.824
 3992TIP3    H133535   1.212   0.864   1.915
 3992TIP3    H233536   1.284   0.932   1.801
 3993TIP3   OH233537   1.463   2.740   0.450
 3993TIP3    H133538   1.529   2.672   0.442
 3993TIP3    H233539   1.434   2.757   0.361
 3994TIP3   OH233540   4.715   3.240   8.628
 3994TIP3    H133541   4.805   3.246   8.596
 3994TIP3    H233542   4.722   3.254   0.072
 3995TIP3   OH233543   1.872   3.120   7.675
 3995TIP3    H133544   1.804   3.180   7.705
 3995TIP3    H233545   1.901   3.075   7.754
 3996TIP3   OH233546   2.563   2.885   6.601
 3996TIP3    H133547   2.483   2.833   6.595
 3996TIP3    H233548   2.611   2.847   6.675
 3997TIP3   OH233549   5.473   0.625   2.393
 3997TIP3    H133550   5.483   0.647   2.301
 3997TIP3    H233551   5.378   0.624   2.408
 3998TIP3   OH233552   2.346   3.712   7.367
 3998TIP3    H133553   2.429   3.685   7.406
 3998TIP3    H233554   2.342   3.664   7.284
 3999TIP3   OH233555   1.524   2.932   8.075
 3999TIP3    H133556   1.511   2.854   8.129
 3999TIP3    H233557   1.555   2.898   7.991
 4000TIP3   OH233558   1.872   1.417   7.218
 4000TIP3    H133559   1.927   1.426   7.140
 4000TIP3    H233560   1.932   1.386   7.286
 4001TIP3   OH233561   3.394   1.541   0.789
 4001TIP3    H133562   3.313   1.566   0.744
 4001TIP3    H233563   3.431   1.624   0.820
 4002TIP3   OH233564   2.973   1.935   1.706
 4002TIP3    H133565   3.055   1.983   1.712
 4002TIP3    H233566   2.944   1.947   1.616
 4003TIP3   OH233567   0.261   0.273   1.818
 4003TIP3    H133568   0.240   0.355   1.863
 4003TIP3    H233569   0.257   0.206   1.887
 4004TIP3   OH233570   6.144   6.202   7.818
 4004TIP3    H133571   6.227   6.157   7.809
 4004TIP3    H233572   6.101   6.192   7.733
 4005TIP3   OH233573   4.024   2.624   1.286
 4005TIP3    H133574   4.085   2.573   1.234
 4005TIP3    H233575   4.080   2.680   1.340
 4006TIP3   OH233576   0.561   2.870   1.946
 4006TIP3    H133577   0.608   2.941   1.990
 4006TIP3    H233578   0.609   2.856   1.865
 4007TIP3   OH233579   4.318   5.426   7.791
 4007TIP3    H133580   4.299   5.494   7.727
 4007TIP3    H233581   4.413   5.427   7.801
 4008TIP3   OH233582   3.101   6.409   1.605
 4008TIP3    H133583   3.123   6.342   1.670
 4008TIP3    H233584   3.040   6.467   1.651
 4009TIP3   OH233585   3.684   4.590   1.351
 4009TIP3    H133586   3.680   4.680   1.383
 4009TIP3    H233587   3.765   4.555   1.387
 4010TIP3   OH233588   1.199   0.881   1.301
 4010TIP3    H133589   1.234   0.824   1.368
 4010TIP3    H233590   1.132   0.829   1.257
 4011TIP3   OH233591   2.399   5.528   6.768
 4011TIP3    H133592   2.427   5.615   6.738
 4011TIP3    H233593   2.318   5.511   6.719
 4012TIP3   OH233594   2.738   0.804   0.288
 4012TIP3    H133595   2.691   0.795   0.370
 4012TIP3    H233596   2.820   0.758   0.301
 4013TIP3   OH233597   4.387   1.660   6.877
 4013TIP3    H133598   4.414   1.599   6.808
 4013TIP3    H233599   4.462   1.718   6.889
 4014TIP3   OH233600   6.570   0.386   7.217
 4014TIP3    H133601   6.579   0.378   7.122
 4014TIP3    H233602   6.654   0.356   7.251
 4015TIP3   OH233603   3.326   5.583   7.967
 4015TIP3    H133604   3.278   5.652   8.013
 4015TIP3    H233605   3.299   5.502   8.011
 4016TIP3   OH233606   1.004   1.985   0.868
 4016TIP3    H133607   1.031   1.950   0.953
 4016TIP3    H233608   0.920   1.943   0.851
 4017TIP3   OH233609   2.476   3.874   1.278
 4017TIP3    H133610   2.462   3.843   1.367
 4017TIP3    H233611   2.481   3.970   1.287
 4018TIP3   OH233612   4.578   6.349   7.048
 4018TIP3    H133613   4.515   6.313   7.111
 4018TIP3    H233614   4.585   6.282   6.980
 4019TIP3   OH233615   1.817   5.013   7.686
 4019TIP3    H133616   1.853   5.058   7.609
 4019TIP3    H233617   1.723   5.009   7.669
 4020TIP3   OH233618   6.264   2.589   2.130
 4020TIP3    H133619   6.298   2.500   2.134
 4020TIP3    H233620   6.317   2.638   2.192
 4021TIP3   OH233621   5.915   4.615   1.582
 4021TIP3    H133622   5.921   4.692   1.639
 4021TIP3    H233623   5.868   4.550   1.634
 4022TIP3   OH233624   3.039   5.072   2.133
 4022TIP3    H133625   3.004   5.020   2.061
 4022TIP3    H233626   3.032   5.015   2.209
 4023TIP3   OH233627   0.531   0.631   6.807
 4023TIP3    H133628   0.505   0.708   6.756
 4023TIP3    H233629   0.594   0.586   6.750
 4024TIP3   OH233630   5.039   4.389   7.020
 4024TIP3    H133631   5.121   4.408   6.974
 4024TIP3    H233632   4.970   4.413   6.958
 4025TIP3   OH233633   2.056   6.617   1.444
 4025TIP3    H133634   2.041   6.658   1.359
 4025TIP3    H233635   2.141   6.573   1.434
 4026TIP3   OH233636   0.449   5.551   8.523
 4026TIP3    H133637   0.527   5.515   8.564
 4026TIP3    H233638   0.387   5.478   8.519
 4027TIP3   OH233639   2.552   0.012   6.304
 4027TIP3    H133640   2.482   0.036   6.364
 4027TIP3    H233641   2.548   6.795   6.299
 4028TIP3   OH233642   0.460   5.373   0.286
 4028TIP3    H133643   0.378   5.327   0.268
 4028TIP3    H233644   0.528   5.307   0.271
 4029TIP3   OH233645   5.581   4.492   1.186
 4029TIP3    H133646   5.647   4.443   1.135
 4029TIP3    H233647   5.616   4.493   1.275
 4030TIP3   OH233648   3.589   0.123   1.709
 4030TIP3    H133649   3.676   0.098   1.739
 4030TIP3    H233650   3.598   0.132   1.614
 4031TIP3   OH233651   1.106   3.157   0.336
 4031TIP3    H133652   1.073   3.072   0.306
 4031TIP3    H233653   1.201   3.150   0.328
 4032TIP3   OH233654   3.933   2.440   0.150
 4032TIP3    H133655   3.887   2.398   0.223
 4032TIP3    H233656   4.017   2.395   0.146
 4033TIP3   OH233657   0.357   1.962   1.153
 4033TIP3    H133658   0.424   1.999   1.095
 4033TIP3    H233659   0.405   1.900   1.208
 4034TIP3   OH233660   0.692   1.034   7.379
 4034TIP3    H133661   0.706   1.119   7.421
 4034TIP3    H233662   0.711   0.970   7.447
 4035TIP3   OH233663   0.697   3.418   7.505
 4035TIP3    H133664   0.666   3.328   7.495
 4035TIP3    H233665   0.620   3.466   7.534
 4036TIP3   OH233666   2.607   6.254   0.499
 4036TIP3    H133667   2.617   6.179   0.439
 4036TIP3    H233668   2.548   6.222   0.567
 4037TIP3   OH233669   2.519   3.180   1.537
 4037TIP3    H133670   2.611   3.181   1.563
 4037TIP3    H233671   2.496   3.272   1.525
 4038TIP3   OH233672   4.524   2.176   7.844
 4038TIP3    H133673   4.479   2.257   7.869
 4038TIP3    H233674   4.475   2.106   7.888
 4039TIP3   OH233675   4.616   3.530   6.934
 4039TIP3    H133676   4.595   3.623   6.939
 4039TIP3    H233677   4.619   3.511   6.841
 4040TIP3   OH233678   1.966   4.893   7.919
 4040TIP3    H133679   1.914   4.922   7.844
 4040TIP3    H233680   2.056   4.897   7.887
 4041TIP3   OH233681   4.679   6.493   1.588
 4041TIP3    H133682   4.693   6.532   1.502
 4041TIP3    H233683   4.584   6.493   1.600
 4042TIP3   OH233684   6.583   4.527   0.621
 4042TIP3    H133685   6.631   4.562   0.546
 4042TIP3    H233686   6.569   4.603   0.678
 4043TIP3   OH233687   5.522   1.497   7.881
 4043TIP3    H133688   5.584   1.522   7.813
 4043TIP3    H233689   5.436   1.510   7.841
 4044TIP3   OH233690   6.301   0.962   8.432
 4044TIP3    H133691   6.267   0.945   8.520
 4044TIP3    H233692   6.357   1.038   8.443
 4045TIP3   OH233693   4.306   5.127   7.797
 4045TIP3    H133694   4.242   5.114   7.866
 4045TIP3    H233695   4.322   5.221   7.796
 4046TIP3   OH233696   0.269   2.341   8.464
 4046TIP3    H133697   0.204   2.272   8.479
 4046TIP3    H233698   0.341   2.297   8.419
 4047TIP3   OH233699   1.496   2.318   7.732
 4047TIP3    H133700   1.536   2.306   7.646
 4047TIP3    H233701   1.483   2.228   7.764
 4048TIP3   OH233702   5.682   5.154   1.753
 4048TIP3    H133703   5.590   5.142   1.775
 4048TIP3    H233704   5.691   5.247   1.735
 4049TIP3   OH233705   3.311   6.575   2.140
 4049TIP3    H133706   3.236   6.568   2.081
 4049TIP3    H233707   3.276   6.552   2.226
 4050TIP3   OH233708   1.764   4.434   8.571
 4050TIP3    H133709   1.782   4.488   8.495
 4050TIP3    H233710   1.694   4.375   8.543
 4051TIP3   OH233711   4.903   4.563   0.384
 4051TIP3    H133712   4.918   4.472   0.358
 4051TIP3    H233713   4.908   4.561   0.480
 4052TIP3   OH233714   5.695   3.182   7.838
 4052TIP3    H133715   5.692   3.122   7.913
 4052TIP3    H233716   5.630   3.149   7.777
 4053TIP3   OH233717   3.503   5.503   8.530
 4053TIP3    H133718   3.488   5.551   8.611
 4053TIP3    H233719   3.563   5.557   8.480
 4054TIP3   OH233720   1.592   2.944   0.586
 4054TIP3    H133721   1.603   2.997   0.507
 4054TIP3    H233722   1.532   2.874   0.559
 4055TIP3   OH233723   5.272   2.862   8.026
 4055TIP3    H133724   5.207   2.796   8.005
 4055TIP3    H233725   5.223   2.944   8.030
 4056TIP3   OH233726   0.978   0.557   0.220
 4056TIP3    H133727   1.043   0.623   0.243
 4056TIP3    H233728   0.894   0.601   0.232
 4057TIP3   OH233729   5.634   2.433   8.162
 4057TIP3    H133730   5.623   2.506   8.223
 4057TIP3    H233731   5.639   2.356   8.218
 4058TIP3   OH233732   1.676   6.260   0.116
 4058TIP3    H133733   1.646   6.299   0.034
 4058TIP3    H233734   1.600   6.264   0.174
 4059TIP3   OH233735   5.424   0.672   2.089
 4059TIP3    H133736   5.390   0.582   2.083
 4059TIP3    H233737   5.347   0.728   2.079
 4060TIP3   OH233738   1.507   2.359   6.807
 4060TIP3    H133739   1.427   2.393   6.847
 4060TIP3    H233740   1.560   2.437   6.790
 4061TIP3   OH233741   0.798   1.640   1.477
 4061TIP3    H133742   0.776   1.724   1.437
 4061TIP3    H233743   0.878   1.612   1.432
 4062TIP3   OH233744   1.382   3.211   6.322
 4062TIP3    H133745   1.413   3.183   6.408
 4062TIP3    H233746   1.441   3.282   6.298
 4063TIP3   OH233747   2.374   4.160   1.020
 4063TIP3    H133748   2.347   4.237   0.969
 4063TIP3    H233749   2.469   4.155   1.007
 4064TIP3   OH233750   3.227   3.124   6.568
 4064TIP3    H133751   3.146   3.122   6.618
 4064TIP3    H233752   3.226   3.042   6.519
 4065TIP3   OH233753   5.063   6.221   8.142
 4065TIP3    H133754   4.987   6.280   8.143
 4065TIP3    H233755   5.073   6.197   8.050
 4066TIP3   OH233756   2.183   0.971   6.464
 4066TIP3    H133757   2.276   0.992   6.457
 4066TIP3    H233758   2.161   0.935   6.378
 4067TIP3   OH233759   5.542   6.786   0.337
 4067TIP3    H133760   5.573   6.814   0.423
 4067TIP3    H233761   5.469   6.845   0.318
 4068TIP3   OH233762   0.790   5.200   0.491
 4068TIP3    H133763   0.741   5.136   0.544
 4068TIP3    H233764   0.765   5.180   0.401
 4069TIP3   OH233765   0.897   5.769   2.183
 4069TIP3    H133766   0.879   5.835   2.250
 4069TIP3    H233767   0.962   5.711   2.223
 4070TIP3   OH233768   3.429   3.638   6.178
 4070TIP3    H133769   3.471   3.571   6.124
 4070TIP3    H233770   3.500   3.682   6.223
 4071TIP3   OH233771   1.330   2.802   8.548
 4071TIP3    H133772   1.375   2.823   8.630
 4071TIP3    H233773   1.282   2.721   8.567
 4072TIP3   OH233774   2.821   2.189   1.228
 4072TIP3    H133775   2.799   2.137   1.150
 4072TIP3    H233776   2.808   2.280   1.200
 4073TIP3   OH233777   2.775   5.769   0.417
 4073TIP3    H133778   2.751   5.821   0.494
 4073TIP3    H233779   2.840   5.707   0.449
 4074TIP3   OH233780   4.991   3.314   1.131
 4074TIP3    H133781   4.982   3.243   1.067
 4074TIP3    H233782   5.055   3.280   1.194
 4075TIP3   OH233783   1.939   5.675   8.570
 4075TIP3    H133784   1.937   5.580   8.562
 4075TIP3    H233785   1.848   5.701   8.583
 4076TIP3   OH233786   5.941   2.234   7.231
 4076TIP3    H133787   5.992   2.166   7.187
 4076TIP3    H233788   5.913   2.194   7.313
 4077TIP3   OH233789   2.908   0.072   2.393
 4077TIP3    H133790   2.816   0.095   2.406
 4077TIP3    H233791   2.921   6.873   2.449
 4078TIP3   OH233792   0.751   2.317   0.396
 4078TIP3    H133793   0.657   2.325   0.413
 4078TIP3    H233794   0.791   2.389   0.444
 4079TIP3   OH233795   3.700   2.066   6.943
 4079TIP3    H133796   3.724   2.081   6.852
 4079TIP3    H233797   3.708   2.152   6.985
 4080TIP3   OH233798   2.558   4.562   8.612
 4080TIP3    H133799   2.627   4.571   8.546
 4080TIP3    H233800   2.477   4.581   8.563
 4081TIP3   OH233801   4.274   2.206   7.626
 4081TIP3    H133802   4.230   2.205   7.541
 4081TIP3    H233803   4.293   2.298   7.642
 4082TIP3   OH233804   1.197   2.397   7.728
 4082TIP3    H133805   1.169   2.406   7.819
 4082TIP3    H233806   1.283   2.437   7.725
 4083TIP3   OH233807   1.275   6.610   0.640
 4083TIP3    H133808   1.215   6.565   0.699
 4083TIP3    H233809   1.313   6.680   0.693
 4084TIP3   OH233810   5.395   4.345   7.896
 4084TIP3    H133811   5.365   4.300   7.975
 4084TIP3    H233812   5.491   4.347   7.905
 4085TIP3   OH233813   1.649   0.431   2.414
 4085TIP3    H133814   1.560   0.418   2.380
 4085TIP3    H233815   1.686   0.342   2.419
 4086TIP3   OH233816   0.912   3.151   1.765
 4086TIP3    H133817   0.995   3.180   1.802
 4086TIP3    H233818   0.933   3.130   1.674
 4087TIP3   OH233819   4.660   5.486   8.153
 4087TIP3    H133820   4.708   5.404   8.166
 4087TIP3    H233821   4.603   5.492   8.229
 4088TIP3   OH233822   3.519   1.187   1.018
 4088TIP3    H133823   3.537   1.223   0.931
 4088TIP3    H233824   3.424   1.182   1.023
 4089TIP3   OH233825   3.835   3.715   0.125
 4089TIP3    H133826   3.889   3.776   0.175
 4089TIP3    H233827   3.898   3.661   0.077
 4090TIP3   OH233828   6.372   6.421   8.579
 4090TIP3    H133829   6.462   6.419   8.547
 4090TIP3    H233830   6.377   6.385   0.016
 4091TIP3   OH233831   3.845   6.101   1.291
 4091TIP3    H133832   3.893   6.039   1.236
 4091TIP3    H233833   3.913   6.144   1.344
 4092TIP3   OH233834   2.876   2.924   1.214
 4092TIP3    H133835   2.802   2.863   1.214
 4092TIP3    H233836   2.836   3.011   1.209
 4093TIP3   OH233837   4.477   4.273   0.935
 4093TIP3    H133838   4.509   4.361   0.915
 4093TIP3    H233839   4.549   4.231   0.982
 4094TIP3   OH233840   0.403   6.707   7.151
 4094TIP3    H133841   0.470   6.767   7.184
 4094TIP3    H233842   0.408   6.715   7.056
 4095TIP3   OH233843   0.013   4.613   0.096
 4095TIP3    H133844   0.077   4.659   0.043
 4095TIP3    H233845   6.838   4.682   0.136
 4096TIP3   OH233846   5.963   0.504   7.318
 4096TIP3    H133847   6.023   0.458   7.259
 4096TIP3    H233848   5.878   0.465   7.301
 4097TIP3   OH233849   1.548   3.508   8.124
 4097TIP3    H133850   1.569   3.499   8.217
 4097TIP3    H233851   1.478   3.445   8.108
 4098TIP3   OH233852   3.021   3.462   1.762
 4098TIP3    H133853   2.953   3.498   1.705
 4098TIP3    H233854   2.977   3.450   1.846
 4099TIP3   OH233855   6.378   2.611   1.677
 4099TIP3    H133856   6.439   2.592   1.606
 4099TIP3    H233857   6.324   2.533   1.684
 4100TIP3   OH233858   1.945   2.129   7.025
 4100TIP3    H133859   1.969   2.074   6.951
 4100TIP3    H233860   1.849   2.128   7.026
 4101TIP3   OH233861   5.589   5.290   0.360
 4101TIP3    H133862   5.559   5.339   0.283
 4101TIP3    H233863   5.679   5.264   0.338
 4102TIP3   OH233864   4.385   6.681   0.282
 4102TIP3    H133865   4.435   6.600   0.271
 4102TIP3    H233866   4.342   6.671   0.366
 4103TIP3   OH233867   3.137   0.224   6.862
 4103TIP3    H133868   3.113   0.197   6.951
 4103TIP3    H233869   3.209   0.285   6.873
 4104TIP3   OH233870   5.720   2.157   1.332
 4104TIP3    H133871   5.633   2.131   1.303
 4104TIP3    H233872   5.745   2.228   1.273
 4105TIP3   OH233873   0.232   0.917   8.504
 4105TIP3    H133874   0.196   0.859   8.570
 4105TIP3    H233875   0.155   0.951   8.457
 4106TIP3   OH233876   2.140   5.803   0.100
 4106TIP3    H133877   2.085   5.796   0.022
 4106TIP3    H233878   2.188   5.720   0.102
 4107TIP3   OH233879   6.163   3.290   8.636
 4107TIP3    H133880   6.142   3.358   8.572
 4107TIP3    H233881   6.174   3.339   0.067
 4108TIP3   OH233882   2.389   0.496   8.406
 4108TIP3    H133883   2.468   0.448   8.380
 4108TIP3    H233884   2.319   0.458   8.352
 4109TIP3   OH233885   3.050   6.399   7.913
 4109TIP3    H133886   3.100   6.453   7.852
 4109TIP3    H233887   3.113   6.372   7.980
 4110TIP3   OH233888   6.160   0.284   0.280
 4110TIP3    H133889   6.135   0.325   0.363
 4110TIP3    H233890   6.177   0.358   0.221
 4111TIP3   OH233891   1.972   0.107   1.326
 4111TIP3    H133892   1.945   0.178   1.385
 4111TIP3    H233893   1.891   0.060   1.308
 4112TIP3   OH233894   6.491   1.402   0.908
 4112TIP3    H133895   6.439   1.354   0.843
 4112TIP3    H233896   6.432   1.469   0.941
 4113TIP3   OH233897   5.010   1.123   7.338
 4113TIP3    H133898   5.007   1.046   7.395
 4113TIP3    H233899   4.939   1.179   7.371
 4114TIP3   OH233900   3.027   2.736   7.772
 4114TIP3    H133901   2.947   2.758   7.819
 4114TIP3    H233902   3.096   2.740   7.839
 4115TIP3   OH233903   0.510   5.803   1.570
 4115TIP3    H133904   0.485   5.877   1.627
 4115TIP3    H233905   0.450   5.733   1.595
 4116TIP3   OH233906   2.850   5.073   0.951
 4116TIP3    H133907   2.874   5.085   1.043
 4116TIP3    H233908   2.913   5.127   0.903
 4117TIP3   OH233909   2.829   6.700   0.923
 4117TIP3    H133910   2.890   6.740   0.861
 4117TIP3    H233911   2.835   6.606   0.905
 4118TIP3   OH233912   6.434   5.088   1.825
 4118TIP3    H133913   6.369   5.051   1.765
 4118TIP3    H233914   6.383   5.139   1.888
 4119TIP3   OH233915   2.550   3.296   6.819
 4119TIP3    H133916   2.573   3.252   6.901
 4119TIP3    H233917   2.468   3.342   6.838
 4120TIP3   OH233918   0.438   4.149   7.470
 4120TIP3    H133919   0.393   4.221   7.426
 4120TIP3    H233920   0.529   4.177   7.474
 4121TIP3   OH233921   5.681   6.281   1.651
 4121TIP3    H133922   5.651   6.215   1.713
 4121TIP3    H233923   5.601   6.326   1.624
 4122TIP3   OH233924   4.943   5.936   6.914
 4122TIP3    H133925   4.861   5.897   6.885
 4122TIP3    H233926   4.933   5.947   7.009
 4123TIP3   OH233927   5.719   2.990   8.074
 4123TIP3    H133928   5.677   2.905   8.058
 4123TIP3    H233929   5.761   2.980   8.160
 4124TIP3   OH233930   3.079   1.721   1.932
 4124TIP3    H133931   3.042   1.805   1.908
 4124TIP3    H233932   3.170   1.725   1.901
 4125TIP3   OH233933   4.205   5.412   6.784
 4125TIP3    H133934   4.282   5.355   6.778
 4125TIP3    H233935   4.155   5.392   6.705
 4126TIP3   OH233936   0.833   6.088   1.817
 4126TIP3    H133937   0.869   6.019   1.872
 4126TIP3    H233938   0.909   6.142   1.793
 4127TIP3   OH233939   3.165   6.193   1.771
 4127TIP3    H133940   3.151   6.179   1.865
 4127TIP3    H233941   3.173   6.106   1.734
 4128TIP3   OH233942   5.484   6.436   2.196
 4128TIP3    H133943   5.423   6.365   2.213
 4128TIP3    H233944   5.489   6.484   2.279
 4129TIP3   OH233945   3.651   4.080   6.771
 4129TIP3    H133946   3.587   4.082   6.843
 4129TIP3    H233947   3.597   4.076   6.692
 4130TIP3   OH233948   1.792   1.595   1.848
 4130TIP3    H133949   1.704   1.630   1.849
 4130TIP3    H233950   1.799   1.543   1.929
 4131TIP3   OH233951   6.275   1.783   6.822
 4131TIP3    H133952   6.268   1.781   6.918
 4131TIP3    H233953   6.222   1.858   6.796
 4132TIP3   OH233954   5.468   1.268   8.040
 4132TIP3    H133955   5.476   1.340   7.977
 4132TIP3    H233956   5.381   1.231   8.023
 4133TIP3   OH233957   5.325   6.149   0.386
 4133TIP3    H133958   5.308   6.164   0.293
 4133TIP3    H233959   5.343   6.236   0.421
 4134TIP3   OH233960   0.805   3.206   7.733
 4134TIP3    H133961   0.864   3.131   7.725
 4134TIP3    H233962   0.755   3.206   7.651
 4135TIP3   OH233963   2.678   0.683   6.824
 4135TIP3    H133964   2.737   0.613   6.796
 4135TIP3    H233965   2.726   0.728   6.894
 4136TIP3   OH233966   5.636   6.726   0.874
 4136TIP3    H133967   5.680   6.801   0.914
 4136TIP3    H233968   5.576   6.695   0.942
 4137TIP3   OH233969   4.227   5.852   1.342
 4137TIP3    H133970   4.302   5.909   1.324
 4137TIP3    H233971   4.256   5.765   1.316
 4138TIP3   OH233972   0.555   3.222   0.631
 4138TIP3    H133973   0.501   3.184   0.562
 4138TIP3    H233974   0.509   3.302   0.656
 4139TIP3   OH233975   2.568   1.965   7.354
 4139TIP3    H133976   2.519   2.040   7.386
 4139TIP3    H233977   2.544   1.957   7.262
 4140TIP3   OH233978   1.152   2.502   7.966
 4140TIP3    H133979   1.111   2.588   7.958
 4140TIP3    H233980   1.107   2.461   8.040
 4141TIP3   OH233981   2.882   1.875   6.686
 4141TIP3    H133982   2.862   1.931   6.611
 4141TIP3    H233983   2.894   1.788   6.648
 4142TIP3   OH233984   0.646   1.214   1.793
 4142TIP3    H133985   0.687   1.282   1.846
 4142TIP3    H233986   0.556   1.243   1.782
 4143TIP3   OH233987   3.374   3.612   1.241
 4143TIP3    H133988   3.373   3.562   1.323
 4143TIP3    H233989   3.313   3.565   1.183
 4144TIP3   OH233990   0.347   1.134   2.026
 4144TIP3    H133991   0.411   1.064   2.017
 4144TIP3    H233992   0.347   1.155   2.119
 4145TIP3   OH233993   3.123   4.230   1.206
 4145TIP3    H133994   3.073   4.162   1.160
 4145TIP3    H233995   3.082   4.237   1.292
 4146TIP3   OH233996   5.254   3.477   6.807
 4146TIP3    H133997   5.257   3.443   6.718
 4146TIP3    H233998   5.262   3.572   6.797
 4147TIP3   OH233999   5.690   5.058   0.525
 4147TIP3    H134000   5.675   5.022   0.612
 4147TIP3    H234001   5.635   5.136   0.522
 4148TIP3   OH234002   4.958   3.961   8.562
 4148TIP3    H134003   5.038   3.910   8.545
 4148TIP3    H234004   4.951   3.963   0.006
 4149TIP3   OH234005   6.399   5.948   0.803
 4149TIP3    H134006   6.438   5.902   0.728
 4149TIP3    H234007   6.367   6.031   0.766
 4150TIP3   OH234008   2.864   3.370   7.364
 4150TIP3    H134009   2.799   3.423   7.409
 4150TIP3    H234010   2.947   3.415   7.381
 4151TIP3   OH234011   1.439   5.866   8.413
 4151TIP3    H134012   1.419   5.941   8.470
 4151TIP3    H234013   1.354   5.832   8.387
 4152TIP3   OH234014   3.764   4.374   0.076
 4152TIP3    H134015   3.801   4.382   8.639
 4152TIP3    H234016   3.837   4.391   0.134
 4153TIP3   OH234017   3.512   3.263   6.954
 4153TIP3    H134018   3.537   3.237   7.043
 4153TIP3    H234019   3.581   3.324   6.926
 4154TIP3   OH234020   3.556   4.826   0.626
 4154TIP3    H134021   3.611   4.826   0.704
 4154TIP3    H234022   3.582   4.746   0.579
 4155TIP3   OH234023   2.955   4.233   8.133
 4155TIP3    H134024   2.967   4.191   8.217
 4155TIP3    H234025   2.886   4.183   8.090
 4156TIP3   OH234026   4.641   0.601   6.744
 4156TIP3    H134027   4.706   0.586   6.812
 4156TIP3    H234028   4.687   0.655   6.679
 4157TIP3   OH234029   4.603   1.101   7.407
 4157TIP3    H134030   4.544   1.176   7.412
 4157TIP3    H234031   4.690   1.139   7.398
 4158TIP3   OH234032   3.159   6.642   0.328
 4158TIP3    H134033   3.195   6.588   0.257
 4158TIP3    H234034   3.145   6.727   0.287
 4159TIP3   OH234035   3.251   2.697   0.259
 4159TIP3    H134036   3.277   2.678   0.350
 4159TIP3    H234037   3.311   2.646   0.206
 4160TIP3   OH234038   2.918   6.760   8.614
 4160TIP3    H134039   2.896   6.728   0.050
 4160TIP3    H234040   2.936   6.853   8.627
 4161TIP3   OH234041   2.341   3.689   0.738
 4161TIP3    H134042   2.301   3.730   0.815
 4161TIP3    H234043   2.304   3.601   0.735
 4162TIP3   OH234044   5.771   4.420   1.691
 4162TIP3    H134045   5.704   4.414   1.758
 4162TIP3    H234046   5.833   4.350   1.713
 4163TIP3   OH234047   1.354   0.644   8.194
 4163TIP3    H134048   1.440   0.617   8.162
 4163TIP3    H234049   1.334   0.582   8.264
 4164TIP3   OH234050   4.408   0.598   6.321
 4164TIP3    H134051   4.468   0.524   6.314
 4164TIP3    H234052   4.462   0.670   6.354
 4165TIP3   OH234053   4.027   3.538   0.070
 4165TIP3    H134054   4.113   3.544   0.111
 4165TIP3    H234055   4.043   3.555   8.628
 4166TIP3   OH234056   3.633   3.704   7.297
 4166TIP3    H134057   3.581   3.768   7.346
 4166TIP3    H234058   3.602   3.712   7.207
 4167TIP3   OH234059   5.470   4.952   7.886
 4167TIP3    H134060   5.376   4.970   7.880
 4167TIP3    H234061   5.503   4.965   7.797
 4168TIP3   OH234062   4.737   0.193   7.014
 4168TIP3    H134063   4.818   0.228   6.975
 4168TIP3    H234064   4.734   0.102   6.985
 4169TIP3   OH234065   1.630   4.971   0.080
 4169TIP3    H134066   1.613   5.042   0.019
 4169TIP3    H234067   1.672   5.014   0.155
 4170TIP3   OH234068   2.139   3.667   0.229
 4170TIP3    H134069   2.088   3.632   0.156
 4170TIP3    H234070   2.220   3.697   0.189
 4171TIP3   OH234071   6.618   6.086   8.368
 4171TIP3    H134072   6.675   6.025   8.322
 4171TIP3    H234073   6.650   6.084   8.458
 4172TIP3   OH234074   0.538   4.890   1.490
 4172TIP3    H134075   0.576   4.978   1.481
 4172TIP3    H234076   0.497   4.873   1.406
 4173TIP3   OH234077   3.616   4.484   6.377
 4173TIP3    H134078   3.599   4.568   6.334
 4173TIP3    H234079   3.572   4.420   6.322
 4174TIP3   OH234080   0.355   3.690   6.405
 4174TIP3    H134081   0.352   3.704   6.310
 4174TIP3    H234082   0.446   3.664   6.422
 4175TIP3   OH234083   0.076   3.944   8.018
 4175TIP3    H134084   6.873   3.898   8.037
 4175TIP3    H234085   0.059   4.035   8.044
 4176TIP3   OH234086   0.585   6.498   1.210
 4176TIP3    H134087   0.619   6.525   1.295
 4176TIP3    H234088   0.509   6.443   1.230
 4177TIP3   OH234089   3.030   4.663   0.464
 4177TIP3    H134090   2.996   4.645   0.551
 4177TIP3    H234091   3.125   4.673   0.476
 4178TIP3   OH234092   6.284   4.701   8.202
 4178TIP3    H134093   6.262   4.680   8.111
 4178TIP3    H234094   6.305   4.616   8.241
 4179TIP3   OH234095   6.877   3.932   6.728
 4179TIP3    H134096   0.071   3.891   6.679
 4179TIP3    H234097   6.858   4.012   6.679
 4180TIP3   OH234098   0.576   6.151   1.835
 4180TIP3    H134099   0.670   6.130   1.836
 4180TIP3    H234100   0.565   6.212   1.908
 4181TIP3   OH234101   0.549   6.579   0.077
 4181TIP3    H134102   0.556   6.670   0.051
 4181TIP3    H234103   0.581   6.529   0.002
 4182TIP3   OH234104   5.172   3.106   0.645
 4182TIP3    H134105   5.168   3.201   0.630
 4182TIP3    H234106   5.085   3.084   0.680
 4183TIP3   OH234107   3.453   4.836   1.735
 4183TIP3    H134108   3.547   4.822   1.719
 4183TIP3    H234109   3.441   4.930   1.724
 4184TIP3   OH234110   0.022   1.500   2.000
 4184TIP3    H134111   0.069   1.421   1.974
 4184TIP3    H234112   0.024   1.499   2.095
 4185TIP3   OH234113   4.407   5.829   1.776
 4185TIP3    H134114   4.315   5.834   1.752
 4185TIP3    H234115   4.413   5.752   1.832
 4186TIP3   OH234116   1.468   2.129   7.479
 4186TIP3    H134117   1.528   2.055   7.490
 4186TIP3    H234118   1.519   2.194   7.430
 4187TIP3   OH234119   3.920   3.205   0.397
 4187TIP3    H134120   3.931   3.240   0.308
 4187TIP3    H234121   3.826   3.197   0.408
 4188TIP3   OH234122   1.854   1.282   0.967
 4188TIP3    H134123   1.861   1.195   1.006
 4188TIP3    H234124   1.935   1.293   0.917
 4189TIP3   OH234125   0.678   2.320   8.589
 4189TIP3    H134126   0.761   2.289   8.625
 4189TIP3    H234127   0.678   2.414   8.606
 4190TIP3   OH234128   6.060   5.120   1.468
 4190TIP3    H134129   5.977   5.152   1.431
 4190TIP3    H234130   6.036   5.042   1.518
 4191TIP3   OH234131   2.800   6.056   7.957
 4191TIP3    H134132   2.730   6.003   7.919
 4191TIP3    H234133   2.814   6.127   7.894
 4192TIP3   OH234134   6.531   6.502   0.766
 4192TIP3    H134135   6.452   6.516   0.818
 4192TIP3    H234136   6.504   6.516   0.676
 4193TIP3   OH234137   3.309   4.366   0.666
 4193TIP3    H134138   3.355   4.285   0.689
 4193TIP3    H234139   3.228   4.337   0.624
 4194TIP3   OH234140   1.745   0.698   0.514
 4194TIP3    H134141   1.836   0.683   0.542
 4194TIP3    H234142   1.703   0.613   0.522
 4195TIP3   OH234143   0.194   3.551   6.876
 4195TIP3    H134144   0.213   3.511   6.791
 4195TIP3    H234145   0.239   3.636   6.873
 4196TIP3   OH234146   4.554   5.779   1.426
 4196TIP3    H134147   4.543   5.839   1.499
 4196TIP3    H234148   4.641   5.741   1.438
 4197TIP3   OH234149   2.009   2.394   1.091
 4197TIP3    H134150   1.923   2.359   1.066
 4197TIP3    H234151   2.059   2.318   1.118
 4198TIP3   OH234152   0.174   5.022   8.307
 4198TIP3    H134153   0.268   5.027   8.326
 4198TIP3    H234154   0.132   5.050   8.388
 4199TIP3   OH234155   6.679   3.469   8.571
 4199TIP3    H134156   6.584   3.468   8.564
 4199TIP3    H234157   6.709   3.411   8.501
 4200TIP3   OH234158   4.320   0.207   1.236
 4200TIP3    H134159   4.246   0.182   1.291
 4200TIP3    H234160   4.322   0.302   1.238
 4201TIP3   OH234161   3.651   5.982   1.492
 4201TIP3    H134162   3.659   5.887   1.489
 4201TIP3    H234163   3.686   6.012   1.408
 4202TIP3   OH234164   0.272   1.677   6.584
 4202TIP3    H134165   0.232   1.616   6.521
 4202TIP3    H234166   0.363   1.648   6.590
 4203TIP3   OH234167   1.870   3.757   0.322
 4203TIP3    H134168   1.966   3.750   0.326
 4203TIP3    H234169   1.841   3.671   0.291
 4204TIP3   OH234170   5.868   5.234   2.157
 4204TIP3    H134171   5.876   5.229   2.252
 4204TIP3    H234172   5.806   5.165   2.134
 4205TIP3   OH234173   2.338   6.393   0.909
 4205TIP3    H134174   2.347   6.480   0.871
 4205TIP3    H234175   2.359   6.332   0.838
 4206TIP3   OH234176   0.999   3.536   0.950
 4206TIP3    H134177   1.076   3.480   0.950
 4206TIP3    H234178   0.991   3.567   1.040
 4207TIP3   OH234179   1.903   5.423   1.138
 4207TIP3    H134180   1.851   5.387   1.210
 4207TIP3    H234181   1.992   5.427   1.174
 4208TIP3   OH234182   1.071   1.902   1.104
 4208TIP3    H134183   1.146   1.843   1.112
 4208TIP3    H234184   1.009   1.871   1.171
 4209TIP3   OH234185   6.752   2.060   1.842
 4209TIP3    H134186   6.689   2.118   1.800
 4209TIP3    H234187   6.806   2.027   1.771
 4210TIP3   OH234188   2.375   1.747   1.618
 4210TIP3    H134189   2.313   1.703   1.560
 4210TIP3    H234190   2.407   1.822   1.567
 4211TIP3   OH234191   0.581   6.093   1.175
 4211TIP3    H134192   0.524   6.162   1.209
 4211TIP3    H234193   0.564   6.018   1.232
 4212TIP3   OH234194   6.873   4.124   2.119
 4212TIP3    H134195   0.023   4.215   2.113
 4212TIP3    H234196   0.068   4.074   2.080
 4213TIP3   OH234197   4.723   1.518   7.181
 4213TIP3    H134198   4.796   1.580   7.175
 4213TIP3    H234199   4.645   1.573   7.188
 4214TIP3   OH234200   3.317   0.092   7.552
 4214TIP3    H134201   3.321   0.086   7.647
 4214TIP3    H234202   3.276   0.009   7.525
 4215TIP3   OH234203   3.243   2.901   6.424
 4215TIP3    H134204   3.310   2.888   6.357
 4215TIP3    H234205   3.173   2.841   6.400
 4216TIP3   OH234206   1.736   0.318   7.328
 4216TIP3    H134207   1.776   0.253   7.386
 4216TIP3    H234208   1.661   0.351   7.377
 4217TIP3   OH234209   2.730   4.159   7.541
 4217TIP3    H134210   2.761   4.211   7.467
 4217TIP3    H234211   2.686   4.083   7.501
 4218TIP3   OH234212   1.208   5.534   7.989
 4218TIP3    H134213   1.227   5.624   8.016
 4218TIP3    H234214   1.186   5.542   7.896
 4219TIP3   OH234215   2.777   6.793   8.223
 4219TIP3    H134216   2.711   6.749   8.170
 4219TIP3    H234217   2.859   6.780   8.175
 4220TIP3   OH234218   0.475   1.157   1.482
 4220TIP3    H134219   0.435   1.073   1.457
 4220TIP3    H234220   0.528   1.135   1.559
 4221TIP3   OH234221   4.927   2.017   6.006
 4221TIP3    H134222   4.867   2.051   6.071
 4221TIP3    H234223   4.975   1.948   6.051
 4222TIP3   OH234224   1.103   1.673   1.766
 4222TIP3    H134225   1.196   1.687   1.785
 4222TIP3    H234226   1.059   1.749   1.803
 4223TIP3   OH234227   5.911   0.341   8.416
 4223TIP3    H134228   5.892   0.427   8.381
 4223TIP3    H234229   6.007   0.334   8.412
 4224TIP3   OH234230   0.103   5.185   1.833
 4224TIP3    H134231   0.079   5.156   1.921
 4224TIP3    H234232   0.031   5.154   1.778
 4225TIP3   OH234233   6.064   4.868   2.256
 4225TIP3    H134234   6.142   4.912   2.223
 4225TIP3    H234235   5.999   4.878   2.186
 4226TIP3   OH234236   4.261   0.467   6.100
 4226TIP3    H134237   4.262   0.372   6.114
 4226TIP3    H234238   4.331   0.500   6.155
 4227TIP3   OH234239   3.279   2.472   6.950
 4227TIP3    H134240   3.240   2.387   6.974
 4227TIP3    H234241   3.225   2.537   6.995
 4228TIP3   OH234242   6.703   1.561   2.364
 4228TIP3    H134243   6.610   1.537   2.367
 4228TIP3    H234244   6.703   1.656   2.371
 4229TIP3   OH234245   0.384   2.033   0.445
 4229TIP3    H134246   0.449   2.071   0.386
 4229TIP3    H234247   0.410   1.941   0.452
 4230TIP3   OH234248   3.027   0.833   8.196
 4230TIP3    H134249   2.954   0.796   8.146
 4230TIP3    H234250   3.099   0.772   8.181
 4231TIP3   OH234251   3.855   0.779   1.829
 4231TIP3    H134252   3.764   0.808   1.830
 4231TIP3    H234253   3.868   0.736   1.914
 4232TIP3   OH234254   4.370   4.181   6.923
 4232TIP3    H134255   4.431   4.228   6.980
 4232TIP3    H234256   4.413   4.097   6.907
 4233TIP3   OH234257   4.158   6.535   7.235
 4233TIP3    H134258   4.182   6.443   7.249
 4233TIP3    H234259   4.233   6.585   7.268
 4234TIP3   OH234260   2.442   1.904   1.399
 4234TIP3    H134261   2.396   1.987   1.412
 4234TIP3    H234262   2.525   1.928   1.358
 4235TIP3   OH234263   5.876   2.306   6.484
 4235TIP3    H134264   5.941   2.345   6.427
 4235TIP3    H234265   5.799   2.361   6.474
 4236TIP3   OH234266   5.673   1.305   1.022
 4236TIP3    H134267   5.578   1.296   1.033
 4236TIP3    H234268   5.686   1.306   0.927
 4237TIP3   OH234269   6.190   1.353   8.495
 4237TIP3    H134270   6.272   1.346   8.445
 4237TIP3    H234271   6.134   1.408   8.441
 4238TIP3   OH234272   1.914   0.082   1.031
 4238TIP3    H134273   1.988   0.026   1.054
 4238TIP3    H234274   1.943   0.170   1.056
 4239TIP3   OH234275   3.764   6.706   7.097
 4239TIP3    H134276   3.789   6.739   7.011
 4239TIP3    H234277   3.846   6.679   7.137
 4240TIP3   OH234278   0.642   1.347   7.080
 4240TIP3    H134279   0.608   1.321   6.994
 4240TIP3    H234280   0.717   1.289   7.094
 4241TIP3   OH234281   3.138   0.111   8.067
 4241TIP3    H134282   3.182   0.064   7.995
 4241TIP3    H234283   3.063   0.057   8.089
 4242TIP3   OH234284   1.635   0.218   0.601
 4242TIP3    H134285   1.602   0.175   0.522
 4242TIP3    H234286   1.690   0.151   0.643
 4243TIP3   OH234287   1.705   5.198   1.104
 4243TIP3    H134288   1.646   5.265   1.139
 4243TIP3    H234289   1.782   5.246   1.076
 4244TIP3   OH234290   2.692   0.928   8.184
 4244TIP3    H134291   2.713   1.019   8.163
 4244TIP3    H234292   2.712   0.879   8.104
 4245TIP3   OH234293   0.035   1.239   7.080
 4245TIP3    H134294   6.855   1.297   7.129
 4245TIP3    H234295   0.007   1.249   6.989
 4246TIP3   OH234296   2.810   5.315   7.689
 4246TIP3    H134297   2.730   5.349   7.650
 4246TIP3    H234298   2.799   5.220   7.690
 4247TIP3   OH234299   1.269   5.129   6.335
 4247TIP3    H134300   1.307   5.112   6.249
 4247TIP3    H234301   1.343   5.131   6.395
 4248TIP3   OH234302   0.204   2.125   1.770
 4248TIP3    H134303   0.223   2.110   1.863
 4248TIP3    H234304   0.214   2.219   1.758
 4249TIP3   OH234305   5.059   2.556   1.376
 4249TIP3    H134306   5.126   2.588   1.437
 4249TIP3    H234307   5.105   2.541   1.294
 4250TIP3   OH234308   6.553   4.613   2.047
 4250TIP3    H134309   6.478   4.664   2.016
 4250TIP3    H234310   6.514   4.540   2.095
 4251TIP3   OH234311   0.359   4.415   7.406
 4251TIP3    H134312   0.342   4.456   7.321
 4251TIP3    H234313   0.372   4.489   7.466
 4252TIP3   OH234314   3.818   3.872   1.375
 4252TIP3    H134315   3.762   3.877   1.452
 4252TIP3    H234316   3.799   3.952   1.326
 4253TIP3   OH234317   6.130   1.681   8.014
 4253TIP3    H134318   6.108   1.765   7.975
 4253TIP3    H234319   6.156   1.626   7.940
 4254TIP3   OH234320   5.386   2.743   2.738
 4254TIP3    H134321   5.415   2.686   2.667
 4254TIP3    H234322   5.315   2.695   2.780
 4255TIP3   OH234323   3.833   1.325   0.749
 4255TIP3    H134324   3.834   1.230   0.739
 4255TIP3    H234325   3.864   1.358   0.664
 4256TIP3   OH234326   1.855   3.473   7.583
 4256TIP3    H134327   1.852   3.430   7.498
 4256TIP3    H234328   1.792   3.426   7.637
 4257TIP3   OH234329   2.071   0.267   7.950
 4257TIP3    H134330   2.109   0.354   7.964
 4257TIP3    H234331   1.983   0.284   7.916
 4258TIP3   OH234332   4.338   2.357   0.943
 4258TIP3    H134333   4.332   2.272   0.898
 4258TIP3    H234334   4.365   2.418   0.874
 4259TIP3   OH234335   6.005   5.849   0.313
 4259TIP3    H134336   6.079   5.909   0.300
 4259TIP3    H234337   5.993   5.808   0.227
 4260TIP3   OH234338   5.625   5.850   7.793
 4260TIP3    H134339   5.692   5.916   7.810
 4260TIP3    H234340   5.543   5.899   7.789
 4261TIP3   OH234341   2.354   5.264   2.239
 4261TIP3    H134342   2.434   5.254   2.290
 4261TIP3    H234343   2.378   5.238   2.150
 4262TIP3   OH234344   6.848   0.164   2.476
 4262TIP3    H134345   6.785   0.105   2.517
 4262TIP3    H234346   6.847   0.242   2.532
 4263TIP3   OH234347   2.027   6.212   1.949
 4263TIP3    H134348   2.114   6.193   1.985
 4263TIP3    H234349   1.968   6.196   2.022
 4264TIP3   OH234350   5.308   0.389   6.309
 4264TIP3    H134351   5.356   0.313   6.342
 4264TIP3    H234352   5.318   0.455   6.378
 4265TIP3   OH234353   5.913   0.544   2.297
 4265TIP3    H134354   6.000   0.572   2.269
 4265TIP3    H234355   5.881   0.615   2.352
 4266TIP3   OH234356   4.634   3.789   6.926
 4266TIP3    H134357   4.604   3.772   6.836
 4266TIP3    H234358   4.720   3.830   6.915
 4267TIP3   OH234359   1.665   4.786   0.551
 4267TIP3    H134360   1.631   4.720   0.611
 4267TIP3    H234361   1.656   4.747   0.464
 4268TIP3   OH234362   5.478   0.686   0.502
 4268TIP3    H134363   5.434   0.771   0.504
 4268TIP3    H234364   5.452   0.649   0.417
 4269TIP3   OH234365   1.161   4.269   0.524
 4269TIP3    H134366   1.242   4.260   0.573
 4269TIP3    H234367   1.142   4.181   0.491
 4270TIP3   OH234368   0.173   0.017   0.098
 4270TIP3    H134369   0.233   0.081   0.137
 4270TIP3    H234370   0.089   0.063   0.093
 4271TIP3   OH234371   0.424   0.870   0.202
 4271TIP3    H134372   0.365   0.795   0.190
 4271TIP3    H234373   0.367   0.941   0.231
 4272TIP3   OH234374   1.361   3.572   6.873
 4272TIP3    H134375   1.290   3.632   6.898
 4272TIP3    H234376   1.317   3.488   6.858
 4273TIP3   OH234377   3.829   1.180   7.400
 4273TIP3    H134378   3.845   1.273   7.418
 4273TIP3    H234379   3.914   1.146   7.371
 4274TIP3   OH234380   2.358   3.477   0.324
 4274TIP3    H134381   2.378   3.543   0.390
 4274TIP3    H234382   2.339   3.527   0.245
 4275TIP3   OH234383   5.331   0.864   8.042
 4275TIP3    H134384   5.260   0.873   8.105
 4275TIP3    H234385   5.396   0.928   8.070
 4276TIP3   OH234386   6.807   0.106   0.043
 4276TIP3    H134387   6.734   0.162   0.069
 4276TIP3    H234388   6.766   0.033   8.648
 4277TIP3   OH234389   0.281   0.593   1.124
 4277TIP3    H134390   0.312   0.563   1.039
 4277TIP3    H234391   0.302   0.522   1.184
 4278TIP3   OH234392   2.947   0.498   6.682
 4278TIP3    H134393   2.929   0.553   6.606
 4278TIP3    H234394   2.983   0.558   6.748
 4279TIP3   OH234395   1.938   3.462   0.615
 4279TIP3    H134396   2.019   3.510   0.599
 4279TIP3    H234397   1.873   3.530   0.633
 4280TIP3   OH234398   6.299   4.513   6.476
 4280TIP3    H134399   6.309   4.418   6.482
 4280TIP3    H234400   6.388   4.546   6.463
 4281TIP3   OH234401   5.984   4.272   0.100
 4281TIP3    H134402   6.037   4.284   0.021
 4281TIP3    H234403   5.987   4.357   0.145
 4282TIP3   OH234404   6.141   6.544   0.211
 4282TIP3    H134405   6.157   6.629   0.251
 4282TIP3    H234406   6.145   6.481   0.283
 4283TIP3   OH234407   0.745   2.314   7.877
 4283TIP3    H134408   0.706   2.300   7.964
 4283TIP3    H234409   0.675   2.354   7.826
 4284TIP3   OH234410   1.347   1.065   1.132
 4284TIP3    H134411   1.396   1.007   1.074
 4284TIP3    H234412   1.303   1.006   1.193
 4285TIP3   OH234413   1.939   1.071   1.104
 4285TIP3    H134414   1.908   1.025   1.182
 4285TIP3    H234415   1.988   1.004   1.055
 4286TIP3   OH234416   5.876   2.580   7.006
 4286TIP3    H134417   5.946   2.630   6.965
 4286TIP3    H234418   5.811   2.567   6.937
 4287TIP3   OH234419   3.156   0.016   0.929
 4287TIP3    H134420   3.163   6.829   0.860
 4287TIP3    H234421   3.126   0.095   0.885
 4288TIP3   OH234422   3.052   6.019   6.706
 4288TIP3    H134423   3.100   6.044   6.627
 4288TIP3    H234424   3.110   5.960   6.753
 4289TIP3   OH234425   1.050   4.408   1.175
 4289TIP3    H134426   1.099   4.350   1.117
 4289TIP3    H234427   0.965   4.419   1.132
 4290TIP3   OH234428   6.346   1.772   1.436
 4290TIP3    H134429   6.266   1.723   1.459
 4290TIP3    H234430   6.345   1.847   1.495
 4291TIP3   OH234431   1.285   0.956   7.394
 4291TIP3    H134432   1.348   0.948   7.322
 4291TIP3    H234433   1.339   0.950   7.473
 4292TIP3   OH234434   0.993   4.992   8.104
 4292TIP3    H134435   1.038   4.979   8.020
 4292TIP3    H234436   0.984   4.904   8.140
 4293TIP3   OH234437   5.446   0.698   0.902
 4293TIP3    H134438   5.443   0.780   0.853
 4293TIP3    H234439   5.390   0.639   0.852
 4294TIP3   OH234440   5.962   6.062   1.942
 4294TIP3    H134441   5.889   5.999   1.947
 4294TIP3    H234442   6.015   6.043   2.020
 4295TIP3   OH234443   5.342   1.775   7.085
 4295TIP3    H134444   5.313   1.690   7.119
 4295TIP3    H234445   5.275   1.837   7.115
 4296TIP3   OH234446   4.828   3.613   0.325
 4296TIP3    H134447   4.836   3.636   0.232
 4296TIP3    H234448   4.735   3.629   0.345
 4297TIP3   OH234449   5.895   6.361   7.058
 4297TIP3    H134450   5.942   6.438   7.026
 4297TIP3    H234451   5.860   6.320   6.979
 4298TIP3   OH234452   3.923   4.727   8.537
 4298TIP3    H134453   3.902   4.633   8.537
 4298TIP3    H234454   3.852   4.767   8.586
 4299TIP3   OH234455   0.111   3.043   1.798
 4299TIP3    H134456   0.143   3.039   1.888
 4299TIP3    H234457   0.174   2.989   1.748
 4300TIP3   OH234458   6.521   3.314   6.630
 4300TIP3    H134459   6.571   3.252   6.577
 4300TIP3    H234460   6.511   3.271   6.715
 4301TIP3   OH234461   6.720   6.182   0.915
 4301TIP3    H134462   6.781   6.178   0.988
 4301TIP3    H234463   6.637   6.208   0.955
 4302TIP3   OH234464   5.587   5.527   8.267
 4302TIP3    H134465   5.538   5.584   8.326
 4302TIP3    H234466   5.523   5.502   8.200
 4303TIP3   OH234467   1.685   6.629   0.166
 4303TIP3    H134468   1.719   6.550   0.209
 4303TIP3    H234469   1.753   6.654   0.105
 4304TIP3   OH234470   4.427   3.736   6.037
 4304TIP3    H134471   4.360   3.804   6.041
 4304TIP3    H234472   4.509   3.783   6.052
 4305TIP3   OH234473   1.657   2.739   7.872
 4305TIP3    H134474   1.645   2.645   7.864
 4305TIP3    H234475   1.620   2.775   7.792
 4306TIP3   OH234476   5.841   0.380   2.488
 4306TIP3    H134477   5.902   0.422   2.550
 4306TIP3    H234478   5.855   0.427   2.406
 4307TIP3   OH234479   5.412   4.245   7.048
 4307TIP3    H134480   5.496   4.228   7.006
 4307TIP3    H234481   5.387   4.332   7.017
 4308TIP3   OH234482   1.078   6.233   0.241
 4308TIP3    H134483   1.049   6.315   0.280
 4308TIP3    H234484   1.140   6.197   0.305
 4309TIP3   OH234485   0.409   0.736   8.010
 4309TIP3    H134486   0.365   0.738   8.096
 4309TIP3    H234487   0.452   0.821   8.003
 4310TIP3   OH234488   0.354   4.449   0.106
 4310TIP3    H134489   0.419   4.380   0.112
 4310TIP3    H234490   0.280   4.417   0.157
 4311TIP3   OH234491   2.930   6.601   7.104
 4311TIP3    H134492   2.924   6.513   7.068
 4311TIP3    H234493   2.863   6.603   7.173
 4312TIP3   OH234494   3.994   5.258   1.586
 4312TIP3    H134495   3.933   5.313   1.634
 4312TIP3    H234496   4.080   5.289   1.613
 4313TIP3   OH234497   6.875   5.628   7.932
 4313TIP3    H134498   6.843   5.543   7.901
 4313TIP3    H234499   0.024   5.674   7.852
 4314TIP3   OH234500   6.244   1.313   7.017
 4314TIP3    H134501   6.248   1.377   6.946
 4314TIP3    H234502   6.174   1.253   6.991
 4315TIP3   OH234503   2.150   5.088   2.063
 4315TIP3    H134504   2.203   5.150   2.013
 4315TIP3    H234505   2.208   5.054   2.131
 4316TIP3   OH234506   2.634   1.314   8.557
 4316TIP3    H134507   2.612   1.341   8.468
 4316TIP3    H234508   2.613   1.221   8.560
 4317TIP3   OH234509   6.679   6.513   7.452
 4317TIP3    H134510   6.658   6.467   7.532
 4317TIP3    H234511   6.766   6.481   7.427
 4318TIP3   OH234512   2.758   0.998   7.920
 4318TIP3    H134513   2.721   1.086   7.919
 4318TIP3    H234514   2.710   0.951   7.851
 4319TIP3   OH234515   1.441   0.303   8.141
 4319TIP3    H134516   1.510   0.316   8.205
 4319TIP3    H234517   1.363   0.342   8.181
 4320TIP3   OH234518   0.865   0.232   6.417
 4320TIP3    H134519   0.773   0.260   6.421
 4320TIP3    H234520   0.901   0.258   6.502
 4321TIP3   OH234521   2.062   5.880   6.011
 4321TIP3    H134522   1.993   5.886   5.945
 4321TIP3    H234523   2.098   5.968   6.016
 4322TIP3   OH234524   3.309   2.075   7.508
 4322TIP3    H134525   3.381   2.138   7.509
 4322TIP3    H234526   3.252   2.104   7.436
 4323TIP3   OH234527   1.505   2.017   1.292
 4323TIP3    H134528   1.501   2.045   1.384
 4323TIP3    H234529   1.420   2.044   1.256
 4324TIP3   OH234530   4.080   6.781   7.767
 4324TIP3    H134531   4.142   6.719   7.805
 4324TIP3    H234532   4.029   6.813   7.841
 4325TIP3   OH234533   4.303   4.829   7.859
 4325TIP3    H134534   4.342   4.916   7.843
 4325TIP3    H234535   4.316   4.813   7.952
 4326TIP3   OH234536   3.324   0.125   1.693
 4326TIP3    H134537   3.311   0.063   1.765
 4326TIP3    H234538   3.419   0.137   1.690
 4327TIP3   OH234539   2.164   4.655   7.108
 4327TIP3    H134540   2.189   4.576   7.059
 4327TIP3    H234541   2.084   4.685   7.065
 4328TIP3   OH234542   0.195   5.710   8.393
 4328TIP3    H134543   0.202   5.786   8.335
 4328TIP3    H234544   0.219   5.635   8.337
 4329TIP3   OH234545   4.566   5.456   2.346
 4329TIP3    H134546   4.635   5.398   2.376
 4329TIP3    H234547   4.612   5.535   2.316
 4330TIP3   OH234548   3.708   2.867   7.493
 4330TIP3    H134549   3.758   2.795   7.533
 4330TIP3    H234550   3.624   2.866   7.539
 4331TIP3   OH234551   0.899   3.030   8.323
 4331TIP3    H134552   0.979   3.043   8.373
 4331TIP3    H234553   0.927   3.038   8.231
 4332TIP3   OH234554   0.112   0.677   7.176
 4332TIP3    H134555   0.055   0.753   7.186
 4332TIP3    H234556   0.055   0.609   7.140
 4333TIP3   OH234557   6.220   2.671   0.650
 4333TIP3    H134558   6.281   2.721   0.704
 4333TIP3    H234559   6.145   2.655   0.707
 4334TIP3   OH234560   3.799   5.362   1.798
 4334TIP3    H134561   3.865   5.395   1.859
 4334TIP3    H234562   3.715   5.385   1.837
 4335TIP3   OH234563   5.627   6.214   1.337
 4335TIP3    H134564   5.602   6.302   1.364
 4335TIP3    H234565   5.659   6.224   1.248
 4336TIP3   OH234566   2.601   2.370   7.435
 4336TIP3    H134567   2.651   2.296   7.401
 4336TIP3    H234568   2.668   2.429   7.471
 4337TIP3   OH234569   1.911   2.699   0.568
 4337TIP3    H134570   1.859   2.714   0.647
 4337TIP3    H234571   1.864   2.748   0.499
 4338TIP3   OH234572   6.700   2.242   0.178
 4338TIP3    H134573   6.727   2.264   0.268
 4338TIP3    H234574   6.703   2.326   0.132
 4339TIP3   OH234575   3.456   1.742   8.007
 4339TIP3    H134576   3.517   1.783   7.947
 4339TIP3    H234577   3.496   1.657   8.029
 4340TIP3   OH234578   6.760   0.576   0.538
 4340TIP3    H134579   6.751   0.485   0.511
 4340TIP3    H234580   6.790   0.622   0.459
 4341TIP3   OH234581   6.819   2.011   0.136
 4341TIP3    H134582   6.774   2.096   0.140
 4341TIP3    H234583   0.033   2.033   0.125
 4342TIP3   OH234584   1.096   6.238   0.626
 4342TIP3    H134585   1.064   6.307   0.567
 4342TIP3    H234586   1.017   6.202   0.667
 4343TIP3   OH234587   3.656   4.788   8.031
 4343TIP3    H134588   3.733   4.741   8.062
 4343TIP3    H234589   3.613   4.819   8.111
 4344TIP3   OH234590   6.872   4.644   7.739
 4344TIP3    H134591   6.857   4.737   7.722
 4344TIP3    H234592   0.077   4.625   7.694
 4345TIP3   OH234593   5.308   0.148   1.870
 4345TIP3    H134594   5.329   0.147   1.776
 4345TIP3    H234595   5.260   0.230   1.883
 4346TIP3   OH234596   4.530   4.393   6.518
 4346TIP3    H134597   4.576   4.421   6.597
 4346TIP3    H234598   4.600   4.367   6.458
 4347TIP3   OH234599   1.368   3.517   0.227
 4347TIP3    H134600   1.428   3.443   0.233
 4347TIP3    H234601   1.404   3.582   0.287
 4348TIP3   OH234602   0.970   5.527   0.106
 4348TIP3    H134603   0.961   5.463   0.177
 4348TIP3    H234604   1.061   5.520   0.078
 4349TIP3   OH234605   3.258   5.347   8.459
 4349TIP3    H134606   3.325   5.414   8.451
 4349TIP3    H234607   3.287   5.276   8.401
 4350TIP3   OH234608   6.847   5.283   6.782
 4350TIP3    H134609   0.005   5.311   6.698
 4350TIP3    H234610   0.027   5.323   6.847
 4351TIP3   OH234611   0.708   1.569   7.964
 4351TIP3    H134612   0.733   1.557   8.056
 4351TIP3    H234613   0.613   1.577   7.966
 4352TIP3   OH234614   2.753   5.952   0.211
 4352TIP3    H134615   2.799   5.908   0.139
 4352TIP3    H234616   2.734   5.883   0.274
 4353TIP3   OH234617   0.888   2.035   6.727
 4353TIP3    H134618   0.907   2.127   6.741
 4353TIP3    H234619   0.950   2.007   6.660
 4354TIP3   OH234620   3.113   1.063   7.450
 4354TIP3    H134621   3.173   1.005   7.495
 4354TIP3    H234622   3.030   1.052   7.495
 4355TIP3   OH234623   0.201   0.834   7.632
 4355TIP3    H134624   0.136   0.863   7.568
 4355TIP3    H234625   0.283   0.830   7.582
 4356TIP3   OH234626   3.419   1.805   0.465
 4356TIP3    H134627   3.490   1.865   0.446
 4356TIP3    H234628   3.433   1.731   0.406
 4357TIP3   OH234629   1.464   1.078   6.260
 4357TIP3    H134630   1.429   1.158   6.299
 4357TIP3    H234631   1.552   1.069   6.297
 4358TIP3   OH234632   6.503   2.195   6.746
 4358TIP3    H134633   6.529   2.287   6.747
 4358TIP3    H234634   6.540   2.160   6.666
 4359TIP3   OH234635   2.342   4.387   0.848
 4359TIP3    H134636   2.333   4.340   0.765
 4359TIP3    H234637   2.393   4.465   0.826
 4360TIP3   OH234638   5.081   4.617   7.469
 4360TIP3    H134639   5.110   4.618   7.377
 4360TIP3    H234640   5.141   4.557   7.512
 4361TIP3   OH234641   4.122   1.573   7.120
 4361TIP3    H134642   4.114   1.574   7.024
 4361TIP3    H234643   4.031   1.576   7.151
 4362TIP3   OH234644   6.174   3.825   0.135
 4362TIP3    H134645   6.119   3.747   0.136
 4362TIP3    H234646   6.175   3.855   0.226
 4363TIP3   OH234647   5.792   4.833   8.251
 4363TIP3    H134648   5.742   4.911   8.273
 4363TIP3    H234649   5.880   4.865   8.231
 4364TIP3   OH234650   6.305   0.707   8.347
 4364TIP3    H134651   6.312   0.799   8.370
 4364TIP3    H234652   6.322   0.705   8.252
 4365TIP3   OH234653   4.849   3.541   1.322
 4365TIP3    H134654   4.813   3.605   1.384
 4365TIP3    H234655   4.807   3.459   1.347
 4366TIP3   OH234656   2.436   3.829   7.837
 4366TIP3    H134657   2.416   3.847   7.745
 4366TIP3    H234658   2.351   3.839   7.881
 4367TIP3   OH234659   2.722   0.630   6.034
 4367TIP3    H134660   2.776   0.655   5.959
 4367TIP3    H234661   2.734   0.536   6.041
 4368TIP3   OH234662   5.022   0.455   6.685
 4368TIP3    H134663   5.039   0.548   6.698
 4368TIP3    H234664   5.071   0.432   6.606
 4369TIP3   OH234665   6.143   1.325   2.106
 4369TIP3    H134666   6.073   1.320   2.171
 4369TIP3    H234667   6.223   1.338   2.158
 4370TIP3   OH234668   5.469   4.400   1.796
 4370TIP3    H134669   5.529   4.342   1.843
 4370TIP3    H234670   5.430   4.454   1.864
 4371TIP3   OH234671   4.712   2.598   2.490
 4371TIP3    H134672   4.671   2.565   2.570
 4371TIP3    H234673   4.806   2.593   2.507
 4372TIP3   OH234674   5.812   5.175   8.194
 4372TIP3    H134675   5.762   5.168   8.275
 4372TIP3    H234676   5.749   5.155   8.125
 4373TIP3   OH234677   3.607   6.469   1.941
 4373TIP3    H134678   3.653   6.471   2.025
 4373TIP3    H234679   3.676   6.479   1.875
 4374TIP3   OH234680   1.483   4.287   7.920
 4374TIP3    H134681   1.441   4.373   7.919
 4374TIP3    H234682   1.560   4.298   7.865
 4375TIP3   OH234683   6.022   1.997   1.899
 4375TIP3    H134684   6.089   2.065   1.903
 4375TIP3    H234685   6.024   1.966   1.809
 4376TIP3   OH234686   6.521   2.219   0.963
 4376TIP3    H134687   6.526   2.142   1.020
 4376TIP3    H234688   6.559   2.190   0.880
 4377TIP3   OH234689   3.758   3.013   1.480
 4377TIP3    H134690   3.768   2.982   1.390
 4377TIP3    H234691   3.664   3.005   1.497
 4378TIP3   OH234692   6.350   3.284   1.448
 4378TIP3    H134693   6.305   3.231   1.382
 4378TIP3    H234694   6.323   3.374   1.430
 4379TIP3   OH234695   3.448   0.366   0.254
 4379TIP3    H134696   3.475   0.344   0.164
 4379TIP3    H234697   3.467   0.460   0.262
 4380TIP3   OH234698   3.427   2.704   7.845
 4380TIP3    H134699   3.359   2.755   7.889
 4380TIP3    H234700   3.449   2.635   7.908
 4381TIP3   OH234701   2.017   0.706   0.197
 4381TIP3    H134702   1.938   0.743   0.237
 4381TIP3    H234703   2.027   0.755   0.116
 4382TIP3   OH234704   0.907   0.016   7.972
 4382TIP3    H134705   0.859   6.860   8.048
 4382TIP3    H234706   0.879   0.107   7.965
 4383TIP3   OH234707   4.482   1.385   0.872
 4383TIP3    H134708   4.394   1.422   0.869
 4383TIP3    H234709   4.529   1.433   0.803
 4384TIP3   OH234710   1.645   1.277   7.767
 4384TIP3    H134711   1.558   1.303   7.737
 4384TIP3    H234712   1.629   1.200   7.822
 4385TIP3   OH234713   4.640   1.668   0.298
 4385TIP3    H134714   4.707   1.729   0.267
 4385TIP3    H234715   4.613   1.621   0.219
 4386TIP3   OH234716   6.818   3.178   1.561
 4386TIP3    H134717   6.848   3.260   1.601
 4386TIP3    H234718   6.866   3.110   1.607
 4387TIP3   OH234719   4.120   2.118   0.928
 4387TIP3    H134720   4.044   2.081   0.883
 4387TIP3    H234721   4.095   2.209   0.946
 4388TIP3   OH234722   6.150   5.786   7.842
 4388TIP3    H134723   6.199   5.867   7.832
 4388TIP3    H234724   6.218   5.718   7.850
 4389TIP3   OH234725   0.082   3.316   6.999
 4389TIP3    H134726   6.866   3.331   6.994
 4389TIP3    H234727   0.119   3.377   6.935
 4390TIP3   OH234728   4.973   1.229   1.982
 4390TIP3    H134729   4.955   1.177   2.060
 4390TIP3    H234730   5.067   1.249   1.988
 4391TIP3   OH234731   0.457   0.476   7.745
 4391TIP3    H134732   0.392   0.539   7.777
 4391TIP3    H234733   0.541   0.514   7.770
 4392TIP3   OH234734   2.527   4.421   6.938
 4392TIP3    H134735   2.528   4.514   6.916
 4392TIP3    H234736   2.435   4.401   6.953
 4393TIP3   OH234737   6.650   4.403   0.887
 4393TIP3    H134738   6.666   4.391   0.793
 4393TIP3    H234739   6.689   4.325   0.927
 4394TIP3   OH234740   1.342   2.981   7.289
 4394TIP3    H134741   1.359   2.981   7.195
 4394TIP3    H234742   1.260   2.932   7.299
 4395TIP3   OH234743   3.329   0.655   7.273
 4395TIP3    H134744   3.265   0.725   7.265
 4395TIP3    H234745   3.307   0.610   7.354
 4396TIP3   OH234746   0.496   4.343   1.718
 4396TIP3    H134747   0.438   4.414   1.746
 4396TIP3    H234748   0.488   4.277   1.786
 4397TIP3   OH234749   5.480   0.515   0.275
 4397TIP3    H134750   5.481   0.431   0.230
 4397TIP3    H234751   5.570   0.545   0.274
 4398TIP3   OH234752   2.643   5.230   0.374
 4398TIP3    H134753   2.600   5.182   0.303
 4398TIP3    H234754   2.684   5.305   0.331
 4399TIP3   OH234755   4.704   6.804   8.296
 4399TIP3    H134756   4.795   6.812   8.326
 4399TIP3    H234757   4.685   0.011   8.256
 4400TIP3   OH234758   6.406   2.207   0.502
 4400TIP3    H134759   6.473   2.240   0.561
 4400TIP3    H234760   6.350   2.283   0.484
 4401TIP3   OH234761   2.247   1.253   8.581
 4401TIP3    H134762   2.225   1.344   8.559
 4401TIP3    H234763   2.262   1.211   8.497
 4402TIP3   OH234764   6.478   0.267   0.638
 4402TIP3    H134765   6.439   0.209   0.573
 4402TIP3    H234766   6.570   0.273   0.612
 4403TIP3   OH234767   6.424   6.765   0.275
 4403TIP3    H134768   6.332   6.752   0.300
 4403TIP3    H234769   6.469   6.687   0.307
 4404TIP3   OH234770   5.016   1.899   1.986
 4404TIP3    H134771   4.983   1.850   1.911
 4404TIP3    H234772   4.965   1.980   1.987
 4405TIP3   OH234773   3.283   1.383   8.102
 4405TIP3    H134774   3.190   1.377   8.079
 4405TIP3    H234775   3.327   1.399   8.019
 4406TIP3   OH234776   3.464   3.311   0.297
 4406TIP3    H134777   3.492   3.351   0.214
 4406TIP3    H234778   3.387   3.360   0.323
 4407TIP3   OH234779   0.288   2.204   2.250
 4407TIP3    H134780   0.209   2.242   2.213
 4407TIP3    H234781   0.340   2.279   2.279
 4408TIP3   OH234782   1.164   1.247   1.190
 4408TIP3    H134783   1.228   1.185   1.156
 4408TIP3    H234784   1.195   1.333   1.161
 4409TIP3   OH234785   2.748   1.482   1.026
 4409TIP3    H134786   2.708   1.566   1.050
 4409TIP3    H234787   2.712   1.420   1.090
 4410TIP3   OH234788   6.403   0.210   8.345
 4410TIP3    H134789   6.449   0.132   8.375
 4410TIP3    H234790   6.435   0.223   8.255
 4411TIP3   OH234791   2.309   2.546   8.370
 4411TIP3    H134792   2.262   2.585   8.296
 4411TIP3    H234793   2.301   2.611   8.440
 4412TIP3   OH234794   5.219   2.631   0.915
 4412TIP3    H134795   5.267   2.598   0.991
 4412TIP3    H234796   5.239   2.567   0.846
 4413TIP3   OH234797   3.219   3.765   7.688
 4413TIP3    H134798   3.137   3.736   7.727
 4413TIP3    H234799   3.279   3.774   7.763
 4414TIP3   OH234800   6.854   4.881   0.424
 4414TIP3    H134801   6.794   4.841   0.486
 4414TIP3    H234802   0.061   4.878   0.468
 4415TIP3   OH234803   4.335   3.292   0.229
 4415TIP3    H134804   4.262   3.341   0.265
 4415TIP3    H234805   4.413   3.339   0.260
 4416TIP3   OH234806   2.575   0.309   8.336
 4416TIP3    H134807   2.592   0.246   8.406
 4416TIP3    H234808   2.645   0.293   8.273
 4417TIP3   OH234809   0.455   1.423   0.488
 4417TIP3    H134810   0.434   1.334   0.462
 4417TIP3    H234811   0.372   1.458   0.521
 4418TIP3   OH234812   3.804   2.601   0.467
 4418TIP3    H134813   3.877   2.657   0.442
 4418TIP3    H234814   3.733   2.662   0.488
 4419TIP3   OH234815   2.636   3.497   0.064
 4419TIP3    H134816   2.687   3.432   0.110
 4419TIP3    H234817   2.675   3.581   0.088
 4420TIP3   OH234818   1.059   2.022   7.231
 4420TIP3    H134819   1.105   2.105   7.246
 4420TIP3    H234820   0.967   2.047   7.224
 4421TIP3   OH234821   1.989   6.358   7.648
 4421TIP3    H134822   1.940   6.387   7.571
 4421TIP3    H234823   2.074   6.331   7.614
 4422TIP3   OH234824   2.587   2.525   1.564
 4422TIP3    H134825   2.521   2.517   1.495
 4422TIP3    H234826   2.656   2.579   1.526
 4423TIP3   OH234827   4.977   1.103   7.964
 4423TIP3    H134828   5.067   1.125   7.943
 4423TIP3    H234829   4.974   1.101   8.060
 4424TIP3   OH234830   0.784   3.945   1.983
 4424TIP3    H134831   0.739   3.864   2.006
 4424TIP3    H234832   0.838   3.966   2.059
 4425TIP3   OH234833   2.139   3.614   0.493
 4425TIP3    H134834   2.166   3.704   0.513
 4425TIP3    H234835   2.123   3.614   0.399
 4426TIP3   OH234836   0.147   5.914   1.097
 4426TIP3    H134837   0.061   5.906   1.056
 4426TIP3    H234838   0.176   5.824   1.111
 4427TIP3   OH234839   1.946   1.267   1.442
 4427TIP3    H134840   1.920   1.199   1.504
 4427TIP3    H234841   1.876   1.332   1.447
 4428TIP3   OH234842   0.595   1.087   0.703
 4428TIP3    H134843   0.547   1.006   0.688
 4428TIP3    H234844   0.539   1.136   0.763
 4429TIP3   OH234845   3.630   2.031   7.325
 4429TIP3    H134846   3.636   2.023   7.420
 4429TIP3    H234847   3.721   2.042   7.297
 4430TIP3   OH234848   6.795   2.827   7.721
 4430TIP3    H134849   6.774   2.808   7.630
 4430TIP3    H234850   6.757   2.755   7.771
 4431TIP3   OH234851   6.314   2.487   1.309
 4431TIP3    H134852   6.276   2.433   1.240
 4431TIP3    H234853   6.322   2.427   1.384
 4432TIP3   OH234854   2.503   3.943   6.749
 4432TIP3    H134855   2.524   4.036   6.740
 4432TIP3    H234856   2.415   3.935   6.713
 4433TIP3   OH234857   3.193   0.467   1.034
 4433TIP3    H134858   3.254   0.409   0.988
 4433TIP3    H234859   3.113   0.416   1.043
 4434TIP3   OH234860   2.247   6.839   7.873
 4434TIP3    H134861   2.237   6.869   7.964
 4434TIP3    H234862   2.166   6.866   7.830
 4435TIP3   OH234863   6.437   0.583   1.800
 4435TIP3    H134864   6.352   0.551   1.831
 4435TIP3    H234865   6.480   0.505   1.765
 4436TIP3   OH234866   2.313   2.458   1.846
 4436TIP3    H134867   2.260   2.534   1.819
 4436TIP3    H234868   2.347   2.482   1.932
 4437TIP3   OH234869   0.964   4.500   7.519
 4437TIP3    H134870   0.982   4.417   7.562
 4437TIP3    H234871   1.020   4.499   7.441
 4438TIP3   OH234872   3.758   0.428   1.494
 4438TIP3    H134873   3.758   0.333   1.497
 4438TIP3    H234874   3.758   0.450   1.401
 4439TIP3   OH234875   6.010   1.281   8.222
 4439TIP3    H134876   6.030   1.365   8.262
 4439TIP3    H234877   5.961   1.302   8.143
 4440TIP3   OH234878   1.342   3.114   2.370
 4440TIP3    H134879   1.346   3.204   2.404
 4440TIP3    H234880   1.349   3.124   2.275
 4441TIP3   OH234881   4.146   3.295   7.110
 4441TIP3    H134882   4.137   3.379   7.154
 4441TIP3    H234883   4.060   3.254   7.118
 4442TIP3   OH234884   2.537   1.396   1.435
 4442TIP3    H134885   2.542   1.469   1.373
 4442TIP3    H234886   2.624   1.393   1.475
 4443TIP3   OH234887   4.327   2.786   1.982
 4443TIP3    H134888   4.421   2.805   1.990
 4443TIP3    H234889   4.286   2.871   1.971
 4444TIP3   OH234890   2.658   5.768   8.464
 4444TIP3    H134891   2.704   5.807   8.538
 4444TIP3    H234892   2.565   5.778   8.485
 4445TIP3   OH234893   6.514   3.800   1.451
 4445TIP3    H134894   6.542   3.891   1.442
 4445TIP3    H234895   6.478   3.777   1.366
 4446TIP3   OH234896   5.912   2.624   8.536
 4446TIP3    H134897   5.998   2.627   8.579
 4446TIP3    H234898   5.923   2.563   8.463
 4447TIP3   OH234899   0.903   5.956   6.327
 4447TIP3    H134900   0.896   5.910   6.244
 4447TIP3    H234901   0.974   6.019   6.313
 4448TIP3   OH234902   2.943   3.625   6.736
 4448TIP3    H134903   3.023   3.671   6.710
 4448TIP3    H234904   2.872   3.678   6.699
 4449TIP3   OH234905   6.661   4.694   0.835
 4449TIP3    H134906   6.592   4.688   0.902
 4449TIP3    H234907   6.690   4.604   0.822
 4450TIP3   OH234908   0.691   6.040   7.241
 4450TIP3    H134909   0.698   5.987   7.162
 4450TIP3    H234910   0.675   5.977   7.311
 4451TIP3   OH234911   1.862   2.227   1.400
 4451TIP3    H134912   1.845   2.309   1.353
 4451TIP3    H234913   1.863   2.160   1.332
 4452TIP3   OH234914   4.156   6.011   0.908
 4452TIP3    H134915   4.101   6.046   0.838
 4452TIP3    H234916   4.206   5.940   0.866
 4453TIP3   OH234917   3.466   3.049   7.862
 4453TIP3    H134918   3.478   3.081   7.952
 4453TIP3    H234919   3.384   3.089   7.833
 4454TIP3   OH234920   3.655   4.203   7.137
 4454TIP3    H134921   3.615   4.291   7.136
 4454TIP3    H234922   3.585   4.145   7.107
 4455TIP3   OH234923   0.721   6.198   0.449
 4455TIP3    H134924   0.750   6.197   0.540
 4455TIP3    H234925   0.678   6.113   0.436
 4456TIP3   OH234926   0.522   5.454   7.783
 4456TIP3    H134927   0.562   5.370   7.758
 4456TIP3    H234928   0.433   5.431   7.809
 4457TIP3   OH234929   5.217   0.443   1.581
 4457TIP3    H134930   5.162   0.500   1.527
 4457TIP3    H234931   5.188   0.354   1.559
 4458TIP3   OH234932   2.365   0.610   6.331
 4458TIP3    H134933   2.452   0.627   6.296
 4458TIP3    H234934   2.330   0.696   6.354
 4459TIP3   OH234935   2.143   0.408   6.546
 4459TIP3    H134936   2.105   0.483   6.591
 4459TIP3    H234937   2.079   0.385   6.478
 4460TIP3   OH234938   4.592   5.951   0.244
 4460TIP3    H134939   4.650   5.954   0.168
 4460TIP3    H234940   4.598   5.861   0.276
 4461TIP3   OH234941   6.035   4.157   7.585
 4461TIP3    H134942   6.088   4.084   7.618
 4461TIP3    H234943   6.069   4.234   7.630
 4462TIP3   OH234944   4.380   6.847   8.070
 4462TIP3    H134945   4.425   6.819   8.150
 4462TIP3    H234946   4.410   6.785   8.003
 4463TIP3   OH234947   0.117   3.652   7.570
 4463TIP3    H134948   0.138   3.730   7.519
 4463TIP3    H234949   0.175   3.584   7.536
 4464TIP3   OH234950   0.984   4.326   7.110
 4464TIP3    H134951   1.075   4.356   7.112
 4464TIP3    H234952   0.932   4.407   7.111
 4465TIP3   OH234953   2.821   2.481   7.563
 4465TIP3    H134954   2.803   2.444   7.649
 4465TIP3    H234955   2.909   2.450   7.541
 4466TIP3   OH234956   5.565   3.725   7.390
 4466TIP3    H134957   5.620   3.803   7.391
 4466TIP3    H234958   5.475   3.759   7.398
 4467TIP3   OH234959   0.193   3.982   0.515
 4467TIP3    H134960   0.281   3.943   0.518
 4467TIP3    H234961   0.203   4.065   0.562
 4468TIP3   OH234962   6.721   0.079   0.326
 4468TIP3    H134963   6.729   0.050   0.235
 4468TIP3    H234964   6.652   0.024   0.363
 4469TIP3   OH234965   5.014   4.928   0.638
 4469TIP3    H134966   5.104   4.955   0.622
 4469TIP3    H234967   5.004   4.847   0.588
 4470TIP3   OH234968   6.519   0.875   1.619
 4470TIP3    H134969   6.585   0.812   1.592
 4470TIP3    H234970   6.527   0.948   1.558
 4471TIP3   OH234971   6.395   2.784   0.366
 4471TIP3    H134972   6.472   2.800   0.421
 4471TIP3    H234973   6.337   2.731   0.421
 4472TIP3   OH234974   2.342   4.219   0.637
 4472TIP3    H134975   2.373   4.131   0.660
 4472TIP3    H234976   2.260   4.204   0.589
 4473TIP3   OH234977   1.613   0.224   1.048
 4473TIP3    H134978   1.655   0.138   1.040
 4473TIP3    H234979   1.685   0.285   1.063
 4474TIP3   OH234980   3.177   2.058   1.003
 4474TIP3    H134981   3.127   1.979   0.983
 4474TIP3    H234982   3.222   2.079   0.921
 4475TIP3   OH234983   5.541   3.179   1.071
 4475TIP3    H134984   5.614   3.233   1.041
 4475TIP3    H234985   5.483   3.174   0.995
 4476TIP3   OH234986   4.497   0.095   7.426
 4476TIP3    H134987   4.477   0.133   7.511
 4476TIP3    H234988   4.573   0.039   7.443
 4477TIP3   OH234989   3.574   1.658   7.346
 4477TIP3    H134990   3.491   1.651   7.393
 4477TIP3    H234991   3.625   1.722   7.396
 4478TIP3   OH234992   3.671   0.698   0.553
 4478TIP3    H134993   3.724   0.622   0.530
 4478TIP3    H234994   3.659   0.691   0.648
 4479TIP3   OH234995   2.270   3.981   6.577
 4479TIP3    H134996   2.253   4.053   6.517
 4479TIP3    H234997   2.274   3.903   6.521
 4480TIP3   OH234998   4.278   2.976   1.429
 4480TIP3    H134999   4.336   3.052   1.435
 4480TIP3    H235000   4.301   2.922   1.504
 4481TIP3   OH235001   2.876   6.296   1.256
 4481TIP3    H135002   2.921   6.305   1.171
 4481TIP3    H235003   2.875   6.202   1.272
 4482TIP3   OH235004   5.049   1.084   1.055
 4482TIP3    H135005   5.079   1.142   0.985
 4482TIP3    H235006   5.043   1.140   1.132
 4483TIP3   OH235007   4.301   3.891   6.226
 4483TIP3    H135008   4.264   3.829   6.288
 4483TIP3    H235009   4.395   3.871   6.225
 4484TIP3   OH235010   1.473   0.703   1.092
 4484TIP3    H135011   1.511   0.759   1.025
 4484TIP3    H235012   1.498   0.744   1.175
 4485TIP3   OH235013   4.207   1.916   1.073
 4485TIP3    H135014   4.176   1.985   1.014
 4485TIP3    H235015   4.156   1.930   1.154
 4486TIP3   OH235016   0.087   0.828   6.800
 4486TIP3    H135017   0.158   0.773   6.831
 4486TIP3    H235018   0.124   0.916   6.799
 4487TIP3   OH235019   3.163   0.418   7.731
 4487TIP3    H135020   3.231   0.357   7.757
 4487TIP3    H235021   3.132   0.385   7.646
 4488TIP3   OH235022   5.846   1.130   1.141
 4488TIP3    H135023   5.775   1.194   1.136
 4488TIP3    H235024   5.925   1.181   1.121
 4489TIP3   OH235025   6.814   5.984   0.273
 4489TIP3    H135026   6.803   5.889   0.278
 4489TIP3    H235027   0.030   5.996   0.259
 4490TIP3   OH235028   2.637   3.960   7.322
 4490TIP3    H135029   2.731   3.945   7.309
 4490TIP3    H235030   2.605   3.986   7.236
 4491TIP3   OH235031   1.922   3.835   8.113
 4491TIP3    H135032   1.992   3.831   8.047
 4491TIP3    H235033   1.958   3.891   8.182
 4492TIP3   OH235034   3.227   5.614   0.742
 4492TIP3    H135035   3.203   5.699   0.706
 4492TIP3    H235036   3.322   5.610   0.733
 4493TIP3   OH235037   3.346   0.659   8.233
 4493TIP3    H135038   3.384   0.663   8.320
 4493TIP3    H235039   3.272   0.598   8.242
 4494TIP3   OH235040   5.019   5.006   8.162
 4494TIP3    H135041   5.044   4.984   8.252
 4494TIP3    H235042   4.950   4.944   8.140
 4495TIP3   OH235043   3.715   0.871   7.716
 4495TIP3    H135044   3.675   0.785   7.727
 4495TIP3    H235045   3.667   0.928   7.777
 4496TIP3   OH235046   5.931   4.515   8.095
 4496TIP3    H135047   5.863   4.469   8.047
 4496TIP3    H235048   5.982   4.445   8.137
 4497TIP3   OH235049   3.403   5.692   7.707
 4497TIP3    H135050   3.388   5.643   7.788
 4497TIP3    H235051   3.497   5.686   7.692
 4498TIP3   OH235052   1.951   0.899   0.450
 4498TIP3    H135053   1.865   0.894   0.409
 4498TIP3    H235054   1.932   0.903   0.544
 4499TIP3   OH235055   4.196   2.986   6.881
 4499TIP3    H135056   4.203   3.079   6.862
 4499TIP3    H235057   4.106   2.974   6.911
 4500TIP3   OH235058   3.456   2.947   7.325
 4500TIP3    H135059   3.369   2.980   7.303
 4500TIP3    H235060   3.444   2.898   7.406
 4501TIP3   OH235061   4.168   0.096   8.526
 4501TIP3    H135062   4.151   0.169   8.466
 4501TIP3    H235063   4.081   0.065   8.551
 4502TIP3   OH235064   5.244   2.181   8.574
 4502TIP3    H135065   5.320   2.188   8.516
 4502TIP3    H235066   5.238   2.268   8.615
 4503TIP3   OH235067   3.910   6.365   8.141
 4503TIP3    H135068   3.995   6.321   8.137
 4503TIP3    H235069   3.888   6.385   8.050
 4504TIP3   OH235070   2.703   1.838   1.769
 4504TIP3    H135071   2.669   1.908   1.824
 4504TIP3    H235072   2.797   1.856   1.762
 4505TIP3   OH235073   0.151   1.910   8.011
 4505TIP3    H135074   0.077   1.967   7.991
 4505TIP3    H235075   0.220   1.937   7.950
 4506TIP3   OH235076   1.872   6.036   0.835
 4506TIP3    H135077   1.784   6.023   0.800
 4506TIP3    H235078   1.861   6.103   0.903
 4507TIP3   OH235079   0.304   1.092   7.752
 4507TIP3    H135080   0.274   1.003   7.768
 4507TIP3    H235081   0.224   1.144   7.747
 4508TIP3   OH235082   2.675   5.136   1.513
 4508TIP3    H135083   2.591   5.174   1.538
 4508TIP3    H235084   2.728   5.140   1.593
 4509TIP3   OH235085   6.210   0.235   7.544
 4509TIP3    H135086   6.288   0.264   7.497
 4509TIP3    H235087   6.174   0.165   7.490
 4510TIP3   OH235088   4.000   0.934   2.044
 4510TIP3    H135089   3.909   0.914   2.066
 4510TIP3    H235090   4.010   1.027   2.062
 4511TIP3   OH235091   2.583   6.775   1.035
 4511TIP3    H135092   2.665   6.747   0.994
 4511TIP3    H235093   2.588   6.740   1.124
 4512TIP3   OH235094   3.976   2.154   1.576
 4512TIP3    H135095   3.928   2.092   1.630
 4512TIP3    H235096   4.061   2.163   1.620
 4513TIP3   OH235097   0.895   0.307   6.713
 4513TIP3    H135098   0.933   0.322   6.800
 4513TIP3    H235099   0.850   0.223   6.719
 4514TIP3   OH235100   6.772   1.338   7.934
 4514TIP3    H135101   6.788   1.406   8.000
 4514TIP3    H235102   6.829   1.266   7.960
 4515TIP3   OH235103   6.159   5.553   7.272
 4515TIP3    H135104   6.210   5.485   7.315
 4515TIP3    H235105   6.188   5.551   7.181
 4516TIP3   OH235106   3.674   6.858   8.491
 4516TIP3    H135107   3.764   0.010   8.503
 4516TIP3    H235108   3.654   6.810   8.571
 4517TIP3   OH235109   3.113   3.734   8.498
 4517TIP3    H135110   3.095   3.828   8.506
 4517TIP3    H235111   3.064   3.694   8.570
 4518TIP3   OH235112   3.058   3.070   8.228
 4518TIP3    H135113   3.037   3.048   8.137
 4518TIP3    H235114   2.980   3.117   8.260
 4519TIP3   OH235115   4.542   4.797   7.575
 4519TIP3    H135116   4.503   4.779   7.661
 4519TIP3    H235117   4.576   4.712   7.547
 4520TIP3   OH235118   5.378   5.859   7.297
 4520TIP3    H135119   5.430   5.795   7.347
 4520TIP3    H235120   5.427   5.870   7.215
 4521TIP3   OH235121   2.718   4.729   7.396
 4521TIP3    H135122   2.763   4.812   7.381
 4521TIP3    H235123   2.675   4.709   7.313
 4522TIP3   OH235124   3.321   5.055   0.799
 4522TIP3    H135125   3.348   5.119   0.864
 4522TIP3    H235126   3.289   5.107   0.725
 4523TIP3   OH235127   3.898   6.575   1.530
 4523TIP3    H135128   3.812   6.548   1.499
 4523TIP3    H235129   3.954   6.498   1.517
 4524TIP3   OH235130   1.667   3.312   7.752
 4524TIP3    H135131   1.657   3.323   7.846
 4524TIP3    H235132   1.578   3.306   7.718
 4525TIP3   OH235133   1.670   5.969   0.112
 4525TIP3    H135134   1.740   5.935   0.167
 4525TIP3    H235135   1.675   6.064   0.123
 4526TIP3   OH235136   5.950   4.721   7.372
 4526TIP3    H135137   5.869   4.695   7.329
 4526TIP3    H235138   5.937   4.813   7.394
 4527TIP3   OH235139   3.695   5.053   7.273
 4527TIP3    H135140   3.727   5.026   7.359
 4527TIP3    H235141   3.616   5.104   7.291
 4528TIP3   OH235142   3.182   5.742   7.507
 4528TIP3    H135143   3.089   5.725   7.524
 4528TIP3    H235144   3.228   5.702   7.581
 4529TIP3   OH235145   1.203   5.630   7.058
 4529TIP3    H135146   1.266   5.593   6.996
 4529TIP3    H235147   1.153   5.555   7.090
 4530TIP3   OH235148   1.692   1.896   7.560
 4530TIP3    H135149   1.733   1.903   7.646
 4530TIP3    H235150   1.599   1.879   7.579
 4531TIP3   OH235151   6.190   3.429   7.150
 4531TIP3    H135152   6.130   3.465   7.216
 4531TIP3    H235153   6.273   3.474   7.167
 4532TIP3   OH235154   0.647   3.736   2.081
 4532TIP3    H135155   0.662   3.700   2.168
 4532TIP3    H235156   0.555   3.764   2.081
 4533TIP3   OH235157   0.586   2.543   0.681
 4533TIP3    H135158   0.573   2.478   0.612
 4533TIP3    H235159   0.518   2.524   0.745
 4534TIP3   OH235160   0.235   3.627   0.588
 4534TIP3    H135161   0.223   3.698   0.651
 4534TIP3    H235162   0.294   3.664   0.522
 4535TIP3   OH235163   3.617   0.105   8.205
 4535TIP3    H135164   3.528   0.137   8.193
 4535TIP3    H235165   3.607   0.016   8.238
 4536TIP3   OH235166   3.097   0.631   6.860
 4536TIP3    H135167   3.104   0.712   6.810
 4536TIP3    H235168   3.184   0.617   6.896
 4537TIP3   OH235169   1.245   4.197   7.367
 4537TIP3    H135170   1.317   4.145   7.333
 4537TIP3    H235171   1.214   4.147   7.443
 4538TIP3   OH235172   4.411   1.770   0.905
 4538TIP3    H135173   4.334   1.800   0.954
 4538TIP3    H235174   4.395   1.677   0.890
 4539TIP3   OH235175   0.599   3.533   8.460
 4539TIP3    H135176   0.560   3.446   8.463
 4539TIP3    H235177   0.529   3.590   8.429
 4540TIP3   OH235178   2.159   6.799   1.039
 4540TIP3    H135179   2.185   6.803   0.947
 4540TIP3    H235180   2.155   6.705   1.058
 4541TIP3   OH235181   5.960   3.343   0.296
 4541TIP3    H135182   5.936   3.422   0.247
 4541TIP3    H235183   6.052   3.328   0.273
 4542TIP3   OH235184   3.275   4.070   1.665
 4542TIP3    H135185   3.298   4.058   1.757
 4542TIP3    H235186   3.183   4.096   1.666
 4543TIP3   OH235187   1.005   6.640   0.930
 4543TIP3    H135188   1.087   6.591   0.926
 4543TIP3    H235189   0.940   6.577   0.963
 4544TIP3   OH235190   4.801   1.914   6.693
 4544TIP3    H135191   4.856   1.836   6.694
 4544TIP3    H235192   4.804   1.944   6.602
 4545TIP3   OH235193   3.123   2.796   1.860
 4545TIP3    H135194   3.046   2.761   1.815
 4545TIP3    H235195   3.169   2.718   1.891
 4546TIP3   OH235196   1.414   4.523   8.418
 4546TIP3    H135197   1.409   4.597   8.478
 4546TIP3    H235198   1.403   4.446   8.474
 4547TIP3   OH235199   4.536   4.126   0.707
 4547TIP3    H135200   4.503   4.187   0.773
 4547TIP3    H235201   4.534   4.041   0.750
 4548TIP3   OH235202   1.939   5.385   8.524
 4548TIP3    H135203   1.913   5.347   8.440
 4548TIP3    H235204   1.902   5.325   8.590
 4549TIP3   OH235205   6.075   0.658   8.494
 4549TIP3    H135206   6.151   0.696   8.449
 4549TIP3    H235207   6.112   0.616   8.572
 4550TIP3   OH235208   2.874   1.779   7.723
 4550TIP3    H135209   2.968   1.770   7.709
 4550TIP3    H235210   2.867   1.824   7.808
 4551TIP3   OH235211   0.015   3.008   7.164
 4551TIP3    H135212   0.055   2.921   7.165
 4551TIP3    H235213   6.832   3.005   7.090
 4552TIP3   OH235214   5.568   2.515   8.446
 4552TIP3    H135215   5.508   2.582   8.415
 4552TIP3    H235216   5.598   2.546   8.531
 4553TIP3   OH235217   4.268   2.649   1.668
 4553TIP3    H135218   4.274   2.641   1.763
 4553TIP3    H235219   4.328   2.721   1.646
 4554TIP3   OH235220   3.085   0.353   6.358
 4554TIP3    H135221   3.037   0.370   6.278
 4554TIP3    H235222   3.101   0.259   6.357
 4555TIP3   OH235223   4.597   0.570   7.904
 4555TIP3    H135224   4.591   0.475   7.893
 4555TIP3    H235225   4.658   0.598   7.836
 4556TIP3   OH235226   5.613   6.044   0.665
 4556TIP3    H135227   5.593   5.959   0.704
 4556TIP3    H235228   5.704   6.060   0.689
 4557TIP3   OH235229   0.198   2.421   2.047
 4557TIP3    H135230   0.239   2.501   2.081
 4557TIP3    H235231   0.246   2.402   1.966
 4558TIP3   OH235232   1.324   1.595   0.213
 4558TIP3    H135233   1.346   1.546   0.292
 4558TIP3    H235234   1.247   1.550   0.178
 4559TIP3   OH235235   2.161   2.375   7.130
 4559TIP3    H135236   2.213   2.400   7.053
 4559TIP3    H235237   2.226   2.350   7.196
 4560TIP3   OH235238   3.862   1.404   1.415
 4560TIP3    H135239   3.935   1.466   1.417
 4560TIP3    H235240   3.796   1.446   1.359
 4561TIP3   OH235241   4.157   4.747   1.291
 4561TIP3    H135242   4.082   4.798   1.322
 4561TIP3    H235243   4.228   4.771   1.349
 4562TIP3   OH235244   0.365   5.702   1.817
 4562TIP3    H135245   0.330   5.790   1.814
 4562TIP3    H235246   0.366   5.680   1.911
 4563TIP3   OH235247   3.848   4.515   8.237
 4563TIP3    H135248   3.766   4.484   8.199
 4563TIP3    H235249   3.916   4.469   8.188
 4564TIP3   OH235250   3.896   4.194   7.916
 4564TIP3    H135251   3.814   4.146   7.933
 4564TIP3    H235252   3.874   4.256   7.847
 4565TIP3   OH235253   4.880   0.797   2.549
 4565TIP3    H135254   4.882   0.701   2.540
 4565TIP3    H235255   4.966   0.825   2.517
 4566TIP3   OH235256   6.756   3.983   8.362
 4566TIP3    H135257   6.801   4.062   8.333
 4566TIP3    H235258   6.825   3.929   8.402
 4567TIP3   OH235259   1.626   3.719   1.625
 4567TIP3    H135260   1.646   3.684   1.538
 4567TIP3    H235261   1.576   3.649   1.668
 4568TIP3   OH235262   3.006   5.647   7.717
 4568TIP3    H135263   3.000   5.627   7.810
 4568TIP3    H235264   2.926   5.696   7.697
 4569TIP3   OH235265   6.243   0.682   1.546
 4569TIP3    H135266   6.236   0.587   1.558
 4569TIP3    H235267   6.298   0.692   1.468
 4570TIP3   OH235268   5.084   0.392   2.516
 4570TIP3    H135269   5.101   0.311   2.564
 4570TIP3    H235270   5.106   0.462   2.578
 4571TIP3   OH235271   1.873   5.024   8.151
 4571TIP3    H135272   1.886   4.950   8.091
 4571TIP3    H235273   1.870   5.101   8.095
 4572TIP3   OH235274   1.770   4.096   1.233
 4572TIP3    H135275   1.707   4.148   1.183
 4572TIP3    H235276   1.855   4.137   1.214
 4573TIP3   OH235277   4.989   6.824   8.271
 4573TIP3    H135278   4.981   0.041   8.260
 4573TIP3    H235279   5.063   6.799   8.216
 4574TIP3   OH235280   4.605   1.854   1.187
 4574TIP3    H135281   4.588   1.873   1.095
 4574TIP3    H235282   4.520   1.832   1.224
 4575TIP3   OH235283   2.450   1.066   7.062
 4575TIP3    H135284   2.470   0.980   7.097
 4575TIP3    H235285   2.375   1.097   7.113
 4576TIP3   OH235286   4.861   5.011   7.874
 4576TIP3    H135287   4.846   5.088   7.929
 4576TIP3    H235288   4.774   4.973   7.861
 4577TIP3   OH235289   4.024   4.644   1.648
 4577TIP3    H135290   3.977   4.722   1.616
 4577TIP3    H235291   3.965   4.607   1.713
 4578TIP3   OH235292   3.054   2.022   0.680
 4578TIP3    H135293   2.999   2.097   0.660
 4578TIP3    H235294   3.070   1.980   0.595
 4579TIP3   OH235295   5.223   0.275   0.890
 4579TIP3    H135296   5.223   0.325   0.971
 4579TIP3    H235297   5.260   0.335   0.825
 4580TIP3   OH235298   1.054   0.099   0.616
 4580TIP3    H135299   1.004   0.087   0.535
 4580TIP3    H235300   1.016   0.177   0.657
 4581TIP3   OH235301   0.465   2.137   7.221
 4581TIP3    H135302   0.379   2.177   7.215
 4581TIP3    H235303   0.485   2.110   7.132
 4582TIP3   OH235304   6.802   4.582   1.104
 4582TIP3    H135305   6.840   4.632   1.032
 4582TIP3    H235306   6.712   4.613   1.110
 4583TIP3   OH235307   2.488   0.984   0.219
 4583TIP3    H135308   2.555   1.041   0.255
 4583TIP3    H235309   2.491   0.905   0.273
 4584TIP3   OH235310   5.464   1.336   1.332
 4584TIP3    H135311   5.517   1.414   1.349
 4584TIP3    H235312   5.454   1.334   1.237
 4585TIP3   OH235313   0.406   1.687   0.308
 4585TIP3    H135314   0.463   1.610   0.297
 4585TIP3    H235315   0.453   1.743   0.369
 4586TIP3   OH235316   1.314   2.328   0.871
 4586TIP3    H135317   1.386   2.312   0.932
 4586TIP3    H235318   1.237   2.334   0.926
 4587TIP3   OH235319   1.062   3.640   7.428
 4587TIP3    H135320   1.131   3.704   7.447
 4587TIP3    H235321   1.083   3.565   7.483
 4588TIP3   OH235322   4.435   1.133   0.972
 4588TIP3    H135323   4.437   1.143   1.067
 4588TIP3    H235324   4.466   1.217   0.938
 4589TIP3   OH235325   4.573   5.468   6.879
 4589TIP3    H135326   4.498   5.504   6.925
 4589TIP3    H235327   4.610   5.541   6.831
 4590TIP3   OH235328   3.433   2.477   8.024
 4590TIP3    H135329   3.385   2.406   8.067
 4590TIP3    H235330   3.524   2.446   8.021
 4591TIP3   OH235331   3.696   1.214   1.487
 4591TIP3    H135332   3.765   1.279   1.471
 4591TIP3    H235333   3.640   1.220   1.410
 4592TIP3   OH235334   2.578   5.822   1.844
 4592TIP3    H135335   2.629   5.868   1.776
 4592TIP3    H235336   2.560   5.890   1.909
 4593TIP3   OH235337   2.043   0.561   1.078
 4593TIP3    H135338   2.078   0.497   1.016
 4593TIP3    H235339   2.112   0.573   1.143
 4594TIP3   OH235340   0.655   5.674   1.232
 4594TIP3    H135341   0.726   5.660   1.295
 4594TIP3    H235342   0.661   5.599   1.173
 4595TIP3   OH235343   2.539   4.996   1.097
 4595TIP3    H135344   2.480   4.980   1.023
 4595TIP3    H235345   2.613   5.042   1.059
 4596TIP3   OH235346   2.333   0.634   5.985
 4596TIP3    H135347   2.340   0.679   6.069
 4596TIP3    H235348   2.262   0.680   5.939
 4597TIP3   OH235349   2.353   1.286   0.189
 4597TIP3    H135350   2.385   1.200   0.217
 4597TIP3    H235351   2.298   1.267   0.113
 4598TIP3   OH235352   3.426   4.883   1.360
 4598TIP3    H135353   3.361   4.831   1.311
 4598TIP3    H235354   3.374   4.934   1.422
 4599TIP3   OH235355   5.672   0.855   0.111
 4599TIP3    H135356   5.677   0.917   0.183
 4599TIP3    H235357   5.581   0.859   0.082
 4600TIP3   OH235358   2.155   3.282   7.946
 4600TIP3    H135359   2.187   3.342   7.879
 4600TIP3    H235360   2.087   3.231   7.903
 4601TIP3   OH235361   5.597   0.913   2.325
 4601TIP3    H135362   5.586   0.972   2.400
 4601TIP3    H235363   5.678   0.942   2.284
 4602TIP3   OH235364   4.968   4.211   0.236
 4602TIP3    H135365   5.048   4.173   0.271
 4602TIP3    H235366   4.990   4.233   0.145
 4603TIP3   OH235367   2.875   6.828   1.213
 4603TIP3    H135368   2.857   6.768   1.285
 4603TIP3    H235369   2.825   6.793   1.140
 4604TIP3   OH235370   6.798   5.157   7.693
 4604TIP3    H135371   6.832   5.213   7.623
 4604TIP3    H235372   6.856   5.080   7.693
 4605TIP3   OH235373   0.463   5.625   7.121
 4605TIP3    H135374   0.475   5.711   7.081
 4605TIP3    H235375   0.369   5.613   7.125
 4606TIP3   OH235376   3.200   5.333   8.057
 4606TIP3    H135377   3.126   5.282   8.025
 4606TIP3    H235378   3.231   5.286   8.135
 4607TIP3   OH235379   6.230   3.087   0.812
 4607TIP3    H135380   6.251   2.999   0.844
 4607TIP3    H235381   6.267   3.090   0.724
 4608TIP3   OH235382   4.478   3.594   1.412
 4608TIP3    H135383   4.405   3.651   1.436
 4608TIP3    H235384   4.532   3.590   1.491
 4609TIP3   OH235385   5.052   4.348   1.092
 4609TIP3    H135386   5.059   4.275   1.031
 4609TIP3    H235387   4.985   4.319   1.155
 4610TIP3   OH235388   4.566   0.798   1.281
 4610TIP3    H135389   4.484   0.837   1.251
 4610TIP3    H235390   4.631   0.829   1.218
 4611TIP3   OH235391   2.508   0.266   7.690
 4611TIP3    H135392   2.436   0.225   7.641
 4611TIP3    H235393   2.466   0.306   7.766
 4612TIP3   OH235394   5.345   0.544   7.305
 4612TIP3    H135395   5.289   0.467   7.295
 4612TIP3    H235396   5.299   0.600   7.368
 4613TIP3   OH235397   4.714   2.590   7.481
 4613TIP3    H135398   4.748   2.502   7.494
 4613TIP3    H235399   4.743   2.614   7.394
 4614TIP3   OH235400   5.103   4.027   1.678
 4614TIP3    H135401   5.179   4.010   1.734
 4614TIP3    H235402   5.108   3.959   1.611
 4615TIP3   OH235403   5.730   0.922   0.375
 4615TIP3    H135404   5.730   0.835   0.416
 4615TIP3    H235405   5.794   0.972   0.424
 4616TIP3   OH235406   1.317   5.092   7.314
 4616TIP3    H135407   1.334   5.164   7.253
 4616TIP3    H235408   1.361   5.016   7.274
 4617TIP3   OH235409   3.459   3.749   7.895
 4617TIP3    H135410   3.471   3.722   7.986
 4617TIP3    H235411   3.413   3.832   7.900
 4618TIP3   OH235412   5.869   6.713   0.349
 4618TIP3    H135413   5.852   6.698   0.256
 4618TIP3    H235414   5.811   6.785   0.372
 4619TIP3   OH235415   3.444   1.235   1.639
 4619TIP3    H135416   3.483   1.223   1.552
 4619TIP3    H235417   3.517   1.266   1.693
 4620TIP3   OH235418   0.859   3.915   6.589
 4620TIP3    H135419   0.766   3.931   6.603
 4620TIP3    H235420   0.862   3.833   6.540
 4621TIP3   OH235421   5.229   5.150   6.225
 4621TIP3    H135422   5.321   5.130   6.203
 4621TIP3    H235423   5.235   5.207   6.301
 4622TIP3   OH235424   2.437   2.220   0.844
 4622TIP3    H135425   2.509   2.284   0.843
 4622TIP3    H235426   2.480   2.137   0.864
 4623TIP3   OH235427   4.287   5.316   8.390
 4623TIP3    H135428   4.200   5.351   8.408
 4623TIP3    H235429   4.281   5.279   8.302
 4624TIP3   OH235430   2.967   0.307   0.984
 4624TIP3    H135431   2.923   0.390   0.967
 4624TIP3    H235432   2.953   0.290   1.077
 4625TIP3   OH235433   3.370   0.055   6.083
 4625TIP3    H135434   3.308   0.012   6.142
 4625TIP3    H235435   3.434   6.865   6.061
 4626TIP3   OH235436   0.690   0.497   6.633
 4626TIP3    H135437   0.771   0.448   6.650
 4626TIP3    H235438   0.656   0.458   6.552
 4627TIP3   OH235439   1.096   5.577   7.442
 4627TIP3    H135440   1.014   5.565   7.393
 4627TIP3    H235441   1.150   5.631   7.385
 4628TIP3   OH235442   2.244   4.446   1.327
 4628TIP3    H135443   2.202   4.452   1.241
 4628TIP3    H235444   2.219   4.360   1.360
 4629TIP3   OH235445   3.260   2.451   2.168
 4629TIP3    H135446   3.183   2.434   2.223
 4629TIP3    H235447   3.224   2.490   2.088
 4630TIP3   OH235448   6.628   2.937   1.822
 4630TIP3    H135449   6.541   2.898   1.828
 4630TIP3    H235450   6.620   3.007   1.757
 4631TIP3   OH235451   5.416   4.369   7.341
 4631TIP3    H135452   5.402   4.295   7.400
 4631TIP3    H235453   5.423   4.329   7.254
 4632TIP3   OH235454   4.337   5.360   0.180
 4632TIP3    H135455   4.341   5.296   0.251
 4632TIP3    H235456   4.341   5.307   0.100
 4633TIP3   OH235457   1.896   1.229   2.483
 4633TIP3    H135458   1.897   1.259   2.392
 4633TIP3    H235459   1.894   1.310   2.535
 4634TIP3   OH235460   5.484   6.002   1.102
 4634TIP3    H135461   5.572   5.995   1.064
 4634TIP3    H235462   5.434   5.933   1.060
 4635TIP3   OH235463   3.605   5.518   7.796
 4635TIP3    H135464   3.648   5.465   7.862
 4635TIP3    H235465   3.551   5.456   7.747
 4636TIP3   OH235466   1.464   0.948   7.619
 4636TIP3    H135467   1.492   0.949   7.711
 4636TIP3    H235468   1.532   0.997   7.573
 4637TIP3   OH235469   0.554   0.239   0.015
 4637TIP3    H135470   0.460   0.226   0.023
 4637TIP3    H235471   0.570   0.325   0.056
 4638TIP3   OH235472   2.572   0.834   1.076
 4638TIP3    H135473   2.566   0.927   1.054
 4638TIP3    H235474   2.657   0.825   1.119
 4639TIP3   OH235475   2.602   0.109   0.141
 4639TIP3    H135476   2.588   0.115   0.235
 4639TIP3    H235477   2.541   0.173   0.104
 4640TIP3   OH235478   1.623   5.995   0.536
 4640TIP3    H135479   1.606   5.914   0.489
 4640TIP3    H235480   1.603   5.974   0.627
 4641TIP3   OH235481   2.162   2.962   7.361
 4641TIP3    H135482   2.229   2.952   7.293
 4641TIP3    H235483   2.193   2.908   7.433
 4642TIP3   OH235484   6.044   0.138   7.774
 4642TIP3    H135485   6.070   0.186   7.853
 4642TIP3    H235486   6.070   0.195   7.701
 4643TIP3   OH235487   3.781   4.012   7.037
 4643TIP3    H135488   3.692   3.983   7.013
 4643TIP3    H235489   3.770   4.104   7.059
 4644TIP3   OH235490   4.952   0.012   1.866
 4644TIP3    H135491   4.946   6.871   1.959
 4644TIP3    H235492   4.863   0.001   1.834
 4645TIP3   OH235493   5.921   2.994   7.783
 4645TIP3    H135494   5.907   2.928   7.715
 4645TIP3    H235495   5.860   3.065   7.761
 4646TIP3   OH235496   1.797   3.914   0.930
 4646TIP3    H135497   1.716   3.882   0.970
 4646TIP3    H235498   1.779   4.005   0.908
 4647TIP3   OH235499   1.605   6.519   0.798
 4647TIP3    H135500   1.573   6.606   0.775
 4647TIP3    H235501   1.694   6.515   0.763
 4648TIP3   OH235502   0.994   4.002   8.066
 4648TIP3    H135503   0.910   4.012   8.110
 4648TIP3    H235504   0.972   4.003   7.973
 4649TIP3   OH235505   3.646   2.877   0.155
 4649TIP3    H135506   3.628   2.798   0.106
 4649TIP3    H235507   3.741   2.886   0.154
 4650TIP3   OH235508   5.105   4.533   0.148
 4650TIP3    H135509   5.012   4.551   0.138
 4650TIP3    H235510   5.125   4.470   0.078
 4651TIP3   OH235511   0.867   3.384   8.264
 4651TIP3    H135512   0.885   3.354   8.175
 4651TIP3    H235513   0.892   3.477   8.264
 4652TIP3   OH235514   3.889   1.923   1.128
 4652TIP3    H135515   3.932   1.838   1.138
 4652TIP3    H235516   3.856   1.922   1.038
 4653TIP3   OH235517   2.575   5.908   7.215
 4653TIP3    H135518   2.519   5.851   7.162
 4653TIP3    H235519   2.517   5.978   7.245
 4654TIP3   OH235520   6.814   5.044   7.389
 4654TIP3    H135521   6.728   5.054   7.430
 4654TIP3    H235522   6.869   5.108   7.433
 4655TIP3   OH235523   0.583   4.708   7.273
 4655TIP3    H135524   0.676   4.727   7.284
 4655TIP3    H235525   0.545   4.789   7.239
 4656TIP3   OH235526   3.726   1.356   7.735
 4656TIP3    H135527   3.687   1.396   7.813
 4656TIP3    H235528   3.821   1.367   7.747
 4657TIP3   OH235529   5.885   6.060   1.678
 4657TIP3    H135530   5.850   6.149   1.673
 4657TIP3    H235531   5.948   6.063   1.751
 4658TIP3   OH235532   1.356   5.835   7.695
 4658TIP3    H135533   1.422   5.828   7.765
 4658TIP3    H235534   1.407   5.831   7.614
 4659TIP3   OH235535   1.817   1.521   1.144
 4659TIP3    H135536   1.808   1.444   1.088
 4659TIP3    H235537   1.910   1.522   1.169
 4660TIP3   OH235538   0.011   3.440   0.837
 4660TIP3    H135539   0.068   3.371   0.804
 4660TIP3    H235540   6.832   3.461   0.763
 4661TIP3   OH235541   3.011   6.079   0.117
 4661TIP3    H135542   2.951   6.030   0.172
 4661TIP3    H235543   3.081   6.107   0.176
 4662TIP3   OH235544   1.572   0.517   7.801
 4662TIP3    H135545   1.539   0.453   7.864
 4662TIP3    H235546   1.499   0.578   7.790
 4663TIP3   OH235547   2.989   3.002   7.683
 4663TIP3    H135548   2.907   3.026   7.639
 4663TIP3    H235549   2.961   2.945   7.755
 4664TIP3   OH235550   0.990   5.018   0.853
 4664TIP3    H135551   1.071   5.067   0.840
 4664TIP3    H235552   0.922   5.085   0.861
 4665TIP3   OH235553   0.316   0.060   7.941
 4665TIP3    H135554   0.387   0.042   7.880
 4665TIP3    H235555   0.339   0.145   7.980
 4666TIP3   OH235556   0.386   4.574   7.151
 4666TIP3    H135557   0.463   4.621   7.184
 4666TIP3    H235558   0.368   4.615   7.066
 4667TIP3   OH235559   0.056   1.462   7.625
 4667TIP3    H135560   0.144   1.455   7.588
 4667TIP3    H235561   0.005   1.507   7.558
 4668TIP3   OH235562   4.281   4.127   6.550
 4668TIP3    H135563   4.327   4.121   6.466
 4668TIP3    H235564   4.314   4.208   6.590
 4669TIP3   OH235565   0.289   4.520   1.774
 4669TIP3    H135566   0.288   4.616   1.777
 4669TIP3    H235567   0.293   4.492   1.865
 4670TIP3   OH235568   5.155   3.776   1.505
 4670TIP3    H135569   5.209   3.827   1.445
 4670TIP3    H235570   5.169   3.685   1.479
 4671TIP3   OH235571   6.057   1.678   1.507
 4671TIP3    H135572   6.032   1.738   1.436
 4671TIP3    H235573   5.998   1.701   1.579
 4672TIP3   OH235574   6.057   4.715   1.348
 4672TIP3    H135575   6.030   4.634   1.390
 4672TIP3    H235576   6.054   4.781   1.417
 4673TIP3   OH235577   5.212   6.684   8.505
 4673TIP3    H135578   5.117   6.686   8.519
 4673TIP3    H235579   5.222   6.640   8.421
 4674TIP3   OH235580   4.997   4.517   7.972
 4674TIP3    H135581   5.041   4.549   7.894
 4674TIP3    H235582   5.065   4.515   8.039
 4675TIP3   OH235583   2.542   3.375   8.051
 4675TIP3    H135584   2.629   3.387   8.091
 4675TIP3    H235585   2.559   3.377   7.957
 4676TIP3   OH235586   1.595   0.480   1.278
 4676TIP3    H135587   1.515   0.447   1.238
 4676TIP3    H235588   1.588   0.575   1.270
 4677TIP3   OH235589   4.924   2.949   1.249
 4677TIP3    H135590   4.955   3.007   1.318
 4677TIP3    H235591   5.003   2.924   1.201
 4678TIP3   OH235592   0.847   6.483   2.033
 4678TIP3    H135593   0.873   6.402   1.989
 4678TIP3    H235594   0.903   6.486   2.111
 4679TIP3   OH235595   0.792   0.029   0.545
 4679TIP3    H135596   0.848   6.843   0.588
 4679TIP3    H235597   0.806   0.110   0.594
 4680TIP3   OH235598   5.433   2.023   0.076
 4680TIP3    H135599   5.495   2.095   0.072
 4680TIP3    H235600   5.358   2.053   0.025
 4681TIP3   OH235601   2.180   1.421   0.816
 4681TIP3    H135602   2.197   1.436   0.723
 4681TIP3    H235603   2.171   1.326   0.824
 4682TIP3   OH235604   1.438   1.872   7.649
 4682TIP3    H135605   1.385   1.793   7.664
 4682TIP3    H235606   1.388   1.921   7.583
 4683TIP3   OH235607   3.538   1.243   2.188
 4683TIP3    H135608   3.565   1.327   2.227
 4683TIP3    H235609   3.525   1.264   2.095
 4684TIP3   OH235610   6.822   1.965   8.365
 4684TIP3    H135611   6.786   1.876   8.360
 4684TIP3    H235612   6.749   2.021   8.339
 4685TIP3   OH235613   3.322   1.192   0.562
 4685TIP3    H135614   3.394   1.209   0.623
 4685TIP3    H235615   3.359   1.209   0.476
 4686TIP3   OH235616   2.970   3.108   1.439
 4686TIP3    H135617   2.970   3.022   1.482
 4686TIP3    H235618   3.002   3.089   1.350
 4687TIP3   OH235619   0.110   0.717   8.650
 4687TIP3    H135620   0.138   0.671   0.079
 4687TIP3    H235621   0.095   0.647   8.586
 4688TIP3   OH235622   3.411   2.698   1.115
 4688TIP3    H135623   3.500   2.664   1.130
 4688TIP3    H235624   3.386   2.738   1.199
 4689TIP3   OH235625   3.495   5.559   6.492
 4689TIP3    H135626   3.577   5.601   6.516
 4689TIP3    H235627   3.510   5.523   6.404
 4690TIP3   OH235628   5.762   2.039   1.575
 4690TIP3    H135629   5.751   2.029   1.480
 4690TIP3    H235630   5.709   2.116   1.596
 4691TIP3   OH235631   2.103   0.285   7.035
 4691TIP3    H135632   2.119   0.332   7.117
 4691TIP3    H235633   2.068   0.352   6.976
 4692TIP3   OH235634   6.298   5.596   0.228
 4692TIP3    H135635   6.292   5.556   0.315
 4692TIP3    H235636   6.312   5.521   0.169
 4693TIP3   OH235637   1.621   0.446   0.879
 4693TIP3    H135638   1.716   0.449   0.890
 4693TIP3    H235639   1.591   0.376   0.937
 4694TIP3   OH235640   6.469   1.080   2.250
 4694TIP3    H135641   6.537   1.073   2.183
 4694TIP3    H235642   6.408   1.010   2.228
 4695TIP3   OH235643   2.544   0.935   0.727
 4695TIP3    H135644   2.480   0.960   0.661
 4695TIP3    H235645   2.504   0.860   0.772
 4696TIP3   OH235646   3.337   3.837   0.625
 4696TIP3    H135647   3.411   3.847   0.685
 4696TIP3    H235648   3.264   3.812   0.681
 4697TIP3   OH235649   6.171   2.955   1.601
 4697TIP3    H135650   6.257   2.985   1.631
 4697TIP3    H235651   6.182   2.942   1.507
 4698TIP3   OH235652   3.266   1.124   6.824
 4698TIP3    H135653   3.328   1.183   6.865
 4698TIP3    H235654   3.256   1.052   6.887
 4699TIP3   OH235655   5.960   2.494   0.467
 4699TIP3    H135656   5.891   2.558   0.449
 4699TIP3    H235657   5.917   2.425   0.516
 4700TIP3   OH235658   5.653   5.345   1.389
 4700TIP3    H135659   5.641   5.252   1.408
 4700TIP3    H235660   5.569   5.373   1.352
 4701TIP3   OH235661   0.119   5.521   0.768
 4701TIP3    H135662   0.090   5.610   0.750
 4701TIP3    H235663   0.052   5.465   0.729
 4702TIP3   OH235664   2.324   2.639   7.120
 4702TIP3    H135665   2.273   2.620   7.041
 4702TIP3    H235666   2.390   2.570   7.124
 4703TIP3   OH235667   0.783   6.023   1.507
 4703TIP3    H135668   0.818   6.018   1.596
 4703TIP3    H235669   0.815   5.945   1.463
 4704TIP3   OH235670   2.549   5.296   8.129
 4704TIP3    H135671   2.548   5.241   8.208
 4704TIP3    H235672   2.484   5.255   8.071
 4705TIP3   OH235673   2.485   0.280   7.020
 4705TIP3    H135674   2.492   0.333   7.100
 4705TIP3    H235675   2.429   0.206   7.045
 4706TIP3   OH235676   1.160   4.454   7.320
 4706TIP3    H135677   1.245   4.498   7.323
 4706TIP3    H235678   1.181   4.361   7.326
 4707TIP3   OH235679   6.096   2.415   1.756
 4707TIP3    H135680   6.097   2.502   1.796
 4707TIP3    H235681   6.099   2.354   1.830
 4708TIP3   OH235682   6.082   5.123   8.269
 4708TIP3    H135683   6.114   5.121   8.179
 4708TIP3    H235684   5.987   5.131   8.260
 4709TIP3   OH235685   1.453   1.731   1.565
 4709TIP3    H135686   1.542   1.764   1.576
 4709TIP3    H235687   1.411   1.747   1.649
 4710TIP3   OH235688   6.644   3.849   7.608
 4710TIP3    H135689   6.728   3.888   7.588
 4710TIP3    H235690   6.579   3.908   7.570
 4711TIP3   OH235691   2.066   3.014   8.227
 4711TIP3    H135692   2.147   3.064   8.238
 4711TIP3    H235693   2.096   2.929   8.195
 4712TIP3   OH235694   0.143   2.601   6.930
 4712TIP3    H135695   0.185   2.596   6.844
 4712TIP3    H235696   0.059   2.555   6.918
 4713TIP3   OH235697   1.551   4.714   1.299
 4713TIP3    H135698   1.585   4.792   1.254
 4713TIP3    H235699   1.491   4.749   1.365
 4714TIP3   OH235700   4.950   6.751   8.529
 4714TIP3    H135701   4.955   6.796   8.445
 4714TIP3    H235702   4.972   6.818   8.594
 4715TIP3   OH235703   4.570   3.476   6.552
 4715TIP3    H135704   4.656   3.467   6.510
 4715TIP3    H235705   4.552   3.389   6.589
 4716TIP3   OH235706   2.571   3.142   7.347
 4716TIP3    H135707   2.496   3.113   7.398
 4716TIP3    H235708   2.554   3.234   7.329
 4717TIP3   OH235709   4.068   4.682   0.321
 4717TIP3    H135710   4.059   4.776   0.310
 4717TIP3    H235711   4.088   4.670   0.413
 4718TIP3   OH235712   3.479   3.531   2.014
 4718TIP3    H135713   3.400   3.510   1.965
 4718TIP3    H235714   3.531   3.450   2.012
 4719TIP3   OH235715   1.985   1.095   1.980
 4719TIP3    H135716   1.943   1.019   2.019
 4719TIP3    H235717   1.961   1.168   2.037
 4720TIP3   OH235718   1.184   4.996   6.118
 4720TIP3    H135719   1.260   4.967   6.067
 4720TIP3    H235720   1.191   4.950   6.201
 4721TIP3   OH235721   0.968   3.321   1.355
 4721TIP3    H135722   1.035   3.323   1.423
 4721TIP3    H235723   0.987   3.397   1.300
 4722TIP3   OH235724   2.905   5.780   1.040
 4722TIP3    H135725   2.849   5.749   0.969
 4722TIP3    H235726   2.937   5.865   1.010
 4723TIP3   OH235727   2.088   1.212   7.684
 4723TIP3    H135728   2.120   1.125   7.660
 4723TIP3    H235729   2.154   1.246   7.745
 4724TIP3   OH235730   3.595   1.144   7.548
 4724TIP3    H135731   3.638   1.203   7.609
 4724TIP3    H235732   3.657   1.133   7.476
 4725TIP3   OH235733   0.868   4.688   0.513
 4725TIP3    H135734   0.955   4.690   0.554
 4725TIP3    H235735   0.873   4.753   0.443
 4726TIP3   OH235736   6.866   3.102   0.613
 4726TIP3    H135737   6.839   3.020   0.572
 4726TIP3    H235738   6.816   3.106   0.694
 4727TIP3   OH235739   4.129   2.130   7.835
 4727TIP3    H135740   4.181   2.156   7.758
 4727TIP3    H235741   4.190   2.077   7.887
 4728TIP3   OH235742   4.241   0.983   1.489
 4728TIP3    H135743   4.326   1.022   1.467
 4728TIP3    H235744   4.258   0.888   1.490
 4729TIP3   OH235745   0.733   3.079   1.980
 4729TIP3    H135746   0.765   3.043   2.063
 4729TIP3    H235747   0.809   3.077   1.922
 4730TIP3   OH235748   2.472   4.958   1.922
 4730TIP3    H135749   2.485   4.877   1.972
 4730TIP3    H235750   2.404   4.937   1.859
 4731TIP3   OH235751   1.946   4.051   6.751
 4731TIP3    H135752   2.009   4.004   6.806
 4731TIP3    H235753   1.880   3.986   6.729
 4732TIP3   OH235754   1.045   6.827   8.527
 4732TIP3    H135755   0.968   6.833   8.472
 4732TIP3    H235756   1.015   6.785   8.607
 4733TIP3   OH235757   4.612   5.369   7.183
 4733TIP3    H135758   4.530   5.361   7.231
 4733TIP3    H235759   4.599   5.317   7.104
 4734TIP3   OH235760   0.820   6.230   7.563
 4734TIP3    H135761   0.786   6.318   7.577
 4734TIP3    H235762   0.877   6.238   7.487
 4735TIP3   OH235763   5.865   2.285   0.619
 4735TIP3    H135764   5.954   2.255   0.601
 4735TIP3    H235765   5.814   2.204   0.627
 4736TIP3   OH235766   4.527   5.646   7.574
 4736TIP3    H135767   4.431   5.641   7.569
 4736TIP3    H235768   4.555   5.666   7.485
 4737TIP3   OH235769   2.838   1.998   1.012
 4737TIP3    H135770   2.842   1.960   0.924
 4737TIP3    H235771   2.929   2.013   1.036
 4738TIP3   OH235772   5.560   5.928   7.094
 4738TIP3    H135773   5.501   5.972   7.032
 4738TIP3    H235774   5.600   5.858   7.042
 4739TIP3   OH235775   4.665   1.922   1.615
 4739TIP3    H135776   4.674   2.008   1.655
 4739TIP3    H235777   4.724   1.924   1.540
 4740TIP3   OH235778   2.434   1.120   1.521
 4740TIP3    H135779   2.399   1.209   1.517
 4740TIP3    H235780   2.520   1.127   1.478
 4741TIP3   OH235781   3.111   2.636   6.358
 4741TIP3    H135782   3.172   2.564   6.371
 4741TIP3    H235783   3.027   2.594   6.338
 4742TIP3   OH235784   4.719   1.556   8.430
 4742TIP3    H135785   4.755   1.642   8.409
 4742TIP3    H235786   4.644   1.546   8.372
 4743TIP3   OH235787   0.935   2.427   7.334
 4743TIP3    H135788   1.015   2.383   7.359
 4743TIP3    H235789   0.952   2.520   7.353
 4744TIP3   OH235790   4.889   5.502   0.404
 4744TIP3    H135791   4.924   5.471   0.487
 4744TIP3    H235792   4.911   5.433   0.341
 4745TIP3   OH235793   6.814   3.371   2.116
 4745TIP3    H135794   6.771   3.415   2.189
 4745TIP3    H235795   6.820   3.279   2.144
 4746TIP3   OH235796   2.375   3.669   0.100
 4746TIP3    H135797   2.373   3.694   0.008
 4746TIP3    H235798   2.468   3.660   0.121
 4747TIP3   OH235799   4.687   5.366   0.138
 4747TIP3    H135800   4.622   5.358   0.208
 4747TIP3    H235801   4.767   5.327   0.175
 4748TIP3   OH235802   4.583   1.829   6.803
 4748TIP3    H135803   4.535   1.852   6.724
 4748TIP3    H235804   4.675   1.835   6.778
 4749TIP3   OH235805   6.183   2.009   8.488
 4749TIP3    H135806   6.142   2.094   8.504
 4749TIP3    H235807   6.119   1.961   8.435
 4750TIP3   OH235808   5.749   0.556   1.037
 4750TIP3    H135809   5.732   0.535   0.945
 4750TIP3    H235810   5.728   0.649   1.045
 4751TIP3   OH235811   1.656   1.880   8.083
 4751TIP3    H135812   1.713   1.946   8.122
 4751TIP3    H235813   1.694   1.862   7.998
 4752TIP3   OH235814   6.496   5.894   1.053
 4752TIP3    H135815   6.448   5.914   0.972
 4752TIP3    H235816   6.459   5.811   1.083
 4753TIP3   OH235817   2.102   1.619   6.751
 4753TIP3    H135818   2.172   1.579   6.700
 4753TIP3    H235819   2.055   1.674   6.688
 4754TIP3   OH235820   4.626   2.074   7.180
 4754TIP3    H135821   4.698   2.034   7.229
 4754TIP3    H235822   4.649   2.061   7.088
 4755TIP3   OH235823   4.284   6.496   6.235
 4755TIP3    H135824   4.206   6.500   6.180
 4755TIP3    H235825   4.356   6.485   6.173
 4756TIP3   OH235826   1.788   4.001   0.503
 4756TIP3    H135827   1.801   3.930   0.439
 4756TIP3    H235828   1.693   4.013   0.506
 4757TIP3   OH235829   4.366   4.163   8.611
 4757TIP3    H135830   4.373   4.079   8.566
 4757TIP3    H235831   4.452   4.205   8.598
 4758TIP3   OH235832   2.310   4.084   7.719
 4758TIP3    H135833   2.300   4.048   7.807
 4758TIP3    H235834   2.401   4.114   7.715
 4759TIP3   OH235835   0.286   0.595   0.182
 4759TIP3    H135836   0.294   0.560   0.271
 4759TIP3    H235837   0.362   0.560   0.136
 4760TIP3   OH235838   0.207   1.194   6.416
 4760TIP3    H135839   0.236   1.102   6.415
 4760TIP3    H235840   0.199   1.215   6.509
 4761TIP3   OH235841   5.882   5.934   7.925
 4761TIP3    H135842   5.915   6.009   7.875
 4761TIP3    H235843   5.960   5.879   7.939
 4762TIP3   OH235844   3.845   5.371   1.297
 4762TIP3    H135845   3.878   5.282   1.310
 4762TIP3    H235846   3.862   5.390   1.205
 4763TIP3   OH235847   1.604   3.628   7.895
 4763TIP3    H135848   1.641   3.711   7.923
 4763TIP3    H235849   1.558   3.594   7.972
 4764TIP3   OH235850   6.260   2.724   7.480
 4764TIP3    H135851   6.292   2.709   7.391
 4764TIP3    H235852   6.175   2.765   7.468
 4765TIP3   OH235853   4.610   4.985   7.959
 4765TIP3    H135854   4.639   4.988   8.051
 4765TIP3    H235855   4.609   4.892   7.937
 4766TIP3   OH235856   1.848   4.850   8.376
 4766TIP3    H135857   1.827   4.902   8.298
 4766TIP3    H235858   1.777   4.786   8.382
 4767TIP3   OH235859   2.243   3.964   7.290
 4767TIP3    H135860   2.287   3.997   7.211
 4767TIP3    H235861   2.293   3.885   7.313
 4768TIP3   OH235862   1.388   3.109   0.283
 4768TIP3    H135863   1.459   3.164   0.317
 4768TIP3    H235864   1.432   3.038   0.237
 4769TIP3   OH235865   0.236   4.378   8.064
 4769TIP3    H135866   0.217   4.449   8.126
 4769TIP3    H235867   0.224   4.418   7.978
 4770TIP3   OH235868   1.279   3.057   0.623
 4770TIP3    H135869   1.248   2.979   0.576
 4770TIP3    H235870   1.349   3.093   0.567
 4771TIP3   OH235871   6.855   4.031   6.324
 4771TIP3    H135872   0.050   4.080   6.362
 4771TIP3    H235873   6.788   4.032   6.392
 4772TIP3   OH235874   5.604   4.166   1.169
 4772TIP3    H135875   5.677   4.228   1.168
 4772TIP3    H235876   5.606   4.125   1.082
 4773TIP3   OH235877   2.225   2.953   6.463
 4773TIP3    H135878   2.179   2.907   6.533
 4773TIP3    H235879   2.258   3.033   6.504
 4774TIP3   OH235880   3.364   5.595   7.345
 4774TIP3    H135881   3.291   5.551   7.302
 4774TIP3    H235882   3.324   5.644   7.417
 4775TIP3   OH235883   2.712   2.629   1.008
 4775TIP3    H135884   2.689   2.696   0.944
 4775TIP3    H235885   2.667   2.657   1.088
 4776TIP3   OH235886   3.598   3.213   1.124
 4776TIP3    H135887   3.578   3.267   1.200
 4776TIP3    H235888   3.512   3.186   1.090
 4777TIP3   OH235889   6.626   0.758   8.098
 4777TIP3    H135890   6.655   0.784   8.186
 4777TIP3    H235891   6.692   0.696   8.069
 4778TIP3   OH235892   1.464   5.544   0.862
 4778TIP3    H135893   1.553   5.556   0.828
 4778TIP3    H235894   1.407   5.576   0.792
 4779TIP3   OH235895   5.794   6.808   8.308
 4779TIP3    H135896   5.821   6.832   8.220
 4779TIP3    H235897   5.784   0.014   8.354
 4780TIP3   OH235898   2.354   0.943   7.837
 4780TIP3    H135899   2.409   1.006   7.790
 4780TIP3    H235900   2.282   0.925   7.777
 4781TIP3   OH235901   4.402   4.253   8.046
 4781TIP3    H135902   4.480   4.307   8.031
 4781TIP3    H235903   4.345   4.272   7.972
 4782TIP3   OH235904   2.400   0.757   0.367
 4782TIP3    H135905   2.327   0.694   0.366
 4782TIP3    H235906   2.434   0.752   0.456
 4783TIP3   OH235907   0.905   3.834   1.488
 4783TIP3    H135908   0.982   3.889   1.469
 4783TIP3    H235909   0.892   3.783   1.408
 4784TIP3   OH235910   1.014   2.227   7.927
 4784TIP3    H135911   0.930   2.259   7.895
 4784TIP3    H235912   1.016   2.252   8.020
 4785TIP3   OH235913   2.493   2.976   8.438
 4785TIP3    H135914   2.490   3.070   8.450
 4785TIP3    H235915   2.419   2.942   8.488
 4786TIP3   OH235916   4.209   6.695   0.529
 4786TIP3    H135917   4.178   6.633   0.595
 4786TIP3    H235918   4.138   6.759   0.521
 4787TIP3   OH235919   1.387   6.562   1.641
 4787TIP3    H135920   1.407   6.564   1.735
 4787TIP3    H235921   1.322   6.493   1.632
 4788TIP3   OH235922   0.636   6.658   6.741
 4788TIP3    H135923   0.718   6.612   6.761
 4788TIP3    H235924   0.641   6.676   6.647
 4789TIP3   OH235925   2.545   1.640   1.969
 4789TIP3    H135926   2.609   1.569   1.962
 4789TIP3    H235927   2.576   1.707   1.908
 4790TIP3   OH235928   2.853   3.341   6.808
 4790TIP3    H135929   2.843   3.344   6.903
 4790TIP3    H235930   2.893   3.425   6.786
 4791TIP3   OH235931   5.550   4.730   6.333
 4791TIP3    H135932   5.490   4.697   6.401
 4791TIP3    H235933   5.499   4.726   6.252
 4792TIP3   OH235934   5.084   1.612   2.096
 4792TIP3    H135935   5.072   1.589   2.004
 4792TIP3    H235936   5.115   1.532   2.137
 4793TIP3   OH235937   0.639   0.783   0.037
 4793TIP3    H135938   0.596   0.797   0.121
 4793TIP3    H235939   0.613   0.858   8.634
 4794TIP3   OH235940   3.698   0.527   8.251
 4794TIP3    H135941   3.747   0.609   8.244
 4794TIP3    H235942   3.763   0.461   8.274
 4795TIP3   OH235943   4.581   1.306   0.412
 4795TIP3    H135944   4.562   1.247   0.485
 4795TIP3    H235945   4.644   1.258   0.358
 4796TIP3   OH235946   1.332   1.223   0.051
 4796TIP3    H135947   1.407   1.164   0.057
 4796TIP3    H235948   1.293   1.222   0.138
 4797TIP3   OH235949   4.936   3.071   0.134
 4797TIP3    H135950   4.861   3.125   0.161
 4797TIP3    H235951   4.907   2.981   0.153
 4798TIP3   OH235952   2.749   1.819   8.404
 4798TIP3    H135953   2.835   1.861   8.412
 4798TIP3    H235954   2.735   1.812   8.310
 4799TIP3   OH235955   1.694   5.781   1.435
 4799TIP3    H135956   1.654   5.868   1.442
 4799TIP3    H235957   1.693   5.747   1.525
 4800TIP3   OH235958   4.044   1.860   2.132
 4800TIP3    H135959   3.955   1.875   2.100
 4800TIP3    H235960   4.047   1.766   2.149
 4801TIP3   OH235961   5.525   4.707   8.008
 4801TIP3    H135962   5.441   4.701   8.054
 4801TIP3    H235963   5.524   4.793   7.967
 4802TIP3   OH235964   0.739   6.198   6.926
 4802TIP3    H135965   0.726   6.103   6.932
 4802TIP3    H235966   0.787   6.220   7.006
 4803TIP3   OH235967   1.489   1.349   7.044
 4803TIP3    H135968   1.472   1.342   6.950
 4803TIP3    H235969   1.578   1.314   7.055
 4804TIP3   OH235970   6.858   2.144   6.772
 4804TIP3    H135971   6.838   2.219   6.716
 4804TIP3    H235972   0.067   2.163   6.808
 4805TIP3   OH235973   2.271   1.455   8.162
 4805TIP3    H135974   2.212   1.455   8.087
 4805TIP3    H235975   2.310   1.542   8.163
 4806TIP3   OH235976   3.162   1.548   2.175
 4806TIP3    H135977   3.185   1.539   2.082
 4806TIP3    H235978   3.134   1.640   2.183
 4807TIP3   OH235979   0.202   6.051   0.224
 4807TIP3    H135980   0.261   6.019   0.156
 4807TIP3    H235981   0.189   6.143   0.204
 4808TIP3   OH235982   6.105   2.073   6.515
 4808TIP3    H135983   6.058   1.989   6.519
 4808TIP3    H235984   6.036   2.138   6.506
 4809TIP3   OH235985   0.650   5.048   7.361
 4809TIP3    H135986   0.585   5.036   7.292
 4809TIP3    H235987   0.724   4.993   7.334
 4810TIP3   OH235988   2.920   6.366   7.438
 4810TIP3    H135989   2.939   6.453   7.472
 4810TIP3    H235990   2.907   6.312   7.516
 4811TIP3   OH235991   5.966   5.233   7.626
 4811TIP3    H135992   6.033   5.170   7.597
 4811TIP3    H235993   5.961   5.220   7.721
 4812TIP3   OH235994   3.130   2.733   6.673
 4812TIP3    H135995   3.076   2.773   6.605
 4812TIP3    H235996   3.190   2.676   6.626
 4813TIP3   OH235997   2.371   5.175   8.637
 4813TIP3    H135998   2.308   5.207   8.572
 4813TIP3    H235999   2.316   5.136   0.054
 4814TIP3   OH236000   2.715   2.454   7.139
 4814TIP3    H136001   2.641   2.485   7.087
 4814TIP3    H236002   2.716   2.359   7.126
 4815TIP3   OH236003   5.186   1.974   1.132
 4815TIP3    H136004   5.168   1.929   1.214
 4815TIP3    H236005   5.270   1.938   1.103
 4816TIP3   OH236006   5.563   5.948   1.409
 4816TIP3    H136007   5.546   5.965   1.502
 4816TIP3    H236008   5.543   6.030   1.366
 4817TIP3   OH236009   2.512   3.222   0.151
 4817TIP3    H136010   2.597   3.265   0.155
 4817TIP3    H236011   2.450   3.285   0.187
 4818TIP3   OH236012   4.770   1.717   0.581
 4818TIP3    H136013   4.764   1.781   0.511
 4818TIP3    H236014   4.765   1.768   0.662
 4819TIP3   OH236015   4.137   6.242   8.041
 4819TIP3    H136016   4.230   6.234   8.064
 4819TIP3    H236017   4.124   6.177   7.971
 4820TIP3   OH236018   2.544   3.206   0.924
 4820TIP3    H136019   2.470   3.210   0.984
 4820TIP3    H236020   2.520   3.139   0.861
 4821TIP3   OH236021   3.210   4.625   1.383
 4821TIP3    H136022   3.186   4.595   1.295
 4821TIP3    H236023   3.177   4.715   1.387
 4822TIP3   OH236024   6.206   5.992   7.552
 4822TIP3    H136025   6.251   5.973   7.470
 4822TIP3    H236026   6.271   6.036   7.606
 4823TIP3   OH236027   4.475   1.626   7.489
 4823TIP3    H136028   4.414   1.694   7.517
 4823TIP3    H236029   4.561   1.665   7.501
 4824TIP3   OH236030   0.117   6.401   1.031
 4824TIP3    H136031   0.068   6.323   1.058
 4824TIP3    H236032   0.157   6.433   1.111
 4825TIP3   OH236033   1.904   2.667   0.923
 4825TIP3    H136034   1.877   2.685   1.013
 4825TIP3    H236035   1.827   2.629   0.882
 4826TIP3   OH236036   4.108   3.907   1.787
 4826TIP3    H136037   4.031   3.925   1.841
 4826TIP3    H236038   4.130   3.816   1.805
 4827TIP3   OH236039   6.426   4.265   1.531
 4827TIP3    H136040   6.346   4.259   1.479
 4827TIP3    H236041   6.397   4.306   1.613
 4828TIP3   OH236042   6.482   0.486   7.832
 4828TIP3    H136043   6.480   0.577   7.803
 4828TIP3    H236044   6.557   0.448   7.785
 4829TIP3   OH236045   1.084   1.441   7.092
 4829TIP3    H136046   1.128   1.464   7.010
 4829TIP3    H236047   1.007   1.391   7.065
 4830TIP3   OH236048   4.160   5.675   7.154
 4830TIP3    H136049   4.106   5.677   7.233
 4830TIP3    H236050   4.215   5.753   7.161
 4831TIP3   OH236051   0.253   2.457   0.503
 4831TIP3    H136052   0.212   2.540   0.479
 4831TIP3    H236053   0.207   2.429   0.582
 4832TIP3   OH236054   5.701   4.045   0.145
 4832TIP3    H136055   5.769   3.985   0.174
 4832TIP3    H236056   5.727   4.069   0.056
 4833TIP3   OH236057   6.071   4.536   0.751
 4833TIP3    H136058   6.099   4.445   0.749
 4833TIP3    H236059   6.144   4.583   0.793
 4834TIP3   OH236060   1.200   1.485   6.856
 4834TIP3    H136061   1.210   1.565   6.805
 4834TIP3    H236062   1.161   1.422   6.795
 4835TIP3   OH236063   6.805   5.209   8.378
 4835TIP3    H136064   6.722   5.192   8.423
 4835TIP3    H236065   6.829   5.297   8.407
 4836TIP3   OH236066   0.183   0.710   1.529
 4836TIP3    H136067   0.277   0.701   1.520
 4836TIP3    H236068   0.147   0.671   1.449
 4837TIP3   OH236069   0.506   4.910   0.521
 4837TIP3    H136070   0.563   4.835   0.538
 4837TIP3    H236071   0.542   4.981   0.575
 4838TIP3   OH236072   5.109   6.742   6.929
 4838TIP3    H136073   5.016   6.753   6.905
 4838TIP3    H236074   5.112   6.761   7.023
 4839TIP3   OH236075   5.181   4.519   8.201
 4839TIP3    H136076   5.244   4.449   8.183
 4839TIP3    H236077   5.230   4.583   8.251
 4840TIP3   OH236078   4.728   4.516   7.084
 4840TIP3    H136079   4.792   4.574   7.126
 4840TIP3    H236080   4.774   4.482   7.007
 4841TIP3   OH236081   6.194   4.593   6.985
 4841TIP3    H136082   6.253   4.607   6.911
 4841TIP3    H236083   6.106   4.599   6.946
 4842TIP3   OH236084   2.062   1.169   0.176
 4842TIP3    H136085   1.982   1.148   0.225
 4842TIP3    H236086   2.118   1.093   0.188
 4843TIP3   OH236087   1.921   0.857   7.608
 4843TIP3    H136088   1.866   0.865   7.530
 4843TIP3    H236089   1.858   0.849   7.680
 4844TIP3   OH236090   2.361   2.815   1.376
 4844TIP3    H136091   2.289   2.786   1.320
 4844TIP3    H236092   2.416   2.869   1.319
 4845TIP3   OH236093   3.748   6.613   7.979
 4845TIP3    H136094   3.752   6.708   7.985
 4845TIP3    H236095   3.793   6.591   7.897
 4846TIP3   OH236096   1.858   5.439   7.393
 4846TIP3    H136097   1.810   5.408   7.316
 4846TIP3    H236098   1.868   5.533   7.378
 4847TIP3   OH236099   5.323   4.012   6.947
 4847TIP3    H136100   5.349   4.093   6.990
 4847TIP3    H236101   5.358   4.020   6.858
 4848TIP3   OH236102   5.224   4.041   8.290
 4848TIP3    H136103   5.232   3.996   8.373
 4848TIP3    H236104   5.136   4.018   8.258
 4849TIP3   OH236105   0.776   5.332   8.395
 4849TIP3    H136106   0.823   5.299   8.319
 4849TIP3    H236107   0.715   5.397   8.360
 4850TIP3   OH236108   2.229   5.553   0.958
 4850TIP3    H136109   2.312   5.597   0.939
 4850TIP3    H236110   2.197   5.596   1.037
 4851TIP3   OH236111   3.713   2.598   0.074
 4851TIP3    H136112   3.798   2.559   0.093
 4851TIP3    H236113   3.697   2.580   8.632
 4852TIP3   OH236114   4.806   5.888   7.456
 4852TIP3    H136115   4.835   5.835   7.530
 4852TIP3    H236116   4.879   5.885   7.394
 4853TIP3   OH236117   3.956   2.893   6.670
 4853TIP3    H136118   3.930   2.802   6.684
 4853TIP3    H236119   3.877   2.936   6.637
 4854TIP3   OH236120   4.034   5.706   0.500
 4854TIP3    H136121   3.999   5.763   0.432
 4854TIP3    H236122   4.045   5.621   0.457
 4855TIP3   OH236123   5.861   2.000   2.522
 4855TIP3    H136124   5.856   2.092   2.497
 4855TIP3    H236125   5.792   1.989   2.588
 4856TIP3   OH236126   3.526   3.103   8.421
 4856TIP3    H136127   3.527   3.171   8.353
 4856TIP3    H236128   3.444   3.117   8.468
 4857TIP3   OH236129   0.146   4.994   1.498
 4857TIP3    H136130   0.141   5.065   1.434
 4857TIP3    H236131   0.061   4.950   1.492
 4858TIP3   OH236132   4.029   0.814   0.653
 4858TIP3    H136133   4.104   0.874   0.651
 4858TIP3    H236134   3.965   0.856   0.710
 4859TIP3   OH236135   6.692   6.276   7.662
 4859TIP3    H136136   6.728   6.192   7.691
 4859TIP3    H236137   6.762   6.339   7.678
 4860TIP3   OH236138   2.426   2.154   0.120
 4860TIP3    H136139   2.437   2.201   0.203
 4860TIP3    H236140   2.423   2.223   0.054
 4861TIP3   OH236141   6.786   3.443   7.236
 4861TIP3    H136142   6.767   3.513   7.298
 4861TIP3    H236143   6.796   3.365   7.290
 4862TIP3   OH236144   4.794   6.500   6.565
 4862TIP3    H136145   4.762   6.428   6.510
 4862TIP3    H236146   4.741   6.496   6.644
 4863TIP3   OH236147   5.658   4.462   8.019
 4863TIP3    H136148   5.630   4.549   7.989
 4863TIP3    H236149   5.637   4.461   8.113
 4864TIP3   OH236150   5.088   4.089   1.340
 4864TIP3    H136151   5.145   4.089   1.417
 4864TIP3    H236152   5.148   4.080   1.266
 4865TIP3   OH236153   5.730   4.661   7.191
 4865TIP3    H136154   5.730   4.752   7.161
 4865TIP3    H236155   5.716   4.609   7.112
 4866TIP3   OH236156   0.120   1.412   1.565
 4866TIP3    H136157   0.158   1.354   1.499
 4866TIP3    H236158   0.163   1.496   1.551
 4867TIP3   OH236159   0.998   4.737   8.212
 4867TIP3    H136160   0.934   4.669   8.190
 4867TIP3    H236161   1.077   4.711   8.164
 4868TIP3   OH236162   5.120   3.084   7.298
 4868TIP3    H136163   5.074   3.004   7.271
 4868TIP3    H236164   5.054   3.153   7.289
 4869TIP3   OH236165   1.258   2.184   0.067
 4869TIP3    H136166   1.305   2.257   0.026
 4869TIP3    H236167   1.286   2.107   0.018
 4870TIP3   OH236168   1.731   6.526   8.058
 4870TIP3    H136169   1.792   6.502   8.128
 4870TIP3    H236170   1.653   6.555   8.104
 4871TIP3   OH236171   4.203   2.349   0.168
 4871TIP3    H136172   4.238   2.424   0.217
 4871TIP3    H236173   4.233   2.363   0.079
 4872TIP3   OH236174   6.198   1.401   7.466
 4872TIP3    H136175   6.205   1.497   7.462
 4872TIP3    H236176   6.263   1.376   7.532
 4873TIP3   OH236177   0.094   3.335   8.390
 4873TIP3    H136178   0.124   3.252   8.426
 4873TIP3    H236179   0.001   3.338   8.408
 4874TIP3   OH236180   6.332   1.728   8.561
 4874TIP3    H136181   6.241   1.723   8.531
 4874TIP3    H236182   6.371   1.644   8.537
 4875TIP3   OH236183   6.567   2.015   0.742
 4875TIP3    H136184   6.564   1.924   0.772
 4875TIP3    H236185   6.637   2.017   0.677
 4876TIP3   OH236186   6.822   2.623   1.632
 4876TIP3    H136187   6.822   2.576   1.715
 4876TIP3    H236188   6.823   2.554   1.566
 4877TIP3   OH236189   0.965   3.669   8.452
 4877TIP3    H136190   1.020   3.747   8.439
 4877TIP3    H236191   1.017   3.613   8.509
 4878TIP3   OH236192   0.527   5.708   0.526
 4878TIP3    H136193   0.511   5.614   0.534
 4878TIP3    H236194   0.484   5.746   0.603
 4879TIP3   OH236195   3.510   3.850   0.836
 4879TIP3    H136196   3.597   3.869   0.802
 4879TIP3    H236197   3.521   3.845   0.931
 4880TIP3   OH236198   2.334   0.579   7.543
 4880TIP3    H136199   2.283   0.564   7.622
 4880TIP3    H236200   2.277   0.630   7.486
 4881TIP3   OH236201   6.597   2.277   2.376
 4881TIP3    H136202   6.516   2.300   2.420
 4881TIP3    H236203   6.611   2.185   2.399
 4882TIP3   OH236204   3.290   0.203   6.575
 4882TIP3    H136205   3.291   0.174   6.666
 4882TIP3    H236206   3.250   0.130   6.527
 4883TIP3   OH236207   4.644   6.353   2.332
 4883TIP3    H136208   4.663   6.351   2.238
 4883TIP3    H236209   4.718   6.401   2.370
 4884TIP3   OH236210   0.457   6.822   1.580
 4884TIP3    H136211   0.529   0.006   1.567
 4884TIP3    H236212   0.378   6.873   1.560
 4885TIP3   OH236213   4.238   1.329   1.403
 4885TIP3    H136214   4.189   1.319   1.485
 4885TIP3    H236215   4.195   1.402   1.358
 4886TIP3   OH236216   1.052   3.994   7.471
 4886TIP3    H136217   0.970   3.956   7.502
 4886TIP3    H236218   1.114   3.922   7.473
 4887TIP3   OH236219   6.684   6.806   1.407
 4887TIP3    H136220   6.642   6.779   1.325
 4887TIP3    H236221   6.635   6.761   1.475
 4888TIP3   OH236222   2.200   6.027   0.263
 4888TIP3    H136223   2.173   5.945   0.222
 4888TIP3    H236224   2.158   6.096   0.211
 4889TIP3   OH236225   2.277   4.849   0.447
 4889TIP3    H136226   2.335   4.910   0.493
 4889TIP3    H236227   2.200   4.901   0.425
 4890TIP3   OH236228   1.740   0.834   0.258
 4890TIP3    H136229   1.669   0.779   0.290
 4890TIP3    H236230   1.702   0.883   0.185
 4891TIP3   OH236231   4.911   4.813   6.379
 4891TIP3    H136232   5.001   4.845   6.390
 4891TIP3    H236233   4.882   4.852   6.297
 4892TIP3   OH236234   3.437   5.020   6.876
 4892TIP3    H136235   3.347   5.036   6.846
 4892TIP3    H236236   3.451   4.927   6.860
 4893TIP3   OH236237   1.456   5.821   6.732
 4893TIP3    H136238   1.414   5.741   6.762
 4893TIP3    H236239   1.483   5.803   6.642
 4894TIP3   OH236240   5.038   0.784   0.978
 4894TIP3    H136241   5.015   0.877   0.982
 4894TIP3    H236242   5.100   0.777   0.906
 4895TIP3   OH236243   3.803   0.447   0.556
 4895TIP3    H136244   3.892   0.478   0.544
 4895TIP3    H236245   3.794   0.375   0.493
 4896TIP3   OH236246   4.597   2.405   0.708
 4896TIP3    H136247   4.522   2.347   0.694
 4896TIP3    H236248   4.560   2.483   0.749
 4897TIP3   OH236249   3.298   2.403   7.342
 4897TIP3    H136250   3.336   2.330   7.294
 4897TIP3    H236251   3.204   2.382   7.347
 4898TIP3   OH236252   3.589   0.734   8.002
 4898TIP3    H136253   3.583   0.663   8.066
 4898TIP3    H236254   3.548   0.809   8.045
 4899TIP3   OH236255   5.107   0.124   7.911
 4899TIP3    H136256   5.148   0.078   7.984
 4899TIP3    H236257   5.084   0.055   7.849
 4900TIP3   OH236258   4.995   5.645   6.731
 4900TIP3    H136259   4.942   5.578   6.688
 4900TIP3    H236260   4.966   5.644   6.822
 4901TIP3   OH236261   2.336   2.794   6.184
 4901TIP3    H136262   2.351   2.712   6.231
 4901TIP3    H236263   2.253   2.827   6.218
 4902TIP3   OH236264   3.945   2.998   8.081
 4902TIP3    H136265   3.916   2.934   8.016
 4902TIP3    H236266   3.870   3.009   8.139
 4903TIP3   OH236267   2.884   1.549   7.445
 4903TIP3    H136268   2.853   1.632   7.409
 4903TIP3    H236269   2.972   1.539   7.408
 4904TIP3   OH236270   0.516   0.974   1.752
 4904TIP3    H136271   0.563   1.054   1.779
 4904TIP3    H236272   0.585   0.912   1.730
 4905TIP3   OH236273   3.791   1.360   8.517
 4905TIP3    H136274   3.784   1.371   8.422
 4905TIP3    H236275   3.701   1.345   8.546
 4906TIP3   OH236276   6.774   0.848   0.036
 4906TIP3    H136277   6.839   0.779   0.023
 4906TIP3    H236278   6.690   0.807   0.013
 4907TIP3   OH236279   1.807   6.668   1.898
 4907TIP3    H136280   1.902   6.677   1.904
 4907TIP3    H236281   1.790   6.576   1.918
 4908TIP3   OH236282   6.655   3.023   8.572
 4908TIP3    H136283   6.573   3.067   8.594
 4908TIP3    H236284   6.645   2.934   8.606
 4909TIP3   OH236285   3.130   6.196   7.009
 4909TIP3    H136286   3.126   6.101   7.025
 4909TIP3    H236287   3.185   6.204   6.930
 4910TIP3   OH236288   1.465   5.363   7.666
 4910TIP3    H136289   1.420   5.402   7.592
 4910TIP3    H236290   1.549   5.408   7.670
 4911TIP3   OH236291   0.895   4.926   6.972
 4911TIP3    H136292   0.859   4.847   6.931
 4911TIP3    H236293   0.960   4.958   6.909
 4912TIP3   OH236294   1.417   3.936   6.730
 4912TIP3    H136295   1.345   3.901   6.784
 4912TIP3    H236296   1.373   3.977   6.655
 4913TIP3   OH236297   4.977   5.058   7.607
 4913TIP3    H136298   4.936   5.026   7.687
 4913TIP3    H236299   5.056   5.004   7.597
 4914TIP3   OH236300   4.218   5.839   8.566
 4914TIP3    H136301   4.123   5.836   8.550
 4914TIP3    H236302   4.236   5.760   8.618
 4915TIP3   OH236303   6.694   4.426   6.698
 4915TIP3    H136304   6.664   4.378   6.776
 4915TIP3    H236305   6.687   4.518   6.723
 4916TIP3   OH236306   1.761   3.854   8.463
 4916TIP3    H136307   1.752   3.847   8.368
 4916TIP3    H236308   1.855   3.857   8.478
 4917TIP3   OH236309   0.267   2.760   7.144
 4917TIP3    H136310   0.346   2.793   7.102
 4917TIP3    H236311   0.232   2.696   7.083
 4918TIP3   OH236312   3.826   4.728   2.201
 4918TIP3    H136313   3.900   4.676   2.168
 4918TIP3    H236314   3.777   4.667   2.256
 4919TIP3   OH236315   2.948   3.386   1.314
 4919TIP3    H136316   2.901   3.360   1.393
 4919TIP3    H236317   2.997   3.308   1.288
 4920TIP3   OH236318   0.775   1.792   8.383
 4920TIP3    H136319   0.778   1.818   8.291
 4920TIP3    H236320   0.682   1.794   8.405
 4921TIP3   OH236321   5.198   4.057   0.292
 4921TIP3    H136322   5.257   4.132   0.293
 4921TIP3    H236323   5.251   3.984   0.323
 4922TIP3   OH236324   6.554   2.810   7.947
 4922TIP3    H136325   6.543   2.758   8.027
 4922TIP3    H236326   6.471   2.801   7.901
 4923TIP3   OH236327   6.877   1.853   7.289
 4923TIP3    H136328   0.059   1.893   7.227
 4923TIP3    H236329   6.790   1.865   7.250
 4924TIP3   OH236330   1.304   1.231   0.317
 4924TIP3    H136331   1.358   1.167   0.363
 4924TIP3    H236332   1.311   1.310   0.370
 4925TIP3   OH236333   5.647   4.299   1.978
 4925TIP3    H136334   5.711   4.229   1.987
 4925TIP3    H236335   5.588   4.287   2.053
 4926TIP3   OH236336   0.660   4.953   2.371
 4926TIP3    H136337   0.741   4.907   2.393
 4926TIP3    H236338   0.689   5.037   2.335
 4927TIP3   OH236339   2.756   0.228   6.337
 4927TIP3    H136340   2.682   0.178   6.303
 4927TIP3    H236341   2.817   0.234   6.264
 4928TIP3   OH236342   1.989   0.888   1.437
 4928TIP3    H136343   2.083   0.885   1.456
 4928TIP3    H236344   1.952   0.934   1.512
 4929TIP3   OH236345   0.584   2.543   0.196
 4929TIP3    H136346   0.574   2.613   0.131
 4929TIP3    H236347   0.627   2.586   0.270
 4930TIP3   OH236348   4.788   1.058   8.480
 4930TIP3    H136349   4.702   1.093   8.455
 4930TIP3    H236350   4.779   0.963   8.468
 4931TIP3   OH236351   5.065   5.866   1.229
 4931TIP3    H136352   5.057   5.876   1.135
 4931TIP3    H236353   4.997   5.923   1.265
 4932TIP3   OH236354   4.560   3.231   7.087
 4932TIP3    H136355   4.590   3.312   7.128
 4932TIP3    H236356   4.592   3.237   6.997
 4933TIP3   OH236357   3.301   6.458   0.153
 4933TIP3    H136358   3.279   6.373   0.115
 4933TIP3    H236359   3.383   6.443   0.199
 4934TIP3   OH236360   4.177   0.948   8.388
 4934TIP3    H136361   4.086   0.958   8.415
 4934TIP3    H236362   4.202   1.034   8.354
 4935TIP3   OH236363   5.405   5.344   0.541
 4935TIP3    H136364   5.470   5.306   0.482
 4935TIP3    H236365   5.433   5.435   0.552
 4936TIP3   OH236366   5.976   3.790   8.332
 4936TIP3    H136367   6.070   3.786   8.345
 4936TIP3    H236368   5.939   3.733   8.399
 4937TIP3   OH236369   4.937   5.957   7.920
 4937TIP3    H136370   4.994   6.031   7.940
 4937TIP3    H236371   4.992   5.897   7.869
 4938TIP3   OH236372   4.045   0.559   0.501
 4938TIP3    H136373   4.135   0.529   0.489
 4938TIP3    H236374   4.051   0.626   0.569
 4939TIP3   OH236375   5.011   5.402   8.092
 4939TIP3    H136376   5.030   5.389   8.185
 4939TIP3    H236377   5.001   5.497   8.083
 4940TIP3   OH236378   3.929   4.851   1.378
 4940TIP3    H136379   3.835   4.863   1.366
 4940TIP3    H236380   3.945   4.878   1.469
 4941TIP3   OH236381   3.613   3.391   0.006
 4941TIP3    H136382   3.612   3.296   0.022
 4941TIP3    H236383   3.684   3.423   0.062
 4942TIP3   OH236384   5.263   1.849   1.949
 4942TIP3    H136385   5.284   1.790   2.021
 4942TIP3    H236386   5.172   1.875   1.966
 4943TIP3   OH236387   3.774   4.302   7.685
 4943TIP3    H136388   3.711   4.370   7.659
 4943TIP3    H236389   3.733   4.220   7.658
 4944TIP3   OH236390   4.556   1.892   0.395
 4944TIP3    H136391   4.569   1.806   0.355
 4944TIP3    H236392   4.644   1.930   0.400
 4945TIP3   OH236393   5.055   4.549   1.482
 4945TIP3    H136394   5.056   4.572   1.575
 4945TIP3    H236395   5.054   4.634   1.436
 4946TIP3   OH236396   0.262   6.061   6.929
 4946TIP3    H136397   0.214   6.144   6.920
 4946TIP3    H236398   0.310   6.069   7.011
 4947TIP3   OH236399   3.568   4.266   0.257
 4947TIP3    H136400   3.614   4.278   0.174
 4947TIP3    H236401   3.635   4.236   0.318
 4948TIP3   OH236402   1.009   5.934   7.452
 4948TIP3    H136403   1.021   5.839   7.451
 4948TIP3    H236404   0.925   5.947   7.495
 4949TIP3   OH236405   4.917   0.028   1.146
 4949TIP3    H136406   4.892   0.064   1.231
 4949TIP3    H236407   4.922   0.104   1.088
 4950TIP3   OH236408   3.079   6.514   6.753
 4950TIP3    H136409   3.023   6.475   6.820
 4950TIP3    H236410   3.146   6.561   6.803
 4951TIP3   OH236411   4.548   5.157   2.121
 4951TIP3    H136412   4.528   5.250   2.134
 4951TIP3    H236413   4.592   5.130   2.202
 4952TIP3   OH236414   5.040   6.258   1.326
 4952TIP3    H136415   5.077   6.295   1.246
 4952TIP3    H236416   5.083   6.305   1.397
 4953TIP3   OH236417   3.051   0.613   7.147
 4953TIP3    H136418   3.045   0.703   7.180
 4953TIP3    H236419   3.047   0.622   7.052
 4954TIP3   OH236420   5.802   5.640   6.189
 4954TIP3    H136421   5.742   5.681   6.125
 4954TIP3    H236422   5.863   5.710   6.212
 4955TIP3   OH236423   6.229   1.082   1.997
 4955TIP3    H136424   6.220   1.170   2.034
 4955TIP3    H236425   6.165   1.029   2.045
 4956TIP3   OH236426   0.405   0.910   0.938
 4956TIP3    H136427   0.318   0.876   0.956
 4956TIP3    H236428   0.453   0.900   1.021
 4957TIP3   OH236429   4.002   3.948   0.769
 4957TIP3    H136430   3.979   4.010   0.699
 4957TIP3    H236431   3.919   3.912   0.798
 4958TIP3   OH236432   5.757   1.949   8.352
 4958TIP3    H136433   5.723   1.927   8.438
 4958TIP3    H236434   5.768   1.865   8.307
 4959TIP3   OH236435   4.239   5.182   7.017
 4959TIP3    H136436   4.319   5.159   7.064
 4959TIP3    H236437   4.207   5.260   7.063
 4960TIP3   OH236438   5.190   5.468   1.687
 4960TIP3    H136439   5.144   5.387   1.711
 4960TIP3    H236440   5.236   5.446   1.606
 4961TIP3   OH236441   4.934   2.889   7.220
 4961TIP3    H136442   4.850   2.919   7.183
 4961TIP3    H236443   4.910   2.819   7.281
 4962TIP3   OH236444   3.710   0.796   1.373
 4962TIP3    H136445   3.682   0.855   1.303
 4962TIP3    H236446   3.782   0.843   1.416
 4963TIP3   OH236447   2.946   1.984   1.420
 4963TIP3    H136448   3.007   2.008   1.350
 4963TIP3    H236449   2.900   2.066   1.440
 4964TIP3   OH236450   0.751   3.526   1.601
 4964TIP3    H136451   0.689   3.502   1.670
 4964TIP3    H236452   0.705   3.510   1.519
 4965TIP3   OH236453   4.168   1.876   8.415
 4965TIP3    H136454   4.104   1.806   8.403
 4965TIP3    H236455   4.125   1.940   8.471
 4966TIP3   OH236456   4.554   6.855   2.839
 4966TIP3    H136457   4.490   6.818   2.778
 4966TIP3    H236458   4.504   0.038   2.893
 4967TIP3   OH236459   6.434   5.721   1.909
 4967TIP3    H136460   6.447   5.765   1.994
 4967TIP3    H236461   6.339   5.713   1.901
 4968TIP3   OH236462   6.088   5.011   1.127
 4968TIP3    H136463   6.131   4.950   1.186
 4968TIP3    H236464   5.995   5.004   1.148
 4969TIP3   OH236465   6.848   6.422   7.873
 4969TIP3    H136466   0.016   6.472   7.940
 4969TIP3    H236467   6.756   6.427   7.897
 4970TIP3   OH236468   1.193   4.142   8.257
 4970TIP3    H136469   1.257   4.210   8.276
 4970TIP3    H236470   1.201   4.127   8.163
 4971TIP3   OH236471   1.781   4.679   0.324
 4971TIP3    H136472   1.848   4.714   0.265
 4971TIP3    H236473   1.727   4.624   0.268
 4972TIP3   OH236474   3.940   4.454   0.267
 4972TIP3    H136475   3.910   4.440   0.357
 4972TIP3    H236476   4.000   4.528   0.272
 4973TIP3   OH236477   1.549   5.618   1.274
 4973TIP3    H136478   1.535   5.685   1.207
 4973TIP3    H236479   1.617   5.655   1.330
 4974TIP3   OH236480   1.725   5.654   0.928
 4974TIP3    H136481   1.646   5.677   0.977
 4974TIP3    H236482   1.791   5.637   0.995
 4975TIP3   OH236483   5.915   4.343   2.029
 4975TIP3    H136484   5.842   4.402   2.010
 4975TIP3    H236485   5.878   4.255   2.025
 4976TIP3   OH236486   1.004   2.134   0.626
 4976TIP3    H136487   0.996   2.099   0.714
 4976TIP3    H236488   1.046   2.220   0.638
 4977TIP3   OH236489   6.273   4.961   7.299
 4977TIP3    H136490   6.223   4.883   7.276
 4977TIP3    H236491   6.279   5.010   7.217
 4978TIP3   OH236492   4.648   0.991   7.678
 4978TIP3    H136493   4.657   0.966   7.586
 4978TIP3    H236494   4.573   0.940   7.709
 4979TIP3   OH236495   0.349   3.871   8.123
 4979TIP3    H136496   0.263   3.891   8.084
 4979TIP3    H236497   0.328   3.840   8.211
 4980TIP3   OH236498   1.977   6.216   1.347
 4980TIP3    H136499   2.026   6.237   1.426
 4980TIP3    H236500   1.937   6.300   1.321
 4981TIP3   OH236501   6.115   6.257   7.514
 4981TIP3    H136502   6.046   6.256   7.447
 4981TIP3    H236503   6.159   6.173   7.504
 4982TIP3   OH236504   5.692   5.763   0.138
 4982TIP3    H136505   5.761   5.766   0.204
 4982TIP3    H236506   5.610   5.761   0.188
 4983TIP3   OH236507   5.765   2.068   1.961
 4983TIP3    H136508   5.711   2.002   1.917
 4983TIP3    H236509   5.854   2.052   1.928
 4984TIP3   OH236510   4.992   0.896   7.787
 4984TIP3    H136511   4.960   0.969   7.840
 4984TIP3    H236512   5.070   0.866   7.832
 4985TIP3   OH236513   0.685   2.058   0.617
 4985TIP3    H136514   0.743   2.133   0.634
 4985TIP3    H236515   0.710   1.993   0.683
 4986TIP3   OH236516   2.821   4.874   0.529
 4986TIP3    H136517   2.896   4.823   0.497
 4986TIP3    H236518   2.763   4.882   0.453
 4987TIP3   OH236519   6.457   1.729   0.588
 4987TIP3    H136520   6.512   1.719   0.666
 4987TIP3    H236521   6.508   1.689   0.517
 4988TIP3   OH236522   3.874   0.637   8.543
 4988TIP3    H136523   3.805   0.639   8.476
 4988TIP3    H236524   3.955   0.647   8.495
 4989TIP3   OH236525   2.200   1.736   7.149
 4989TIP3    H136526   2.248   1.654   7.137
 4989TIP3    H236527   2.196   1.748   7.244
 4990TIP3   OH236528   5.179   6.625   1.378
 4990TIP3    H136529   5.194   6.546   1.431
 4990TIP3    H236530   5.133   6.685   1.437
 4991TIP3   OH236531   3.476   4.026   1.459
 4991TIP3    H136532   3.458   3.932   1.467
 4991TIP3    H236533   3.420   4.067   1.526
 4992TIP3   OH236534   6.053   2.874   7.201
 4992TIP3    H136535   6.066   2.826   7.119
 4992TIP3    H236536   6.141   2.905   7.224
 4993TIP3   OH236537   6.630   1.262   0.611
 4993TIP3    H136538   6.595   1.191   0.664
 4993TIP3    H236539   6.552   1.303   0.573
 4994TIP3   OH236540   4.842   0.568   2.379
 4994TIP3    H136541   4.905   0.499   2.358
 4994TIP3    H236542   4.856   0.634   2.312
 4995TIP3   OH236543   0.630   2.843   8.285
 4995TIP3    H136544   0.571   2.871   8.216
 4995TIP3    H236545   0.703   2.905   8.281
 4996TIP3   OH236546   2.167   0.965   7.628
 4996TIP3    H136547   2.079   0.934   7.606
 4996TIP3    H236548   2.217   0.955   7.547
 4997TIP3   OH236549   2.819   6.199   1.763
 4997TIP3    H136550   2.844   6.178   1.853
 4997TIP3    H236551   2.751   6.266   1.771
 4998TIP3   OH236552   0.467   5.451   0.566
 4998TIP3    H136553   0.479   5.429   0.474
 4998TIP3    H236554   0.393   5.397   0.595
 4999TIP3   OH236555   1.583   5.365   6.322
 4999TIP3    H136556   1.654   5.423   6.293
 4999TIP3    H236557   1.610   5.278   6.294
 5000TIP3   OH236558   2.050   5.152   7.205
 5000TIP3    H136559   2.094   5.070   7.183
 5000TIP3    H236560   2.094   5.182   7.285
 5001TIP3   OH236561   5.582   3.459   1.071
 5001TIP3    H136562   5.530   3.504   1.004
 5001TIP3    H236563   5.673   3.472   1.043
 5002TIP3   OH236564   2.376   2.923   8.177
 5002TIP3    H136565   2.411   2.927   8.266
 5002TIP3    H236566   2.368   3.014   8.150
 5003TIP3   OH236567   4.809   5.286   6.876
 5003TIP3    H136568   4.718   5.265   6.896
 5003TIP3    H236569   4.814   5.280   6.781
 5004TIP3   OH236570   5.219   2.138   1.798
 5004TIP3    H136571   5.128   2.158   1.823
 5004TIP3    H236572   5.225   2.043   1.803
 5005TIP3   OH236573   6.456   2.790   1.119
 5005TIP3    H136574   6.543   2.757   1.140
 5005TIP3    H236575   6.402   2.763   1.193
 5006TIP3   OH236576   3.936   1.799   0.821
 5006TIP3    H136577   3.989   1.742   0.765
 5006TIP3    H236578   3.855   1.812   0.772
 5007TIP3   OH236579   0.481   6.423   7.145
 5007TIP3    H136580   0.461   6.438   7.053
 5007TIP3    H236581   0.574   6.400   7.147
 5008TIP3   OH236582   2.640   4.205   1.328
 5008TIP3    H136583   2.656   4.289   1.284
 5008TIP3    H236584   2.552   4.180   1.301
 5009TIP3   OH236585   6.613   4.062   1.437
 5009TIP3    H136586   6.567   4.134   1.480
 5009TIP3    H236587   6.603   4.080   1.343
 5010TIP3   OH236588   4.120   3.853   0.019
 5010TIP3    H136589   4.054   3.810   8.615
 5010TIP3    H236590   4.180   3.893   8.607
 5011TIP3   OH236591   4.624   3.982   0.488
 5011TIP3    H136592   4.623   4.047   0.559
 5011TIP3    H236593   4.547   4.004   0.435
 5012TIP3   OH236594   1.705   6.443   6.181
 5012TIP3    H136595   1.737   6.498   6.253
 5012TIP3    H236596   1.705   6.502   6.105
 5013TIP3   OH236597   1.354   4.165   0.714
 5013TIP3    H136598   1.419   4.191   0.780
 5013TIP3    H236599   1.324   4.079   0.743
 5014TIP3   OH236600   5.245   0.322   6.599
 5014TIP3    H136601   5.179   0.253   6.595
 5014TIP3    H236602   5.326   0.280   6.571
 5015TIP3   OH236603   1.626   4.774   6.985
 5015TIP3    H136604   1.546   4.824   6.998
 5015TIP3    H236605   1.622   4.705   7.050
 5016TIP3   OH236606   3.500   6.589   7.758
 5016TIP3    H136607   3.536   6.542   7.683
 5016TIP3    H236608   3.574   6.600   7.817
 5017TIP3   OH236609   3.563   5.780   0.262
 5017TIP3    H136610   3.630   5.767   0.195
 5017TIP3    H236611   3.570   5.703   0.319
 5018TIP3   OH236612   1.186   0.489   0.442
 5018TIP3    H136613   1.158   0.518   0.355
 5018TIP3    H236614   1.226   0.404   0.427
 5019TIP3   OH236615   2.648   1.644   0.689
 5019TIP3    H136616   2.605   1.688   0.616
 5019TIP3    H236617   2.577   1.628   0.752
 5020TIP3   OH236618   2.259   5.524   0.126
 5020TIP3    H136619   2.201   5.496   0.055
 5020TIP3    H236620   2.279   5.444   0.175
 5021TIP3   OH236621   1.115   3.307   8.419
 5021TIP3    H136622   1.035   3.308   8.367
 5021TIP3    H236623   1.094   3.358   8.498
 5022TIP3   OH236624   6.489   0.092   7.651
 5022TIP3    H136625   6.451   0.004   7.660
 5022TIP3    H236626   6.451   0.126   7.570
 5023TIP3   OH236627   3.882   5.272   7.279
 5023TIP3    H136628   3.824   5.212   7.232
 5023TIP3    H236629   3.949   5.216   7.318
 5024TIP3   OH236630   4.298   5.628   0.081
 5024TIP3    H136631   4.297   5.533   0.097
 5024TIP3    H236632   4.320   5.666   0.166
 5025TIP3   OH236633   5.997   2.158   7.702
 5025TIP3    H136634   6.056   2.142   7.628
 5025TIP3    H236635   6.027   2.241   7.739
 5026TIP3   OH236636   4.783   0.010   7.541
 5026TIP3    H136637   4.868   6.853   7.514
 5026TIP3    H236638   4.723   6.813   7.534
 5027TIP3   OH236639   3.879   3.341   1.080
 5027TIP3    H136640   3.828   3.414   1.116
 5027TIP3    H236641   3.946   3.383   1.027
 5028TIP3   OH236642   0.590   1.483   7.668
 5028TIP3    H136643   0.680   1.461   7.691
 5028TIP3    H236644   0.562   1.542   7.738
 5029TIP3   OH236645   4.721   1.054   0.293
 5029TIP3    H136646   4.814   1.059   0.270
 5029TIP3    H236647   4.717   0.992   0.366
 5030TIP3   OH236648   5.965   6.673   8.049
 5030TIP3    H136649   5.915   6.754   8.054
 5030TIP3    H236650   6.021   6.683   7.972
 5031TIP3   OH236651   1.237   4.280   8.575
 5031TIP3    H136652   1.241   4.275   0.019
 5031TIP3    H236653   1.287   4.204   8.545
 5032TIP3   OH236654   5.486   2.232   0.398
 5032TIP3    H136655   5.487   2.208   0.305
 5032TIP3    H236656   5.520   2.155   0.443
 5033TIP3   OH236657   1.166   0.654   0.723
 5033TIP3    H136658   1.218   0.619   0.650
 5033TIP3    H236659   1.220   0.639   0.800
 5034TIP3   OH236660   4.442   4.481   1.284
 5034TIP3    H136661   4.418   4.393   1.256
 5034TIP3    H236662   4.536   4.488   1.266
 5035TIP3   OH236663   0.310   0.259   0.139
 5035TIP3    H136664   0.346   0.309   0.212
 5035TIP3    H236665   0.230   0.305   0.115
 5036TIP3   OH236666   5.392   1.218   0.230
 5036TIP3    H136667   5.476   1.245   0.267
 5036TIP3    H236668   5.380   1.276   0.155
 5037TIP3   OH236669   3.283   3.519   7.906
 5037TIP3    H136670   3.318   3.607   7.896
 5037TIP3    H236671   3.295   3.478   7.820
 5038TIP3   OH236672   0.445   5.508   1.596
 5038TIP3    H136673   0.445   5.513   1.500
 5038TIP3    H236674   0.353   5.495   1.619
 5039TIP3   OH236675   0.702   4.249   7.525
 5039TIP3    H136676   0.744   4.203   7.598
 5039TIP3    H236677   0.775   4.275   7.468
 5040TIP3   OH236678   4.495   4.489   6.905
 5040TIP3    H136679   4.540   4.527   6.979
 5040TIP3    H236680   4.564   4.456   6.848
 5041TIP3   OH236681   4.753   6.828   0.568
 5041TIP3    H136682   4.838   6.868   0.549
 5041TIP3    H236683   4.716   6.808   0.482
 5042TIP3   OH236684   2.469   3.613   8.185
 5042TIP3    H136685   2.508   3.551   8.123
 5042TIP3    H236686   2.454   3.561   8.264
 5043TIP3   OH236687   6.335   4.860   1.653
 5043TIP3    H136688   6.331   4.853   1.748
 5043TIP3    H236689   6.366   4.774   1.624
 5044TIP3   OH236690   5.546   6.376   8.494
 5044TIP3    H136691   5.563   6.460   8.452
 5044TIP3    H236692   5.631   6.349   8.529
 5045TIP3   OH236693   4.940   3.295   7.248
 5045TIP3    H136694   4.976   3.365   7.304
 5045TIP3    H236695   4.879   3.341   7.189
 5046TIP3   OH236696   0.824   2.900   0.100
 5046TIP3    H136697   0.753   2.883   0.038
 5046TIP3    H236698   0.829   2.996   0.105
 5047TIP3   OH236699   4.498   6.638   0.582
 5047TIP3    H136700   4.494   6.590   0.665
 5047TIP3    H236701   4.410   6.628   0.545
 5048TIP3   OH236702   6.397   0.773   6.984
 5048TIP3    H136703   6.405   0.682   6.954
 5048TIP3    H236704   6.313   0.802   6.948
 5049TIP3   OH236705   1.617   6.824   1.056
 5049TIP3    H136706   1.624   6.729   1.067
 5049TIP3    H236707   1.523   6.841   1.046
 5050TIP3   OH236708   4.830   0.599   8.222
 5050TIP3    H136709   4.890   0.593   8.297
 5050TIP3    H236710   4.834   0.512   8.182
 5051TIP3   OH236711   4.372   0.963   7.340
 5051TIP3    H136712   4.378   0.869   7.321
 5051TIP3    H236713   4.463   0.992   7.347
 5052TIP3   OH236714   2.283   3.649   6.775
 5052TIP3    H136715   2.205   3.685   6.817
 5052TIP3    H236716   2.298   3.704   6.699
 5053TIP3   OH236717   6.470   0.071   2.101
 5053TIP3    H136718   6.542   0.111   2.148
 5053TIP3    H236719   6.421   0.023   2.167
 5054TIP3   OH236720   6.346   6.079   2.681
 5054TIP3    H136721   6.391   6.046   2.759
 5054TIP3    H236722   6.253   6.073   2.703
 5055TIP3   OH236723   0.455   2.310   0.119
 5055TIP3    H136724   0.495   2.386   0.160
 5055TIP3    H236725   0.510   2.292   0.043
 5056TIP3   OH236726   3.560   2.319   1.483
 5056TIP3    H136727   3.483   2.265   1.504
 5056TIP3    H236728   3.627   2.257   1.457
 5057TIP3   OH236729   5.167   0.590   2.660
 5057TIP3    H136730   5.219   0.657   2.704
 5057TIP3    H236731   5.171   0.613   2.568
 5058TIP3   OH236732   4.400   6.704   2.682
 5058TIP3    H136733   4.356   6.638   2.735
 5058TIP3    H236734   4.436   6.656   2.607
 5059TIP3   OH236735   2.490   3.577   0.545
 5059TIP3    H136736   2.564   3.630   0.514
 5059TIP3    H236737   2.458   3.624   0.622
 5060TIP3   OH236738   4.834   6.576   8.156
 5060TIP3    H136739   4.864   6.614   8.238
 5060TIP3    H236740   4.781   6.645   8.115
 5061TIP3   OH236741   6.774   3.331   1.049
 5061TIP3    H136742   6.816   3.247   1.070
 5061TIP3    H236743   6.832   3.372   0.985
 5062TIP3   OH236744   0.067   0.891   7.905
 5062TIP3    H136745   0.131   0.851   7.846
 5062TIP3    H236746   6.862   0.848   7.883
 5063TIP3   OH236747   4.453   3.655   1.903
 5063TIP3    H136748   4.411   3.586   1.955
 5063TIP3    H236749   4.384   3.687   1.845
 5064TIP3   OH236750   1.395   2.369   8.315
 5064TIP3    H136751   1.410   2.402   8.227
 5064TIP3    H236752   1.309   2.404   8.339
 5065TIP3   OH236753   6.411   6.455   1.321
 5065TIP3    H136754   6.419   6.530   1.262
 5065TIP3    H236755   6.368   6.490   1.399
 5066TIP3   OH236756   2.182   5.027   2.423
 5066TIP3    H136757   2.262   5.048   2.470
 5066TIP3    H236758   2.119   5.093   2.451
 5067TIP3   OH236759   5.398   4.105   0.897
 5067TIP3    H136760   5.392   4.174   0.963
 5067TIP3    H236761   5.408   4.152   0.814
 5068TIP3   OH236762   0.602   2.280   8.151
 5068TIP3    H136763   0.590   2.254   8.242
 5068TIP3    H236764   0.593   2.375   8.151
 5069TIP3   OH236765   6.626   2.470   6.659
 5069TIP3    H136766   6.652   2.559   6.682
 5069TIP3    H236767   6.621   2.470   6.564
 5070TIP3   OH236768   0.132   1.912   7.504
 5070TIP3    H136769   0.093   1.869   7.429
 5070TIP3    H236770   0.058   1.950   7.552
 5071TIP3   OH236771   3.436   4.362   7.671
 5071TIP3    H136772   3.463   4.271   7.683
 5071TIP3    H236773   3.365   4.375   7.734
 5072TIP3   OH236774   3.977   5.967   6.930
 5072TIP3    H136775   4.023   6.050   6.919
 5072TIP3    H236776   4.041   5.900   6.907
 5073TIP3   OH236777   6.055   6.359   0.434
 5073TIP3    H136778   5.976   6.343   0.384
 5073TIP3    H236779   6.072   6.277   0.480
 5074TIP3   OH236780   3.572   3.132   0.063
 5074TIP3    H136781   3.532   3.100   8.633
 5074TIP3    H236782   3.611   3.054   0.104
 5075TIP3   OH236783   6.253   3.614   0.464
 5075TIP3    H136784   6.175   3.669   0.470
 5075TIP3    H236785   6.256   3.567   0.547
 5076TIP3   OH236786   4.441   2.666   0.368
 5076TIP3    H136787   4.487   2.739   0.326
 5076TIP3    H236788   4.509   2.617   0.413
 5077TIP3   OH236789   1.646   0.772   7.172
 5077TIP3    H136790   1.693   0.689   7.171
 5077TIP3    H236791   1.561   0.753   7.133
 5078TIP3   OH236792   6.212   5.458   8.096
 5078TIP3    H136793   6.191   5.364   8.092
 5078TIP3    H236794   6.127   5.500   8.112
 5079TIP3   OH236795   0.690   2.795   6.765
 5079TIP3    H136796   0.786   2.804   6.768
 5079TIP3    H236797   0.675   2.701   6.754
 5080TIP3   OH236798   4.134   2.394   8.537
 5080TIP3    H136799   4.059   2.441   8.573
 5080TIP3    H236800   4.193   2.463   8.507
 5081TIP3   OH236801   2.265   0.587   1.274
 5081TIP3    H136802   2.283   0.664   1.220
 5081TIP3    H236803   2.293   0.611   1.362
 5082TIP3   OH236804   5.808   0.263   7.280
 5082TIP3    H136805   5.716   0.267   7.253
 5082TIP3    H236806   5.805   0.225   7.368
 5083TIP3   OH236807   1.297   4.349   2.452
 5083TIP3    H136808   1.325   4.382   2.366
 5083TIP3    H236809   1.223   4.404   2.476
 5084TIP3   OH236810   4.346   0.225   7.983
 5084TIP3    H136811   4.427   0.221   7.932
 5084TIP3    H236812   4.344   0.142   8.031
 5085TIP3   OH236813   6.623   3.656   0.730
 5085TIP3    H136814   6.659   3.601   0.661
 5085TIP3    H236815   6.563   3.599   0.778
 5086TIP3   OH236816   1.729   1.772   0.997
 5086TIP3    H136817   1.804   1.724   0.960
 5086TIP3    H236818   1.714   1.729   1.082
 5087TIP3   OH236819   4.600   5.572   1.673
 5087TIP3    H136820   4.545   5.519   1.730
 5087TIP3    H236821   4.690   5.547   1.697
 5088TIP3   OH236822   0.328   1.207   0.365
 5088TIP3    H136823   0.320   1.207   0.270
 5088TIP3    H236824   0.290   1.123   0.393
 5089TIP3   OH236825   2.494   5.560   8.027
 5089TIP3    H136826   2.550   5.492   8.064
 5089TIP3    H236827   2.513   5.559   7.934
 5090TIP3   OH236828   4.558   2.410   7.264
 5090TIP3    H136829   4.564   2.344   7.195
 5090TIP3    H236830   4.627   2.386   7.326
 5091TIP3   OH236831   1.859   0.024   2.114
 5091TIP3    H136832   1.767   0.008   2.094
 5091TIP3    H236833   1.879   6.843   2.188
 5092TIP3   OH236834   1.258   6.655   8.401
 5092TIP3    H136835   1.319   6.716   8.361
 5092TIP3    H236836   1.223   6.701   8.477
 5093TIP3   OH236837   1.411   5.466   8.225
 5093TIP3    H136838   1.419   5.554   8.188
 5093TIP3    H236839   1.318   5.456   8.245
 5094TIP3   OH236840   5.716   5.988   2.464
 5094TIP3    H136841   5.644   6.012   2.406
 5094TIP3    H236842   5.711   5.893   2.470
 5095TIP3   OH236843   4.782   5.074   0.069
 5095TIP3    H136844   4.798   5.162   0.101
 5095TIP3    H236845   4.811   5.017   0.140
 5096TIP3   OH236846   3.451   0.788   6.218
 5096TIP3    H136847   3.407   0.709   6.247
 5096TIP3    H236848   3.542   0.775   6.242
 5097TIP3   OH236849   4.231   0.605   7.124
 5097TIP3    H136850   4.282   0.558   7.190
 5097TIP3    H236851   4.279   0.591   7.043
 5098TIP3   OH236852   3.216   4.258   6.811
 5098TIP3    H136853   3.145   4.195   6.825
 5098TIP3    H236854   3.237   4.251   6.718
 5099TIP3   OH236855   2.335   6.318   7.887
 5099TIP3    H136856   2.385   6.391   7.924
 5099TIP3    H236857   2.297   6.274   7.963
 5100TIP3   OH236858   5.785   0.023   2.673
 5100TIP3    H136859   5.803   0.003   2.765
 5100TIP3    H236860   5.817   0.113   2.661
 5101TIP3   OH236861   1.890   2.928   6.313
 5101TIP3    H136862   1.810   2.877   6.302
 5101TIP3    H236863   1.955   2.866   6.346
 5102TIP3   OH236864   0.442   0.122   7.163
 5102TIP3    H136865   0.351   0.118   7.133
 5102TIP3    H236866   0.437   0.152   7.253
 5103TIP3   OH236867   4.114   4.342   6.017
 5103TIP3    H136868   4.144   4.263   6.061
 5103TIP3    H236869   4.195   4.386   5.989
 5104TIP3   OH236870   0.143   4.490   1.541
 5104TIP3    H136871   0.182   4.426   1.481
 5104TIP3    H236872   0.202   4.491   1.616
 5105TIP3   OH236873   2.218   6.098   6.044
 5105TIP3    H136874   2.210   6.191   6.065
 5105TIP3    H236875   2.305   6.073   6.077
 5106TIP3   OH236876   4.973   6.240   0.359
 5106TIP3    H136877   4.881   6.265   0.360
 5106TIP3    H236878   4.972   6.145   0.352
 5107TIP3   OH236879   0.528   4.280   7.966
 5107TIP3    H136880   0.545   4.328   7.885
 5107TIP3    H236881   0.437   4.303   7.989
 5108TIP3   OH236882   0.385   1.869   0.671
 5108TIP3    H136883   0.355   1.956   0.697
 5108TIP3    H236884   0.471   1.883   0.632
 5109TIP3   OH236885   3.089   6.003   0.915
 5109TIP3    H136886   3.117   6.030   0.828
 5109TIP3    H236887   3.149   5.933   0.939
 5110TIP3   OH236888   1.382   0.971   2.122
 5110TIP3    H136889   1.315   0.907   2.099
 5110TIP3    H236890   1.463   0.920   2.126
 5111TIP3   OH236891   3.498   3.844   1.791
 5111TIP3    H136892   3.430   3.866   1.856
 5111TIP3    H236893   3.580   3.863   1.835
 5112TIP3   OH236894   1.371   3.859   1.704
 5112TIP3    H136895   1.344   3.773   1.671
 5112TIP3    H236896   1.426   3.894   1.634
 5113TIP3   OH236897   4.252   3.436   6.534
 5113TIP3    H136898   4.300   3.375   6.477
 5113TIP3    H236899   4.181   3.383   6.570
 5114TIP3   OH236900   1.227   5.569   0.372
 5114TIP3    H136901   1.150   5.515   0.354
 5114TIP3    H236902   1.191   5.657   0.390
 5115TIP3   OH236903   3.558   0.426   7.064
 5115TIP3    H136904   3.630   0.379   7.022
 5115TIP3    H236905   3.580   0.427   7.157
 5116TIP3   OH236906   4.311   0.073   0.219
 5116TIP3    H136907   4.356   6.867   0.216
 5116TIP3    H236908   4.374   0.136   0.185
 5117TIP3   OH236909   6.458   2.448   7.874
 5117TIP3    H136910   6.385   2.499   7.908
 5117TIP3    H236911   6.474   2.484   7.787
 5118TIP3   OH236912   5.383   0.894   1.532
 5118TIP3    H136913   5.341   0.906   1.447
 5118TIP3    H236914   5.438   0.972   1.543
 5119TIP3   OH236915   1.520   6.071   6.115
 5119TIP3    H136916   1.546   5.999   6.171
 5119TIP3    H236917   1.504   6.144   6.175
 5120TIP3   OH236918   4.742   2.305   0.275
 5120TIP3    H136919   4.781   2.262   0.351
 5120TIP3    H236920   4.657   2.261   0.264
 5121TIP3   OH236921   1.469   4.821   0.260
 5121TIP3    H136922   1.529   4.865   0.200
 5121TIP3    H236923   1.450   4.886   0.328
 5122TIP3   OH236924   1.587   3.796   8.238
 5122TIP3    H136925   1.598   3.877   8.189
 5122TIP3    H236926   1.499   3.766   8.216
 5123TIP3   OH236927   2.314   6.461   1.410
 5123TIP3    H136928   2.260   6.412   1.472
 5123TIP3    H236929   2.376   6.510   1.465
 5124TIP3   OH236930   2.676   0.853   7.679
 5124TIP3    H136931   2.633   0.771   7.702
 5124TIP3    H236932   2.604   0.913   7.659
 5125TIP3   OH236933   2.109   6.368   0.338
 5125TIP3    H136934   2.193   6.329   0.362
 5125TIP3    H236935   2.060   6.296   0.298
 5126TIP3   OH236936   2.257   6.109   6.658
 5126TIP3    H136937   2.339   6.104   6.609
 5126TIP3    H236938   2.237   6.203   6.662
 5127TIP3   OH236939   0.575   3.239   1.824
 5127TIP3    H136940   0.621   3.323   1.817
 5127TIP3    H236941   0.644   3.175   1.838
 5128TIP3   OH236942   5.607   1.698   8.078
 5128TIP3    H136943   5.523   1.742   8.069
 5128TIP3    H236944   5.584   1.606   8.093
 5129TIP3   OH236945   6.312   5.943   0.491
 5129TIP3    H136946   6.321   5.850   0.512
 5129TIP3    H236947   6.346   5.952   0.402
 5130TIP3   OH236948   0.089   4.794   8.545
 5130TIP3    H136949   0.156   4.774   8.480
 5130TIP3    H236950   0.099   4.887   8.562
 5131TIP3   OH236951   0.257   3.462   1.562
 5131TIP3    H136952   0.317   3.434   1.493
 5131TIP3    H236953   0.192   3.516   1.518
 5132TIP3   OH236954   1.644   6.098   1.083
 5132TIP3    H136955   1.732   6.076   1.114
 5132TIP3    H236956   1.595   6.122   1.162
 5133TIP3   OH236957   0.211   0.585   7.445
 5133TIP3    H136958   0.223   0.617   7.355
 5133TIP3    H236959   0.295   0.601   7.487
 5134TIP3   OH236960   1.695   4.232   7.225
 5134TIP3    H136961   1.764   4.269   7.281
 5134TIP3    H236962   1.743   4.186   7.156
 5135TIP3   OH236963   4.775   5.714   0.598
 5135TIP3    H136964   4.858   5.716   0.647
 5135TIP3    H236965   4.745   5.624   0.607
 5136TIP3   OH236966   1.804   4.290   7.780
 5136TIP3    H136967   1.867   4.245   7.835
 5136TIP3    H236968   1.845   4.374   7.759
 5137TIP3   OH236969   4.372   5.720   6.192
 5137TIP3    H136970   4.374   5.636   6.146
 5137TIP3    H236971   4.421   5.704   6.273
 5138TIP3   OH236972   3.944   4.034   6.283
 5138TIP3    H136973   4.024   4.043   6.231
 5138TIP3    H236974   3.908   3.949   6.259
 5139TIP3   OH236975   2.106   5.797   0.603
 5139TIP3    H136976   2.015   5.795   0.572
 5139TIP3    H236977   2.158   5.768   0.528
 5140TIP3   OH236978   5.780   2.687   1.520
 5140TIP3    H136979   5.817   2.687   1.608
 5140TIP3    H236980   5.818   2.611   1.477
 5141TIP3   OH236981   3.356   3.211   6.326
 5141TIP3    H136982   3.443   3.174   6.313
 5141TIP3    H236983   3.303   3.173   6.256
 5142TIP3   OH236984   5.746   6.722   8.632
 5142TIP3    H136985   5.669   6.680   8.594
 5142TIP3    H236986   5.752   6.806   8.587
 5143TIP3   OH236987   5.790   1.652   6.471
 5143TIP3    H136988   5.751   1.598   6.403
 5143TIP3    H236989   5.716   1.685   6.522
 5144TIP3   OH236990   3.779   2.769   8.254
 5144TIP3    H136991   3.818   2.682   8.245
 5144TIP3    H236992   3.692   2.760   8.213
 5145TIP3   OH236993   6.044   2.749   7.890
 5145TIP3    H136994   6.028   2.838   7.860
 5145TIP3    H236995   5.958   2.719   7.922
 5146TIP3   OH236996   1.228   3.767   7.565
 5146TIP3    H136997   1.313   3.730   7.590
 5146TIP3    H236998   1.172   3.752   7.641
 5147TIP3   OH236999   3.186   5.749   8.372
 5147TIP3    H137000   3.252   5.740   8.441
 5147TIP3    H237001   3.226   5.808   8.308
 5148TIP3   OH237002   1.847   2.654   1.956
 5148TIP3    H137003   1.846   2.697   2.042
 5148TIP3    H237004   1.930   2.607   1.954
 5149TIP3   OH237005   2.969   2.470   1.411
 5149TIP3    H137006   3.006   2.410   1.346
 5149TIP3    H237007   2.974   2.421   1.494
 5150TIP3   OH237008   3.416   2.387   8.603
 5150TIP3    H137009   3.392   2.479   8.602
 5150TIP3    H237010   3.403   2.358   8.512
 5151TIP3   OH237011   3.022   2.862   6.155
 5151TIP3    H137012   2.951   2.806   6.125
 5151TIP3    H237013   2.983   2.916   6.223
 5152TIP3   OH237014   6.228   1.684   7.458
 5152TIP3    H137015   6.283   1.713   7.530
 5152TIP3    H237016   6.152   1.742   7.459
 5153TIP3   OH237017   1.618   0.377   2.712
 5153TIP3    H137018   1.635   0.396   2.619
 5153TIP3    H237019   1.618   0.281   2.717
 5154TIP3   OH237020   3.941   5.869   0.311
 5154TIP3    H137021   3.928   5.814   0.234
 5154TIP3    H237022   3.892   5.949   0.292
 5155TIP3   OH237023   4.648   3.616   0.942
 5155TIP3    H137024   4.734   3.603   0.982
 5155TIP3    H237025   4.591   3.640   1.015
 5156TIP3   OH237026   6.414   6.186   1.909
 5156TIP3    H137027   6.409   6.158   2.001
 5156TIP3    H237028   6.384   6.110   1.859
 5157TIP3   OH237029   1.052   0.655   8.120
 5157TIP3    H137030   1.072   0.746   8.144
 5157TIP3    H237031   1.043   0.610   8.204
 5158TIP3   OH237032   3.683   6.271   6.259
 5158TIP3    H137033   3.617   6.239   6.320
 5158TIP3    H237034   3.737   6.194   6.240
 5159TIP3   OH237035   2.017   1.070   8.530
 5159TIP3    H137036   2.087   1.070   8.465
 5159TIP3    H237037   2.048   1.128   8.599
 5160TIP3   OH237038   5.380   0.580   1.778
 5160TIP3    H137039   5.332   0.541   1.705
 5160TIP3    H237040   5.311   0.616   1.835
 5161TIP3   OH237041   4.353   2.157   1.767
 5161TIP3    H137042   4.298   2.083   1.794
 5161TIP3    H237043   4.369   2.143   1.674
 5162TIP3   OH237044   4.324   0.933   1.170
 5162TIP3    H137045   4.232   0.909   1.186
 5162TIP3    H237046   4.321   1.026   1.149
 5163TIP3   OH237047   3.915   4.775   6.980
 5163TIP3    H137048   3.860   4.745   7.052
 5163TIP3    H237049   3.898   4.713   6.910
 5164TIP3   OH237050   3.187   0.362   7.260
 5164TIP3    H137051   3.154   0.371   7.349
 5164TIP3    H237052   3.157   0.441   7.215
 5165TIP3   OH237053   5.786   0.116   1.191
 5165TIP3    H137054   5.806   0.120   1.097
 5165TIP3    H237055   5.782   0.208   1.219
 5166TIP3   OH237056   3.827   5.917   6.695
 5166TIP3    H137057   3.748   5.878   6.733
 5166TIP3    H237058   3.892   5.913   6.765
 5167TIP3   OH237059   5.445   1.008   8.441
 5167TIP3    H137060   5.508   0.936   8.447
 5167TIP3    H237061   5.418   1.024   8.531
 5168TIP3   OH237062   1.983   4.710   0.528
 5168TIP3    H137063   1.901   4.699   0.480
 5168TIP3    H237064   1.972   4.658   0.607
 5169TIP3   OH237065   4.871   3.073   0.616
 5169TIP3    H137066   4.843   3.160   0.644
 5169TIP3    H237067   4.795   3.036   0.572
 5170TIP3   OH237068   2.224   5.067   0.178
 5170TIP3    H137069   2.199   4.976   0.160
 5170TIP3    H237070   2.173   5.091   0.255
 5171TIP3   OH237071   0.249   6.522   7.297
 5171TIP3    H137072   0.269   6.615   7.282
 5171TIP3    H237073   0.312   6.475   7.242
 5172TIP3   OH237074   5.906   3.597   8.109
 5172TIP3    H137075   6.001   3.603   8.118
 5172TIP3    H237076   5.873   3.623   8.195
 5173TIP3   OH237077   4.473   4.301   8.371
 5173TIP3    H137078   4.399   4.240   8.371
 5173TIP3    H237079   4.470   4.343   8.456
 5174TIP3   OH237080   3.718   1.853   0.675
 5174TIP3    H137081   3.726   1.883   0.584
 5174TIP3    H237082   3.687   1.763   0.668
 5175TIP3   OH237083   4.025   1.358   0.279
 5175TIP3    H137084   4.110   1.339   0.317
 5175TIP3    H237085   4.026   1.314   0.194
 5176TIP3   OH237086   0.860   5.592   0.782
 5176TIP3    H137087   0.805   5.663   0.749
 5176TIP3    H237088   0.817   5.512   0.752
 5177TIP3   OH237089   2.935   5.751   7.262
 5177TIP3    H137090   2.988   5.671   7.274
 5177TIP3    H237091   2.870   5.726   7.196
 5178TIP3   OH237092   1.777   3.689   0.659
 5178TIP3    H137093   1.710   3.722   0.719
 5178TIP3    H237094   1.850   3.750   0.668
 5179TIP3   OH237095   4.669   1.444   1.433
 5179TIP3    H137096   4.702   1.359   1.405
 5179TIP3    H237097   4.599   1.465   1.370
 5180TIP3   OH237098   1.519   3.984   8.486
 5180TIP3    H137099   1.508   3.992   8.391
 5180TIP3    H237100   1.594   3.925   8.497
 5181TIP3   OH237101   5.321   2.405   0.760
 5181TIP3    H137102   5.353   2.316   0.772
 5181TIP3    H237103   5.249   2.396   0.697
 5182TIP3   OH237104   2.982   1.383   0.574
 5182TIP3    H137105   3.054   1.418   0.521
 5182TIP3    H237106   2.981   1.439   0.652
 5183TIP3   OH237107   2.547   2.588   6.218
 5183TIP3    H137108   2.579   2.521   6.278
 5183TIP3    H237109   2.469   2.549   6.178
 5184TIP3   OH237110   0.356   2.683   6.745
 5184TIP3    H137111   0.432   2.631   6.716
 5184TIP3    H237112   0.378   2.710   6.834
 5185TIP3   OH237113   5.615   0.712   7.812
 5185TIP3    H137114   5.707   0.694   7.831
 5185TIP3    H237115   5.571   0.704   7.897
 5186TIP3   OH237116   2.213   5.240   8.423
 5186TIP3    H137117   2.134   5.289   8.445
 5186TIP3    H237118   2.259   5.296   8.359
 5187TIP3   OH237119   6.830   3.645   8.313
 5187TIP3    H137120   6.756   3.617   8.367
 5187TIP3    H237121   6.853   3.732   8.347
 5188TIP3   OH237122   0.851   3.487   0.727
 5188TIP3    H137123   0.903   3.528   0.797
 5188TIP3    H237124   0.897   3.405   0.709
 5189TIP3   OH237125   3.128   0.635   0.658
 5189TIP3    H137126   3.206   0.659   0.708
 5189TIP3    H237127   3.158   0.568   0.597
 5190TIP3   OH237128   0.357   2.656   8.463
 5190TIP3    H137129   0.287   2.691   8.407
 5190TIP3    H237130   0.315   2.585   8.512
 5191TIP3   OH237131   3.460   5.401   1.458
 5191TIP3    H137132   3.522   5.351   1.511
 5191TIP3    H237133   3.504   5.411   1.374
 5192TIP3   OH237134   4.397   5.279   7.331
 5192TIP3    H137135   4.377   5.237   7.415
 5192TIP3    H237136   4.317   5.324   7.307
 5193TIP3   OH237137   3.198   1.706   0.039
 5193TIP3    H137138   3.156   1.689   8.605
 5193TIP3    H237139   3.176   1.630   0.093
 5194TIP3   OH237140   0.430   6.757   1.838
 5194TIP3    H137141   0.444   6.773   1.745
 5194TIP3    H237142   0.468   6.670   1.854
 5195TIP3   OH237143   0.963   3.833   0.253
 5195TIP3    H137144   1.007   3.752   0.229
 5195TIP3    H237145   0.967   3.887   0.173
 5196TIP3   OH237146   4.849   2.531   0.144
 5196TIP3    H137147   4.823   2.460   0.203
 5196TIP3    H237148   4.866   2.488   0.061
 5197TIP3   OH237149   2.461   1.540   2.325
 5197TIP3    H137150   2.544   1.503   2.356
 5197TIP3    H237151   2.394   1.479   2.358
 5198TIP3   OH237152   1.897   3.005   6.962
 5198TIP3    H137153   1.848   2.939   7.010
 5198TIP3    H237154   1.835   3.041   6.899
 5199TIP3   OH237155   2.430   2.539   0.368
 5199TIP3    H137156   2.459   2.616   0.417
 5199TIP3    H237157   2.478   2.544   0.285
 5200TIP3   OH237158   4.893   6.273   1.579
 5200TIP3    H137159   4.845   6.356   1.579
 5200TIP3    H237160   4.934   6.269   1.493
 5201TIP3   OH237161   1.502   0.734   6.948
 5201TIP3    H137162   1.418   0.777   6.932
 5201TIP3    H237163   1.568   0.797   6.920
 5202TIP3   OH237164   5.317   3.488   8.643
 5202TIP3    H137165   5.270   3.410   0.023
 5202TIP3    H237166   5.340   3.467   8.552
 5203TIP3   OH237167   3.277   6.059   2.013
 5203TIP3    H137168   3.246   6.103   2.093
 5203TIP3    H237169   3.366   6.092   2.000
 5204TIP3   OH237170   5.296   5.027   7.085
 5204TIP3    H137171   5.218   5.075   7.056
 5204TIP3    H237172   5.366   5.058   7.028
 5205TIP3   OH237173   0.219   1.259   1.364
 5205TIP3    H137174   0.274   1.183   1.380
 5205TIP3    H237175   0.199   1.255   1.270
 5206TIP3   OH237176   4.451   3.247   6.657
 5206TIP3    H137177   4.373   3.227   6.709
 5206TIP3    H237178   4.520   3.260   6.722
 5207TIP3   OH237179   3.685   3.350   7.821
 5207TIP3    H137180   3.689   3.255   7.831
 5207TIP3    H237181   3.652   3.382   7.905
 5208TIP3   OH237182   2.863   6.022   1.298
 5208TIP3    H137183   2.826   5.941   1.262
 5208TIP3    H237184   2.895   5.996   1.385
 5209TIP3   OH237185   2.709   4.543   2.180
 5209TIP3    H137186   2.688   4.460   2.137
 5209TIP3    H237187   2.630   4.596   2.171
 5210TIP3   OH237188   1.168   6.751   7.979
 5210TIP3    H137189   1.150   6.673   8.032
 5210TIP3    H237190   1.083   6.794   7.971
 5211TIP3   OH237191   6.125   2.412   7.836
 5211TIP3    H137192   6.174   2.467   7.898
 5211TIP3    H237193   6.033   2.433   7.852
 5212TIP3   OH237194   2.768   4.433   1.892
 5212TIP3    H137195   2.724   4.371   1.950
 5212TIP3    H237196   2.700   4.497   1.870
 5213TIP3   OH237197   1.146   2.792   7.345
 5213TIP3    H137198   1.075   2.772   7.284
 5213TIP3    H237199   1.134   2.731   7.417
 5214TIP3   OH237200   2.474   5.644   6.156
 5214TIP3    H137201   2.434   5.618   6.073
 5214TIP3    H237202   2.439   5.732   6.173
 5215TIP3   OH237203   1.944   1.518   0.573
 5215TIP3    H137204   2.016   1.539   0.513
 5215TIP3    H237205   1.915   1.431   0.546
 5216TIP3   OH237206   3.181   0.624   7.529
 5216TIP3    H137207   3.245   0.694   7.545
 5216TIP3    H237208   3.195   0.562   7.600
 5217TIP3   OH237209   1.947   5.691   8.109
 5217TIP3    H137210   1.988   5.735   8.184
 5217TIP3    H237211   1.853   5.709   8.119
 5218TIP3   OH237212   6.561   6.667   7.799
 5218TIP3    H137213   6.597   6.718   7.871
 5218TIP3    H237214   6.541   6.582   7.838
 5219TIP3   OH237215   6.699   1.375   2.617
 5219TIP3    H137216   6.639   1.306   2.589
 5219TIP3    H237217   6.724   1.419   2.536
 5220TIP3   OH237218   6.652   6.401   1.704
 5220TIP3    H137219   6.703   6.431   1.629
 5220TIP3    H237220   6.626   6.312   1.683
 5221TIP3   OH237221   4.880   4.209   7.969
 5221TIP3    H137222   4.806   4.270   7.969
 5221TIP3    H237223   4.922   4.222   7.884
 5222TIP3   OH237224   1.744   0.442   1.503
 5222TIP3    H137225   1.709   0.519   1.547
 5222TIP3    H237226   1.704   0.445   1.416
 5223TIP3   OH237227   3.862   2.577   7.001
 5223TIP3    H137228   3.951   2.587   7.034
 5223TIP3    H237229   3.874   2.563   6.907
 5224TIP3   OH237230   6.416   6.176   8.029
 5224TIP3    H137231   6.388   6.212   8.113
 5224TIP3    H237232   6.509   6.198   8.024
 5225TIP3   OH237233   1.766   6.766   8.208
 5225TIP3    H137234   1.772   6.720   8.124
 5225TIP3    H237235   1.782   6.858   8.187
 5226TIP3   OH237236   4.072   2.930   2.224
 5226TIP3    H137237   4.114   2.927   2.138
 5226TIP3    H237238   4.066   3.024   2.244
 5227TIP3   OH237239   1.268   3.840   1.952
 5227TIP3    H137240   1.328   3.878   1.888
 5227TIP3    H237241   1.258   3.749   1.924
 5228TIP3   OH237242   3.541   3.231   0.613
 5228TIP3    H137243   3.614   3.243   0.673
 5228TIP3    H237244   3.517   3.138   0.623
 5229TIP3   OH237245   0.626   5.194   1.139
 5229TIP3    H137246   0.621   5.280   1.097
 5229TIP3    H237247   0.556   5.196   1.205
 5230TIP3   OH237248   5.725   0.152   2.408
 5230TIP3    H137249   5.773   0.233   2.422
 5230TIP3    H237250   5.790   0.083   2.420
 5231TIP3   OH237251   1.769   0.146   8.167
 5231TIP3    H137252   1.835   0.214   8.151
 5231TIP3    H237253   1.703   0.189   8.222
 5232TIP3   OH237254   1.759   5.289   0.581
 5232TIP3    H137255   1.827   5.256   0.641
 5232TIP3    H237256   1.808   5.322   0.506
 5233TIP3   OH237257   5.512   4.742   7.581
 5233TIP3    H137258   5.603   4.726   7.608
 5233TIP3    H237259   5.496   4.834   7.605
 5234TIP3   OH237260   2.857   4.497   8.214
 5234TIP3    H137261   2.909   4.426   8.177
 5234TIP3    H237262   2.767   4.467   8.207
 5235TIP3   OH237263   6.831   0.928   7.502
 5235TIP3    H137264   6.738   0.946   7.516
 5235TIP3    H237265   6.844   0.942   7.408
 5236TIP3   OH237266   5.499   0.431   6.131
 5236TIP3    H137267   5.553   0.470   6.200
 5236TIP3    H237268   5.409   0.445   6.160
 5237TIP3   OH237269   4.189   6.535   1.221
 5237TIP3    H137270   4.142   6.583   1.152
 5237TIP3    H237271   4.119   6.502   1.278
 5238TIP3   OH237272   5.278   5.507   7.443
 5238TIP3    H137273   5.195   5.546   7.414
 5238TIP3    H237274   5.296   5.439   7.379
 5239TIP3   OH237275   2.248   1.217   7.158
 5239TIP3    H137276   2.274   1.306   7.182
 5239TIP3    H237277   2.154   1.222   7.142
 5240TIP3   OH237278   4.973   0.722   0.391
 5240TIP3    H137279   5.039   0.655   0.409
 5240TIP3    H237280   4.969   0.726   0.295
 5241TIP3   OH237281   6.805   5.935   7.099
 5241TIP3    H137282   6.724   5.952   7.149
 5241TIP3    H237283   6.846   5.861   7.144
 5242TIP3   OH237284   3.362   3.610   0.192
 5242TIP3    H137285   3.443   3.603   0.242
 5242TIP3    H237286   3.293   3.618   0.257
 5243TIP3   OH237287   4.711   2.928   0.844
 5243TIP3    H137288   4.672   2.858   0.896
 5243TIP3    H237289   4.665   2.925   0.760
 5244TIP3   OH237290   1.609   5.284   8.295
 5244TIP3    H137291   1.588   5.227   8.221
 5244TIP3    H237292   1.536   5.346   8.299
 5245TIP3   OH237293   6.792   3.536   0.559
 5245TIP3    H137294   0.003   3.505   0.543
 5245TIP3    H237295   6.779   3.606   0.496
 5246TIP3   OH237296   3.555   4.402   6.704
 5246TIP3    H137297   3.526   4.312   6.717
 5246TIP3    H237298   3.650   4.398   6.707
 5247TIP3   OH237299   2.235   2.969   0.240
 5247TIP3    H137300   2.210   2.914   0.315
 5247TIP3    H237301   2.214   3.058   0.268
 5248TIP3   OH237302   3.238   4.039   1.984
 5248TIP3    H137303   3.204   4.038   2.073
 5248TIP3    H237304   3.263   4.130   1.968
 5249TIP3   OH237305   1.542   4.154   6.960
 5249TIP3    H137306   1.574   4.134   6.872
 5249TIP3    H237307   1.578   4.241   6.980
 5250TIP3   OH237308   5.367   1.770   0.545
 5250TIP3    H137309   5.293   1.811   0.591
 5250TIP3    H237310   5.397   1.838   0.484
 5251TIP3   OH237311   1.108   4.362   8.037
 5251TIP3    H137312   1.149   4.285   7.998
 5251TIP3    H237313   1.175   4.398   8.095
 5252TIP3   OH237314   0.074   6.658   1.125
 5252TIP3    H137315   0.023   6.579   1.108
 5252TIP3    H237316   0.141   6.658   1.057
 5253TIP3   OH237317   3.039   1.715   7.943
 5253TIP3    H137318   3.097   1.785   7.912
 5253TIP3    H237319   3.042   1.649   7.874
 5254TIP3   OH237320   5.840   2.529   1.941
 5254TIP3    H137321   5.768   2.589   1.961
 5254TIP3    H237322   5.918   2.573   1.976
 5255TIP3   OH237323   6.193   4.025   8.584
 5255TIP3    H137324   6.208   3.969   0.010
 5255TIP3    H237325   6.225   4.111   8.611
 5256TIP3   OH237326   6.702   1.038   1.112
 5256TIP3    H137327   6.714   1.031   1.207
 5256TIP3    H237328   6.776   1.091   1.083
 5257TIP3   OH237329   2.384   2.883   7.218
 5257TIP3    H137330   2.461   2.872   7.272
 5257TIP3    H237331   2.375   2.799   7.172
 5258TIP3   OH237332   0.280   0.011   8.407
 5258TIP3    H137333   0.282   6.821   8.475
 5258TIP3    H237334   0.187   0.023   8.387
 5259TIP3   OH237335   3.300   5.425   6.979
 5259TIP3    H137336   3.207   5.430   6.957
 5259TIP3    H237337   3.315   5.497   7.040
 5260TIP3   OH237338   2.835   2.706   0.450
 5260TIP3    H137339   2.784   2.767   0.503
 5260TIP3    H237340   2.792   2.705   0.365
 5261TIP3   OH237341   3.871   4.009   8.333
 5261TIP3    H137342   3.940   3.969   8.279
 5261TIP3    H237343   3.919   4.056   8.401
 5262TIP3   OH237344   1.027   1.595   8.452
 5262TIP3    H137345   0.985   1.663   8.399
 5262TIP3    H237346   0.955   1.554   8.500
 5263TIP3   OH237347   3.208   2.461   7.781
 5263TIP3    H137348   3.284   2.490   7.832
 5263TIP3    H237349   3.138   2.520   7.808
 5264TIP3   OH237350   5.377   3.588   8.271
 5264TIP3    H137351   5.323   3.543   8.206
 5264TIP3    H237352   5.421   3.517   8.319
 5265TIP3   OH237353   4.076   3.124   7.349
 5265TIP3    H137354   4.152   3.157   7.301
 5265TIP3    H237355   4.105   3.117   7.440
 5266TIP3   OH237356   6.196   2.945   1.928
 5266TIP3    H137357   6.105   2.960   1.954
 5266TIP3    H237358   6.240   3.028   1.946
 5267TIP3   OH237359   0.124   0.419   7.915
 5267TIP3    H137360   0.204   0.373   7.939
 5267TIP3    H237361   0.154   0.492   7.861
 5268TIP3   OH237362   6.531   3.280   2.090
 5268TIP3    H137363   6.610   3.228   2.101
 5268TIP3    H237364   6.527   3.334   2.170
 5269TIP3   OH237365   2.608   2.261   8.005
 5269TIP3    H137366   2.571   2.332   8.058
 5269TIP3    H237367   2.641   2.198   8.068
 5270TIP3   OH237368   3.731   4.097   1.021
 5270TIP3    H137369   3.703   4.104   1.113
 5270TIP3    H237370   3.819   4.060   1.025
 5271TIP3   OH237371   0.963   5.445   1.352
 5271TIP3    H137372   1.044   5.479   1.313
 5271TIP3    H237373   0.970   5.467   1.445
 5272TIP3   OH237374   6.870   4.907   0.720
 5272TIP3    H137375   6.802   4.850   0.757
 5272TIP3    H237376   0.057   4.915   0.790
 5273TIP3   OH237377   6.298   4.190   0.114
 5273TIP3    H137378   6.274   4.265   0.060
 5273TIP3    H237379   6.225   4.180   0.175
 5274TIP3   OH237380   3.998   0.854   7.722
 5274TIP3    H137381   3.904   0.858   7.709
 5274TIP3    H237382   4.032   0.818   7.640
 5275TIP3   OH237383   4.097   3.596   8.478
 5275TIP3    H137384   4.048   3.581   8.397
 5275TIP3    H237385   4.187   3.571   8.457
 5276TIP3   OH237386   2.162   1.577   1.454
 5276TIP3    H137387   2.138   1.668   1.435
 5276TIP3    H237388   2.080   1.538   1.486
 5277TIP3   OH237389   3.673   3.324   1.765
 5277TIP3    H137390   3.643   3.410   1.735
 5277TIP3    H237391   3.659   3.325   1.859
 5278TIP3   OH237392   6.701   2.071   1.537
 5278TIP3    H137393   6.696   1.983   1.575
 5278TIP3    H237394   6.759   2.062   1.462
 5279TIP3   OH237395   5.302   4.711   8.369
 5279TIP3    H137396   5.260   4.767   8.304
 5279TIP3    H237397   5.384   4.755   8.390
 5280TIP3   OH237398   4.544   0.121   1.641
 5280TIP3    H137399   4.504   0.207   1.628
 5280TIP3    H237400   4.594   0.105   1.562
 5281TIP3   OH237401   1.862   3.928   1.404
 5281TIP3    H137402   1.953   3.946   1.381
 5281TIP3    H237403   1.811   3.993   1.354
 5282TIP3   OH237404   5.969   5.145   0.530
 5282TIP3    H137405   5.914   5.151   0.452
 5282TIP3    H237406   5.941   5.063   0.573
 5283TIP3   OH237407   2.366   3.479   1.369
 5283TIP3    H137408   2.459   3.501   1.382
 5283TIP3    H237409   2.320   3.539   1.427
 5284TIP3   OH237410   5.190   3.175   6.769
 5284TIP3    H137411   5.250   3.215   6.833
 5284TIP3    H237412   5.236   3.184   6.685
 5285TIP3   OH237413   1.889   1.148   8.051
 5285TIP3    H137414   1.894   1.224   7.995
 5285TIP3    H237415   1.851   1.181   8.133
 5286TIP3   OH237416   0.567   1.734   0.968
 5286TIP3    H137417   0.472   1.730   0.975
 5286TIP3    H237418   0.599   1.679   1.040
 5287TIP3   OH237419   4.381   4.786   1.447
 5287TIP3    H137420   4.380   4.878   1.421
 5287TIP3    H237421   4.438   4.744   1.383
 5288TIP3   OH237422   1.820   0.115   7.448
 5288TIP3    H137423   1.791   0.096   7.537
 5288TIP3    H237424   1.887   0.049   7.430
 5289TIP3   OH237425   3.049   1.378   7.964
 5289TIP3    H137426   3.074   1.301   7.913
 5289TIP3    H237427   2.964   1.355   8.002
 5290TIP3   OH237428   3.968   6.159   7.644
 5290TIP3    H137429   3.944   6.186   7.556
 5290TIP3    H237430   3.893   6.107   7.675
 5291TIP3   OH237431   6.235   5.985   1.850
 5291TIP3    H137432   6.205   5.894   1.845
 5291TIP3    H237433   6.204   6.015   1.936
 5292TIP3   OH237434   4.081   1.169   7.174
 5292TIP3    H137435   4.160   1.134   7.133
 5292TIP3    H237436   4.011   1.150   7.111
 5293TIP3   OH237437   3.744   0.861   7.068
 5293TIP3    H137438   3.830   0.831   7.036
 5293TIP3    H237439   3.744   0.838   7.161
 5294TIP3   OH237440   1.477   2.330   6.377
 5294TIP3    H137441   1.542   2.362   6.438
 5294TIP3    H237442   1.498   2.237   6.365
 5295TIP3   OH237443   1.916   4.748   6.987
 5295TIP3    H137444   1.962   4.796   6.918
 5295TIP3    H237445   1.825   4.773   6.979
 5296TIP3   OH237446   3.055   0.526   1.461
 5296TIP3    H137447   3.114   0.459   1.424
 5296TIP3    H237448   2.969   0.484   1.463
 5297TIP3   OH237449   6.734   1.109   0.019
 5297TIP3    H137450   6.689   1.122   0.103
 5297TIP3    H237451   6.730   1.015   0.004
 5298TIP3   OH237452   4.960   1.444   8.181
 5298TIP3    H137453   5.030   1.445   8.245
 5298TIP3    H237454   4.919   1.358   8.192
 5299TIP3   OH237455   1.470   2.457   7.128
 5299TIP3    H137456   1.450   2.510   7.051
 5299TIP3    H237457   1.412   2.491   7.197
 5300TIP3   OH237458   6.489   1.048   7.728
 5300TIP3    H137459   6.485   0.997   7.647
 5300TIP3    H237460   6.553   1.116   7.710
 5301TIP3   OH237461   5.535   0.325   7.210
 5301TIP3    H137462   5.523   0.420   7.202
 5301TIP3    H237463   5.447   0.288   7.200
 5302TIP3   OH237464   4.420   5.253   6.803
 5302TIP3    H137465   4.495   5.302   6.836
 5302TIP3    H237466   4.437   5.162   6.826
 5303TIP3   OH237467   5.705   2.114   2.241
 5303TIP3    H137468   5.649   2.038   2.256
 5303TIP3    H237469   5.714   2.119   2.146
 5304TIP3   OH237470   6.283   3.043   6.445
 5304TIP3    H137471   6.248   3.083   6.524
 5304TIP3    H237472   6.324   2.962   6.475
 5305TIP3   OH237473   6.176   0.513   1.137
 5305TIP3    H137474   6.146   0.481   1.222
 5305TIP3    H237475   6.271   0.516   1.144
 5306TIP3   OH237476   5.002   6.483   2.030
 5306TIP3    H137477   4.920   6.490   1.981
 5306TIP3    H237478   5.005   6.392   2.060
 5307TIP3   OH237479   4.062   4.471   7.280
 5307TIP3    H137480   4.091   4.548   7.231
 5307TIP3    H237481   3.982   4.443   7.235
 5308TIP3   OH237482   0.178   2.195   1.252
 5308TIP3    H137483   0.155   2.145   1.330
 5308TIP3    H237484   0.236   2.136   1.202
 5309TIP3   OH237485   5.156   0.573   8.068
 5309TIP3    H137486   5.156   0.661   8.105
 5309TIP3    H237487   5.174   0.586   7.975
 5310TIP3   OH237488   6.494   4.709   7.119
 5310TIP3    H137489   6.481   4.760   7.038
 5310TIP3    H237490   6.419   4.733   7.173
 5311TIP3   OH237491   5.235   4.984   0.473
 5311TIP3    H137492   5.282   4.934   0.406
 5311TIP3    H237493   5.292   4.981   0.550
 5312TIP3   OH237494   0.058   2.195   8.540
 5312TIP3    H137495   0.087   2.178   8.629
 5312TIP3    H237496   0.022   2.112   8.510
 5313TIP3   OH237497   3.725   2.304   1.079
 5313TIP3    H137498   3.689   2.279   1.164
 5313TIP3    H237499   3.698   2.395   1.067
 5314TIP3   OH237500   2.468   1.709   0.496
 5314TIP3    H137501   2.460   1.803   0.480
 5314TIP3    H237502   2.448   1.668   0.412
 5315TIP3   OH237503   4.808   3.780   8.167
 5315TIP3    H137504   4.774   3.833   8.239
 5315TIP3    H237505   4.881   3.732   8.206
 5316TIP3   OH237506   3.216   5.325   1.216
 5316TIP3    H137507   3.279   5.377   1.165
 5316TIP3    H237508   3.243   5.339   1.307
 5317TIP3   OH237509   0.831   6.467   1.059
 5317TIP3    H137510   0.737   6.469   1.076
 5317TIP3    H237511   0.850   6.375   1.038
 5318TIP3   OH237512   3.956   5.687   8.498
 5318TIP3    H137513   3.931   5.714   8.410
 5318TIP3    H237514   3.909   5.747   8.556
 5319TIP3   OH237515   3.857   0.298   6.939
 5319TIP3    H137516   3.910   0.377   6.942
 5319TIP3    H237517   3.912   0.229   6.976
 5320TIP3   OH237518   6.848   3.562   7.802
 5320TIP3    H137519   6.761   3.588   7.771
 5320TIP3    H237520   0.031   3.611   7.746
 5321TIP3   OH237521   6.629   2.471   8.205
 5321TIP3    H137522   6.542   2.432   8.213
 5321TIP3    H237523   6.613   2.565   8.197
 5322TIP3   OH237524   4.843   5.982   0.443
 5322TIP3    H137525   4.758   6.024   0.427
 5322TIP3    H237526   4.822   5.895   0.475
 5323TIP3   OH237527   5.834   4.520   0.273
 5323TIP3    H137528   5.869   4.505   0.361
 5323TIP3    H237529   5.898   4.578   0.231
 5324TIP3   OH237530   0.141   0.811   0.953
 5324TIP3    H137531   0.087   0.757   0.896
 5324TIP3    H237532   0.176   0.749   1.017
 5325TIP3   OH237533   6.226   3.471   0.244
 5325TIP3    H137534   6.148   3.524   0.227
 5325TIP3    H237535   6.268   3.514   0.319
 5326TIP3   OH237536   1.896   4.599   1.068
 5326TIP3    H137537   1.819   4.613   1.013
 5326TIP3    H237538   1.946   4.680   1.061
 5327TIP3   OH237539   1.164   3.951   1.426
 5327TIP3    H137540   1.162   4.046   1.420
 5327TIP3    H237541   1.148   3.920   1.337
 5328TIP3   OH237542   0.775   1.175   8.239
 5328TIP3    H137543   0.855   1.221   8.263
 5328TIP3    H237544   0.704   1.234   8.263
 5329TIP3   OH237545   4.760   1.440   7.654
 5329TIP3    H137546   4.664   1.439   7.654
 5329TIP3    H237547   4.784   1.359   7.699
 5330TIP3   OH237548   4.419   6.447   1.119
 5330TIP3    H137549   4.355   6.484   1.179
 5330TIP3    H237550   4.404   6.353   1.123
 5331TIP3   OH237551   5.761   2.809   0.123
 5331TIP3    H137552   5.844   2.822   0.078
 5331TIP3    H237553   5.769   2.860   0.204
 5332TIP3   OH237554   2.436   3.944   0.650
 5332TIP3    H137555   2.411   3.874   0.710
 5332TIP3    H237556   2.385   3.927   0.571
 5333TIP3   OH237557   3.751   5.260   8.572
 5333TIP3    H137558   3.704   5.267   8.489
 5333TIP3    H237559   3.698   5.200   8.625
 5334TIP3   OH237560   4.324   6.254   1.413
 5334TIP3    H137561   4.329   6.211   1.499
 5334TIP3    H237562   4.357   6.188   1.352
 5335TIP3   OH237563   1.675   1.464   7.418
 5335TIP3    H137564   1.689   1.547   7.463
 5335TIP3    H237565   1.749   1.455   7.359
 5336TIP3   OH237566   2.628   4.294   0.968
 5336TIP3    H137567   2.594   4.355   1.034
 5336TIP3    H237568   2.720   4.281   0.992
 5337TIP3   OH237569   2.115   5.300   7.895
 5337TIP3    H137570   2.098   5.354   7.818
 5337TIP3    H237571   2.109   5.361   7.968
 5338TIP3   OH237572   2.185   6.215   0.060
 5338TIP3    H137573   2.184   6.205   8.616
 5338TIP3    H237574   2.272   6.249   0.079
 5339TIP3   OH237575   6.585   1.987   7.767
 5339TIP3    H137576   6.556   2.064   7.815
 5339TIP3    H237577   6.627   1.932   7.833
 5340TIP3   OH237578   4.205   4.691   7.266
 5340TIP3    H137579   4.159   4.747   7.328
 5340TIP3    H237580   4.296   4.724   7.268
 5341TIP3   OH237581   0.913   4.975   1.472
 5341TIP3    H137582   0.895   5.048   1.531
 5341TIP3    H237583   0.873   5.002   1.389
 5342TIP3   OH237584   2.186   4.391   7.503
 5342TIP3    H137585   2.132   4.402   7.581
 5342TIP3    H237586   2.191   4.297   7.490
 5343TIP3   OH237587   5.439   4.266   0.403
 5343TIP3    H137588   5.445   4.216   0.484
 5343TIP3    H237589   5.528   4.265   0.368
 5344TIP3   OH237590   0.559   5.955   0.410
 5344TIP3    H137591   0.484   6.001   0.448
 5344TIP3    H237592   0.563   5.872   0.459
 5345TIP3   OH237593   1.220   2.488   1.321
 5345TIP3    H137594   1.247   2.568   1.367
 5345TIP3    H237595   1.124   2.492   1.323
 5346TIP3   OH237596   3.731   3.801   8.221
 5346TIP3    H137597   3.773   3.874   8.266
 5346TIP3    H237598   3.767   3.802   8.133
 5347TIP3   OH237599   4.762   1.985   6.429
 5347TIP3    H137600   4.693   1.924   6.405
 5347TIP3    H237601   4.802   2.012   6.346
 5348TIP3   OH237602   1.865   5.474   6.474
 5348TIP3    H137603   1.943   5.524   6.498
 5348TIP3    H237604   1.820   5.529   6.411
 5349TIP3   OH237605   1.133   1.580   7.947
 5349TIP3    H137606   1.151   1.540   7.862
 5349TIP3    H237607   1.162   1.514   8.011
 5350TIP3   OH237608   2.552   5.260   0.671
 5350TIP3    H137609   2.613   5.188   0.684
 5350TIP3    H237610   2.541   5.266   0.576
 5351TIP3   OH237611   0.434   2.860   0.392
 5351TIP3    H137612   0.477   2.846   0.477
 5351TIP3    H237613   0.441   2.954   0.377
 5352TIP3   OH237614   6.472   0.709   7.684
 5352TIP3    H137615   6.480   0.648   7.610
 5352TIP3    H237616   6.405   0.772   7.655
 5353TIP3   OH237617   2.192   2.863   1.860
 5353TIP3    H137618   2.268   2.833   1.910
 5353TIP3    H237619   2.200   2.819   1.775
 5354TIP3   OH237620   6.780   3.188   7.350
 5354TIP3    H137621   6.689   3.194   7.380
 5354TIP3    H237622   6.776   3.127   7.276
 5355TIP3   OH237623   2.725   4.888   2.179
 5355TIP3    H137624   2.678   4.970   2.163
 5355TIP3    H237625   2.659   4.829   2.214
 5356TIP3   OH237626   5.781   6.787   1.398
 5356TIP3    H137627   5.845   6.812   1.464
 5356TIP3    H237628   5.768   6.867   1.346
 5357TIP3   OH237629   4.832   6.489   7.790
 5357TIP3    H137630   4.899   6.546   7.827
 5357TIP3    H237631   4.751   6.540   7.797
 5358TIP3   OH237632   1.932   6.096   2.393
 5358TIP3    H137633   1.883   6.026   2.436
 5358TIP3    H237634   2.021   6.062   2.384
 5359TIP3   OH237635   3.598   5.125   0.112
 5359TIP3    H137636   3.526   5.072   0.079
 5359TIP3    H237637   3.556   5.201   0.153
 5360TIP3   OH237638   0.200   5.899   7.962
 5360TIP3    H137639   0.231   5.854   8.041
 5360TIP3    H237640   0.251   5.980   7.959
 5361TIP3   OH237641   3.849   2.990   0.593
 5361TIP3    H137642   3.797   3.029   0.523
 5361TIP3    H237643   3.927   3.045   0.599
 5362TIP3   OH237644   0.346   4.802   7.870
 5362TIP3    H137645   0.310   4.890   7.870
 5362TIP3    H237646   0.426   4.808   7.817
 5363TIP3   OH237647   3.142   1.765   7.619
 5363TIP3    H137648   3.165   1.675   7.599
 5363TIP3    H237649   3.225   1.807   7.641
 5364TIP3   OH237650   1.891   5.523   7.866
 5364TIP3    H137651   1.944   5.589   7.911
 5364TIP3    H237652   1.831   5.490   7.933
 5365TIP3   OH237653   5.384   1.706   2.143
 5365TIP3    H137654   5.452   1.765   2.177
 5365TIP3    H237655   5.426   1.621   2.139
 5366TIP3   OH237656   3.476   1.319   6.899
 5366TIP3    H137657   3.535   1.314   6.824
 5366TIP3    H237658   3.504   1.397   6.947
 5367TIP3   OH237659   1.014   2.683   0.408
 5367TIP3    H137660   1.011   2.589   0.428
 5367TIP3    H237661   1.086   2.717   0.461
 5368TIP3   OH237662   0.794   3.802   0.479
 5368TIP3    H137663   0.818   3.832   0.392
 5368TIP3    H237664   0.716   3.853   0.501
 5369TIP3   OH237665   1.367   3.646   8.609
 5369TIP3    H137666   1.342   3.589   0.029
 5369TIP3    H237667   1.447   3.690   8.640
 5370TIP3   OH237668   6.134   6.274   8.267
 5370TIP3    H137669   6.221   6.244   8.290
 5370TIP3    H237670   6.090   6.197   8.230
 5371TIP3   OH237671   1.408   5.818   0.122
 5371TIP3    H137672   1.329   5.872   0.123
 5371TIP3    H237673   1.476   5.875   0.159
 5372TIP3   OH237674   2.897   4.310   6.854
 5372TIP3    H137675   2.909   4.316   6.949
 5372TIP3    H237676   2.856   4.224   6.841
 5373TIP3   OH237677   3.588   0.857   7.455
 5373TIP3    H137678   3.608   0.912   7.531
 5373TIP3    H237679   3.673   0.839   7.415
 5374TIP3   OH237680   6.725   0.461   7.700
 5374TIP3    H137681   6.787   0.472   7.628
 5374TIP3    H237682   6.749   0.528   7.763
 5375TIP3   OH237683   4.934   0.823   0.127
 5375TIP3    H137684   4.922   0.910   0.165
 5375TIP3    H237685   4.868   0.817   0.058
 5376TIP3   OH237686   2.276   2.703   1.655
 5376TIP3    H137687   2.313   2.646   1.588
 5376TIP3    H237688   2.282   2.791   1.617
 5377TIP3   OH237689   4.394   6.512   1.531
 5377TIP3    H137690   4.334   6.586   1.532
 5377TIP3    H237691   4.347   6.443   1.485
 5378TIP3   OH237692   3.281   5.634   0.026
 5378TIP3    H137693   3.258   5.727   0.029
 5378TIP3    H237694   3.205   5.592   8.638
 5379TIP3   OH237695   5.781   2.271   8.360
 5379TIP3    H137696   5.812   2.193   8.315
 5379TIP3    H237697   5.802   2.255   8.453
 5380TIP3   OH237698   5.606   0.405   0.695
 5380TIP3    H137699   5.606   0.329   0.752
 5380TIP3    H237700   5.691   0.446   0.709
 5381TIP3   OH237701   6.023   3.500   7.770
 5381TIP3    H137702   6.002   3.593   7.772
 5381TIP3    H237703   5.945   3.458   7.733
 5382TIP3   OH237704   1.985   2.158   8.380
 5382TIP3    H137705   1.995   2.107   8.461
 5382TIP3    H237706   2.014   2.246   8.404
 5383TIP3   OH237707   6.444   6.247   0.139
 5383TIP3    H137708   6.511   6.208   0.194
 5383TIP3    H237709   6.383   6.175   0.120
 5384TIP3   OH237710   3.373   2.178   0.811
 5384TIP3    H137711   3.308   2.110   0.794
 5384TIP3    H237712   3.324   2.247   0.854
 5385TIP3   OH237713   6.135   5.109   1.811
 5385TIP3    H137714   6.091   5.177   1.759
 5385TIP3    H237715   6.121   5.136   1.902
 5386TIP3   OH237716   1.935   2.872   1.687
 5386TIP3    H137717   1.845   2.845   1.703
 5386TIP3    H237718   1.969   2.894   1.774
 5387TIP3   OH237719   6.627   1.877   8.591
 5387TIP3    H137720   6.675   1.822   8.529
 5387TIP3    H237721   6.692   1.902   0.006
 5388TIP3   OH237722   2.888   0.518   7.714
 5388TIP3    H137723   2.981   0.496   7.715
 5388TIP3    H237724   2.848   0.460   7.778
 5389TIP3   OH237725   1.484   5.699   8.134
 5389TIP3    H137726   1.422   5.758   8.091
 5389TIP3    H237727   1.552   5.684   8.068
 5390TIP3   OH237728   6.396   1.508   0.212
 5390TIP3    H137729   6.429   1.597   0.205
 5390TIP3    H237730   6.435   1.462   0.138
 5391TIP3   OH237731   5.725   1.995   6.872
 5391TIP3    H137732   5.687   1.975   6.787
 5391TIP3    H237733   5.697   2.085   6.891
 5392TIP3   OH237734   1.711   3.209   6.853
 5392TIP3    H137735   1.700   3.200   6.758
 5392TIP3    H237736   1.753   3.294   6.864
 5393TIP3   OH237737   3.478   2.750   8.148
 5393TIP3    H137738   3.418   2.676   8.150
 5393TIP3    H237739   3.421   2.827   8.139
 5394TIP3   OH237740   4.179   6.734   1.496
 5394TIP3    H137741   4.148   6.800   1.558
 5394TIP3    H237742   4.101   6.687   1.468
 5395TIP3   OH237743   3.882   5.716   1.266
 5395TIP3    H137744   3.862   5.694   1.175
 5395TIP3    H237745   3.935   5.796   1.260
 5396TIP3   OH237746   3.409   3.516   6.435
 5396TIP3    H137747   3.418   3.541   6.343
 5396TIP3    H237748   3.333   3.566   6.466
 5397TIP3   OH237749   0.501   2.376   2.295
 5397TIP3    H137750   0.482   2.426   2.374
 5397TIP3    H237751   0.508   2.442   2.226
 5398TIP3   OH237752   2.268   3.307   2.003
 5398TIP3    H137753   2.248   3.366   1.930
 5398TIP3    H237754   2.201   3.239   1.997
 5399TIP3   OH237755   2.075   6.440   7.898
 5399TIP3    H137756   2.161   6.401   7.912
 5399TIP3    H237757   2.039   6.393   7.823
 5400TIP3   OH237758   3.513   0.671   0.321
 5400TIP3    H137759   3.542   0.690   0.410
 5400TIP3    H237760   3.594   0.659   0.271
 5401TIP3   OH237761   5.412   1.294   1.721
 5401TIP3    H137762   5.455   1.218   1.682
 5401TIP3    H237763   5.419   1.280   1.815
 5402TIP3   OH237764   2.686   3.959   0.547
 5402TIP3    H137765   2.697   3.869   0.577
 5402TIP3    H237766   2.611   3.991   0.597
 5403TIP3   OH237767   4.967   5.287   0.216
 5403TIP3    H137768   5.009   5.265   0.299
 5403TIP3    H237769   5.038   5.320   0.161
 5404TIP3   OH237770   3.369   2.273   0.210
 5404TIP3    H137771   3.295   2.214   0.200
 5404TIP3    H237772   3.385   2.308   0.123
 5405TIP3   OH237773   2.788   2.205   1.730
 5405TIP3    H137774   2.748   2.201   1.644
 5405TIP3    H237775   2.734   2.147   1.784
 5406TIP3   OH237776   5.353   2.789   7.580
 5406TIP3    H137777   5.341   2.698   7.553
 5406TIP3    H237778   5.428   2.819   7.528
 5407TIP3   OH237779   6.789   5.989   8.178
 5407TIP3    H137780   6.748   6.042   8.110
 5407TIP3    H237781   6.749   5.902   8.168
 5408TIP3   OH237782   2.694   1.282   0.771
 5408TIP3    H137783   2.695   1.363   0.822
 5408TIP3    H237784   2.700   1.311   0.680
 5409TIP3   OH237785   2.631   2.848   7.373
 5409TIP3    H137786   2.664   2.937   7.378
 5409TIP3    H237787   2.709   2.792   7.371
 5410TIP3   OH237788   3.169   2.083   0.207
 5410TIP3    H137789   3.095   2.145   0.211
 5410TIP3    H237790   3.150   2.020   0.277
 5411TIP3   OH237791   5.166   1.128   1.755
 5411TIP3    H137792   5.081   1.163   1.781
 5411TIP3    H237793   5.227   1.161   1.821
 5412TIP3   OH237794   0.290   4.217   0.665
 5412TIP3    H137795   0.287   4.308   0.636
 5412TIP3    H237796   0.360   4.215   0.731
 5413TIP3   OH237797   0.263   4.972   0.839
 5413TIP3    H137798   0.253   5.007   0.927
 5413TIP3    H237799   0.333   4.908   0.846
 5414TIP3   OH237800   3.280   1.442   8.506
 5414TIP3    H137801   3.240   1.375   8.450
 5414TIP3    H237802   3.235   1.432   8.590
 5415TIP3   OH237803   1.067   4.265   7.682
 5415TIP3    H137804   1.137   4.200   7.692
 5415TIP3    H237805   0.986   4.215   7.690
 5416TIP3   OH237806   4.030   0.386   2.077
 5416TIP3    H137807   4.077   0.355   2.154
 5416TIP3    H237808   3.940   0.399   2.107
 5417TIP3   OH237809   1.294   5.884   6.181
 5417TIP3    H137810   1.334   5.797   6.183
 5417TIP3    H237811   1.346   5.933   6.117
 5418TIP3   OH237812   2.348   6.266   0.355
 5418TIP3    H137813   2.372   6.174   0.351
 5418TIP3    H237814   2.429   6.311   0.380
 5419TIP3   OH237815   4.986   5.745   0.763
 5419TIP3    H137816   4.990   5.820   0.822
 5419TIP3    H237817   5.066   5.751   0.711
 5420TIP3   OH237818   2.619   0.716   2.384
 5420TIP3    H137819   2.678   0.784   2.351
 5420TIP3    H237820   2.536   0.761   2.398
 5421TIP3   OH237821   1.750   2.809   7.049
 5421TIP3    H137822   1.686   2.795   6.979
 5421TIP3    H237823   1.720   2.751   7.120
 5422TIP3   OH237824   2.534   3.548   8.466
 5422TIP3    H137825   2.490   3.631   8.485
 5422TIP3    H237826   2.584   3.528   8.546
 5423TIP3   OH237827   3.268   5.143   8.232
 5423TIP3    H137828   3.354   5.114   8.201
 5423TIP3    H237829   3.215   5.064   8.232
 5424TIP3   OH237830   1.060   1.036   0.227
 5424TIP3    H137831   1.136   1.089   0.252
 5424TIP3    H237832   1.051   1.051   0.133
 5425TIP3   OH237833   1.169   3.052   8.393
 5425TIP3    H137834   1.173   3.147   8.404
 5425TIP3    H237835   1.203   3.016   8.475
 5426TIP3   OH237836   2.354   2.019   6.130
 5426TIP3    H137837   2.346   2.068   6.212
 5426TIP3    H237838   2.326   2.081   6.062
 5427TIP3   OH237839   4.764   3.887   7.895
 5427TIP3    H137840   4.701   3.919   7.958
 5427TIP3    H237841   4.767   3.792   7.911
 5428TIP3   OH237842   1.069   2.328   1.014
 5428TIP3    H137843   0.998   2.264   1.023
 5428TIP3    H237844   1.084   2.360   1.103
 5429TIP3   OH237845   4.535   3.699   8.000
 5429TIP3    H137846   4.574   3.724   8.084
 5429TIP3    H237847   4.465   3.763   7.987
 5430TIP3   OH237848   4.304   5.364   1.294
 5430TIP3    H137849   4.353   5.304   1.350
 5430TIP3    H237850   4.312   5.449   1.338
 5431TIP3   OH237851   3.691   0.968   0.476
 5431TIP3    H137852   3.627   1.038   0.490
 5431TIP3    H237853   3.642   0.888   0.492
 5432TIP3   OH237854   5.961   3.037   0.775
 5432TIP3    H137855   6.037   3.074   0.820
 5432TIP3    H237856   5.990   2.950   0.747
 5433TIP3   OH237857   0.856   2.887   7.473
 5433TIP3    H137858   0.853   2.903   7.379
 5433TIP3    H237859   0.825   2.968   7.512
 5434TIP3   OH237860   6.606   6.394   8.431
 5434TIP3    H137861   6.653   6.462   8.383
 5434TIP3    H237862   6.564   6.341   8.362
 5435TIP3   OH237863   4.738   4.005   1.979
 5435TIP3    H137864   4.680   3.933   2.003
 5435TIP3    H237865   4.700   4.082   2.021
 5436TIP3   OH237866   3.258   0.889   6.985
 5436TIP3    H137867   3.195   0.872   7.055
 5436TIP3    H237868   3.341   0.904   7.030
 5437TIP3   OH237869   0.363   1.890   7.281
 5437TIP3    H137870   0.420   1.860   7.352
 5437TIP3    H237871   0.376   1.984   7.278
 5438TIP3   OH237872   0.767   4.625   7.631
 5438TIP3    H137873   0.795   4.691   7.694
 5438TIP3    H237874   0.848   4.592   7.593
 5439TIP3   OH237875   0.589   5.758   0.963
 5439TIP3    H137876   0.611   5.787   1.052
 5439TIP3    H237877   0.537   5.678   0.977
 5440TIP3   OH237878   1.075   5.285   6.423
 5440TIP3    H137879   1.021   5.266   6.346
 5440TIP3    H237880   1.157   5.238   6.406
 5441TIP3   OH237881   5.260   0.742   8.386
 5441TIP3    H137882   5.238   0.708   8.472
 5441TIP3    H237883   5.355   0.745   8.384
 5442TIP3   OH237884   0.867   1.506   7.714
 5442TIP3    H137885   0.854   1.537   7.804
 5442TIP3    H237886   0.952   1.462   7.717
 5443TIP3   OH237887   3.405   0.663   7.735
 5443TIP3    H137888   3.447   0.740   7.773
 5443TIP3    H237889   3.351   0.627   7.805
 5444TIP3   OH237890   0.604   5.365   7.384
 5444TIP3    H137891   0.645   5.397   7.465
 5444TIP3    H237892   0.610   5.270   7.390
 5445TIP3   OH237893   5.860   6.430   1.495
 5445TIP3    H137894   5.799   6.420   1.568
 5445TIP3    H237895   5.804   6.426   1.417
 5446TIP3   OH237896   2.506   4.449   1.158
 5446TIP3    H137897   2.518   4.543   1.144
 5446TIP3    H237898   2.465   4.444   1.245
 5447TIP3   OH237899   3.516   0.345   0.724
 5447TIP3    H137900   3.484   0.387   0.645
 5447TIP3    H237901   3.586   0.287   0.693
 5448TIP3   OH237902   3.885   5.474   8.013
 5448TIP3    H137903   3.976   5.460   7.989
 5448TIP3    H237904   3.835   5.423   7.950
 5449TIP3   OH237905   1.314   0.452   7.234
 5449TIP3    H137906   1.220   0.457   7.246
 5449TIP3    H237907   1.328   0.371   7.184
 5450TIP3   OH237908   2.649   5.508   1.523
 5450TIP3    H137909   2.718   5.454   1.484
 5450TIP3    H237910   2.695   5.586   1.555
 5451TIP3   OH237911   5.226   5.732   0.651
 5451TIP3    H137912   5.253   5.800   0.589
 5451TIP3    H237913   5.286   5.659   0.633
 5452TIP3   OH237914   3.758   6.362   8.552
 5452TIP3    H137915   3.779   6.306   8.627
 5452TIP3    H237916   3.776   6.308   8.475
 5453TIP3   OH237917   5.060   1.998   0.047
 5453TIP3    H137918   5.079   2.000   0.141
 5453TIP3    H237919   5.131   2.048   0.007
 5454TIP3   OH237920   0.601   3.590   0.571
 5454TIP3    H137921   0.535   3.553   0.630
 5454TIP3    H237922   0.674   3.529   0.575
 5455TIP3   OH237923   2.399   0.410   7.901
 5455TIP3    H137924   2.337   0.477   7.932
 5455TIP3    H237925   2.400   0.345   7.971
 5456TIP3   OH237926   1.466   0.004   7.970
 5456TIP3    H137927   1.549   0.031   7.930
 5456TIP3    H237928   1.463   0.051   8.053
 5457TIP3   OH237929   3.704   1.791   7.561
 5457TIP3    H137930   3.674   1.875   7.597
 5457TIP3    H237931   3.648   1.726   7.603
 5458TIP3   OH237932   4.741   6.151   7.466
 5458TIP3    H137933   4.646   6.137   7.475
 5458TIP3    H237934   4.775   6.066   7.439
 5459TIP3   OH237935   2.816   0.545   0.970
 5459TIP3    H137936   2.723   0.524   0.980
 5459TIP3    H237937   2.819   0.605   0.896
 5460TIP3   OH237938   5.437   0.015   7.516
 5460TIP3    H137939   5.367   6.834   7.543
 5460TIP3    H237940   5.400   0.103   7.525
 5461TIP3   OH237941   0.698   6.216   0.954
 5461TIP3    H137942   0.715   6.141   1.011
 5461TIP3    H237943   0.605   6.234   0.965
 5462TIP3   OH237944   6.735   0.307   0.512
 5462TIP3    H137945   6.816   0.277   0.552
 5462TIP3    H237946   6.744   0.282   0.419
 5463TIP3   OH237947   5.515   2.597   0.624
 5463TIP3    H137948   5.552   2.536   0.560
 5463TIP3    H237949   5.462   2.543   0.682
 5464TIP3   OH237950   3.465   5.107   0.525
 5464TIP3    H137951   3.455   5.185   0.579
 5464TIP3    H237952   3.472   5.035   0.588
 5465TIP3   OH237953   1.226   1.926   7.472
 5465TIP3    H137954   1.154   1.894   7.418
 5465TIP3    H237955   1.190   2.003   7.517
 5466TIP3   OH237956   3.080   5.508   7.249
 5466TIP3    H137957   3.048   5.473   7.332
 5466TIP3    H237958   3.081   5.432   7.190
 5467TIP3   OH237959   4.103   0.447   7.829
 5467TIP3    H137960   4.037   0.516   7.825
 5467TIP3    H237961   4.146   0.460   7.914
 5468TIP3   OH237962   3.373   2.119   6.522
 5468TIP3    H137963   3.449   2.064   6.540
 5468TIP3    H237964   3.306   2.086   6.582
 5469TIP3   OH237965   0.143   4.890   7.305
 5469TIP3    H137966   0.128   4.853   7.218
 5469TIP3    H237967   0.063   4.937   7.325
 5470TIP3   OH237968   1.529   2.675   6.018
 5470TIP3    H137969   1.584   2.603   5.987
 5470TIP3    H237970   1.462   2.633   6.072
 5471TIP3   OH237971   4.323   5.876   7.232
 5471TIP3    H137972   4.345   5.916   7.148
 5471TIP3    H237973   4.404   5.882   7.283
 5472TIP3   OH237974   3.552   6.688   8.313
 5472TIP3    H137975   3.570   6.742   8.389
 5472TIP3    H237976   3.637   6.672   8.273
 5473TIP3   OH237977   4.269   3.926   8.451
 5473TIP3    H137978   4.332   3.870   8.407
 5473TIP3    H237979   4.244   3.991   8.386
 5474TIP3   OH237980   0.303   6.268   8.320
 5474TIP3    H137981   0.389   6.226   8.326
 5474TIP3    H237982   0.319   6.358   8.346
 5475TIP3   OH237983   5.059   4.826   1.139
 5475TIP3    H137984   4.987   4.771   1.108
 5475TIP3    H237985   5.021   4.914   1.145
 5476TIP3   OH237986   6.346   5.058   1.468
 5476TIP3    H137987   6.262   5.104   1.470
 5476TIP3    H237988   6.335   4.985   1.528
 5477TIP3   OH237989   4.919   6.597   7.436
 5477TIP3    H137990   4.943   6.520   7.489
 5477TIP3    H237991   4.915   6.563   7.346
 5478TIP3   OH237992   0.697   5.576   6.509
 5478TIP3    H137993   0.604   5.572   6.486
 5478TIP3    H237994   0.701   5.544   6.600
 5479TIP3   OH237995   5.738   0.590   0.194
 5479TIP3    H137996   5.806   0.562   0.132
 5479TIP3    H237997   5.700   0.668   0.154
 5480TIP3   OH237998   6.638   0.215   2.260
 5480TIP3    H137999   6.565   0.205   2.322
 5480TIP3    H238000   6.714   0.183   2.308
 5481TIP3   OH238001   5.638   6.528   7.090
 5481TIP3    H138002   5.732   6.527   7.073
 5481TIP3    H238003   5.616   6.437   7.111
 5482TIP3   OH238004   0.219   3.327   7.497
 5482TIP3    H138005   0.145   3.278   7.534
 5482TIP3    H238006   0.211   3.316   7.402
 5483TIP3   OH238007   0.971   2.691   7.180
 5483TIP3    H138008   0.882   2.675   7.211
 5483TIP3    H238009   0.985   2.624   7.113
 5484TIP3   OH238010   4.351   0.798   6.663
 5484TIP3    H138011   4.258   0.798   6.639
 5484TIP3    H238012   4.379   0.708   6.650
 5485TIP3   OH238013   1.092   3.246   7.341
 5485TIP3    H138014   1.127   3.307   7.276
 5485TIP3    H238015   1.043   3.181   7.290
 5486TIP3   OH238016   0.547   2.896   6.288
 5486TIP3    H138017   0.571   2.958   6.219
 5486TIP3    H238018   0.542   2.950   6.368
 5487TIP3   OH238019   5.791   1.814   0.889
 5487TIP3    H138020   5.883   1.838   0.882
 5487TIP3    H238021   5.761   1.805   0.798
 5488TIP3   OH238022   1.149   0.194   6.749
 5488TIP3    H138023   1.114   0.148   6.672
 5488TIP3    H238024   1.111   0.282   6.743
 5489TIP3   OH238025   2.667   1.275   1.189
 5489TIP3    H138026   2.590   1.235   1.150
 5489TIP3    H238027   2.684   1.223   1.267
 5490TIP3   OH238028   3.205   6.228   1.441
 5490TIP3    H138029   3.158   6.303   1.477
 5490TIP3    H238030   3.253   6.192   1.516
 5491TIP3   OH238031   1.700   1.935   0.071
 5491TIP3    H138032   1.754   1.915   8.646
 5491TIP3    H238033   1.692   1.852   0.118
 5492TIP3   OH238034   1.567   6.127   7.886
 5492TIP3    H138035   1.487   6.170   7.917
 5492TIP3    H238036   1.597   6.181   7.813
 5493TIP3   OH238037   6.557   4.896   0.424
 5493TIP3    H138038   6.578   4.973   0.477
 5493TIP3    H238039   6.467   4.874   0.447
 5494TIP3   OH238040   6.505   1.588   6.966
 5494TIP3    H138041   6.448   1.648   7.015
 5494TIP3    H238042   6.445   1.539   6.910
 5495TIP3   OH238043   0.728   1.628   1.186
 5495TIP3    H138044   0.717   1.536   1.164
 5495TIP3    H238045   0.816   1.634   1.224
 5496TIP3   OH238046   5.111   6.388   7.010
 5496TIP3    H138047   5.083   6.479   7.025
 5496TIP3    H238048   5.029   6.341   6.991
 5497TIP3   OH238049   1.412   6.252   0.154
 5497TIP3    H138050   1.390   6.341   0.183
 5497TIP3    H238051   1.357   6.195   0.208
 5498TIP3   OH238052   0.314   3.249   1.772
 5498TIP3    H138053   0.408   3.255   1.788
 5498TIP3    H238054   0.294   3.156   1.779
 5499TIP3   OH238055   4.537   0.990   6.611
 5499TIP3    H138056   4.503   1.054   6.549
 5499TIP3    H238057   4.483   0.912   6.598
 5500TIP3   OH238058   4.625   6.501   6.796
 5500TIP3    H138059   4.625   6.434   6.864
 5500TIP3    H238060   4.538   6.540   6.801
 5501TIP3   OH238061   0.395   6.339   0.958
 5501TIP3    H138062   0.336   6.379   0.894
 5501TIP3    H238063   0.371   6.246   0.957
 5502TIP3   OH238064   0.640   0.941   7.681
 5502TIP3    H138065   0.720   0.944   7.734
 5502TIP3    H238066   0.582   1.006   7.721
 5503TIP3   OH238067   6.187   4.720   7.228
 5503TIP3    H138068   6.098   4.697   7.256
 5503TIP3    H238069   6.207   4.657   7.159
 5504TIP3   OH238070   1.039   6.616   1.679
 5504TIP3    H138071   0.950   6.597   1.709
 5504TIP3    H238072   1.029   6.692   1.621
 5505TIP3   OH238073   1.029   2.356   8.192
 5505TIP3    H138074   0.942   2.375   8.225
 5505TIP3    H238075   1.076   2.319   8.266
 5506TIP3   OH238076   5.921   5.848   1.244
 5506TIP3    H138077   5.965   5.787   1.185
 5506TIP3    H238078   5.984   5.918   1.258
 5507TIP3   OH238079   5.258   0.179   1.282
 5507TIP3    H138080   5.190   0.244   1.302
 5507TIP3    H238081   5.317   0.225   1.222
 5508TIP3   OH238082   4.065   6.199   6.182
 5508TIP3    H138083   3.977   6.163   6.164
 5508TIP3    H238084   4.121   6.122   6.186
 5509TIP3   OH238085   1.935   4.109   7.947
 5509TIP3    H138086   2.019   4.064   7.953
 5509TIP3    H238087   1.870   4.040   7.960
 5510TIP3   OH238088   4.986   4.843   0.361
 5510TIP3    H138089   5.079   4.868   0.356
 5510TIP3    H238090   4.988   4.748   0.371
 5511TIP3   OH238091   4.996   5.659   1.812
 5511TIP3    H138092   5.089   5.641   1.802
 5511TIP3    H238093   4.970   5.608   1.889
 5512TIP3   OH238094   1.177   3.813   6.858
 5512TIP3    H138095   1.101   3.762   6.887
 5512TIP3    H238096   1.173   3.894   6.909
 5513TIP3   OH238097   1.951   3.764   1.131
 5513TIP3    H138098   1.883   3.697   1.134
 5513TIP3    H238099   1.907   3.842   1.096
 5514TIP3   OH238100   6.312   3.607   7.579
 5514TIP3    H138101   6.271   3.630   7.662
 5514TIP3    H238102   6.374   3.537   7.601
 5515TIP3   OH238103   3.837   1.569   2.048
 5515TIP3    H138104   3.840   1.496   1.986
 5515TIP3    H238105   3.917   1.559   2.101
 5516TIP3   OH238106   3.871   3.077   1.049
 5516TIP3    H138107   3.857   3.165   1.084
 5516TIP3    H238108   3.947   3.085   0.992
 5517TIP3   OH238109   2.540   3.277   1.939
 5517TIP3    H138110   2.446   3.269   1.956
 5517TIP3    H238111   2.576   3.309   2.021
 5518TIP3   OH238112   6.573   3.184   1.280
 5518TIP3    H138113   6.518   3.213   1.207
 5518TIP3    H238114   6.526   3.212   1.358
 5519TIP3   OH238115   4.422   5.979   6.998
 5519TIP3    H138116   4.515   5.958   6.983
 5519TIP3    H238117   4.390   6.004   6.912
 5520TIP3   OH238118   1.996   4.362   0.336
 5520TIP3    H138119   1.970   4.351   0.245
 5520TIP3    H238120   2.036   4.449   0.339
 5521TIP3   OH238121   5.777   4.940   1.616
 5521TIP3    H138122   5.835   4.884   1.667
 5521TIP3    H238123   5.756   5.012   1.676
 5522TIP3   OH238124   4.384   5.391   2.120
 5522TIP3    H138125   4.302   5.417   2.078
 5522TIP3    H238126   4.389   5.445   2.199
 5523TIP3   OH238127   5.566   3.035   8.556
 5523TIP3    H138128   5.607   3.097   8.494
 5523TIP3    H238129   5.624   2.959   8.555
 5524TIP3   OH238130   5.177   4.574   0.940
 5524TIP3    H138131   5.148   4.664   0.950
 5524TIP3    H238132   5.124   4.525   1.003
 5525TIP3   OH238133   5.098   1.870   7.168
 5525TIP3    H138134   5.117   1.960   7.194
 5525TIP3    H238135   5.054   1.878   7.084
 5526TIP3   OH238136   3.040   0.304   7.502
 5526TIP3    H138137   3.079   0.217   7.504
 5526TIP3    H238138   2.946   0.288   7.511
 5527TIP3   OH238139   4.069   3.865   6.583
 5527TIP3    H138140   4.050   3.949   6.542
 5527TIP3    H238141   4.111   3.814   6.514
 5528TIP3   OH238142   6.811   6.652   2.108
 5528TIP3    H138143   6.782   6.583   2.048
 5528TIP3    H238144   0.022   6.625   2.133
 5529TIP3   OH238145   4.088   6.057   1.455
 5529TIP3    H138146   4.158   5.993   1.446
 5529TIP3    H238147   4.030   6.019   1.522
 5530TIP3   OH238148   6.742   1.892   1.255
 5530TIP3    H138149   6.792   1.927   1.182
 5530TIP3    H238150   6.650   1.910   1.233
 5531TIP3   OH238151   4.076   4.047   8.010
 5531TIP3    H138152   4.009   4.093   7.960
 5531TIP3    H238153   4.029   3.975   8.052
 5532TIP3   OH238154   1.417   0.295   7.868
 5532TIP3    H138155   1.429   0.282   7.962
 5532TIP3    H238156   1.344   0.355   7.861
 5533TIP3   OH238157   4.843   1.686   1.160
 5533TIP3    H138158   4.784   1.620   1.196
 5533TIP3    H238159   4.790   1.766   1.157
 5534TIP3   OH238160   4.068   0.283   0.703
 5534TIP3    H138161   4.109   0.369   0.711
 5534TIP3    H238162   4.075   0.261   0.610
 5535TIP3   OH238163   2.103   0.912   6.868
 5535TIP3    H138164   2.088   0.987   6.810
 5535TIP3    H238165   2.020   0.899   6.913
 5536TIP3   OH238166   5.932   2.533   8.275
 5536TIP3    H138167   5.914   2.584   8.196
 5536TIP3    H238168   5.877   2.456   8.267
 5537TIP3   OH238169   2.511   3.469   0.983
 5537TIP3    H138170   2.552   3.493   1.066
 5537TIP3    H238171   2.562   3.393   0.952
 5538TIP3   OH238172   2.627   2.416   0.849
 5538TIP3    H138173   2.677   2.466   0.914
 5538TIP3    H238174   2.642   2.463   0.767
 5539TIP3   OH238175   0.628   4.351   8.637
 5539TIP3    H138176   0.692   4.393   0.044
 5539TIP3    H238177   0.667   4.355   8.550
 5540TIP3   OH238178   4.063   2.013   0.577
 5540TIP3    H138179   3.974   2.015   0.613
 5540TIP3    H238180   4.051   1.982   0.487
 5541TIP3   OH238181   4.153   5.384   8.035
 5541TIP3    H138182   4.204   5.444   8.089
 5541TIP3    H238183   4.200   5.380   7.952
 5542TIP3   OH238184   6.812   1.629   6.391
 5542TIP3    H138185   6.807   1.563   6.322
 5542TIP3    H238186   6.858   1.585   6.463
 5543TIP3   OH238187   6.109   6.239   6.865
 5543TIP3    H138188   6.194   6.207   6.895
 5543TIP3    H238189   6.046   6.175   6.897
 5544TIP3   OH238190   1.178   0.513   1.444
 5544TIP3    H138191   1.238   0.488   1.514
 5544TIP3    H238192   1.094   0.524   1.487
 5545TIP3   OH238193   1.360   5.303   7.929
 5545TIP3    H138194   1.313   5.370   7.979
 5545TIP3    H238195   1.390   5.349   7.850
 5546TIP3   OH238196   0.952   3.119   0.983
 5546TIP3    H138197   1.020   3.087   0.923
 5546TIP3    H238198   0.890   3.165   0.926
 5547TIP3   OH238199   1.017   6.380   2.215
 5547TIP3    H138200   1.086   6.317   2.236
 5547TIP3    H238201   1.060   6.465   2.217
 5548TIP3   OH238202   1.043   0.882   7.751
 5548TIP3    H138203   1.110   0.921   7.807
 5548TIP3    H238204   0.983   0.954   7.732
 5549TIP3   OH238205   4.249   1.588   1.237
 5549TIP3    H138206   4.314   1.545   1.182
 5549TIP3    H238207   4.205   1.650   1.179
 5550TIP3   OH238208   4.616   0.544   1.400
 5550TIP3    H138209   4.631   0.526   1.493
 5550TIP3    H238210   4.596   0.638   1.397
 5551TIP3   OH238211   3.133   3.540   8.175
 5551TIP3    H138212   3.058   3.599   8.169
 5551TIP3    H238213   3.208   3.594   8.149
 5552TIP3   OH238214   2.259   6.237   7.644
 5552TIP3    H138215   2.274   6.254   7.737
 5552TIP3    H238216   2.320   6.296   7.599
 5553TIP3   OH238217   3.328   1.084   0.030
 5553TIP3    H138218   3.283   1.044   8.606
 5553TIP3    H238219   3.379   1.012   0.068
 5554TIP3   OH238220   0.922   6.307   7.822
 5554TIP3    H138221   0.897   6.233   7.766
 5554TIP3    H238222   0.906   6.276   7.911
 5555TIP3   OH238223   3.893   5.170   0.242
 5555TIP3    H138224   3.812   5.219   0.225
 5555TIP3    H238225   3.874   5.118   0.320
 5556TIP3   OH238226   1.813   0.415   0.542
 5556TIP3    H138227   1.753   0.341   0.547
 5556TIP3    H238228   1.884   0.392   0.602
 5557TIP3   OH238229   4.318   1.051   7.081
 5557TIP3    H138230   4.379   1.023   7.012
 5557TIP3    H238231   4.360   1.023   7.163
 5558TIP3   OH238232   6.205   5.981   8.204
 5558TIP3    H138233   6.175   5.890   8.204
 5558TIP3    H238234   6.132   6.030   8.167
 5559TIP3   OH238235   3.802   2.497   8.306
 5559TIP3    H138236   3.827   2.424   8.249
 5559TIP3    H238237   3.748   2.457   8.375
 5560TIP3   OH238238   2.194   6.377   6.056
 5560TIP3    H138239   2.168   6.466   6.034
 5560TIP3    H238240   2.247   6.386   6.135
 5561TIP3   OH238241   3.517   6.751   2.107
 5561TIP3    H138242   3.455   6.687   2.142
 5561TIP3    H238243   3.555   6.793   2.184
 5562TIP3   OH238244   6.394   2.498   0.210
 5562TIP3    H138245   6.343   2.538   0.139
 5562TIP3    H238246   6.330   2.484   0.280
 5563TIP3   OH238247   5.017   6.677   2.246
 5563TIP3    H138248   5.049   6.620   2.177
 5563TIP3    H238249   4.958   6.738   2.201
 5564TIP3   OH238250   5.599   2.483   7.695
 5564TIP3    H138251   5.525   2.543   7.703
 5564TIP3    H238252   5.589   2.444   7.608
 5565TIP3   OH238253   1.011   0.326   8.177
 5565TIP3    H138254   0.967   0.348   8.095
 5565TIP3    H238255   1.071   0.255   8.154
 5566TIP3   OH238256   1.443   6.584   7.865
 5566TIP3    H138257   1.526   6.553   7.829
 5566TIP3    H238258   1.444   6.555   7.956
 5567TIP3   OH238259   3.518   4.695   7.132
 5567TIP3    H138260   3.534   4.694   7.038
 5567TIP3    H238261   3.446   4.759   7.143
 5568TIP3   OH238262   4.505   5.682   2.018
 5568TIP3    H138263   4.588   5.728   2.015
 5568TIP3    H238264   4.508   5.632   2.100
 5569TIP3   OH238265   3.758   0.191   1.112
 5569TIP3    H138266   3.818   0.118   1.099
 5569TIP3    H238267   3.671   0.153   1.099
 5570TIP3   OH238268   4.353   3.532   0.686
 5570TIP3    H138269   4.344   3.623   0.659
 5570TIP3    H238270   4.434   3.530   0.737
 5571TIP3   OH238271   4.911   0.683   2.016
 5571TIP3    H138272   4.941   0.715   2.101
 5571TIP3    H238273   4.864   0.757   1.978
 5572TIP3   OH238274   0.817   0.553   1.078
 5572TIP3    H138275   0.802   0.459   1.089
 5572TIP3    H238276   0.911   0.564   1.097
 5573TIP3   OH238277   4.601   0.531   7.083
 5573TIP3    H138278   4.680   0.554   7.035
 5573TIP3    H238279   4.628   0.461   7.143
 5574TIP3   OH238280   6.541   2.440   1.527
 5574TIP3    H138281   6.551   2.394   1.443
 5574TIP3    H238282   6.623   2.424   1.573
 5575TIP3   OH238283   1.470   6.555   8.156
 5575TIP3    H138284   1.445   6.645   8.134
 5575TIP3    H238285   1.395   6.520   8.204
 5576TIP3   OH238286   1.093   1.428   7.373
 5576TIP3    H138287   1.097   1.335   7.397
 5576TIP3    H238288   1.105   1.429   7.278
 5577TIP3   OH238289   2.983   6.756   8.021
 5577TIP3    H138290   3.033   6.699   8.080
 5577TIP3    H238291   2.990   6.714   7.935
 5578TIP3   OH238292   3.422   0.116   2.473
 5578TIP3    H138293   3.368   0.180   2.519
 5578TIP3    H238294   3.485   0.169   2.424
 5579TIP3   OH238295   3.210   2.999   7.499
 5579TIP3    H138296   3.119   3.000   7.529
 5579TIP3    H238297   3.221   3.083   7.453
 5580TIP3   OH238298   3.415   6.593   8.092
 5580TIP3    H138299   3.455   6.610   8.178
 5580TIP3    H238300   3.485   6.608   8.029
 5581TIP3   OH238301   6.258   0.358   7.781
 5581TIP3    H138302   6.351   0.381   7.789
 5581TIP3    H238303   6.251   0.310   7.699
 5582TIP3   OH238304   6.471   4.067   7.566
 5582TIP3    H138305   6.466   4.162   7.575
 5582TIP3    H238306   6.383   4.036   7.587
 5583TIP3   OH238307   0.616   3.128   7.923
 5583TIP3    H138308   0.666   3.139   7.842
 5583TIP3    H238309   0.530   3.166   7.903
 5584TIP3   OH238310   3.585   6.659   0.011
 5584TIP3    H138311   3.627   6.648   0.096
 5584TIP3    H238312   3.606   6.579   8.614
 5585TIP3   OH238313   4.021   2.724   1.547
 5585TIP3    H138314   3.984   2.666   1.480
 5585TIP3    H238315   4.098   2.678   1.579
 5586TIP3   OH238316   4.958   5.702   7.623
 5586TIP3    H138317   5.034   5.704   7.682
 5586TIP3    H238318   4.962   5.616   7.581
 5587TIP3   OH238319   2.628   4.270   1.594
 5587TIP3    H138320   2.649   4.237   1.506
 5587TIP3    H238321   2.537   4.298   1.589
 5588TIP3   OH238322   6.059   6.654   0.800
 5588TIP3    H138323   6.044   6.748   0.792
 5588TIP3    H238324   5.992   6.615   0.744
 5589TIP3   OH238325   0.018   3.493   0.108
 5589TIP3    H138326   6.875   3.409   0.149
 5589TIP3    H238327   6.828   3.505   0.042
 5590TIP3   OH238328   0.056   6.428   7.484
 5590TIP3    H138329   0.118   6.462   7.420
 5590TIP3    H238330   0.111   6.392   7.554
 5591TIP3   OH238331   5.003   1.285   1.246
 5591TIP3    H138332   5.036   1.363   1.201
 5591TIP3    H238333   5.036   1.295   1.336
 5592TIP3   OH238334   5.758   5.014   6.835
 5592TIP3    H138335   5.688   4.973   6.783
 5592TIP3    H238336   5.754   5.107   6.812
 5593TIP3   OH238337   0.235   1.484   0.217
 5593TIP3    H138338   0.286   1.542   0.274
 5593TIP3    H238339   0.151   1.529   0.206
 5594TIP3   OH238340   4.495   0.302   0.556
 5594TIP3    H138341   4.504   0.267   0.645
 5594TIP3    H238342   4.432   0.244   0.514
 5595TIP3   OH238343   5.387   3.862   0.313
 5595TIP3    H138344   5.417   3.864   0.404
 5595TIP3    H238345   5.445   3.799   0.271
 5596TIP3   OH238346   3.073   1.135   0.706
 5596TIP3    H138347   3.007   1.201   0.684
 5596TIP3    H238348   3.151   1.161   0.657
 5597TIP3   OH238349   0.236   6.417   1.263
 5597TIP3    H138350   0.297   6.345   1.283
 5597TIP3    H238351   0.214   6.454   1.348
 5598TIP3   OH238352   6.473   3.471   0.882
 5598TIP3    H138353   6.530   3.494   0.956
 5598TIP3    H238354   6.512   3.392   0.845
 5599TIP3   OH238355   4.207   1.341   1.958
 5599TIP3    H138356   4.178   1.429   1.933
 5599TIP3    H238357   4.230   1.349   2.050
 5600TIP3   OH238358   4.566   5.004   0.350
 5600TIP3    H138359   4.542   4.935   0.412
 5600TIP3    H238360   4.642   4.968   0.303
 5601TIP3   OH238361   1.925   6.418   1.579
 5601TIP3    H138362   1.969   6.493   1.539
 5601TIP3    H238363   1.837   6.418   1.542
 5602TIP3   OH238364   0.284   1.177   0.950
 5602TIP3    H138365   0.325   1.256   0.915
 5602TIP3    H238366   0.311   1.108   0.890
 5603TIP3   OH238367   0.786   3.896   1.091
 5603TIP3    H138368   0.746   3.869   1.008
 5603TIP3    H238369   0.773   3.821   1.149
 5604TIP3   OH238370   5.708   5.014   0.202
 5604TIP3    H138371   5.659   5.085   0.161
 5604TIP3    H238372   5.703   4.942   0.138
 5605TIP3   OH238373   4.129   5.551   0.758
 5605TIP3    H138374   4.077   5.598   0.692
 5605TIP3    H238375   4.079   5.470   0.772
 5606TIP3   OH238376   3.040   4.947   8.623
 5606TIP3    H138377   3.029   4.961   0.067
 5606TIP3    H238378   2.959   4.903   8.597
 5607TIP3   OH238379   6.842   4.210   6.602
 5607TIP3    H138380   6.769   4.166   6.559
 5607TIP3    H238381   6.817   4.302   6.605
 5608TIP3   OH238382   6.599   0.069   2.561
 5608TIP3    H138383   6.560   0.041   2.643
 5608TIP3    H238384   6.525   0.087   2.503
 5609TIP3   OH238385   4.054   0.840   6.644
 5609TIP3    H138386   3.974   0.844   6.697
 5609TIP3    H238387   4.046   0.760   6.593
 5610TIP3   OH238388   4.975   0.521   8.435
 5610TIP3    H138389   4.937   0.441   8.472
 5610TIP3    H238390   5.064   0.495   8.410
 5611TIP3   OH238391   1.460   0.964   0.870
 5611TIP3    H138392   1.449   0.912   0.790
 5611TIP3    H238393   1.551   0.949   0.896
 5612TIP3   OH238394   3.508   0.890   0.103
 5612TIP3    H138395   3.581   0.893   0.165
 5612TIP3    H238396   3.474   0.801   0.111
 5613TIP3   OH238397   0.058   5.516   7.435
 5613TIP3    H138398   0.115   5.584   7.473
 5613TIP3    H238399   0.113   5.474   7.369
 5614TIP3   OH238400   2.096   1.438   0.148
 5614TIP3    H138401   2.071   1.346   0.158
 5614TIP3    H238402   2.177   1.436   0.097
 5615TIP3   OH238403   5.060   2.178   0.276
 5615TIP3    H138404   4.975   2.139   0.256
 5615TIP3    H238405   5.109   2.108   0.320
 5616TIP3   OH238406   4.790   0.163   6.688
 5616TIP3    H138407   4.802   0.203   6.602
 5616TIP3    H238408   4.878   0.164   6.727
 5617TIP3   OH238409   6.119   1.572   7.194
 5617TIP3    H138410   6.089   1.562   7.103
 5617TIP3    H238411   6.039   1.584   7.245
 5618TIP3   OH238412   5.749   6.200   6.874
 5618TIP3    H138413   5.777   6.114   6.906
 5618TIP3    H238414   5.656   6.205   6.899
 5619TIP3   OH238415   3.684   1.764   7.134
 5619TIP3    H138416   3.645   1.852   7.138
 5619TIP3    H238417   3.656   1.722   7.215
 5620TIP3   OH238418   0.450   4.484   6.744
 5620TIP3    H138419   0.447   4.391   6.766
 5620TIP3    H238420   0.377   4.523   6.791
 5621TIP3   OH238421   1.969   1.386   8.347
 5621TIP3    H138422   1.939   1.324   8.413
 5621TIP3    H238423   2.047   1.426   8.385
 5622TIP3   OH238424   0.391   4.519   0.960
 5622TIP3    H138425   0.409   4.433   0.924
 5622TIP3    H238426   0.390   4.506   1.054
 5623TIP3   OH238427   0.117   5.746   1.692
 5623TIP3    H138428   0.195   5.691   1.701
 5623TIP3    H238429   0.090   5.763   1.783
 5624TIP3   OH238430   3.491   6.198   6.446
 5624TIP3    H138431   3.410   6.210   6.495
 5624TIP3    H238432   3.515   6.107   6.462
 5625TIP3   OH238433   1.878   4.799   1.941
 5625TIP3    H138434   1.845   4.727   1.994
 5625TIP3    H238435   1.917   4.757   1.865
 5626TIP3   OH238436   2.350   0.065   7.161
 5626TIP3    H138437   2.273   0.009   7.164
 5626TIP3    H238438   2.424   0.005   7.168
 5627TIP3   OH238439   0.837   2.322   6.874
 5627TIP3    H138440   0.796   2.392   6.924
 5627TIP3    H238441   0.766   2.283   6.824
 5628TIP3   OH238442   6.571   0.061   8.511
 5628TIP3    H138443   6.594   6.860   8.560
 5628TIP3    H238444   6.511   0.109   8.568
 5629TIP3   OH238445   1.791   5.373   1.507
 5629TIP3    H138446   1.732   5.340   1.440
 5629TIP3    H238447   1.826   5.295   1.550
 5630TIP3   OH238448   0.664   2.341   6.448
 5630TIP3    H138449   0.666   2.246   6.460
 5630TIP3    H238450   0.738   2.374   6.500
 5631TIP3   OH238451   5.044   3.705   1.816
 5631TIP3    H138452   5.136   3.697   1.842
 5631TIP3    H238453   5.027   3.627   1.763
 5632TIP3   OH238454   4.782   6.736   6.921
 5632TIP3    H138455   4.820   6.718   6.835
 5632TIP3    H238456   4.696   6.773   6.903
 5633TIP3   OH238457   2.323   0.012   6.480
 5633TIP3    H138458   2.247   0.069   6.478
 5633TIP3    H238459   2.300   6.821   6.543
 5634TIP3   OH238460   4.914   3.007   8.402
 5634TIP3    H138461   5.009   2.996   8.411
 5634TIP3    H238462   4.877   2.929   8.444
 5635TIP3   OH238463   6.148   3.512   1.286
 5635TIP3    H138464   6.176   3.543   1.372
 5635TIP3    H238465   6.105   3.588   1.246
 5636TIP3   OH238466   3.443   5.451   6.753
 5636TIP3    H138467   3.391   5.524   6.720
 5636TIP3    H238468   3.404   5.429   6.838
 5637TIP3   OH238469   0.895   1.750   7.570
 5637TIP3    H138470   0.968   1.716   7.518
 5637TIP3    H238471   0.876   1.679   7.632
 5638TIP3   OH238472   4.106   4.011   6.979
 5638TIP3    H138473   4.181   3.954   6.963
 5638TIP3    H238474   4.145   4.097   6.998
 5639TIP3   OH238475   5.258   0.247   7.457
 5639TIP3    H138476   5.188   0.204   7.505
 5639TIP3    H238477   5.241   0.225   7.365
 5640TIP3   OH238478   0.834   2.050   7.560
 5640TIP3    H138479   0.894   2.066   7.633
 5640TIP3    H238480   0.859   1.964   7.527
 5641TIP3   OH238481   2.067   4.581   0.007
 5641TIP3    H138482   2.146   4.543   0.046
 5641TIP3    H238483   2.037   4.516   8.595
 5642TIP3   OH238484   6.020   5.540   0.693
 5642TIP3    H138485   6.059   5.453   0.699
 5642TIP3    H238486   5.965   5.548   0.771
 5643TIP3   OH238487   6.272   6.585   2.390
 5643TIP3    H138488   6.188   6.586   2.437
 5643TIP3    H238489   6.275   6.669   2.345
 5644TIP3   OH238490   0.862   4.263   1.619
 5644TIP3    H138491   0.850   4.307   1.703
 5644TIP3    H238492   0.836   4.173   1.636
 5645TIP3   OH238493   6.103   0.004   7.375
 5645TIP3    H138494   6.062   6.803   7.410
 5645TIP3    H238495   6.124   6.860   7.284
 5646TIP3   OH238496   2.025   2.647   7.070
 5646TIP3    H138497   1.987   2.674   7.154
 5646TIP3    H238498   2.076   2.569   7.091
 5647TIP3   OH238499   1.391   5.046   0.378
 5647TIP3    H138500   1.416   5.102   0.452
 5647TIP3    H238501   1.313   5.088   0.342
 5648TIP3   OH238502   2.120   3.064   1.122
 5648TIP3    H138503   2.124   2.972   1.149
 5648TIP3    H238504   2.040   3.071   1.070
 5649TIP3   OH238505   2.602   1.943   0.207
 5649TIP3    H138506   2.552   2.016   0.171
 5649TIP3    H238507   2.631   1.894   0.130
 5650TIP3   OH238508   3.517   0.478   6.412
 5650TIP3    H138509   3.587   0.420   6.440
 5650TIP3    H238510   3.562   0.548   6.363
 5651TIP3   OH238511   5.589   5.509   7.185
 5651TIP3    H138512   5.576   5.485   7.094
 5651TIP3    H238513   5.638   5.591   7.182
 5652TIP3   OH238514   3.517   0.075   0.983
 5652TIP3    H138515   3.546   0.010   0.918
 5652TIP3    H238516   3.455   0.028   1.038
 5653TIP3   OH238517   0.620   4.964   0.988
 5653TIP3    H138518   0.688   4.897   1.001
 5653TIP3    H238519   0.656   5.043   1.027
 5654TIP3   OH238520   0.263   4.131   7.684
 5654TIP3    H138521   0.322   4.109   7.612
 5654TIP3    H238522   0.258   4.051   7.736
 5655TIP3   OH238523   1.361   2.990   0.884
 5655TIP3    H138524   1.322   3.001   0.797
 5655TIP3    H238525   1.447   2.950   0.867
 5656TIP3   OH238526   2.348   4.171   7.152
 5656TIP3    H138527   2.370   4.235   7.220
 5656TIP3    H238528   2.432   4.150   7.111
 5657TIP3   OH238529   2.927   5.310   6.526
 5657TIP3    H138530   2.928   5.262   6.609
 5657TIP3    H238531   2.888   5.248   6.463
 5658TIP3   OH238532   2.808   6.423   8.031
 5658TIP3    H138533   2.827   6.345   8.083
 5658TIP3    H238534   2.891   6.447   7.990
 5659TIP3   OH238535   3.171   2.789   8.019
 5659TIP3    H138536   3.206   2.860   8.073
 5659TIP3    H238537   3.131   2.729   8.082
 5660TIP3   OH238538   2.136   5.830   6.742
 5660TIP3    H138539   2.208   5.851   6.682
 5660TIP3    H238540   2.177   5.831   6.829
 5661TIP3   OH238541   4.303   6.759   7.399
 5661TIP3    H138542   4.354   6.839   7.412
 5661TIP3    H238543   4.213   6.785   7.419
 5662TIP3   OH238544   6.035   6.278   1.370
 5662TIP3    H138545   5.989   6.194   1.370
 5662TIP3    H238546   5.977   6.337   1.418
 5663TIP3   OH238547   5.474   6.318   7.321
 5663TIP3    H138548   5.421   6.308   7.242
 5663TIP3    H238549   5.415   6.359   7.385
 5664TIP3   OH238550   3.778   1.107   1.809
 5664TIP3    H138551   3.865   1.101   1.769
 5664TIP3    H238552   3.718   1.102   1.736
 5665TIP3   OH238553   4.624   3.974   1.272
 5665TIP3    H138554   4.706   3.927   1.256
 5665TIP3    H238555   4.569   3.911   1.319
 5666TIP3   OH238556   5.021   6.263   7.859
 5666TIP3    H138557   5.092   6.234   7.802
 5666TIP3    H238558   4.985   6.340   7.815
 5667TIP3   OH238559   3.895   3.244   1.605
 5667TIP3    H138560   3.855   3.202   1.529
 5667TIP3    H238561   3.821   3.273   1.658
 5668TIP3   OH238562   4.715   2.101   6.919
 5668TIP3    H138563   4.800   2.091   6.964
 5668TIP3    H238564   4.715   2.032   6.854
 5669TIP3   OH238565   5.923   1.552   7.662
 5669TIP3    H138566   5.876   1.601   7.730
 5669TIP3    H238567   6.012   1.544   7.696
 5670TIP3   OH238568   2.256   0.814   0.006
 5670TIP3    H138569   2.323   0.746   0.002
 5670TIP3    H238570   2.267   0.853   0.093
 5671TIP3   OH238571   1.710   4.945   1.188
 5671TIP3    H138572   1.689   5.034   1.160
 5671TIP3    H238573   1.724   4.897   1.106
 5672TIP3   OH238574   2.240   0.745   7.061
 5672TIP3    H138575   2.272   0.686   6.993
 5672TIP3    H238576   2.178   0.802   7.016
 5673TIP3   OH238577   3.288   0.743   2.322
 5673TIP3    H138578   3.291   0.839   2.326
 5673TIP3    H238579   3.199   0.723   2.291
 5674TIP3   OH238580   0.663   0.596   7.896
 5674TIP3    H138581   0.611   0.657   7.947
 5674TIP3    H238582   0.747   0.639   7.884
 5675TIP3   OH238583   6.448   2.352   2.135
 5675TIP3    H138584   6.475   2.339   2.226
 5675TIP3    H238585   6.490   2.280   2.087
 5676TIP3   OH238586   0.801   0.923   1.970
 5676TIP3    H138587   0.714   0.919   2.009
 5676TIP3    H238588   0.828   1.014   1.979
 5677TIP3   OH238589   1.957   4.858   1.029
 5677TIP3    H138590   1.884   4.908   0.992
 5677TIP3    H238591   2.010   4.924   1.074
 5678TIP3   OH238592   0.391   3.416   0.735
 5678TIP3    H138593   0.343   3.334   0.746
 5678TIP3    H238594   0.330   3.475   0.691
 5679TIP3   OH238595   3.355   6.830   7.069
 5679TIP3    H138596   3.351   0.039   7.028
 5679TIP3    H238597   3.312   6.842   7.153
 5680TIP3   OH238598   5.815   4.947   6.352
 5680TIP3    H138599   5.797   5.041   6.351
 5680TIP3    H238600   5.730   4.906   6.338
 5681TIP3   OH238601   2.042   1.482   7.012
 5681TIP3    H138602   2.133   1.506   7.028
 5681TIP3    H238603   2.012   1.543   6.945
 5682TIP3   OH238604   6.859   5.778   0.724
 5682TIP3    H138605   6.792   5.782   0.657
 5682TIP3    H238606   0.037   5.854   0.707
 5683TIP3   OH238607   3.425   3.210   8.075
 5683TIP3    H138608   3.371   3.258   8.138
 5683TIP3    H238609   3.477   3.278   8.033
 5684TIP3   OH238610   6.583   1.377   0.043
 5684TIP3    H138611   6.576   1.282   0.035
 5684TIP3    H238612   6.611   1.391   0.134
 5685TIP3   OH238613   1.911   0.110   7.166
 5685TIP3    H138614   1.955   0.170   7.106
 5685TIP3    H238615   1.865   0.167   7.227
 5686TIP3   OH238616   4.797   1.770   2.130
 5686TIP3    H138617   4.788   1.865   2.123
 5686TIP3    H238618   4.880   1.751   2.085
 5687TIP3   OH238619   6.194   5.688   1.323
 5687TIP3    H138620   6.246   5.765   1.345
 5687TIP3    H238621   6.116   5.695   1.378
 5688TIP3   OH238622   3.862   3.287   0.141
 5688TIP3    H138623   3.911   3.366   0.121
 5688TIP3    H238624   3.839   3.251   0.056
 5689TIP3   OH238625   1.199   6.599   7.626
 5689TIP3    H138626   1.108   6.628   7.633
 5689TIP3    H238627   1.197   6.507   7.653
 5690TIP3   OH238628   5.436   6.675   6.828
 5690TIP3    H138629   5.391   6.752   6.792
 5690TIP3    H238630   5.419   6.606   6.764
 5691TIP3   OH238631   2.548   1.927   0.857
 5691TIP3    H138632   2.611   1.921   0.785
 5691TIP3    H238633   2.463   1.916   0.815
 5692TIP3   OH238634   6.684   6.006   1.629
 5692TIP3    H138635   6.617   5.937   1.628
 5692TIP3    H238636   6.707   6.016   1.721
 5693TIP3   OH238637   0.171   0.338   2.633
 5693TIP3    H138638   0.187   0.248   2.660
 5693TIP3    H238639   0.191   0.391   2.710
 5694TIP3   OH238640   6.783   5.232   1.186
 5694TIP3    H138641   6.697   5.250   1.222
 5694TIP3    H238642   6.790   5.288   1.109
 5695TIP3   OH238643   3.709   1.919   0.391
 5695TIP3    H138644   3.727   1.828   0.368
 5695TIP3    H238645   3.671   1.957   0.311
 5696TIP3   OH238646   3.379   5.656   2.325
 5696TIP3    H138647   3.423   5.590   2.272
 5696TIP3    H238648   3.443   5.680   2.392
 5697TIP3   OH238649   0.898   6.573   6.813
 5697TIP3    H138650   0.977   6.616   6.780
 5697TIP3    H238651   0.927   6.525   6.890
 5698TIP3   OH238652   6.604   5.667   0.183
 5698TIP3    H138653   6.514   5.637   0.172
 5698TIP3    H238654   6.646   5.650   0.099
 5699TIP3   OH238655   1.323   3.503   0.590
 5699TIP3    H138656   1.301   3.596   0.586
 5699TIP3    H238657   1.255   3.460   0.538
 5700TIP3   OH238658   2.041   4.608   0.774
 5700TIP3    H138659   2.134   4.615   0.751
 5700TIP3    H238660   2.024   4.685   0.829
 5701TIP3   OH238661   6.463   2.126   7.025
 5701TIP3    H138662   6.474   2.125   6.930
 5701TIP3    H238663   6.443   2.035   7.048
 5702TIP3   OH238664   3.164   1.424   1.094
 5702TIP3    H138665   3.095   1.378   1.143
 5702TIP3    H238666   3.117   1.485   1.038
 5703TIP3   OH238667   2.845   6.574   8.422
 5703TIP3    H138668   2.812   6.634   8.356
 5703TIP3    H238669   2.890   6.631   8.485
 5704TIP3   OH238670   2.397   6.361   6.238
 5704TIP3    H138671   2.459   6.431   6.258
 5704TIP3    H238672   2.447   6.280   6.248
 5705TIP3   OH238673   4.782   1.045   6.689
 5705TIP3    H138674   4.829   0.979   6.638
 5705TIP3    H238675   4.690   1.026   6.674
 5706TIP3   OH238676   1.340   4.071   6.510
 5706TIP3    H138677   1.362   4.022   6.432
 5706TIP3    H238678   1.249   4.047   6.529
 5707TIP3   OH238679   5.541   4.884   6.617
 5707TIP3    H138680   5.471   4.826   6.587
 5707TIP3    H238681   5.515   4.970   6.586
 5708TIP3   OH238682   1.153   1.780   7.018
 5708TIP3    H138683   1.146   1.856   7.075
 5708TIP3    H238684   1.221   1.726   7.058
 5709TIP3   OH238685   4.723   3.418   8.165
 5709TIP3    H138686   4.781   3.379   8.231
 5709TIP3    H238687   4.782   3.467   8.108
 5710TIP3   OH238688   5.097   6.375   6.660
 5710TIP3    H138689   5.192   6.373   6.660
 5710TIP3    H238690   5.073   6.408   6.746
 5711TIP3   OH238691   0.626   3.517   1.864
 5711TIP3    H138692   0.596   3.592   1.814
 5711TIP3    H238693   0.656   3.554   1.948
 5712TIP3   OH238694   2.571   3.859   8.069
 5712TIP3    H138695   2.562   3.777   8.117
 5712TIP3    H238696   2.542   3.838   7.980
 5713TIP3   OH238697   5.923   4.681   6.881
 5713TIP3    H138698   5.915   4.594   6.921
 5713TIP3    H238699   5.843   4.690   6.828
 5714TIP3   OH238700   5.150   2.813   8.620
 5714TIP3    H138701   5.116   2.774   8.540
 5714TIP3    H238702   5.078   2.805   0.033
 5715TIP3   OH238703   6.667   0.496   6.330
 5715TIP3    H138704   6.655   0.470   6.422
 5715TIP3    H238705   6.689   0.414   6.285
 5716TIP3   OH238706   5.806   6.380   0.309
 5716TIP3    H138707   5.753   6.446   0.265
 5716TIP3    H238708   5.750   6.347   0.379
 5717TIP3   OH238709   3.202   4.181   2.218
 5717TIP3    H138710   3.253   4.188   2.299
 5717TIP3    H238711   3.176   4.271   2.199
 5718TIP3   OH238712   4.767   0.996   1.122
 5718TIP3    H138713   4.791   0.965   1.035
 5718TIP3    H238714   4.845   0.981   1.175
 5719TIP3   OH238715   4.198   1.178   7.945
 5719TIP3    H138716   4.152   1.222   8.016
 5719TIP3    H238717   4.142   1.105   7.920
 5720TIP3   OH238718   2.301   4.353   7.834
 5720TIP3    H138719   2.235   4.300   7.789
 5720TIP3    H238720   2.385   4.316   7.807
 5721TIP3   OH238721   0.562   2.343   0.906
 5721TIP3    H138722   0.631   2.370   0.966
 5721TIP3    H238723   0.483   2.388   0.936
 5722TIP3   OH238724   5.729   2.858   7.183
 5722TIP3    H138725   5.790   2.785   7.174
 5722TIP3    H238726   5.782   2.936   7.163
 5723TIP3   OH238727   5.956   0.748   1.512
 5723TIP3    H138728   5.948   0.744   1.417
 5723TIP3    H238729   6.045   0.781   1.527
 5724TIP3   OH238730   1.489   5.783   1.643
 5724TIP3    H138731   1.394   5.787   1.652
 5724TIP3    H238732   1.521   5.767   1.732
 5725TIP3   OH238733   3.485   6.864   7.779
 5725TIP3    H138734   3.571   0.019   7.751
 5725TIP3    H238735   3.479   6.777   7.740
 5726TIP3   OH238736   0.137   3.871   7.388
 5726TIP3    H138737   0.174   3.936   7.329
 5726TIP3    H238738   0.062   3.915   7.428
 5727TIP3   OH238739   4.403   6.660   6.856
 5727TIP3    H138740   4.317   6.682   6.893
 5727TIP3    H238741   4.457   6.737   6.871
 5728TIP3   OH238742   6.161   1.173   1.080
 5728TIP3    H138743   6.132   1.255   1.039
 5728TIP3    H238744   6.158   1.109   1.009
 5729TIP3   OH238745   0.498   0.082   6.694
 5729TIP3    H138746   0.584   0.075   6.655
 5729TIP3    H238747   0.498   0.168   6.737
 5730TIP3   OH238748   5.673   0.005   7.630
 5730TIP3    H138749   5.733   0.019   7.557
 5730TIP3    H238750   5.586   6.878   7.590
 5731TIP3   OH238751   0.592   1.390   6.793
 5731TIP3    H138752   0.504   1.403   6.828
 5731TIP3    H238753   0.594   1.441   6.712
 5732TIP3   OH238754   5.755   4.725   0.977
 5732TIP3    H138755   5.677   4.671   0.966
 5732TIP3    H238756   5.745   4.764   1.064
 5733TIP3   OH238757   4.109   1.704   6.558
 5733TIP3    H138758   4.074   1.680   6.472
 5733TIP3    H238759   4.204   1.693   6.549
 5734TIP3   OH238760   5.262   5.420   6.693
 5734TIP3    H138761   5.347   5.387   6.723
 5734TIP3    H238762   5.214   5.439   6.773
 5735TIP3   OH238763   1.447   2.109   7.154
 5735TIP3    H138764   1.526   2.067   7.189
 5735TIP3    H238765   1.374   2.065   7.199
 5736TIP3   OH238766   6.310   5.029   7.005
 5736TIP3    H138767   6.257   4.979   6.943
 5736TIP3    H238768   6.378   5.070   6.951
 5737TIP3   OH238769   0.377   0.350   0.393
 5737TIP3    H138770   0.458   0.385   0.430
 5737TIP3    H238771   0.365   0.266   0.437
 5738TIP3   OH238772   3.579   1.728   0.898
 5738TIP3    H138773   3.602   1.800   0.840
 5738TIP3    H238774   3.556   1.771   0.981
 5739TIP3   OH238775   3.728   2.552   7.542
 5739TIP3    H138776   3.637   2.581   7.544
 5739TIP3    H238777   3.765   2.593   7.464
 5740TIP3   OH238778   2.467   0.385   6.061
 5740TIP3    H138779   2.459   0.472   6.023
 5740TIP3    H238780   2.426   0.392   6.147
 5741TIP3   OH238781   1.158   3.995   0.398
 5741TIP3    H138782   1.199   3.910   0.412
 5741TIP3    H238783   1.087   3.978   0.337
 5742TIP3   OH238784   6.569   6.242   7.398
 5742TIP3    H138785   6.655   6.213   7.369
 5742TIP3    H238786   6.583   6.273   7.487
 5743TIP3   OH238787   2.140   3.775   0.915
 5743TIP3    H138788   2.052   3.752   0.885
 5743TIP3    H238789   2.136   3.763   1.010
 5744TIP3   OH238790   6.873   4.386   1.279
 5744TIP3    H138791   6.843   4.440   1.206
 5744TIP3    H238792   0.086   4.413   1.293
 5745TIP3   OH238793   0.674   1.593   0.655
 5745TIP3    H138794   0.740   1.624   0.717
 5745TIP3    H238795   0.591   1.626   0.690
 5746TIP3   OH238796   4.296   5.998   8.345
 5746TIP3    H138797   4.271   5.962   8.430
 5746TIP3    H238798   4.298   5.922   8.286
 5747TIP3   OH238799   5.009   2.226   6.464
 5747TIP3    H138800   5.077   2.207   6.529
 5747TIP3    H238801   4.930   2.187   6.500
 5748TIP3   OH238802   2.230   2.500   0.884
 5748TIP3    H138803   2.167   2.538   0.946
 5748TIP3    H238804   2.177   2.442   0.830
 5749TIP3   OH238805   3.430   5.698   1.286
 5749TIP3    H138806   3.366   5.699   1.357
 5749TIP3    H238807   3.512   5.673   1.329
 5750TIP3   OH238808   1.065   0.674   7.534
 5750TIP3    H138809   1.047   0.736   7.604
 5750TIP3    H238810   1.156   0.648   7.547
 5751TIP3   OH238811   1.129   2.256   0.312
 5751TIP3    H138812   1.168   2.327   0.363
 5751TIP3    H238813   1.189   2.244   0.238
 5752TIP3   OH238814   0.612   4.417   7.715
 5752TIP3    H138815   0.658   4.500   7.708
 5752TIP3    H238816   0.627   4.374   7.631
 5753TIP3   OH238817   4.744   2.313   7.475
 5753TIP3    H138818   4.820   2.306   7.417
 5753TIP3    H238819   4.728   2.224   7.505
 5754TIP3   OH238820   5.000   0.315   5.764
 5754TIP3    H138821   4.951   0.316   5.846
 5754TIP3    H238822   4.961   0.243   5.714
 5755TIP3   OH238823   2.540   4.295   7.725
 5755TIP3    H138824   2.611   4.262   7.670
 5755TIP3    H238825   2.494   4.359   7.669
 5756TIP3   OH238826   4.730   1.030   6.976
 5756TIP3    H138827   4.707   1.122   6.986
 5756TIP3    H238828   4.774   1.024   6.891
 5757TIP3   OH238829   0.326   6.372   1.726
 5757TIP3    H138830   0.361   6.433   1.661
 5757TIP3    H238831   0.280   6.305   1.675
 5758TIP3   OH238832   4.428   6.720   7.808
 5758TIP3    H138833   4.407   6.800   7.760
 5758TIP3    H238834   4.402   6.649   7.748
 5759TIP3   OH238835   5.883   6.036   0.724
 5759TIP3    H138836   5.962   6.011   0.675
 5759TIP3    H238837   5.902   6.125   0.756
 5760TIP3   OH238838   4.357   4.461   0.506
 5760TIP3    H138839   4.341   4.379   0.460
 5760TIP3    H238840   4.397   4.518   0.440
 5761TIP3   OH238841   3.771   1.105   2.149
 5761TIP3    H138842   3.835   1.176   2.153
 5761TIP3    H238843   3.689   1.145   2.179
 5762TIP3   OH238844   3.994   1.291   8.104
 5762TIP3    H138845   3.952   1.365   8.148
 5762TIP3    H238846   3.988   1.312   8.011
 5763TIP3   OH238847   3.271   5.607   6.612
 5763TIP3    H138848   3.242   5.683   6.560
 5763TIP3    H238849   3.343   5.570   6.561
 5764TIP3   OH238850   0.192   6.763   1.352
 5764TIP3    H138851   0.135   6.734   1.423
 5764TIP3    H238852   0.154   6.725   1.273
 5765TIP3   OH238853   1.531   6.183   1.332
 5765TIP3    H138854   1.597   6.194   1.400
 5765TIP3    H238855   1.466   6.125   1.370
 5766TIP3   OH238856   0.333   0.128   0.903
 5766TIP3    H138857   0.366   0.127   0.993
 5766TIP3    H238858   0.411   0.113   0.849
 5767TIP3   OH238859   1.914   2.169   1.673
 5767TIP3    H138860   1.824   2.171   1.708
 5767TIP3    H238861   1.902   2.178   1.578
 5768TIP3   OH238862   6.532   3.434   7.603
 5768TIP3    H138863   6.555   3.360   7.658
 5768TIP3    H238864   6.609   3.491   7.605
 5769TIP3   OH238865   1.568   0.916   0.531
 5769TIP3    H138866   1.491   0.897   0.478
 5769TIP3    H238867   1.629   0.845   0.512
 5770TIP3   OH238868   1.400   6.737   0.830
 5770TIP3    H138869   1.354   6.746   0.913
 5770TIP3    H238870   1.377   6.816   0.781
 5771TIP3   OH238871   5.230   6.257   0.112
 5771TIP3    H138872   5.217   6.335   0.166
 5771TIP3    H238873   5.215   6.287   0.023
 5772TIP3   OH238874   3.590   6.548   7.487
 5772TIP3    H138875   3.667   6.494   7.471
 5772TIP3    H238876   3.521   6.509   7.434
 5773TIP3   OH238877   0.574   1.753   7.816
 5773TIP3    H138878   0.601   1.844   7.805
 5773TIP3    H238879   0.648   1.712   7.861
 5774TIP3   OH238880   2.623   1.213   7.358
 5774TIP3    H138881   2.662   1.241   7.275
 5774TIP3    H238882   2.698   1.205   7.418
 5775TIP3   OH238883   2.604   6.018   2.036
 5775TIP3    H138884   2.548   5.991   2.109
 5775TIP3    H238885   2.647   6.098   2.067
 5776TIP3   OH238886   1.761   5.485   6.882
 5776TIP3    H138887   1.815   5.424   6.831
 5776TIP3    H238888   1.733   5.551   6.819
 5777TIP3   OH238889   5.028   5.660   8.043
 5777TIP3    H138890   5.100   5.694   7.990
 5777TIP3    H238891   4.980   5.738   8.070
 5778TIP3   OH238892   2.633   0.203   7.306
 5778TIP3    H138893   2.564   0.269   7.310
 5778TIP3    H238894   2.707   0.247   7.264
 5779TIP3   OH238895   4.756   4.858   0.235
 5779TIP3    H138896   4.822   4.852   0.305
 5779TIP3    H238897   4.783   4.792   0.171
 5780TIP3   OH238898   2.888   1.948   2.069
 5780TIP3    H138899   2.866   1.877   2.129
 5780TIP3    H238900   2.803   1.986   2.046
 5781TIP3   OH238901   4.903   1.158   8.245
 5781TIP3    H138902   4.823   1.125   8.204
 5781TIP3    H238903   4.891   1.138   8.338
 5782TIP3   OH238904   0.935   2.534   2.031
 5782TIP3    H138905   1.000   2.562   2.095
 5782TIP3    H238906   0.922   2.441   2.049
 5783TIP3   OH238907   1.230   5.643   8.570
 5783TIP3    H138908   1.286   5.608   8.639
 5783TIP3    H238909   1.189   5.567   8.530
 5784TIP3   OH238910   6.314   2.357   7.157
 5784TIP3    H138911   6.318   2.318   7.245
 5784TIP3    H238912   6.365   2.297   7.103
 5785TIP3   OH238913   4.157   5.821   6.808
 5785TIP3    H138914   4.242   5.782   6.828
 5785TIP3    H238915   4.123   5.768   6.736
 5786TIP3   OH238916   4.029   5.450   7.445
 5786TIP3    H138917   3.988   5.537   7.443
 5786TIP3    H238918   3.960   5.392   7.413
 5787TIP3   OH238919   5.140   6.786   7.733
 5787TIP3    H138920   5.230   6.759   7.714
 5787TIP3    H238921   5.112   6.726   7.803
 5788TIP3   OH238922   0.320   5.055   1.778
 5788TIP3    H138923   0.334   5.030   1.869
 5788TIP3    H238924   0.240   5.107   1.779
 5789TIP3   OH238925   6.013   1.640   8.608
 5789TIP3    H138926   6.006   1.604   8.520
 5789TIP3    H238927   6.036   1.566   0.012
 5790TIP3   OH238928   0.498   1.193   6.522
 5790TIP3    H138929   0.444   1.120   6.492
 5790TIP3    H238930   0.497   1.256   6.450
 5791TIP3   OH238931   6.719   1.828   1.624
 5791TIP3    H138932   6.660   1.766   1.580
 5791TIP3    H238933   6.772   1.773   1.682
 5792TIP3   OH238934   3.334   4.928   7.209
 5792TIP3    H138935   3.392   4.926   7.285
 5792TIP3    H238936   3.347   5.016   7.172
 5793TIP3   OH238937   2.843   5.992   7.422
 5793TIP3    H138938   2.850   5.912   7.370
 5793TIP3    H238939   2.851   6.063   7.358
 5794TIP3   OH238940   5.184   2.257   7.965
 5794TIP3    H138941   5.245   2.328   7.983
 5794TIP3    H238942   5.104   2.301   7.935
 5795TIP3   OH238943   1.186   0.121   8.153
 5795TIP3    H138944   1.154   0.043   8.108
 5795TIP3    H238945   1.280   0.104   8.166
 5796TIP3   OH238946   0.412   5.095   8.372
 5796TIP3    H138947   0.506   5.083   8.382
 5796TIP3    H238948   0.395   5.182   8.408
 5797TIP3   OH238949   3.913   6.203   6.697
 5797TIP3    H138950   3.879   6.254   6.623
 5797TIP3    H238951   3.902   6.111   6.670
 5798TIP3   OH238952   4.089   4.346   6.876
 5798TIP3    H138953   4.055   4.341   6.965
 5798TIP3    H238954   4.045   4.275   6.829
 5799TIP3   OH238955   4.066   4.408   8.095
 5799TIP3    H138956   4.086   4.319   8.066
 5799TIP3    H238957   4.117   4.464   8.036
 5800TIP3   OH238958   1.421   2.515   8.100
 5800TIP3    H138959   1.503   2.537   8.055
 5800TIP3    H238960   1.357   2.505   8.030
 5801TIP3   OH238961   5.622   6.357   1.970
 5801TIP3    H138962   5.610   6.266   1.943
 5801TIP3    H238963   5.588   6.361   2.059
 5802TIP3   OH238964   1.904   2.019   2.169
 5802TIP3    H138965   1.897   1.937   2.120
 5802TIP3    H238966   1.964   1.999   2.241
 5803TIP3   OH238967   3.273   6.338   8.077
 5803TIP3    H138968   3.350   6.393   8.059
 5803TIP3    H238969   3.310   6.251   8.096
 5804TIP3   OH238970   0.157   4.825   1.964
 5804TIP3    H138971   0.172   4.736   1.995
 5804TIP3    H238972   0.239   4.871   1.983
 5805TIP3   OH238973   5.409   5.359   1.252
 5805TIP3    H138974   5.362   5.406   1.320
 5805TIP3    H238975   5.380   5.400   1.170
 5806TIP3   OH238976   4.410   2.360   0.410
 5806TIP3    H138977   4.429   2.306   0.334
 5806TIP3    H238978   4.466   2.437   0.399
 5807TIP3   OH238979   6.219   3.146   6.688
 5807TIP3    H138980   6.201   3.226   6.738
 5807TIP3    H238981   6.229   3.078   6.755
 5808TIP3   OH238982   3.085   6.458   6.432
 5808TIP3    H138983   3.095   6.553   6.433
 5808TIP3    H238984   3.082   6.435   6.339
 5809TIP3   OH238985   2.115   6.870   8.391
 5809TIP3    H138986   2.028   6.831   8.400
 5809TIP3    H238987   2.173   6.813   8.441
 5810TIP3   OH238988   4.928   3.922   0.187
 5810TIP3    H138989   4.999   3.857   0.183
 5810TIP3    H238990   4.971   4.002   0.219
 5811TIP3   OH238991   3.823   6.503   2.589
 5811TIP3    H138992   3.805   6.444   2.515
 5811TIP3    H238993   3.918   6.499   2.600
 5812TIP3   OH238994   3.173   2.090   6.712
 5812TIP3    H138995   3.223   2.144   6.772
 5812TIP3    H238996   3.131   2.024   6.767
 5813TIP3   OH238997   3.180   5.446   1.537
 5813TIP3    H138998   3.167   5.360   1.578
 5813TIP3    H238999   3.274   5.449   1.517
 5814TIP3   OH239000   1.790   3.058   6.072
 5814TIP3    H139001   1.869   3.027   6.115
 5814TIP3    H239002   1.720   3.005   6.110
 5815TIP3   OH239003   2.379   4.133   1.292
 5815TIP3    H139004   2.303   4.178   1.330
 5815TIP3    H239005   2.367   4.143   1.197
 5816TIP3   OH239006   4.570   0.807   2.106
 5816TIP3    H139007   4.564   0.892   2.062
 5816TIP3    H239008   4.613   0.827   2.190
 5817TIP3   OH239009   0.799   1.981   8.582
 5817TIP3    H139010   0.819   1.917   8.513
 5817TIP3    H239011   0.815   1.933   0.012
 5818TIP3   OH239012   1.551   2.087   8.554
 5818TIP3    H139013   1.536   2.013   8.495
 5818TIP3    H239014   1.590   2.047   8.632
 5819TIP3   OH239015   2.821   4.187   0.607
 5819TIP3    H139016   2.796   4.107   0.560
 5819TIP3    H239017   2.739   4.234   0.621
 5820TIP3   OH239018   4.002   2.302   2.101
 5820TIP3    H139019   4.092   2.318   2.074
 5820TIP3    H239020   3.997   2.336   2.190
 5821TIP3   OH239021   4.340   5.675   1.152
 5821TIP3    H139022   4.254   5.662   1.114
 5821TIP3    H239023   4.385   5.591   1.141
 5822TIP3   OH239024   5.863   2.473   7.774
 5822TIP3    H139025   5.770   2.493   7.762
 5822TIP3    H239026   5.890   2.432   7.692
 5823TIP3   OH239027   3.728   5.391   0.176
 5823TIP3    H139028   3.749   5.380   0.083
 5823TIP3    H239029   3.640   5.429   0.176
 5824TIP3   OH239030   4.379   1.838   1.365
 5824TIP3    H139031   4.407   1.825   1.456
 5824TIP3    H239032   4.358   1.750   1.334
 5825TIP3   OH239033   4.089   5.269   1.109
 5825TIP3    H139034   4.169   5.305   1.147
 5825TIP3    H239035   4.057   5.206   1.174
 5826TIP3   OH239036   5.655   0.605   1.807
 5826TIP3    H139037   5.560   0.592   1.798
 5826TIP3    H239038   5.672   0.590   1.900
 5827TIP3   OH239039   3.688   1.111   7.943
 5827TIP3    H139040   3.641   1.185   7.903
 5827TIP3    H239041   3.650   1.103   8.030
 5828TIP3   OH239042   2.932   1.075   6.731
 5828TIP3    H139043   2.891   1.146   6.683
 5828TIP3    H239044   2.889   1.075   6.816
 5829TIP3   OH239045   6.301   2.595   0.964
 5829TIP3    H139046   6.221   2.563   1.005
 5829TIP3    H239047   6.293   2.690   0.966
 5830TIP3   OH239048   2.125   2.108   2.028
 5830TIP3    H139049   2.184   2.129   2.100
 5830TIP3    H239050   2.039   2.102   2.069
 5831TIP3   OH239051   5.766   5.336   2.427
 5831TIP3    H139052   5.808   5.368   2.507
 5831TIP3    H239053   5.728   5.252   2.452
 5832TIP3   OH239054   4.408   6.367   0.604
 5832TIP3    H139055   4.342   6.316   0.651
 5832TIP3    H239056   4.435   6.310   0.532
 5833TIP3   OH239057   2.810   1.277   7.551
 5833TIP3    H139058   2.868   1.201   7.562
 5833TIP3    H239059   2.870   1.351   7.539
 5834TIP3   OH239060   0.637   3.799   0.865
 5834TIP3    H139061   0.590   3.730   0.911
 5834TIP3    H239062   0.643   3.767   0.775
 5835TIP3   OH239063   2.382   0.349   1.166
 5835TIP3    H139064   2.295   0.349   1.128
 5835TIP3    H239065   2.376   0.407   1.242
 5836TIP3   OH239066   2.877   3.102   7.337
 5836TIP3    H139067   2.856   3.062   7.422
 5836TIP3    H239068   2.863   3.195   7.351
 5837TIP3   OH239069   5.631   2.398   7.438
 5837TIP3    H139070   5.679   2.315   7.445
 5837TIP3    H239071   5.574   2.386   7.362
 5838TIP3   OH239072   2.667   1.405   0.516
 5838TIP3    H139073   2.639   1.477   0.573
 5838TIP3    H239074   2.754   1.431   0.486
 5839TIP3   OH239075   1.664   5.484   0.320
 5839TIP3    H139076   1.643   5.477   0.226
 5839TIP3    H239077   1.579   5.495   0.363
 5840TIP3   OH239078   0.214   0.106   2.323
 5840TIP3    H139079   0.186   0.029   2.273
 5840TIP3    H239080   0.135   0.135   2.369
 5841TIP3   OH239081   0.373   5.155   1.328
 5841TIP3    H139082   0.343   5.134   1.417
 5841TIP3    H239083   0.375   5.071   1.283
 5842TIP3   OH239084   5.449   5.608   0.485
 5842TIP3    H139085   5.442   5.636   0.393
 5842TIP3    H239086   5.515   5.665   0.523
 5843TIP3   OH239087   0.173   4.044   7.154
 5843TIP3    H139088   0.193   4.122   7.101
 5843TIP3    H239089   0.079   4.031   7.142
 5844TIP3   OH239090   6.032   1.609   1.122
 5844TIP3    H139091   6.031   1.695   1.165
 5844TIP3    H239092   6.096   1.558   1.172
 5845TIP3   OH239093   4.467   2.783   8.608
 5845TIP3    H139094   4.473   2.873   8.577
 5845TIP3    H239095   4.548   2.741   8.579
 5846TIP3   OH239096   5.784   3.707   7.860
 5846TIP3    H139097   5.793   3.801   7.878
 5846TIP3    H239098   5.855   3.667   7.911
 5847TIP3   OH239099   6.733   2.367   1.694
 5847TIP3    H139100   6.758   2.387   1.784
 5847TIP3    H239101   6.673   2.293   1.701
 5848TIP3   OH239102   3.667   5.337   0.815
 5848TIP3    H139103   3.724   5.382   0.878
 5848TIP3    H239104   3.718   5.261   0.786
 5849TIP3   OH239105   2.623   0.713   6.270
 5849TIP3    H139106   2.661   0.682   6.188
 5849TIP3    H239107   2.648   0.805   6.275
 5850TIP3   OH239108   6.015   3.130   8.057
 5850TIP3    H139109   5.962   3.209   8.050
 5850TIP3    H239110   5.966   3.063   8.010
 5851TIP3   OH239111   0.460   6.731   0.312
 5851TIP3    H139112   0.477   6.824   0.298
 5851TIP3    H239113   0.513   6.687   0.246
 5852TIP3   OH239114   4.712   3.039   8.170
 5852TIP3    H139115   4.781   3.061   8.232
 5852TIP3    H239116   4.718   3.106   8.102
 5853TIP3   OH239117   6.677   5.602   7.611
 5853TIP3    H139118   6.651   5.510   7.611
 5853TIP3    H239119   6.726   5.612   7.529
 5854TIP3   OH239120   2.061   6.067   8.235
 5854TIP3    H139121   2.044   5.974   8.254
 5854TIP3    H239122   1.984   6.096   8.187
 5855TIP3   OH239123   4.239   5.573   7.578
 5855TIP3    H139124   4.177   5.637   7.613
 5855TIP3    H239125   4.187   5.520   7.517
 5856TIP3   OH239126   6.257   3.566   1.530
 5856TIP3    H139127   6.225   3.546   1.618
 5856TIP3    H239128   6.344   3.603   1.544
 5857TIP3   OH239129   6.303   5.884   0.224
 5857TIP3    H139130   6.288   5.795   0.192
 5857TIP3    H239131   6.278   5.940   0.150
 5858TIP3   OH239132   5.581   1.444   8.436
 5858TIP3    H139133   5.524   1.473   8.365
 5858TIP3    H239134   5.652   1.396   8.392
 5859TIP3   OH239135   2.635   3.657   7.197
 5859TIP3    H139136   2.646   3.635   7.290
 5859TIP3    H239137   2.724   3.675   7.167
 5860TIP3   OH239138   5.313   5.727   1.655
 5860TIP3    H139139   5.250   5.655   1.658
 5860TIP3    H239140   5.370   5.706   1.581
 5861TIP3   OH239141   6.242   2.429   0.482
 5861TIP3    H139142   6.264   2.471   0.565
 5861TIP3    H239143   6.149   2.446   0.471
 5862TIP3   OH239144   3.075   3.466   7.157
 5862TIP3    H139145   3.158   3.495   7.194
 5862TIP3    H239146   3.074   3.371   7.171
 5863TIP3   OH239147   4.771   4.912   6.981
 5863TIP3    H139148   4.710   4.856   6.933
 5863TIP3    H239149   4.855   4.866   6.973
 5864TIP3   OH239150   4.791   5.295   7.918
 5864TIP3    H139151   4.769   5.365   7.855
 5864TIP3    H239152   4.854   5.336   7.978
 5865TIP3   OH239153   6.718   5.717   0.423
 5865TIP3    H139154   6.799   5.669   0.443
 5865TIP3    H239155   6.694   5.686   0.336
 5866TIP3   OH239156   3.190   1.546   6.165
 5866TIP3    H139157   3.133   1.617   6.194
 5866TIP3    H239158   3.144   1.507   6.090
 5867TIP3   OH239159   0.586   0.365   8.165
 5867TIP3    H139160   0.639   0.441   8.188
 5867TIP3    H239161   0.564   0.324   8.248
 5868TIP3   OH239162   6.172   3.838   7.354
 5868TIP3    H139163   6.244   3.817   7.413
 5868TIP3    H239164   6.122   3.757   7.347
 5869TIP3   OH239165   2.921   1.356   8.577
 5869TIP3    H139166   2.825   1.360   8.574
 5869TIP3    H239167   2.942   1.349   0.019
 5870TIP3   OH239168   5.572   3.455   1.466
 5870TIP3    H139169   5.506   3.492   1.525
 5870TIP3    H239170   5.583   3.520   1.397
 5871TIP3   OH239171   4.563   3.341   1.908
 5871TIP3    H139172   4.498   3.298   1.964
 5871TIP3    H239173   4.537   3.318   1.819
 5872TIP3   OH239174   5.226   0.332   5.920
 5872TIP3    H139175   5.290   0.284   5.866
 5872TIP3    H239176   5.144   0.325   5.871
 5873TIP3   OH239177   1.706   0.050   7.868
 5873TIP3    H139178   1.719   0.134   7.823
 5873TIP3    H239179   1.781   0.042   7.926
 5874TIP3   OH239180   1.398   1.512   1.204
 5874TIP3    H139181   1.322   1.517   1.146
 5874TIP3    H239182   1.456   1.449   1.162
 5875TIP3   OH239183   5.989   6.451   7.692
 5875TIP3    H139184   5.907   6.402   7.701
 5875TIP3    H239185   6.049   6.390   7.648
 5876TIP3   OH239186   4.611   1.476   0.043
 5876TIP3    H139187   4.653   1.472   8.608
 5876TIP3    H239188   4.579   1.386   0.058
 5877TIP3   OH239189   6.814   2.542   7.831
 5877TIP3    H139190   0.031   2.546   7.829
 5877TIP3    H239191   6.792   2.544   7.925
 5878TIP3   OH239192   6.526   1.991   0.370
 5878TIP3    H139193   6.472   2.050   0.423
 5878TIP3    H239194   6.610   1.990   0.414
 5879TIP3   OH239195   4.888   4.665   1.033
 5879TIP3    H139196   4.862   4.573   1.021
 5879TIP3    H239197   4.841   4.712   0.964
 5880TIP3   OH239198   2.866   4.990   7.905
 5880TIP3    H139199   2.806   5.014   7.976
 5880TIP3    H239200   2.809   4.953   7.837
 5881TIP3   OH239201   4.884   2.235   1.338
 5881TIP3    H139202   4.937   2.315   1.345
 5881TIP3    H239203   4.829   2.237   1.416
 5882TIP3   OH239204   4.972   5.224   1.696
 5882TIP3    H139205   5.061   5.217   1.730
 5882TIP3    H239206   4.940   5.134   1.694
 5883TIP3   OH239207   0.208   6.035   1.338
 5883TIP3    H139208   0.191   5.953   1.385
 5883TIP3    H239209   0.208   6.010   1.246
 5884TIP3   OH239210   1.261   2.107   1.229
 5884TIP3    H139211   1.207   2.072   1.158
 5884TIP3    H239212   1.198   2.143   1.291
 5885TIP3   OH239213   6.083   4.274   7.926
 5885TIP3    H139214   6.120   4.318   7.850
 5885TIP3    H239215   6.156   4.266   7.987
 5886TIP3   OH239216   4.413   6.772   1.303
 5886TIP3    H139217   4.444   6.860   1.325
 5886TIP3    H239218   4.350   6.751   1.372
 5887TIP3   OH239219   1.547   6.558   7.489
 5887TIP3    H139220   1.552   6.632   7.551
 5887TIP3    H239221   1.453   6.546   7.476
 5888TIP3   OH239222   4.745   2.562   1.372
 5888TIP3    H139223   4.711   2.527   1.454
 5888TIP3    H239224   4.841   2.560   1.383
 5889TIP3   OH239225   5.596   1.198   8.283
 5889TIP3    H139226   5.568   1.197   8.191
 5889TIP3    H239227   5.526   1.153   8.330
 5890TIP3   OH239228   5.174   2.943   8.359
 5890TIP3    H139229   5.143   2.857   8.331
 5890TIP3    H239230   5.269   2.937   8.354
 5891TIP3   OH239231   2.004   1.973   6.817
 5891TIP3    H139232   2.093   1.987   6.848
 5891TIP3    H239233   2.004   2.008   6.728
 5892TIP3   OH239234   2.529   4.516   0.245
 5892TIP3    H139235   2.527   4.568   0.165
 5892TIP3    H239236   2.529   4.425   0.214
 5893TIP3   OH239237   1.363   0.701   7.314
 5893TIP3    H139238   1.336   0.619   7.272
 5893TIP3    H239239   1.289   0.760   7.300
 5894TIP3   OH239240   3.823   0.626   2.063
 5894TIP3    H139241   3.814   0.694   2.129
 5894TIP3    H239242   3.794   0.546   2.107
 5895TIP3   OH239243   4.341   3.922   1.137
 5895TIP3    H139244   4.256   3.966   1.144
 5895TIP3    H239245   4.401   3.991   1.111
 5896TIP3   OH239246   1.331   1.574   7.110
 5896TIP3    H139247   1.405   1.516   7.094
 5896TIP3    H239248   1.254   1.518   7.103
 5897TIP3   OH239249   2.108   3.346   8.212
 5897TIP3    H139250   2.120   3.340   8.117
 5897TIP3    H239251   2.072   3.433   8.226
 5898TIP3   OH239252   0.711   5.603   8.141
 5898TIP3    H139253   0.785   5.574   8.086
 5898TIP3    H239254   0.750   5.620   8.226
 5899TIP3   OH239255   2.167   6.394   6.674
 5899TIP3    H139256   2.151   6.484   6.702
 5899TIP3    H239257   2.126   6.389   6.587
 5900TIP3   OH239258   2.580   1.566   7.399
 5900TIP3    H139259   2.640   1.492   7.396
 5900TIP3    H239260   2.611   1.620   7.471
 5901TIP3   OH239261   4.989   4.262   1.612
 5901TIP3    H139262   5.052   4.328   1.582
 5901TIP3    H239263   5.044   4.191   1.646
 5902TIP3   OH239264   6.534   5.962   7.133
 5902TIP3    H139265   6.550   6.051   7.100
 5902TIP3    H239266   6.531   5.907   7.055
 5903TIP3   OH239267   0.988   2.355   1.291
 5903TIP3    H139268   0.985   2.280   1.350
 5903TIP3    H239269   0.961   2.429   1.344
 5904TIP3   OH239270   4.272   5.156   8.626
 5904TIP3    H139271   4.282   5.094   8.554
 5904TIP3    H239272   4.180   5.184   8.621
 5905TIP3   OH239273   4.939   4.238   7.696
 5905TIP3    H139274   5.032   4.232   7.675
 5905TIP3    H239275   4.908   4.313   7.646
 5906TIP3   OH239276   0.256   5.371   7.868
 5906TIP3    H139277   0.168   5.389   7.837
 5906TIP3    H239278   0.245   5.350   7.961
 5907TIP3   OH239279   5.913   3.135   1.734
 5907TIP3    H139280   5.853   3.102   1.667
 5907TIP3    H239281   5.987   3.074   1.731
 5908TIP3   OH239282   1.973   2.217   7.309
 5908TIP3    H139283   1.977   2.256   7.221
 5908TIP3    H239284   2.032   2.272   7.361
 5909TIP3   OH239285   1.991   5.995   7.159
 5909TIP3    H139286   1.933   6.054   7.208
 5909TIP3    H239287   1.973   5.908   7.195
 5910TIP3   OH239288   4.181   4.908   1.673
 5910TIP3    H139289   4.097   4.948   1.651
 5910TIP3    H239290   4.228   4.977   1.721
 5911TIP3   OH239291   5.816   6.042   7.120
 5911TIP3    H139292   5.726   6.012   7.135
 5911TIP3    H239293   5.833   6.104   7.191
 5912TIP3   OH239294   4.621   5.942   1.662
 5912TIP3    H139295   4.556   5.897   1.715
 5912TIP3    H239296   4.683   5.978   1.725
 5913TIP3   OH239297   0.447   1.990   6.990
 5913TIP3    H139298   0.355   2.012   7.003
 5913TIP3    H239299   0.453   1.897   7.013
 5914TIP3   OH239300   3.756   6.874   7.991
 5914TIP3    H139301   3.694   0.050   8.039
 5914TIP3    H239302   3.840   0.042   8.000
 5915TIP3   OH239303   1.170   1.497   7.671
 5915TIP3    H139304   1.127   1.466   7.591
 5915TIP3    H239305   1.262   1.502   7.648
 5916TIP3   OH239306   5.707   5.376   7.879
 5916TIP3    H139307   5.783   5.329   7.845
 5916TIP3    H239308   5.742   5.459   7.912
 5917TIP3   OH239309   5.477   6.411   7.721
 5917TIP3    H139310   5.570   6.431   7.711
 5917TIP3    H239311   5.472   6.367   7.806
 5918TIP3   OH239312   5.480   6.367   2.661
 5918TIP3    H139313   5.552   6.304   2.651
 5918TIP3    H239314   5.476   6.383   2.756
 5919TIP3   OH239315   4.172   0.912   8.092
 5919TIP3    H139316   4.241   0.957   8.140
 5919TIP3    H239317   4.091   0.951   8.124
 5920TIP3   OH239318   0.614   0.111   0.306
 5920TIP3    H139319   0.671   0.064   0.368
 5920TIP3    H239320   0.665   0.187   0.280
 5921TIP3   OH239321   1.103   4.041   6.603
 5921TIP3    H139322   1.109   4.107   6.673
 5921TIP3    H239323   1.014   4.008   6.609
 5922TIP3   OH239324   2.736   0.066   1.544
 5922TIP3    H139325   2.683   0.031   1.616
 5922TIP3    H239326   2.696   0.151   1.525
 5923TIP3   OH239327   0.208   5.386   1.662
 5923TIP3    H139328   0.189   5.309   1.715
 5923TIP3    H239329   0.182   5.362   1.573
 5924TIP3   OH239330   0.469   1.479   0.009
 5924TIP3    H139331   0.380   1.469   0.043
 5924TIP3    H239332   0.458   1.515   8.572
 5925TIP3   OH239333   2.851   2.024   7.924
 5925TIP3    H139334   2.807   2.057   7.846
 5925TIP3    H239335   2.935   2.071   7.926
 5926TIP3   OH239336   3.729   4.398   7.422
 5926TIP3    H139337   3.743   4.304   7.426
 5926TIP3    H239338   3.675   4.411   7.344
 5927TIP3   OH239339   2.746   3.059   7.565
 5927TIP3    H139340   2.694   3.018   7.634
 5927TIP3    H239341   2.682   3.102   7.508
 5928TIP3   OH239342   5.051   1.835   8.461
 5928TIP3    H139343   5.033   1.919   8.504
 5928TIP3    H239344   5.061   1.773   8.534
 5929TIP3   OH239345   4.010   3.841   7.551
 5929TIP3    H139346   3.951   3.770   7.527
 5929TIP3    H239347   4.022   3.891   7.470
 5930TIP3   OH239348   3.978   0.548   1.632
 5930TIP3    H139349   3.905   0.512   1.582
 5930TIP3    H239350   3.939   0.620   1.682
 5931TIP3   OH239351   4.526   6.876   6.950
 5931TIP3    H139352   4.490   6.853   7.035
 5931TIP3    H239353   4.521   0.093   6.947
 5932TIP3   OH239354   0.010   5.401   0.316
 5932TIP3    H139355   0.057   5.480   0.344
 5932TIP3    H239356   6.820   5.389   0.382
 5933TIP3   OH239357   3.271   4.817   8.476
 5933TIP3    H139358   3.227   4.746   8.522
 5933TIP3    H239359   3.203   4.883   8.463
 5934TIP3   OH239360   3.618   4.471   0.959
 5934TIP3    H139361   3.667   4.393   0.934
 5934TIP3    H239362   3.598   4.514   0.876
 5935TIP3   OH239363   6.228   6.481   6.785
 5935TIP3    H139364   6.175   6.401   6.788
 5935TIP3    H239365   6.164   6.551   6.778
 5936TIP3   OH239366   0.463   3.871   7.424
 5936TIP3    H139367   0.379   3.837   7.454
 5936TIP3    H239368   0.462   3.963   7.448
 5937TIP3   OH239369   0.521   5.134   6.824
 5937TIP3    H139370   0.491   5.046   6.848
 5937TIP3    H239371   0.585   5.158   6.891
 5938TIP3   OH239372   5.496   6.348   6.808
 5938TIP3    H139373   5.519   6.267   6.763
 5938TIP3    H239374   5.451   6.400   6.742
 5939TIP3   OH239375   5.349   4.135   7.506
 5939TIP3    H139376   5.296   4.156   7.582
 5939TIP3    H239377   5.415   4.074   7.539
 5940TIP3   OH239378   2.901   0.188   6.583
 5940TIP3    H139379   2.977   0.178   6.525
 5940TIP3    H239380   2.830   0.214   6.525
 5941TIP3   OH239381   1.582   1.920   7.294
 5941TIP3    H139382   1.522   1.848   7.314
 5941TIP3    H239383   1.662   1.898   7.341
 5942TIP3   OH239384   1.512   0.967   7.910
 5942TIP3    H139385   1.592   0.915   7.899
 5942TIP3    H239386   1.504   0.980   8.004
 5943TIP3   OH239387   2.680   1.339   0.170
 5943TIP3    H139388   2.653   1.268   0.229
 5943TIP3    H239389   2.645   1.314   0.085
 5944TIP3   OH239390   0.155   0.927   0.596
 5944TIP3    H139391   0.091   0.950   0.529
 5944TIP3    H239392   0.180   0.837   0.575
 5945TIP3   OH239393   0.069   2.989   1.373
 5945TIP3    H139394   0.129   3.062   1.387
 5945TIP3    H239395   0.095   2.952   1.288
 5946TIP3   OH239396   3.804   2.157   0.049
 5946TIP3    H139397   3.853   2.146   0.130
 5946TIP3    H239398   3.713   2.144   0.074
 5947TIP3   OH239399   4.649   6.700   2.198
 5947TIP3    H139400   4.726   6.757   2.194
 5947TIP3    H239401   4.618   6.696   2.107
 5948TIP3   OH239402   3.151   2.710   7.520
 5948TIP3    H139403   3.099   2.723   7.599
 5948TIP3    H239404   3.193   2.794   7.504
 5949TIP3   OH239405   2.907   1.705   1.148
 5949TIP3    H139406   2.865   1.669   1.226
 5949TIP3    H239407   2.835   1.741   1.097
 5950TIP3   OH239408   4.727   3.650   1.940
 5950TIP3    H139409   4.632   3.664   1.949
 5950TIP3    H239410   4.738   3.556   1.953
 5951TIP3   OH239411   0.330   4.558   0.526
 5951TIP3    H139412   0.269   4.601   0.467
 5951TIP3    H239413   0.416   4.590   0.499
 5952TIP3   OH239414   1.250   3.842   8.021
 5952TIP3    H139415   1.180   3.896   8.057
 5952TIP3    H239416   1.312   3.904   7.983
 5953TIP3   OH239417   3.653   4.094   8.053
 5953TIP3    H139418   3.682   4.122   8.140
 5953TIP3    H239419   3.558   4.101   8.056
 5954TIP3   OH239420   2.899   2.661   1.791
 5954TIP3    H139421   2.913   2.609   1.871
 5954TIP3    H239422   2.815   2.629   1.757
 5955TIP3   OH239423   5.499   5.257   8.430
 5955TIP3    H139424   5.495   5.253   8.334
 5955TIP3    H239425   5.408   5.250   8.458
 5956TIP3   OH239426   5.009   2.670   7.999
 5956TIP3    H139427   4.994   2.614   8.075
 5956TIP3    H239428   5.033   2.610   7.929
 5957TIP3   OH239429   1.913   2.125   0.789
 5957TIP3    H139430   1.902   2.039   0.747
 5957TIP3    H239431   2.008   2.136   0.795
 5958TIP3   OH239432   3.597   3.584   6.621
 5958TIP3    H139433   3.556   3.568   6.536
 5958TIP3    H239434   3.531   3.631   6.671
 5959TIP3   OH239435   1.556   4.157   0.893
 5959TIP3    H139436   1.576   4.187   0.981
 5959TIP3    H239437   1.637   4.169   0.844
 5960TIP3   OH239438   2.198   1.201   2.222
 5960TIP3    H139439   2.138   1.200   2.147
 5960TIP3    H239440   2.156   1.143   2.286
 5961TIP3   OH239441   6.691   2.971   8.096
 5961TIP3    H139442   6.649   2.894   8.057
 5961TIP3    H239443   6.628   3.003   8.161
 5962TIP3   OH239444   2.785   0.255   2.050
 5962TIP3    H139445   2.759   0.226   2.137
 5962TIP3    H239446   2.828   0.339   2.063
 5963TIP3   OH239447   0.188   2.090   0.757
 5963TIP3    H139448   0.267   2.141   0.776
 5963TIP3    H239449   0.147   2.136   0.684
 5964TIP3   OH239450   1.478   4.527   8.146
 5964TIP3    H139451   1.421   4.572   8.085
 5964TIP3    H239452   1.436   4.539   8.232
 5965TIP3   OH239453   2.212   3.869   0.503
 5965TIP3    H139454   2.155   3.886   0.578
 5965TIP3    H239455   2.207   3.949   0.450
 5966TIP3   OH239456   3.981   4.229   1.097
 5966TIP3    H139457   4.015   4.249   1.185
 5966TIP3    H239458   3.953   4.314   1.063
 5967TIP3   OH239459   6.080   4.646   7.594
 5967TIP3    H139460   6.030   4.669   7.515
 5967TIP3    H239461   6.052   4.557   7.614
 5968TIP3   OH239462   6.306   4.944   8.375
 5968TIP3    H139463   6.312   4.874   8.310
 5968TIP3    H239464   6.218   4.979   8.364
 5969TIP3   OH239465   2.076   5.162   0.485
 5969TIP3    H139466   2.000   5.104   0.491
 5969TIP3    H239467   2.054   5.223   0.414
 5970TIP3   OH239468   6.292   2.349   0.784
 5970TIP3    H139469   6.297   2.414   0.854
 5970TIP3    H239470   6.379   2.351   0.744
 5971TIP3   OH239471   2.040   1.795   1.322
 5971TIP3    H139472   1.954   1.797   1.281
 5971TIP3    H239473   2.082   1.877   1.296
 5972TIP3   OH239474   6.102   2.632   1.921
 5972TIP3    H139475   6.146   2.717   1.914
 5972TIP3    H239476   6.139   2.592   2.000
 5973TIP3   OH239477   4.247   5.165   8.151
 5973TIP3    H139478   4.253   5.087   8.096
 5973TIP3    H239479   4.204   5.230   8.095
 5974TIP3   OH239480   0.395   6.557   1.533
 5974TIP3    H139481   0.435   6.644   1.539
 5974TIP3    H239482   0.304   6.573   1.510
 5975TIP3   OH239483   2.737   3.008   8.100
 5975TIP3    H139484   2.719   3.095   8.134
 5975TIP3    H239485   2.681   3.001   8.022
 5976TIP3   OH239486   0.224   3.192   1.286
 5976TIP3    H139487   0.300   3.223   1.237
 5976TIP3    H239488   0.162   3.265   1.283
 5977TIP3   OH239489   5.587   0.924   8.153
 5977TIP3    H139490   5.663   0.978   8.134
 5977TIP3    H239491   5.604   0.889   8.241
 5978TIP3   OH239492   6.446   2.342   1.779
 5978TIP3    H139493   6.453   2.437   1.773
 5978TIP3    H239494   6.426   2.314   1.689
 5979TIP3   OH239495   3.028   2.582   0.645
 5979TIP3    H139496   2.980   2.536   0.714
 5979TIP3    H239497   2.960   2.611   0.585
 5980TIP3   OH239498   2.842   2.918   7.100
 5980TIP3    H139499   2.848   3.007   7.133
 5980TIP3    H239500   2.903   2.868   7.154
 5981TIP3   OH239501   3.501   4.076   7.690
 5981TIP3    H139502   3.460   4.033   7.766
 5981TIP3    H239503   3.580   4.025   7.673
 5982TIP3   OH239504   2.681   0.453   2.477
 5982TIP3    H139505   2.653   0.536   2.440
 5982TIP3    H239506   2.769   0.469   2.510
 5983TIP3   OH239507   3.002   3.183   0.890
 5983TIP3    H139508   3.044   3.111   0.841
 5983TIP3    H239509   2.911   3.182   0.861
 5984TIP3   OH239510   3.836   0.748   8.242
 5984TIP3    H139511   3.842   0.831   8.194
 5984TIP3    H239512   3.920   0.742   8.288
 5985TIP3   OH239513   5.253   1.511   7.149
 5985TIP3    H139514   5.172   1.505   7.098
 5985TIP3    H239515   5.244   1.442   7.215
 5986TIP3   OH239516   0.594   2.146   8.395
 5986TIP3    H139517   0.660   2.079   8.379
 5986TIP3    H239518   0.610   2.176   8.484
 5987TIP3   OH239519   2.371   2.398   6.097
 5987TIP3    H139520   2.452   2.367   6.056
 5987TIP3    H239521   2.314   2.322   6.096
 5988TIP3   OH239522   4.463   6.687   8.309
 5988TIP3    H139523   4.495   6.598   8.294
 5988TIP3    H239524   4.542   6.740   8.314
 5989TIP3   OH239525   5.558   6.104   6.669
 5989TIP3    H139526   5.624   6.153   6.620
 5989TIP3    H239527   5.481   6.103   6.612
 5990TIP3   OH239528   4.529   1.094   1.469
 5990TIP3    H139529   4.551   1.066   1.558
 5990TIP3    H239530   4.581   1.037   1.412
 5991TIP3   OH239531   0.134   6.307   0.148
 5991TIP3    H139532   0.203   6.359   0.107
 5991TIP3    H239533   0.054   6.336   0.104
 5992TIP3   OH239534   0.477   4.060   1.650
 5992TIP3    H139535   0.450   4.072   1.741
 5992TIP3    H239536   0.565   4.098   1.646
 5993TIP3   OH239537   2.573   1.362   8.282
 5993TIP3    H139538   2.558   1.442   8.333
 5993TIP3    H239539   2.496   1.354   8.227
 5994TIP3   OH239540   1.562   4.015   8.036
 5994TIP3    H139541   1.574   4.107   8.058
 5994TIP3    H239542   1.520   4.016   7.950
 5995TIP3   OH239543   6.638   6.277   2.141
 5995TIP3    H139544   6.733   6.287   2.135
 5995TIP3    H239545   6.604   6.357   2.100
 5996TIP3   OH239546   4.450   6.176   0.400
 5996TIP3    H139547   4.524   6.137   0.354
 5996TIP3    H239548   4.416   6.105   0.456
 5997TIP3   OH239549   2.962   5.781   0.750
 5997TIP3    H139550   3.019   5.811   0.679
 5997TIP3    H239551   3.021   5.760   0.821
 5998TIP3   OH239552   6.326   2.805   7.762
 5998TIP3    H139553   6.255   2.751   7.797
 5998TIP3    H239554   6.312   2.805   7.667
 5999TIP3   OH239555   1.697   2.167   7.921
 5999TIP3    H139556   1.693   2.183   8.015
 5999TIP3    H239557   1.623   2.109   7.903
 6000TIP3   OH239558   6.298   3.018   7.250
 6000TIP3    H139559   6.354   3.092   7.271
 6000TIP3    H239560   6.344   2.973   7.179
 6001TIP3   OH239561   0.965   0.886   0.510
 6001TIP3    H139562   0.871   0.899   0.515
 6001TIP3    H239563   0.993   0.942   0.437
 6002TIP3   OH239564   1.608   6.525   1.076
 6002TIP3    H139565   1.653   6.458   1.128
 6002TIP3    H239566   1.620   6.497   0.985
 6003TIP3   OH239567   4.663   5.206   1.600
 6003TIP3    H139568   4.583   5.193   1.549
 6003TIP3    H239569   4.658   5.298   1.628
 6004TIP3   OH239570   3.849   6.820   1.026
 6004TIP3    H139571   3.759   6.809   0.996
 6004TIP3    H239572   3.897   6.852   0.950
 6005TIP3   OH239573   3.357   4.206   8.083
 6005TIP3    H139574   3.408   4.233   8.159
 6005TIP3    H239575   3.298   4.280   8.067
 6006TIP3   OH239576   0.336   3.404   8.092
 6006TIP3    H139577   0.429   3.385   8.094
 6006TIP3    H239578   0.311   3.398   8.000
 6007TIP3   OH239579   2.029   3.655   7.061
 6007TIP3    H139580   1.946   3.648   7.108
 6007TIP3    H239581   2.097   3.641   7.127
 6008TIP3   OH239582   2.997   5.151   7.500
 6008TIP3    H139583   3.022   5.139   7.409
 6008TIP3    H239584   2.910   5.112   7.506
 6009TIP3   OH239585   4.159   5.831   1.648
 6009TIP3    H139586   4.113   5.775   1.586
 6009TIP3    H239587   4.095   5.848   1.717
 6010TIP3   OH239588   2.733   6.122   8.512
 6010TIP3    H139589   2.743   6.149   8.603
 6010TIP3    H239590   2.797   6.052   8.501
 6011TIP3   OH239591   0.781   4.003   1.689
 6011TIP3    H139592   0.791   3.977   1.781
 6011TIP3    H239593   0.809   3.927   1.639
 6012TIP3   OH239594   0.533   4.519   2.021
 6012TIP3    H139595   0.478   4.441   2.029
 6012TIP3    H239596   0.608   4.490   1.969
 6013TIP3   OH239597   5.956   5.262   7.902
 6013TIP3    H139598   5.918   5.222   7.981
 6013TIP3    H239599   6.048   5.234   7.904
 6014TIP3   OH239600   2.498   0.674   0.850
 6014TIP3    H139601   2.533   0.730   0.920
 6014TIP3    H239602   2.504   0.585   0.885
 6015TIP3   OH239603   4.559   3.036   8.488
 6015TIP3    H139604   4.642   3.063   8.526
 6015TIP3    H239605   4.523   3.116   8.449
 6016TIP3   OH239606   4.871   1.537   1.584
 6016TIP3    H139607   4.799   1.503   1.531
 6016TIP3    H239608   4.843   1.522   1.674
 6017TIP3   OH239609   5.528   2.091   1.151
 6017TIP3    H139610   5.470   2.041   1.093
 6017TIP3    H239611   5.516   2.182   1.123
 6018TIP3   OH239612   3.572   5.394   6.281
 6018TIP3    H139613   3.617   5.417   6.200
 6018TIP3    H239614   3.484   5.369   6.253
 6019TIP3   OH239615   0.796   3.501   6.045
 6019TIP3    H139616   0.816   3.544   6.128
 6019TIP3    H239617   0.868   3.526   5.987
 6020TIP3   OH239618   2.769   4.786   2.569
 6020TIP3    H139619   2.851   4.774   2.521
 6020TIP3    H239620   2.722   4.703   2.558
 6021TIP3   OH239621   5.696   1.718   0.331
 6021TIP3    H139622   5.777   1.762   0.307
 6021TIP3    H239623   5.719   1.625   0.333
 6022TIP3   OH239624   4.164   1.349   0.564
 6022TIP3    H139625   4.090   1.403   0.594
 6022TIP3    H239626   4.232   1.412   0.542
 6023TIP3   OH239627   6.559   5.482   1.792
 6023TIP3    H139628   6.617   5.492   1.868
 6023TIP3    H239629   6.497   5.554   1.799
 6024TIP3   OH239630   2.874   4.566   0.974
 6024TIP3    H139631   2.901   4.572   1.066
 6024TIP3    H239632   2.819   4.643   0.960
 6025TIP3   OH239633   4.974   0.266   6.878
 6025TIP3    H139634   5.024   0.306   6.949
 6025TIP3    H239635   5.004   0.310   6.799
 6026TIP3   OH239636   3.152   3.225   6.874
 6026TIP3    H139637   3.189   3.298   6.823
 6026TIP3    H239638   3.144   3.259   6.963
 6027TIP3   OH239639   5.007   4.349   0.777
 6027TIP3    H139640   5.018   4.282   0.710
 6027TIP3    H239641   5.093   4.392   0.783
 6028TIP3   OH239642   5.593   6.746   2.544
 6028TIP3    H139643   5.640   6.800   2.609
 6028TIP3    H239644   5.628   6.775   2.460
 6029TIP3   OH239645   2.816   5.743   1.464
 6029TIP3    H139646   2.758   5.790   1.404
 6029TIP3    H239647   2.886   5.708   1.409
 6030TIP3   OH239648   4.974   3.108   0.946
 6030TIP3    H139649   4.894   3.081   0.902
 6030TIP3    H239650   5.033   3.033   0.936
 6031TIP3   OH239651   3.483   1.723   6.318
 6031TIP3    H139652   3.456   1.644   6.272
 6031TIP3    H239653   3.491   1.790   6.250
 6032TIP3   OH239654   4.219   2.786   0.518
 6032TIP3    H139655   4.273   2.777   0.440
 6032TIP3    H239656   4.199   2.879   0.523
 6033TIP3   OH239657   0.804   4.729   1.456
 6033TIP3    H139658   0.841   4.817   1.464
 6033TIP3    H239659   0.733   4.738   1.393
 6034TIP3   OH239660   4.992   2.464   7.835
 6034TIP3    H139661   4.896   2.463   7.838
 6034TIP3    H239662   5.013   2.451   7.743
 6035TIP3   OH239663   4.876   4.411   7.489
 6035TIP3    H139664   4.920   4.377   7.411
 6035TIP3    H239665   4.930   4.483   7.519
 6036TIP3   OH239666   3.823   2.079   7.797
 6036TIP3    H139667   3.916   2.063   7.813
 6036TIP3    H239668   3.819   2.167   7.760
 6037TIP3   OH239669   6.000   1.321   1.875
 6037TIP3    H139670   6.042   1.312   1.961
 6037TIP3    H239671   5.986   1.415   1.865
 6038TIP3   OH239672   0.008   4.011   1.491
 6038TIP3    H139673   6.814   4.070   1.470
 6038TIP3    H239674   6.876   3.994   1.585
 6039TIP3   OH239675   5.042   1.474   6.973
 6039TIP3    H139676   5.070   1.489   6.883
 6039TIP3    H239677   5.008   1.559   7.002
 6040TIP3   OH239678   1.937   5.223   6.976
 6040TIP3    H139679   1.857   5.269   6.998
 6040TIP3    H239680   1.980   5.206   7.059
 6041TIP3   OH239681   5.158   5.805   8.336
 6041TIP3    H139682   5.144   5.897   8.312
 6041TIP3    H239683   5.202   5.810   8.421
 6042TIP3   OH239684   3.497   2.299   7.560
 6042TIP3    H139685   3.581   2.343   7.576
 6042TIP3    H239686   3.431   2.367   7.576
 6043TIP3   OH239687   4.606   6.691   7.494
 6043TIP3    H139688   4.517   6.659   7.507
 6043TIP3    H239689   4.662   6.615   7.507
 6044TIP3   OH239690   2.090   5.363   2.543
 6044TIP3    H139691   2.183   5.378   2.561
 6044TIP3    H239692   2.056   5.321   2.622
 6045TIP3   OH239693   3.409   0.995   0.823
 6045TIP3    H139694   3.435   1.027   0.909
 6045TIP3    H239695   3.367   1.070   0.782
 6046TIP3   OH239696   5.860   5.747   2.003
 6046TIP3    H139697   5.811   5.820   2.039
 6046TIP3    H239698   5.840   5.674   2.060
 6047TIP3   OH239699   5.016   3.457   1.766
 6047TIP3    H139700   4.954   3.443   1.838
 6047TIP3    H239701   5.102   3.451   1.807
 6048TIP3   OH239702   1.758   6.038   8.357
 6048TIP3    H139703   1.712   6.022   8.275
 6048TIP3    H239704   1.726   5.969   8.416
 6049TIP3   OH239705   0.694   3.812   7.930
 6049TIP3    H139706   0.642   3.785   7.855
 6049TIP3    H239707   0.658   3.761   8.003
 6050TIP3   OH239708   3.116   4.674   1.907
 6050TIP3    H139709   3.058   4.740   1.945
 6050TIP3    H239710   3.084   4.591   1.943
 6051TIP3   OH239711   4.499   4.619   0.288
 6051TIP3    H139712   4.518   4.704   0.247
 6051TIP3    H239713   4.565   4.560   0.253
 6052TIP3   OH239714   1.473   6.215   8.227
 6052TIP3    H139715   1.564   6.231   8.252
 6052TIP3    H239716   1.465   6.256   8.141
 6053TIP3   OH239717   6.076   1.082   2.284
 6053TIP3    H139718   5.992   1.129   2.282
 6053TIP3    H239719   6.070   1.020   2.211
 6054TIP3   OH239720   5.588   2.477   1.290
 6054TIP3    H139721   5.660   2.515   1.340
 6054TIP3    H239722   5.537   2.429   1.356
 6055TIP3   OH239723   1.469   6.084   6.794
 6055TIP3    H139724   1.469   5.990   6.774
 6055TIP3    H239725   1.470   6.088   6.890
 6056TIP3   OH239726   5.162   5.103   0.869
 6056TIP3    H139727   5.138   5.093   0.961
 6056TIP3    H239728   5.172   5.198   0.857
 6057TIP3   OH239729   5.892   1.151   0.528
 6057TIP3    H139730   5.985   1.156   0.548
 6057TIP3    H239731   5.849   1.197   0.601
 6058TIP3   OH239732   4.204   5.062   6.739
 6058TIP3    H139733   4.205   5.122   6.814
 6058TIP3    H239734   4.294   5.029   6.734
 6059TIP3   OH239735   0.969   6.716   0.658
 6059TIP3    H139736   0.971   6.696   0.752
 6059TIP3    H239737   1.017   6.798   0.650
 6060TIP3   OH239738   0.855   6.259   7.178
 6060TIP3    H139739   0.800   6.333   7.203
 6060TIP3    H239740   0.809   6.183   7.214
 6061TIP3   OH239741   3.116   3.392   6.581
 6061TIP3    H139742   3.026   3.383   6.614
 6061TIP3    H239743   3.119   3.479   6.542
 6062TIP3   OH239744   6.466   4.406   6.882
 6062TIP3    H139745   6.380   4.399   6.839
 6062TIP3    H239746   6.504   4.486   6.845
 6063TIP3   OH239747   3.321   6.556   1.441
 6063TIP3    H139748   3.302   6.649   1.432
 6063TIP3    H239749   3.262   6.526   1.510
 6064TIP3   OH239750   6.878   2.357   8.085
 6064TIP3    H139751   6.795   2.405   8.080
 6064TIP3    H239752   0.051   2.403   8.151
 6065TIP3   OH239753   2.849   0.688   0.748
 6065TIP3    H139754   2.863   0.781   0.767
 6065TIP3    H239755   2.936   0.654   0.728
 6066TIP3   OH239756   2.827   4.085   1.798
 6066TIP3    H139757   2.742   4.095   1.755
 6066TIP3    H239758   2.815   4.011   1.858
 6067TIP3   OH239759   0.517   1.828   8.278
 6067TIP3    H139760   0.425   1.806   8.260
 6067TIP3    H239761   0.549   1.863   8.195
 6068TIP3   OH239762   6.229   0.402   1.530
 6068TIP3    H139763   6.176   0.352   1.469
 6068TIP3    H239764   6.306   0.428   1.479
 6069TIP3   OH239765   3.998   1.346   1.017
 6069TIP3    H139766   3.979   1.339   0.923
 6069TIP3    H239767   3.918   1.315   1.059
 6070TIP3   OH239768   3.357   0.396   6.849
 6070TIP3    H139769   3.446   0.365   6.864
 6070TIP3    H239770   3.339   0.454   6.923
 6071TIP3   OH239771   4.309   1.274   0.329
 6071TIP3    H139772   4.398   1.310   0.336
 6071TIP3    H239773   4.321   1.192   0.281
 6072TIP3   OH239774   0.034   3.044   8.239
 6072TIP3    H139775   0.098   3.075   8.175
 6072TIP3    H239776   6.839   3.013   8.186
 6073TIP3   OH239777   5.409   1.957   1.534
 6073TIP3    H139778   5.438   2.041   1.569
 6073TIP3    H239779   5.317   1.970   1.515
 6074TIP3   OH239780   6.805   2.945   0.368
 6074TIP3    H139781   6.738   2.958   0.301
 6074TIP3    H239782   6.865   2.881   0.330
 6075TIP3   OH239783   5.956   2.986   2.059
 6075TIP3    H139784   5.863   3.000   2.038
 6075TIP3    H239785   5.972   3.044   2.133
 6076TIP3   OH239786   3.527   3.555   1.705
 6076TIP3    H139787   3.459   3.578   1.769
 6076TIP3    H239788   3.588   3.628   1.708
 6077TIP3   OH239789   0.183   2.235   7.402
 6077TIP3    H139790   0.124   2.238   7.477
 6077TIP3    H239791   0.128   2.256   7.327
 6078TIP3   OH239792   5.211   1.374   2.242
 6078TIP3    H139793   5.228   1.310   2.172
 6078TIP3    H239794   5.296   1.387   2.284
 6079TIP3   OH239795   1.339   3.989   0.045
 6079TIP3    H139796   1.409   3.975   8.632
 6079TIP3    H239797   1.374   3.955   0.127
 6080TIP3   OH239798   3.256   6.749   6.594
 6080TIP3    H139799   3.333   6.794   6.630
 6080TIP3    H239800   3.292   6.691   6.527
 6081TIP3   OH239801   0.454   2.183   0.714
 6081TIP3    H139802   0.482   2.243   0.783
 6081TIP3    H239803   0.535   2.149   0.678
 6082TIP3   OH239804   6.635   1.588   0.431
 6082TIP3    H139805   6.647   1.505   0.384
 6082TIP3    H239806   6.669   1.655   0.372
 6083TIP3   OH239807   6.033   1.251   0.280
 6083TIP3    H139808   6.036   1.220   0.189
 6083TIP3    H239809   5.969   1.195   0.323
 6084TIP3   OH239810   4.223   3.023   7.697
 6084TIP3    H139811   4.272   3.091   7.650
 6084TIP3    H239812   4.134   3.059   7.706
 6085TIP3   OH239813   0.404   0.122   1.163
 6085TIP3    H139814   0.479   0.159   1.208
 6085TIP3    H239815   0.340   0.105   1.232
 6086TIP3   OH239816   4.230   3.237   8.017
 6086TIP3    H139817   4.304   3.291   7.988
 6086TIP3    H239818   4.256   3.147   7.996
 6087TIP3   OH239819   0.827   2.920   2.219
 6087TIP3    H139820   0.906   2.886   2.176
 6087TIP3    H239821   0.831   2.885   2.308
 6088TIP3   OH239822   3.764   2.436   1.937
 6088TIP3    H139823   3.680   2.397   1.913
 6088TIP3    H239824   3.818   2.362   1.965
 6089TIP3   OH239825   5.130   1.807   1.657
 6089TIP3    H139826   5.051   1.801   1.711
 6089TIP3    H239827   5.189   1.741   1.692
 6090TIP3   OH239828   4.418   1.414   7.044
 6090TIP3    H139829   4.389   1.456   7.125
 6090TIP3    H239830   4.413   1.484   6.978
 6091TIP3   OH239831   1.405   6.422   8.468
 6091TIP3    H139832   1.494   6.436   8.501
 6091TIP3    H239833   1.370   6.510   8.455
 6092TIP3   OH239834   0.506   3.068   6.494
 6092TIP3    H139835   0.578   3.118   6.533
 6092TIP3    H239836   0.433   3.129   6.493
 6093TIP3   OH239837   4.482   1.385   7.751
 6093TIP3    H139838   4.503   1.301   7.791
 6093TIP3    H239839   4.398   1.371   7.707
 6094TIP3   OH239840   1.697   2.905   8.545
 6094TIP3    H139841   1.692   3.001   8.552
 6094TIP3    H239842   1.618   2.874   8.589
 6095TIP3   OH239843   3.774   6.369   6.552
 6095TIP3    H139844   3.739   6.360   6.463
 6095TIP3    H239845   3.715   6.431   6.595
 6096TIP3   OH239846   5.503   1.398   7.592
 6096TIP3    H139847   5.511   1.340   7.516
 6096TIP3    H239848   5.556   1.475   7.569
 6097TIP3   OH239849   4.625   6.146   0.881
 6097TIP3    H139850   4.653   6.067   0.835
 6097TIP3    H239851   4.597   6.116   0.967
 6098TIP3   OH239852   3.744   0.142   2.587
 6098TIP3    H139853   3.671   0.144   2.648
 6098TIP3    H239854   3.714   0.192   2.512
 6099TIP3   OH239855   2.440   4.692   6.950
 6099TIP3    H139856   2.464   4.757   6.884
 6099TIP3    H239857   2.363   4.648   6.914
 6100TIP3   OH239858   6.708   3.024   1.092
 6100TIP3    H139859   6.652   3.077   1.149
 6100TIP3    H239860   6.692   2.934   1.119
 6101TIP3   OH239861   2.963   3.073   6.745
 6101TIP3    H139862   2.936   3.113   6.662
 6101TIP3    H239863   2.986   3.147   6.801
 6102TIP3   OH239864   5.191   1.575   0.441
 6102TIP3    H139865   5.152   1.528   0.515
 6102TIP3    H239866   5.259   1.628   0.480
 6103TIP3   OH239867   2.802   3.423   0.477
 6103TIP3    H139868   2.821   3.397   0.567
 6103TIP3    H239869   2.873   3.483   0.454
 6104TIP3   OH239870   4.065   5.706   7.739
 6104TIP3    H139871   3.970   5.706   7.740
 6104TIP3    H239872   4.090   5.705   7.831
 6105TIP3   OH239873   2.408   3.806   1.545
 6105TIP3    H139874   2.370   3.890   1.570
 6105TIP3    H239875   2.489   3.801   1.595
 6106TIP3   OH239876   3.012   0.882   0.586
 6106TIP3    H139877   3.050   0.962   0.622
 6106TIP3    H239878   3.082   0.817   0.593
 6107TIP3   OH239879   4.644   3.551   0.686
 6107TIP3    H139880   4.653   3.580   0.777
 6107TIP3    H239881   4.733   3.544   0.654
 6108TIP3   OH239882   1.628   5.734   7.567
 6108TIP3    H139883   1.659   5.652   7.606
 6108TIP3    H239884   1.696   5.757   7.504
 6109TIP3   OH239885   6.448   6.470   0.328
 6109TIP3    H139886   6.523   6.500   0.276
 6109TIP3    H239887   6.425   6.385   0.289
 6110TIP3   OH239888   4.594   5.157   6.998
 6110TIP3    H139889   4.535   5.091   7.035
 6110TIP3    H239890   4.681   5.117   7.003
 6111TIP3   OH239891   4.920   0.918   1.633
 6111TIP3    H139892   4.887   0.954   1.715
 6111TIP3    H239893   5.014   0.910   1.646
 6112TIP3   OH239894   0.549   0.212   1.834
 6112TIP3    H139895   0.455   0.224   1.817
 6112TIP3    H239896   0.588   0.202   1.747
 6113TIP3   OH239897   6.525   1.190   2.494
 6113TIP3    H139898   6.432   1.200   2.514
 6113TIP3    H239899   6.528   1.132   2.419
 6114TIP3   OH239900   5.468   3.051   7.717
 6114TIP3    H139901   5.382   3.009   7.709
 6114TIP3    H239902   5.461   3.130   7.664
 6115TIP3   OH239903   1.614   1.985   5.978
 6115TIP3    H139904   1.597   2.008   6.070
 6115TIP3    H239905   1.642   2.067   5.938
 6116TIP3   OH239906   3.039   5.470   8.523
 6116TIP3    H139907   3.004   5.491   8.436
 6116TIP3    H239908   3.096   5.395   8.508
 6117TIP3   OH239909   1.402   3.229   1.069
 6117TIP3    H139910   1.324   3.184   1.037
 6117TIP3    H239911   1.373   3.277   1.147
 6118TIP3   OH239912   5.441   5.767   0.256
 6118TIP3    H139913   5.363   5.774   0.201
 6118TIP3    H239914   5.422   5.821   0.332
 6119TIP3   OH239915   6.159   6.792   0.324
 6119TIP3    H139916   6.073   6.779   0.363
 6119TIP3    H239917   6.141   6.835   0.241
 6120TIP3   OH239918   1.269   2.643   0.241
 6120TIP3    H139919   1.333   2.693   0.190
 6120TIP3    H239920   1.184   2.677   0.212
 6121TIP3   OH239921   2.564   4.712   1.159
 6121TIP3    H139922   2.645   4.756   1.132
 6121TIP3    H239923   2.497   4.780   1.155
 6122TIP3   OH239924   1.396   2.101   8.246
 6122TIP3    H139925   1.355   2.110   8.160
 6122TIP3    H239926   1.396   2.190   8.282
 6123TIP3   OH239927   2.797   2.574   2.059
 6123TIP3    H139928   2.777   2.523   1.981
 6123TIP3    H239929   2.713   2.612   2.085
 6124TIP3   OH239930   5.862   6.779   2.430
 6124TIP3    H139931   5.943   6.729   2.443
 6124TIP3    H239932   5.837   6.807   2.518
 6125TIP3   OH239933   5.569   6.652   1.134
 6125TIP3    H139934   5.514   6.727   1.159
 6125TIP3    H239935   5.515   6.576   1.156
 6126TIP3   OH239936   6.503   5.302   1.589
 6126TIP3    H139937   6.520   5.348   1.671
 6126TIP3    H239938   6.495   5.210   1.615
 6127TIP3   OH239939   0.212   1.926   8.470
 6127TIP3    H139940   0.117   1.923   8.456
 6127TIP3    H239941   0.244   1.979   8.397
 6128TIP3   OH239942   4.950   1.737   0.346
 6128TIP3    H139943   5.002   1.685   0.407
 6128TIP3    H239944   4.939   1.680   0.270
 6129TIP3   OH239945   5.831   0.286   0.201
 6129TIP3    H139946   5.767   0.220   0.174
 6129TIP3    H239947   5.836   0.346   0.127
 6130TIP3   OH239948   2.508   0.901   2.055
 6130TIP3    H139949   2.541   0.982   2.094
 6130TIP3    H239950   2.425   0.926   2.014
 6131TIP3   OH239951   3.385   4.807   8.230
 6131TIP3    H139952   3.343   4.729   8.195
 6131TIP3    H239953   3.354   4.813   8.320
 6132TIP3   OH239954   1.229   0.883   0.537
 6132TIP3    H139955   1.275   0.824   0.596
 6132TIP3    H239956   1.142   0.892   0.576
 6133TIP3   OH239957   5.929   5.486   2.259
 6133TIP3    H139958   5.888   5.436   2.330
 6133TIP3    H239959   5.927   5.427   2.184
 6134TIP3   OH239960   6.738   1.395   1.185
 6134TIP3    H139961   6.772   1.330   1.123
 6134TIP3    H239962   6.710   1.468   1.130
 6135TIP3   OH239963   6.862   6.360   7.165
 6135TIP3    H139964   6.872   6.303   7.241
 6135TIP3    H239965   0.034   6.439   7.187
 6136TIP3   OH239966   3.466   1.938   7.044
 6136TIP3    H139967   3.547   1.977   7.011
 6136TIP3    H239968   3.429   1.892   6.969
 6137TIP3   OH239969   5.682   0.174   7.905
 6137TIP3    H139970   5.704   0.137   7.820
 6137TIP3    H239971   5.697   0.268   7.896
 6138TIP3   OH239972   2.985   4.799   2.410
 6138TIP3    H139973   2.957   4.767   2.324
 6138TIP3    H239974   3.078   4.819   2.399
 6139TIP3   OH239975   2.151   1.627   1.006
 6139TIP3    H139976   2.187   1.589   1.086
 6139TIP3    H239977   2.165   1.560   0.939
 6140TIP3   OH239978   4.102   2.029   8.185
 6140TIP3    H139979   4.067   1.966   8.123
 6140TIP3    H239980   4.109   1.980   8.267
 6141TIP3   OH239981   5.596   4.431   0.636
 6141TIP3    H139982   5.531   4.501   0.630
 6141TIP3    H239983   5.665   4.467   0.691
 6142TIP3   OH239984   3.287   3.350   0.885
 6142TIP3    H139985   3.291   3.282   0.952
 6142TIP3    H239986   3.363   3.406   0.903
 6143TIP3   OH239987   3.072   4.245   0.562
 6143TIP3    H139988   2.987   4.229   0.602
 6143TIP3    H239989   3.096   4.160   0.524
 6144TIP3   OH239990   6.575   6.495   1.990
 6144TIP3    H139991   6.503   6.530   1.939
 6144TIP3    H239992   6.639   6.465   1.925
 6145TIP3   OH239993   3.956   3.019   6.989
 6145TIP3    H139994   3.948   3.025   7.084
 6145TIP3    H239995   3.936   3.107   6.957
 6146TIP3   OH239996   4.899   2.177   7.701
 6146TIP3    H139997   4.911   2.100   7.645
 6146TIP3    H239998   4.829   2.152   7.761
 6147TIP3   OH239999   6.026   1.380   0.992
 6147TIP3    H140000   5.986   1.384   0.905
 6147TIP3    H240001   6.017   1.468   1.027
 6148TIP3   OH240002   4.072   5.172   6.520
 6148TIP3    H140003   4.108   5.129   6.597
 6148TIP3    H240004   4.036   5.254   6.552
 6149TIP3   OH240005   4.543   4.329   7.728
 6149TIP3    H140006   4.498   4.395   7.781
 6149TIP3    H240007   4.595   4.379   7.666
 6150TIP3   OH240008   5.272   0.491   7.614
 6150TIP3    H140009   5.350   0.471   7.665
 6150TIP3    H240010   5.253   0.411   7.566
 6151TIP3   OH240011   3.030   0.851   1.586
 6151TIP3    H140012   2.965   0.790   1.551
 6151TIP3    H240013   3.085   0.873   1.511
 6152TIP3   OH240014   3.072   2.426   7.531
 6152TIP3    H140015   3.098   2.515   7.506
 6152TIP3    H240016   3.129   2.405   7.604
 6153TIP3   OH240017   2.396   5.238   1.967
 6153TIP3    H140018   2.446   5.320   1.966
 6153TIP3    H240019   2.418   5.195   1.885
 6154TIP3   OH240020   1.170   4.659   1.309
 6154TIP3    H140021   1.238   4.591   1.305
 6154TIP3    H240022   1.093   4.618   1.270
 6155TIP3   OH240023   2.695   4.835   8.648
 6155TIP3    H140024   2.680   4.787   0.078
 6155TIP3    H240025   2.765   4.786   8.604
 6156TIP3   OH240026   2.799   6.016   6.838
 6156TIP3    H140027   2.789   5.967   6.920
 6156TIP3    H240028   2.893   6.019   6.823
 6157TIP3   OH240029   1.843   0.848   7.360
 6157TIP3    H140030   1.901   0.914   7.324
 6157TIP3    H240031   1.787   0.822   7.287
 6158TIP3   OH240032   5.107   4.534   8.501
 6158TIP3    H140033   5.090   4.500   8.413
 6158TIP3    H240034   5.185   4.589   8.492
 6159TIP3   OH240035   0.941   4.396   0.391
 6159TIP3    H140036   1.022   4.376   0.437
 6159TIP3    H240037   0.914   4.481   0.425
 6160TIP3   OH240038   2.722   4.831   1.733
 6160TIP3    H140039   2.691   4.916   1.703
 6160TIP3    H240040   2.775   4.798   1.661
 6161TIP3   OH240041   4.646   0.529   0.904
 6161TIP3    H140042   4.568   0.570   0.941
 6161TIP3    H240043   4.691   0.491   0.979
 6162TIP3   OH240044   6.451   0.927   1.914
 6162TIP3    H140045   6.384   0.991   1.939
 6162TIP3    H240046   6.532   0.960   1.953
 6163TIP3   OH240047   0.785   2.829   1.747
 6163TIP3    H140048   0.797   2.874   1.663
 6163TIP3    H240049   0.872   2.799   1.770
 6164TIP3   OH240050   6.524   2.818   7.229
 6164TIP3    H140051   6.473   2.741   7.203
 6164TIP3    H240052   6.608   2.808   7.183
 6165TIP3   OH240053   1.183   5.321   7.512
 6165TIP3    H140054   1.174   5.414   7.489
 6165TIP3    H240055   1.228   5.283   7.436
 6166TIP3   OH240056   4.440   2.590   0.833
 6166TIP3    H140057   4.385   2.656   0.791
 6166TIP3    H240058   4.492   2.638   0.898
 6167TIP3   OH240059   0.602   2.163   1.499
 6167TIP3    H140060   0.553   2.116   1.567
 6167TIP3    H240061   0.623   2.247   1.540
 6168TIP3   OH240062   4.980   1.940   8.009
 6168TIP3    H140063   5.010   1.911   7.923
 6168TIP3    H240064   4.917   2.010   7.991
 6169TIP3   OH240065   2.429   3.197   2.241
 6169TIP3    H140066   2.386   3.133   2.298
 6169TIP3    H240067   2.360   3.225   2.181
 6170TIP3   OH240068   0.893   1.476   0.865
 6170TIP3    H140069   0.871   1.403   0.806
 6170TIP3    H240070   0.848   1.455   0.946
 6171TIP3   OH240071   2.971   1.537   0.872
 6171TIP3    H140072   2.954   1.623   0.834
 6171TIP3    H240073   2.894   1.520   0.926
 6172TIP3   OH240074   1.052   5.145   0.526
 6172TIP3    H140075   0.972   5.130   0.575
 6172TIP3    H240076   1.115   5.083   0.563
 6173TIP3   OH240077   3.953   5.137   1.327
 6173TIP3    H140078   4.001   5.055   1.314
 6173TIP3    H240079   3.966   5.158   1.419
 6174TIP3   OH240080   1.920   4.232   0.562
 6174TIP3    H140081   1.905   4.138   0.554
 6174TIP3    H240082   1.927   4.263   0.472
 6175TIP3   OH240083   2.530   2.844   6.965
 6175TIP3    H140084   2.597   2.879   6.906
 6175TIP3    H240085   2.526   2.751   6.945
 6176TIP3   OH240086   5.585   3.758   8.320
 6176TIP3    H140087   5.624   3.696   8.381
 6176TIP3    H240088   5.513   3.709   8.279
 6177TIP3   OH240089   0.136   4.646   0.929
 6177TIP3    H140090   0.226   4.617   0.944
 6177TIP3    H240091   0.119   4.626   0.837
 6178TIP3   OH240092   3.411   4.003   1.159
 6178TIP3    H140093   3.449   4.010   1.246
 6178TIP3    H240094   3.388   4.092   1.135
 6179TIP3   OH240095   5.561   6.105   2.255
 6179TIP3    H140096   5.483   6.136   2.302
 6179TIP3    H240097   5.533   6.023   2.215
 6180TIP3   OH240098   3.681   5.714   1.445
 6180TIP3    H140099   3.712   5.633   1.484
 6180TIP3    H240100   3.738   5.727   1.369
 6181TIP3   OH240101   0.856   4.549   6.605
 6181TIP3    H140102   0.772   4.558   6.560
 6181TIP3    H240103   0.885   4.461   6.585
 6182TIP3   OH240104   4.827   6.822   7.193
 6182TIP3    H140105   4.789   0.030   7.177
 6182TIP3    H240106   4.778   6.763   7.135
 6183TIP3   OH240107   4.432   1.535   8.394
 6183TIP3    H140108   4.432   1.458   8.451
 6183TIP3    H240109   4.403   1.502   8.309
 6184TIP3   OH240110   3.037   2.531   8.005
 6184TIP3    H140111   2.947   2.563   8.014
 6184TIP3    H240112   3.075   2.544   8.091
 6185TIP3   OH240113   2.137   4.847   8.283
 6185TIP3    H140114   2.201   4.914   8.263
 6185TIP3    H240115   2.077   4.889   8.345
 6186TIP3   OH240116   5.090   0.930   0.527
 6186TIP3    H140117   5.045   0.862   0.478
 6186TIP3    H240118   5.020   0.978   0.572
 6187TIP3   OH240119   5.985   1.125   0.037
 6187TIP3    H140120   5.951   1.182   8.619
 6187TIP3    H240121   5.965   1.036   0.006
 6188TIP3   OH240122   3.516   6.532   0.740
 6188TIP3    H140123   3.488   6.580   0.662
 6188TIP3    H240124   3.590   6.479   0.710
 6189TIP3   OH240125   5.945   6.012   7.648
 6189TIP3    H140126   5.883   5.964   7.594
 6189TIP3    H240127   6.027   6.010   7.598
 6190TIP3   OH240128   5.299   6.080   7.454
 6190TIP3    H140129   5.352   6.102   7.378
 6190TIP3    H240130   5.274   5.989   7.441
 6191TIP3   OH240131   2.891   0.922   0.857
 6191TIP3    H140132   2.957   0.991   0.857
 6191TIP3    H240133   2.819   0.957   0.909
 6192TIP3   OH240134   5.772   0.713   2.467
 6192TIP3    H140135   5.701   0.769   2.434
 6192TIP3    H240136   5.755   0.706   2.561
 6193TIP3   OH240137   4.717   6.251   0.286
 6193TIP3    H140138   4.726   6.306   0.209
 6193TIP3    H240139   4.691   6.311   0.356
 6194TIP3   OH240140   2.582   5.103   2.132
 6194TIP3    H140141   2.623   5.181   2.094
 6194TIP3    H240142   2.541   5.058   2.058
 6195TIP3   OH240143   6.709   3.917   2.062
 6195TIP3    H140144   6.789   3.959   2.095
 6195TIP3    H240145   6.637   3.968   2.099
 6196TIP3   OH240146   0.734   2.619   7.365
 6196TIP3    H140147   0.758   2.588   7.452
 6196TIP3    H240148   0.680   2.549   7.329
 6197TIP3   OH240149   4.805   0.890   0.875
 6197TIP3    H140150   4.783   0.816   0.819
 6197TIP3    H240151   4.825   0.961   0.815
 6198TIP3   OH240152   5.400   1.378   6.951
 6198TIP3    H140153   5.343   1.432   7.005
 6198TIP3    H240154   5.407   1.426   6.868
 6199TIP3   OH240155   3.075   0.943   0.123
 6199TIP3    H140156   3.146   1.002   0.147
 6199TIP3    H240157   3.075   0.943   0.027
 6200TIP3   OH240158   4.750   6.197   7.827
 6200TIP3    H140159   4.752   6.104   7.851
 6200TIP3    H240160   4.842   6.223   7.825
 6201TIP3   OH240161   2.719   6.193   7.605
 6201TIP3    H140162   2.787   6.226   7.663
 6201TIP3    H240163   2.765   6.134   7.545
 6202TIP3   OH240164   0.490   2.932   8.067
 6202TIP3    H140165   0.545   2.996   8.022
 6202TIP3    H240166   0.423   2.908   8.002
 6203TIP3   OH240167   4.335   2.898   0.174
 6203TIP3    H140168   4.390   2.860   0.106
 6203TIP3    H240169   4.246   2.872   0.151
 6204TIP3   OH240170   2.352   2.493   1.414
 6204TIP3    H140171   2.374   2.484   1.322
 6204TIP3    H240172   2.317   2.408   1.439
 6205TIP3   OH240173   0.524   5.614   0.134
 6205TIP3    H140174   0.487   5.653   0.214
 6205TIP3    H240175   0.489   5.525   0.133
 6206TIP3   OH240176   5.562   1.683   0.988
 6206TIP3    H140177   5.552   1.678   1.083
 6206TIP3    H240178   5.652   1.716   0.976
 6207TIP3   OH240179   4.476   1.136   7.881
 6207TIP3    H140180   4.383   1.114   7.878
 6207TIP3    H240181   4.512   1.101   7.800
 6208TIP3   OH240182   6.254   3.788   8.424
 6208TIP3    H140183   6.239   3.873   8.463
 6208TIP3    H240184   6.327   3.751   8.474
 6209TIP3   OH240185   6.304   3.043   7.912
 6209TIP3    H140186   6.320   2.978   7.843
 6209TIP3    H240187   6.219   3.080   7.890
 6210TIP3   OH240188   4.214   6.391   8.280
 6210TIP3    H140189   4.256   6.440   8.350
 6210TIP3    H240190   4.277   6.392   8.208
 6211TIP3   OH240191   6.737   4.795   2.132
 6211TIP3    H140192   6.698   4.721   2.086
 6211TIP3    H240193   6.693   4.872   2.097
 6212TIP3   OH240194   4.675   3.885   6.070
 6212TIP3    H140195   4.679   3.863   6.163
 6212TIP3    H240196   4.745   3.949   6.057
 6213TIP3   OH240197   4.587   2.746   0.992
 6213TIP3    H140198   4.504   2.778   1.028
 6213TIP3    H240199   4.646   2.743   1.067
 6214TIP3   OH240200   3.234   4.318   0.076
 6214TIP3    H140201   3.316   4.347   0.117
 6214TIP3    H240202   3.191   4.263   0.142
 6215TIP3   OH240203   0.308   5.430   7.341
 6215TIP3    H140204   0.360   5.509   7.357
 6215TIP3    H240205   0.370   5.358   7.351
 6216TIP3   OH240206   3.985   3.653   7.166
 6216TIP3    H140207   3.951   3.724   7.111
 6216TIP3    H240208   4.080   3.655   7.152
 6217TIP3   OH240209   0.448   2.830   1.304
 6217TIP3    H140210   0.520   2.853   1.246
 6217TIP3    H240211   0.454   2.893   1.376
 6218TIP3   OH240212   1.183   1.364   8.530
 6218TIP3    H140213   1.217   1.453   8.521
 6218TIP3    H240214   1.256   1.314   8.565
 6219TIP3   OH240215   4.090   6.181   8.417
 6219TIP3    H140216   4.102   6.259   8.363
 6219TIP3    H240217   4.154   6.119   8.384
 6220TIP3   OH240218   2.122   1.598   0.349
 6220TIP3    H140219   2.143   1.679   0.303
 6220TIP3    H240220   2.108   1.534   0.280
 6221TIP3   OH240221   2.706   0.713   8.348
 6221TIP3    H140222   2.766   0.733   8.420
 6221TIP3    H240223   2.708   0.791   8.292
 6222TIP3   OH240224   6.613   1.054   0.809
 6222TIP3    H140225   6.597   1.014   0.894
 6222TIP3    H240226   6.708   1.056   0.800
 6223TIP3   OH240227   5.020   4.804   6.883
 6223TIP3    H140228   5.099   4.780   6.834
 6223TIP3    H240229   4.980   4.873   6.831
 6224TIP3   OH240230   1.932   4.785   7.585
 6224TIP3    H140231   2.020   4.811   7.555
 6224TIP3    H240232   1.895   4.865   7.621
 6225TIP3   OH240233   1.814   2.825   6.641
 6225TIP3    H140234   1.806   2.745   6.589
 6225TIP3    H240235   1.908   2.841   6.646
 6226TIP3   OH240236   6.492   0.320   0.902
 6226TIP3    H140237   6.499   0.270   0.821
 6226TIP3    H240238   6.582   0.331   0.932
 6227TIP3   OH240239   0.014   4.634   8.257
 6227TIP3    H140240   0.001   4.629   8.162
 6227TIP3    H240241   6.836   4.706   8.285
 6228TIP3   OH240242   2.838   4.005   6.157
 6228TIP3    H140243   2.796   4.078   6.203
 6228TIP3    H240244   2.772   3.974   6.095
 6229TIP3   OH240245   2.190   6.217   1.530
 6229TIP3    H140246   2.261   6.154   1.518
 6229TIP3    H240247   2.183   6.228   1.625
 6230TIP3   OH240248   0.657   2.512   6.705
 6230TIP3    H140249   0.579   2.467   6.671
 6230TIP3    H240250   0.728   2.484   6.648
 6231TIP3   OH240251   6.076   5.730   8.217
 6231TIP3    H140252   6.038   5.650   8.182
 6231TIP3    H240253   6.024   5.749   8.295
 6232TIP3   OH240254   4.460   0.685   0.668
 6232TIP3    H140255   4.441   0.747   0.738
 6232TIP3    H240256   4.551   0.657   0.685
 6233TIP3   OH240257   3.693   0.295   0.074
 6233TIP3    H140258   3.607   0.282   0.033
 6233TIP3    H240259   3.714   0.210   0.113
 6234TIP3   OH240260   6.089   6.647   7.503
 6234TIP3    H140261   6.181   6.671   7.507
 6234TIP3    H240262   6.070   6.610   7.590
 6235TIP3   OH240263   3.115   1.572   7.322
 6235TIP3    H140264   3.161   1.579   7.238
 6235TIP3    H240265   3.181   1.596   7.387
 6236TIP3   OH240266   3.918   2.308   6.951
 6236TIP3    H140267   3.954   2.326   6.864
 6236TIP3    H240268   3.911   2.394   6.992
 6237TIP3   OH240269   2.839   3.683   8.055
 6237TIP3    H140270   2.901   3.753   8.033
 6237TIP3    H240271   2.780   3.723   8.119
 6238TIP3   OH240272   3.549   3.419   6.076
 6238TIP3    H140273   3.507   3.386   5.996
 6238TIP3    H240274   3.549   3.344   6.135
 6239TIP3   OH240275   2.721   4.763   7.807
 6239TIP3    H140276   2.808   4.742   7.841
 6239TIP3    H240277   2.667   4.688   7.834
 6240TIP3   OH240278   4.815   1.203   7.766
 6240TIP3    H140279   4.875   1.169   7.832
 6240TIP3    H240280   4.783   1.126   7.719
 6241TIP3   OH240281   6.522   5.463   1.291
 6241TIP3    H140282   6.502   5.543   1.243
 6241TIP3    H240283   6.588   5.490   1.355
 6242TIP3   OH240284   3.008   2.409   1.082
 6242TIP3    H140285   2.985   2.376   0.996
 6242TIP3    H240286   3.003   2.504   1.073
 6243TIP3   OH240287   5.861   1.477   0.320
 6243TIP3    H140288   5.898   1.420   0.387
 6243TIP3    H240289   5.937   1.515   0.276
 6244TIP3   OH240290   1.784   2.662   0.132
 6244TIP3    H140291   1.717   2.697   0.073
 6244TIP3    H240292   1.770   2.709   0.215
 6245TIP3   OH240293   4.322   5.866   2.237
 6245TIP3    H140294   4.270   5.786   2.234
 6245TIP3    H240295   4.274   5.924   2.297
 6246TIP3   OH240296   4.598   2.903   1.952
 6246TIP3    H140297   4.567   2.941   1.870
 6246TIP3    H240298   4.691   2.883   1.936
 6247TIP3   OH240299   0.080   0.200   8.261
 6247TIP3    H140300   0.044   0.256   8.193
 6247TIP3    H240301   0.147   0.254   8.304
 6248TIP3   OH240302   1.847   3.717   6.750
 6248TIP3    H140303   1.783   3.710   6.821
 6248TIP3    H240304   1.805   3.674   6.676
 6249TIP3   OH240305   5.833   2.989   0.296
 6249TIP3    H140306   5.917   3.015   0.258
 6249TIP3    H240307   5.825   3.043   0.375
 6250TIP3   OH240308   1.864   4.969   6.821
 6250TIP3    H140309   1.905   5.042   6.867
 6250TIP3    H240310   1.777   5.001   6.798
 6251TIP3   OH240311   2.671   2.078   8.238
 6251TIP3    H140312   2.719   2.024   8.302
 6251TIP3    H240313   2.579   2.056   8.253
 6252TIP3   OH240314   3.992   2.083   8.472
 6252TIP3    H140315   3.987   2.173   8.439
 6252TIP3    H240316   3.924   2.078   8.539
 6253TIP3   OH240317   4.301   2.084   1.493
 6253TIP3    H140318   4.303   2.165   1.443
 6253TIP3    H240319   4.335   2.017   1.433
 6254TIP3   OH240320   3.138   4.369   8.355
 6254TIP3    H140321   3.117   4.368   8.262
 6254TIP3    H240322   3.234   4.367   8.358
 6255TIP3   OH240323   4.830   4.544   0.650
 6255TIP3    H140324   4.793   4.617   0.699
 6255TIP3    H240325   4.873   4.490   0.716
 6256TIP3   OH240326   3.354   1.271   7.469
 6256TIP3    H140327   3.271   1.229   7.449
 6256TIP3    H240328   3.420   1.204   7.450
 6257TIP3   OH240329   2.088   2.122   7.676
 6257TIP3    H140330   2.176   2.086   7.662
 6257TIP3    H240331   2.029   2.049   7.658
 6258TIP3   OH240332   3.166   3.799   6.103
 6258TIP3    H140333   3.134   3.782   6.014
 6258TIP3    H240334   3.246   3.747   6.111
 6259TIP3   OH240335   5.310   4.763   6.995
 6259TIP3    H140336   5.311   4.853   7.029
 6259TIP3    H240337   5.289   4.773   6.902
 6260TIP3   OH240338   5.859   1.941   1.150
 6260TIP3    H140339   5.835   1.861   1.103
 6260TIP3    H240340   5.782   1.961   1.203
 6261TIP3   OH240341   3.577   5.858   6.796
 6261TIP3    H140342   3.532   5.842   6.879
 6261TIP3    H240343   3.513   5.906   6.744
 6262TIP3   OH240344   1.002   2.918   0.314
 6262TIP3    H140345   1.005   2.827   0.342
 6262TIP3    H240346   0.956   2.917   0.231
 6263TIP3   OH240347   4.038   0.041   0.489
 6263TIP3    H140348   4.049   0.132   0.463
 6263TIP3    H240349   3.945   0.033   0.511
 6264TIP3   OH240350   0.803   0.402   1.568
 6264TIP3    H140351   0.872   0.469   1.565
 6264TIP3    H240352   0.850   0.320   1.582
 6265TIP3   OH240353   2.382   3.229   6.547
 6265TIP3    H140354   2.336   3.279   6.480
 6265TIP3    H240355   2.358   3.273   6.629
 6266TIP3   OH240356   4.933   6.441   8.590
 6266TIP3    H140357   4.881   6.438   0.019
 6266TIP3    H240358   4.930   6.533   8.563
 6267TIP3   OH240359   1.896   4.652   8.056
 6267TIP3    H140360   1.801   4.648   8.072
 6267TIP3    H240361   1.908   4.730   8.003
 6268TIP3   OH240362   5.821   6.690   7.290
 6268TIP3    H140363   5.892   6.673   7.353
 6268TIP3    H240364   5.825   6.617   7.229
 6269TIP3   OH240365   3.000   3.809   0.428
 6269TIP3    H140366   3.026   3.746   0.495
 6269TIP3    H240367   3.068   3.876   0.430
 6270TIP3   OH240368   5.805   0.879   1.924
 6270TIP3    H140369   5.839   0.789   1.927
 6270TIP3    H240370   5.812   0.903   1.831
 6271TIP3   OH240371   0.802   4.175   7.764
 6271TIP3    H140372   0.827   4.084   7.780
 6271TIP3    H240373   0.792   4.213   7.852
 6272TIP3   OH240374   1.840   6.192   7.300
 6272TIP3    H140375   1.769   6.193   7.364
 6272TIP3    H240376   1.843   6.282   7.266
 6273TIP3   OH240377   2.126   4.586   8.207
 6273TIP3    H140378   2.131   4.676   8.241
 6273TIP3    H240379   2.053   4.588   8.145
 6274TIP3   OH240380   0.994   6.589   8.274
 6274TIP3    H140381   1.044   6.646   8.332
 6274TIP3    H240382   1.052   6.514   8.259
 6275TIP3   OH240383   2.788   6.074   2.436
 6275TIP3    H140384   2.863   6.045   2.385
 6275TIP3    H240385   2.726   6.108   2.371
 6276TIP3   OH240386   6.401   2.783   1.895
 6276TIP3    H140387   6.323   2.833   1.915
 6276TIP3    H240388   6.392   2.760   1.802
 6277TIP3   OH240389   5.425   3.290   7.579
 6277TIP3    H140390   5.464   3.377   7.572
 6277TIP3    H240391   5.331   3.306   7.590
 6278TIP3   OH240392   3.155   3.489   1.147
 6278TIP3    H140393   3.107   3.503   1.065
 6278TIP3    H240394   3.090   3.454   1.208
 6279TIP3   OH240395   2.168   4.151   0.114
 6279TIP3    H140396   2.089   4.204   0.129
 6279TIP3    H240397   2.203   4.184   0.031
 6280TIP3   OH240398   4.301   0.113   0.515
 6280TIP3    H140399   4.286   0.102   0.421
 6280TIP3    H240400   4.230   0.063   0.556
 6281TIP3   OH240401   1.586   3.030   1.114
 6281TIP3    H140402   1.521   3.097   1.095
 6281TIP3    H240403   1.597   2.983   1.032
 6282TIP3   OH240404   2.165   3.497   1.803
 6282TIP3    H140405   2.089   3.524   1.855
 6282TIP3    H240406   2.230   3.566   1.819
 6283TIP3   OH240407   2.656   0.218   2.317
 6283TIP3    H140408   2.576   0.238   2.269
 6283TIP3    H240409   2.687   0.303   2.350
 6284TIP3   OH240410   3.492   0.937   7.107
 6284TIP3    H140411   3.487   0.918   7.201
 6284TIP3    H240412   3.586   0.947   7.090
 6285TIP3   OH240413   6.838   3.716   1.866
 6285TIP3    H140414   6.768   3.771   1.902
 6285TIP3    H240415   0.023   3.710   1.937
 6286TIP3   OH240416   1.320   6.677   6.997
 6286TIP3    H140417   1.305   6.674   7.091
 6286TIP3    H240418   1.241   6.717   6.961
 6287TIP3   OH240419   4.407   6.387   0.221
 6287TIP3    H140420   4.428   6.325   0.290
 6287TIP3    H240421   4.473   6.370   0.153
 6288TIP3   OH240422   5.930   6.105   0.252
 6288TIP3    H140423   5.906   6.038   0.189
 6288TIP3    H240424   5.987   6.165   0.203
 6289TIP3   OH240425   5.131   0.434   2.235
 6289TIP3    H140426   5.141   0.513   2.289
 6289TIP3    H240427   5.076   0.376   2.287
 6290TIP3   OH240428   1.157   1.287   8.034
 6290TIP3    H140429   1.181   1.243   8.116
 6290TIP3    H240430   1.239   1.327   8.004
 6291TIP3   OH240431   5.945   4.361   6.486
 6291TIP3    H140432   5.884   4.432   6.506
 6291TIP3    H240433   6.006   4.400   6.423
 6292TIP3   OH240434   6.583   0.449   1.603
 6292TIP3    H140435   6.669   0.414   1.626
 6292TIP3    H240436   6.553   0.393   1.531
 6293TIP3   OH240437   2.614   5.807   7.491
 6293TIP3    H140438   2.670   5.730   7.501
 6293TIP3    H240439   2.604   5.817   7.396
 6294TIP3   OH240440   5.310   0.621   1.288
 6294TIP3    H140441   5.344   0.591   1.372
 6294TIP3    H240442   5.294   0.715   1.300
 6295TIP3   OH240443   1.376   1.827   0.084
 6295TIP3    H140444   1.460   1.823   0.038
 6295TIP3    H240445   1.376   1.749   0.140
 6296TIP3   OH240446   0.391   2.562   1.428
 6296TIP3    H140447   0.395   2.638   1.371
 6296TIP3    H240448   0.340   2.592   1.504
 6297TIP3   OH240449   5.433   5.455   7.826
 6297TIP3    H140450   5.514   5.423   7.867
 6297TIP3    H240451   5.401   5.379   7.777
 6298TIP3   OH240452   4.715   5.450   0.641
 6298TIP3    H140453   4.754   5.389   0.703
 6298TIP3    H240454   4.670   5.395   0.578
 6299TIP3   OH240455   0.382   4.444   8.446
 6299TIP3    H140456   0.326   4.366   8.437
 6299TIP3    H240457   0.408   4.444   8.538
 6300TIP3   OH240458   4.404   3.892   7.596
 6300TIP3    H140459   4.324   3.928   7.634
 6300TIP3    H240460   4.474   3.928   7.650
 6301TIP3   OH240461   3.665   3.564   0.704
 6301TIP3    H140462   3.636   3.545   0.615
 6301TIP3    H240463   3.665   3.479   0.748
 6302TIP3   OH240464   5.791   2.729   0.460
 6302TIP3    H140465   5.767   2.817   0.430
 6302TIP3    H240466   5.711   2.677   0.448
 6303TIP3   OH240467   2.518   5.978   6.746
 6303TIP3    H140468   2.601   5.990   6.791
 6303TIP3    H240469   2.452   6.012   6.807
 6304TIP3   OH240470   1.648   2.890   0.876
 6304TIP3    H140471   1.690   2.957   0.821
 6304TIP3    H240472   1.637   2.815   0.817
 6305TIP3   OH240473   1.738   1.252   1.744
 6305TIP3    H140474   1.790   1.261   1.824
 6305TIP3    H240475   1.655   1.296   1.764
 6306TIP3   OH240476   3.760   2.823   7.937
 6306TIP3    H140477   3.681   2.776   7.911
 6306TIP3    H240478   3.829   2.756   7.937
 6307TIP3   OH240479   3.113   4.150   7.340
 6307TIP3    H140480   3.178   4.196   7.287
 6307TIP3    H240481   3.132   4.057   7.327
 6308TIP3   OH240482   3.458   2.052   1.278
 6308TIP3    H140483   3.473   2.023   1.189
 6308TIP3    H240484   3.514   2.129   1.288
 6309TIP3   OH240485   6.361   4.379   7.935
 6309TIP3    H140486   6.401   4.464   7.918
 6309TIP3    H240487   6.424   4.334   7.991
 6310TIP3   OH240488   0.734   0.960   1.505
 6310TIP3    H140489   0.790   0.883   1.511
 6310TIP3    H240490   0.770   1.011   1.432
 6311TIP3   OH240491   5.570   3.099   7.106
 6311TIP3    H140492   5.662   3.073   7.096
 6311TIP3    H240493   5.564   3.131   7.196
 6312TIP3   OH240494   2.187   4.127   0.395
 6312TIP3    H140495   2.195   4.102   0.303
 6312TIP3    H240496   2.140   4.211   0.393
 6313TIP3   OH240497   2.674   1.252   7.971
 6313TIP3    H140498   2.633   1.272   7.887
 6313TIP3    H240499   2.608   1.278   8.036
 6314TIP3   OH240500   1.850   6.191   2.142
 6314TIP3    H140501   1.764   6.225   2.167
 6314TIP3    H240502   1.886   6.156   2.223
 6315TIP3   OH240503   1.973   0.576   7.483
 6315TIP3    H140504   2.042   0.560   7.418
 6315TIP3    H240505   1.936   0.661   7.457
 6316TIP3   OH240506   4.829   4.644   8.330
 6316TIP3    H140507   4.865   4.559   8.306
 6316TIP3    H240508   4.749   4.625   8.379
 6317TIP3   OH240509   3.560   6.434   0.216
 6317TIP3    H140510   3.594   6.345   0.229
 6317TIP3    H240511   3.635   6.490   0.231
 6318TIP3   OH240512   4.912   6.325   7.555
 6318TIP3    H140513   4.862   6.379   7.617
 6318TIP3    H240514   4.848   6.262   7.521
 6319TIP3   OH240515   1.338   6.089   8.586
 6319TIP3    H140516   1.391   6.140   8.646
 6319TIP3    H240517   1.266   6.056   8.639
 6320TIP3   OH240518   3.250   5.908   7.302
 6320TIP3    H140519   3.194   5.983   7.320
 6320TIP3    H240520   3.227   5.844   7.370
 6321TIP3   OH240521   0.158   4.838   1.191
 6321TIP3    H140522   0.131   4.775   1.124
 6321TIP3    H240523   0.099   4.821   1.264
 6322TIP3   OH240524   0.062   1.119   7.657
 6322TIP3    H140525   6.859   1.169   7.660
 6322TIP3    H240526   0.041   1.043   7.602
 6323TIP3   OH240527   1.099   5.609   1.547
 6323TIP3    H140528   1.194   5.611   1.562
 6323TIP3    H240529   1.065   5.548   1.613
 6324TIP3   OH240530   3.988   0.380   7.466
 6324TIP3    H140531   4.062   0.406   7.520
 6324TIP3    H240532   3.914   0.379   7.527
 6325TIP3   OH240533   1.563   4.429   6.882
 6325TIP3    H140534   1.624   4.473   6.941
 6325TIP3    H240535   1.614   4.410   6.804
 6326TIP3   OH240536   4.635   2.381   1.021
 6326TIP3    H140537   4.634   2.476   1.011
 6326TIP3    H240538   4.680   2.348   0.944
 6327TIP3   OH240539   4.820   6.247   8.449
 6327TIP3    H140540   4.843   6.323   8.502
 6327TIP3    H240541   4.889   6.243   8.382
 6328TIP3   OH240542   0.989   1.667   0.659
 6328TIP3    H140543   0.966   1.606   0.728
 6328TIP3    H240544   1.061   1.719   0.696
 6329TIP3   OH240545   4.005   3.455   7.625
 6329TIP3    H140546   4.060   3.502   7.689
 6329TIP3    H240547   4.035   3.486   7.540
 6330TIP3   OH240548   5.316   4.148   0.630
 6330TIP3    H140549   5.227   4.132   0.600
 6330TIP3    H240550   5.317   4.240   0.654
 6331TIP3   OH240551   3.828   6.494   1.784
 6331TIP3    H140552   3.834   6.576   1.735
 6331TIP3    H240553   3.851   6.427   1.720
 6332TIP3   OH240554   3.288   3.145   8.570
 6332TIP3    H140555   3.276   3.240   8.568
 6332TIP3    H240556   3.201   3.110   8.588
 6333TIP3   OH240557   3.789   6.065   7.123
 6333TIP3    H140558   3.719   6.103   7.070
 6333TIP3    H240559   3.839   6.010   7.063
 6334TIP3   OH240560   5.032   6.620   0.811
 6334TIP3    H140561   5.046   6.705   0.851
 6334TIP3    H240562   5.052   6.557   0.881
 6335TIP3   OH240563   4.924   6.704   6.684
 6335TIP3    H140564   5.003   6.744   6.646
 6335TIP3    H240565   4.912   6.623   6.634
 6336TIP3   OH240566   1.648   2.436   0.190
 6336TIP3    H140567   1.657   2.418   0.284
 6336TIP3    H240568   1.701   2.514   0.175
 6337TIP3   OH240569   3.117   0.744   0.942
 6337TIP3    H140570   3.038   0.706   0.903
 6337TIP3    H240571   3.164   0.670   0.979
 6338TIP3   OH240572   0.323   1.354   6.852
 6338TIP3    H140573   0.317   1.275   6.905
 6338TIP3    H240574   0.266   1.338   6.777
 6339TIP3   OH240575   5.510   0.585   8.291
 6339TIP3    H140576   5.576   0.530   8.251
 6339TIP3    H240577   5.535   0.590   8.384
 6340TIP3   OH240578   4.175   2.815   8.431
 6340TIP3    H140579   4.186   2.858   8.346
 6340TIP3    H240580   4.139   2.884   8.487
 6341TIP3   OH240581   3.197   1.088   1.365
 6341TIP3    H140582   3.259   1.025   1.401
 6341TIP3    H240583   3.188   1.062   1.273
 6342TIP3   OH240584   0.967   4.557   1.590
 6342TIP3    H140585   0.908   4.483   1.575
 6342TIP3    H240586   0.938   4.624   1.529
 6343TIP3   OH240587   2.456   0.806   8.412
 6343TIP3    H140588   2.421   0.720   8.434
 6343TIP3    H240589   2.544   0.788   8.380
 6344TIP3   OH240590   2.273   5.286   7.059
 6344TIP3    H140591   2.271   5.202   7.013
 6344TIP3    H240592   2.208   5.340   7.012
 6345TIP3   OH240593   2.334   6.858   7.576
 6345TIP3    H140594   2.298   6.794   7.515
 6345TIP3    H240595   2.277   6.853   7.653
 6346TIP3   OH240596   1.238   5.801   8.070
 6346TIP3    H140597   1.149   5.780   8.098
 6346TIP3    H240598   1.235   5.895   8.052
 6347TIP3   OH240599   0.831   6.729   7.382
 6347TIP3    H140600   0.795   6.779   7.309
 6347TIP3    H240601   0.895   6.787   7.422
 6348TIP3   OH240602   4.191   1.381   7.309
 6348TIP3    H140603   4.161   1.458   7.262
 6348TIP3    H240604   4.149   1.307   7.264
 6349TIP3   OH240605   2.003   2.446   7.934
 6349TIP3    H140606   1.984   2.532   7.971
 6349TIP3    H240607   1.940   2.437   7.863
 6350TIP3   OH240608   4.362   2.089   8.359
 6350TIP3    H140609   4.276   2.073   8.319
 6350TIP3    H240610   4.423   2.038   8.306
 6351TIP3   OH240611   4.070   2.421   6.412
 6351TIP3    H140612   4.163   2.402   6.403
 6351TIP3    H240613   4.055   2.497   6.357
 6352TIP3   OH240614   0.930   2.485   0.585
 6352TIP3    H140615   0.988   2.410   0.590
 6352TIP3    H240616   0.948   2.535   0.665
 6353TIP3   OH240617   1.528   3.313   8.432
 6353TIP3    H140618   1.542   3.404   8.456
 6353TIP3    H240619   1.545   3.264   8.513
 6354TIP3   OH240620   1.735   2.110   0.306
 6354TIP3    H140621   1.645   2.108   0.339
 6354TIP3    H240622   1.731   2.064   0.222
 6355TIP3   OH240623   2.220   4.929   7.137
 6355TIP3    H140624   2.240   4.978   7.057
 6355TIP3    H240625   2.233   4.838   7.113
 6356TIP3   OH240626   4.707   3.247   1.095
 6356TIP3    H140627   4.678   3.203   1.175
 6356TIP3    H240628   4.790   3.288   1.118
 6357TIP3   OH240629   1.703   5.115   2.655
 6357TIP3    H140630   1.669   5.068   2.578
 6357TIP3    H240631   1.627   5.161   2.690
 6358TIP3   OH240632   6.459   4.437   1.132
 6358TIP3    H140633   6.393   4.506   1.134
 6358TIP3    H240634   6.496   4.442   1.044
 6359TIP3   OH240635   4.025   0.013   6.867
 6359TIP3    H140636   3.936   0.000   6.835
 6359TIP3    H240637   4.051   6.806   6.902
 6360TIP3   OH240638   1.410   0.974   8.440
 6360TIP3    H140639   1.469   1.003   8.509
 6360TIP3    H240640   1.340   0.927   8.487
 6361TIP3   OH240641   1.040   2.169   1.511
 6361TIP3    H140642   1.109   2.104   1.524
 6361TIP3    H240643   1.044   2.224   1.589
 6362TIP3   OH240644   1.629   5.430   7.978
 6362TIP3    H140645   1.630   5.344   7.935
 6362TIP3    H240646   1.580   5.415   8.058
 6363TIP3   OH240647   6.362   5.706   0.591
 6363TIP3    H140648   6.314   5.633   0.553
 6363TIP3    H240649   6.435   5.665   0.637
 6364TIP3   OH240650   2.247   2.202   6.311
 6364TIP3    H140651   2.173   2.182   6.368
 6364TIP3    H240652   2.286   2.281   6.348
 6365TIP3   OH240653   0.732   0.660   0.309
 6365TIP3    H140654   0.694   0.748   0.299
 6365TIP3    H240655   0.756   0.654   0.401
 6366TIP3   OH240656   0.063   4.588   0.681
 6366TIP3    H140657   0.152   4.576   0.648
 6366TIP3    H240658   0.007   4.586   0.603
 6367TIP3   OH240659   3.736   2.900   8.494
 6367TIP3    H140660   3.663   2.957   8.469
 6367TIP3    H240661   3.749   2.843   8.418
 6368TIP3   OH240662   5.369   4.361   0.999
 6368TIP3    H140663   5.438   4.416   1.036
 6368TIP3    H240664   5.309   4.423   0.957
 6369TIP3   OH240665   2.613   0.544   2.108
 6369TIP3    H140666   2.700   0.513   2.133
 6369TIP3    H240667   2.555   0.469   2.124
 6370TIP3   OH240668   6.712   5.724   7.335
 6370TIP3    H140669   6.735   5.649   7.279
 6370TIP3    H240670   6.631   5.697   7.378
 6371TIP3   OH240671   4.131   3.423   0.332
 6371TIP3    H140672   4.090   3.507   0.310
 6371TIP3    H240673   4.117   3.414   0.426
 6372TIP3   OH240674   0.402   4.222   0.234
 6372TIP3    H140675   0.462   4.184   0.299
 6372TIP3    H240676   0.420   4.174   0.154
 6373TIP3   OH240677   4.658   1.298   7.012
 6373TIP3    H140678   4.723   1.357   7.050
 6373TIP3    H240679   4.574   1.337   7.037
 6374TIP3   OH240680   6.816   1.466   0.632
 6374TIP3    H140681   6.763   1.536   0.594
 6374TIP3    H240682   6.761   1.389   0.627
 6375TIP3   OH240683   5.355   6.081   0.767
 6375TIP3    H140684   5.407   6.150   0.809
 6375TIP3    H240685   5.413   6.043   0.701
 6376TIP3   OH240686   3.812   6.364   7.400
 6376TIP3    H140687   3.868   6.291   7.373
 6376TIP3    H240688   3.789   6.408   7.318
 6377TIP3   OH240689   2.832   0.625   1.682
 6377TIP3    H140690   2.905   0.574   1.717
 6377TIP3    H240691   2.774   0.638   1.757
 6378TIP3   OH240692   4.065   3.367   1.330
 6378TIP3    H140693   4.000   3.331   1.269
 6378TIP3    H240694   4.103   3.441   1.282
 6379TIP3   OH240695   6.491   2.286   6.430
 6379TIP3    H140696   6.567   2.344   6.415
 6379TIP3    H240697   6.471   2.250   6.343
 6380TIP3   OH240698   5.693   0.026   0.163
 6380TIP3    H140699   5.703   6.831   0.102
 6380TIP3    H240700   5.619   0.002   0.218
 6381TIP3   OH240701   3.873   4.634   7.444
 6381TIP3    H140702   3.931   4.572   7.399
 6381TIP3    H240703   3.814   4.579   7.496
 6382TIP3   OH240704   1.320   3.007   7.576
 6382TIP3    H140705   1.316   2.988   7.482
 6382TIP3    H240706   1.251   2.954   7.615
 6383TIP3   OH240707   6.291   0.878   2.557
 6383TIP3    H140708   6.311   0.807   2.618
 6383TIP3    H240709   6.296   0.837   2.470
 6384TIP3   OH240710   3.545   2.559   6.968
 6384TIP3    H140711   3.480   2.490   6.982
 6384TIP3    H240712   3.570   2.550   6.876
 6385TIP3   OH240713   3.434   5.180   7.110
 6385TIP3    H140714   3.448   5.132   7.029
 6385TIP3    H240715   3.399   5.265   7.083
 6386TIP3   OH240716   1.005   3.098   0.652
 6386TIP3    H140717   1.064   3.032   0.688
 6386TIP3    H240718   1.060   3.153   0.596
 6387TIP3   OH240719   2.553   1.873   6.773
 6387TIP3    H140720   2.546   1.892   6.680
 6387TIP3    H240721   2.465   1.847   6.800
 6388TIP3   OH240722   6.113   4.550   0.091
 6388TIP3    H140723   6.080   4.607   0.161
 6388TIP3    H240724   6.207   4.544   0.107
 6389TIP3   OH240725   4.950   3.802   7.471
 6389TIP3    H140726   4.996   3.865   7.416
 6389TIP3    H240727   4.946   3.844   7.557
 6390TIP3   OH240728   1.875   3.070   0.490
 6390TIP3    H140729   1.898   3.152   0.445
 6390TIP3    H240730   1.955   3.018   0.487
 6391TIP3   OH240731   0.286   4.680   8.121
 6391TIP3    H140732   0.191   4.669   8.115
 6391TIP3    H240733   0.310   4.719   8.037
 6392TIP3   OH240734   0.342   2.625   2.212
 6392TIP3    H140735   0.421   2.677   2.228
 6392TIP3    H240736   0.270   2.677   2.248
 6393TIP3   OH240737   2.793   3.391   8.185
 6393TIP3    H140738   2.789   3.469   8.241
 6393TIP3    H240739   2.823   3.321   8.243
 6394TIP3   OH240740   4.476   0.874   6.928
 6394TIP3    H140741   4.564   0.909   6.916
 6394TIP3    H240742   4.448   0.848   6.840
 6395TIP3   OH240743   3.300   2.794   6.131
 6395TIP3    H140744   3.354   2.727   6.175
 6395TIP3    H240745   3.216   2.790   6.177
 6396TIP3   OH240746   0.928   2.688   8.120
 6396TIP3    H140747   0.928   2.592   8.116
 6396TIP3    H240748   0.954   2.708   8.210
 6397TIP3   OH240749   1.274   2.491   6.895
 6397TIP3    H140750   1.181   2.488   6.917
 6397TIP3    H240751   1.299   2.582   6.911
 6398TIP3   OH240752   6.208   4.863   7.693
 6398TIP3    H140753   6.150   4.855   7.769
 6398TIP3    H240754   6.184   4.790   7.636
 6399TIP3   OH240755   2.290   0.187   7.422
 6399TIP3    H140756   2.323   0.121   7.482
 6399TIP3    H240757   2.329   0.164   7.338
 6400TIP3   OH240758   6.231   2.568   8.027
 6400TIP3    H140759   6.176   2.646   8.028
 6400TIP3    H240760   6.223   2.532   8.116
 6401TIP3   OH240761   5.243   6.514   8.282
 6401TIP3    H140762   5.261   6.593   8.231
 6401TIP3    H240763   5.268   6.442   8.225
 6402TIP3   OH240764   1.198   3.759   0.602
 6402TIP3    H140765   1.122   3.753   0.660
 6402TIP3    H240766   1.260   3.815   0.649
 6403TIP3   OH240767   1.783   1.211   8.488
 6403TIP3    H140768   1.844   1.140   8.509
 6403TIP3    H240769   1.708   1.196   8.546
 6404TIP3   OH240770   4.487   5.489   8.355
 6404TIP3    H140771   4.418   5.424   8.367
 6404TIP3    H240772   4.495   5.532   8.440
 6405TIP3   OH240773   4.491   6.474   0.862
 6405TIP3    H140774   4.446   6.411   0.806
 6405TIP3    H240775   4.463   6.451   0.951
 6406TIP3   OH240776   0.575   1.813   6.429
 6406TIP3    H140777   0.603   1.896   6.468
 6406TIP3    H240778   0.511   1.839   6.363
 6407TIP3   OH240779   5.019   6.626   7.965
 6407TIP3    H140780   5.089   6.671   8.013
 6407TIP3    H240781   4.969   6.580   8.033
 6408TIP3   OH240782   6.130   5.854   8.563
 6408TIP3    H140783   6.111   5.784   8.625
 6408TIP3    H240784   6.067   5.841   8.492
 6409TIP3   OH240785   3.600   6.825   0.338
 6409TIP3    H140786   3.562   6.738   0.354
 6409TIP3    H240787   3.527   0.007   0.349
 6410TIP3   OH240788   3.793   4.641   7.183
 6410TIP3    H140789   3.816   4.654   7.275
 6410TIP3    H240790   3.703   4.673   7.177
 6411TIP3   OH240791   6.453   5.129   7.996
 6411TIP3    H140792   6.509   5.062   8.037
 6411TIP3    H240793   6.514   5.199   7.973
 6412TIP3   OH240794   1.746   1.541   1.400
 6412TIP3    H140795   1.705   1.624   1.377
 6412TIP3    H240796   1.783   1.508   1.318
 6413TIP3   OH240797   0.837   2.288   1.736
 6413TIP3    H140798   0.926   2.295   1.771
 6413TIP3    H240799   0.809   2.199   1.759
 6414TIP3   OH240800   5.393   6.039   6.900
 6414TIP3    H140801   5.309   6.059   6.857
 6414TIP3    H240802   5.458   6.054   6.832
 6415TIP3   OH240803   0.214   3.858   6.588
 6415TIP3    H140804   0.263   3.938   6.608
 6415TIP3    H240805   0.264   3.815   6.519
 6416TIP3   OH240806   0.227   4.214   8.451
 6416TIP3    H140807   0.274   4.131   8.451
 6416TIP3    H240808   0.167   4.208   8.526
 6417TIP3   OH240809   1.806   3.117   0.747
 6417TIP3    H140810   1.831   3.103   0.655
 6417TIP3    H240811   1.750   3.194   0.745
 6418TIP3   OH240812   0.716   1.926   0.870
 6418TIP3    H140813   0.670   1.995   0.918
 6418TIP3    H240814   0.668   1.846   0.892
 6419TIP3   OH240815   1.178   3.305   1.529
 6419TIP3    H140816   1.180   3.214   1.559
 6419TIP3    H240817   1.224   3.354   1.597
 6420TIP3   OH240818   0.474   6.120   8.627
 6420TIP3    H140819   0.451   6.203   0.018
 6420TIP3    H240820   0.532   6.144   8.555
 6421TIP3   OH240821   5.925   0.871   8.551
 6421TIP3    H140822   5.996   0.810   8.532
 6421TIP3    H240823   5.919   0.926   8.472
 6422TIP3   OH240824   2.661   3.761   0.156
 6422TIP3    H140825   2.625   3.849   0.168
 6422TIP3    H240826   2.699   3.739   0.241
 6423TIP3   OH240827   1.070   2.900   7.645
 6423TIP3    H140828   1.053   2.834   7.712
 6423TIP3    H240829   1.005   2.882   7.577
 6424TIP3   OH240830   2.607   2.937   7.759
 6424TIP3    H140831   2.562   2.853   7.769
 6424TIP3    H240832   2.539   3.002   7.775
 6425TIP3   OH240833   3.903   0.725   0.326
 6425TIP3    H140834   3.979   0.671   0.303
 6425TIP3    H240835   3.911   0.738   0.421
 6426TIP3   OH240836   1.078   0.605   1.183
 6426TIP3    H140837   1.093   0.590   1.276
 6426TIP3    H240838   1.112   0.526   1.140
 6427TIP3   OH240839   6.639   2.432   7.386
 6427TIP3    H140840   6.681   2.398   7.307
 6427TIP3    H240841   6.711   2.441   7.449
 6428TIP3   OH240842   3.318   1.069   2.350
 6428TIP3    H140843   3.409   1.043   2.332
 6428TIP3    H240844   3.306   1.149   2.299
 6429TIP3   OH240845   2.437   5.497   7.316
 6429TIP3    H140846   2.473   5.482   7.229
 6429TIP3    H240847   2.428   5.592   7.322
 6430TIP3   OH240848   4.841   5.546   6.954
 6430TIP3    H140849   4.799   5.590   6.880
 6430TIP3    H240850   4.803   5.458   6.954
 6431TIP3   OH240851   1.251   5.856   0.939
 6431TIP3    H140852   1.257   5.906   0.857
 6431TIP3    H240853   1.341   5.830   0.957
 6432TIP3   OH240854   2.456   1.563   0.856
 6432TIP3    H140855   2.401   1.504   0.804
 6432TIP3    H240856   2.395   1.606   0.916
 6433TIP3   OH240857   6.187   0.662   6.720
 6433TIP3    H140858   6.113   0.706   6.677
 6433TIP3    H240859   6.162   0.659   6.812
 6434TIP3   OH240860   5.566   3.475   2.157
 6434TIP3    H140861   5.593   3.387   2.182
 6434TIP3    H240862   5.600   3.531   2.227
 6435TIP3   OH240863   6.207   4.072   1.008
 6435TIP3    H140864   6.136   4.136   1.006
 6435TIP3    H240865   6.287   4.124   1.000
 6436TIP3   OH240866   3.003   2.807   0.171
 6436TIP3    H140867   3.091   2.770   0.172
 6436TIP3    H240868   3.016   2.900   0.155
 6437TIP3   OH240869   5.674   2.702   2.046
 6437TIP3    H140870   5.658   2.702   2.140
 6437TIP3    H240871   5.692   2.794   2.024
 6438TIP3   OH240872   4.067   0.390   8.491
 6438TIP3    H140873   4.080   0.443   8.412
 6438TIP3    H240874   4.046   0.455   8.559
 6439TIP3   OH240875   0.383   2.932   1.700
 6439TIP3    H140876   0.403   2.938   1.793
 6439TIP3    H240877   0.379   2.838   1.683
 6440TIP3   OH240878   2.164   5.794   2.045
 6440TIP3    H140879   2.180   5.700   2.044
 6440TIP3    H240880   2.216   5.828   1.972
 6441TIP3   OH240881   3.991   0.517   7.016
 6441TIP3    H140882   3.939   0.514   7.096
 6441TIP3    H240883   4.081   0.530   7.046
 6442TIP3   OH240884   0.525   6.490   1.885
 6442TIP3    H140885   0.460   6.435   1.842
 6442TIP3    H240886   0.547   6.443   1.965
 6443TIP3   OH240887   2.179   5.781   6.279
 6443TIP3    H140888   2.266   5.819   6.291
 6443TIP3    H240889   2.167   5.777   6.184
 6444TIP3   OH240890   6.397   6.776   0.644
 6444TIP3    H140891   6.342   6.709   0.603
 6444TIP3    H240892   6.478   6.774   0.593
 6445TIP3   OH240893   3.079   1.323   6.715
 6445TIP3    H140894   3.095   1.234   6.744
 6445TIP3    H240895   3.021   1.313   6.639
 6446TIP3   OH240896   0.594   1.305   8.388
 6446TIP3    H140897   0.526   1.253   8.430
 6446TIP3    H240898   0.564   1.396   8.398
 6447TIP3   OH240899   2.282   6.798   2.057
 6447TIP3    H140900   2.293   0.016   2.059
 6447TIP3    H240901   2.371   6.763   2.058
 6448TIP3   OH240902   6.819   3.081   7.872
 6448TIP3    H140903   6.765   3.064   7.949
 6448TIP3    H240904   6.813   3.001   7.820
 6449TIP3   OH240905   3.598   1.124   8.257
 6449TIP3    H140906   3.602   1.044   8.309
 6449TIP3    H240907   3.504   1.145   8.253
 6450TIP3   OH240908   4.873   1.673   7.515
 6450TIP3    H140909   4.835   1.593   7.551
 6450TIP3    H240910   4.833   1.744   7.565
 6451TIP3   OH240911   5.406   2.428   8.033
 6451TIP3    H140912   5.500   2.448   8.033
 6451TIP3    H240913   5.400   2.344   8.080
 6452TIP3   OH240914   3.344   5.985   7.767
 6452TIP3    H140915   3.254   5.999   7.796
 6452TIP3    H240916   3.342   5.899   7.725
 6453TIP3   OH240917   5.377   4.612   1.942
 6453TIP3    H140918   5.283   4.616   1.921
 6453TIP3    H240919   5.399   4.701   1.970
 6454TIP3   OH240920   4.796   1.934   1.386
 6454TIP3    H140921   4.800   2.013   1.332
 6454TIP3    H240922   4.755   1.868   1.329
 6455TIP3   OH240923   4.339   5.595   6.945
 6455TIP3    H140924   4.274   5.609   7.014
 6455TIP3    H240925   4.292   5.544   6.879
 6456TIP3   OH240926   3.433   5.282   0.958
 6456TIP3    H140927   3.512   5.282   0.903
 6456TIP3    H240928   3.458   5.233   1.036
 6457TIP3   OH240929   5.507   2.376   7.181
 6457TIP3    H140930   5.488   2.415   7.095
 6457TIP3    H240931   5.504   2.282   7.165
 6458TIP3   OH240932   1.108   6.355   8.571
 6458TIP3    H140933   1.094   6.303   8.650
 6458TIP3    H240934   1.036   6.419   8.571
 6459TIP3   OH240935   3.782   3.782   0.507
 6459TIP3    H140936   3.695   3.822   0.505
 6459TIP3    H240937   3.784   3.733   0.589
 6460TIP3   OH240938   5.798   5.727   7.127
 6460TIP3    H140939   5.871   5.707   7.069
 6460TIP3    H240940   5.840   5.747   7.211
 6461TIP3   OH240941   2.663   4.760   0.261
 6461TIP3    H140942   2.758   4.750   0.270
 6461TIP3    H240943   2.627   4.682   0.302
 6462TIP3   OH240944   0.973   4.437   2.065
 6462TIP3    H140945   1.003   4.520   2.101
 6462TIP3    H240946   0.907   4.405   2.127
 6463TIP3   OH240947   5.608   6.854   7.242
 6463TIP3    H140948   5.547   6.868   7.315
 6463TIP3    H240949   5.686   6.817   7.282
 6464TIP3   OH240950   1.229   2.931   1.133
 6464TIP3    H140951   1.273   2.975   1.061
 6464TIP3    H240952   1.187   3.001   1.183
 6465TIP3   OH240953   0.950   3.389   7.986
 6465TIP3    H140954   1.004   3.468   7.983
 6465TIP3    H240955   0.861   3.421   7.969
 6466TIP3   OH240956   3.725   2.092   6.676
 6466TIP3    H140957   3.788   2.124   6.611
 6466TIP3    H240958   3.710   2.001   6.650
 6467TIP3   OH240959   2.378   5.782   6.587
 6467TIP3    H140960   2.430   5.848   6.633
 6467TIP3    H240961   2.380   5.810   6.496
 6468TIP3   OH240962   6.269   1.522   1.223
 6468TIP3    H140963   6.282   1.506   1.130
 6468TIP3    H240964   6.357   1.537   1.258
 6469TIP3   OH240965   5.009   5.448   0.689
 6469TIP3    H140966   4.987   5.533   0.726
 6469TIP3    H240967   4.947   5.387   0.730
 6470TIP3   OH240968   2.875   0.151   0.236
 6470TIP3    H140969   2.902   0.101   0.312
 6470TIP3    H240970   2.795   0.109   0.206
 6471TIP3   OH240971   4.980   1.509   8.516
 6471TIP3    H140972   4.999   1.416   8.522
 6471TIP3    H240973   4.895   1.514   8.471
 6472TIP3   OH240974   2.154   3.187   1.720
 6472TIP3    H140975   2.195   3.126   1.658
 6472TIP3    H240976   2.131   3.133   1.795
 6473TIP3   OH240977   0.408   2.820   7.396
 6473TIP3    H140978   0.349   2.806   7.322
 6473TIP3    H240979   0.492   2.788   7.365
 6474TIP3   OH240980   6.322   3.473   6.790
 6474TIP3    H140981   6.398   3.415   6.776
 6474TIP3    H240982   6.336   3.545   6.729
 6475TIP3   OH240983   0.029   3.838   6.115
 6475TIP3    H140984   0.025   3.900   6.188
 6475TIP3    H240985   0.122   3.814   6.109
 6476TIP3   OH240986   1.249   0.307   6.992
 6476TIP3    H140987   1.215   0.220   6.971
 6476TIP3    H240988   1.180   0.367   6.967
 6477TIP3   OH240989   0.587   0.444   1.386
 6477TIP3    H140990   0.678   0.437   1.417
 6477TIP3    H240991   0.589   0.515   1.322
 6478TIP3   OH240992   1.928   1.532   1.602
 6478TIP3    H140993   1.857   1.532   1.538
 6478TIP3    H240994   1.887   1.562   1.683
 6479TIP3   OH240995   0.548   4.932   7.081
 6479TIP3    H140996   0.542   4.898   6.992
 6479TIP3    H240997   0.600   5.011   7.073
 6480TIP3   OH240998   6.490   0.500   8.376
 6480TIP3    H140999   6.440   0.429   8.416
 6480TIP3    H241000   6.424   0.557   8.335
 6481TIP3   OH241001   1.172   4.706   7.666
 6481TIP3    H141002   1.110   4.664   7.726
 6481TIP3    H241003   1.167   4.653   7.586
 6482TIP3   OH241004   2.553   1.571   8.442
 6482TIP3    H141005   2.605   1.646   8.412
 6482TIP3    H241006   2.536   1.589   8.534
 6483TIP3   OH241007   5.080   2.544   1.809
 6483TIP3    H141008   5.069   2.637   1.826
 6483TIP3    H241009   4.994   2.515   1.777
 6484TIP3   OH241010   2.621   0.695   1.874
 6484TIP3    H141011   2.560   0.765   1.900
 6484TIP3    H241012   2.610   0.628   1.942
 6485TIP3   OH241013   2.455   2.713   8.645
 6485TIP3    H141014   2.541   2.683   8.617
 6485TIP3    H241015   2.473   2.766   0.072
 6486TIP3   OH241016   0.600   2.103   0.287
 6486TIP3    H141017   0.690   2.078   0.267
 6486TIP3    H241018   0.597   2.197   0.269
 6487TIP3   OH241019   6.271   3.963   0.367
 6487TIP3    H141020   6.320   3.967   0.449
 6487TIP3    H241021   6.238   4.052   0.355
 6488TIP3   OH241022   5.943   2.482   1.442
 6488TIP3    H141023   5.921   2.468   1.350
 6488TIP3    H241024   5.942   2.394   1.480
 6489TIP3   OH241025   0.265   4.325   1.372
 6489TIP3    H141026   0.350   4.365   1.352
 6489TIP3    H241027   0.285   4.232   1.385
 6490TIP3   OH241028   2.277   2.539   6.303
 6490TIP3    H141029   2.289   2.500   6.217
 6490TIP3    H241030   2.326   2.484   6.363
 6491TIP3   OH241031   2.006   0.756   8.192
 6491TIP3    H141032   2.004   0.832   8.133
 6491TIP3    H241033   2.054   0.787   8.269
 6492TIP3   OH241034   4.514   4.494   8.172
 6492TIP3    H141035   4.529   4.417   8.226
 6492TIP3    H241036   4.495   4.564   8.235
 6493TIP3   OH241037   4.989   0.919   7.511
 6493TIP3    H141038   4.995   0.830   7.475
 6493TIP3    H241039   4.972   0.905   7.604
 6494TIP3   OH241040   5.605   0.262   0.950
 6494TIP3    H141041   5.569   0.308   1.026
 6494TIP3    H241042   5.577   0.171   0.961
 6495TIP3   OH241043   5.685   3.565   0.621
 6495TIP3    H141044   5.687   3.649   0.576
 6495TIP3    H241045   5.592   3.549   0.638
 6496TIP3   OH241046   2.245   1.918   6.478
 6496TIP3    H141047   2.158   1.957   6.483
 6496TIP3    H241048   2.230   1.826   6.457
 6497TIP3   OH241049   5.940   4.733   0.524
 6497TIP3    H141050   5.971   4.741   0.615
 6497TIP3    H241051   5.850   4.764   0.527
 6498TIP3   OH241052   2.291   3.351   6.789
 6498TIP3    H141053   2.281   3.446   6.778
 6498TIP3    H241054   2.203   3.320   6.809
 6499TIP3   OH241055   4.761   6.566   0.763
 6499TIP3    H141056   4.735   6.657   0.750
 6499TIP3    H241057   4.852   6.563   0.734
 6500TIP3   OH241058   1.716   6.192   1.574
 6500TIP3    H141059   1.710   6.280   1.609
 6500TIP3    H241060   1.806   6.184   1.543
 6501TIP3   OH241061   3.764   4.251   0.757
 6501TIP3    H141062   3.745   4.188   0.827
 6501TIP3    H241063   3.806   4.199   0.689
 6502TIP3   OH241064   6.819   1.058   0.441
 6502TIP3    H141065   6.821   1.129   0.504
 6502TIP3    H241066   6.749   1.081   0.380
 6503TIP3   OH241067   2.780   6.331   1.503
 6503TIP3    H141068   2.817   6.264   1.559
 6503TIP3    H241069   2.836   6.333   1.426
 6504TIP3   OH241070   5.855   4.064   7.222
 6504TIP3    H141071   5.945   4.083   7.251
 6504TIP3    H241072   5.864   4.047   7.128
 6505TIP3   OH241073   3.362   4.947   0.318
 6505TIP3    H141074   3.341   4.976   0.230
 6505TIP3    H241075   3.422   5.014   0.352
 6506TIP3   OH241076   4.518   4.925   0.043
 6506TIP3    H141077   4.610   4.930   0.020
 6506TIP3    H241078   4.517   4.922   0.139
 6507TIP3   OH241079   0.027   4.252   7.818
 6507TIP3    H141080   0.039   4.249   7.913
 6507TIP3    H241081   0.113   4.232   7.782
 6508TIP3   OH241082   5.372   6.225   1.548
 6508TIP3    H141083   5.369   6.180   1.464
 6508TIP3    H241084   5.417   6.164   1.606
 6509TIP3   OH241085   0.402   3.446   7.142
 6509TIP3    H141086   0.312   3.447   7.111
 6509TIP3    H241087   0.402   3.502   7.219
 6510TIP3   OH241088   0.872   0.275   1.137
 6510TIP3    H141089   0.822   0.204   1.176
 6510TIP3    H241090   0.939   0.296   1.201
 6511TIP3   OH241091   2.928   6.207   7.759
 6511TIP3    H141092   2.994   6.138   7.769
 6511TIP3    H241093   2.968   6.285   7.798
 6512TIP3   OH241094   0.794   2.943   1.498
 6512TIP3    H141095   0.704   2.976   1.501
 6512TIP3    H241096   0.829   2.977   1.415
 6513TIP3   OH241097   0.371   3.282   7.845
 6513TIP3    H141098   0.399   3.256   7.758
 6513TIP3    H241099   0.277   3.298   7.837
 6514TIP3   OH241100   0.700   5.155   7.018
 6514TIP3    H141101   0.788   5.139   6.983
 6514TIP3    H241102   0.715   5.213   7.093
 6515TIP3   OH241103   3.954   2.444   0.920
 6515TIP3    H141104   3.909   2.405   0.845
 6515TIP3    H241105   3.930   2.388   0.994
 6516TIP3   OH241106   4.156   6.685   6.972
 6516TIP3    H141107   4.151   6.612   7.034
 6516TIP3    H241108   4.191   6.757   7.024
 6517TIP3   OH241109   1.227   2.627   1.061
 6517TIP3    H141110   1.237   2.713   1.101
 6517TIP3    H241111   1.274   2.567   1.119
 6518TIP3   OH241112   4.693   4.183   8.277
 6518TIP3    H141113   4.749   4.257   8.256
 6518TIP3    H241114   4.611   4.222   8.307
 6519TIP3   OH241115   3.677   2.845   7.170
 6519TIP3    H141116   3.600   2.856   7.226
 6519TIP3    H241117   3.733   2.920   7.192
 6520TIP3   OH241118   2.356   1.209   1.242
 6520TIP3    H141119   2.423   1.276   1.260
 6520TIP3    H241120   2.282   1.234   1.297
 6521TIP3   OH241121   0.028   1.749   6.676
 6521TIP3    H141122   6.876   1.659   6.663
 6521TIP3    H241123   0.120   1.748   6.648
 6522TIP3   OH241124   6.860   6.176   7.352
 6522TIP3    H141125   6.867   6.082   7.369
 6522TIP3    H241126   0.051   6.215   7.405
 6523TIP3   OH241127   1.159   5.126   0.249
 6523TIP3    H141128   1.095   5.157   0.186
 6523TIP3    H241129   1.107   5.099   0.325
 6524TIP3   OH241130   3.042   2.287   8.631
 6524TIP3    H141131   3.063   2.218   8.568
 6524TIP3    H241132   2.997   2.240   0.051
 6525TIP3   OH241133   6.139   2.310   2.114
 6525TIP3    H141134   6.175   2.273   2.033
 6525TIP3    H241135   6.201   2.284   2.182
 6526TIP3   OH241136   5.857   6.068   1.388
 6526TIP3    H141137   5.774   6.115   1.378
 6526TIP3    H241138   5.885   6.087   1.477
 6527TIP3   OH241139   2.984   0.474   1.894
 6527TIP3    H141140   2.929   0.470   1.972
 6527TIP3    H241141   3.041   0.397   1.900
 6528TIP3   OH241142   3.047   4.413   2.235
 6528TIP3    H141143   3.004   4.496   2.211
 6528TIP3    H241144   3.092   4.433   2.317
 6529TIP3   OH241145   1.725   0.013   1.292
 6529TIP3    H141146   1.677   6.873   1.211
 6529TIP3    H241147   1.657   0.021   1.359
 6530TIP3   OH241148   2.161   1.149   0.778
 6530TIP3    H141149   2.147   1.054   0.780
 6530TIP3    H241150   2.176   1.169   0.685
 6531TIP3   OH241151   2.987   2.899   1.612
 6531TIP3    H141152   3.054   2.839   1.578
 6531TIP3    H241153   3.031   2.946   1.683
 6532TIP3   OH241154   4.942   4.317   1.343
 6532TIP3    H141155   4.998   4.388   1.377
 6532TIP3    H241156   4.997   4.239   1.349
 6533TIP3   OH241157   5.940   4.888   2.491
 6533TIP3    H141158   5.920   4.797   2.469
 6533TIP3    H241159   6.006   4.914   2.427
 6534TIP3   OH241160   1.153   0.584   6.988
 6534TIP3    H141161   1.124   0.616   7.073
 6534TIP3    H241162   1.217   0.648   6.958
 6535TIP3   OH241163   2.905   4.125   8.376
 6535TIP3    H141164   2.971   4.065   8.409
 6535TIP3    H241165   2.890   4.187   8.447
 6536TIP3   OH241166   1.305   4.218   0.187
 6536TIP3    H141167   1.387   4.242   0.230
 6536TIP3    H241168   1.328   4.144   0.130
 6537TIP3   OH241169   6.420   6.453   7.850
 6537TIP3    H141170   6.479   6.434   7.923
 6537TIP3    H241171   6.338   6.411   7.874
 6538TIP3   OH241172   3.707   6.876   7.624
 6538TIP3    H141173   3.676   0.029   7.539
 6538TIP3    H241174   3.783   0.053   7.643
 6539TIP3   OH241175   5.459   0.635   8.027
 6539TIP3    H141176   5.411   0.718   8.030
 6539TIP3    H241177   5.480   0.616   8.118
 6540TIP3   OH241178   3.659   0.878   2.035
 6540TIP3    H141179   3.700   0.906   2.117
 6540TIP3    H241180   3.650   0.958   1.984
 6541TIP3   OH241181   5.828   5.715   6.754
 6541TIP3    H141182   5.809   5.622   6.769
 6541TIP3    H241183   5.908   5.732   6.803
 6542TIP3   OH241184   4.744   5.259   1.096
 6542TIP3    H141185   4.825   5.215   1.123
 6542TIP3    H241186   4.674   5.205   1.131
 6543TIP3   OH241187   2.431   4.857   7.339
 6543TIP3    H141188   2.396   4.899   7.260
 6543TIP3    H241189   2.478   4.780   7.306
 6544TIP3   OH241190   1.240   0.075   1.678
 6544TIP3    H141191   1.306   0.122   1.729
 6544TIP3    H241192   1.221   6.874   1.730
 6545TIP3   OH241193   0.868   5.641   8.372
 6545TIP3    H141194   0.829   5.648   8.459
 6545TIP3    H241195   0.945   5.696   8.375
 6546TIP3   OH241196   2.604   0.456   6.450
 6546TIP3    H141197   2.677   0.416   6.402
 6546TIP3    H241198   2.604   0.547   6.422
 6547TIP3   OH241199   3.528   3.889   0.437
 6547TIP3    H141200   3.528   3.984   0.447
 6547TIP3    H241201   3.441   3.861   0.465
 6548TIP3   OH241202   1.899   1.789   8.562
 6548TIP3    H141203   1.978   1.814   8.515
 6548TIP3    H241204   1.847   1.741   8.497
 6549TIP3   OH241205   4.556   5.054   1.837
 6549TIP3    H141206   4.627   5.089   1.784
 6549TIP3    H241207   4.556   5.108   1.916
 6550TIP3   OH241208   6.421   2.814   6.564
 6550TIP3    H141209   6.401   2.812   6.657
 6550TIP3    H241210   6.512   2.840   6.558
 6551TIP3   OH241211   3.092   1.815   0.971
 6551TIP3    H141212   3.044   1.801   0.889
 6551TIP3    H241213   3.053   1.754   1.033
 6552TIP3   OH241214   2.930   6.034   1.576
 6552TIP3    H141215   2.943   6.089   1.653
 6552TIP3    H241216   3.013   6.040   1.528
 6553TIP3   OH241217   4.945   4.782   7.752
 6553TIP3    H141218   4.971   4.840   7.824
 6553TIP3    H241219   5.021   4.782   7.694
 6554TIP3   OH241220   6.421   5.606   2.457
 6554TIP3    H141221   6.337   5.652   2.452
 6554TIP3    H241222   6.485   5.671   2.430
 6555TIP3   OH241223   1.238   4.626   0.426
 6555TIP3    H141224   1.251   4.592   0.514
 6555TIP3    H241225   1.305   4.584   0.373
 6556TIP3   OH241226   2.644   5.730   0.925
 6556TIP3    H141227   2.637   5.653   0.980
 6556TIP3    H241228   2.637   5.804   0.986
 6557TIP3   OH241229   2.144   2.768   1.161
 6557TIP3    H141230   2.061   2.740   1.199
 6557TIP3    H241231   2.185   2.687   1.130
 6558TIP3   OH241232   6.527   0.789   0.254
 6558TIP3    H141233   6.544   0.726   0.184
 6558TIP3    H241234   6.471   0.742   0.315
 6559TIP3   OH241235   2.108   5.451   0.710
 6559TIP3    H141236   2.127   5.514   0.779
 6559TIP3    H241237   2.127   5.498   0.628
 6560TIP3   OH241238   1.646   2.808   1.704
 6560TIP3    H141239   1.647   2.870   1.777
 6560TIP3    H241240   1.610   2.727   1.741
 6561TIP3   OH241241   3.321   6.190   6.805
 6561TIP3    H141242   3.378   6.266   6.810
 6561TIP3    H241243   3.304   6.178   6.712
 6562TIP3   OH241244   6.458   1.795   0.187
 6562TIP3    H141245   6.505   1.808   0.104
 6562TIP3    H241246   6.474   1.876   0.236
 6563TIP3   OH241247   5.261   4.771   8.078
 6563TIP3    H141248   5.227   4.849   8.033
 6563TIP3    H241249   5.186   4.712   8.083
 6564TIP3   OH241250   5.956   1.249   7.199
 6564TIP3    H141251   6.051   1.246   7.202
 6564TIP3    H241252   5.930   1.269   7.289
 6565TIP3   OH241253   3.899   2.434   1.670
 6565TIP3    H141254   3.916   2.341   1.658
 6565TIP3    H241255   3.978   2.468   1.713
 6566TIP3   OH241256   4.860   3.451   6.769
 6566TIP3    H141257   4.829   3.541   6.765
 6566TIP3    H241258   4.879   3.428   6.678
 6567TIP3   OH241259   5.091   1.576   0.816
 6567TIP3    H141260   5.185   1.577   0.797
 6567TIP3    H241261   5.082   1.632   0.893
 6568TIP3   OH241262   1.498   6.799   7.628
 6568TIP3    H141263   1.498   0.008   7.589
 6568TIP3    H241264   1.580   6.794   7.677
 6569TIP3   OH241265   1.640   0.059   0.371
 6569TIP3    H141266   1.617   6.860   0.319
 6569TIP3    H241267   1.736   0.063   0.366
 6570TIP3   OH241268   6.519   0.776   8.577
 6570TIP3    H141269   6.437   0.788   8.529
 6570TIP3    H241270   6.510   0.691   8.619
 6571TIP3   OH241271   0.540   1.358   2.220
 6571TIP3    H141272   0.524   1.274   2.262
 6571TIP3    H241273   0.524   1.423   2.289
 6572TIP3   OH241274   3.313   3.993   7.912
 6572TIP3    H141275   3.256   4.032   7.846
 6572TIP3    H241276   3.303   4.050   7.989
 6573TIP3   OH241277   6.453   3.484   8.229
 6573TIP3    H141278   6.393   3.414   8.202
 6573TIP3    H241279   6.529   3.474   8.172
 6574TIP3   OH241280   3.375   3.909   0.018
 6574TIP3    H141281   3.288   3.893   8.634
 6574TIP3    H241282   3.427   3.835   8.638
 6575TIP3   OH241283   6.067   3.785   1.155
 6575TIP3    H141284   6.066   3.880   1.141
 6575TIP3    H241285   5.990   3.769   1.210
 6576TIP3   OH241286   2.037   0.286   0.099
 6576TIP3    H141287   2.098   0.333   0.156
 6576TIP3    H241288   2.086   0.269   0.019
 6577TIP3   OH241289   2.727   4.478   6.676
 6577TIP3    H141290   2.772   4.449   6.755
 6577TIP3    H241291   2.773   4.558   6.650
 6578TIP3   OH241292   4.095   0.299   1.755
 6578TIP3    H141293   4.047   0.352   1.692
 6578TIP3    H241294   4.044   0.307   1.836
 6579TIP3   OH241295   0.049   1.850   0.817
 6579TIP3    H141296   0.020   1.800   0.741
 6579TIP3    H241297   0.078   1.934   0.781
 6580TIP3   OH241298   2.928   0.083   1.899
 6580TIP3    H141299   2.861   0.015   1.895
 6580TIP3    H241300   2.894   0.146   1.962
 6581TIP3   OH241301   5.768   0.977   1.645
 6581TIP3    H141302   5.700   1.034   1.682
 6581TIP3    H241303   5.833   1.037   1.610
 6582TIP3   OH241304   0.476   2.045   1.719
 6582TIP3    H141305   0.421   2.104   1.770
 6582TIP3    H241306   0.560   2.045   1.764
 6583TIP3   OH241307   4.908   1.075   0.670
 6583TIP3    H141308   4.957   1.150   0.637
 6583TIP3    H241309   4.839   1.113   0.724
 6584TIP3   OH241310   4.389   5.685   6.468
 6584TIP3    H141311   4.317   5.630   6.498
 6584TIP3    H241312   4.357   5.775   6.477
 6585TIP3   OH241313   3.019   6.253   8.386
 6585TIP3    H141314   3.104   6.298   8.384
 6585TIP3    H241315   2.990   6.254   8.295
 6586TIP3   OH241316   5.120   0.165   2.658
 6586TIP3    H141317   5.190   0.118   2.704
 6586TIP3    H241318   5.059   0.096   2.631
 6587TIP3   OH241319   2.303   1.348   7.765
 6587TIP3    H141320   2.383   1.361   7.714
 6587TIP3    H241321   2.288   1.433   7.806
 6588TIP3   OH241322   1.517   2.887   7.718
 6588TIP3    H141323   1.448   2.949   7.691
 6588TIP3    H241324   1.587   2.901   7.654
 6589TIP3   OH241325   0.013   1.330   8.608
 6589TIP3    H141326   6.858   1.354   8.521
 6589TIP3    H241327   6.849   1.247   8.628
 6590TIP3   OH241328   3.439   4.149   0.807
 6590TIP3    H141329   3.434   4.205   0.884
 6590TIP3    H241330   3.503   4.081   0.830
 6591TIP3   OH241331   4.456   3.345   1.272
 6591TIP3    H141332   4.461   3.428   1.320
 6591TIP3    H241333   4.466   3.278   1.340
 6592TIP3   OH241334   6.050   4.715   8.356
 6592TIP3    H141335   6.136   4.675   8.372
 6592TIP3    H241336   6.037   4.707   8.261
 6593TIP3   OH241337   1.792   0.872   8.484
 6593TIP3    H141338   1.735   0.906   8.553
 6593TIP3    H241339   1.879   0.906   8.507
 6594TIP3   OH241340   4.101   0.816   7.486
 6594TIP3    H141341   4.114   0.911   7.480
 6594TIP3    H241342   4.190   0.780   7.486
 6595TIP3   OH241343   4.290   0.007   7.105
 6595TIP3    H141344   4.276   0.074   7.038
 6595TIP3    H241345   4.326   0.054   7.179
 6596TIP3   OH241346   0.586   2.161   7.482
 6596TIP3    H141347   0.668   2.114   7.499
 6596TIP3    H241348   0.580   2.167   7.387
 6597TIP3   OH241349   5.117   0.613   6.905
 6597TIP3    H141350   5.168   0.679   6.953
 6597TIP3    H241351   5.063   0.665   6.844
 6598TIP3   OH241352   1.070   6.198   7.370
 6598TIP3    H141353   0.996   6.214   7.311
 6598TIP3    H241354   1.056   6.108   7.401
 6599TIP3   OH241355   4.796   0.061   7.832
 6599TIP3    H141356   4.809   0.030   7.742
 6599TIP3    H241357   4.875   0.111   7.852
 6600TIP3   OH241358   3.229   5.840   6.821
 6600TIP3    H141359   3.268   5.757   6.796
 6600TIP3    H241360   3.232   5.841   6.916
 6601TIP3   OH241361   5.425   5.640   8.448
 6601TIP3    H141362   5.358   5.585   8.408
 6601TIP3    H241363   5.376   5.709   8.493
 6602TIP3   OH241364   2.784   5.849   7.044
 6602TIP3    H141365   2.775   5.755   7.057
 6602TIP3    H241366   2.723   5.888   7.107
 6603TIP3   OH241367   1.578   3.580   8.404
 6603TIP3    H141368   1.503   3.619   8.450
 6603TIP3    H241369   1.607   3.649   8.344
 6604TIP3   OH241370   2.859   2.420   0.451
 6604TIP3    H141371   2.808   2.456   0.524
 6604TIP3    H241372   2.863   2.490   0.386
 6605TIP3   OH241373   0.523   1.959   0.046
 6605TIP3    H141374   0.592   2.002   8.647
 6605TIP3    H241375   0.525   2.001   0.132
 6606TIP3   OH241376   6.082   1.945   7.895
 6606TIP3    H141377   6.035   1.986   7.823
 6606TIP3    H241378   6.166   1.989   7.898
 6607TIP3   OH241379   3.916   4.848   7.592
 6607TIP3    H141380   3.870   4.827   7.673
 6607TIP3    H241381   3.899   4.773   7.535
 6608TIP3   OH241382   6.589   3.345   0.170
 6608TIP3    H141383   6.677   3.338   0.207
 6608TIP3    H241384   6.598   3.410   0.101
 6609TIP3   OH241385   0.151   1.265   1.918
 6609TIP3    H141386   0.229   1.219   1.949
 6609TIP3    H241387   0.079   1.206   1.938
 6610TIP3   OH241388   1.359   4.888   7.015
 6610TIP3    H141389   1.320   4.975   7.004
 6610TIP3    H241390   1.293   4.828   6.981
 6611TIP3   OH241391   4.754   5.605   2.241
 6611TIP3    H141392   4.736   5.675   2.178
 6611TIP3    H241393   4.847   5.614   2.261
 6612TIP3   OH241394   3.035   5.372   2.198
 6612TIP3    H141395   2.951   5.330   2.176
 6612TIP3    H241396   3.093   5.300   2.220
 6613TIP3   OH241397   2.272   4.755   0.993
 6613TIP3    H141398   2.287   4.833   0.939
 6613TIP3    H241399   2.322   4.686   0.951
 6614TIP3   OH241400   3.864   0.500   7.247
 6614TIP3    H141401   3.927   0.454   7.303
 6614TIP3    H241402   3.778   0.469   7.277
 6615TIP3   OH241403   1.262   2.023   1.574
 6615TIP3    H141404   1.282   2.005   1.666
 6615TIP3    H241405   1.348   2.036   1.533
 6616TIP3   OH241406   1.153   6.778   1.856
 6616TIP3    H141407   1.097   6.729   1.796
 6616TIP3    H241408   1.172   6.716   1.927
 6617TIP3   OH241409   3.259   5.197   7.541
 6617TIP3    H141410   3.254   5.284   7.581
 6617TIP3    H241411   3.167   5.172   7.528
 6618TIP3   OH241412   0.938   0.155   0.913
 6618TIP3    H141413   0.937   0.207   0.994
 6618TIP3    H241414   1.002   0.086   0.931
 6619TIP3   OH241415   4.056   5.984   7.888
 6619TIP3    H141416   4.097   5.915   7.939
 6619TIP3    H241417   3.971   5.948   7.862
 6620TIP3   OH241418   6.352   6.315   2.549
 6620TIP3    H141419   6.268   6.344   2.585
 6620TIP3    H241420   6.359   6.224   2.576
 6621TIP3   OH241421   1.516   3.302   6.548
 6621TIP3    H141422   1.563   3.221   6.568
 6621TIP3    H241423   1.585   3.362   6.519
 6622TIP3   OH241424   5.123   3.255   0.058
 6622TIP3    H141425   5.192   3.216   0.003
 6622TIP3    H241426   5.065   3.182   0.079
 6623TIP3   OH241427   1.363   6.461   6.844
 6623TIP3    H141428   1.367   6.520   6.768
 6623TIP3    H241429   1.361   6.520   6.920
 6624TIP3   OH241430   0.669   6.835   0.064
 6624TIP3    H141431   0.655   0.033   0.007
 6624TIP3    H241432   0.657   6.869   0.152
 6625TIP3   OH241433   6.811   6.114   0.638
 6625TIP3    H141434   6.763   6.037   0.605
 6625TIP3    H241435   6.777   6.127   0.726
 6626TIP3   OH241436   2.218   6.109   8.460
 6626TIP3    H141437   2.156   6.124   8.388
 6626TIP3    H241438   2.302   6.095   8.417
 6627TIP3   OH241439   2.000   2.410   1.917
 6627TIP3    H141440   2.052   2.407   1.997
 6627TIP3    H241441   1.913   2.383   1.944
 6628TIP3   OH241442   4.247   0.214   1.999
 6628TIP3    H141443   4.175   0.264   1.960
 6628TIP3    H241444   4.229   0.215   2.093
 6629TIP3   OH241445   5.167   3.404   0.614
 6629TIP3    H141446   5.150   3.497   0.595
 6629TIP3    H241447   5.261   3.400   0.631
 6630TIP3   OH241448   5.074   3.060   7.999
 6630TIP3    H141449   5.042   3.114   7.927
 6630TIP3    H241450   5.009   2.989   8.006
 6631TIP3   OH241451   2.132   6.420   7.396
 6631TIP3    H141452   2.066   6.444   7.331
 6631TIP3    H241453   2.178   6.346   7.357
 6632TIP3   OH241454   5.434   2.895   0.940
 6632TIP3    H141455   5.361   2.947   0.906
 6632TIP3    H241456   5.512   2.945   0.917
 6633TIP3   OH241457   4.028   3.682   1.413
 6633TIP3    H141458   3.944   3.722   1.435
 6633TIP3    H241459   4.021   3.592   1.445
 6634TIP3   OH241460   6.171   5.437   1.889
 6634TIP3    H141461   6.192   5.375   1.958
 6634TIP3    H241462   6.145   5.383   1.815
 6635TIP3   OH241463   5.793   6.258   7.656
 6635TIP3    H141464   5.826   6.168   7.651
 6635TIP3    H241465   5.742   6.269   7.575
 6636TIP3   OH241466   1.391   1.736   7.332
 6636TIP3    H141467   1.350   1.677   7.268
 6636TIP3    H241468   1.318   1.776   7.379
 6637TIP3   OH241469   4.875   6.040   1.325
 6637TIP3    H141470   4.886   6.017   1.417
 6637TIP3    H241471   4.924   6.121   1.313
 6638TIP3   OH241472   5.830   5.622   1.730
 6638TIP3    H141473   5.770   5.695   1.715
 6638TIP3    H241474   5.840   5.618   1.825
 6639TIP3   OH241475   6.715   3.097   2.155
 6639TIP3    H141476   6.667   3.023   2.119
 6639TIP3    H241477   6.773   3.058   2.221
 6640TIP3   OH241478   0.473   0.670   7.271
 6640TIP3    H141479   0.449   0.612   7.199
 6640TIP3    H241480   0.554   0.713   7.241
 6641TIP3   OH241481   3.102   3.222   8.012
 6641TIP3    H141482   3.074   3.308   7.979
 6641TIP3    H241483   3.147   3.242   8.094
 6642TIP3   OH241484   6.286   5.488   0.968
 6642TIP3    H141485   6.249   5.431   1.036
 6642TIP3    H241486   6.209   5.523   0.922
 6643TIP3   OH241487   6.088   1.157   6.736
 6643TIP3    H141488   6.012   1.172   6.791
 6643TIP3    H241489   6.097   1.236   6.684
 6644TIP3   OH241490   0.295   5.151   0.391
 6644TIP3    H141491   0.297   5.066   0.435
 6644TIP3    H241492   0.240   5.206   0.448
 6645TIP3   OH241493   0.148   2.646   6.124
 6645TIP3    H141494   0.123   2.738   6.114
 6645TIP3    H241495   0.243   2.648   6.134
 6646TIP3   OH241496   2.471   6.338   7.463
 6646TIP3    H141497   2.535   6.326   7.393
 6646TIP3    H241498   2.518   6.391   7.528
 6647TIP3   OH241499   5.417   6.810   0.709
 6647TIP3    H141500   5.470   6.769   0.777
 6647TIP3    H241501   5.474   6.816   0.633
 6648TIP3   OH241502   5.532   1.127   1.498
 6648TIP3    H141503   5.606   1.072   1.473
 6648TIP3    H241504   5.524   1.191   1.427
 6649TIP3   OH241505   5.492   1.685   1.564
 6649TIP3    H141506   5.461   1.685   1.654
 6649TIP3    H241507   5.465   1.770   1.529
 6650TIP3   OH241508   2.872   6.361   0.287
 6650TIP3    H141509   2.919   6.368   0.204
 6650TIP3    H241510   2.800   6.301   0.268
 6651TIP3   OH241511   3.903   2.239   8.203
 6651TIP3    H141512   3.821   2.191   8.192
 6651TIP3    H241513   3.971   2.175   8.184
 6652TIP3   OH241514   0.256   2.730   8.067
 6652TIP3    H141515   0.178   2.696   8.110
 6652TIP3    H241516   0.293   2.792   8.130
 6653TIP3   OH241517   4.561   2.913   0.596
 6653TIP3    H141518   4.498   2.845   0.619
 6653TIP3    H241519   4.516   2.967   0.531
 6654TIP3   OH241520   4.925   1.253   1.576
 6654TIP3    H141521   4.967   1.181   1.529
 6654TIP3    H241522   4.971   1.331   1.546
 6655TIP3   OH241523   5.912   0.643   1.788
 6655TIP3    H141524   5.917   0.678   1.699
 6655TIP3    H241525   5.821   0.614   1.797
 6656TIP3   OH241526   3.116   2.816   8.452
 6656TIP3    H141527   3.128   2.766   8.371
 6656TIP3    H241528   3.043   2.875   8.433
 6657TIP3   OH241529   5.451   6.374   8.037
 6657TIP3    H141530   5.501   6.446   8.075
 6657TIP3    H241531   5.401   6.338   8.110
 6658TIP3   OH241532   0.056   5.791   7.692
 6658TIP3    H141533   0.145   5.807   7.722
 6658TIP3    H241534   0.056   5.817   7.600
 6659TIP3   OH241535   2.870   5.314   0.616
 6659TIP3    H141536   2.809   5.354   0.678
 6659TIP3    H241537   2.816   5.258   0.561
 6660TIP3   OH241538   4.581   4.029   1.684
 6660TIP3    H141539   4.526   3.972   1.738
 6660TIP3    H241540   4.535   4.035   1.600
 6661TIP3   OH241541   4.268   1.520   7.892
 6661TIP3    H141542   4.333   1.452   7.872
 6661TIP3    H241543   4.254   1.564   7.808
 6662TIP3   OH241544   2.203   0.245   8.508
 6662TIP3    H141545   2.194   0.316   8.443
 6662TIP3    H241546   2.163   0.169   8.465
 6663TIP3   OH241547   4.654   6.348   2.044
 6663TIP3    H141548   4.744   6.329   2.018
 6663TIP3    H241549   4.640   6.438   2.016
 6664TIP3   OH241550   3.576   2.276   1.827
 6664TIP3    H141551   3.554   2.233   1.744
 6664TIP3    H241552   3.519   2.233   1.892
 6665TIP3   OH241553   4.926   1.442   0.646
 6665TIP3    H141554   4.833   1.449   0.667
 6665TIP3    H241555   4.972   1.470   0.725
 6666TIP3   OH241556   3.274   6.488   8.431
 6666TIP3    H141557   3.352   6.458   8.385
 6666TIP3    H241558   3.294   6.578   8.457
 6667TIP3   OH241559   1.706   4.399   6.658
 6667TIP3    H141560   1.668   4.332   6.601
 6667TIP3    H241561   1.778   4.436   6.606
 6668TIP3   OH241562   4.501   0.018   0.703
 6668TIP3    H141563   4.532   6.820   0.653
 6668TIP3    H241564   4.431   0.055   0.649
 6669TIP3   OH241565   4.221   1.212   8.270
 6669TIP3    H141566   4.132   1.225   8.237
 6669TIP3    H241567   4.265   1.295   8.256
 6670TIP3   OH241568   2.984   5.430   7.505
 6670TIP3    H141569   3.000   5.338   7.526
 6670TIP3    H241570   2.956   5.469   7.587
 6671TIP3   OH241571   0.743   4.134   0.340
 6671TIP3    H141572   0.748   4.068   0.271
 6671TIP3    H241573   0.811   4.197   0.318
 6672TIP3   OH241574   1.120   0.308   6.282
 6672TIP3    H141575   1.124   0.401   6.306
 6672TIP3    H241576   1.028   0.284   6.296
 6673TIP3   OH241577   6.458   5.913   2.485
 6673TIP3    H141578   6.408   5.949   2.559
 6673TIP3    H241579   6.507   5.988   2.451
 6674TIP3   OH241580   3.209   1.625   0.602
 6674TIP3    H141581   3.135   1.663   0.555
 6674TIP3    H241582   3.285   1.644   0.547
 6675TIP3   OH241583   4.317   1.094   1.814
 6675TIP3    H141584   4.260   1.167   1.838
 6675TIP3    H241585   4.258   1.025   1.784
 6676TIP3   OH241586   6.391   0.999   0.576
 6676TIP3    H141587   6.367   0.907   0.589
 6676TIP3    H241588   6.453   1.017   0.647
 6677TIP3   OH241589   1.229   0.209   0.350
 6677TIP3    H141590   1.153   0.162   0.315
 6677TIP3    H241591   1.246   0.167   0.435
 6678TIP3   OH241592   5.476   4.865   2.021
 6678TIP3    H141593   5.547   4.926   2.004
 6678TIP3    H241594   5.403   4.898   1.967
 6679TIP3   OH241595   1.559   4.243   1.157
 6679TIP3    H141596   1.545   4.336   1.174
 6679TIP3    H241597   1.474   4.202   1.172
 6680TIP3   OH241598   4.193   4.304   7.446
 6680TIP3    H141599   4.131   4.277   7.513
 6680TIP3    H241600   4.155   4.382   7.407
 6681TIP3   OH241601   0.501   4.404   1.240
 6681TIP3    H141602   0.553   4.377   1.317
 6681TIP3    H241603   0.492   4.324   1.189
 6682TIP3   OH241604   4.263   1.476   8.185
 6682TIP3    H141605   4.168   1.486   8.181
 6682TIP3    H241606   4.287   1.438   8.100
 6683TIP3   OH241607   2.386   2.370   7.263
 6683TIP3    H141608   2.426   2.359   7.177
 6683TIP3    H241609   2.459   2.372   7.324
 6684TIP3   OH241610   0.509   0.344   7.513
 6684TIP3    H141611   0.539   0.404   7.444
 6684TIP3    H241612   0.490   0.400   7.588
 6685TIP3   OH241613   5.891   0.989   7.398
 6685TIP3    H141614   5.873   0.937   7.477
 6685TIP3    H241615   5.933   1.068   7.431
 6686TIP3   OH241616   4.046   4.194   7.631
 6686TIP3    H141617   3.967   4.209   7.578
 6686TIP3    H241618   4.043   4.101   7.653
 6687TIP3   OH241619   5.920   0.499   0.023
 6687TIP3    H141620   5.912   0.571   8.611
 6687TIP3    H241621   6.005   0.460   0.004
 6688TIP3   OH241622   4.376   2.905   7.072
 6688TIP3    H141623   4.394   2.980   7.129
 6688TIP3    H241624   4.317   2.939   7.005
 6689TIP3   OH241625   0.234   6.572   0.742
 6689TIP3    H141626   0.146   6.535   0.748
 6689TIP3    H241627   0.233   6.646   0.804
 6690TIP3   OH241628   4.896   3.898   0.559
 6690TIP3    H141629   4.914   3.985   0.594
 6690TIP3    H241630   4.806   3.903   0.527
 6691TIP3   OH241631   3.536   2.819   2.092
 6691TIP3    H141632   3.538   2.913   2.077
 6691TIP3    H241633   3.500   2.809   2.180
 6692TIP3   OH241634   2.682   2.976   0.514
 6692TIP3    H141635   2.771   3.002   0.492
 6692TIP3    H241636   2.637   3.058   0.534
 6693TIP3   OH241637   1.414   3.273   7.306
 6693TIP3    H141638   1.435   3.246   7.217
 6693TIP3    H241639   1.388   3.192   7.351
 6694TIP3   OH241640   5.275   1.114   7.355
 6694TIP3    H141641   5.275   1.197   7.402
 6694TIP3    H241642   5.184   1.102   7.328
 6695TIP3   OH241643   5.310   3.140   0.886
 6695TIP3    H141644   5.269   3.129   0.800
 6695TIP3    H241645   5.292   3.231   0.909
 6696TIP3   OH241646   5.883   0.633   6.301
 6696TIP3    H141647   5.800   0.600   6.334
 6696TIP3    H241648   5.922   0.559   6.255
 6697TIP3   OH241649   3.560   1.394   7.198
 6697TIP3    H141650   3.571   1.451   7.274
 6697TIP3    H241651   3.530   1.452   7.128
 6698TIP3   OH241652   0.919   1.116   1.313
 6698TIP3    H141653   0.860   1.176   1.267
 6698TIP3    H241654   0.949   1.055   1.245
 6699TIP3   OH241655   6.093   2.832   0.467
 6699TIP3    H141656   6.025   2.768   0.444
 6699TIP3    H241657   6.155   2.782   0.522
 6700TIP3   OH241658   6.780   2.073   7.608
 6700TIP3    H141659   6.834   2.135   7.656
 6700TIP3    H241660   6.713   2.047   7.671
 6701TIP3   OH241661   6.152   2.854   8.441
 6701TIP3    H141662   6.205   2.775   8.439
 6701TIP3    H241663   6.105   2.850   8.524
 6702TIP3   OH241664   3.216   3.966   8.252
 6702TIP3    H141665   3.216   3.981   8.347
 6702TIP3    H241666   3.279   4.029   8.218
 6703TIP3   OH241667   2.691   5.083   2.432
 6703TIP3    H141668   2.699   5.084   2.337
 6703TIP3    H241669   2.737   5.003   2.459
 6704TIP3   OH241670   3.467   5.939   1.184
 6704TIP3    H141671   3.454   5.855   1.227
 6704TIP3    H241672   3.381   5.981   1.187
 6705TIP3   OH241673   4.505   5.943   7.486
 6705TIP3    H141674   4.559   5.889   7.429
 6705TIP3    H241675   4.475   5.884   7.555
 6706TIP3   OH241676   2.284   1.056   8.376
 6706TIP3    H141677   2.318   1.050   8.287
 6706TIP3    H241678   2.322   0.980   8.421
 6707TIP3   OH241679   6.670   2.351   1.268
 6707TIP3    H141680   6.660   2.412   1.195
 6707TIP3    H241681   6.606   2.282   1.250
 6708TIP3   OH241682   6.313   6.456   2.144
 6708TIP3    H141683   6.335   6.448   2.051
 6708TIP3    H241684   6.232   6.507   2.145
 6709TIP3   OH241685   1.898   4.332   7.375
 6709TIP3    H141686   1.987   4.347   7.342
 6709TIP3    H241687   1.907   4.259   7.436
 6710TIP3   OH241688   2.201   0.641   7.311
 6710TIP3    H141689   2.206   0.550   7.281
 6710TIP3    H241690   2.195   0.693   7.231
 6711TIP3   OH241691   0.824   2.929   0.533
 6711TIP3    H141692   0.855   2.892   0.451
 6711TIP3    H241693   0.889   2.995   0.557
 6712TIP3   OH241694   6.414   2.849   0.826
 6712TIP3    H141695   6.468   2.857   0.905
 6712TIP3    H241696   6.470   2.802   0.764
 6713TIP3   OH241697   3.115   4.933   8.238
 6713TIP3    H141698   3.090   4.845   8.268
 6713TIP3    H241699   3.155   4.919   8.152
 6714TIP3   OH241700   2.728   3.141   1.127
 6714TIP3    H141701   2.669   3.101   1.190
 6714TIP3    H241702   2.672   3.162   1.052
 6715TIP3   OH241703   5.085   2.847   6.735
 6715TIP3    H141704   4.994   2.826   6.716
 6715TIP3    H241705   5.134   2.767   6.717
 6716TIP3   OH241706   4.919   0.141   1.414
 6716TIP3    H141707   4.926   0.159   1.508
 6716TIP3    H241708   4.949   0.221   1.372
 6717TIP3   OH241709   4.070   2.411   6.707
 6717TIP3    H141710   4.015   2.483   6.676
 6717TIP3    H241711   4.147   2.413   6.650
 6718TIP3   OH241712   4.111   1.604   6.814
 6718TIP3    H141713   4.204   1.621   6.824
 6718TIP3    H241714   4.097   1.605   6.719
 6719TIP3   OH241715   5.763   1.391   1.633
 6719TIP3    H141716   5.781   1.302   1.666
 6719TIP3    H241717   5.733   1.439   1.710
 6720TIP3   OH241718   3.782   4.137   7.376
 6720TIP3    H141719   3.717   4.136   7.306
 6720TIP3    H241720   3.863   4.106   7.334
 6721TIP3   OH241721   6.404   0.531   6.855
 6721TIP3    H141722   6.366   0.511   6.770
 6721TIP3    H241723   6.408   0.446   6.900
 6722TIP3   OH241724   0.983   5.206   6.175
 6722TIP3    H141725   1.051   5.142   6.151
 6722TIP3    H241726   0.905   5.176   6.129
 6723TIP3   OH241727   5.506   2.249   8.432
 6723TIP3    H141728   5.502   2.341   8.457
 6723TIP3    H241729   5.599   2.227   8.433
 6724TIP3   OH241730   6.609   5.080   0.824
 6724TIP3    H141731   6.564   5.162   0.803
 6724TIP3    H241732   6.702   5.103   0.823
 6725TIP3   OH241733   3.837   2.880   1.247
 6725TIP3    H141734   3.829   2.946   1.179
 6725TIP3    H241735   3.908   2.823   1.218
 6726TIP3   OH241736   5.447   2.668   1.089
 6726TIP3    H141737   5.536   2.636   1.071
 6726TIP3    H241738   5.436   2.743   1.032
 6727TIP3   OH241739   6.326   1.955   1.627
 6727TIP3    H141740   6.234   1.937   1.649
 6727TIP3    H241741   6.372   1.949   1.711
 6728TIP3   OH241742   6.231   3.945   7.659
 6728TIP3    H141743   6.242   4.010   7.729
 6728TIP3    H241744   6.180   3.875   7.699
 6729TIP3   OH241745   0.770   5.491   7.576
 6729TIP3    H141746   0.814   5.526   7.499
 6729TIP3    H241747   0.805   5.541   7.649
 6730TIP3   OH241748   2.081   1.018   2.419
 6730TIP3    H141749   2.035   1.094   2.452
 6730TIP3    H241750   2.066   0.950   2.484
 6731TIP3   OH241751   1.945   3.305   0.386
 6731TIP3    H141752   1.935   3.366   0.460
 6731TIP3    H241753   1.906   3.352   0.312
 6732TIP3   OH241754   0.235   1.858   0.200
 6732TIP3    H141755   0.280   1.797   0.258
 6732TIP3    H241756   0.273   1.841   0.113
 6733TIP3   OH241757   5.494   0.854   1.811
 6733TIP3    H141758   5.582   0.817   1.812
 6733TIP3    H241759   5.468   0.853   1.719
 6734TIP3   OH241760   0.221   3.889   7.784
 6734TIP3    H141761   0.180   3.915   7.867
 6734TIP3    H241762   0.196   3.797   7.772
 6735TIP3   OH241763   4.411   1.198   1.239
 6735TIP3    H141764   4.345   1.249   1.285
 6735TIP3    H241765   4.458   1.151   1.308
 6736TIP3   OH241766   6.754   4.869   1.510
 6736TIP3    H141767   6.774   4.837   1.598
 6736TIP3    H241768   6.792   4.804   1.452
 6737TIP3   OH241769   5.791   1.115   7.746
 6737TIP3    H141770   5.871   1.160   7.721
 6737TIP3    H241771   5.749   1.173   7.810
 6738TIP3   OH241772   5.413   1.906   0.938
 6738TIP3    H141773   5.459   1.930   0.858
 6738TIP3    H241774   5.472   1.845   0.983
 6739TIP3   OH241775   2.813   3.026   0.172
 6739TIP3    H141776   2.749   3.031   0.100
 6739TIP3    H241777   2.761   3.000   0.248
 6740TIP3   OH241778   3.619   6.735   0.885
 6740TIP3    H141779   3.552   6.666   0.884
 6740TIP3    H241780   3.651   6.738   0.795
 6741TIP3   OH241781   5.007   5.669   6.424
 6741TIP3    H141782   4.963   5.593   6.462
 6741TIP3    H241783   5.013   5.650   6.331
 6742TIP3   OH241784   0.351   2.813   0.078
 6742TIP3    H141785   0.377   2.828   0.169
 6742TIP3    H241786   0.273   2.757   0.084
 6743TIP3   OH241787   6.874   6.173   1.171
 6743TIP3    H141788   0.069   6.151   1.228
 6743TIP3    H241789   6.796   6.164   1.226
 6744TIP3   OH241790   5.839   1.922   7.322
 6744TIP3    H141791   5.755   1.915   7.277
 6744TIP3    H241792   5.831   2.001   7.376
 6745TIP3   OH241793   4.138   3.474   8.164
 6745TIP3    H141794   4.129   3.388   8.205
 6745TIP3    H241795   4.049   3.508   8.161
 6746TIP3   OH241796   3.568   2.288   6.799
 6746TIP3    H141797   3.618   2.368   6.783
 6746TIP3    H241798   3.592   2.229   6.728
 6747TIP3   OH241799   6.391   1.901   7.584
 6747TIP3    H141800   6.425   1.889   7.672
 6747TIP3    H241801   6.459   1.953   7.539
 6748TIP3   OH241802   4.501   3.327   0.488
 6748TIP3    H141803   4.412   3.315   0.520
 6748TIP3    H241804   4.549   3.360   0.564
 6749TIP3   OH241805   3.043   4.407   1.975
 6749TIP3    H141806   2.950   4.406   1.952
 6749TIP3    H241807   3.045   4.388   2.068
 6750TIP3   OH241808   1.496   0.548   0.649
 6750TIP3    H141809   1.552   0.474   0.624
 6750TIP3    H241810   1.480   0.535   0.742
 6751TIP3   OH241811   0.722   4.605   0.799
 6751TIP3    H141812   0.658   4.675   0.806
 6751TIP3    H241813   0.789   4.639   0.740
 6752TIP3   OH241814   5.240   4.995   8.351
 6752TIP3    H141815   5.229   5.090   8.358
 6752TIP3    H241816   5.293   4.971   8.427
 6753TIP3   OH241817   6.277   0.825   7.538
 6753TIP3    H141818   6.240   0.913   7.530
 6753TIP3    H241819   6.209   0.768   7.501
 6754TIP3   OH241820   6.851   6.847   8.374
 6754TIP3    H141821   6.867   0.050   8.325
 6754TIP3    H241822   6.784   6.801   8.323
 6755TIP3   OH241823   4.361   0.557   0.067
 6755TIP3    H141824   4.288   0.495   0.070
 6755TIP3    H241825   4.326   0.633   0.019
 6756TIP3   OH241826   0.880   6.520   8.524
 6756TIP3    H141827   0.790   6.490   8.532
 6756TIP3    H241828   0.891   6.539   8.431
 6757TIP3   OH241829   2.045   5.102   1.185
 6757TIP3    H141830   2.089   5.179   1.150
 6757TIP3    H241831   2.064   5.104   1.279
 6758TIP3   OH241832   1.752   3.603   1.148
 6758TIP3    H141833   1.657   3.597   1.143
 6758TIP3    H241834   1.783   3.522   1.107
 6759TIP3   OH241835   5.489   2.672   1.592
 6759TIP3    H141836   5.493   2.693   1.685
 6759TIP3    H241837   5.580   2.674   1.562
 6760TIP3   OH241838   4.951   2.556   0.940
 6760TIP3    H141839   4.875   2.598   0.981
 6760TIP3    H241840   5.015   2.626   0.931
 6761TIP3   OH241841   2.154   1.992   0.561
 6761TIP3    H141842   2.150   2.080   0.600
 6761TIP3    H241843   2.065   1.959   0.570
 6762TIP3   OH241844   6.391   2.356   8.188
 6762TIP3    H141845   6.335   2.424   8.227
 6762TIP3    H241846   6.333   2.282   8.172
 6763TIP3   OH241847   4.521   5.611   7.933
 6763TIP3    H141848   4.568   5.680   7.886
 6763TIP3    H241849   4.588   5.568   7.986
 6764TIP3   OH241850   1.058   4.522   0.696
 6764TIP3    H141851   1.067   4.601   0.750
 6764TIP3    H241852   1.146   4.506   0.662
 6765TIP3   OH241853   6.150   0.921   6.572
 6765TIP3    H141854   6.069   0.870   6.565
 6765TIP3    H241855   6.125   0.996   6.626
 6766TIP3   OH241856   5.708   0.227   3.028
 6766TIP3    H141857   5.656   0.247   3.106
 6766TIP3    H241858   5.656   0.163   2.980
 6767TIP3   OH241859   3.383   2.651   0.498
 6767TIP3    H141860   3.460   2.669   0.552
 6767TIP3    H241861   3.397   2.562   0.465
 6768TIP3   OH241862   6.601   0.637   1.352
 6768TIP3    H141863   6.563   0.561   1.396
 6768TIP3    H241864   6.617   0.608   1.263
 6769TIP3   OH241865   0.997   6.858   7.618
 6769TIP3    H141866   0.934   6.808   7.670
 6769TIP3    H241867   0.976   0.071   7.636
 6770TIP3   OH241868   1.642   5.727   7.920
 6770TIP3    H141869   1.701   5.781   7.868
 6770TIP3    H241870   1.645   5.641   7.879
 6771TIP3   OH241871   5.631   1.797   0.617
 6771TIP3    H141872   5.666   1.764   0.534
 6771TIP3    H241873   5.536   1.785   0.610
 6772TIP3   OH241874   3.095   1.821   6.858
 6772TIP3    H141875   3.100   1.725   6.856
 6772TIP3    H241876   3.031   1.843   6.790
 6773TIP3   OH241877   1.989   3.914   0.686
 6773TIP3    H141878   1.987   3.964   0.767
 6773TIP3    H241879   1.913   3.945   0.636
 6774TIP3   OH241880   6.571   6.154   2.460
 6774TIP3    H141881   6.595   6.210   2.534
 6774TIP3    H241882   6.654   6.133   2.418
 6775TIP3   OH241883   0.764   0.048   6.778
 6775TIP3    H141884   0.823   0.040   6.852
 6775TIP3    H241885   0.724   6.839   6.769
 6776TIP3   OH241886   0.241   0.046   1.981
 6776TIP3    H141887   0.259   6.869   2.057
 6776TIP3    H241888   0.296   0.009   1.912
 6777TIP3   OH241889   4.263   3.617   7.137
 6777TIP3    H141890   4.292   3.707   7.124
 6777TIP3    H241891   4.280   3.574   7.053
 6778TIP3   OH241892   1.872   3.071   1.014
 6778TIP3    H141893   1.852   3.090   0.922
 6778TIP3    H241894   1.787   3.051   1.054
 6779TIP3   OH241895   0.565   1.088   6.925
 6779TIP3    H141896   0.596   1.019   6.984
 6779TIP3    H241897   0.484   1.120   6.967
 6780TIP3   OH241898   2.496   2.367   8.210
 6780TIP3    H141899   2.443   2.290   8.233
 6780TIP3    H241900   2.432   2.438   8.205
 6781TIP3   OH241901   5.754   5.050   2.420
 6781TIP3    H141902   5.677   4.993   2.418
 6781TIP3    H241903   5.817   5.004   2.476
 6782TIP3   OH241904   0.812   0.888   8.205
 6782TIP3    H141905   0.815   0.984   8.209
 6782TIP3    H241906   0.869   0.859   8.276
 6783TIP3   OH241907   2.112   5.067   1.448
 6783TIP3    H141908   2.193   5.016   1.453
 6783TIP3    H241909   2.138   5.156   1.470
 6784TIP3   OH241910   6.643   6.608   7.117
 6784TIP3    H141911   6.667   6.579   7.029
 6784TIP3    H241912   6.694   6.551   7.176
 6785TIP3   OH241913   5.837   3.960   7.933
 6785TIP3    H141914   5.816   3.942   8.024
 6785TIP3    H241915   5.827   4.055   7.924
 6786TIP3   OH241916   2.530   4.834   7.621
 6786TIP3    H141917   2.606   4.801   7.668
 6786TIP3    H241918   2.560   4.842   7.530
 6787TIP3   OH241919   4.230   4.260   0.828
 6787TIP3    H141920   4.189   4.193   0.884
 6787TIP3    H241921   4.316   4.273   0.866
 6788TIP3   OH241922   5.752   5.906   7.479
 6788TIP3    H141923   5.829   5.862   7.444
 6788TIP3    H241924   5.678   5.857   7.445
 6789TIP3   OH241925   1.364   4.918   0.644
 6789TIP3    H141926   1.318   4.931   0.561
 6789TIP3    H241927   1.454   4.900   0.618
 6790TIP3   OH241928   5.430   0.943   0.752
 6790TIP3    H141929   5.524   0.958   0.752
 6790TIP3    H241930   5.405   0.948   0.660
 6791TIP3   OH241931   1.664   5.643   6.659
 6791TIP3    H141932   1.722   5.707   6.701
 6791TIP3    H241933   1.701   5.632   6.571
 6792TIP3   OH241934   5.313   6.224   2.273
 6792TIP3    H141935   5.260   6.189   2.202
 6792TIP3    H241936   5.279   6.183   2.352
 6793TIP3   OH241937   0.171   5.983   0.704
 6793TIP3    H141938   0.219   5.989   0.622
 6793TIP3    H241939   0.100   6.047   0.695
 6794TIP3   OH241940   0.723   2.069   6.490
 6794TIP3    H141941   0.729   2.058   6.585
 6794TIP3    H241942   0.814   2.084   6.463
 6795TIP3   OH241943   1.173   4.898   1.460
 6795TIP3    H141944   1.169   4.810   1.423
 6795TIP3    H241945   1.086   4.935   1.445
 6796TIP3   OH241946   3.614   0.393   7.328
 6796TIP3    H141947   3.606   0.305   7.365
 6796TIP3    H241948   3.573   0.450   7.393
 6797TIP3   OH241949   3.016   5.246   0.858
 6797TIP3    H141950   3.109   5.224   0.847
 6797TIP3    H241951   3.015   5.342   0.861
 6798TIP3   OH241952   5.363   1.620   0.174
 6798TIP3    H141953   5.354   1.571   0.256
 6798TIP3    H241954   5.445   1.588   0.137
 6799TIP3   OH241955   1.972   6.376   8.552
 6799TIP3    H141956   2.030   6.317   8.600
 6799TIP3    H241957   1.884   6.354   8.583
 6800TIP3   OH241958   2.482   3.416   7.776
 6800TIP3    H141959   2.542   3.490   7.786
 6800TIP3    H241960   2.416   3.447   7.714
 6801TIP3   OH241961   5.241   0.418   8.295
 6801TIP3    H141962   5.317   0.470   8.322
 6801TIP3    H241963   5.229   0.440   8.203
 6802TIP3   OH241964   3.844   1.822   0.014
 6802TIP3    H141965   3.843   1.836   0.109
 6802TIP3    H241966   3.760   1.854   8.635
 6803TIP3   OH241967   6.067   0.731   7.401
 6803TIP3    H141968   5.984   0.756   7.440
 6803TIP3    H241969   6.051   0.645   7.362
 6804TIP3   OH241970   2.803   1.632   8.090
 6804TIP3    H141971   2.851   1.615   8.170
 6804TIP3    H241972   2.869   1.665   8.029
 6805TIP3   OH241973   5.026   0.168   6.531
 6805TIP3    H141974   5.076   0.095   6.493
 6805TIP3    H241975   4.976   0.204   6.459
 6806TIP3   OH241976   4.531   5.877   8.566
 6806TIP3    H141977   4.452   5.917   8.602
 6806TIP3    H241978   4.514   5.783   8.568
 6807TIP3   OH241979   2.570   1.393   7.706
 6807TIP3    H141980   2.640   1.355   7.652
 6807TIP3    H241981   2.566   1.485   7.679
 6808TIP3   OH241982   1.240   2.280   7.448
 6808TIP3    H141983   1.225   2.277   7.542
 6808TIP3    H241984   1.315   2.222   7.434
 6809TIP3   OH241985   6.395   1.683   7.835
 6809TIP3    H141986   6.461   1.637   7.783
 6809TIP3    H241987   6.378   1.624   7.909
 6810TIP3   OH241988   1.976   4.835   8.618
 6810TIP3    H141989   1.993   4.742   8.633
 6810TIP3    H241990   1.934   4.838   8.532
 6811TIP3   OH241991   5.354   5.831   0.938
 6811TIP3    H141992   5.333   5.888   0.864
 6811TIP3    H241993   5.269   5.798   0.967
 6812TIP3   OH241994   6.070   0.746   1.029
 6812TIP3    H141995   6.090   0.667   1.079
 6812TIP3    H241996   6.090   0.723   0.939
 6813TIP3   OH241997   6.374   5.248   7.199
 6813TIP3    H141998   6.465   5.220   7.199
 6813TIP3    H241999   6.338   5.213   7.117
 6814TIP3   OH242000   5.560   0.880   7.066
 6814TIP3    H142001   5.536   0.915   7.152
 6814TIP3    H242002   5.639   0.928   7.042
 6815TIP3   OH242003   5.426   6.589   1.644
 6815TIP3    H142004   5.419   6.564   1.736
 6815TIP3    H242005   5.366   6.663   1.635
 6816TIP3   OH242006   0.739   1.699   2.520
 6816TIP3    H142007   0.831   1.710   2.493
 6816TIP3    H242008   0.697   1.781   2.492
 6817TIP3   OH242009   2.130   4.367   7.199
 6817TIP3    H142010   2.177   4.396   7.121
 6817TIP3    H242011   2.191   4.308   7.243
 6818TIP3   OH242012   4.074   0.835   1.217
 6818TIP3    H142013   4.085   0.740   1.226
 6818TIP3    H242014   4.041   0.863   1.303
 6819TIP3   OH242015   3.162   2.603   8.260
 6819TIP3    H142016   3.096   2.561   8.315
 6819TIP3    H242017   3.245   2.585   8.303
 6820TIP3   OH242018   3.510   2.576   7.294
 6820TIP3    H142019   3.457   2.496   7.302
 6820TIP3    H242020   3.484   2.630   7.368
 6821TIP3   OH242021   1.842   1.537   0.014
 6821TIP3    H142022   1.873   1.466   0.070
 6821TIP3    H242023   1.914   1.600   0.013
 6822TIP3   OH242024   0.492   3.653   8.049
 6822TIP3    H142025   0.466   3.600   8.125
 6822TIP3    H242026   0.451   3.738   8.065
 6823TIP3   OH242027   4.882   3.896   1.312
 6823TIP3    H142028   4.938   3.970   1.334
 6823TIP3    H242029   4.885   3.839   1.389
 6824TIP3   OH242030   5.167   1.406   6.243
 6824TIP3    H142031   5.212   1.370   6.165
 6824TIP3    H242032   5.170   1.334   6.306
 6825TIP3   OH242033   2.054   3.277   6.918
 6825TIP3    H142034   2.024   3.196   6.961
 6825TIP3    H242035   1.976   3.332   6.915
 6826TIP3   OH242036   3.787   2.588   1.111
 6826TIP3    H142037   3.711   2.614   1.163
 6826TIP3    H242038   3.853   2.562   1.176
 6827TIP3   OH242039   5.664   5.125   7.987
 6827TIP3    H142040   5.588   5.070   7.968
 6827TIP3    H242041   5.638   5.212   7.959
 6828TIP3   OH242042   5.197   6.326   0.950
 6828TIP3    H142043   5.253   6.279   1.012
 6828TIP3    H242044   5.233   6.304   0.864
 6829TIP3   OH242045   3.570   3.170   7.210
 6829TIP3    H142046   3.548   3.083   7.245
 6829TIP3    H242047   3.665   3.172   7.208
 6830TIP3   OH242048   1.933   2.787   1.403
 6830TIP3    H142049   1.977   2.703   1.388
 6830TIP3    H242050   1.943   2.803   1.497
 6831TIP3   OH242051   6.665   6.461   2.498
 6831TIP3    H142052   6.713   6.539   2.473
 6831TIP3    H242053   6.708   6.432   2.579
 6832TIP3   OH242054   2.358   1.390   6.792
 6832TIP3    H142055   2.309   1.438   6.725
 6832TIP3    H242056   2.412   1.329   6.743
 6833TIP3   OH242057   0.418   3.846   0.488
 6833TIP3    H142058   0.512   3.837   0.506
 6833TIP3    H242059   0.401   3.783   0.418
 6834TIP3   OH242060   5.210   5.018   7.960
 6834TIP3    H142061   5.218   5.107   7.924
 6834TIP3    H242062   5.132   5.021   8.015
 6835TIP3   OH242063   6.532   0.995   7.977
 6835TIP3    H142064   6.541   0.902   7.999
 6835TIP3    H242065   6.528   0.997   7.882
 6836TIP3   OH242066   0.032   3.576   1.431
 6836TIP3    H142067   0.049   3.648   1.370
 6836TIP3    H242068   0.009   3.502   1.374
 6837TIP3   OH242069   5.726   2.730   0.726
 6837TIP3    H142070   5.771   2.749   0.643
 6837TIP3    H242071   5.650   2.677   0.700
 6838TIP3   OH242072   5.929   1.647   7.364
 6838TIP3    H142073   5.882   1.730   7.353
 6838TIP3    H242074   5.888   1.606   7.441
 6839TIP3   OH242075   0.247   0.628   7.816
 6839TIP3    H142076   0.261   0.686   7.741
 6839TIP3    H242077   0.301   0.666   7.886
 6840TIP3   OH242078   3.359   3.083   1.382
 6840TIP3    H142079   3.382   3.078   1.475
 6840TIP3    H242080   3.280   3.029   1.375
 6841TIP3   OH242081   1.206   2.021   0.436
 6841TIP3    H142082   1.171   2.105   0.408
 6841TIP3    H242083   1.180   2.014   0.528
 6842TIP3   OH242084   1.577   0.797   1.335
 6842TIP3    H142085   1.577   0.787   1.430
 6842TIP3    H242086   1.626   0.878   1.319
 6843TIP3   OH242087   3.864   0.757   7.361
 6843TIP3    H142088   3.951   0.789   7.384
 6843TIP3    H242089   3.880   0.672   7.320
 6844TIP3   OH242090   5.432   0.370   1.194
 6844TIP3    H142091   5.439   0.366   1.290
 6844TIP3    H242092   5.418   0.463   1.175
 6845TIP3   OH242093   2.219   1.478   8.421
 6845TIP3    H142094   2.288   1.531   8.461
 6845TIP3    H242095   2.246   1.469   8.330
 6846TIP3   OH242096   0.338   3.841   7.112
 6846TIP3    H142097   0.292   3.918   7.145
 6846TIP3    H242098   0.310   3.833   7.021
 6847TIP3   OH242099   4.031   5.785   2.028
 6847TIP3    H142100   4.059   5.693   2.019
 6847TIP3    H242101   4.020   5.798   2.122
 6848TIP3   OH242102   5.047   3.648   6.908
 6848TIP3    H142103   5.005   3.724   6.867
 6848TIP3    H242104   5.048   3.669   7.001
 6849TIP3   OH242105   3.465   6.423   6.818
 6849TIP3    H142106   3.461   6.486   6.890
 6849TIP3    H242107   3.527   6.461   6.756
 6850TIP3   OH242108   5.373   6.034   7.861
 6850TIP3    H142109   5.438   6.085   7.908
 6850TIP3    H242110   5.329   6.096   7.804
 6851TIP3   OH242111   5.712   3.249   6.760
 6851TIP3    H142112   5.786   3.199   6.794
 6851TIP3    H242113   5.752   3.323   6.714
 6852TIP3   OH242114   2.261   0.911   1.467
 6852TIP3    H142115   2.259   1.004   1.445
 6852TIP3    H242116   2.338   0.901   1.523
 6853TIP3   OH242117   2.631   6.387   1.802
 6853TIP3    H142118   2.596   6.473   1.823
 6853TIP3    H242119   2.554   6.331   1.794
 6854TIP3   OH242120   1.209   0.979   7.924
 6854TIP3    H142121   1.197   1.073   7.909
 6854TIP3    H242122   1.303   0.965   7.911
 6855TIP3   OH242123   4.463   4.982   6.753
 6855TIP3    H142124   4.518   5.003   6.677
 6855TIP3    H242125   4.516   4.923   6.806
 6856TIP3   OH242126   1.904   4.294   0.103
 6856TIP3    H142127   1.860   4.210   0.119
 6856TIP3    H242128   1.839   4.346   0.056
 6857TIP3   OH242129   4.873   1.782   1.770
 6857TIP3    H142130   4.805   1.834   1.727
 6857TIP3    H242131   4.832   1.698   1.788
 6858TIP3   OH242132   0.215   2.180   7.082
 6858TIP3    H142133   0.223   2.212   6.992
 6858TIP3    H242134   0.122   2.161   7.092
 6859TIP3   OH242135   6.556   5.066   8.399
 6859TIP3    H142136   6.467   5.033   8.391
 6859TIP3    H242137   6.546   5.160   8.413
 6860TIP3   OH242138   6.099   4.105   8.204
 6860TIP3    H142139   6.025   4.165   8.212
 6860TIP3    H242140   6.144   4.111   8.288
 6861TIP3   OH242141   6.367   4.457   0.198
 6861TIP3    H142142   6.420   4.383   0.169
 6861TIP3    H242143   6.375   4.455   0.294
 6862TIP3   OH242144   6.151   0.521   8.173
 6862TIP3    H142145   6.228   0.577   8.161
 6862TIP3    H242146   6.144   0.511   8.268
 6863TIP3   OH242147   0.266   5.435   1.005
 6863TIP3    H142148   0.244   5.507   1.065
 6863TIP3    H242149   0.199   5.440   0.937
 6864TIP3   OH242150   0.788   4.788   1.115
 6864TIP3    H142151   0.726   4.728   1.157
 6864TIP3    H242152   0.857   4.732   1.081
 6865TIP3   OH242153   6.287   3.074   7.539
 6865TIP3    H142154   6.230   3.011   7.496
 6865TIP3    H242155   6.227   3.135   7.582
 6866TIP3   OH242156   0.520   5.828   8.454
 6866TIP3    H142157   0.604   5.796   8.488
 6866TIP3    H242158   0.462   5.752   8.461
 6867TIP3   OH242159   1.056   0.372   0.011
 6867TIP3    H142160   0.981   0.399   8.609
 6867TIP3    H242161   1.057   0.433   0.084
 6868TIP3   OH242162   5.000   0.751   6.693
 6868TIP3    H142163   4.921   0.751   6.638
 6868TIP3    H242164   5.072   0.741   6.632
 6869TIP3   OH242165   3.181   1.213   1.683
 6869TIP3    H142166   3.229   1.186   1.761
 6869TIP3    H242167   3.241   1.196   1.611
 6870TIP3   OH242168   4.514   2.313   6.887
 6870TIP3    H142169   4.579   2.243   6.886
 6870TIP3    H242170   4.522   2.355   6.802
 6871TIP3   OH242171   4.281   3.250   1.980
 6871TIP3    H142172   4.211   3.316   1.982
 6871TIP3    H242173   4.236   3.168   1.961
 6872TIP3   OH242174   2.650   1.074   0.944
 6872TIP3    H142175   2.616   1.021   0.872
 6872TIP3    H242176   2.657   1.162   0.907
 6873TIP3   OH242177   0.844   0.769   7.368
 6873TIP3    H142178   0.922   0.736   7.412
 6873TIP3    H242179   0.878   0.835   7.307
 6874TIP3   OH242180   3.220   4.702   7.380
 6874TIP3    H142181   3.302   4.687   7.426
 6874TIP3    H242182   3.233   4.785   7.333
 6875TIP3   OH242183   0.244   6.733   7.698
 6875TIP3    H142184   0.296   6.653   7.692
 6875TIP3    H242185   0.292   6.788   7.761
 6876TIP3   OH242186   4.248   1.541   0.848
 6876TIP3    H142187   4.169   1.500   0.883
 6876TIP3    H242188   4.215   1.603   0.782
 6877TIP3   OH242189   4.298   1.937   7.674
 6877TIP3    H142190   4.289   1.888   7.592
 6877TIP3    H242191   4.276   2.027   7.651
 6878TIP3   OH242192   4.324   2.547   7.273
 6878TIP3    H142193   4.416   2.527   7.293
 6878TIP3    H242194   4.300   2.481   7.208
 6879TIP3   OH242195   6.405   4.589   7.415
 6879TIP3    H142196   6.317   4.553   7.403
 6879TIP3    H242197   6.390   4.681   7.436
 6880TIP3   OH242198   2.567   6.556   0.180
 6880TIP3    H142199   2.624   6.533   0.253
 6880TIP3    H242200   2.615   6.529   0.102
 6881TIP3   OH242201   1.286   3.301   1.280
 6881TIP3    H142202   1.254   3.250   1.355
 6881TIP3    H242203   1.244   3.387   1.289
 6882TIP3   OH242204   5.787   2.843   7.558
 6882TIP3    H142205   5.718   2.891   7.512
 6882TIP3    H242206   5.800   2.763   7.507
 6883TIP3   OH242207   1.109   4.356   1.436
 6883TIP3    H142208   1.089   4.436   1.484
 6883TIP3    H242209   1.078   4.373   1.347
 6884TIP3   OH242210   5.052   5.588   2.327
 6884TIP3    H142211   5.114   5.653   2.294
 6884TIP3    H242212   5.066   5.589   2.422
 6885TIP3   OH242213   1.833   4.424   8.166
 6885TIP3    H142214   1.902   4.359   8.177
 6885TIP3    H242215   1.851   4.465   8.081
 6886TIP3   OH242216   0.215   2.607   7.822
 6886TIP3    H142217   0.245   2.661   7.748
 6886TIP3    H242218   0.232   2.661   7.899
 6887TIP3   OH242219   3.138   1.907   0.412
 6887TIP3    H142220   3.222   1.874   0.443
 6887TIP3    H242221   3.087   1.828   0.392
 6888TIP3   OH242222   5.749   1.064   2.145
 6888TIP3    H142223   5.793   1.137   2.189
 6888TIP3    H242224   5.815   1.030   2.084
 6889TIP3   OH242225   2.768   1.001   0.553
 6889TIP3    H142226   2.699   0.988   0.619
 6889TIP3    H242227   2.841   0.949   0.585
 6890TIP3   OH242228   2.366   4.956   0.831
 6890TIP3    H142229   2.320   5.027   0.787
 6890TIP3    H242230   2.436   4.931   0.770
 6891TIP3   OH242231   6.515   5.426   6.554
 6891TIP3    H142232   6.576   5.496   6.532
 6891TIP3    H242233   6.529   5.360   6.486
 6892TIP3   OH242234   1.925   5.773   1.301
 6892TIP3    H142235   1.879   5.773   1.217
 6892TIP3    H242236   1.855   5.771   1.367
 6893TIP3   OH242237   1.943   6.417   6.486
 6893TIP3    H142238   1.945   6.503   6.444
 6893TIP3    H242239   1.851   6.407   6.514
 6894TIP3   OH242240   1.962   6.150   5.838
 6894TIP3    H142241   2.034   6.163   5.901
 6894TIP3    H242242   1.887   6.125   5.892
 6895TIP3   OH242243   2.122   5.085   6.671
 6895TIP3    H142244   2.086   5.151   6.730
 6895TIP3    H242245   2.216   5.099   6.672
 6896TIP3   OH242246   4.700   4.306   0.275
 6896TIP3    H142247   4.779   4.252   0.278
 6896TIP3    H242248   4.685   4.331   0.367
 6897TIP3   OH242249   5.777   1.673   1.226
 6897TIP3    H142250   5.864   1.642   1.200
 6897TIP3    H242251   5.748   1.611   1.292
 6898TIP3   OH242252   4.585   3.668   0.425
 6898TIP3    H142253   4.590   3.652   0.519
 6898TIP3    H242254   4.583   3.763   0.417
 6899TIP3   OH242255   5.589   0.726   2.675
 6899TIP3    H142256   5.577   0.711   2.768
 6899TIP3    H242257   5.625   0.815   2.670
 6900TIP3   OH242258   6.863   5.770   0.005
 6900TIP3    H142259   0.063   5.717   0.020
 6900TIP3    H242260   6.850   5.767   8.561
 6901TIP3   OH242261   0.824   6.183   0.702
 6901TIP3    H142262   0.795   6.163   0.791
 6901TIP3    H242263   0.860   6.271   0.708
 6902TIP3   OH242264   4.576   6.444   8.305
 6902TIP3    H142265   4.541   6.358   8.330
 6902TIP3    H242266   4.636   6.426   8.233
 6903TIP3   OH242267   1.370   2.548   6.220
 6903TIP3    H142268   1.422   2.495   6.281
 6903TIP3    H242269   1.302   2.587   6.274
 6904TIP3   OH242270   5.313   0.750   7.061
 6904TIP3    H142271   5.404   0.775   7.048
 6904TIP3    H242272   5.316   0.683   7.129
 6905TIP3   OH242273   4.057   5.054   7.932
 6905TIP3    H142274   4.025   4.991   7.866
 6905TIP3    H242275   3.978   5.087   7.974
 6906TIP3   OH242276   1.356   4.558   7.807
 6906TIP3    H142277   1.396   4.645   7.808
 6906TIP3    H242278   1.276   4.569   7.756
 6907TIP3   OH242279   6.163   3.468   8.419
 6907TIP3    H142280   6.124   3.546   8.379
 6907TIP3    H242281   6.208   3.425   8.347
 6908TIP3   OH242282   0.972   5.785   8.120
 6908TIP3    H142283   0.903   5.795   8.186
 6908TIP3    H242284   0.944   5.842   8.048
 6909TIP3   OH242285   0.393   5.155   0.067
 6909TIP3    H142286   0.400   5.100   0.146
 6909TIP3    H242287   0.482   5.155   0.030
 6910TIP3   OH242288   6.701   3.118   0.830
 6910TIP3    H142289   6.691   3.113   0.925
 6910TIP3    H242290   6.650   3.195   0.804
 6911TIP3   OH242291   1.355   6.295   7.983
 6911TIP3    H142292   1.300   6.351   7.928
 6911TIP3    H242293   1.304   6.215   7.996
 6912TIP3   OH242294   2.750   5.495   0.808
 6912TIP3    H142295   2.842   5.494   0.837
 6912TIP3    H242296   2.726   5.588   0.808
 6913TIP3   OH242297   2.381   2.495   1.134
 6913TIP3    H142298   2.413   2.414   1.174
 6913TIP3    H242299   2.353   2.469   1.046
 6914TIP3   OH242300   2.591   5.498   6.354
 6914TIP3    H142301   2.561   5.557   6.284
 6914TIP3    H242302   2.530   5.425   6.353
 6915TIP3   OH242303   2.456   5.645   1.264
 6915TIP3    H142304   2.362   5.660   1.254
 6915TIP3    H242305   2.468   5.630   1.357
 6916TIP3   OH242306   4.711   6.470   0.133
 6916TIP3    H142307   4.755   6.537   0.186
 6916TIP3    H242308   4.672   6.518   0.061
 6917TIP3   OH242309   3.094   6.788   1.777
 6917TIP3    H142310   3.047   6.840   1.842
 6917TIP3    H242311   3.064   6.821   1.693
 6918TIP3   OH242312   4.679   2.596   8.556
 6918TIP3    H142313   4.630   2.571   8.634
 6918TIP3    H242314   4.642   2.541   8.487
 6919TIP3   OH242315   6.202   1.732   8.269
 6919TIP3    H142316   6.274   1.795   8.269
 6919TIP3    H242317   6.177   1.724   8.177
 6920TIP3   OH242318   0.941   0.646   1.500
 6920TIP3    H142319   0.937   0.703   1.423
 6920TIP3    H242320   0.915   0.703   1.573
 6921TIP3   OH242321   4.594   0.856   7.977
 6921TIP3    H142322   4.568   0.784   7.919
 6921TIP3    H242323   4.557   0.934   7.936
 6922TIP3   OH242324   4.313   0.627   7.514
 6922TIP3    H142325   4.317   0.582   7.429
 6922TIP3    H242326   4.304   0.557   7.578
 6923TIP3   OH242327   2.252   1.730   7.977
 6923TIP3    H142328   2.225   1.652   7.929
 6923TIP3    H242329   2.173   1.782   7.985
 6924TIP3   OH242330   3.909   4.499   1.049
 6924TIP3    H142331   3.979   4.524   1.109
 6924TIP3    H242332   3.860   4.581   1.035
 6925TIP3   OH242333   3.833   5.069   6.974
 6925TIP3    H142334   3.830   4.993   6.916
 6925TIP3    H242335   3.769   5.049   7.042
 6926TIP3   OH242336   5.911   0.856   7.832
 6926TIP3    H142337   5.887   0.938   7.788
 6926TIP3    H242338   5.999   0.836   7.800
 6927TIP3   OH242339   3.263   6.192   6.245
 6927TIP3    H142340   3.221   6.156   6.323
 6927TIP3    H242341   3.346   6.227   6.276
 6928TIP3   OH242342   3.868   2.230   0.698
 6928TIP3    H142343   3.908   2.294   0.639
 6928TIP3    H242344   3.782   2.267   0.719
 6929TIP3   OH242345   4.053   3.821   8.225
 6929TIP3    H142346   4.022   3.734   8.250
 6929TIP3    H242347   4.110   3.806   8.150
 6930TIP3   OH242348   5.629   3.201   1.607
 6930TIP3    H142349   5.631   3.285   1.560
 6930TIP3    H242350   5.680   3.142   1.553
 6931TIP3   OH242351   2.340   6.385   8.225
 6931TIP3    H142352   2.256   6.429   8.233
 6931TIP3    H242353   2.399   6.435   8.282
 6932TIP3   OH242354   2.691   6.238   6.983
 6932TIP3    H142355   2.721   6.152   6.950
 6932TIP3    H242356   2.646   6.277   6.908
 6933TIP3   OH242357   2.070   3.286   7.532
 6933TIP3    H142358   2.090   3.325   7.618
 6933TIP3    H242359   2.012   3.213   7.551
 6934TIP3   OH242360   0.695   2.805   7.040
 6934TIP3    H142361   0.734   2.851   6.966
 6934TIP3    H242362   0.693   2.713   7.014
 6935TIP3   OH242363   3.800   4.897   7.827
 6935TIP3    H142364   3.815   4.842   7.904
 6935TIP3    H242365   3.722   4.948   7.849
 6936TIP3   OH242366   2.683   2.536   8.366
 6936TIP3    H142367   2.692   2.631   8.364
 6936TIP3    H242368   2.594   2.520   8.334
 6937TIP3   OH242369   1.628   4.621   0.759
 6937TIP3    H142370   1.702   4.573   0.725
 6937TIP3    H242371   1.634   4.610   0.854
 6938TIP3   OH242372   1.557   2.372   0.717
 6938TIP3    H142373   1.573   2.278   0.712
 6938TIP3    H242374   1.471   2.379   0.760
 6939TIP3   OH242375   5.563   6.532   0.212
 6939TIP3    H142376   5.572   6.609   0.269
 6939TIP3    H242377   5.520   6.566   0.133
 6940TIP3   OH242378   2.049   2.387   7.584
 6940TIP3    H142379   1.961   2.401   7.620
 6940TIP3    H242380   2.082   2.311   7.632
 6941TIP3   OH242381   0.805   5.530   0.486
 6941TIP3    H142382   0.892   5.495   0.468
 6941TIP3    H242383   0.785   5.586   0.411
 6942TIP3   OH242384   4.455   6.023   1.246
 6942TIP3    H142385   4.533   6.021   1.190
 6942TIP3    H242386   4.464   5.946   1.302
 6943TIP3   OH242387   5.303   5.845   8.582
 6943TIP3    H142388   5.351   5.921   8.616
 6943TIP3    H242389   5.268   5.802   0.010
 6944TIP3   OH242390   3.685   3.701   1.944
 6944TIP3    H142391   3.753   3.639   1.918
 6944TIP3    H242392   3.615   3.647   1.981
 6945TIP3   OH242393   1.163   3.371   7.589
 6945TIP3    H142394   1.083   3.378   7.640
 6945TIP3    H242395   1.146   3.300   7.527
 6946TIP3   OH242396   4.238   3.278   0.590
 6946TIP3    H142397   4.281   3.235   0.664
 6946TIP3    H242398   4.222   3.367   0.621
 6947TIP3   OH242399   4.482   4.801   1.713
 6947TIP3    H142400   4.507   4.816   1.622
 6947TIP3    H242401   4.477   4.889   1.751
 6948TIP3   OH242402   2.452   0.625   8.626
 6948TIP3    H142403   2.411   0.547   8.588
 6948TIP3    H242404   2.546   0.610   8.617
 6949TIP3   OH242405   2.284   3.395   0.849
 6949TIP3    H142406   2.319   3.317   0.806
 6949TIP3    H242407   2.359   3.432   0.896
 6950TIP3   OH242408   3.976   5.678   1.518
 6950TIP3    H142409   3.922   5.600   1.533
 6950TIP3    H242410   3.942   5.716   1.437
 6951TIP3   OH242411   4.525   0.246   6.784
 6951TIP3    H142412   4.492   0.259   6.696
 6951TIP3    H242413   4.620   0.233   6.773
 6952TIP3   OH242414   2.245   3.713   1.181
 6952TIP3    H142415   2.184   3.770   1.228
 6952TIP3    H242416   2.331   3.742   1.208
 6953TIP3   OH242417   3.357   6.799   1.197
 6953TIP3    H142418   3.288   6.845   1.245
 6953TIP3    H242419   3.309   6.739   1.139
 6954TIP3   OH242420   2.498   5.449   7.050
 6954TIP3    H142421   2.426   5.387   7.048
 6954TIP3    H242422   2.487   5.501   6.970
 6955TIP3   OH242423   5.166   0.862   1.709
 6955TIP3    H142424   5.221   0.834   1.636
 6955TIP3    H242425   5.212   0.937   1.746
 6956TIP3   OH242426   0.565   4.841   7.716
 6956TIP3    H142427   0.554   4.928   7.678
 6956TIP3    H242428   0.649   4.844   7.760
 6957TIP3   OH242429   4.538   1.458   1.191
 6957TIP3    H142430   4.579   1.459   1.104
 6957TIP3    H242431   4.506   1.368   1.200
 6958TIP3   OH242432   3.536   1.730   0.155
 6958TIP3    H142433   3.526   1.724   0.060
 6958TIP3    H242434   3.448   1.752   0.187
 6959TIP3   OH242435   3.672   4.932   8.278
 6959TIP3    H142436   3.747   4.939   8.220
 6959TIP3    H242437   3.709   4.932   8.366
 6960TIP3   OH242438   2.754   3.962   0.849
 6960TIP3    H142439   2.698   3.958   0.772
 6960TIP3    H242440   2.694   3.953   0.923
 6961TIP3   OH242441   0.466   1.408   7.944
 6961TIP3    H142442   0.485   1.349   8.017
 6961TIP3    H242443   0.373   1.394   7.926
 6962TIP3   OH242444   5.709   0.978   2.791
 6962TIP3    H142445   5.663   1.061   2.776
 6962TIP3    H242446   5.776   1.000   2.855
 6963TIP3   OH242447   2.586   0.631   0.595
 6963TIP3    H142448   2.658   0.681   0.632
 6963TIP3    H242449   2.530   0.611   0.670
 6964TIP3   OH242450   4.011   5.239   0.003
 6964TIP3    H142451   3.918   5.245   8.629
 6964TIP3    H242452   4.010   5.215   0.096
 6965TIP3   OH242453   3.717   5.757   7.171
 6965TIP3    H142454   3.623   5.769   7.160
 6965TIP3    H242455   3.749   5.841   7.202
 6966TIP3   OH242456   2.466   1.499   0.313
 6966TIP3    H142457   2.435   1.422   0.266
 6966TIP3    H242458   2.539   1.467   0.366
 6967TIP3   OH242459   0.379   6.730   8.184
 6967TIP3    H142460   0.378   6.755   8.277
 6967TIP3    H242461   0.314   6.788   8.143
 6968TIP3   OH242462   2.534   5.573   0.138
 6968TIP3    H142463   2.583   5.584   0.057
 6968TIP3    H242464   2.446   5.548   0.110
 6969TIP3   OH242465   2.308   1.760   6.867
 6969TIP3    H142466   2.290   1.719   6.952
 6969TIP3    H242467   2.233   1.735   6.813
 6970TIP3   OH242468   0.359   6.008   1.721
 6970TIP3    H142469   0.425   6.072   1.747
 6970TIP3    H242470   0.300   6.002   1.796
 6971TIP3   OH242471   2.634   4.554   1.413
 6971TIP3    H142472   2.575   4.506   1.471
 6971TIP3    H242473   2.575   4.607   1.359
 6972TIP3   OH242474   5.014   6.600   1.120
 6972TIP3    H142475   5.046   6.602   1.210
 6972TIP3    H242476   5.013   6.692   1.092
 6973TIP3   OH242477   2.534   6.620   6.379
 6973TIP3    H142478   2.449   6.591   6.414
 6973TIP3    H242479   2.587   6.638   6.456
 6974TIP3   OH242480   5.326   4.268   8.172
 6974TIP3    H142481   5.294   4.185   8.209
 6974TIP3    H242482   5.387   4.301   8.238
 6975TIP3   OH242483   0.132   2.075   1.493
 6975TIP3    H142484   0.125   2.118   1.579
 6975TIP3    H242485   0.145   1.983   1.513
 6976TIP3   OH242486   6.600   3.891   0.536
 6976TIP3    H142487   6.610   3.825   0.605
 6976TIP3    H242488   6.641   3.969   0.572
 6977TIP3   OH242489   2.126   3.464   1.044
 6977TIP3    H142490   2.153   3.550   1.076
 6977TIP3    H242491   2.152   3.464   0.952
 6978TIP3   OH242492   4.232   0.733   0.331
 6978TIP3    H142493   4.168   0.786   0.283
 6978TIP3    H242494   4.196   0.645   0.331
 6979TIP3   OH242495   2.597   0.108   6.643
 6979TIP3    H142496   2.638   0.027   6.675
 6979TIP3    H242497   2.547   0.081   6.566
 6980TIP3   OH242498   0.643   5.697   7.768
 6980TIP3    H142499   0.594   5.617   7.784
 6980TIP3    H242500   0.735   5.670   7.772
 6981TIP3   OH242501   0.674   2.819   1.133
 6981TIP3    H142502   0.727   2.774   1.199
 6981TIP3    H242503   0.682   2.765   1.055
 6982TIP3   OH242504   3.937   3.408   0.575
 6982TIP3    H142505   3.924   3.328   0.524
 6982TIP3    H242506   3.849   3.433   0.603
 6983TIP3   OH242507   5.357   0.238   8.063
 6983TIP3    H142508   5.290   0.174   8.039
 6983TIP3    H242509   5.337   0.316   8.011
 6984TIP3   OH242510   0.054   0.962   8.266
 6984TIP3    H142511   0.025   1.014   8.191
 6984TIP3    H242512   6.854   0.912   8.291
 6985TIP3   OH242513   4.537   2.776   7.855
 6985TIP3    H142514   4.629   2.748   7.848
 6985TIP3    H242515   4.522   2.827   7.775
 6986TIP3   OH242516   2.851   1.534   7.090
 6986TIP3    H142517   2.925   1.570   7.139
 6986TIP3    H242518   2.831   1.452   7.133
 6987TIP3   OH242519   2.954   2.059   8.413
 6987TIP3    H142520   2.948   2.037   8.320
 6987TIP3    H242521   3.047   2.047   8.434
 6988TIP3   OH242522   5.167   0.506   1.082
 6988TIP3    H142523   5.225   0.553   1.141
 6988TIP3    H242524   5.135   0.572   1.020
 6989TIP3   OH242525   5.769   4.148   1.539
 6989TIP3    H142526   5.846   4.196   1.569
 6989TIP3    H242527   5.795   4.056   1.546
 6990TIP3   OH242528   0.833   0.253   0.678
 6990TIP3    H142529   0.853   0.342   0.649
 6990TIP3    H242530   0.869   0.247   0.766
 6991TIP3   OH242531   6.285   6.058   1.603
 6991TIP3    H142532   6.269   6.152   1.590
 6991TIP3    H242533   6.254   6.041   1.692
 6992TIP3   OH242534   3.752   2.046   0.911
 6992TIP3    H142535   3.756   2.072   0.819
 6992TIP3    H242536   3.748   2.128   0.960
 6993TIP3   OH242537   0.543   1.475   7.317
 6993TIP3    H142538   0.457   1.512   7.296
 6993TIP3    H242539   0.569   1.427   7.238
 6994TIP3   OH242540   0.421   4.743   0.798
 6994TIP3    H142541   0.421   4.666   0.855
 6994TIP3    H242542   0.429   4.708   0.710
 6995TIP3   OH242543   0.547   1.522   1.563
 6995TIP3    H142544   0.575   1.450   1.619
 6995TIP3    H242545   0.627   1.549   1.517
 6996TIP3   OH242546   3.070   4.906   0.742
 6996TIP3    H142547   3.151   4.900   0.792
 6996TIP3    H242548   3.073   4.993   0.702
 6997TIP3   OH242549   5.553   2.340   1.061
 6997TIP3    H142550   5.581   2.407   1.124
 6997TIP3    H242551   5.493   2.387   1.002
 6998TIP3   OH242552   5.381   4.106   8.642
 6998TIP3    H142553   5.468   4.084   0.024
 6998TIP3    H242554   5.321   4.056   0.046
 6999TIP3   OH242555   4.293   1.993   0.726
 6999TIP3    H142556   4.262   2.003   0.816
 6999TIP3    H242557   4.213   1.994   0.673
 7000TIP3   OH242558   1.589   2.886   6.827
 7000TIP3    H142559   1.560   2.964   6.779
 7000TIP3    H242560   1.666   2.856   6.779
 7001TIP3   OH242561   3.544   0.879   2.326
 7001TIP3    H142562   3.582   0.836   2.403
 7001TIP3    H242563   3.508   0.808   2.274
 7002TIP3   OH242564   5.673   2.279   6.912
 7002TIP3    H142565   5.736   2.322   6.971
 7002TIP3    H242566   5.603   2.343   6.902
 7003TIP3   OH242567   0.667   6.630   0.759
 7003TIP3    H142568   0.619   6.633   0.841
 7003TIP3    H242569   0.600   6.630   0.691
 7004TIP3   OH242570   0.773   4.052   8.185
 7004TIP3    H142571   0.711   3.982   8.165
 7004TIP3    H242572   0.793   4.041   8.278
 7005TIP3   OH242573   0.154   3.809   1.344
 7005TIP3    H142574   0.116   3.888   1.383
 7005TIP3    H242575   0.246   3.811   1.371
 7006TIP3   OH242576   1.718   2.306   7.104
 7006TIP3    H142577   1.624   2.322   7.097
 7006TIP3    H242578   1.758   2.369   7.045
 7007TIP3   OH242579   1.688   0.172   0.077
 7007TIP3    H142580   1.600   0.200   0.102
 7007TIP3    H242581   1.733   0.158   0.161
 7008TIP3   OH242582   6.231   2.179   1.897
 7008TIP3    H142583   6.277   2.095   1.891
 7008TIP3    H242584   6.299   2.244   1.883
 7009TIP3   OH242585   1.556   6.805   6.712
 7009TIP3    H142586   1.633   6.820   6.657
 7009TIP3    H242587   1.498   6.753   6.657
 7010TIP3   OH242588   2.793   3.582   8.372
 7010TIP3    H142589   2.795   3.678   8.375
 7010TIP3    H242590   2.709   3.558   8.410
 7011TIP3   OH242591   1.678   3.194   7.175
 7011TIP3    H142592   1.664   3.123   7.112
 7011TIP3    H242593   1.743   3.158   7.236
 7012TIP3   OH242594   1.930   3.113   7.960
 7012TIP3    H142595   1.864   3.180   7.975
 7012TIP3    H242596   1.953   3.082   8.047
 7013TIP3   OH242597   5.214   5.526   8.291
 7013TIP3    H142598   5.168   5.609   8.299
 7013TIP3    H242599   5.273   5.538   8.216
 7014TIP3   OH242600   1.260   1.730   8.303
 7014TIP3    H142601   1.246   1.653   8.358
 7014TIP3    H242602   1.180   1.737   8.250
 7015TIP3   OH242603   5.558   5.691   7.413
 7015TIP3    H142604   5.642   5.680   7.457
 7015TIP3    H242605   5.543   5.608   7.368
 7016TIP3   OH242606   2.992   3.687   0.140
 7016TIP3    H142607   3.004   3.698   0.235
 7016TIP3    H242608   3.002   3.775   0.105
 7017TIP3   OH242609   1.054   4.837   8.472
 7017TIP3    H142610   1.147   4.845   8.491
 7017TIP3    H242611   1.049   4.779   8.396
 7018TIP3   OH242612   4.937   3.208   7.837
 7018TIP3    H142613   4.854   3.209   7.886
 7018TIP3    H242614   4.911   3.207   7.745
 7019TIP3   OH242615   0.957   0.648   7.847
 7019TIP3    H142616   0.982   0.653   7.939
 7019TIP3    H242617   1.007   0.718   7.805
 7020TIP3   OH242618   0.493   1.720   1.283
 7020TIP3    H142619   0.488   1.755   1.371
 7020TIP3    H242620   0.586   1.701   1.269
 7021TIP3   OH242621   5.838   2.613   8.019
 7021TIP3    H142622   5.743   2.616   8.025
 7021TIP3    H242623   5.856   2.555   7.945
 7022TIP3   OH242624   3.231   5.973   1.622
 7022TIP3    H142625   3.204   5.885   1.596
 7022TIP3    H242626   3.327   5.970   1.623
 7023TIP3   OH242627   6.544   4.705   1.075
 7023TIP3    H142628   6.537   4.798   1.056
 7023TIP3    H242629   6.512   4.696   1.165
 7024TIP3   OH242630   3.551   6.007   0.063
 7024TIP3    H142631   3.549   5.922   0.106
 7024TIP3    H242632   3.631   6.049   0.095
 7025TIP3   OH242633   5.216   3.705   0.646
 7025TIP3    H142634   5.126   3.701   0.615
 7025TIP3    H242635   5.208   3.715   0.740
 7026TIP3   OH242636   2.196   0.953   0.241
 7026TIP3    H142637   2.267   0.902   0.279
 7026TIP3    H242638   2.116   0.916   0.279
 7027TIP3   OH242639   3.320   6.741   2.469
 7027TIP3    H142640   3.329   6.836   2.466
 7027TIP3    H242641   3.408   6.709   2.487
 7028TIP3   OH242642   5.960   0.790   8.209
 7028TIP3    H142643   6.044   0.805   8.165
 7028TIP3    H242644   5.902   0.858   8.175
 7029TIP3   OH242645   2.539   0.131   1.251
 7029TIP3    H142646   2.488   0.199   1.206
 7029TIP3    H242647   2.486   0.052   1.243
 7030TIP3   OH242648   3.822   4.425   0.520
 7030TIP3    H142649   3.759   4.416   0.591
 7030TIP3    H242650   3.907   4.424   0.563
 7031TIP3   OH242651   0.047   2.340   7.630
 7031TIP3    H142652   0.041   2.398   7.707
 7031TIP3    H242653   0.040   2.399   7.555
 7032TIP3   OH242654   0.944   1.072   6.807
 7032TIP3    H142655   0.948   0.987   6.762
 7032TIP3    H242656   0.932   1.136   6.736
 7033TIP3   OH242657   4.013   4.224   6.474
 7033TIP3    H142658   4.002   4.163   6.401
 7033TIP3    H242659   4.091   4.193   6.520
 7034TIP3   OH242660   5.502   1.461   2.102
 7034TIP3    H142661   5.468   1.374   2.082
 7034TIP3    H242662   5.571   1.446   2.166
 7035TIP3   OH242663   5.646   0.811   8.471
 7035TIP3    H142664   5.614   0.741   8.528
 7035TIP3    H242665   5.709   0.858   8.524
 7036TIP3   OH242666   0.934   3.803   0.730
 7036TIP3    H142667   0.854   3.795   0.782
 7036TIP3    H242668   0.905   3.794   0.639
 7037TIP3   OH242669   6.854   4.008   1.769
 7037TIP3    H142670   0.013   3.941   1.825
 7037TIP3    H242671   6.759   3.992   1.770
 7038TIP3   OH242672   6.279   5.731   7.545
 7038TIP3    H142673   6.239   5.815   7.567
 7038TIP3    H242674   6.255   5.673   7.617
 7039TIP3   OH242675   3.348   2.534   6.674
 7039TIP3    H142676   3.346   2.524   6.769
 7039TIP3    H242677   3.441   2.528   6.651
 7040TIP3   OH242678   6.157   3.584   0.963
 7040TIP3    H142679   6.215   3.649   0.925
 7040TIP3    H242680   6.097   3.634   1.018
 7041TIP3   OH242681   2.245   4.264   8.532
 7041TIP3    H142682   2.324   4.301   8.493
 7041TIP3    H242683   2.175   4.324   8.507
 7042TIP3   OH242684   4.436   2.655   8.075
 7042TIP3    H142685   4.494   2.706   8.017
 7042TIP3    H242686   4.421   2.713   8.149
 7043TIP3   OH242687   6.745   4.912   7.057
 7043TIP3    H142688   6.703   4.881   6.977
 7043TIP3    H242689   6.834   4.877   7.053
 7044TIP3   OH242690   4.064   5.567   2.255
 7044TIP3    H142691   4.043   5.659   2.274
 7044TIP3    H242692   4.136   5.547   2.314
 7045TIP3   OH242693   2.799   3.672   6.295
 7045TIP3    H142694   2.713   3.714   6.300
 7045TIP3    H242695   2.808   3.646   6.203
 7046TIP3   OH242696   1.829   5.872   7.820
 7046TIP3    H142697   1.891   5.837   7.757
 7046TIP3    H242698   1.828   5.966   7.805
 7047TIP3   OH242699   1.436   1.396   8.012
 7047TIP3    H142700   1.453   1.482   8.051
 7047TIP3    H242701   1.511   1.343   8.038
 7048TIP3   OH242702   5.389   3.989   1.538
 7048TIP3    H142703   5.452   3.948   1.597
 7048TIP3    H242704   5.382   4.080   1.570
 7049TIP3   OH242705   4.049   5.087   7.353
 7049TIP3    H142706   4.015   4.998   7.350
 7049TIP3    H242707   4.143   5.077   7.370
 7050TIP3   OH242708   5.397   6.449   1.233
 7050TIP3    H142709   5.405   6.459   1.328
 7050TIP3    H242710   5.350   6.366   1.221
 7051TIP3   OH242711   4.549   5.828   0.708
 7051TIP3    H142712   4.512   5.740   0.718
 7051TIP3    H242713   4.636   5.813   0.671
 7052TIP3   OH242714   6.381   0.293   8.060
 7052TIP3    H142715   6.442   0.265   7.992
 7052TIP3    H242716   6.323   0.356   8.016
 7053TIP3   OH242717   6.030   0.056   0.126
 7053TIP3    H142718   5.936   0.060   0.142
 7053TIP3    H242719   6.064   0.138   0.160
 7054TIP3   OH242720   3.461   3.683   7.084
 7054TIP3    H142721   3.498   3.635   7.010
 7054TIP3    H242722   3.471   3.775   7.061
 7055TIP3   OH242723   5.704   4.291   7.206
 7055TIP3    H142724   5.718   4.201   7.178
 7055TIP3    H242725   5.768   4.305   7.276
 7056TIP3   OH242726   4.541   1.445   2.424
 7056TIP3    H142727   4.614   1.466   2.366
 7056TIP3    H242728   4.466   1.492   2.387
 7057TIP3   OH242729   0.540   2.548   8.302
 7057TIP3    H142730   0.575   2.628   8.261
 7057TIP3    H242731   0.501   2.579   8.384
 7058TIP3   OH242732   1.202   5.862   1.993
 7058TIP3    H142733   1.229   5.936   2.047
 7058TIP3    H242734   1.241   5.786   2.037
 7059TIP3   OH242735   5.564   3.178   8.263
 7059TIP3    H142736   5.545   3.133   8.180
 7059TIP3    H242737   5.658   3.195   8.259
 7060TIP3   OH242738   6.060   4.729   0.998
 7060TIP3    H142739   5.968   4.709   1.015
 7060TIP3    H242740   6.100   4.645   0.978
 7061TIP3   OH242741   3.241   6.144   0.281
 7061TIP3    H142742   3.266   6.172   0.193
 7061TIP3    H242743   3.272   6.214   0.338
 7062TIP3   OH242744   1.607   6.687   6.994
 7062TIP3    H142745   1.516   6.705   7.015
 7062TIP3    H242746   1.616   6.712   6.902
 7063TIP3   OH242747   3.658   2.554   1.610
 7063TIP3    H142748   3.749   2.528   1.628
 7063TIP3    H242749   3.614   2.473   1.587
 7064TIP3   OH242750   6.705   4.420   7.654
 7064TIP3    H142751   6.736   4.357   7.719
 7064TIP3    H242752   6.765   4.495   7.662
 7065TIP3   OH242753   2.901   4.615   7.961
 7065TIP3    H142754   2.904   4.526   7.926
 7065TIP3    H242755   2.823   4.617   8.016
 7066TIP3   OH242756   2.862   4.738   6.490
 7066TIP3    H142757   2.846   4.760   6.582
 7066TIP3    H242758   2.921   4.808   6.459
 7067TIP3   OH242759   6.633   3.574   1.117
 7067TIP3    H142760   6.545   3.547   1.144
 7067TIP3    H242761   6.680   3.492   1.100
 7068TIP3   OH242762   3.416   4.477   0.191
 7068TIP3    H142763   3.368   4.557   0.215
 7068TIP3    H242764   3.475   4.462   0.265
 7069TIP3   OH242765   2.927   4.676   8.614
 7069TIP3    H142766   3.011   4.634   8.595
 7069TIP3    H242767   2.922   4.677   0.058
 7070TIP3   OH242768   5.802   4.279   6.790
 7070TIP3    H142769   5.783   4.212   6.724
 7070TIP3    H242770   5.897   4.287   6.789
 7071TIP3   OH242771   1.281   0.323   1.246
 7071TIP3    H142772   1.236   0.252   1.293
 7071TIP3    H242773   1.296   0.390   1.313
 7072LIG      O42774   2.427   5.975   2.509
 7072LIG     C142775   2.405   6.042   2.634
 7072LIG     C242776   2.383   6.196   2.616
 7072LIG     C342777   2.300   5.974   2.713
 7072LIG     H142778   2.502   6.029   2.687
 7072LIG     H242779   2.422   6.255   2.702
 7072LIG     H342780   2.274   6.212   2.613
 7072LIG     H442781   2.424   6.232   2.519
 7072LIG     H542782   2.328   5.867   2.727
 7072LIG     H642783   2.201   5.999   2.669
 7072LIG     H742784   2.289   6.025   2.812
 7072LIG     H842785   2.503   5.925   2.540
   6.87793   6.87793   8.65085
